Title
29212
    1ASP      N    1   3.078   3.183   4.079 -0.6977  0.6841 -0.0121
    1ASP    HT1    2   3.159   3.120   4.061  0.2912  2.3269 -1.6165
    1ASP    HT2    3   3.082   3.218   4.177 -0.8279  0.1101  0.2022
    1ASP    HT3    4   3.085   3.262   4.011  1.2429  0.9388  0.4125
    1ASP     CA    5   2.956   3.113   4.051 -0.8265  0.2245 -0.5874
    1ASP     HA    6   2.874   3.180   4.075 -1.8017 -1.8468  2.5690
    1ASP     CB    7   2.950   3.064   3.903  0.4324  0.3565 -0.3923
    1ASP    HB1    8   3.010   2.970   3.897  1.4883  1.0368 -0.8670
    1ASP    HB2    9   3.001   3.142   3.843 -0.1346  0.7523 -0.3626
    1ASP     CG   10   2.808   3.042   3.850  0.3970  0.6934  0.3206
    1ASP    OD1   11   2.812   2.981   3.742 -0.2017  0.4405 -0.4545
    1ASP    OD2   12   2.707   3.078   3.912  0.2430 -0.6715 -0.7108
    1ASP      C   13   2.949   2.996   4.149  0.5670 -0.3090 -0.2469
    1ASP      O   14   3.022   2.982   4.247  0.6969 -0.6964 -0.0459
    2GLY      N   15   2.845   2.910   4.124  0.7743 -0.1260  0.2627
    2GLY     HN   16   2.780   2.924   4.050  0.1848  1.0484  0.9743
    2GLY     CA   17   2.819   2.783   4.197 -0.3186 -0.0100  1.1478
    2GLY    HA1   18   2.730   2.736   4.157  0.4502 -0.5048 -0.0623
    2GLY    HA2   19   2.815   2.808   4.302  1.5380  0.7860  1.0683
    2GLY      C   20   2.936   2.684   4.178 -0.1731 -0.4843 -0.6968
    2GLY      O   21   3.023   2.700   4.093 -0.0480 -0.0745  0.3599
    3ASP      N   22   2.929   2.582   4.262  0.1062  0.4813 -0.2136
    3ASP     HN   23   2.852   2.571   4.325  1.1302 -3.6837  0.6222
    3ASP     CA   24   3.012   2.464   4.251  0.1338  0.2944 -0.3768
    3ASP     HA   25   3.092   2.486   4.182  0.7059 -1.6489 -0.4073
    3ASP     CB   26   3.058   2.425   4.394 -0.0240  0.3636 -0.1477
    3ASP    HB1   27   3.139   2.349   4.390  0.0385  0.3846  0.5360
    3ASP    HB2   28   2.979   2.389   4.463 -1.3174  2.3232 -0.5236
    3ASP     CG   29   3.113   2.553   4.455 -0.4372 -0.0691  0.1045
    3ASP    OD1   30   3.077   2.577   4.573  0.4939 -0.2618  0.7556
    3ASP    OD2   31   3.200   2.619   4.396 -0.3709 -0.4876  0.4034
    3ASP      C   32   2.938   2.340   4.202 -0.0741 -0.0335  0.4017
    3ASP      O   33   2.833   2.316   4.246  0.1192  0.7814  0.1897
    4GLY      N   34   3.003   2.265   4.102 -0.5859 -0.1638 -0.5644
    4GLY     HN   35   3.085   2.305   4.061 -0.1382 -1.0220 -0.5486
    4GLY     CA   36   2.953   2.151   4.040  0.4608  0.0412  0.3273
    4GLY    HA1   37   2.944   2.083   4.124  0.1298 -0.2536  0.0567
    4GLY    HA2   38   3.027   2.126   3.966  0.7741  0.1862  0.5891
    4GLY      C   39   2.822   2.163   3.969  0.4447  0.3863 -0.3759
    4GLY      O   40   2.771   2.270   3.944 -0.0393 -0.3251  0.1061
    5PRO      N   41   2.767   2.057   3.915  0.4044  0.3928 -0.5471
    5PRO     CD   42   2.839   1.930   3.911 -0.1743  0.1839 -0.3087
    5PRO    HD1   43   2.855   1.889   4.013 -1.0682  0.6736  0.0421
    5PRO    HD2   44   2.938   1.948   3.865 -1.1434  2.2843 -1.7390
    5PRO     CA   45   2.640   2.048   3.841 -0.0499 -0.6652 -0.3116
    5PRO     HA   46   2.661   2.093   3.745  0.1255 -1.5845 -0.7176
    5PRO     CB   47   2.613   1.900   3.833 -0.0541 -0.2616  0.0273
    5PRO    HB1   48   2.547   1.871   3.749 -0.9790 -0.5925  0.8590
    5PRO    HB2   49   2.563   1.868   3.927  1.7191  0.9558  1.4578
    5PRO     CG   50   2.752   1.837   3.819  0.0936  0.5947 -0.6025
    5PRO    HG1   51   2.740   1.729   3.841  1.1618  0.5656 -0.1138
    5PRO    HG2   52   2.791   1.856   3.716 -1.4811  0.7550 -1.1959
    5PRO      C   53   2.529   2.135   3.896  0.3631 -0.4043  0.5188
    5PRO      O   54   2.519   2.159   4.018 -0.2017 -0.2375  0.3292
    6GLY      N   55   2.448   2.200   3.807  0.4218  0.7608 -0.3392
    6GLY     HN   56   2.465   2.169   3.713  0.8989  2.1606 -0.7268
    6GLY     CA   57   2.328   2.281   3.848 -0.5257 -0.7202 -0.2422
    6GLY    HA1   58   2.281   2.309   3.755  0.2172  1.1344 -0.0972
    6GLY    HA2   59   2.378   2.366   3.891 -2.1788  1.7130 -2.8156
    6GLY      C   60   2.217   2.213   3.930 -0.6108 -0.1194  0.3359
    6GLY      O   61   2.177   2.103   3.914 -0.3636  0.3427 -0.2629
    7ASP      N   62   2.148   2.294   4.009  0.2497 -0.2692 -0.1234
    7ASP     HN   63   2.171   2.391   4.007 -1.6316  0.2518 -2.8107
    7ASP     CA   64   2.044   2.267   4.103 -0.4570 -0.9010 -0.2214
    7ASP     HA   65   2.076   2.185   4.165  0.7603  0.0535  0.4493
    7ASP     CB   66   2.009   2.396   4.176  0.1429 -0.1002 -0.5825
    7ASP    HB1   67   1.923   2.385   4.245 -0.3198  1.3173 -0.9182
    7ASP    HB2   68   1.967   2.469   4.104 -2.6483  0.7937  1.7543
    7ASP     CG   69   2.118   2.458   4.255  0.5840 -0.0681  0.3318
    7ASP    OD1   70   2.217   2.397   4.294  0.2517  0.0320  0.3635
    7ASP    OD2   71   2.105   2.582   4.287 -0.0820 -0.1586  0.7930
    7ASP      C   72   1.915   2.221   4.028  0.5680  0.4801 -0.7151
    7ASP      O   73   1.891   2.263   3.917 -0.4117 -0.6356  0.6970
    8PRO      N   74   1.829   2.137   4.082  0.2223  0.3364 -0.0950
    8PRO     CD   75   1.841   2.088   4.219 -0.1788  0.4051 -0.5103
    8PRO    HD1   76   1.833   2.173   4.289  1.3690  0.9893 -0.9865
    8PRO    HD2   77   1.939   2.039   4.239  1.1365  2.9149 -0.3321
    8PRO     CA   78   1.715   2.079   4.014  0.3480  0.0544  0.1400
    8PRO     HA   79   1.757   1.992   3.966  0.3893 -0.1792  0.5950
    8PRO     CB   80   1.625   2.041   4.130  0.4575 -0.6036 -0.1769
    8PRO    HB1   81   1.552   1.965   4.097 -0.6325  0.2867  0.1159
    8PRO    HB2   82   1.573   2.133   4.166 -1.2120 -0.4282 -2.7390
    8PRO     CG   83   1.719   1.996   4.244 -0.5251  0.0371  0.2757
    8PRO    HG1   84   1.665   2.015   4.340  0.7210 -1.2435  1.2560
    8PRO    HG2   85   1.740   1.888   4.235 -0.7838  0.0346 -0.3451
    8PRO      C   86   1.637   2.156   3.915 -0.0634 -0.4060  0.1027
    8PRO      O   87   1.603   2.272   3.937  0.0141  0.3234 -0.4622
    9GLY      N   88   1.606   2.097   3.800  0.4727  0.0716 -0.2965
    9GLY     HN   89   1.645   2.007   3.786  2.3454  0.2422  2.7109
    9GLY     CA   90   1.526   2.159   3.691  0.0148 -0.3211 -0.5795
    9GLY    HA1   91   1.545   2.108   3.598 -0.2835 -0.6425 -0.4678
    9GLY    HA2   92   1.547   2.265   3.685 -0.4084 -0.2144 -0.2775
    9GLY      C   93   1.376   2.151   3.712 -0.2482 -0.2378 -0.5754
    9GLY      O   94   1.322   2.081   3.796 -0.5214 -0.1545  0.1789
   10ASP      N   95   1.313   2.233   3.628  0.1424  0.2981  0.5709
   10ASP     HN   96   1.362   2.307   3.583  0.6487  0.8148  1.9127
   10ASP     CA   97   1.166   2.250   3.624  0.3350  0.1157  0.6559
   10ASP     HA   98   1.127   2.187   3.703 -0.5631  0.1755  0.2738
   10ASP     CB   99   1.124   2.398   3.640  0.2766 -0.4425  0.5776
   10ASP    HB1  100   1.168   2.454   3.554  3.3841 -2.6712  0.5602
   10ASP    HB2  101   1.171   2.441   3.732  1.7452  0.6898 -0.6567
   10ASP     CG  102   0.973   2.418   3.644 -0.3570 -0.3691 -0.5211
   10ASP    OD1  103   0.901   2.323   3.684  0.2941  0.3378 -0.0728
   10ASP    OD2  104   0.928   2.532   3.621  0.0939 -0.1741  0.1047
   10ASP      C  105   1.115   2.195   3.486  0.6441 -0.0095 -0.2366
   10ASP      O  106   1.138   2.250   3.382  0.0567  0.6328  0.6892
   11GLY      N  107   1.034   2.088   3.492  0.4677 -0.3141 -0.9265
   11GLY     HN  108   1.002   2.056   3.581 -0.9693 -1.1570 -1.7001
   11GLY     CA  109   1.003   2.004   3.378 -0.5125 -0.3271 -0.5545
   11GLY    HA1  110   1.014   2.061   3.287 -2.9299  0.6148 -0.3145
   11GLY    HA2  111   0.903   1.970   3.398  0.6868 -3.5592  0.6274
   11GLY      C  112   1.097   1.881   3.374 -0.4017 -0.1100 -0.3314
   11GLY    OT1  113   1.042   1.779   3.324  0.5731  0.2725 -0.1178
   11GLY    OT2  114   1.213   1.872   3.426  0.2105  0.1359 -0.8281
   12SOD    SOD  115   1.353   1.494   3.587 -0.4401  0.0543 -0.3695
   13SOD    SOD  116   6.557   0.354   1.272  0.2458 -0.3535  0.2845
   14SOD    SOD  117   6.191   6.205   3.259 -0.4236 -0.0022  0.0539
   15SOD    SOD  118   3.383   5.949   0.485 -0.1182  0.1756  0.4765
   16SOD    SOD  119   6.872   4.231   5.669  0.1645 -0.3392  0.1172
   17SOD    SOD  120   2.575   3.879   5.288  0.3385 -0.7307 -0.5739
   18SOD    SOD  121   1.985   0.738   0.070  0.0199 -0.4335  0.4408
   19SOD    SOD  122   0.376   1.631   1.123  0.1628 -0.1994 -0.1403
   20SOD    SOD  123   2.655   4.388   3.458 -0.2635  0.1932 -0.3416
   21SOD    SOD  124   4.624   3.087   1.582 -0.1395 -0.2937  0.1754
   22SOD    SOD  125   3.042   4.762   0.936 -0.0522  0.1464 -0.4364
   23SOD    SOD  126   0.100   1.106   3.488 -0.2598  0.5141 -0.5002
   24SOD    SOD  127   1.636   0.963   4.489 -0.0414  0.2744  0.0006
   25SOD    SOD  128   1.125   3.045   4.252 -0.7309 -0.4900 -0.2270
   26SOD    SOD  129   3.271   6.654   4.774  0.2191 -0.2531  0.1706
   27SOD    SOD  130   1.688   5.586   0.909  0.2755 -0.0329  0.0829
   28SOD    SOD  131   5.205   4.770   3.685  0.7633  0.1210 -0.2993
   29SOD    SOD  132   4.620   2.394   5.311 -0.3625 -0.3752 -0.3286
   30SOD    SOD  133   5.683   5.801   1.928  0.1186 -0.1117 -0.1548
   31SOD    SOD  134   1.214   2.809   2.656 -0.0244  0.1770 -0.0318
   32SOD    SOD  135   5.705   2.982   4.225 -0.4273 -0.1271  0.0423
   33SOD    SOD  136   0.341   4.214   0.792 -0.0113 -0.5847  0.3497
   34SOD    SOD  137   7.128   4.727   4.341  0.2853 -0.4926 -0.3898
   35SOD    SOD  138   2.352   2.719   2.605  0.1454 -0.2980  0.1310
   36SOD    SOD  139   1.707   6.782   1.147  0.1274 -0.2629 -0.0170
   37SOD    SOD  140   5.646   1.018   0.064 -0.4683  0.0067 -0.2224
   38SOD    SOD  141   6.841   5.933   0.400 -0.2495 -0.1468 -0.1789
   39SOD    SOD  142   1.967   0.359   2.825 -0.0182 -0.3421 -0.1172
   40SOD    SOD  143   4.636   6.131   2.587 -0.2165 -0.0031  0.3123
   41SOD    SOD  144   4.312   6.591   1.155  0.4045 -0.3087 -0.3680
   42SOD    SOD  145   1.563   3.408   1.198  0.3842 -0.0972 -0.1143
   43CLA    CLA  146   3.132   6.392   2.365  0.2972 -0.0478  0.0646
   44CLA    CLA  147   5.859   3.870   0.714  0.1434  0.6967 -0.3720
   45CLA    CLA  148   3.210   5.729   0.003 -0.0835 -0.3190 -0.1646
   46CLA    CLA  149   5.612   3.282   4.471  0.2716 -0.0119  0.2615
   47CLA    CLA  150   3.728   2.067   0.070  0.3059  0.0959  0.0363
   48CLA    CLA  151   5.927   0.457   2.455 -0.3447 -0.2069  0.2142
   49CLA    CLA  152   1.991   0.419   4.204 -0.3000 -0.0275 -0.1464
   50CLA    CLA  153   4.184   6.329   4.411 -0.2129  0.1427 -0.0060
   51CLA    CLA  154   0.209   3.708   4.679  0.5012  0.1567 -0.1338
   52CLA    CLA  155   4.134   1.434   1.415  0.1501 -0.2326 -0.1300
   53CLA    CLA  156   1.642   4.898   3.665 -0.0818 -0.1977  0.2539
   54CLA    CLA  157   6.871   0.972   2.909 -0.1174 -0.0800  0.2867
   55CLA    CLA  158   7.017   0.209   3.584  0.2436  0.1175 -0.2471
   56CLA    CLA  159   6.082   1.326   5.352  0.5083  0.2341 -0.1452
   57CLA    CLA  160   1.406   2.800   1.454 -0.1442  0.1274  0.5121
   58CLA    CLA  161   2.726   5.881   0.159  0.0454  0.1073  0.3218
   59CLA    CLA  162   6.466   1.756   3.618  0.1158  0.2381 -0.3081
   60CLA    CLA  163   1.562   1.662   0.230 -0.1443 -0.1286 -0.2564
   61CLA    CLA  164   1.079   1.575   0.963 -0.0551 -0.1648  0.3204
   62CLA    CLA  165   1.000   3.985   2.288 -0.1580  0.0320  0.1159
   63CLA    CLA  166   2.270   4.763   3.444  0.2060  0.2721 -0.0374
   64CLA    CLA  167   0.102   3.341   3.007 -0.0363 -0.1659 -0.1220
   65CLA    CLA  168   4.563   3.705   0.231 -0.2354  0.0162 -0.1891
   66CLA    CLA  169   5.869   0.513   0.785 -0.2080 -0.0678 -0.5363
   67CLA    CLA  170   5.848   5.606   1.837 -0.2108  0.1303 -0.1768
   68CLA    CLA  171   6.480   4.653   2.965 -0.4177  0.0525 -0.2631
   69CLA    CLA  172   4.172   2.448   5.465  0.3451 -0.3580 -0.2823
   70TIP3   OH2  173   2.052   3.365   4.519  0.4787  0.1593 -0.1026
   70TIP3    H1  174   2.094   3.377   4.604 -0.1618 -0.2954  0.2833
   70TIP3    H2  175   2.051   3.270   4.506 -1.1186  0.1073  0.2474
   71TIP3   OH2  176   6.112   4.020   4.501 -0.0762  0.3004  0.4953
   71TIP3    H1  177   6.069   4.082   4.559  0.0301 -0.0638  0.9646
   71TIP3    H2  178   6.044   3.990   4.441  0.2814  2.4007 -1.0820
   72TIP3   OH2  179   7.166   2.805   1.860  0.4762  0.2952 -0.3837
   72TIP3    H1  180   7.149   2.770   1.947 -0.1335  0.7198 -0.3266
   72TIP3    H2  181   7.143   2.733   1.801 -2.7252  1.1681 -0.3732
   73TIP3   OH2  182   1.630   3.099   3.087 -0.1835  0.0377 -0.0934
   73TIP3    H1  183   1.719   3.063   3.093 -0.0840 -0.0601 -1.7160
   73TIP3    H2  184   1.642   3.193   3.096  0.4768  0.3116 -2.9248
   74TIP3   OH2  185   3.122   2.556   3.611  0.1171  0.0410  0.1201
   74TIP3    H1  186   3.089   2.579   3.524  0.6525 -2.6895 -0.8982
   74TIP3    H2  187   3.051   2.509   3.653  0.5969 -0.5573  0.2810
   75TIP3   OH2  188   4.330   3.621   2.426  0.4836  0.2631 -0.6605
   75TIP3    H1  189   4.295   3.697   2.379 -1.4347 -0.0549  0.1316
   75TIP3    H2  190   4.284   3.623   2.510  2.1395 -0.4744  0.3012
   76TIP3   OH2  191   5.462   2.148   2.663 -0.4315 -0.1530 -0.3726
   76TIP3    H1  192   5.527   2.125   2.596 -1.2019 -0.9648 -0.8487
   76TIP3    H2  193   5.500   2.118   2.745  0.3221  0.4539 -0.4812
   77TIP3   OH2  194   1.676   2.576   3.944  0.4433  0.3626  0.2937
   77TIP3    H1  195   1.722   2.545   3.867 -2.2330  1.6445 -2.0042
   77TIP3    H2  196   1.600   2.519   3.952  0.6192  0.3147  1.9654
   78TIP3   OH2  197   5.432   5.536   3.035  0.1088  0.0411  0.1799
   78TIP3    H1  198   5.457   5.566   3.122  0.8399 -0.1741  0.0459
   78TIP3    H2  199   5.513   5.538   2.984 -0.2423 -0.1733 -0.3998
   79TIP3   OH2  200   6.166   1.397   3.681 -0.1411  0.1400 -0.4620
   79TIP3    H1  201   6.143   1.435   3.766  1.0061  0.6388 -0.3519
   79TIP3    H2  202   6.142   1.305   3.689 -0.4886  0.2828  0.2341
   80TIP3   OH2  203   1.273   4.467   4.216  0.1096  0.1719  0.1916
   80TIP3    H1  204   1.300   4.558   4.226  2.2211 -0.4850  1.0954
   80TIP3    H2  205   1.353   4.420   4.191 -0.2178 -1.8279  2.4194
   81TIP3   OH2  206   0.662   4.051   3.574  0.2366  0.1259  1.1601
   81TIP3    H1  207   0.702   4.095   3.499  0.3012  0.4098  1.3577
   81TIP3    H2  208   0.712   4.082   3.650 -0.3666  0.5055  1.4130
   82TIP3   OH2  209   1.314   2.051   3.036 -0.1264 -0.1606 -0.8093
   82TIP3    H1  210   1.280   1.978   2.984 -0.6438 -0.8567  0.4679
   82TIP3    H2  211   1.240   2.111   3.044  0.3432  0.5993 -1.9870
   83TIP3   OH2  212   7.084   0.232   5.820 -0.6186 -0.2120 -0.5079
   83TIP3    H1  213   7.092   0.188   5.905 -0.9060  0.7865  0.0620
   83TIP3    H2  214   7.073   0.325   5.843 -0.0330  0.1547 -1.6657
   84TIP3   OH2  215   2.938   5.825   1.161 -0.0900 -0.2565  0.1523
   84TIP3    H1  216   2.878   5.765   1.116  0.8555 -0.5338 -0.7648
   84TIP3    H2  217   2.923   5.909   1.119 -0.4545 -0.1261  0.5299
   85TIP3   OH2  218   2.534   5.475   1.708 -0.1052 -0.7891 -0.1862
   85TIP3    H1  219   2.585   5.421   1.648 -0.8076 -1.7655  0.0837
   85TIP3    H2  220   2.577   5.465   1.792  0.1989 -0.3331 -0.2838
   86TIP3   OH2  221   0.700   5.333   2.989  0.0783 -0.3640  0.2049
   86TIP3    H1  222   0.634   5.281   2.943  1.3894 -2.1903  0.2808
   86TIP3    H2  223   0.731   5.276   3.060  2.1926  0.1353 -0.2418
   87TIP3   OH2  224   2.072   4.499   3.117  0.0220  0.0200  0.3511
   87TIP3    H1  225   2.130   4.473   3.045 -1.9991 -1.5818 -0.7786
   87TIP3    H2  226   2.122   4.478   3.196  1.2035 -0.7768 -0.5717
   88TIP3   OH2  227   1.083   1.790   4.961  0.4978 -0.0264  0.0566
   88TIP3    H1  228   1.169   1.760   4.991  0.6211  0.3478  0.0763
   88TIP3    H2  229   1.078   1.881   4.989  0.1305 -0.0184 -0.0263
   89TIP3   OH2  230   0.443   1.100   1.072 -0.5969 -0.5227 -0.3143
   89TIP3    H1  231   0.509   1.051   1.122  1.2221 -0.1336 -2.1684
   89TIP3    H2  232   0.372   1.116   1.135 -0.7183 -4.2992  0.7630
   90TIP3   OH2  233   4.648   2.362   1.668  0.2832 -0.5350  0.3823
   90TIP3    H1  234   4.574   2.358   1.608  0.7512 -1.3541 -0.1583
   90TIP3    H2  235   4.713   2.417   1.623 -0.1709  0.5954  1.0712
   91TIP3   OH2  236   5.489   3.797   4.408 -0.2424  0.0345  0.0099
   91TIP3    H1  237   5.400   3.806   4.373 -0.7268 -0.9426  0.9424
   91TIP3    H2  238   5.483   3.725   4.471  1.3840 -0.5927 -0.4898
   92TIP3   OH2  239   4.109   5.277   2.030 -0.4396 -0.4046  0.0964
   92TIP3    H1  240   4.113   5.372   2.021 -3.3486 -0.0902  0.9376
   92TIP3    H2  241   4.063   5.247   1.951 -0.6867 -0.9424  0.4344
   93TIP3   OH2  242   0.601   0.074   1.889 -0.6372  0.2791 -0.0453
   93TIP3    H1  243   0.653   0.065   1.969 -0.5089  0.8473 -0.0627
   93TIP3    H2  244   0.654   0.128   1.831 -1.6672  1.7464  0.3276
   94TIP3   OH2  245   6.000   5.003   0.931 -0.6329  0.2799 -0.3908
   94TIP3    H1  246   6.079   4.969   0.889 -0.4566 -0.0157  0.1675
   94TIP3    H2  247   6.027   5.085   0.971 -1.0842  1.1576 -1.8261
   95TIP3   OH2  248   5.624   1.233   4.205 -0.1792  0.0665 -0.1125
   95TIP3    H1  249   5.676   1.305   4.242  0.2447 -1.6569  3.0332
   95TIP3    H2  250   5.564   1.209   4.275 -0.0733 -2.8328 -0.8998
   96TIP3   OH2  251   2.524   4.150   4.248  0.1707  0.2359 -0.0488
   96TIP3    H1  252   2.485   4.224   4.295 -0.0844  0.5519 -0.7407
   96TIP3    H2  253   2.614   4.145   4.281  0.3638  1.2147 -0.3936
   97TIP3   OH2  254   5.772   0.298   1.747  0.0065 -0.5125 -0.3075
   97TIP3    H1  255   5.798   0.295   1.839 -1.5032 -0.5087  0.1456
   97TIP3    H2  256   5.677   0.291   1.749 -0.2935  1.9904 -1.7167
   98TIP3   OH2  257   3.460   1.196   1.779  0.1689  0.3246  0.2778
   98TIP3    H1  258   3.544   1.151   1.770 -0.2106 -0.3668  0.1226
   98TIP3    H2  259   3.458   1.226   1.870  0.3980 -0.0379  0.4055
   99TIP3   OH2  260   1.092   5.350   3.909 -0.0330 -0.3812 -0.6014
   99TIP3    H1  261   1.037   5.287   3.861 -0.9850 -0.2071  0.2239
   99TIP3    H2  262   1.053   5.353   3.996  2.0419 -1.1880  0.4250
  100TIP3   OH2  263   7.010   4.031   1.221  0.4688 -0.4699 -0.1960
  100TIP3    H1  264   7.022   3.942   1.189 -0.1646 -1.1917  1.4873
  100TIP3    H2  265   7.062   4.037   1.301 -0.7881  0.1167  0.6186
  101TIP3   OH2  266   3.815   2.533   0.815  0.1536  0.1523  0.5057
  101TIP3    H1  267   3.771   2.606   0.860  0.5547  1.3101 -0.9075
  101TIP3    H2  268   3.803   2.551   0.722  0.2897 -1.6026  0.1115
  102TIP3   OH2  269   2.087   2.465   2.758 -0.2190  0.3448  0.0692
  102TIP3    H1  270   2.040   2.455   2.675 -0.5907  0.5770  0.2472
  102TIP3    H2  271   2.179   2.458   2.734 -0.3564 -2.6756  0.0520
  103TIP3   OH2  272   3.613   2.391   3.897 -0.1614  0.0949 -0.1079
  103TIP3    H1  273   3.693   2.377   3.948 -0.1574 -0.6785 -0.3070
  103TIP3    H2  274   3.633   2.464   3.839 -0.3968  1.4808  1.4723
  104TIP3   OH2  275   6.269   6.211   4.821  0.4729  0.1774  0.2252
  104TIP3    H1  276   6.244   6.168   4.739 -2.0298 -0.2121  1.0832
  104TIP3    H2  277   6.305   6.296   4.794  3.5573 -1.4692 -1.3999
  105TIP3   OH2  278   3.418   4.473   5.638 -0.4821 -0.1655  0.1769
  105TIP3    H1  279   3.480   4.528   5.591 -0.6543  0.2952  0.4903
  105TIP3    H2  280   3.402   4.518   5.720 -2.0249  0.2606 -0.3165
  106TIP3   OH2  281   2.693   4.279   2.571  0.3649  0.1885  0.0064
  106TIP3    H1  282   2.651   4.217   2.511 -0.1222  1.4058 -0.9513
  106TIP3    H2  283   2.722   4.351   2.515  0.9004  0.8559  1.0956
  107TIP3   OH2  284   6.413   0.798   2.455 -0.1216  0.3551  0.4327
  107TIP3    H1  285   6.446   0.867   2.513  0.6095 -0.6733  1.2720
  107TIP3    H2  286   6.459   0.812   2.372 -0.4802  1.2722  0.3766
  108TIP3   OH2  287   5.293   5.327   5.006  0.3663 -0.0813  0.2741
  108TIP3    H1  288   5.261   5.293   5.090 -1.3948  0.3837 -0.1851
  108TIP3    H2  289   5.219   5.374   4.969 -0.1629 -3.1946 -3.1888
  109TIP3   OH2  290   1.252   5.299   4.979  0.2697  0.2195 -0.2413
  109TIP3    H1  291   1.191   5.260   5.040  0.1408 -1.4115 -1.3580
  109TIP3    H2  292   1.197   5.333   4.908  0.4809  1.3154  0.0907
  110TIP3   OH2  293   5.939   1.908   2.091 -0.3706  0.2693  0.2526
  110TIP3    H1  294   5.987   1.945   2.017 -0.6282 -1.0322 -0.6050
  110TIP3    H2  295   5.998   1.841   2.126 -0.7966 -0.0509  0.3618
  111TIP3   OH2  296   4.886   3.543   1.167 -0.3559  0.1148  0.1341
  111TIP3    H1  297   4.910   3.628   1.204  1.0175 -0.1160 -0.1894
  111TIP3    H2  298   4.897   3.554   1.072 -0.6976 -0.2704  0.0446
  112TIP3   OH2  299   1.018   0.210   2.054  0.1892  0.3160  0.2475
  112TIP3    H1  300   1.062   0.284   2.097  0.5191 -0.0724  0.5818
  112TIP3    H2  301   1.082   0.139   2.056  1.1708  0.9325 -3.0082
  113TIP3   OH2  302   3.635   3.444   2.288  0.0272 -0.0018 -0.0153
  113TIP3    H1  303   3.561   3.438   2.349  0.4981  0.6225  0.6170
  113TIP3    H2  304   3.608   3.509   2.224 -0.5310 -0.7674 -0.5862
  114TIP3   OH2  305   5.204   0.525   3.791 -0.1239 -0.0937  0.8298
  114TIP3    H1  306   5.156   0.608   3.789  1.0313  0.6467  2.0913
  114TIP3    H2  307   5.239   0.515   3.703 -0.6599  0.5119  0.5358
  115TIP3   OH2  308   5.516   2.683   0.866 -0.1311 -0.8077 -0.5337
  115TIP3    H1  309   5.485   2.615   0.805 -0.0250 -0.7834 -0.6161
  115TIP3    H2  310   5.584   2.639   0.918  0.3756 -0.5964 -1.0060
  116TIP3   OH2  311   3.982   0.352   1.585 -0.3780 -0.2539  0.0501
  116TIP3    H1  312   4.046   0.326   1.651 -0.7627 -0.2514  0.4282
  116TIP3    H2  313   3.941   0.270   1.558 -0.9266 -0.1521  0.5540
  117TIP3   OH2  314   1.643   6.695   3.675  0.6989 -0.3927  0.4501
  117TIP3    H1  315   1.704   6.668   3.743 -0.2118  0.5218  1.6882
  117TIP3    H2  316   1.558   6.660   3.702  0.4439 -0.6399 -0.6093
  118TIP3   OH2  317   4.699   3.129   5.387  0.5094  0.0148  0.2563
  118TIP3    H1  318   4.772   3.120   5.448  0.2034 -1.1443  0.4678
  118TIP3    H2  319   4.692   3.223   5.372  0.8383  0.2985  1.7040
  119TIP3   OH2  320   3.109   3.237   3.640  0.1493 -0.4271  0.1308
  119TIP3    H1  321   3.123   3.194   3.556  0.5342  1.4898 -0.8296
  119TIP3    H2  322   3.196   3.267   3.667 -0.2467  0.7640  0.1662
  120TIP3   OH2  323   6.777   2.890   1.927  0.2507  0.3416  0.4654
  120TIP3    H1  324   6.692   2.932   1.912  1.3905  2.9912  0.8166
  120TIP3    H2  325   6.838   2.963   1.936  2.6121 -1.4710  0.1311
  121TIP3   OH2  326   2.163   5.437   1.123 -0.1616  0.0210 -0.2711
  121TIP3    H1  327   2.247   5.454   1.167 -0.4421 -0.0795  0.3070
  121TIP3    H2  328   2.150   5.343   1.130 -0.1505 -0.0117 -0.6776
  122TIP3   OH2  329   0.381   2.022   5.126  0.2763 -0.2071 -0.1421
  122TIP3    H1  330   0.410   1.968   5.053  0.0156  0.7039 -0.9270
  122TIP3    H2  331   0.286   2.016   5.125  0.2175  0.6685 -0.5535
  123TIP3   OH2  332   3.937   6.810   1.072  0.1765 -0.0618  0.2781
  123TIP3    H1  333   3.902   6.833   1.158  0.7569  0.5757  0.3460
  123TIP3    H2  334   3.887   6.732   1.046 -2.3159  1.6251 -0.2757
  124TIP3   OH2  335   1.293   2.892   2.865  0.4417  0.5951  0.1752
  124TIP3    H1  336   1.225   2.871   2.930  0.9224  0.7863  0.7445
  124TIP3    H2  337   1.288   2.987   2.856 -0.5013  0.4583 -1.0491
  125TIP3   OH2  338   5.604   2.498   4.834 -0.1134 -0.1135  0.2426
  125TIP3    H1  339   5.630   2.419   4.882  0.5091  0.0352  0.1595
  125TIP3    H2  340   5.686   2.536   4.804 -0.4390  0.3187 -0.1185
  126TIP3   OH2  341   0.935   3.582   3.153 -0.2073 -0.4556 -0.4874
  126TIP3    H1  342   0.914   3.492   3.178 -1.3532 -0.4151 -1.2522
  126TIP3    H2  343   0.890   3.596   3.070 -1.5691  1.3938  0.4754
  127TIP3   OH2  344   7.044   1.052   0.805 -0.2170 -0.3562 -0.2413
  127TIP3    H1  345   7.017   1.010   0.723 -0.7297 -0.7601  0.1257
  127TIP3    H2  346   7.138   1.037   0.810 -0.4328 -1.6824  0.0041
  128TIP3   OH2  347   0.822   3.674   1.123 -0.6408  0.2246  0.7345
  128TIP3    H1  348   0.901   3.727   1.113  0.1586 -1.2393 -1.2580
  128TIP3    H2  349   0.772   3.691   1.043 -1.8592  0.2608  1.4639
  129TIP3   OH2  350   1.803   5.426   2.226 -0.0677 -0.3038 -0.2097
  129TIP3    H1  351   1.744   5.377   2.169  0.7341 -0.7685 -0.6471
  129TIP3    H2  352   1.881   5.441   2.174  0.3194  0.0715  0.4563
  130TIP3   OH2  353   3.576   3.409   3.866 -0.0882 -0.2590  0.0907
  130TIP3    H1  354   3.598   3.416   3.773 -0.0361  0.5319  0.1545
  130TIP3    H2  355   3.659   3.422   3.911 -0.0629 -0.9421  0.2410
  131TIP3   OH2  356   5.472   1.801   3.114 -0.1026  0.2209  0.4656
  131TIP3    H1  357   5.562   1.767   3.118  0.0841  0.7115  0.4858
  131TIP3    H2  358   5.431   1.752   3.042 -0.5618 -1.7264  1.9827
  132TIP3   OH2  359   6.555   4.558   2.062 -0.1727 -0.0164  0.1901
  132TIP3    H1  360   6.572   4.472   2.102  1.2533  0.2002  0.1093
  132TIP3    H2  361   6.611   4.618   2.111 -0.4954  0.7172 -0.3323
  133TIP3   OH2  362   2.720   1.921   1.185 -0.1179  0.1670  0.6920
  133TIP3    H1  363   2.751   1.884   1.102 -0.0669 -0.0313  0.7982
  133TIP3    H2  364   2.646   1.866   1.209 -1.1058  1.1693  0.0053
  134TIP3   OH2  365   4.054   6.478   3.472 -0.4637 -0.5187  0.8475
  134TIP3    H1  366   4.069   6.573   3.480  1.0063 -0.7241  0.8976
  134TIP3    H2  367   3.980   6.470   3.413 -1.1537  0.6841  1.5023
  135TIP3   OH2  368   2.556   3.850   4.378 -0.1356 -0.2290 -0.0674
  135TIP3    H1  369   2.584   3.794   4.451  0.7581 -0.3651 -0.4957
  135TIP3    H2  370   2.638   3.879   4.338 -0.6005  1.0297 -0.1300
  136TIP3   OH2  371   2.611   6.109   3.159  0.1928  0.0855  0.0876
  136TIP3    H1  372   2.634   6.197   3.189  2.4041 -0.7881  1.1602
  136TIP3    H2  373   2.694   6.061   3.157 -0.8967 -1.9040 -0.7731
  137TIP3   OH2  374   0.020   5.223   4.202 -0.1847 -0.3693 -0.2435
  137TIP3    H1  375   0.050   5.141   4.163  0.1780 -0.5725  0.4524
  137TIP3    H2  376   0.043   5.216   4.294  1.4719  1.2357 -0.4646
  138TIP3   OH2  377   5.736   3.490   2.480 -0.0949 -0.1494 -0.5857
  138TIP3    H1  378   5.698   3.403   2.483  0.5224 -0.4473 -1.3430
  138TIP3    H2  379   5.766   3.502   2.390 -0.9484  1.1853 -0.7268
  139TIP3   OH2  380   2.292   1.319   5.838  0.0740 -0.1764 -0.1142
  139TIP3    H1  381   2.241   1.300   5.759  1.2510 -1.0857 -0.6879
  139TIP3    H2  382   2.382   1.302   5.812  0.5000 -0.3081  1.3930
  140TIP3   OH2  383   1.922   2.422   2.509 -0.0560  0.4227  0.9026
  140TIP3    H1  384   1.889   2.347   2.560  1.5793  0.2507  1.7941
  140TIP3    H2  385   1.926   2.390   2.419 -1.9787  0.3695  0.8083
  141TIP3   OH2  386   6.729   1.402   2.086  0.3670 -0.2133 -0.0618
  141TIP3    H1  387   6.660   1.372   2.146  2.4335  0.2847  2.7802
  141TIP3    H2  388   6.723   1.498   2.090  2.0887 -0.0985  1.5103
  142TIP3   OH2  389   3.856   6.009   2.065  0.3111  0.1690  0.0188
  142TIP3    H1  390   3.842   6.068   2.139 -0.3990 -0.4724  0.4035
  142TIP3    H2  391   3.772   6.007   2.019  0.8746  0.9394 -1.1032
  143TIP3   OH2  392   4.476   2.487   5.467 -0.9092 -0.9386 -0.1770
  143TIP3    H1  393   4.490   2.566   5.519  1.7008  0.3581 -2.5577
  143TIP3    H2  394   4.383   2.489   5.444 -1.1682  0.7290  0.8694
  144TIP3   OH2  395   4.622   1.012   4.794  0.5657  0.0089 -0.7371
  144TIP3    H1  396   4.561   1.080   4.824  0.1417 -0.6716 -0.0311
  144TIP3    H2  397   4.624   1.023   4.698 -2.3788 -1.3251 -1.0477
  145TIP3   OH2  398   6.443   3.383   3.192 -0.5251  0.8309 -0.0069
  145TIP3    H1  399   6.448   3.464   3.141 -1.2406  0.6916 -0.3117
  145TIP3    H2  400   6.367   3.337   3.156  1.3725 -1.2164 -1.6643
  146TIP3   OH2  401   6.627   0.247   4.021 -0.4203  0.1395  0.4456
  146TIP3    H1  402   6.646   0.156   3.999  1.9176  0.8868 -1.0932
  146TIP3    H2  403   6.532   0.250   4.032 -0.6320 -2.3493 -0.0007
  147TIP3   OH2  404   6.520   6.317   2.719 -0.2225  0.2600 -0.2143
  147TIP3    H1  405   6.521   6.398   2.667  0.1941  0.5104  0.1770
  147TIP3    H2  406   6.480   6.342   2.802  0.7913  0.3034  0.2771
  148TIP3   OH2  407   7.141   0.684   3.304 -0.3174 -0.2698  0.1644
  148TIP3    H1  408   7.145   0.640   3.389 -0.6793 -1.3572 -0.3570
  148TIP3    H2  409   7.212   0.644   3.253 -1.0471 -0.7231 -0.5237
  149TIP3   OH2  410   6.819   2.245   3.391 -0.2058  0.0049  0.0426
  149TIP3    H1  411   6.753   2.181   3.416 -1.3119  0.9712 -0.3081
  149TIP3    H2  412   6.876   2.252   3.467 -0.5592 -0.7702  0.3913
  150TIP3   OH2  413   5.344   5.335   4.074  0.4107 -0.4354  0.2386
  150TIP3    H1  414   5.275   5.288   4.027 -1.7733  0.6118  2.1392
  150TIP3    H2  415   5.424   5.285   4.058 -0.9811 -2.3269 -1.2258
  151TIP3   OH2  416   1.509   1.783   4.664 -0.2925 -0.5170 -0.1495
  151TIP3    H1  417   1.552   1.701   4.640  0.2907 -0.0911 -0.5872
  151TIP3    H2  418   1.581   1.843   4.684 -0.7157 -0.1402  0.2734
  152TIP3   OH2  419   1.289   1.420   2.111  0.4733  0.3316  0.6641
  152TIP3    H1  420   1.284   1.503   2.063  2.7113  0.2602  0.2190
  152TIP3    H2  421   1.211   1.420   2.167 -0.4246  1.9682 -0.5130
  153TIP3   OH2  422   3.222   6.621   5.254  0.3640  0.1188  0.3046
  153TIP3    H1  423   3.136   6.628   5.296  0.4471  0.7422  0.3768
  153TIP3    H2  424   3.235   6.527   5.241 -1.2002  0.0872 -1.4847
  154TIP3   OH2  425   2.018   1.567   3.241 -1.2780  0.7621 -0.2667
  154TIP3    H1  426   1.956   1.524   3.300 -0.1876 -0.3937  0.0929
  154TIP3    H2  427   2.046   1.645   3.288 -2.2490  1.1567 -0.3255
  155TIP3   OH2  428   6.874   6.020   4.806  0.1737 -0.0897 -0.2019
  155TIP3    H1  429   6.925   5.944   4.835  0.3194  0.2238  0.3762
  155TIP3    H2  430   6.796   5.982   4.766  0.2147 -0.5434  0.1396
  156TIP3   OH2  431   6.427   0.592   5.187  0.1706 -0.1838 -0.3313
  156TIP3    H1  432   6.389   0.649   5.254 -1.5468  0.0202 -1.4124
  156TIP3    H2  433   6.500   0.642   5.152  0.9170 -0.1749  1.1637
  157TIP3   OH2  434   2.668   5.199   4.581  0.0431 -0.2079 -0.4658
  157TIP3    H1  435   2.660   5.170   4.490 -1.4522  0.5524 -0.6099
  157TIP3    H2  436   2.718   5.281   4.576 -1.0873  0.4771 -0.7545
  158TIP3   OH2  437   1.380   2.585   2.359  0.5194  0.7002  0.3068
  158TIP3    H1  438   1.344   2.648   2.421 -1.5479  1.8763 -1.9211
  158TIP3    H2  439   1.458   2.627   2.325 -0.5661  1.9250 -0.7912
  159TIP3   OH2  440   7.004   5.223   2.134  0.2919 -1.0397 -0.3809
  159TIP3    H1  441   7.073   5.179   2.184  0.6276 -0.1942 -0.0796
  159TIP3    H2  442   6.948   5.262   2.201  1.4162  1.1336 -0.6455
  160TIP3   OH2  443   1.315   4.350   4.839  0.7518  0.3211 -0.9463
  160TIP3    H1  444   1.382   4.398   4.888  0.2876  1.6808 -1.5885
  160TIP3    H2  445   1.351   4.341   4.751  0.5948 -0.0141 -0.9779
  161TIP3   OH2  446   3.655   0.328   4.784 -0.4591  0.4445  0.0768
  161TIP3    H1  447   3.668   0.269   4.710  0.5388  0.8484 -0.0857
  161TIP3    H2  448   3.581   0.291   4.832 -0.0071 -0.8111 -0.1530
  162TIP3   OH2  449   3.644   5.025   5.036 -0.0424 -0.2134  0.2349
  162TIP3    H1  450   3.592   5.102   5.016 -0.2062 -0.6387 -1.1078
  162TIP3    H2  451   3.723   5.034   4.982  0.4399 -0.4759  0.8703
  163TIP3   OH2  452   6.316   2.154   0.987  0.5727 -0.1062 -0.0003
  163TIP3    H1  453   6.323   2.098   0.909 -2.1816 -0.9426  0.2348
  163TIP3    H2  454   6.390   2.128   1.042  0.6124 -1.9976 -0.8525
  164TIP3   OH2  455   7.049   0.403   1.120 -0.4612 -0.0036 -0.2698
  164TIP3    H1  456   7.068   0.488   1.080 -0.7212 -0.3225 -1.0823
  164TIP3    H2  457   7.109   0.398   1.195 -1.1963  1.3664  0.4470
  165TIP3   OH2  458   3.549   2.919   0.890  0.1332  0.4030  0.4218
  165TIP3    H1  459   3.541   2.955   0.802  1.0599  1.4638  0.7525
  165TIP3    H2  460   3.536   2.995   0.948  0.3874 -0.1198  1.1773
  166TIP3   OH2  461   5.047   4.851   3.506  0.6779  0.0293  1.0369
  166TIP3    H1  462   5.001   4.929   3.477  0.4368 -0.1475  0.9395
  166TIP3    H2  463   5.054   4.797   3.427  0.7669 -0.0850  1.1231
  167TIP3   OH2  464   2.562   2.543   0.441  0.1244  0.1264 -0.2992
  167TIP3    H1  465   2.527   2.463   0.403  1.1773 -1.3043  1.5124
  167TIP3    H2  466   2.516   2.551   0.525  3.2535 -1.3925  1.7874
  168TIP3   OH2  467   6.148   1.902   4.432  0.8501  0.2945  0.1857
  168TIP3    H1  468   6.101   1.819   4.437  1.1825 -0.1122 -2.3031
  168TIP3    H2  469   6.240   1.878   4.438  0.9113  0.6758  0.9616
  169TIP3   OH2  470   3.342   1.223   5.666 -0.6081 -0.1421  0.2111
  169TIP3    H1  471   3.428   1.195   5.696  0.1732  2.1932  0.3626
  169TIP3    H2  472   3.280   1.169   5.714  0.7574 -1.3332  0.6650
  170TIP3   OH2  473   4.009   0.638   4.024  0.1868 -0.0964  0.9293
  170TIP3    H1  474   3.978   0.707   4.083 -0.2306  0.3945  0.1604
  170TIP3    H2  475   3.997   0.557   4.073 -2.1785  0.0870  0.7691
  171TIP3   OH2  476   6.843   5.048   4.761  0.1620 -0.1242  0.3519
  171TIP3    H1  477   6.761   5.096   4.749 -0.1555 -0.7438  0.0261
  171TIP3    H2  478   6.875   5.032   4.672  1.4145  1.4098  0.4780
  172TIP3   OH2  479   1.103   5.563   5.069  0.1235  0.0029 -0.3289
  172TIP3    H1  480   1.028   5.609   5.107  0.2618  0.8214 -1.0165
  172TIP3    H2  481   1.069   5.524   4.988  0.1662 -0.5861 -0.0696
  173TIP3   OH2  482   7.242   6.375   5.738 -0.3121  0.0991 -0.5520
  173TIP3    H1  483   7.170   6.423   5.697  0.0118  1.8023  0.7755
  173TIP3    H2  484   7.202   6.297   5.776 -1.3862  0.8096 -0.2048
  174TIP3   OH2  485   1.061   0.537   1.801 -0.5631 -0.0452 -0.2494
  174TIP3    H1  486   1.074   0.621   1.757 -0.2571 -0.1045 -0.2714
  174TIP3    H2  487   1.145   0.517   1.842 -0.6020 -0.3883 -0.3289
  175TIP3   OH2  488   1.798   1.890   4.614 -0.3859 -0.4497 -0.2989
  175TIP3    H1  489   1.863   1.852   4.555  0.5146 -0.5021  0.6841
  175TIP3    H2  490   1.832   1.978   4.634 -0.1546 -0.7858  0.8778
  176TIP3   OH2  491   5.677   2.327   2.232  1.1138  0.5280  0.1821
  176TIP3    H1  492   5.768   2.355   2.237  1.0786  0.7367 -0.3152
  176TIP3    H2  493   5.640   2.378   2.160  0.4549  0.8628  0.7376
  177TIP3   OH2  494   0.934   3.783   0.703  0.4248 -0.3458 -0.2335
  177TIP3    H1  495   0.879   3.848   0.659  1.0138  0.7245  0.5709
  177TIP3    H2  496   1.015   3.829   0.722  0.8334 -1.3025  0.4203
  178TIP3   OH2  497   5.745   2.933   1.727 -0.5291  0.3981 -0.8338
  178TIP3    H1  498   5.773   3.024   1.716  0.3217  0.3328  0.6261
  178TIP3    H2  499   5.719   2.927   1.819 -0.0832 -0.9699 -0.7832
  179TIP3   OH2  500   2.259   3.004   4.972  0.1317  0.6059  0.4050
  179TIP3    H1  501   2.273   3.000   4.877 -0.0308 -0.4513  0.4149
  179TIP3    H2  502   2.231   2.916   4.996  0.9042  0.6522  1.5573
  180TIP3   OH2  503   6.148   2.543   5.438 -0.3588 -0.5726 -0.0397
  180TIP3    H1  504   6.055   2.521   5.449 -0.0170 -1.2264  1.9635
  180TIP3    H2  505   6.148   2.630   5.399 -1.8466  0.2222  1.6293
  181TIP3   OH2  506   3.960   5.172   0.529 -0.0749 -0.2817  0.7755
  181TIP3    H1  507   3.885   5.117   0.505 -0.5203  0.6161  0.0454
  181TIP3    H2  508   4.029   5.110   0.550  0.0314 -1.1705 -1.8421
  182TIP3   OH2  509   6.733   0.951   3.435  0.1324  0.5852 -0.4870
  182TIP3    H1  510   6.785   0.952   3.516  1.3705 -2.7360 -1.0884
  182TIP3    H2  511   6.798   0.939   3.365 -1.2271 -1.6482 -1.4597
  183TIP3   OH2  512   5.395   4.868   4.381 -0.7876  0.0561 -0.1722
  183TIP3    H1  513   5.490   4.878   4.371 -0.6900 -0.9756 -0.4150
  183TIP3    H2  514   5.365   4.841   4.295 -0.9282 -2.0839  0.4867
  184TIP3   OH2  515   3.295   4.965   2.264 -0.1518  0.1987 -0.0985
  184TIP3    H1  516   3.296   4.870   2.251 -1.1638  0.2374 -0.5109
  184TIP3    H2  517   3.302   5.001   2.176 -0.1442  0.5065  0.0277
  185TIP3   OH2  518   1.398   3.777   4.332  0.2766 -0.1140 -0.3951
  185TIP3    H1  519   1.457   3.732   4.272  0.9611 -0.3851  0.4599
  185TIP3    H2  520   1.324   3.716   4.344  0.8645 -0.7251  0.2099
  186TIP3   OH2  521   4.030   0.179   0.456 -0.0789  0.1009 -0.0829
  186TIP3    H1  522   3.939   0.164   0.432 -0.1133  2.0952 -1.4149
  186TIP3    H2  523   4.081   0.140   0.384  0.0390  0.6453 -0.2992
  187TIP3   OH2  524   0.596   6.428   1.026 -0.2565  0.2473  0.5200
  187TIP3    H1  525   0.634   6.375   0.955  0.1504  1.5249 -0.2420
  187TIP3    H2  526   0.646   6.404   1.104  0.8946  0.5538 -0.1080
  188TIP3   OH2  527   2.137   1.242   0.601  0.3034  0.3384  1.2101
  188TIP3    H1  528   2.080   1.165   0.598  0.3175  0.2474  2.4751
  188TIP3    H2  529   2.079   1.316   0.585  0.2640  0.0834  0.1338
  189TIP3   OH2  530   6.986   2.101   3.789 -0.1511  0.0190 -0.2365
  189TIP3    H1  531   6.946   2.105   3.875  1.0402 -1.1522  0.4183
  189TIP3    H2  532   6.934   2.160   3.735 -0.2349  1.6627  1.5480
  190TIP3   OH2  533   6.115   0.090   4.660 -0.5379  0.3517 -0.0409
  190TIP3    H1  534   6.161   0.094   4.576  1.9182  0.3958  1.2006
  190TIP3    H2  535   6.131   0.175   4.700 -0.3181 -0.1934  1.0901
  191TIP3   OH2  536   5.336   2.010   0.699  0.1964 -0.0199  0.8126
  191TIP3    H1  537   5.312   1.944   0.764  0.5199 -0.0698  0.8843
  191TIP3    H2  538   5.253   2.045   0.668 -0.3367 -3.4982 -2.4373
  192TIP3   OH2  539   0.261   2.212   0.326  0.0621  0.3188  0.6596
  192TIP3    H1  540   0.235   2.159   0.401 -1.1997  0.3809  0.2825
  192TIP3    H2  541   0.208   2.180   0.254  0.9402  0.5663 -0.1146
  193TIP3   OH2  542   0.021   3.224   0.085 -0.3036 -0.0831 -0.1637
  193TIP3    H1  543   0.094   3.254   0.031 -0.8359  0.1065 -0.7984
  193TIP3    H2  544   0.036   3.130   0.096  0.5990  0.1426  0.6147
  194TIP3   OH2  545   1.795   4.683   1.176  0.3822 -0.0958 -0.0562
  194TIP3    H1  546   1.837   4.766   1.154  3.0186 -1.0469  1.0529
  194TIP3    H2  547   1.739   4.705   1.251  1.2822  0.6426  0.4259
  195TIP3   OH2  548   4.022   5.532   3.993 -0.1222 -0.4712  0.1638
  195TIP3    H1  549   3.951   5.579   4.036 -0.6826  0.5526 -1.7614
  195TIP3    H2  550   4.092   5.598   3.985  1.1988 -1.5103  2.2074
  196TIP3   OH2  551   0.787   0.761   0.686  0.2844  0.0564  0.8365
  196TIP3    H1  552   0.731   0.756   0.608  1.7711 -2.1564 -0.1976
  196TIP3    H2  553   0.845   0.835   0.669  0.9101 -0.6898 -0.4470
  197TIP3   OH2  554   5.873   3.326   3.326 -0.6268  0.1960  0.0079
  197TIP3    H1  555   5.803   3.262   3.341 -1.3808  1.1009  0.4266
  197TIP3    H2  556   5.945   3.274   3.289 -0.9604 -1.0244  0.9934
  198TIP3   OH2  557   2.494   0.963   2.400 -0.4381 -0.1749 -0.0805
  198TIP3    H1  558   2.455   0.911   2.470 -0.3882  2.8811  2.4291
  198TIP3    H2  559   2.573   0.915   2.376 -1.0242 -1.8750  1.1750
  199TIP3   OH2  560   3.354   2.716   2.622 -0.2028 -0.0594 -0.6537
  199TIP3    H1  561   3.388   2.738   2.535 -1.7176 -1.6032 -1.7038
  199TIP3    H2  562   3.355   2.620   2.625 -0.5959 -0.0428  0.8598
  200TIP3   OH2  563   0.912   1.462   2.188 -0.2263  0.6898 -0.5195
  200TIP3    H1  564   0.861   1.382   2.196  0.2805  0.2561 -1.4488
  200TIP3    H2  565   0.967   1.463   2.266 -0.8327  0.5676 -0.0875
  201TIP3   OH2  566   6.702   2.080   0.509 -0.1149 -0.1193 -0.5069
  201TIP3    H1  567   6.777   2.021   0.494 -0.8693 -1.3688  0.3704
  201TIP3    H2  568   6.646   2.031   0.569 -0.4760  1.7959  0.7863
  202TIP3   OH2  569   3.020   3.336   2.048 -0.3129  0.0520 -0.3779
  202TIP3    H1  570   3.061   3.278   2.112  1.8479  1.2427 -0.6142
  202TIP3    H2  571   2.931   3.347   2.081  1.0228  1.6483  3.2311
  203TIP3   OH2  572   4.180  -0.030   5.746 -0.1447 -0.1331  0.2597
  203TIP3    H1  573   4.171   0.001   5.656 -0.5150  0.4682  0.5025
  203TIP3    H2  574   4.135   0.036   5.799  1.4597  0.3661  1.0445
  204TIP3   OH2  575   6.591   2.074   5.024 -0.1360 -0.1175 -0.3085
  204TIP3    H1  576   6.553   1.987   5.022  0.1745 -0.2565 -1.9429
  204TIP3    H2  577   6.679   2.063   4.987 -0.5539  1.0598 -1.7616
  205TIP3   OH2  578   0.615   6.163   5.657 -0.1740  0.5617  0.7990
  205TIP3    H1  579   0.535   6.115   5.677 -0.3059  0.3256 -0.2491
  205TIP3    H2  580   0.598   6.251   5.692 -0.4528  0.2245  1.5417
  206TIP3   OH2  581   0.768   5.014   1.688  0.4495 -0.0795  0.6136
  206TIP3    H1  582   0.732   5.058   1.765 -0.4839  0.2006  0.0257
  206TIP3    H2  583   0.853   4.981   1.718 -1.1447 -2.6350  2.6844
  207TIP3   OH2  584   3.485   3.645   1.746  0.8361 -0.7574  0.2749
  207TIP3    H1  585   3.535   3.604   1.675 -0.7307 -0.1311 -1.2600
  207TIP3    H2  586   3.445   3.572   1.793  1.3092 -1.1488  0.0749
  208TIP3   OH2  587   3.495   3.933   2.401  0.0693  0.0958  0.0430
  208TIP3    H1  588   3.581   3.893   2.413  0.9936  1.4354 -1.6131
  208TIP3    H2  589   3.487   3.945   2.306 -1.3929  1.1444  0.2588
  209TIP3   OH2  590   5.618   3.640   5.780  0.5650 -0.2088  0.2159
  209TIP3    H1  591   5.542   3.606   5.732  1.3385  1.1416 -2.0904
  209TIP3    H2  592   5.649   3.565   5.831 -0.4701 -1.6642 -1.1995
  210TIP3   OH2  593   0.539   1.093   5.506  0.0952 -0.5134  0.1421
  210TIP3    H1  594   0.561   1.085   5.599 -0.0327  0.2124  0.2411
  210TIP3    H2  595   0.446   1.070   5.501  0.5451 -2.4463 -0.1055
  211TIP3   OH2  596   6.284   2.732   2.813  0.2324 -0.0117 -0.2549
  211TIP3    H1  597   6.335   2.810   2.836 -1.3915  0.9895  0.1269
  211TIP3    H2  598   6.275   2.684   2.895 -1.2510  0.9556  0.1974
  212TIP3   OH2  599   6.514   1.347   3.976  0.0408  0.4127  0.3501
  212TIP3    H1  600   6.528   1.434   4.013 -1.8690  1.1380 -0.4921
  212TIP3    H2  601   6.517   1.360   3.881 -3.1565  0.2098  0.1224
  213TIP3   OH2  602   2.610   0.956   3.246 -0.0311 -0.3887 -0.9357
  213TIP3    H1  603   2.633   0.864   3.260  2.0269  0.2212  0.2557
  213TIP3    H2  604   2.598   0.990   3.335  0.1695  0.6896 -1.3153
  214TIP3   OH2  605   0.442   4.304   1.201 -0.1283 -0.2593 -0.0239
  214TIP3    H1  606   0.373   4.357   1.240  0.0500 -0.1616  0.1623
  214TIP3    H2  607   0.397   4.243   1.143 -0.4315 -0.6793  0.6424
  215TIP3   OH2  608   0.713   6.041   1.033  0.1483  0.4618  0.0667
  215TIP3    H1  609   0.712   6.128   0.994  0.2488  0.0317 -0.9176
  215TIP3    H2  610   0.740   5.983   0.962 -0.7526 -0.4884  0.4753
  216TIP3   OH2  611   3.926   2.742   4.568  0.2422  0.3387 -0.5288
  216TIP3    H1  612   3.984   2.666   4.565  0.2307  0.0881  2.3657
  216TIP3    H2  613   3.840   2.706   4.587 -0.4361  0.8954 -2.3627
  217TIP3   OH2  614   4.532   2.707   0.937 -0.7452  0.7373 -0.3958
  217TIP3    H1  615   4.627   2.703   0.946 -0.7685 -1.1352 -0.5325
  217TIP3    H2  616   4.498   2.680   1.022 -1.1403  0.2881 -0.6889
  218TIP3   OH2  617   6.244   2.086   0.223  0.6136  0.1823  0.2909
  218TIP3    H1  618   6.220   2.046   0.140 -0.0415  1.1860 -0.0210
  218TIP3    H2  619   6.164   2.128   0.254  0.9989  0.3134  1.1409
  219TIP3   OH2  620   6.957   3.178   0.613  0.2325  0.1453  0.1822
  219TIP3    H1  621   6.968   3.195   0.519 -0.0503 -1.3855 -0.1553
  219TIP3    H2  622   7.040   3.136   0.639 -0.0924 -0.3962  0.3623
  220TIP3   OH2  623   1.600   2.153   1.974 -0.4402 -0.2054  0.2450
  220TIP3    H1  624   1.530   2.203   1.932 -0.3483 -1.7073 -1.9042
  220TIP3    H2  625   1.678   2.206   1.961 -0.6948  0.1073 -0.0395
  221TIP3   OH2  626   1.891   4.967   1.460  0.5824  0.3893  0.1867
  221TIP3    H1  627   1.963   4.904   1.447  0.6437  0.5359 -0.1984
  221TIP3    H2  628   1.934   5.053   1.456 -0.0466  0.7274 -3.8503
  222TIP3   OH2  629   6.134   2.892   0.773  0.7599 -0.4215  0.0953
  222TIP3    H1  630   6.109   2.964   0.831 -0.2000  0.4624 -1.3426
  222TIP3    H2  631   6.060   2.831   0.778  0.5530 -0.2099 -0.4179
  223TIP3   OH2  632   4.130   4.940   2.125 -0.2266 -0.7435  0.1584
  223TIP3    H1  633   4.058   4.982   2.077 -0.0851 -1.8023 -1.0315
  223TIP3    H2  634   4.086   4.881   2.187 -0.4595 -2.5785 -1.6338
  224TIP3   OH2  635   4.433   1.176   0.122 -0.2862  0.0569  0.0498
  224TIP3    H1  636   4.512   1.159   0.172  0.5097 -0.2299 -1.2487
  224TIP3    H2  637   4.377   1.227   0.181  1.2199  1.0159  0.7106
  225TIP3   OH2  638   4.051   0.819   5.787  0.2311  0.5449  0.3765
  225TIP3    H1  639   4.114   0.751   5.762 -0.1068 -0.0694  1.1409
  225TIP3    H2  640   4.013   0.787   5.869 -0.7265  1.1392  0.1790
  226TIP3   OH2  641   7.120   6.647   1.521  0.1110  0.2957  0.3712
  226TIP3    H1  642   7.156   6.565   1.555  0.1154  0.6299  1.2122
  226TIP3    H2  643   7.171   6.666   1.443  0.2010 -0.4313  0.2472
  227TIP3   OH2  644   0.619   2.124   1.521 -0.5834  0.0529  0.1993
  227TIP3    H1  645   0.598   2.036   1.491 -0.8473  0.0063  0.5147
  227TIP3    H2  646   0.652   2.113   1.610 -1.2494  0.3281  0.4892
  228TIP3   OH2  647   2.264   6.288   5.681  0.4273 -0.4529  0.5280
  228TIP3    H1  648   2.250   6.272   5.775  1.6807 -0.7135  0.6844
  228TIP3    H2  649   2.236   6.379   5.668 -0.0252 -0.5037  1.0961
  229TIP3   OH2  650   5.638   0.903   4.917  0.1348  0.4372  0.0021
  229TIP3    H1  651   5.713   0.930   4.864  0.1204 -2.0359 -1.4170
  229TIP3    H2  652   5.569   0.884   4.854 -0.3422 -1.2425  0.9502
  230TIP3   OH2  653   3.710   0.644   3.137 -0.3086 -0.1371 -0.0652
  230TIP3    H1  654   3.729   0.554   3.165 -0.7579 -0.0687  0.4674
  230TIP3    H2  655   3.683   0.636   3.046  1.2173 -0.3617 -0.5237
  231TIP3   OH2  656   0.396   4.964   1.468  0.4825 -0.1812 -0.3120
  231TIP3    H1  657   0.401   4.873   1.497  1.3919  0.1254  0.5856
  231TIP3    H2  658   0.454   4.969   1.393 -0.2131 -0.5163 -0.8791
  232TIP3   OH2  659   2.075   3.220   5.372 -0.1826  0.2895 -0.4009
  232TIP3    H1  660   1.982   3.211   5.391 -0.8136  1.4222 -2.6036
  232TIP3    H2  661   2.081   3.210   5.277  1.6722  2.2273 -0.5524
  233TIP3   OH2  662   1.775   4.674   4.639 -0.5629  0.1789 -0.4611
  233TIP3    H1  663   1.863   4.676   4.601  0.6204  0.4278  2.0231
  233TIP3    H2  664   1.745   4.584   4.625  0.5589 -0.2152 -0.4319
  234TIP3   OH2  665   4.327   3.805   0.836 -0.0435  1.1176  0.1868
  234TIP3    H1  666   4.368   3.752   0.769 -0.9850  2.5531 -1.6131
  234TIP3    H2  667   4.400   3.842   0.887  0.6457 -0.6887  0.5627
  235TIP3   OH2  668   6.480   3.248   0.464  0.4762  0.0069  0.1308
  235TIP3    H1  669   6.556   3.197   0.492  0.6971  0.4648  0.3773
  235TIP3    H2  670   6.406   3.208   0.509  0.7102  0.1882  0.6817
  236TIP3   OH2  671   3.484   2.632   3.396  0.3879  0.6157 -0.1480
  236TIP3    H1  672   3.436   2.661   3.318  0.0823 -0.2970 -0.3093
  236TIP3    H2  673   3.573   2.617   3.364 -0.0801 -1.2975 -0.7345
  237TIP3   OH2  674   2.668   6.392   0.749  0.2099  0.3748  0.0136
  237TIP3    H1  675   2.639   6.308   0.785  0.3457  0.7327  0.9628
  237TIP3    H2  676   2.670   6.377   0.654  0.4555 -0.7637  0.1857
  238TIP3   OH2  677   6.283   5.122   5.738  0.3405  0.5929 -0.0767
  238TIP3    H1  678   6.189   5.102   5.741  0.6845 -1.1296  0.9946
  238TIP3    H2  679   6.296   5.163   5.653 -1.1126 -0.7793 -1.0270
  239TIP3   OH2  680   3.360   1.221   4.450 -0.0928 -0.1477 -0.0687
  239TIP3    H1  681   3.453   1.242   4.445  0.0986 -0.4985  1.5267
  239TIP3    H2  682   3.357   1.128   4.469 -0.7352  0.0504  0.8717
  240TIP3   OH2  683   5.420   1.918   5.156  0.6892  0.1608  0.0186
  240TIP3    H1  684   5.442   2.011   5.149 -0.4511  0.4109 -0.3220
  240TIP3    H2  685   5.411   1.903   5.250  1.3104  0.2819  0.1032
  241TIP3   OH2  686   0.477   4.794   4.924  0.2565  0.1212  0.6831
  241TIP3    H1  687   0.564   4.784   4.886  0.0269 -3.1785  0.7213
  241TIP3    H2  688   0.494   4.829   5.012  1.2458  2.1787 -0.2540
  242TIP3   OH2  689   4.251   6.805   3.931 -0.3867 -0.4911  0.0683
  242TIP3    H1  690   4.311   6.748   3.977  1.4828  0.7572 -0.6957
  242TIP3    H2  691   4.293   6.821   3.846 -1.4400  0.9905 -0.2207
  243TIP3   OH2  692   5.139   2.583   0.053  0.1336 -0.1318  0.1806
  243TIP3    H1  693   5.046   2.591   0.034 -0.2259 -3.0719  0.3138
  243TIP3    H2  694   5.183   2.607  -0.028 -0.9574 -2.3984 -1.1705
  244TIP3   OH2  695   3.841   6.161   5.458  0.2882  0.7534 -0.5587
  244TIP3    H1  696   3.827   6.126   5.547  0.0901  2.4194  0.0963
  244TIP3    H2  697   3.883   6.089   5.411  0.2928 -0.2177  0.8529
  245TIP3   OH2  698   2.079   2.697   1.849  0.5302 -0.1733  0.0875
  245TIP3    H1  699   2.123   2.630   1.797  0.7203  0.8321 -1.1029
  245TIP3    H2  700   1.986   2.688   1.827  0.6844  0.7439 -1.0960
  246TIP3   OH2  701   7.191   3.884   5.491 -0.3350  0.0898  0.0236
  246TIP3    H1  702   7.254   3.932   5.545 -0.2982  0.1020 -0.0294
  246TIP3    H2  703   7.165   3.810   5.546 -1.6934  1.0935  0.7718
  247TIP3   OH2  704   5.907   2.350   3.663 -0.1243  0.0398 -0.0594
  247TIP3    H1  705   5.830   2.327   3.611 -0.1678  0.7483 -0.3216
  247TIP3    H2  706   5.932   2.268   3.707 -0.0247 -0.5925 -1.2678
  248TIP3   OH2  707   5.342   3.022   2.825 -0.3038  0.3347  0.0937
  248TIP3    H1  708   5.427   2.977   2.822 -0.7119 -0.6950  2.0451
  248TIP3    H2  709   5.361   3.107   2.865 -0.1174  0.2850  0.1103
  249TIP3   OH2  710   2.583   3.383   0.980 -0.1780  0.2934 -0.1156
  249TIP3    H1  711   2.552   3.466   1.016  0.3132  1.2927 -1.8570
  249TIP3    H2  712   2.507   3.347   0.934 -0.4210 -0.3047  0.7261
  250TIP3   OH2  713   0.975   4.080   1.066 -0.6497  0.3578  0.2547
  250TIP3    H1  714   1.031   4.121   1.001 -0.5294  0.1306  0.2141
  250TIP3    H2  715   0.980   4.138   1.143 -0.8084  0.6349  0.0581
  251TIP3   OH2  716   1.739   0.758   0.946 -0.5059  0.0965  0.6927
  251TIP3    H1  717   1.703   0.801   0.869  1.8499 -0.0595 -0.5781
  251TIP3    H2  718   1.800   0.821   0.983 -2.0576  0.4424  2.9226
  252TIP3   OH2  719   1.913   4.107   3.114  0.2534 -0.7124 -0.1626
  252TIP3    H1  720   1.886   4.185   3.163 -0.4935 -0.3962 -1.0498
  252TIP3    H2  721   1.974   4.140   3.049  3.1641 -1.4427  1.9558
  253TIP3   OH2  722   4.721   4.510   3.393  0.4890  0.4936 -0.1456
  253TIP3    H1  723   4.637   4.489   3.433  1.4574  0.4771  2.0258
  253TIP3    H2  724   4.700   4.528   3.302 -1.6156 -1.2176 -0.0967
  254TIP3   OH2  725   1.206   0.381   2.442 -0.3681 -0.0623  0.5865
  254TIP3    H1  726   1.266   0.345   2.507 -0.8628 -0.0074  1.0840
  254TIP3    H2  727   1.229   0.473   2.437  0.6817 -0.3599 -0.4466
  255TIP3   OH2  728   3.822   6.427   5.154 -0.1182 -0.2069  0.1594
  255TIP3    H1  729   3.769   6.493   5.200 -0.7032 -1.5506  1.4950
  255TIP3    H2  730   3.809   6.446   5.062 -0.5076  1.3671  0.5052
  256TIP3   OH2  731   5.711   5.515   3.681  0.2863 -0.0224 -0.8115
  256TIP3    H1  732   5.728   5.587   3.741 -0.6595  1.2820 -2.0492
  256TIP3    H2  733   5.713   5.436   3.737 -1.1965  1.1752  1.0466
  257TIP3   OH2  734   4.704   2.819   4.960 -0.4246  0.0544 -0.3408
  257TIP3    H1  735   4.620   2.802   4.918 -1.8818 -0.5187  2.5838
  257TIP3    H2  736   4.687   2.894   5.018  1.3339  0.4768 -0.3098
  258TIP3   OH2  737   4.992   4.722   3.240 -0.1093 -0.3925  0.0615
  258TIP3    H1  738   5.070   4.746   3.190 -0.4789  0.9071  0.0478
  258TIP3    H2  739   4.942   4.666   3.181  0.3534 -0.4132 -0.3129
  259TIP3   OH2  740   0.910   2.457   5.203 -0.4396  0.2049 -0.2752
  259TIP3    H1  741   0.864   2.523   5.151 -0.9316 -1.9673 -2.8111
  259TIP3    H2  742   0.843   2.420   5.260 -0.8546 -0.0542 -0.9238
  260TIP3   OH2  743   3.790   5.807   3.655  0.0777  1.3316 -0.4120
  260TIP3    H1  744   3.816   5.835   3.743 -0.2406 -1.2731  0.5774
  260TIP3    H2  745   3.869   5.768   3.619 -0.7069 -0.9663  0.2086
  261TIP3   OH2  746   1.920   0.418   2.603 -0.0417  0.4578 -0.1468
  261TIP3    H1  747   1.899   0.507   2.573 -0.4092  0.2539 -0.5074
  261TIP3    H2  748   1.876   0.361   2.540  0.2649  0.0177  0.0333
  262TIP3   OH2  749   3.316   4.801   4.343 -0.5039  0.3225  0.1868
  262TIP3    H1  750   3.258   4.865   4.302  0.3696  0.1309 -1.4402
  262TIP3    H2  751   3.367   4.765   4.271  1.6993  0.5372  1.5210
  263TIP3   OH2  752   0.329   2.594   5.638  0.0716 -0.2718  0.8074
  263TIP3    H1  753   0.387   2.662   5.673  0.0783  1.0064 -1.4938
  263TIP3    H2  754   0.331   2.524   5.704  2.2438  0.7852  1.9535
  264TIP3   OH2  755   5.320   3.942   2.946  0.6287  0.0328  0.4759
  264TIP3    H1  756   5.231   3.965   2.973  0.6590  1.1382 -0.3085
  264TIP3    H2  757   5.371   4.020   2.966  0.4696  1.3952 -3.6204
  265TIP3   OH2  758   3.788   5.451   5.622  0.2673  0.2966  0.1858
  265TIP3    H1  759   3.840   5.371   5.612  0.0163  0.3460 -2.0976
  265TIP3    H2  760   3.811   5.483   5.709  1.4040 -1.5252  0.6304
  266TIP3   OH2  761   1.757   1.060   4.903  0.1440  0.1521  0.1259
  266TIP3    H1  762   1.772   0.986   4.963 -1.2694 -0.9951 -0.8826
  266TIP3    H2  763   1.669   1.091   4.925  0.2539  0.7800 -0.2943
  267TIP3   OH2  764   2.884   6.716   0.132  0.3707 -0.4580 -0.2091
  267TIP3    H1  765   2.897   6.731   0.039  2.0190 -0.9650 -0.0963
  267TIP3    H2  766   2.897   6.802   0.172  1.0029 -0.4931 -0.3341
  268TIP3   OH2  767   3.396   4.036   3.952 -0.7353 -0.5508 -0.2332
  268TIP3    H1  768   3.338   4.080   4.015 -0.1113  1.3145 -0.9159
  268TIP3    H2  769   3.337   4.007   3.882 -1.2984 -1.8238  0.7009
  269TIP3   OH2  770   0.155   1.077   2.055  0.0309  0.0401  0.4226
  269TIP3    H1  771   0.129   1.146   1.993  1.7264  1.3691  1.1086
  269TIP3    H2  772   0.203   1.124   2.123  2.5134 -1.9605  0.1857
  270TIP3   OH2  773   6.340   0.614   2.637 -0.2247  0.3907 -0.2098
  270TIP3    H1  774   6.346   0.688   2.577 -0.0747 -0.8638 -1.8173
  270TIP3    H2  775   6.425   0.611   2.681 -0.8068  2.1405  1.1265
  271TIP3   OH2  776   1.051   3.048   3.570  0.1875 -0.4501 -0.1567
  271TIP3    H1  777   1.025   3.034   3.661  0.4612 -0.1322 -0.0257
  271TIP3    H2  778   1.044   2.962   3.529  0.2224 -0.6292  0.2086
  272TIP3   OH2  779   2.994   3.935   0.011  0.1334 -0.1312 -0.0326
  272TIP3    H1  780   3.060   3.950   0.079 -1.0068 -0.4500  1.1761
  272TIP3    H2  781   2.913   3.968   0.049 -0.2703  1.1878 -1.8780
  273TIP3   OH2  782   6.277   0.804   1.324 -0.2568 -0.1346 -0.3583
  273TIP3    H1  783   6.370   0.804   1.349 -0.6382 -0.1045  1.1440
  273TIP3    H2  784   6.234   0.751   1.391 -1.5169  0.9211 -0.2849
  274TIP3   OH2  785   2.853   5.278   4.243  0.1477 -0.1577  0.1392
  274TIP3    H1  786   2.816   5.351   4.292 -2.1510 -1.4736  0.5158
  274TIP3    H2  787   2.777   5.226   4.215  1.6736 -3.0072  0.8330
  275TIP3   OH2  788   6.797   1.294   3.744  0.0493 -0.5722  0.5962
  275TIP3    H1  789   6.714   1.246   3.754  0.0288 -0.3253  1.7654
  275TIP3    H2  790   6.864   1.231   3.770  0.1410 -0.4680  0.6095
  276TIP3   OH2  791   2.785   6.609   1.831  0.4387 -0.6261  0.1059
  276TIP3    H1  792   2.707   6.573   1.874  0.4362 -0.4893  0.2166
  276TIP3    H2  793   2.785   6.568   1.745  0.3562 -0.7828  0.1784
  277TIP3   OH2  794   0.830   0.656   3.300  0.4917  0.2757  0.4734
  277TIP3    H1  795   0.897   0.704   3.348  0.9326  0.5636 -0.3989
  277TIP3    H2  796   0.878   0.584   3.258 -0.3390 -1.7144  2.7143
  278TIP3   OH2  797   0.377   5.449   0.905  0.8925 -0.4488  0.4056
  278TIP3    H1  798   0.362   5.507   0.830  2.1246 -0.9730 -0.2819
  278TIP3    H2  799   0.302   5.390   0.906 -0.1280  0.8247  0.8122
  279TIP3   OH2  800   2.760   4.643   3.204 -0.3889 -0.3377 -0.4996
  279TIP3    H1  801   2.805   4.622   3.286 -0.2464 -0.9757 -0.7319
  279TIP3    H2  802   2.699   4.570   3.191 -0.8947  0.1015 -0.6134
  280TIP3   OH2  803   2.258   4.439   2.203  0.4194 -0.5274 -0.4103
  280TIP3    H1  804   2.226   4.360   2.160 -0.6585 -0.1603 -0.3141
  280TIP3    H2  805   2.265   4.504   2.133  1.3518 -0.7016 -0.4984
  281TIP3   OH2  806   4.895   5.733   3.499  0.2023 -0.0421  0.2885
  281TIP3    H1  807   4.892   5.727   3.594  0.0977  0.3759  0.3173
  281TIP3    H2  808   4.816   5.783   3.476  1.5636  2.2468  0.2145
  282TIP3   OH2  809   1.367   1.335   5.160 -0.7704 -0.0579 -0.2302
  282TIP3    H1  810   1.275   1.341   5.185 -0.3169  0.2070  1.5171
  282TIP3    H2  811   1.382   1.242   5.144 -0.7383 -0.5495  2.2057
  283TIP3   OH2  812   4.268   4.399   1.126  0.1411  0.1114 -0.1420
  283TIP3    H1  813   4.318   4.320   1.106  0.6395  0.8006 -1.7838
  283TIP3    H2  814   4.331   4.470   1.116 -0.6465  0.8278 -0.1361
  284TIP3   OH2  815   7.202   1.431   0.598 -0.0898  0.4565 -1.1525
  284TIP3    H1  816   7.190   1.442   0.693 -0.4659 -0.2029 -1.1195
  284TIP3    H2  817   7.136   1.366   0.573 -0.2924  0.9531 -1.9454
  285TIP3   OH2  818   4.183   3.851   2.043  0.3534  0.3162 -0.0630
  285TIP3    H1  819   4.123   3.779   2.024  0.2367  0.2596  0.5084
  285TIP3    H2  820   4.229   3.824   2.122 -0.3525  1.2716  0.6993
  286TIP3   OH2  821   3.969   3.247   4.218 -0.2385  0.2340  0.2787
  286TIP3    H1  822   3.893   3.281   4.266 -0.0577  1.5443 -0.3156
  286TIP3    H2  823   3.983   3.160   4.254 -2.4175 -0.3160 -0.0256
  287TIP3   OH2  824   2.181   4.567   3.676 -0.4592 -0.0581 -0.2710
  287TIP3    H1  825   2.205   4.476   3.659 -0.1517  0.3494 -2.1470
  287TIP3    H2  826   2.220   4.616   3.605 -1.0062  1.5118  0.4665
  288TIP3   OH2  827   2.111   0.856   0.215  0.1101  0.3844  0.1114
  288TIP3    H1  828   2.193   0.807   0.210  0.1058  0.1970  1.5213
  288TIP3    H2  829   2.139   0.948   0.218  0.2711  0.3246  0.5123
  289TIP3   OH2  830   6.973   0.893   3.900 -0.7573  0.1429 -0.2633
  289TIP3    H1  831   6.933   0.826   3.844 -2.2285 -0.1271  1.0517
  289TIP3    H2  832   7.001   0.845   3.978 -1.8894  1.0193  0.7286
  290TIP3   OH2  833   4.200   1.137   4.233 -0.2796 -0.4926 -0.6034
  290TIP3    H1  834   4.157   1.135   4.147 -0.5994  0.9898 -0.5094
  290TIP3    H2  835   4.278   1.189   4.219  0.5518 -1.6347 -0.3438
  291TIP3   OH2  836   0.789   2.817   2.486  0.1667 -0.3114  0.3288
  291TIP3    H1  837   0.813   2.735   2.529  0.1368 -1.2673 -1.3705
  291TIP3    H2  838   0.771   2.792   2.395 -1.2652  1.3554  0.0941
  292TIP3   OH2  839   0.990   4.707   0.480 -0.0226  0.0778 -0.0883
  292TIP3    H1  840   1.073   4.741   0.446 -0.7859  1.4839 -0.6492
  292TIP3    H2  841   0.934   4.700   0.403 -0.9544  0.7983  0.4964
  293TIP3   OH2  842   5.601   0.029   3.150 -0.0519 -0.6967  0.3528
  293TIP3    H1  843   5.647   0.096   3.100 -1.4595  0.7685  0.9335
  293TIP3    H2  844   5.558  -0.025   3.084 -2.7320  1.8130 -0.1454
  294TIP3   OH2  845   4.510   5.039   3.139 -0.0801  0.3920 -0.2087
  294TIP3    H1  846   4.560   5.098   3.082  0.3979 -1.3472 -1.6529
  294TIP3    H2  847   4.575   5.006   3.201 -0.3413  1.3163  0.5782
  295TIP3   OH2  848   4.530   3.031   4.443  0.0392  0.1555 -0.7196
  295TIP3    H1  849   4.439   3.020   4.470  0.1896  0.9330  0.1754
  295TIP3    H2  850   4.579   3.032   4.525  0.5033  2.7429 -0.9302
  296TIP3   OH2  851   2.165   5.256   1.509  0.4292  0.2208  0.6952
  296TIP3    H1  852   2.121   5.251   1.593  1.4533 -1.9513  1.1773
  296TIP3    H2  853   2.201   5.345   1.505 -1.9152  1.2589  1.2905
  297TIP3   OH2  854   6.527   0.822   1.384 -0.1881 -0.3010 -0.3264
  297TIP3    H1  855   6.611   0.853   1.349 -0.5485  0.2081 -0.7522
  297TIP3    H2  856   6.539   0.824   1.479 -0.0370  0.6901 -0.3547
  298TIP3   OH2  857   0.950   0.032   5.321  0.9017  0.2401 -0.3094
  298TIP3    H1  858   0.871   0.060   5.367  0.1392 -2.3558  0.0976
  298TIP3    H2  859   1.011   0.010   5.392  0.8479 -0.7685 -0.5703
  299TIP3   OH2  860   1.310   0.458   4.968  0.4171 -0.3892 -0.2459
  299TIP3    H1  861   1.361   0.489   4.894 -0.5346 -1.3418 -1.3523
  299TIP3    H2  862   1.242   0.525   4.979  1.6107  0.6855  0.9861
  300TIP3   OH2  863   3.463   2.353   2.864 -0.1551  0.3534 -0.5010
  300TIP3    H1  864   3.375   2.318   2.874  0.0955 -0.2174 -0.2627
  300TIP3    H2  865   3.520   2.285   2.899  0.3583  0.8727 -0.3112
  301TIP3   OH2  866   6.798   4.036   4.398 -0.0763  0.2298  0.0284
  301TIP3    H1  867   6.728   3.976   4.422  0.8392 -0.0179  2.2580
  301TIP3    H2  868   6.868   3.979   4.365 -0.6936  0.4483 -1.7980
  302TIP3   OH2  869   0.534   3.788   2.220  0.3130 -0.4118  0.5012
  302TIP3    H1  870   0.583   3.861   2.256 -0.7342  1.1673 -1.1356
  302TIP3    H2  871   0.593   3.748   2.156  0.9597 -1.1923  1.5408
  303TIP3   OH2  872   6.996   1.066   5.301 -0.1495  0.0723  0.0326
  303TIP3    H1  873   7.041   1.148   5.320  1.7885 -0.7520 -0.7405
  303TIP3    H2  874   6.942   1.085   5.224  1.8854  0.1673 -1.4609
  304TIP3   OH2  875   1.199   6.647   0.338  0.0650  0.1564  0.0232
  304TIP3    H1  876   1.126   6.707   0.323  0.2369  0.0458 -1.3256
  304TIP3    H2  877   1.276   6.704   0.342  0.3053  0.0149 -1.8489
  305TIP3   OH2  878   3.481   0.751   3.842  0.5723 -0.0994  0.0145
  305TIP3    H1  879   3.556   0.756   3.783  0.1320  1.3583 -0.4690
  305TIP3    H2  880   3.445   0.840   3.842 -1.5935 -0.9262 -0.3266
  306TIP3   OH2  881   6.233   2.719   3.224 -0.3231 -0.2029 -0.5433
  306TIP3    H1  882   6.245   2.814   3.229  2.1898 -0.5072  0.8067
  306TIP3    H2  883   6.181   2.697   3.302 -1.6133  0.1105 -1.2897
  307TIP3   OH2  884   6.152   3.886   0.259 -0.0432  0.0835  0.0191
  307TIP3    H1  885   6.148   3.795   0.229 -0.0001  0.0027  0.2583
  307TIP3    H2  886   6.063   3.905   0.289 -0.0633  0.1359 -0.0721
  308TIP3   OH2  887   6.216   4.801   3.308  0.0089  0.7638  0.2128
  308TIP3    H1  888   6.236   4.708   3.300 -0.7129  0.6790 -0.9646
  308TIP3    H2  889   6.205   4.816   3.402  0.0487 -0.3548  0.4100
  309TIP3   OH2  890   2.825   5.435   0.840 -0.9588 -0.2273  0.2090
  309TIP3    H1  891   2.877   5.421   0.761 -2.0506 -1.7515 -0.2814
  309TIP3    H2  892   2.871   5.385   0.908  1.5572  3.2273  1.3800
  310TIP3   OH2  893   6.407   5.431   4.150  0.1309 -0.6115 -0.0109
  310TIP3    H1  894   6.321   5.458   4.182 -0.2540 -0.9081 -0.7618
  310TIP3    H2  895   6.468   5.489   4.194 -0.6676  1.6900 -1.7206
  311TIP3   OH2  896   3.573   2.445   4.229  0.1313  0.6994  0.1845
  311TIP3    H1  897   3.517   2.492   4.167 -0.9679 -1.2355 -0.3913
  311TIP3    H2  898   3.662   2.465   4.201 -0.3373  0.4607 -1.5770
  312TIP3   OH2  899   1.791   6.234   0.475  0.0857  0.3059 -0.2014
  312TIP3    H1  900   1.718   6.214   0.417  0.4044 -2.5200  0.2310
  312TIP3    H2  901   1.838   6.152   0.484  0.6537  0.8290  3.1984
  313TIP3   OH2  902   1.523   1.856   1.698  0.7416 -0.2325  0.1052
  313TIP3    H1  903   1.536   1.906   1.779  0.6728 -0.4970  0.2842
  313TIP3    H2  904   1.612   1.831   1.671  1.1408  2.7144 -1.7899
  314TIP3   OH2  905   7.134   3.296   2.770  0.3207  0.4516  0.6370
  314TIP3    H1  906   7.066   3.363   2.767 -1.0260 -0.8557  0.7544
  314TIP3    H2  907   7.182   3.313   2.851 -0.2213  1.0492  0.8363
  315TIP3   OH2  908   0.362   3.048   5.808 -0.0056 -0.2340 -0.8024
  315TIP3    H1  909   0.418   2.973   5.787  0.2026 -0.1425 -0.5834
  315TIP3    H2  910   0.288   3.010   5.856  0.0696 -0.3053 -0.7422
  316TIP3   OH2  911   4.792   3.954   5.572 -0.0930  0.5336 -0.2191
  316TIP3    H1  912   4.778   3.859   5.569  0.3469  0.4763 -0.5333
  316TIP3    H2  913   4.721   3.990   5.519 -0.9020  0.4547  0.7919
  317TIP3   OH2  914   2.941   3.631   3.107  0.1473  0.3936 -0.8444
  317TIP3    H1  915   2.888   3.558   3.075  0.8229  0.0456 -1.1937
  317TIP3    H2  916   3.023   3.590   3.135 -0.2206  0.7410  0.8822
  318TIP3   OH2  917   4.084   5.297   4.154 -0.1659  0.3221 -0.4707
  318TIP3    H1  918   4.168   5.268   4.118 -0.5106  0.6029 -1.5114
  318TIP3    H2  919   4.054   5.366   4.095 -1.2159  0.1028 -0.2245
  319TIP3   OH2  920   0.630   2.317   1.113  0.3311  0.8276 -0.1393
  319TIP3    H1  921   0.581   2.349   1.037 -0.9974  0.7176  0.6377
  319TIP3    H2  922   0.705   2.376   1.119 -1.2871  2.9849  0.4165
  320TIP3   OH2  923   3.172   3.521   3.265  0.0623  0.3287 -0.1915
  320TIP3    H1  924   3.251   3.558   3.306  0.0042 -0.6664  0.8537
  320TIP3    H2  925   3.196   3.432   3.243 -0.8450 -0.0688  0.3761
  321TIP3   OH2  926   2.049   5.255   1.776 -0.5924 -0.0741 -0.1228
  321TIP3    H1  927   2.090   5.193   1.836 -1.8122 -0.0840  0.7377
  321TIP3    H2  928   1.958   5.261   1.806 -0.7614  1.3313 -0.8257
  322TIP3   OH2  929   1.386   4.015   3.755  1.1991 -0.2631  0.5227
  322TIP3    H1  930   1.443   4.073   3.704  0.9396  0.3707  0.9440
  322TIP3    H2  931   1.392   3.931   3.710  2.1545 -0.1027  0.3270
  323TIP3   OH2  932   4.292   3.078   2.517  0.2229 -0.0125 -0.2851
  323TIP3    H1  933   4.217   3.067   2.458 -0.9796 -3.9204  1.6541
  323TIP3    H2  934   4.361   3.024   2.479  1.4332  1.8959 -0.9313
  324TIP3   OH2  935   2.444   1.677   3.562  0.0785 -0.1441 -0.2794
  324TIP3    H1  936   2.471   1.611   3.498 -0.8948 -0.1434 -0.7159
  324TIP3    H2  937   2.406   1.626   3.634  0.8551 -0.1281  0.1498
  325TIP3   OH2  938   4.869   5.628   0.389 -0.1124 -0.1621 -0.6481
  325TIP3    H1  939   4.805   5.676   0.337  0.1622  1.3318  0.3241
  325TIP3    H2  940   4.817   5.586   0.457 -0.0766  1.4002  0.4007
  326TIP3   OH2  941   0.753   3.930   0.329 -0.0984  0.1402  0.2257
  326TIP3    H1  942   0.775   4.022   0.313 -0.3254  0.4986  1.8101
  326TIP3    H2  943   0.665   3.919   0.293  0.0530  0.4503 -0.2474
  327TIP3   OH2  944   4.053   5.490   5.854 -0.0556 -0.4226  0.0849
  327TIP3    H1  945   4.085   5.521   5.769  1.1051  2.4610  1.4325
  327TIP3    H2  946   4.114   5.420   5.879 -0.2173 -1.0690 -1.2828
  328TIP3   OH2  947   0.462   4.282   3.981 -0.8976 -0.1312  0.5649
  328TIP3    H1  948   0.515   4.360   3.967  0.9533 -1.3573  0.3413
  328TIP3    H2  949   0.407   4.276   3.902 -0.9765  0.8579  0.5310
  329TIP3   OH2  950   7.010   1.863   2.420  0.0529  0.6320  0.4638
  329TIP3    H1  951   7.055   1.798   2.473 -0.2247  0.7176  0.8089
  329TIP3    H2  952   7.066   1.941   2.424  0.6092  0.2870 -0.3134
  330TIP3   OH2  953   6.220   1.844   0.501  0.1440 -0.2853 -0.1002
  330TIP3    H1  954   6.146   1.855   0.561  0.7418 -2.6776  1.2308
  330TIP3    H2  955   6.183   1.856   0.414 -1.1144  1.6409  0.6299
  331TIP3   OH2  956   7.167   4.706   2.019  0.0472 -0.1860 -0.0026
  331TIP3    H1  957   7.218   4.713   2.100  1.6166 -1.0393 -0.8574
  331TIP3    H2  958   7.076   4.714   2.046  0.6063  1.3579  1.6176
  332TIP3   OH2  959   4.479   4.802   2.381 -0.0287 -0.2291  0.0341
  332TIP3    H1  960   4.402   4.816   2.437 -0.5472  0.9231 -0.8971
  332TIP3    H2  961   4.443   4.803   2.292  1.0182 -0.1064 -0.3978
  333TIP3   OH2  962   1.245   1.407   3.401 -0.0733 -0.0741 -0.3206
  333TIP3    H1  963   1.224   1.496   3.372  1.4231  0.1588 -0.8137
  333TIP3    H2  964   1.303   1.373   3.332 -0.2192 -1.2473  0.1168
  334TIP3   OH2  965   6.275   0.503   1.738  0.4517  0.8214  0.2131
  334TIP3    H1  966   6.209   0.494   1.807  1.1063 -0.8173  0.6779
  334TIP3    H2  967   6.331   0.574   1.768  0.6457  0.2236  1.3250
  335TIP3   OH2  968   4.315   5.021   4.536 -0.8174 -0.0162 -0.3656
  335TIP3    H1  969   4.402   5.059   4.549 -1.0310  0.8326 -1.2893
  335TIP3    H2  970   4.256   5.082   4.579 -0.9979 -0.3298 -0.1689
  336TIP3   OH2  971   4.329   4.340   0.382  0.2213 -0.2668 -0.5504
  336TIP3    H1  972   4.409   4.306   0.342  0.1621 -1.0894 -0.0002
  336TIP3    H2  973   4.358   4.379   0.465  0.0108 -0.9539 -0.1431
  337TIP3   OH2  974   4.931   3.886   4.890 -0.3040 -0.0056 -0.1572
  337TIP3    H1  975   4.977   3.955   4.938  0.2658 -1.2494  1.1345
  337TIP3    H2  976   4.912   3.925   4.804  2.0023  0.9822 -0.2719
  338TIP3   OH2  977   1.594   1.801   3.482  0.4160  0.3650  0.2772
  338TIP3    H1  978   1.550   1.884   3.464  0.1576  0.0318 -0.6649
  338TIP3    H2  979   1.524   1.736   3.480  1.1751 -0.7349 -4.7590
  339TIP3   OH2  980   4.242   2.366   1.045 -0.0460  1.1232  0.3275
  339TIP3    H1  981   4.323   2.315   1.043 -0.2697  0.7583  0.4693
  339TIP3    H2  982   4.173   2.301   1.034 -0.3782  1.2903  1.3689
  340TIP3   OH2  983   2.177   1.871   4.146 -0.6824 -0.4607 -0.2516
  340TIP3    H1  984   2.257   1.837   4.184 -0.4212  0.9707  0.5789
  340TIP3    H2  985   2.188   1.967   4.149 -2.5689 -0.2197  0.2494
  341TIP3   OH2  986   5.350   4.731   0.116 -0.1776 -0.1958 -0.0430
  341TIP3    H1  987   5.260   4.731   0.083  0.1062  0.0372 -0.8299
  341TIP3    H2  988   5.351   4.803   0.180 -0.6928 -0.5697  0.3985
  342TIP3   OH2  989   6.367   2.429   5.342  0.2114  0.3501 -0.2488
  342TIP3    H1  990   6.300   2.487   5.377  0.2464  0.5784 -0.5597
  342TIP3    H2  991   6.322   2.376   5.276 -0.0307 -0.6049  0.6640
  343TIP3   OH2  992   6.663   3.865   0.494  0.0714 -0.2995 -0.0406
  343TIP3    H1  993   6.589   3.814   0.462  0.3157 -0.2578 -0.6885
  343TIP3    H2  994   6.728   3.800   0.520  0.8936 -0.3666 -2.0556
  344TIP3   OH2  995   4.080   1.057   1.485 -0.1487  0.4255  0.0205
  344TIP3    H1  996   4.072   1.135   1.540  1.3259  0.6704 -0.0742
  344TIP3    H2  997   4.087   1.090   1.396 -0.9301  0.0986 -0.1760
  345TIP3   OH2  998   6.257   2.543   3.034 -0.4740  0.5214 -0.0081
  345TIP3    H1  999   6.339   2.496   3.050  0.8014  2.0680 -1.5854
  345TIP3    H2 1000   6.242   2.593   3.113  0.0344  0.1262  0.3493
  346TIP3   OH2 1001   3.145   0.834   0.666 -0.2429 -0.2921 -0.0927
  346TIP3    H1 1002   3.128   0.928   0.664 -1.9689 -0.4992  1.5337
  346TIP3    H2 1003   3.236   0.825   0.638 -0.0440  1.8542 -0.2879
  347TIP3   OH2 1004   7.009   6.628   2.669 -0.2909 -0.0774  0.1295
  347TIP3    H1 1005   7.100   6.599   2.672 -0.4583 -0.6181  0.2321
  347TIP3    H2 1006   7.013   6.718   2.637  0.2750 -0.1120  0.0902
  348TIP3   OH2 1007   1.733   5.972   3.830 -0.1116  0.0664  0.0350
  348TIP3    H1 1008   1.827   5.977   3.818 -0.0142 -0.1783  0.6718
  348TIP3    H2 1009   1.707   5.891   3.787 -0.2319  0.7919 -1.3132
  349TIP3   OH2 1010   4.594   5.709   4.189  0.3787 -0.3163 -0.7077
  349TIP3    H1 1011   4.596   5.681   4.098  2.2146  0.7379 -1.0457
  349TIP3    H2 1012   4.520   5.769   4.195 -0.2459 -1.0180 -1.2911
  350TIP3   OH2 1013   4.435   0.551   1.262  0.0655  0.1326 -0.4903
  350TIP3    H1 1014   4.410   0.641   1.238  0.6899  0.3295 -0.4140
  350TIP3    H2 1015   4.423   0.548   1.357 -0.0472  0.1013 -0.5047
  351TIP3   OH2 1016   3.234   5.576   5.112  0.0243 -0.0189  0.2185
  351TIP3    H1 1017   3.196   5.607   5.030 -0.4405 -0.7660  0.1461
  351TIP3    H2 1018   3.197   5.489   5.125  2.3481 -1.1635 -0.3074
  352TIP3   OH2 1019   2.665   2.061   1.486  1.2137 -0.3792 -0.0629
  352TIP3    H1 1020   2.621   1.983   1.518  1.7222 -0.5373  0.2601
  352TIP3    H2 1021   2.618   2.083   1.405  1.2426 -1.1790 -0.3074
  353TIP3   OH2 1022   0.584   4.239   3.128 -0.7561 -0.1118  0.0310
  353TIP3    H1 1023   0.644   4.250   3.203 -0.7902 -0.1737  0.0676
  353TIP3    H2 1024   0.608   4.310   3.068  1.0655 -1.6227 -1.1216
  354TIP3   OH2 1025   6.791   5.039   5.775 -0.2396  0.4012 -0.0594
  354TIP3    H1 1026   6.878   5.076   5.756 -0.1923 -0.4534 -1.6437
  354TIP3    H2 1027   6.746   5.040   5.691 -1.2340 -0.5486  0.4468
  355TIP3   OH2 1028   6.355   3.632   1.705  0.4220  0.4245  0.2935
  355TIP3    H1 1029   6.410   3.570   1.754 -0.3745 -1.1206 -0.6979
  355TIP3    H2 1030   6.350   3.596   1.617  0.0109  1.9841 -0.3590
  356TIP3   OH2 1031   4.261   0.103   4.697  0.2237 -0.4012 -0.1870
  356TIP3    H1 1032   4.213   0.185   4.688  0.6524 -0.1631 -0.3207
  356TIP3    H2 1033   4.240   0.053   4.618  0.1109 -0.3439 -0.1931
  357TIP3   OH2 1034   3.222   5.766   3.545  0.2505  0.3697  0.0638
  357TIP3    H1 1035   3.263   5.850   3.525  0.0362  0.7767  1.2639
  357TIP3    H2 1036   3.149   5.788   3.603 -1.4604 -0.3856 -1.6830
  358TIP3   OH2 1037   3.508   3.957   0.183  0.2552 -0.5405 -0.4156
  358TIP3    H1 1038   3.566   3.911   0.243  0.3914 -1.1949 -1.0263
  358TIP3    H2 1039   3.563   4.027   0.146  0.2243 -0.2546  0.0798
  359TIP3   OH2 1040   5.688   0.629   4.685  0.2141  0.4482 -0.4433
  359TIP3    H1 1041   5.674   0.541   4.649  1.2058  0.5469 -1.1075
  359TIP3    H2 1042   5.611   0.645   4.738 -0.3108 -0.5529 -0.8678
  360TIP3   OH2 1043   2.991   2.913   0.528 -0.9944 -0.3161  0.0134
  360TIP3    H1 1044   3.034   2.828   0.527 -0.8625 -0.2831  1.1575
  360TIP3    H2 1045   2.898   2.893   0.538 -0.8494 -0.3258  1.5709
  361TIP3   OH2 1046   3.680   5.242   4.695  0.1127 -0.4850 -0.0077
  361TIP3    H1 1047   3.688   5.292   4.776  0.4751 -0.4625 -0.0542
  361TIP3    H2 1048   3.601   5.275   4.653  0.8705  0.7436 -0.5111
  362TIP3   OH2 1049   7.064   1.202   1.867  0.0767 -0.2328 -0.5302
  362TIP3    H1 1050   7.020   1.229   1.947 -1.4814  0.6248 -1.6284
  362TIP3    H2 1051   7.157   1.221   1.882 -0.1053 -0.6088  1.2459
  363TIP3   OH2 1052   7.003   3.357   1.440 -0.7154 -0.3053  0.0007
  363TIP3    H1 1053   7.045   3.437   1.471  0.0377 -0.7827  0.2334
  363TIP3    H2 1054   6.913   3.383   1.422 -0.5219  0.5567  0.2219
  364TIP3   OH2 1055   6.280   1.467   3.320 -0.1525 -0.0163  0.6192
  364TIP3    H1 1056   6.342   1.432   3.385  0.1302 -0.5705  0.0718
  364TIP3    H2 1057   6.208   1.404   3.320  0.8072 -1.2151 -1.0739
  365TIP3   OH2 1058   6.618   2.372   2.227  0.4850 -0.1458  0.2296
  365TIP3    H1 1059   6.626   2.468   2.231 -1.5356  0.2049 -1.9623
  365TIP3    H2 1060   6.561   2.350   2.301 -1.2316  0.7414 -0.7498
  366TIP3   OH2 1061   1.125   3.196   5.524 -0.2123  0.5131 -0.3269
  366TIP3    H1 1062   1.165   3.263   5.579 -0.6123  0.0992  0.4837
  366TIP3    H2 1063   1.172   3.202   5.441  2.6905 -1.0295  1.0533
  367TIP3   OH2 1064   4.185   5.802   5.567  0.5318 -0.0616 -0.0605
  367TIP3    H1 1065   4.178   5.829   5.476 -0.0476  2.4883  0.6461
  367TIP3    H2 1066   4.267   5.841   5.597 -0.7275  1.7336  1.2327
  368TIP3   OH2 1067   1.124   5.418   2.035 -0.2961  0.6644  0.5327
  368TIP3    H1 1068   1.048   5.436   1.979  0.9538  1.5140 -0.9465
  368TIP3    H2 1069   1.087   5.411   2.123 -2.0124  1.7252 -0.0552
  369TIP3   OH2 1070   7.114   0.141   0.551 -0.2698 -0.0850 -0.7373
  369TIP3    H1 1071   7.129   0.065   0.495  5.7442  0.1293 -0.0260
  369TIP3    H2 1072   7.100   0.103   0.638 -0.2667 -0.3389 -0.8451
  370TIP3   OH2 1073   2.351   0.489   1.580  0.0207  0.0469  0.0897
  370TIP3    H1 1074   2.261   0.488   1.613  0.3360 -1.2286  1.0005
  370TIP3    H2 1075   2.382   0.399   1.592  1.0959  0.2216 -1.1466
  371TIP3   OH2 1076   4.680   3.367   0.542 -0.4011 -0.4737  0.3221
  371TIP3    H1 1077   4.643   3.333   0.624  0.3011  1.2803  1.4204
  371TIP3    H2 1078   4.774   3.354   0.551 -0.2427  0.5022  0.1840
  372TIP3   OH2 1079   4.868   3.017   0.706 -0.0561  0.1618 -0.0277
  372TIP3    H1 1080   4.907   2.955   0.768  0.4286  0.4205 -0.0675
  372TIP3    H2 1081   4.901   3.102   0.734  0.1300  0.2844 -0.6086
  373TIP3   OH2 1082   2.721   6.276   3.744 -0.5708 -0.1298 -0.4513
  373TIP3    H1 1083   2.686   6.286   3.656  0.8356 -0.6936 -1.1035
  373TIP3    H2 1084   2.734   6.366   3.776 -0.6057  0.0758 -1.0149
  374TIP3   OH2 1085   5.161   2.306   5.618  0.4429 -0.3645 -0.3044
  374TIP3    H1 1086   5.147   2.214   5.598 -3.7367  0.0548 -0.2327
  374TIP3    H2 1087   5.189   2.345   5.536 -1.5033 -1.1771 -1.4208
  375TIP3   OH2 1088   3.786   4.611   0.809 -0.0828  0.5939 -0.3560
  375TIP3    H1 1089   3.868   4.568   0.831  0.0411  1.2693  0.5595
  375TIP3    H2 1090   3.806   4.661   0.730  0.4427  0.8883 -0.0455
  376TIP3   OH2 1091   3.485   6.482   0.478 -0.6091  0.3777 -1.0031
  376TIP3    H1 1092   3.545   6.538   0.525  0.0724  0.5847 -2.0830
  376TIP3    H2 1093   3.488   6.398   0.524 -0.0438  0.6093 -0.6224
  377TIP3   OH2 1094   5.877   3.403   5.685 -0.2877 -0.0105 -0.1658
  377TIP3    H1 1095   5.946   3.441   5.740  0.2980 -0.1921 -0.7706
  377TIP3    H2 1096   5.807   3.381   5.747  0.5820 -0.7191  0.5942
  378TIP3   OH2 1097   2.339   5.566   0.243  0.1192  0.4962  0.3036
  378TIP3    H1 1098   2.422   5.539   0.282  1.5960 -2.5300 -4.1029
  378TIP3    H2 1099   2.273   5.510   0.283  0.6440  0.9414  1.8369
  379TIP3   OH2 1100   1.044   4.445   5.863 -0.1155 -0.2487  0.3254
  379TIP3    H1 1101   1.047   4.374   5.799  1.1466 -2.0140  2.2083
  379TIP3    H2 1102   1.118   4.501   5.840  0.3630 -0.8984  0.2521
  380TIP3   OH2 1103   5.360   4.008   2.152  0.5087  0.1596  0.4225
  380TIP3    H1 1104   5.335   4.101   2.158  0.4703  0.2215 -0.4885
  380TIP3    H2 1105   5.392   3.998   2.062 -2.0885 -1.3337 -0.4379
  381TIP3   OH2 1106   3.057   1.415   3.376 -0.3994 -0.3575  0.0566
  381TIP3    H1 1107   2.995   1.347   3.349 -1.4042  1.0056 -1.2408
  381TIP3    H2 1108   3.010   1.497   3.362  1.3614  0.6842 -0.0357
  382TIP3   OH2 1109   1.759   0.981   3.460 -0.0986  0.4712 -0.6759
  382TIP3    H1 1110   1.717   0.905   3.419 -0.1463  0.4877 -0.6573
  382TIP3    H2 1111   1.829   1.005   3.399  0.1458  0.1898 -0.5085
  383TIP3   OH2 1112   2.508   4.043   3.173 -0.6301  0.3677 -0.1681
  383TIP3    H1 1113   2.543   3.955   3.164 -2.9011 -0.5969 -0.2932
  383TIP3    H2 1114   2.566   4.098   3.120  0.8618 -1.0165 -0.0351
  384TIP3   OH2 1115   2.895   2.348   5.013  0.1381 -0.2407  0.2679
  384TIP3    H1 1116   2.942   2.388   4.940 -0.9281 -0.1106 -0.3711
  384TIP3    H2 1117   2.964   2.311   5.068  0.9082 -2.3328 -1.9418
  385TIP3   OH2 1118   3.640   2.069   4.510 -0.1813  0.0093  0.2784
  385TIP3    H1 1119   3.571   2.135   4.506  0.0499  0.1799 -1.5865
  385TIP3    H2 1120   3.722   2.119   4.505  0.0472 -0.3003  0.8159
  386TIP3   OH2 1121   3.090   1.343   5.370  0.5353  0.2964  0.0686
  386TIP3    H1 1122   3.181   1.364   5.348  0.4823  0.3902 -0.0620
  386TIP3    H2 1123   3.053   1.426   5.400  0.5133  0.2423  0.1921
  387TIP3   OH2 1124   6.860   0.138   2.406  0.1015  0.2182  0.3366
  387TIP3    H1 1125   6.852   0.113   2.314 -0.4202 -0.2042  0.4882
  387TIP3    H2 1126   6.795   0.208   2.417 -2.5849 -2.1919  1.2133
  388TIP3   OH2 1127   6.561   0.677   4.240 -0.4550 -0.2540 -0.4433
  388TIP3    H1 1128   6.610   0.635   4.169  3.6335  2.0545  0.7044
  388TIP3    H2 1129   6.604   0.648   4.320 -2.7173 -0.0981  0.9153
  389TIP3   OH2 1130   1.966   2.291   0.925 -0.3910  0.5724  0.4125
  389TIP3    H1 1131   1.875   2.271   0.947 -0.4668 -0.1662 -0.5303
  389TIP3    H2 1132   1.971   2.387   0.930 -0.8590  0.5447  1.7876
  390TIP3   OH2 1133   1.482   3.041   0.596  0.4524 -0.1809  0.1416
  390TIP3    H1 1134   1.500   2.950   0.572  0.7430  0.2980 -1.5302
  390TIP3    H2 1135   1.386   3.047   0.595  0.4303 -0.4716  0.2951
  391TIP3   OH2 1136   7.083   5.072   4.977 -0.1431  0.1090 -0.2886
  391TIP3    H1 1137   7.177   5.060   4.967 -0.0947 -0.0704  0.3553
  391TIP3    H2 1138   7.045   4.998   4.929  0.0485  0.1011 -0.4287
  392TIP3   OH2 1139   1.721   3.110   2.068  0.4976  0.2296 -0.2122
  392TIP3    H1 1140   1.673   3.069   1.996 -0.9268  1.9508 -0.3257
  392TIP3    H2 1141   1.777   3.175   2.025  1.0810 -0.0436  0.1203
  393TIP3   OH2 1142   0.660   6.799   5.674  0.2189  0.1788 -0.8483
  393TIP3    H1 1143   0.718   6.827   5.745 -0.9191 -1.1162  0.6491
  393TIP3    H2 1144   0.719   6.780   5.601  1.4998  0.6101  0.0445
  394TIP3   OH2 1145   2.378   2.458   1.424  0.1388  0.0662  0.1483
  394TIP3    H1 1146   2.346   2.543   1.392  0.1030  0.0467  0.1331
  394TIP3    H2 1147   2.346   2.452   1.513  0.1737  0.0859  0.1621
  395TIP3   OH2 1148   3.960   5.710   5.285 -0.1657 -0.1929  0.1992
  395TIP3    H1 1149   4.016   5.633   5.293 -0.4787 -0.4264  0.1559
  395TIP3    H2 1150   3.983   5.748   5.200 -0.2483 -0.4290  0.0713
  396TIP3   OH2 1151   0.820   5.284   5.727 -0.7931 -0.5709 -1.0877
  396TIP3    H1 1152   0.841   5.255   5.638 -0.2433 -0.7609 -0.8971
  396TIP3    H2 1153   0.899   5.331   5.756 -0.9667 -0.5203 -0.6949
  397TIP3   OH2 1154   0.087   0.452   2.177 -0.5483  0.0612 -0.2517
  397TIP3    H1 1155   0.080   0.451   2.272 -1.1016  1.2137 -0.2718
  397TIP3    H2 1156   0.181   0.455   2.160 -0.4689  0.6498  0.2674
  398TIP3   OH2 1157   0.298   4.502   1.359 -0.6522  0.2420 -0.3244
  398TIP3    H1 1158   0.297   4.519   1.454  0.7080 -1.1186 -0.0431
  398TIP3    H2 1159   0.296   4.590   1.320 -2.1126  0.8241  0.9083
  399TIP3   OH2 1160   0.067   4.430   3.471  0.3303 -0.2141  0.4208
  399TIP3    H1 1161   0.110   4.398   3.550  2.1802  1.0445 -0.0082
  399TIP3    H2 1162   0.045   4.350   3.422 -0.0027 -0.9683  1.7643
  400TIP3   OH2 1163   5.117   0.609   0.739 -0.5450 -0.2590 -0.0755
  400TIP3    H1 1164   5.063   0.540   0.700 -1.4163  0.3375  0.0397
  400TIP3    H2 1165   5.150   0.658   0.663  0.2432 -0.9073 -0.1663
  401TIP3   OH2 1166   2.393   3.795   5.166 -0.1570 -0.0228 -0.6892
  401TIP3    H1 1167   2.317   3.740   5.184 -1.2488  0.6108 -2.9240
  401TIP3    H2 1168   2.360   3.863   5.107  1.9705  0.7898 -1.0421
  402TIP3   OH2 1169   4.670   0.221   4.218  0.2534 -0.1472  0.4224
  402TIP3    H1 1170   4.646   0.268   4.297 -0.2628 -1.3499  1.0108
  402TIP3    H2 1171   4.595   0.232   4.159  0.9083  1.2973 -0.1861
  403TIP3   OH2 1172   1.975   3.797   4.269 -0.4971 -0.4666 -0.3191
  403TIP3    H1 1173   2.002   3.887   4.248  1.5897 -0.1821  2.9438
  403TIP3    H2 1174   2.051   3.744   4.246 -1.0871 -1.1923 -0.6237
  404TIP3   OH2 1175   7.067   4.218   0.543  0.2017  0.3851 -0.7011
  404TIP3    H1 1176   7.032   4.304   0.566  1.4232  0.6534  0.3314
  404TIP3    H2 1177   6.992   4.168   0.513 -0.7811  1.3837  0.0087
  405TIP3   OH2 1178   2.628   5.753   3.589  0.1396  0.7546 -0.6862
  405TIP3    H1 1179   2.674   5.692   3.531  0.5875 -0.0711  0.4936
  405TIP3    H2 1180   2.658   5.840   3.562  0.4779  0.3749 -1.5608
  406TIP3   OH2 1181   3.362   3.863   0.778  0.2093  0.3410 -0.3054
  406TIP3    H1 1182   3.388   3.812   0.701 -2.7440  0.0841 -1.2709
  406TIP3    H2 1183   3.266   3.862   0.776  0.0288  2.8764  1.7191
  407TIP3   OH2 1184   5.328   4.279   3.504 -0.2780  0.0462  0.6816
  407TIP3    H1 1185   5.233   4.276   3.513 -0.5226  1.8722 -0.7501
  407TIP3    H2 1186   5.348   4.213   3.438 -0.3922 -1.0138  1.6599
  408TIP3   OH2 1187   5.899   2.953   3.175 -0.7181  0.1754 -0.5258
  408TIP3    H1 1188   5.950   2.934   3.253 -0.6329  0.3125 -0.5492
  408TIP3    H2 1189   5.946   2.908   3.104  0.5431  2.0099 -0.9100
  409TIP3   OH2 1190   4.122   2.357   5.178  0.0360 -0.0219 -0.2254
  409TIP3    H1 1191   4.145   2.391   5.265  0.1032  0.7034 -0.5197
  409TIP3    H2 1192   4.041   2.402   5.155 -0.4131 -0.7982 -0.2126
  410TIP3   OH2 1193   5.576   4.683   1.461  0.7872  0.4929  0.2808
  410TIP3    H1 1194   5.617   4.755   1.510 -0.9593  1.3870  0.5073
  410TIP3    H2 1195   5.525   4.726   1.393 -0.3723 -0.5145  0.4814
  411TIP3   OH2 1196   2.001   4.717   2.188  0.5214 -0.1427 -0.5030
  411TIP3    H1 1197   1.997   4.626   2.158 -1.4672  0.0338 -0.8818
  411TIP3    H2 1198   1.922   4.757   2.154 -0.1770  0.9724  2.1927
  412TIP3   OH2 1199   6.329   0.318   3.008  0.6496  0.4948  0.2583
  412TIP3    H1 1200   6.418   0.336   2.979  0.4717 -2.3427 -2.5058
  412TIP3    H2 1201   6.275   0.380   2.959  0.9613  1.5452  1.1923
  413TIP3   OH2 1202   0.802   3.027   3.019 -0.0645 -0.3444 -0.0106
  413TIP3    H1 1203   0.749   3.061   3.091  2.1503  0.2401  1.4470
  413TIP3    H2 1204   0.776   2.935   3.012 -1.1654 -0.1116  0.7057
  414TIP3   OH2 1205   6.061   5.011   4.102  0.2061  0.1225 -0.2715
  414TIP3    H1 1206   6.030   4.980   4.017 -0.6151 -1.5449  0.5901
  414TIP3    H2 1207   6.150   4.977   4.109 -0.2669 -1.0922  0.1535
  415TIP3   OH2 1208   1.777   5.238   1.829 -0.1941 -0.0725 -0.6949
  415TIP3    H1 1209   1.717   5.312   1.845  0.0644  0.1194 -0.5943
  415TIP3    H2 1210   1.725   5.175   1.781 -0.6863 -0.2014 -0.0147
  416TIP3   OH2 1211   2.462   4.673   5.036 -0.2138  0.1194  0.0492
  416TIP3    H1 1212   2.520   4.603   5.004  1.1123 -0.0606  2.6336
  416TIP3    H2 1213   2.519   4.749   5.044 -0.9700  0.6868  0.0884
  417TIP3   OH2 1214   7.122   3.868   2.531  0.0828  0.0007 -0.6432
  417TIP3    H1 1215   7.026   3.872   2.539 -0.1281 -2.2227 -1.2956
  417TIP3    H2 1216   7.154   3.880   2.620 -0.7645  1.2479 -0.4866
  418TIP3   OH2 1217   1.422   0.917   1.040  0.1385 -0.2479 -0.4881
  418TIP3    H1 1218   1.415   0.883   0.951  1.8219 -1.1269 -0.3330
  418TIP3    H2 1219   1.442   1.010   1.029  1.7500 -0.6277 -1.1078
  419TIP3   OH2 1220   3.582   3.657   3.097  0.1757  0.1733 -0.4105
  419TIP3    H1 1221   3.571   3.605   3.176 -0.5926  0.5520 -0.2598
  419TIP3    H2 1222   3.494   3.692   3.078  0.0645 -0.8944 -2.1057
  420TIP3   OH2 1223   2.888   5.603   3.091 -0.3695  0.9251 -0.3098
  420TIP3    H1 1224   2.896   5.694   3.063  0.7507  0.2747 -2.2662
  420TIP3    H2 1225   2.966   5.586   3.143 -0.9433  1.2534  0.6959
  421TIP3   OH2 1226   2.595   4.806   3.360 -0.1955  0.4453  0.2582
  421TIP3    H1 1227   2.644   4.741   3.310 -0.7727  2.2153 -2.8821
  421TIP3    H2 1228   2.531   4.755   3.410  1.5767 -1.5528  0.6205
  422TIP3   OH2 1229   4.686   1.602   4.420 -0.3006 -0.4572  0.4149
  422TIP3    H1 1230   4.741   1.674   4.450 -1.5226  0.4732  0.5025
  422TIP3    H2 1231   4.597   1.634   4.430 -0.8501 -1.6503 -0.4034
  423TIP3   OH2 1232   2.489   3.231   1.522 -0.2098  0.1608  0.4808
  423TIP3    H1 1233   2.428   3.304   1.531 -0.4315  0.3940 -2.2315
  423TIP3    H2 1234   2.575   3.270   1.532 -0.2344  1.2206 -2.6311
  424TIP3   OH2 1235   1.723   5.534   2.472  0.2263  0.0235  0.2889
  424TIP3    H1 1236   1.633   5.554   2.444 -0.5160 -1.5739  1.3376
  424TIP3    H2 1237   1.772   5.523   2.391 -0.6056  0.5856 -0.3097
  425TIP3   OH2 1238   6.826   0.555   2.706  0.2696 -0.2042  0.0683
  425TIP3    H1 1239   6.810   0.647   2.685  1.7353  0.5649  2.0224
  425TIP3    H2 1240   6.892   0.527   2.642 -1.2131 -0.3830 -1.4518
  426TIP3   OH2 1241   5.533   6.207   4.312  0.0945 -0.5574  0.3787
  426TIP3    H1 1242   5.449   6.252   4.299  1.7325  2.6545 -0.3182
  426TIP3    H2 1243   5.564   6.240   4.397  0.7355 -1.5640  0.5430
  427TIP3   OH2 1244   4.238   0.904   3.785  0.0029  0.0044 -0.1311
  427TIP3    H1 1245   4.236   0.980   3.843  1.1858 -0.9519  1.2354
  427TIP3    H2 1246   4.257   0.940   3.698 -0.6520  1.3579  0.2493
  428TIP3   OH2 1247   4.042   4.492   1.979 -0.0150  0.5451  0.0887
  428TIP3    H1 1248   4.135   4.492   2.002 -0.2822 -0.1907  1.2700
  428TIP3    H2 1249   4.016   4.400   1.986 -0.6688  0.6283 -0.9949
  429TIP3   OH2 1250   2.411   1.069   1.042 -0.1944  0.1954  0.3384
  429TIP3    H1 1251   2.430   1.083   1.135  0.9592 -0.2679  0.1847
  429TIP3    H2 1252   2.474   1.003   1.014 -0.7731  0.0577 -0.6944
  430TIP3   OH2 1253   3.567   3.351   3.052  0.8914  0.3937  0.1427
  430TIP3    H1 1254   3.592   3.427   3.000  3.4261 -0.3365  0.1639
  430TIP3    H2 1255   3.479   3.328   3.020  1.0405  1.9021 -1.5127
  431TIP3   OH2 1256   6.685   5.741   5.811 -0.3402 -0.5428  0.2185
  431TIP3    H1 1257   6.700   5.815   5.870 -2.1597 -0.4976  0.6779
  431TIP3    H2 1258   6.768   5.693   5.812  1.3867  2.1766 -1.1824
  432TIP3   OH2 1259   0.615   1.678   5.507 -0.1222  0.3427  0.2978
  432TIP3    H1 1260   0.595   1.585   5.499 -0.7111  0.5387 -0.6865
  432TIP3    H2 1261   0.555   1.721   5.446  1.7220  1.1887 -1.0132
  433TIP3   OH2 1262   2.718   3.133   0.556  0.8169  0.2362 -0.2132
  433TIP3    H1 1263   2.625   3.152   0.542  0.7684 -0.6305 -1.2284
  433TIP3    H2 1264   2.719   3.057   0.614  0.9595  1.4902  1.5068
  434TIP3   OH2 1265   2.320   3.996   0.284  0.3935  0.2346  0.1858
  434TIP3    H1 1266   2.259   3.983   0.211  1.0871 -0.0246 -0.3659
  434TIP3    H2 1267   2.372   4.072   0.257  0.5682  0.2166  0.4708
  435TIP3   OH2 1268   3.876   1.285   3.654 -0.7060  0.2709 -0.1652
  435TIP3    H1 1269   3.875   1.380   3.654  0.0572  0.2934  0.9327
  435TIP3    H2 1270   3.865   1.260   3.746  0.6756 -0.6499 -0.2068
  436TIP3   OH2 1271   5.105   4.916   1.380 -0.1251 -0.3421 -0.3318
  436TIP3    H1 1272   5.199   4.917   1.363  0.0875  1.0967  0.7775
  436TIP3    H2 1273   5.093   4.974   1.455 -1.7985 -1.2486  0.1592
  437TIP3   OH2 1274   1.852   1.358   0.722  0.4006  0.1411 -0.1549
  437TIP3    H1 1275   1.927   1.312   0.760 -0.3935  0.3352  1.6999
  437TIP3    H2 1276   1.860   1.448   0.754 -1.5444 -0.2207  1.5364
  438TIP3   OH2 1277   3.885   3.091   1.090 -0.3902 -0.0678  0.2331
  438TIP3    H1 1278   3.805   3.095   1.037  0.4434 -0.9101 -1.1304
  438TIP3    H2 1279   3.872   3.015   1.146 -0.0271 -0.9724 -0.8857
  439TIP3   OH2 1280   2.698   5.746   1.996 -0.2667  0.3099  0.5820
  439TIP3    H1 1281   2.784   5.768   1.958  0.0374 -2.2905 -0.4553
  439TIP3    H2 1282   2.635   5.777   1.931 -0.1866  2.2929  1.3773
  440TIP3   OH2 1283   2.348   3.296   0.820 -0.0759  0.5925  0.3693
  440TIP3    H1 1284   2.390   3.218   0.784 -0.0710  1.0518 -0.6731
  440TIP3    H2 1285   2.315   3.269   0.905 -0.8171 -0.7896 -0.3125
  441TIP3   OH2 1286   5.384   5.021   2.936 -0.3482 -0.0195 -0.3042
  441TIP3    H1 1287   5.440   5.087   2.978  0.4690 -0.2544 -0.9982
  441TIP3    H2 1288   5.414   5.018   2.846 -1.7877  0.1432 -0.8116
  442TIP3   OH2 1289   0.456   0.635   2.004 -0.0614 -0.2906  0.1511
  442TIP3    H1 1290   0.526   0.645   1.940  1.4898 -0.7354  1.6817
  442TIP3    H2 1291   0.421   0.723   2.015  1.4184  0.2892  0.5493
  443TIP3   OH2 1292   1.773   5.989   5.857  0.2614 -0.1982 -0.3520
  443TIP3    H1 1293   1.733   5.903   5.847 -1.6434  0.8363 -2.6660
  443TIP3    H2 1294   1.707   6.042   5.902 -0.1986  0.9529 -2.2456
  444TIP3   OH2 1295   0.663   6.240   4.754  0.0956  0.4099 -0.1357
  444TIP3    H1 1296   0.667   6.251   4.659  0.7695 -0.6294 -0.2470
  444TIP3    H2 1297   0.693   6.150   4.769 -1.7313 -0.0904  0.9205
  445TIP3   OH2 1298   4.777   3.893   1.156  0.5944  0.8120 -0.0676
  445TIP3    H1 1299   4.746   3.875   1.245  1.1359 -1.3821 -0.2711
  445TIP3    H2 1300   4.869   3.917   1.167  0.6495  0.5824 -0.0231
  446TIP3   OH2 1301   0.389   2.347   3.074 -0.1693  0.3298 -0.4496
  446TIP3    H1 1302   0.483   2.347   3.052 -0.1160  1.3106 -0.2614
  446TIP3    H2 1303   0.387   2.370   3.167 -0.5361 -1.1381 -0.0593
  447TIP3   OH2 1304   2.402   4.194   0.954  0.1830  0.3725 -0.0803
  447TIP3    H1 1305   2.360   4.272   0.991  0.0296  0.0495  0.4484
  447TIP3    H2 1306   2.346   4.121   0.983  0.3761  0.0593 -0.4882
  448TIP3   OH2 1307   7.013   2.540   5.365 -0.0302  0.4769 -0.1457
  448TIP3    H1 1308   7.051   2.461   5.326 -0.8295 -0.9940  1.8575
  448TIP3    H2 1309   6.932   2.554   5.316 -0.8443 -1.1235  0.6685
  449TIP3   OH2 1310   4.834   0.534   5.662 -0.1813 -0.5090  0.0499
  449TIP3    H1 1311   4.753   0.488   5.640  0.0703 -0.0535 -1.9678
  449TIP3    H2 1312   4.842   0.603   5.597  0.1616  1.6241  2.1890
  450TIP3   OH2 1313   4.224   5.238   2.867 -0.5951 -0.4992 -0.4889
  450TIP3    H1 1314   4.311   5.211   2.837 -0.2403  0.6189 -0.4908
  450TIP3    H2 1315   4.180   5.269   2.788 -0.5995 -0.0374 -0.3097
  451TIP3   OH2 1316   2.032   1.773   4.473 -0.0909  0.0172 -0.2182
  451TIP3    H1 1317   2.069   1.718   4.404  0.0201  0.6729 -0.6976
  451TIP3    H2 1318   2.065   1.861   4.453 -0.2166  0.2472  0.5609
  452TIP3   OH2 1319   0.183   0.502   1.217 -0.4590 -0.0106 -0.2162
  452TIP3    H1 1320   0.111   0.559   1.243  1.0656  1.4276  1.0975
  452TIP3    H2 1321   0.182   0.503   1.122 -0.0360  2.9216 -0.2831
  453TIP3   OH2 1322   2.300   0.316   5.525  0.2262 -0.2462 -0.5292
  453TIP3    H1 1323   2.358   0.354   5.592 -0.7324 -1.6923  1.2132
  453TIP3    H2 1324   2.359   0.287   5.456  1.2231  1.6444 -0.5529
  454TIP3   OH2 1325   0.882   0.888   5.577  0.4133  0.0512  0.7075
  454TIP3    H1 1326   0.920   0.831   5.509 -1.3243 -0.8054  0.3954
  454TIP3    H2 1327   0.832   0.953   5.527  1.0800  0.8891  1.1182
  455TIP3   OH2 1328   5.842   2.677   2.062  0.1016 -0.0329  0.3602
  455TIP3    H1 1329   5.768   2.647   2.009 -0.1712 -0.4731  0.9829
  455TIP3    H2 1330   5.887   2.597   2.087  1.4592  0.2737 -0.9345
  456TIP3   OH2 1331   0.855   3.299   3.276 -1.2004 -0.4264  0.5223
  456TIP3    H1 1332   0.810   3.216   3.290  0.4200 -1.1147  2.0611
  456TIP3    H2 1333   0.946   3.281   3.300  0.1628  0.6727 -3.0599
  457TIP3   OH2 1334   4.536   4.599   0.632 -0.2706 -0.4122 -0.1096
  457TIP3    H1 1335   4.551   4.689   0.662  0.5131  0.0202 -1.7101
  457TIP3    H2 1336   4.622   4.558   0.635 -0.7254 -1.3448  1.2215
  458TIP3   OH2 1337   0.745   0.765   5.764  0.3555 -0.4211 -0.1102
  458TIP3    H1 1338   0.797   0.813   5.699 -0.2377  1.0364  0.4439
  458TIP3    H2 1339   0.762   0.673   5.745 -0.3217 -0.0703 -2.7726
  459TIP3   OH2 1340   3.268   6.653   3.960  0.2486 -0.0689  0.6312
  459TIP3    H1 1341   3.257   6.608   4.044  0.7210  1.8950  1.7937
  459TIP3    H2 1342   3.313   6.589   3.905 -0.2559 -1.4748  1.7758
  460TIP3   OH2 1343   1.211   3.678   1.406  0.0614  0.3704 -0.2352
  460TIP3    H1 1344   1.116   3.669   1.404 -0.0076  0.9801 -2.9169
  460TIP3    H2 1345   1.226   3.772   1.390  1.1000 -0.0791 -2.1808
  461TIP3   OH2 1346   6.153   2.030   2.868 -0.6345 -0.8586  0.7867
  461TIP3    H1 1347   6.198   1.947   2.885  2.9620  0.9301  1.1871
  461TIP3    H2 1348   6.155   2.075   2.953  1.4739  1.2211 -0.2288
  462TIP3   OH2 1349   1.367   0.795   5.105 -0.0479 -0.0864  0.4655
  462TIP3    H1 1350   1.278   0.763   5.121 -0.3891  1.2147  1.3391
  462TIP3    H2 1351   1.421   0.750   5.171  0.4588 -2.7099 -1.5289
  463TIP3   OH2 1352   4.031   4.760   3.476  0.9419 -0.0359  0.3047
  463TIP3    H1 1353   4.051   4.826   3.542  1.2787  1.5798 -1.3227
  463TIP3    H2 1354   4.030   4.809   3.393 -0.2003 -1.8380 -0.8034
  464TIP3   OH2 1355   3.072   2.625   0.441 -0.1471 -0.9442 -0.0069
  464TIP3    H1 1356   3.082   2.539   0.480  2.2006 -0.2226  1.1786
  464TIP3    H2 1357   3.160   2.651   0.416 -0.2170  2.2645  2.3457
  465TIP3   OH2 1358   2.638   2.941   1.201 -0.8380 -0.2124 -0.1718
  465TIP3    H1 1359   2.712   2.888   1.231 -1.4033  0.0434  1.8296
  465TIP3    H2 1360   2.595   2.887   1.135 -0.8723 -1.8990  1.1599
  466TIP3   OH2 1361   3.625   1.946   3.546  0.3435 -0.0442 -0.4544
  466TIP3    H1 1362   3.536   1.953   3.510 -0.0231 -0.2179  0.3926
  466TIP3    H2 1363   3.631   1.855   3.574 -0.5135  0.7556  2.7215
  467TIP3   OH2 1364   4.168   0.485   4.421  0.2662 -0.0036  0.4058
  467TIP3    H1 1365   4.245   0.542   4.427  0.3923 -0.0444 -0.6580
  467TIP3    H2 1366   4.144   0.486   4.328 -0.3324 -0.8994  0.5352
  468TIP3   OH2 1367   5.852   6.222   4.676 -0.4534 -0.4287 -0.3916
  468TIP3    H1 1368   5.899   6.288   4.728  0.6651 -1.2962 -0.2530
  468TIP3    H2 1369   5.839   6.263   4.591 -1.5200  0.6867  0.2858
  469TIP3   OH2 1370   1.866   2.847   3.375  0.5141 -0.2757 -0.2117
  469TIP3    H1 1371   1.817   2.775   3.415 -1.0646  0.8832  0.0503
  469TIP3    H2 1372   1.920   2.882   3.445 -0.8727  0.5781  0.4776
  470TIP3   OH2 1373   0.597   5.732   5.644 -0.1156 -0.0041 -0.2850
  470TIP3    H1 1374   0.673   5.790   5.651 -0.8523  0.9492  0.0394
  470TIP3    H2 1375   0.585   5.697   5.732  0.9804 -1.5425 -0.7064
  471TIP3   OH2 1376   5.650   4.524   3.368  0.1296  0.3614 -0.8526
  471TIP3    H1 1377   5.622   4.493   3.281 -2.1706 -0.1763  0.0067
  471TIP3    H2 1378   5.707   4.456   3.401  0.5882  0.3107 -1.7159
  472TIP3   OH2 1379   6.444   1.181   1.404 -0.2294 -0.0278 -0.1075
  472TIP3    H1 1380   6.466   1.160   1.313  0.5118 -2.4235  0.5675
  472TIP3    H2 1381   6.353   1.153   1.414 -0.8972  1.8319 -0.5189
  473TIP3   OH2 1382   3.395   4.895   3.548  0.2787 -0.0010  0.1724
  473TIP3    H1 1383   3.325   4.873   3.610 -0.1929 -1.4801 -0.8396
  473TIP3    H2 1384   3.467   4.837   3.571  0.8193  0.8149  0.5660
  474TIP3   OH2 1385   5.802   2.787   3.775 -0.3006  0.3067 -0.2918
  474TIP3    H1 1386   5.873   2.723   3.771  0.0460  0.5246  1.4830
  474TIP3    H2 1387   5.837   2.864   3.730  0.6938  0.4811  0.7310
  475TIP3   OH2 1388   6.593   4.931   2.025 -0.5318 -0.1447  0.4085
  475TIP3    H1 1389   6.614   4.858   2.084  0.7695 -0.7689 -0.7808
  475TIP3    H2 1390   6.504   4.913   1.995 -0.2599 -1.2187  0.1945
  476TIP3   OH2 1391   3.037   4.791   5.085  0.0089 -1.3895 -0.0360
  476TIP3    H1 1392   3.124   4.831   5.087  0.3395 -2.0876 -0.1281
  476TIP3    H2 1393   2.981   4.857   5.045  0.4815 -0.9035  0.0960
  477TIP3   OH2 1394   0.504   4.469   4.687  0.3338 -0.2509 -0.2329
  477TIP3    H1 1395   0.510   4.458   4.592 -0.7375  0.4527 -0.4025
  477TIP3    H2 1396   0.496   4.380   4.721  0.1245 -0.4765 -0.8560
  478TIP3   OH2 1397   5.117   5.453   2.633  0.3476  0.0612  0.0763
  478TIP3    H1 1398   5.137   5.480   2.722 -1.0304  1.8762 -0.0960
  478TIP3    H2 1399   5.053   5.517   2.602  1.1216 -0.2289 -2.3911
  479TIP3   OH2 1400   4.276   5.264   5.769  0.1811 -0.8288  0.2333
  479TIP3    H1 1401   4.267   5.176   5.734 -0.9656 -1.2487  1.4871
  479TIP3    H2 1402   4.287   5.320   5.692 -0.5089 -1.9074 -0.6732
  480TIP3   OH2 1403   6.688   3.723   2.705  0.4130  0.2611 -0.2519
  480TIP3    H1 1404   6.634   3.794   2.671 -1.0315 -0.5060  0.3025
  480TIP3    H2 1405   6.734   3.760   2.779  1.4655  1.2078 -1.3483
  481TIP3   OH2 1406   4.200   5.546   1.518  0.3897  0.0597 -0.3445
  481TIP3    H1 1407   4.176   5.559   1.426  1.3540 -2.4606 -1.0366
  481TIP3    H2 1408   4.295   5.551   1.519  0.5516 -2.1098  0.0485
  482TIP3   OH2 1409   6.600   0.549   1.390 -0.0285  0.2640 -0.4608
  482TIP3    H1 1410   6.587   0.560   1.484  0.4547  1.4860 -0.5106
  482TIP3    H2 1411   6.586   0.637   1.354  0.3454 -0.0730 -1.4494
  483TIP3   OH2 1412   3.486   5.762   0.392  0.9497  0.0421 -0.4676
  483TIP3    H1 1413   3.479   5.669   0.414 -1.0280 -0.3980 -2.6000
  483TIP3    H2 1414   3.552   5.765   0.323 -0.7280 -0.2070 -2.1602
  484TIP3   OH2 1415   5.484   3.111   4.710  0.3326 -0.1694  0.4439
  484TIP3    H1 1416   5.536   3.177   4.663 -0.0575  1.2584  1.9568
  484TIP3    H2 1417   5.409   3.096   4.653  0.3274  0.8503  0.1583
  485TIP3   OH2 1418   5.424   3.072   4.962  0.2320 -0.0609  0.5873
  485TIP3    H1 1419   5.468   3.092   4.880  0.6325  0.4447  0.9208
  485TIP3    H2 1420   5.453   3.141   5.022 -2.5815  1.5416  0.2814
  486TIP3   OH2 1421   6.055   6.681   2.900 -0.1558 -0.4090  0.4294
  486TIP3    H1 1422   6.017   6.760   2.863  0.1788 -0.6441 -0.4426
  486TIP3    H2 1423   5.995   6.611   2.875 -0.7943 -0.3511  1.7560
  487TIP3   OH2 1424   2.043   6.544   1.684  0.3720  0.2245  0.4747
  487TIP3    H1 1425   2.111   6.488   1.649 -1.9275 -2.0658 -0.6978
  487TIP3    H2 1426   1.988   6.564   1.608 -1.9143 -0.6116  1.8074
  488TIP3   OH2 1427   3.205   2.211   3.428 -0.2623 -0.0073 -0.9988
  488TIP3    H1 1428   3.228   2.280   3.491  0.9723 -1.2830 -0.0001
  488TIP3    H2 1429   3.208   2.255   3.343 -2.5042  1.8912 -0.2034
  489TIP3   OH2 1430   1.322   6.628   4.446  0.0812 -0.0270  0.3124
  489TIP3    H1 1431   1.376   6.703   4.470  1.2969 -1.0512  0.9322
  489TIP3    H2 1432   1.358   6.555   4.497 -0.3915 -1.2537 -1.0129
  490TIP3   OH2 1433   1.597   2.145   2.968 -0.3029  0.0965 -0.1535
  490TIP3    H1 1434   1.505   2.135   2.991 -0.4136  2.7356  0.9161
  490TIP3    H2 1435   1.597   2.165   2.874 -0.6415 -1.5585 -0.5302
  491TIP3   OH2 1436   1.942   1.955   5.268  0.5288 -0.4083  0.4284
  491TIP3    H1 1437   1.862   2.005   5.286  1.4383  1.5891 -0.8020
  491TIP3    H2 1438   2.007   1.990   5.329  1.3331  0.3328 -0.8368
  492TIP3   OH2 1439   5.767   0.766   3.453  0.1802  0.4178 -0.6503
  492TIP3    H1 1440   5.685   0.795   3.491 -1.1113 -4.6950  1.3099
  492TIP3    H2 1441   5.830   0.836   3.472 -2.8612  2.9122  1.0126
  493TIP3   OH2 1442   3.553   0.675   0.376  0.0493  0.3444 -0.3592
  493TIP3    H1 1443   3.640   0.647   0.346  0.9095  2.0371  0.3877
  493TIP3    H2 1444   3.531   0.748   0.319 -0.5090  0.4439 -0.0202
  494TIP3   OH2 1445   6.743   3.713   5.064  0.1334 -0.0829 -0.0844
  494TIP3    H1 1446   6.708   3.799   5.090 -0.0285 -0.3428  0.5840
  494TIP3    H2 1447   6.834   3.732   5.038  0.0517  0.3171 -0.0943
  495TIP3   OH2 1448   1.121   6.286   5.139 -0.7805  0.5678 -0.2223
  495TIP3    H1 1449   1.135   6.378   5.117  0.1209  0.3616 -0.5623
  495TIP3    H2 1450   1.144   6.280   5.232 -0.9501  0.7147 -0.1724
  496TIP3   OH2 1451   4.553   5.907   1.372  0.1855 -0.5140 -0.0077
  496TIP3    H1 1452   4.476   5.963   1.364 -0.4043 -1.2141  0.5833
  496TIP3    H2 1453   4.542   5.841   1.304 -0.3508 -1.2952  0.8062
  497TIP3   OH2 1454   0.756   5.578   2.883 -0.5464  0.0849 -0.4687
  497TIP3    H1 1455   0.700   5.645   2.921  0.0713  0.1203  0.4200
  497TIP3    H2 1456   0.731   5.497   2.928  0.2082  0.1302  0.0483
  498TIP3   OH2 1457   2.750   1.467   1.509  0.3584 -0.5023 -0.4093
  498TIP3    H1 1458   2.830   1.516   1.488  1.1146 -0.8715  1.3826
  498TIP3    H2 1459   2.764   1.381   1.470  0.8014 -0.5298 -0.2000
  499TIP3   OH2 1460   4.435   3.771   1.408  0.6636  0.5872  0.3071
  499TIP3    H1 1461   4.406   3.748   1.497  0.8400 -0.8993  0.0153
  499TIP3    H2 1462   4.528   3.790   1.418  0.7448  0.1615  0.4175
  500TIP3   OH2 1463   3.982   5.677   2.456  0.5969 -0.4381  0.0512
  500TIP3    H1 1464   3.923   5.696   2.384 -0.6975 -0.6001  1.0205
  500TIP3    H2 1465   3.935   5.612   2.509  0.8290  0.7596  1.8153
  501TIP3   OH2 1466   1.875   6.414   1.125  0.0596  0.0783 -0.1617
  501TIP3    H1 1467   1.863   6.364   1.045  0.8566 -0.5787  0.1251
  501TIP3    H2 1468   1.954   6.465   1.111 -0.1969  0.5112 -0.0654
  502TIP3   OH2 1469   2.591   3.829   1.705  0.1573  0.1755  0.1276
  502TIP3    H1 1470   2.571   3.886   1.631 -0.9003  1.7103  1.5131
  502TIP3    H2 1471   2.677   3.858   1.735 -0.4150  1.1771  0.8822
  503TIP3   OH2 1472   6.794   2.563   5.720 -0.2656 -0.1487  0.3761
  503TIP3    H1 1473   6.768   2.599   5.635 -1.8442  1.2421  1.3727
  503TIP3    H2 1474   6.888   2.546   5.712 -0.4476 -0.4616 -1.7548
  504TIP3   OH2 1475   5.946   6.616   3.582  0.1091 -0.3316  0.2310
  504TIP3    H1 1476   5.954   6.711   3.582 -0.2062 -0.2630  2.4006
  504TIP3    H2 1477   5.874   6.597   3.642  0.2075 -1.9456 -0.1102
  505TIP3   OH2 1478   5.751   5.806   2.133 -0.0712 -0.3462  0.1942
  505TIP3    H1 1479   5.822   5.851   2.179 -1.6606  1.3901  1.0940
  505TIP3    H2 1480   5.671   5.843   2.171 -1.5051 -3.2372  0.2177
  506TIP3   OH2 1481   3.289   1.463   1.576 -0.6843  0.0631  0.1854
  506TIP3    H1 1482   3.236   1.413   1.638 -1.0127  1.4733  1.0864
  506TIP3    H2 1483   3.379   1.447   1.603 -0.8715  2.2515  2.3816
  507TIP3   OH2 1484   2.451   1.322   3.833  0.2186 -0.4786 -0.2498
  507TIP3    H1 1485   2.470   1.255   3.899  1.2411 -1.7597 -1.7578
  507TIP3    H2 1486   2.536   1.362   3.816  0.3439 -1.3872 -2.0025
  508TIP3   OH2 1487   1.392   3.974   4.015  0.9017  0.4701  0.6200
  508TIP3    H1 1488   1.388   4.000   3.922 -2.2622  1.9415  1.0246
  508TIP3    H2 1489   1.353   3.887   4.017  0.7399  0.5416  0.5935
  509TIP3   OH2 1490   5.788   4.188   5.315 -0.1878 -0.1922 -0.3418
  509TIP3    H1 1491   5.761   4.279   5.304 -1.5045 -0.2573  1.7551
  509TIP3    H2 1492   5.801   4.156   5.226  0.6446  2.1123 -1.1201
  510TIP3   OH2 1493   6.715   2.396   0.246 -0.1092 -0.5099  0.2331
  510TIP3    H1 1494   6.700   2.485   0.215  1.1260 -0.5739 -0.6470
  510TIP3    H2 1495   6.729   2.345   0.166 -0.7055 -1.4837  0.7270
  511TIP3   OH2 1496   2.050  -0.002   5.183  0.1746 -0.5111 -0.2135
  511TIP3    H1 1497   2.112   0.007   5.255  0.9986  0.7011 -1.0459
  511TIP3    H2 1498   2.037   0.087   5.150  1.3878 -1.2002 -2.8417
  512TIP3   OH2 1499   6.679   1.415   3.354 -1.1585  1.1325  0.0654
  512TIP3    H1 1500   6.759   1.427   3.304 -1.0108  0.7210  0.1966
  512TIP3    H2 1501   6.620   1.484   3.323 -0.5379  1.8273  0.4204
  513TIP3   OH2 1502   4.452   1.968   3.581  0.1544 -0.1952  0.1451
  513TIP3    H1 1503   4.505   2.023   3.523  1.1955 -1.4345 -0.1366
  513TIP3    H2 1504   4.514   1.940   3.649 -0.9946  1.0863  1.8026
  514TIP3   OH2 1505   5.471   4.154   3.275 -0.4699 -0.7015  0.4327
  514TIP3    H1 1506   5.467   4.169   3.180  1.2572 -2.3573  0.0279
  514TIP3    H2 1507   5.390   4.106   3.295  0.4023 -2.8269 -0.7883
  515TIP3   OH2 1508   2.806   2.745   4.603 -0.0856 -1.1164  0.1974
  515TIP3    H1 1509   2.900   2.736   4.585 -0.5317 -1.1882 -2.5537
  515TIP3    H2 1510   2.793   2.839   4.614  0.0670 -0.8985 -1.2853
  516TIP3   OH2 1511   6.938   5.505   2.908 -0.9627  0.2076  0.1110
  516TIP3    H1 1512   6.987   5.429   2.877 -1.1780 -0.4902  1.3992
  516TIP3    H2 1513   6.851   5.497   2.868 -1.0656 -0.3827  0.4469
  517TIP3   OH2 1514   2.328   1.840   2.678  0.3365  0.1097 -0.0523
  517TIP3    H1 1515   2.375   1.767   2.640 -0.7549 -0.1921 -0.8921
  517TIP3    H2 1516   2.241   1.836   2.638 -1.0738 -0.4928  2.7715
  518TIP3   OH2 1517   4.306   2.261   4.642 -0.3552  0.1384 -0.0942
  518TIP3    H1 1518   4.325   2.355   4.652  0.6603 -0.0520 -0.0960
  518TIP3    H2 1519   4.280   2.233   4.729 -0.9167  0.4755 -0.1496
  519TIP3   OH2 1520   0.200   6.563   1.460 -0.2726  0.0989 -0.1429
  519TIP3    H1 1521   0.242   6.616   1.528 -2.4516  0.3685  1.0697
  519TIP3    H2 1522   0.209   6.615   1.380  2.6239 -0.3752 -0.2351
  520TIP3   OH2 1523   4.534   5.032   1.254  0.3860  0.3747  0.1876
  520TIP3    H1 1524   4.621   5.025   1.213  0.5505 -0.5302  0.6665
  520TIP3    H2 1525   4.542   5.108   1.312  0.6028  0.7806 -0.3550
  521TIP3   OH2 1526   2.793   4.036   4.354 -0.4489  0.6729  0.1527
  521TIP3    H1 1527   2.844   4.118   4.352  0.4615  0.1612  1.0334
  521TIP3    H2 1528   2.823   3.988   4.277  1.0718  0.0292  1.0876
  522TIP3   OH2 1529   2.239   5.771   5.541 -0.3590  0.4482  0.0394
  522TIP3    H1 1530   2.228   5.865   5.523 -1.0994  0.2866 -0.4160
  522TIP3    H2 1531   2.248   5.766   5.636  1.5054  1.1302 -0.0564
  523TIP3   OH2 1532   2.161   3.339   5.789  0.0357  0.3683 -0.5237
  523TIP3    H1 1533   2.188   3.307   5.704 -0.1007 -0.5709 -0.2248
  523TIP3    H2 1534   2.204   3.281   5.852 -2.2527 -0.9291 -0.0274
  524TIP3   OH2 1535   0.969   6.266   4.620 -0.0434  0.1777  0.2396
  524TIP3    H1 1536   1.031   6.338   4.617 -0.2771  0.3550 -0.3628
  524TIP3    H2 1537   0.883   6.306   4.607 -0.3821  0.0222  1.7086
  525TIP3   OH2 1538   6.339   3.784   5.339 -0.1703  0.1572 -0.2802
  525TIP3    H1 1539   6.332   3.713   5.275 -0.2942  0.0525 -0.1509
  525TIP3    H2 1540   6.299   3.860   5.297  1.4262  0.5977 -1.0776
  526TIP3   OH2 1541   3.302   4.109   1.593 -0.1920  0.1128 -0.1808
  526TIP3    H1 1542   3.393   4.136   1.609 -0.1135 -0.1009 -0.2650
  526TIP3    H2 1543   3.306   4.013   1.591 -0.6154  0.0484  1.0531
  527TIP3   OH2 1544   6.232   0.303   2.186 -0.3086 -0.3119 -0.2825
  527TIP3    H1 1545   6.242   0.360   2.263 -2.3194  0.9031 -0.8566
  527TIP3    H2 1546   6.156   0.249   2.206 -0.0047 -0.9737 -0.8676
  528TIP3   OH2 1547   6.931   5.638   5.354 -0.0838 -0.0361  0.4114
  528TIP3    H1 1548   6.846   5.606   5.325  0.7936 -0.8056 -1.4309
  528TIP3    H2 1549   6.951   5.711   5.296  0.3243  0.4371  1.1279
  529TIP3   OH2 1550   3.218   4.782   2.539  0.1370  0.0184 -0.1128
  529TIP3    H1 1551   3.295   4.836   2.522 -0.1264  0.6225  0.5799
  529TIP3    H2 1552   3.159   4.838   2.588 -0.2536 -0.8088  0.3934
  530TIP3   OH2 1553   2.445   2.879   3.034 -0.2137  0.3824 -0.2106
  530TIP3    H1 1554   2.368   2.880   2.977 -1.6665  1.4163  1.6943
  530TIP3    H2 1555   2.411   2.863   3.121  1.7250  0.9720  0.7128
  531TIP3   OH2 1556   3.700   2.645   1.066 -0.4139  0.2126 -0.3778
  531TIP3    H1 1557   3.638   2.645   0.993  0.6773 -0.2807 -1.3286
  531TIP3    H2 1558   3.685   2.560   1.109 -0.5505  0.1878 -0.4713
  532TIP3   OH2 1559   4.331   2.595   0.356  0.1677  0.2977  0.0290
  532TIP3    H1 1560   4.398   2.567   0.418  0.6138  1.8731  0.2953
  532TIP3    H2 1561   4.316   2.687   0.377  0.6293  1.0024 -2.4654
  533TIP3   OH2 1562   3.483   5.764   5.578  0.4478  0.3748  0.1979
  533TIP3    H1 1563   3.569   5.746   5.541  0.3331  0.1224  0.0525
  533TIP3    H2 1564   3.424   5.764   5.503  0.4311  1.2968  0.1993
  534TIP3   OH2 1565   3.646   6.586   2.118  0.3379 -0.2559  0.0029
  534TIP3    H1 1566   3.551   6.578   2.111  0.3432  0.2259 -0.9151
  534TIP3    H2 1567   3.660   6.646   2.191 -0.1943  1.7112 -1.4114
  535TIP3   OH2 1568   6.744   4.325   3.069  0.1371 -0.3406  0.2947
  535TIP3    H1 1569   6.699   4.297   3.148 -0.4718 -1.3426 -0.3773
  535TIP3    H2 1570   6.830   4.356   3.099 -0.3229 -0.1065  1.3983
  536TIP3   OH2 1571   6.390  -0.022   4.001  0.4883 -0.5072  0.1804
  536TIP3    H1 1572   6.462  -0.026   3.938  0.4550  0.6789  0.0458
  536TIP3    H2 1573   6.383   0.070   4.025 -1.6298 -0.4053 -0.5586
  537TIP3   OH2 1574   1.554   0.026   0.895  0.2439  0.4172  0.2483
  537TIP3    H1 1575   1.648   0.034   0.907  0.2491  1.7989 -0.5464
  537TIP3    H2 1576   1.520   0.006   0.982  1.4549 -2.4034  0.1772
  538TIP3   OH2 1577   7.157   5.003   1.775 -0.1922  0.2609 -0.4802
  538TIP3    H1 1578   7.211   5.066   1.728  1.1691  0.9392  1.8390
  538TIP3    H2 1579   7.176   5.019   1.868 -3.7957 -0.0254  0.4528
  539TIP3   OH2 1580   0.004   3.564   4.135  0.1866 -0.1549  0.3098
  539TIP3    H1 1581   0.007   3.659   4.148 -0.9400 -0.1671  0.7424
  539TIP3    H2 1582  -0.003   3.527   4.223 -0.2326 -0.5937  0.1005
  540TIP3   OH2 1583   2.013   6.605   0.817 -0.2152  0.0561  0.2550
  540TIP3    H1 1584   1.939   6.544   0.820  0.5413 -1.0774 -1.7564
  540TIP3    H2 1585   2.042   6.612   0.908 -1.2684 -1.4117  0.7519
  541TIP3   OH2 1586   3.875   0.664   0.427 -0.7404  0.1523 -0.1813
  541TIP3    H1 1587   3.852   0.707   0.344 -1.9724 -0.2353 -0.0612
  541TIP3    H2 1588   3.951   0.610   0.405  0.0648  1.4115 -0.6229
  542TIP3   OH2 1589   1.509   1.473   1.448  0.0193 -0.2321 -0.0013
  542TIP3    H1 1590   1.467   1.389   1.432  1.8896 -1.5901  1.6507
  542TIP3    H2 1591   1.596   1.450   1.482  0.5899  2.3674  0.5254
  543TIP3   OH2 1592   3.816   5.242   4.242  0.4020 -0.0255 -0.0126
  543TIP3    H1 1593   3.785   5.178   4.178  1.1828  0.2720 -0.7121
  543TIP3    H2 1594   3.911   5.241   4.233  0.4122  3.1547 -2.0484
  544TIP3   OH2 1595   0.365   1.404   4.421 -0.1134  0.2812  0.0287
  544TIP3    H1 1596   0.427   1.411   4.493  1.0853  3.0578 -1.1308
  544TIP3    H2 1597   0.363   1.491   4.383 -1.7564 -0.7376 -2.4620
  545TIP3   OH2 1598   3.416   3.655   4.663  0.0972 -0.0988  0.1552
  545TIP3    H1 1599   3.401   3.746   4.639  0.6779 -0.4493 -1.7265
  545TIP3    H2 1600   3.455   3.616   4.585  2.8677 -1.2312  1.9645
  546TIP3   OH2 1601   0.972   6.104   5.493 -0.0555 -0.6429  0.4344
  546TIP3    H1 1602   1.034   6.166   5.533  0.9464 -0.9442 -0.5939
  546TIP3    H2 1603   0.895   6.158   5.471  0.7230  0.2240 -0.2746
  547TIP3   OH2 1604   1.179   6.338   5.395 -0.1838  0.1306 -0.1385
  547TIP3    H1 1605   1.172   6.432   5.381 -1.8606  0.2931  1.4377
  547TIP3    H2 1606   1.184   6.328   5.490  3.3310 -1.2378 -0.2912
  548TIP3   OH2 1607   0.560   5.329   2.118  0.1549  0.6053  0.1586
  548TIP3    H1 1608   0.516   5.411   2.093 -1.7890  0.0659  1.6168
  548TIP3    H2 1609   0.569   5.334   2.213 -1.4479 -1.5101  0.4915
  549TIP3   OH2 1610   3.925   3.274   0.696  0.5879  0.1430  0.1652
  549TIP3    H1 1611   3.927   3.321   0.779 -1.4641 -0.6408  0.7305
  549TIP3    H2 1612   3.833   3.250   0.684  1.1335 -1.4238 -1.3851
  550TIP3   OH2 1613   2.300   1.218   3.395 -0.4260  0.0580 -0.0346
  550TIP3    H1 1614   2.337   1.258   3.316 -0.3289  0.8079  0.3780
  550TIP3    H2 1615   2.223   1.271   3.415 -0.9915 -0.7062 -0.1487
  551TIP3   OH2 1616   0.334   5.558   0.215 -0.3904 -0.4311 -0.5661
  551TIP3    H1 1617   0.332   5.526   0.305  3.7112  0.0908 -0.0966
  551TIP3    H2 1618   0.312   5.651   0.222  1.4283 -0.0074  0.2552
  552TIP3   OH2 1619   5.869   3.522   2.715 -0.0898  0.5373 -0.3388
  552TIP3    H1 1620   5.844   3.608   2.749  0.1997  0.3374  0.3787
  552TIP3    H2 1621   5.846   3.527   2.622  1.5090  1.9939 -0.7068
  553TIP3   OH2 1622   3.356   1.690   4.445  0.4558 -0.5678 -0.1888
  553TIP3    H1 1623   3.279   1.643   4.413 -0.9880 -0.5418  2.9053
  553TIP3    H2 1624   3.382   1.746   4.371 -0.3744 -2.9820 -2.4906
  554TIP3   OH2 1625   6.324   4.806   2.642  0.5899 -0.3165 -0.5670
  554TIP3    H1 1626   6.406   4.839   2.679 -0.5916  1.5298  0.5890
  554TIP3    H2 1627   6.297   4.874   2.581 -0.4601 -0.5064 -0.3292
  555TIP3   OH2 1628   4.165   4.715   0.477  0.1036  0.3503  0.5702
  555TIP3    H1 1629   4.255   4.688   0.459 -0.4358 -0.4459 -1.1716
  555TIP3    H2 1630   4.144   4.777   0.408 -0.6259  0.6895  1.0842
  556TIP3   OH2 1631   1.952   5.110   5.623 -0.3458 -0.3301  0.5355
  556TIP3    H1 1632   1.906   5.109   5.707 -0.4937  0.8929  0.4862
  556TIP3    H2 1633   1.891   5.069   5.562  0.3416 -2.6282  1.2666
  557TIP3   OH2 1634   1.125   5.350   0.506  0.2220  0.2507  0.1219
  557TIP3    H1 1635   1.138   5.257   0.526 -1.7033  0.3537  2.4357
  557TIP3    H2 1636   1.032   5.365   0.523  0.6247  2.7443  0.5821
  558TIP3   OH2 1637   1.719   0.571   4.154  0.0816 -0.0222 -0.4458
  558TIP3    H1 1638   1.803   0.545   4.194  0.7646 -0.4865 -2.1018
  558TIP3    H2 1639   1.657   0.505   4.183  0.1420  0.5980  1.2089
  559TIP3   OH2 1640   4.994   5.939   5.206  0.0828 -0.5544  0.0591
  559TIP3    H1 1641   5.042   6.022   5.204  0.6935 -0.9090 -0.1464
  559TIP3    H2 1642   4.965   5.930   5.297  4.6054 -2.6960  1.5435
  560TIP3   OH2 1643   1.327   0.948   2.202  0.5940  0.2631  0.0563
  560TIP3    H1 1644   1.232   0.959   2.189  0.5596 -1.0473 -1.0153
  560TIP3    H2 1645   1.354   1.029   2.245 -0.9690  0.7775  0.1609
  561TIP3   OH2 1646   5.730   3.036   5.612 -0.1586  0.0546  0.4089
  561TIP3    H1 1647   5.792   3.108   5.604 -0.4271  0.2827  0.3789
  561TIP3    H2 1648   5.778   2.969   5.661  0.1424  0.1925  0.3050
  562TIP3   OH2 1649   6.949   5.252   4.154  0.1072 -0.1192  0.5075
  562TIP3    H1 1650   7.043   5.256   4.170  0.5288 -0.3340 -1.5716
  562TIP3    H2 1651   6.941   5.193   4.079 -1.7739 -0.7407  1.1457
  563TIP3   OH2 1652   4.792   5.468   0.630 -0.0382  0.2886 -0.4097
  563TIP3    H1 1653   4.760   5.379   0.614  0.2994 -0.2103  1.4472
  563TIP3    H2 1654   4.887   5.462   0.622 -0.0039  0.4566 -0.1397
  564TIP3   OH2 1655   6.518   2.940   3.757  0.1691 -0.1287 -0.4219
  564TIP3    H1 1656   6.603   2.958   3.718 -1.0736  0.1570 -3.2385
  564TIP3    H2 1657   6.529   2.854   3.799  1.8564 -0.0663 -0.6558
  565TIP3   OH2 1658   4.206   0.053   1.982 -0.3681 -0.0826 -0.1877
  565TIP3    H1 1659   4.165   0.041   2.068  0.7485 -0.6379  0.2936
  565TIP3    H2 1660   4.230  -0.036   1.955 -1.2649  0.0122 -1.3806
  566TIP3   OH2 1661   3.519   1.419   2.395  0.1128  0.3749 -0.7561
  566TIP3    H1 1662   3.562   1.494   2.353 -1.6556  1.4105 -0.7863
  566TIP3    H2 1663   3.441   1.404   2.342 -1.9507  1.4255  1.7819
  567TIP3   OH2 1664   1.559   2.831   3.899 -1.0987  0.5094 -0.2061
  567TIP3    H1 1665   1.580   2.908   3.953  2.0636  0.8844 -1.7532
  567TIP3    H2 1666   1.606   2.759   3.942 -1.5110  0.0764 -0.4803
  568TIP3   OH2 1667   4.258   1.140   5.148  0.2367 -0.0571 -0.4295
  568TIP3    H1 1668   4.282   1.232   5.154 -0.3768  0.0111  1.8351
  568TIP3    H2 1669   4.163   1.139   5.163 -0.0684 -0.9285 -2.1897
  569TIP3   OH2 1670   6.329   4.753   1.505 -0.4977  0.0530  0.2228
  569TIP3    H1 1671   6.421   4.732   1.518 -0.4360 -2.5606 -3.0003
  569TIP3    H2 1672   6.285   4.721   1.583  1.2112  1.1832  1.7315
  570TIP3   OH2 1673   2.572   1.369   5.530 -0.4017  0.2523 -0.2557
  570TIP3    H1 1674   2.538   1.316   5.458 -0.0269  1.2897 -1.2362
  570TIP3    H2 1675   2.648   1.320   5.562 -0.5223 -0.1732 -0.6146
  571TIP3   OH2 1676   6.661   0.265   4.751 -0.0357  0.2291 -0.0383
  571TIP3    H1 1677   6.714   0.322   4.807 -0.7688  0.3665  0.5207
  571TIP3    H2 1678   6.689   0.288   4.662  0.9898  0.1468  0.2547
  572TIP3   OH2 1679   5.582   6.466   3.965  0.1638  0.5805  0.0676
  572TIP3    H1 1680   5.550   6.533   4.027  1.1704  2.4150 -1.3048
  572TIP3    H2 1681   5.579   6.509   3.880  0.1814 -1.4133 -0.9922
  573TIP3   OH2 1682   6.823   0.691   3.775 -0.1192  0.3640 -0.1260
  573TIP3    H1 1683   6.738   0.649   3.790  0.0252 -0.6091 -1.7715
  573TIP3    H2 1684   6.836   0.687   3.680  2.1683 -0.3729  0.1470
  574TIP3   OH2 1685   1.254   0.047   5.575 -0.0643 -0.2392  0.0891
  574TIP3    H1 1686   1.339   0.028   5.616 -0.0041  0.1499  0.1432
  574TIP3    H2 1687   1.189   0.020   5.640  0.0209 -0.2823  0.1568
  575TIP3   OH2 1688   1.612   4.718   1.708  0.1148 -0.3575  0.0277
  575TIP3    H1 1689   1.532   4.665   1.711 -1.2395  1.6248  0.3246
  575TIP3    H2 1690   1.662   4.681   1.634 -1.5862 -0.9183 -0.8928
  576TIP3   OH2 1691   0.220   4.780   4.867  0.4070 -0.1956 -0.2084
  576TIP3    H1 1692   0.229   4.723   4.790 -1.7474 -1.0185  0.0620
  576TIP3    H2 1693   0.309   4.787   4.902  0.9702 -2.3761 -0.9984
  577TIP3   OH2 1694   6.415   4.579   5.022  0.1874 -0.0132  0.1537
  577TIP3    H1 1695   6.438   4.594   5.114  1.0576 -1.1334  0.1353
  577TIP3    H2 1696   6.468   4.503   4.996  0.1879  0.4877 -1.3700
  578TIP3   OH2 1697   4.667   2.461   3.703  0.5261  0.0914  0.2716
  578TIP3    H1 1698   4.731   2.465   3.631 -0.5637 -2.3580 -0.9561
  578TIP3    H2 1699   4.643   2.552   3.719  1.6222  0.7949 -1.7340
  579TIP3   OH2 1700   5.205   4.777   0.734 -0.3289 -0.7498  0.0732
  579TIP3    H1 1701   5.283   4.725   0.719 -0.4001 -0.8373  0.0027
  579TIP3    H2 1702   5.236   4.868   0.735 -0.4706 -0.6452 -1.7008
  580TIP3   OH2 1703   5.301   3.577   0.072 -0.1925 -0.0042  0.0590
  580TIP3    H1 1704   5.354   3.499   0.089 -0.2576  0.3537  2.1661
  580TIP3    H2 1705   5.227   3.569   0.132  0.2438  2.0865  0.9484
  581TIP3   OH2 1706   4.798   5.705   0.820  0.5896 -0.4613  0.7087
  581TIP3    H1 1707   4.741   5.776   0.789  2.3898  0.4963 -0.5797
  581TIP3    H2 1708   4.805   5.646   0.745  0.6930 -0.9751  1.1196
  582TIP3   OH2 1709   4.947   1.003   4.657 -0.3114 -0.2563  0.2310
  582TIP3    H1 1710   4.863   1.046   4.641 -0.1904 -0.2262 -0.3752
  582TIP3    H2 1711   4.925   0.926   4.709 -0.3294  1.4444  2.9368
  583TIP3   OH2 1712   6.658   1.422   0.347  0.2700  0.3935 -0.4361
  583TIP3    H1 1713   6.753   1.437   0.343  0.5423 -0.6077  1.1821
  583TIP3    H2 1714   6.644   1.382   0.433 -1.6027  0.2932 -0.7469
  584TIP3   OH2 1715   6.233   3.305   5.037 -0.2434 -0.2799 -0.1817
  584TIP3    H1 1716   6.148   3.349   5.030 -0.9661 -1.7299 -0.9427
  584TIP3    H2 1717   6.211   3.214   5.059  1.1475 -0.5454  0.2032
  585TIP3   OH2 1718   6.550   0.616   4.784 -0.1548 -0.3055  0.6303
  585TIP3    H1 1719   6.498   0.692   4.807 -0.8423 -0.6729  0.3086
  585TIP3    H2 1720   6.517   0.546   4.840 -0.5980 -0.7501 -0.1726
  586TIP3   OH2 1721   2.279   0.065   0.822  0.1717 -0.2347  0.4325
  586TIP3    H1 1722   2.262   0.072   0.916  0.5202  1.4426  0.3984
  586TIP3    H2 1723   2.375   0.067   0.815  0.2051 -1.7461  0.1076
  587TIP3   OH2 1724   1.461   3.391   3.634 -0.3092  0.2107 -0.5948
  587TIP3    H1 1725   1.493   3.343   3.557  2.0021 -1.1706  1.0815
  587TIP3    H2 1726   1.457   3.482   3.606  1.9737 -0.0415 -1.9554
  588TIP3   OH2 1727   5.474   0.848   0.824  0.3417  0.5406  0.3083
  588TIP3    H1 1728   5.551   0.892   0.861  1.0560 -0.3737 -0.0731
  588TIP3    H2 1729   5.404   0.866   0.887  1.4584 -0.7214  1.9955
  589TIP3   OH2 1730   1.194   4.119   4.156  0.7128 -0.2099 -0.4437
  589TIP3    H1 1731   1.281   4.094   4.126  1.5003 -0.9650  2.2152
  589TIP3    H2 1732   1.143   4.038   4.152  0.4031  0.0071 -1.0397
  590TIP3   OH2 1733   0.951   4.231   5.534  0.2986  0.6066  0.1694
  590TIP3    H1 1734   0.966   4.150   5.485  0.0478  1.0819 -0.7321
  590TIP3    H2 1735   0.871   4.268   5.495  1.2501  2.0497 -0.5070
  591TIP3   OH2 1736   4.777   4.350   4.027 -0.3658 -0.5713 -0.0035
  591TIP3    H1 1737   4.850   4.288   4.036  0.1246 -0.0100 -0.0099
  591TIP3    H2 1738   4.705   4.310   4.075 -0.5333 -1.8631 -1.2751
  592TIP3   OH2 1739   6.885   4.295   4.931  0.0307  0.3223  0.0853
  592TIP3    H1 1740   6.819   4.260   4.871 -0.3787  0.4268  0.4684
  592TIP3    H2 1741   6.921   4.370   4.885  0.0165  0.1517 -0.2088
  593TIP3   OH2 1742   6.679   2.538   3.208 -0.1725 -0.6184  0.0030
  593TIP3    H1 1743   6.773   2.527   3.194 -0.1253 -2.3760  1.4709
  593TIP3    H2 1744   6.664   2.631   3.191  2.1008  0.0514  1.2297
  594TIP3   OH2 1745   4.419   6.071   2.006 -0.5435 -0.5115 -0.6238
  594TIP3    H1 1746   4.327   6.058   2.030 -0.5918 -1.8183 -1.4047
  594TIP3    H2 1747   4.453   5.983   1.992  0.9070 -0.0585 -0.1226
  595TIP3   OH2 1748   1.831   5.820   5.370 -0.5118 -0.2534 -0.1958
  595TIP3    H1 1749   1.819   5.892   5.432  1.8131  0.3575 -0.3708
  595TIP3    H2 1750   1.744   5.805   5.334 -1.3889  1.2609  1.1628
  596TIP3   OH2 1751   3.223   1.406   1.315  0.2491  0.6574 -0.3257
  596TIP3    H1 1752   3.268   1.423   1.397  2.3686  1.7263 -1.6280
  596TIP3    H2 1753   3.265   1.326   1.281 -0.6938  0.1521 -0.3461
  597TIP3   OH2 1754   4.118   2.577   3.983  0.0278 -0.0979 -0.4045
  597TIP3    H1 1755   4.209   2.607   3.976 -0.1933  0.3279 -1.8199
  597TIP3    H2 1756   4.113   2.504   3.921 -0.4680 -0.4420  0.0399
  598TIP3   OH2 1757   4.859   1.817   4.499  0.6200 -0.2553 -0.2328
  598TIP3    H1 1758   4.915   1.774   4.564  1.2032  0.6965 -0.0957
  598TIP3    H2 1759   4.888   1.908   4.498  0.8849 -0.3248 -2.1176
  599TIP3   OH2 1760   4.927   6.638   3.604 -0.2653 -0.2150 -0.2058
  599TIP3    H1 1761   4.950   6.548   3.630  0.5020 -0.5571 -1.9533
  599TIP3    H2 1762   4.971   6.651   3.521  1.2148  2.4991  0.8870
  600TIP3   OH2 1763   2.339   6.261   3.349  0.5857  0.0358  0.0609
  600TIP3    H1 1764   2.307   6.277   3.437 -1.4667 -1.5715 -0.3105
  600TIP3    H2 1765   2.311   6.337   3.299 -0.3103 -0.1028  0.3358
  601TIP3   OH2 1766   3.674   0.820   1.228 -0.0676  0.3800  0.0545
  601TIP3    H1 1767   3.764   0.806   1.198  0.1531 -0.3575  1.0029
  601TIP3    H2 1768   3.679   0.899   1.283 -0.5377  1.9396 -2.0322
  602TIP3   OH2 1769   2.194   5.058   0.453 -0.1152 -0.4699 -0.4158
  602TIP3    H1 1770   2.127   5.020   0.397  0.1984 -2.0632  0.2477
  602TIP3    H2 1771   2.178   5.020   0.539 -0.2903  1.5614  0.4977
  603TIP3   OH2 1772   0.120   5.549   0.017  0.4090 -0.1923 -0.1475
  603TIP3    H1 1773   0.150   5.631  -0.021  0.7663  0.3855  1.3010
  603TIP3    H2 1774   0.192   5.520   0.073 -1.2880  0.8240  2.7963
  604TIP3   OH2 1775   5.728   1.474   4.635 -0.2209  0.4633 -0.0019
  604TIP3    H1 1776   5.666   1.455   4.706 -2.3469 -0.1547 -1.9163
  604TIP3    H2 1777   5.779   1.393   4.626  2.0017  1.4438  2.5217
  605TIP3   OH2 1778   6.433   0.219   5.805 -0.1375 -0.2117 -0.1009
  605TIP3    H1 1779   6.422   0.203   5.898  0.6110 -2.5666 -0.3566
  605TIP3    H2 1780   6.526   0.203   5.788 -0.7078 -2.4954 -1.6425
  606TIP3   OH2 1781   1.970   5.846   5.115 -0.1807  0.1164  0.8861
  606TIP3    H1 1782   1.926   5.821   5.196 -0.7171  1.0160  0.8872
  606TIP3    H2 1783   1.937   5.934   5.096  0.1228  0.0146 -0.1791
  607TIP3   OH2 1784   1.085   6.356   3.071  0.2180 -0.0978 -0.7178
  607TIP3    H1 1785   1.053   6.266   3.070  0.2674 -0.1252  0.0866
  607TIP3    H2 1786   1.169   6.353   3.026 -1.0833  0.0610 -3.3581
  608TIP3   OH2 1787   7.027   1.246   0.511 -0.0904 -0.4752 -0.0351
  608TIP3    H1 1788   7.062   1.274   0.426 -2.3442  1.3249 -0.4582
  608TIP3    H2 1789   6.981   1.164   0.492  1.0010 -1.0781 -0.1399
  609TIP3   OH2 1790   1.150   0.219   1.500  0.3542 -0.0506 -0.2003
  609TIP3    H1 1791   1.127   0.135   1.541  0.1708 -0.2767 -0.7512
  609TIP3    H2 1792   1.235   0.241   1.537 -0.0047 -0.0330  0.6218
  610TIP3   OH2 1793   4.789   2.432   0.045  0.1635  0.4044 -0.0995
  610TIP3    H1 1794   4.874   2.389   0.050 -0.5472 -1.2412 -1.2155
  610TIP3    H2 1795   4.748   2.415   0.130  0.1030 -0.7215 -0.3410
  611TIP3   OH2 1796   1.938   2.328   4.839  0.1809  0.0168 -0.4507
  611TIP3    H1 1797   2.007   2.276   4.881 -0.5393 -0.8006 -0.2491
  611TIP3    H2 1798   1.961   2.419   4.859  1.8875 -0.1529 -1.4599
  612TIP3   OH2 1799   6.240   3.808   5.816 -0.2261  0.2089 -0.2242
  612TIP3    H1 1800   6.147   3.833   5.811 -0.2985  0.2594  1.1358
  612TIP3    H2 1801   6.247   3.732   5.759 -1.5010 -0.8924  1.0228
  613TIP3   OH2 1802   6.566   5.156   3.346 -0.3772  0.0664  0.1654
  613TIP3    H1 1803   6.485   5.129   3.303  0.3237  0.7479 -1.6875
  613TIP3    H2 1804   6.538   5.214   3.417 -1.5263 -0.3951  0.1092
  614TIP3   OH2 1805   0.949   5.465   0.872 -0.6558  0.4549 -0.1318
  614TIP3    H1 1806   0.877   5.508   0.826 -0.4503  1.2017  0.2227
  614TIP3    H2 1807   0.930   5.480   0.965 -0.2566  0.2976 -0.0241
  615TIP3   OH2 1808   2.573   5.257   4.195  0.0003 -0.3664 -0.1787
  615TIP3    H1 1809   2.518   5.259   4.117  0.5893 -2.2355 -0.7039
  615TIP3    H2 1810   2.513   5.238   4.267 -0.3592  0.0002 -0.3778
  616TIP3   OH2 1811   5.760   2.288   2.834  0.3920  0.1124 -0.2373
  616TIP3    H1 1812   5.808   2.289   2.917 -0.3025 -1.6566  0.2297
  616TIP3    H2 1813   5.795   2.212   2.787  0.7500  1.0659 -1.5747
  617TIP3   OH2 1814   4.241   2.663   1.743 -0.1851  0.1692  0.2752
  617TIP3    H1 1815   4.155   2.627   1.765 -1.3688  3.4393  1.5924
  617TIP3    H2 1816   4.240   2.668   1.647 -0.5663 -1.7403  0.1433
  618TIP3   OH2 1817   5.743   0.301   0.584 -0.1356 -0.4819 -0.3410
  618TIP3    H1 1818   5.738   0.316   0.489 -0.5788  0.1605 -0.2209
  618TIP3    H2 1819   5.736   0.388   0.622 -1.6359 -0.8598  0.3449
  619TIP3   OH2 1820   5.695   0.993   0.484  0.9939  0.2220 -0.1481
  619TIP3    H1 1821   5.684   0.903   0.515  0.2235  0.6602  0.9600
  619TIP3    H2 1822   5.708   1.044   0.565 -0.8943  1.3999 -0.5051
  620TIP3   OH2 1823   5.790   1.195   1.596 -0.1933  0.2027  0.0348
  620TIP3    H1 1824   5.779   1.253   1.671 -1.3722 -0.5260  0.4464
  620TIP3    H2 1825   5.832   1.117   1.631 -0.2036  0.0970 -0.1856
  621TIP3   OH2 1826   5.040   6.269   2.339  0.4108  0.1173  0.6573
  621TIP3    H1 1827   4.964   6.307   2.294 -0.5551 -0.9422  1.3568
  621TIP3    H2 1828   5.086   6.221   2.270 -0.0796 -0.0144  0.4079
  622TIP3   OH2 1829   2.025   6.617   3.758  0.6664  0.4848 -0.2437
  622TIP3    H1 1830   1.965   6.545   3.778  0.8344  0.5621  0.5583
  622TIP3    H2 1831   2.002   6.643   3.669  1.1695 -1.1169 -0.8724
  623TIP3   OH2 1832   4.774   1.806   2.885 -0.0196 -0.0454  0.4402
  623TIP3    H1 1833   4.843   1.746   2.914  1.3979  0.6094 -1.4257
  623TIP3    H2 1834   4.758   1.862   2.961  2.0812  0.2830  0.7016
  624TIP3   OH2 1835   3.971   0.659   0.903  0.1083 -0.1176 -0.0033
  624TIP3    H1 1836   3.882   0.661   0.869 -0.3578  3.8608  0.9189
  624TIP3    H2 1837   4.027   0.656   0.826 -0.7142 -2.4182 -0.5954
  625TIP3   OH2 1838   5.798   4.456   0.532 -0.1734  0.3505 -0.1857
  625TIP3    H1 1839   5.768   4.392   0.468  0.5702 -0.3735  0.1738
  625TIP3    H2 1840   5.790   4.412   0.616  0.8305  0.5347  0.0203
  626TIP3   OH2 1841   4.082   0.768   2.926 -0.3055  0.0299  1.0654
  626TIP3    H1 1842   4.004   0.727   2.962 -0.7939  0.5679  0.6507
  626TIP3    H2 1843   4.083   0.856   2.964  0.4476 -0.1781  1.5509
  627TIP3   OH2 1844   0.139   1.486   3.315 -0.4011  0.4636 -0.0614
  627TIP3    H1 1845   0.153   1.487   3.409 -1.5480 -0.5429  0.1240
  627TIP3    H2 1846   0.174   1.402   3.286  0.0923  0.8332 -0.5762
  628TIP3   OH2 1847   6.354   5.062   3.883 -0.1808  0.4197  0.4963
  628TIP3    H1 1848   6.355   4.970   3.860 -0.9564  0.3450  0.7245
  628TIP3    H2 1849   6.389   5.065   3.972 -1.9056  0.0985  1.2338
  629TIP3   OH2 1850   3.169   4.493   1.930  0.2884 -0.6371  0.2461
  629TIP3    H1 1851   3.241   4.498   1.993  0.6757  1.0683 -0.2914
  629TIP3    H2 1852   3.213   4.490   1.845 -0.2238  1.7050 -0.1657
  630TIP3   OH2 1853   4.938   2.792   3.265 -0.2162  0.4039  0.3303
  630TIP3    H1 1854   4.981   2.864   3.311  0.7886 -0.8352  1.4047
  630TIP3    H2 1855   4.908   2.831   3.183  1.3101  1.7699  0.3634
  631TIP3   OH2 1856   1.117   6.390   5.652  0.3477  0.3391 -0.2946
  631TIP3    H1 1857   1.055   6.463   5.661 -0.9179 -0.7836  0.4370
  631TIP3    H2 1858   1.154   6.380   5.739 -0.4760 -0.7195 -0.0484
  632TIP3   OH2 1859   2.299   3.201   5.157  0.1162  0.0724  0.2790
  632TIP3    H1 1860   2.367   3.171   5.217  1.2665  0.2891 -0.8742
  632TIP3    H2 1861   2.297   3.136   5.087 -1.0707 -0.0807  0.4423
  633TIP3   OH2 1862   1.801   6.319   4.679  0.0542 -0.1595  0.3955
  633TIP3    H1 1863   1.739   6.342   4.610  1.2529 -0.2710 -0.7543
  633TIP3    H2 1864   1.860   6.394   4.685  0.7048 -0.6640  0.4321
  634TIP3   OH2 1865   2.792   4.857   0.099  0.0123 -0.6459  0.3808
  634TIP3    H1 1866   2.882   4.839   0.070  0.8260  1.6420  1.2112
  634TIP3    H2 1867   2.781   4.804   0.177 -0.0671 -2.3392 -0.7270
  635TIP3   OH2 1868   2.941   0.687   1.977  0.0547  0.0641  0.0198
  635TIP3    H1 1869   3.008   0.645   1.923 -1.1894 -0.9342 -0.7962
  635TIP3    H2 1870   2.985   0.704   2.060  1.1462 -1.1044 -0.2915
  636TIP3   OH2 1871   4.632   0.755   0.912 -0.0815  0.0539  0.3271
  636TIP3    H1 1872   4.653   0.719   0.999 -0.6648  0.6759  0.7380
  636TIP3    H2 1873   4.610   0.847   0.929  2.6618  1.0312 -0.8588
  637TIP3   OH2 1874   5.953   1.461   4.165  0.7520 -0.5215  0.1099
  637TIP3    H1 1875   5.882   1.447   4.228  0.0509 -0.9493 -0.7516
  637TIP3    H2 1876   5.975   1.554   4.175 -2.1852  0.5430 -1.8150
  638TIP3   OH2 1877   3.399   4.755   3.270 -0.1868 -0.0813 -0.0203
  638TIP3    H1 1878   3.424   4.810   3.344  0.2183 -0.5128  0.1659
  638TIP3    H2 1879   3.482   4.721   3.236 -0.3774  0.0303 -0.6045
  639TIP3   OH2 1880   6.181   0.609   1.506  0.7321 -0.1009 -0.8323
  639TIP3    H1 1881   6.097   0.564   1.500 -0.3943  1.8411 -0.7577
  639TIP3    H2 1882   6.233   0.556   1.566 -0.6518 -1.0544 -0.4198
  640TIP3   OH2 1883   5.284   6.603   1.166 -0.6059 -0.2813 -0.2354
  640TIP3    H1 1884   5.322   6.686   1.194  0.8873 -1.2678  0.8206
  640TIP3    H2 1885   5.196   6.626   1.135  0.2921  1.8791 -1.3850
  641TIP3   OH2 1886   5.322   4.671   0.985 -0.1093 -0.2734 -0.2590
  641TIP3    H1 1887   5.346   4.725   1.060  1.4528 -1.5052  0.2001
  641TIP3    H2 1888   5.381   4.699   0.915  2.9289 -3.1779  0.8150
  642TIP3   OH2 1889   1.735   5.319   3.580  0.1297  0.2352  0.4807
  642TIP3    H1 1890   1.697   5.270   3.507  0.7016 -0.3196  0.5496
  642TIP3    H2 1891   1.796   5.380   3.538  1.6269 -1.1373  0.5603
  643TIP3   OH2 1892   6.312   2.723   1.145 -0.1225 -0.3832  0.2257
  643TIP3    H1 1893   6.259   2.693   1.070 -0.2856  1.8604 -0.6524
  643TIP3    H2 1894   6.363   2.796   1.110  0.4539  0.1758  2.1151
  644TIP3   OH2 1895   4.915   6.104   4.723 -0.0835  0.5966  0.2356
  644TIP3    H1 1896   4.942   6.131   4.811  1.6216 -0.9096  0.2210
  644TIP3    H2 1897   4.819   6.099   4.729 -0.1665  2.3250  1.4211
  645TIP3   OH2 1898   0.786   3.154   2.468 -0.1641  0.9477  0.2575
  645TIP3    H1 1899   0.797   3.073   2.418  4.2309  1.7823 -0.5361
  645TIP3    H2 1900   0.768   3.125   2.557  2.5222 -1.1111  0.2556
  646TIP3   OH2 1901   6.882   4.063   3.443 -0.6087  0.3992 -0.2324
  646TIP3    H1 1902   6.921   4.051   3.530 -0.6566  1.3356 -0.0668
  646TIP3    H2 1903   6.792   4.090   3.462 -0.8530 -0.1637 -0.5876
  647TIP3   OH2 1904   0.553   3.482   0.134 -0.1168 -0.1563 -0.3874
  647TIP3    H1 1905   0.561   3.576   0.118  1.3741 -0.0767  0.6259
  647TIP3    H2 1906   0.630   3.443   0.091  0.1322 -0.7127  0.5306
  648TIP3   OH2 1907   3.783   4.333   1.560  0.3804  0.2019 -0.1192
  648TIP3    H1 1908   3.803   4.382   1.480  0.0962  1.0810  0.3379
  648TIP3    H2 1909   3.805   4.393   1.631  0.2030 -0.4101  0.4602
  649TIP3   OH2 1910   6.260   4.555   2.646 -0.1566 -1.2768 -0.3353
  649TIP3    H1 1911   6.201   4.527   2.576 -1.9235  0.5121  0.3457
  649TIP3    H2 1912   6.275   4.648   2.629  2.4447 -1.6322 -0.4034
  650TIP3   OH2 1913   1.573   1.108   2.628 -0.2515  0.6477  0.3663
  650TIP3    H1 1914   1.513   1.182   2.627  0.3909  1.2070 -1.2665
  650TIP3    H2 1915   1.634   1.128   2.699  0.2007  1.9607 -0.3470
  651TIP3   OH2 1916   6.947   1.236   4.198 -0.8206  0.1983  0.2581
  651TIP3    H1 1917   6.969   1.143   4.208 -1.0861  0.2743  1.7621
  651TIP3    H2 1918   6.853   1.236   4.176 -0.7335  0.1102 -0.1295
  652TIP3   OH2 1919   6.999   4.456   1.017 -0.0766  0.0879  0.0986
  652TIP3    H1 1920   7.045   4.536   1.043 -1.1964  0.9130 -0.3898
  652TIP3    H2 1921   7.066   4.387   1.024  1.9836  1.5484 -2.8690
  653TIP3   OH2 1922   5.413   6.823   2.845  0.1295 -0.0243  0.2660
  653TIP3    H1 1923   5.404   6.732   2.873 -2.4232  0.1003  0.1205
  653TIP3    H2 1924   5.393   6.821   2.751  1.5348  0.5279 -0.0739
  654TIP3   OH2 1925   5.591   5.382   2.871 -0.2952 -0.4161 -0.2333
  654TIP3    H1 1926   5.685   5.396   2.861 -0.3285 -0.3373 -0.4489
  654TIP3    H2 1927   5.584   5.314   2.938 -0.0434 -1.2261 -1.0063
  655TIP3   OH2 1928   6.425   3.006   2.095  0.1107  0.1832 -0.1091
  655TIP3    H1 1929   6.492   2.974   2.156 -0.9162  0.7803  1.4035
  655TIP3    H2 1930   6.352   2.945   2.106 -0.2898  0.6150 -0.3406
  656TIP3   OH2 1931   5.755   1.434   0.775  0.3398 -0.3158  0.0263
  656TIP3    H1 1932   5.703   1.483   0.839 -1.1231  0.1887 -1.4835
  656TIP3    H2 1933   5.846   1.454   0.798 -0.0379 -1.3736  2.8730
  657TIP3   OH2 1934   2.173   2.433   5.040  0.2034  0.1118  0.0990
  657TIP3    H1 1935   2.104   2.388   5.088  0.2369 -0.8799 -0.7504
  657TIP3    H2 1936   2.222   2.363   4.996 -0.3106  0.9882 -2.0179
  658TIP3   OH2 1937   0.546   2.338   5.558 -0.6627  0.6515  0.3286
  658TIP3    H1 1938   0.616   2.356   5.621  0.9374  1.7130 -1.6388
  658TIP3    H2 1939   0.468   2.378   5.596  0.4901  2.2335  1.1352
  659TIP3   OH2 1940   0.218   1.955   2.535  0.2326 -0.6054 -0.2990
  659TIP3    H1 1941   0.276   2.029   2.553  0.2863 -0.7229  0.0236
  659TIP3    H2 1942   0.241   1.891   2.603 -0.0414 -0.7833 -0.3780
  660TIP3   OH2 1943   6.609   6.301   0.965 -0.1515  0.4003 -0.5795
  660TIP3    H1 1944   6.575   6.378   1.010 -2.4423 -1.3362  0.8545
  660TIP3    H2 1945   6.634   6.241   1.035 -1.9614 -1.6015 -1.5452
  661TIP3   OH2 1946   2.850   0.717   4.217  0.8181  0.1030 -0.0907
  661TIP3    H1 1947   2.877   0.769   4.141  0.8347 -0.3244 -0.3763
  661TIP3    H2 1948   2.817   0.635   4.180  1.2133 -0.2767  0.3841
  662TIP3   OH2 1949   6.504   3.715   3.368  0.3363  0.3653 -0.2092
  662TIP3    H1 1950   6.565   3.720   3.441 -0.1514  0.7674  0.1800
  662TIP3    H2 1951   6.432   3.772   3.393  0.5447  1.1838 -1.3683
  663TIP3   OH2 1952   2.927   3.078   1.167 -0.4832  0.0463 -0.0443
  663TIP3    H1 1953   2.963   3.153   1.214 -0.7186 -1.2310  2.3108
  663TIP3    H2 1954   2.832   3.095   1.163 -0.5007  0.0010  0.2121
  664TIP3   OH2 1955   0.424   3.102   4.869  0.0753  0.0085 -0.5629
  664TIP3    H1 1956   0.352   3.142   4.820 -1.6749 -1.0302  1.0217
  664TIP3    H2 1957   0.485   3.174   4.884 -1.2209  1.2432 -0.9280
  665TIP3   OH2 1958   0.727   5.793   0.603 -0.4436 -0.6177  0.1659
  665TIP3    H1 1959   0.671   5.819   0.530 -0.4890 -0.5256  0.2326
  665TIP3    H2 1960   0.813   5.778   0.564 -0.5779 -1.0231  0.0190
  666TIP3   OH2 1961   4.920   5.991   1.217 -0.9031  0.5997  0.1119
  666TIP3    H1 1962   4.964   5.913   1.183  1.8582  1.9018  0.4361
  666TIP3    H2 1963   4.863   6.020   1.146 -0.1215 -0.3346 -0.9253
  667TIP3   OH2 1964   2.728   4.629   0.698 -0.0115 -0.1397  0.6028
  667TIP3    H1 1965   2.774   4.546   0.712  1.5748  0.3928 -1.1254
  667TIP3    H2 1966   2.635   4.604   0.692  0.1958 -1.4799  2.2674
  668TIP3   OH2 1967   1.546   5.748   1.500  0.4328  0.1656 -0.7359
  668TIP3    H1 1968   1.623   5.737   1.555 -0.4784 -0.4719  0.4671
  668TIP3    H2 1969   1.540   5.843   1.486  1.5649  0.2038 -1.0676
  669TIP3   OH2 1970   2.037   4.602   1.347  0.2402 -0.2839  0.3129
  669TIP3    H1 1971   2.102   4.672   1.349 -2.4196  2.3766  0.9343
  669TIP3    H2 1972   1.980   4.624   1.274 -0.2459 -2.3145  0.0187
  670TIP3   OH2 1973   1.601   3.826   2.769  0.3794 -0.6261 -0.3096
  670TIP3    H1 1974   1.548   3.747   2.754 -0.4407  0.0266 -0.8934
  670TIP3    H2 1975   1.659   3.830   2.694 -0.8026  0.2895 -1.2072
  671TIP3   OH2 1976   2.024   3.176   2.124  0.0644  0.2377  0.2889
  671TIP3    H1 1977   2.051   3.221   2.204  0.8653  0.0282  0.1482
  671TIP3    H2 1978   1.965   3.238   2.081 -2.1022 -0.5009  2.0477
  672TIP3   OH2 1979   4.810   2.740   0.265 -0.3352  0.2026 -0.0508
  672TIP3    H1 1980   4.755   2.814   0.291 -0.2613  0.1102  0.3733
  672TIP3    H2 1981   4.898   2.777   0.258 -0.7787  0.9690 -3.2702
  673TIP3   OH2 1982   0.187   6.150   1.838  0.1220 -0.1114 -0.4988
  673TIP3    H1 1983   0.109   6.138   1.892  0.0306 -0.3479 -0.6797
  673TIP3    H2 1984   0.155   6.146   1.748  0.2376  0.5406 -0.5688
  674TIP3   OH2 1985   1.084   4.311   1.648  0.4180  0.0224  0.0828
  674TIP3    H1 1986   1.085   4.344   1.737  0.4374  1.2713 -0.3687
  674TIP3    H2 1987   1.022   4.366   1.602  0.8244 -0.2444 -0.8146
  675TIP3   OH2 1988   2.983   6.636   1.122  0.4770  0.5805 -0.2685
  675TIP3    H1 1989   2.926   6.625   1.046  1.9911 -0.3618 -1.3391
  675TIP3    H2 1990   2.929   6.679   1.188 -1.4112 -0.1895 -1.2561
  676TIP3   OH2 1991   5.260   1.058   3.156  0.0261  0.5148  0.7067
  676TIP3    H1 1992   5.324   0.990   3.178  1.2919  1.8182  1.2081
  676TIP3    H2 1993   5.190   1.047   3.220 -1.2030 -2.0514 -0.9122
  677TIP3   OH2 1994   5.447   4.374   5.742  0.1470 -0.0754  0.4257
  677TIP3    H1 1995   5.397   4.387   5.661  0.8547 -1.5917 -0.3173
  677TIP3    H2 1996   5.486   4.287   5.731 -0.2920 -0.6264  2.7233
  678TIP3   OH2 1997   3.252   1.210   3.699 -0.0508  0.3494 -0.1811
  678TIP3    H1 1998   3.159   1.228   3.685 -0.4970 -0.8229  1.0202
  678TIP3    H2 1999   3.298   1.276   3.647 -1.5519  2.2448  0.7688
  679TIP3   OH2 2000   2.999   3.764   1.646 -0.2667 -0.3078 -0.4071
  679TIP3    H1 2001   2.970   3.773   1.555 -0.8343 -1.8771 -0.4073
  679TIP3    H2 2002   3.028   3.673   1.653  2.0076  0.4194  0.3790
  680TIP3   OH2 2003   2.562   0.168   2.167  0.2523  0.2378 -0.5101
  680TIP3    H1 2004   2.498   0.238   2.180  0.8902  0.5555  1.0931
  680TIP3    H2 2005   2.619   0.172   2.244 -1.3011 -3.8140  1.1216
  681TIP3   OH2 2006   6.276   1.029   5.758  0.3966  0.2396 -0.0326
  681TIP3    H1 2007   6.231   1.070   5.685 -1.7621 -0.2791  0.9284
  681TIP3    H2 2008   6.339   1.095   5.788 -0.5762  1.4940 -0.6621
  682TIP3   OH2 2009   1.772   6.050   1.588  0.2433 -0.1952 -0.2470
  682TIP3    H1 2010   1.812   5.963   1.591 -3.4624 -2.0630  0.8300
  682TIP3    H2 2011   1.687   6.036   1.547 -0.0909  3.1914 -1.0104
  683TIP3   OH2 2012   4.546   0.272   2.976 -0.1549 -0.7578  0.1044
  683TIP3    H1 2013   4.465   0.259   3.027  0.3238  1.3453  1.5254
  683TIP3    H2 2014   4.529   0.351   2.925  0.2309 -1.5614 -1.3152
  684TIP3   OH2 2015   0.220   4.242   4.609 -0.5083 -0.2457  0.3098
  684TIP3    H1 2016   0.303   4.254   4.655  0.5271 -2.3524 -0.8383
  684TIP3    H2 2017   0.221   4.307   4.538 -0.4058  0.5185  1.0016
  685TIP3   OH2 2018   5.764   2.242   0.771  0.3413 -0.3222 -0.0283
  685TIP3    H1 2019   5.835   2.268   0.829  0.8011  0.1926 -0.8033
  685TIP3    H2 2020   5.803   2.175   0.714 -0.0991 -0.8093  0.2296
  686TIP3   OH2 2021   7.002   6.504   5.698 -0.1893 -0.2692  0.5116
  686TIP3    H1 2022   7.020   6.587   5.742 -0.3603 -0.1679  0.3923
  686TIP3    H2 2023   6.918   6.476   5.733 -0.0798 -0.4456  0.6308
  687TIP3   OH2 2024   2.640   6.085   0.399  0.2386 -0.0896 -0.0638
  687TIP3    H1 2025   2.662   6.043   0.482  0.1531 -1.3805 -0.6580
  687TIP3    H2 2026   2.662   6.019   0.333 -1.7928  0.0214 -0.9140
  688TIP3   OH2 2027   1.851   3.192   2.571 -0.5900  0.3407 -0.2683
  688TIP3    H1 2028   1.869   3.279   2.607  3.4140 -0.1735 -0.6423
  688TIP3    H2 2029   1.868   3.132   2.644 -1.0113 -0.2696 -0.6621
  689TIP3   OH2 2030   0.735   5.440   3.446  0.2458  0.1197 -0.3578
  689TIP3    H1 2031   0.822   5.406   3.463 -0.3217 -1.4964 -0.5257
  689TIP3    H2 2032   0.703   5.468   3.532  0.1836 -1.1756  0.0645
  690TIP3   OH2 2033   1.110   2.129   2.193  0.3020 -0.1462  0.7233
  690TIP3    H1 2034   1.184   2.141   2.253  0.9940 -0.0429 -0.1323
  690TIP3    H2 2035   1.044   2.191   2.224  1.1700  0.8776  0.5706
  691TIP3   OH2 2036   1.430   1.203   2.375 -0.0792  0.9290 -0.2297
  691TIP3    H1 2037   1.490   1.141   2.417 -0.7376  0.9847  0.8366
  691TIP3    H2 2038   1.380   1.241   2.447 -0.1200  2.2567 -0.9203
  692TIP3   OH2 2039   4.609   0.028   3.674  0.2568 -0.2046  0.0115
  692TIP3    H1 2040   4.692   0.053   3.714  0.7962 -1.6625 -0.1496
  692TIP3    H2 2041   4.592  -0.060   3.706 -1.4067  0.1876  0.2960
  693TIP3   OH2 2042   0.461   2.611   1.562  0.3907  0.5901 -0.6594
  693TIP3    H1 2043   0.487   2.569   1.644  0.9536  1.7815 -0.1963
  693TIP3    H2 2044   0.477   2.545   1.494  0.7025 -0.1210  0.0908
  694TIP3   OH2 2045   3.593   4.162   0.833 -0.1723 -0.5450 -0.1486
  694TIP3    H1 2046   3.605   4.125   0.746  0.0247 -1.5927  0.3076
  694TIP3    H2 2047   3.613   4.090   0.893 -1.1234 -0.0947  0.7492
  695TIP3   OH2 2048   1.598   6.517   4.577 -0.1018 -0.2331  0.1523
  695TIP3    H1 2049   1.535   6.469   4.629 -1.2241  0.2984 -0.6840
  695TIP3    H2 2050   1.576   6.609   4.590  0.1246 -0.0597 -0.5999
  696TIP3   OH2 2051   5.042   3.899   5.248 -0.2407 -0.2806 -0.1612
  696TIP3    H1 2052   4.988   3.835   5.294  1.5454 -0.1399  2.3701
  696TIP3    H2 2053   5.046   3.974   5.307  0.7229  0.6720 -1.3781
  697TIP3   OH2 2054   4.339   1.141   4.487  0.3671  0.4847  0.4785
  697TIP3    H1 2055   4.266   1.195   4.457  0.6923  0.3378 -0.5994
  697TIP3    H2 2056   4.414   1.200   4.490  0.0749  0.8205  2.3193
  698TIP3   OH2 2057   6.539   2.163   4.495  0.0804  0.4597  0.0637
  698TIP3    H1 2058   6.549   2.118   4.412  1.2945  0.4111  0.2174
  698TIP3    H2 2059   6.448   2.194   4.495 -0.7706 -1.8937 -0.0687
  699TIP3   OH2 2060   3.786   3.037   1.766 -0.3048  0.5070 -0.3831
  699TIP3    H1 2061   3.691   3.026   1.769 -0.2468  0.0999  0.6800
  699TIP3    H2 2062   3.820   2.949   1.751 -0.1461  1.0720 -4.1954
  700TIP3   OH2 2063   2.658   1.716   2.718  0.0592  0.1799 -0.3128
  700TIP3    H1 2064   2.734   1.668   2.685 -1.8913 -2.6311 -1.0272
  700TIP3    H2 2065   2.593   1.710   2.648 -2.2702 -1.1291  1.8108
  701TIP3   OH2 2066   3.851   1.534   5.550 -0.1703 -0.1125  0.1688
  701TIP3    H1 2067   3.927   1.547   5.606 -0.4060  0.0005  0.4610
  701TIP3    H2 2068   3.851   1.440   5.532  0.2643 -0.0548 -0.1563
  702TIP3   OH2 2069   3.863   4.934   2.879  0.3713 -0.3630  0.2496
  702TIP3    H1 2070   3.865   4.844   2.913  0.9964 -0.1011  0.9365
  702TIP3    H2 2071   3.947   4.944   2.833  0.5053  0.0062  0.5651
  703TIP3   OH2 2072   4.303   6.359   2.087 -0.6204 -0.3267  0.9828
  703TIP3    H1 2073   4.316   6.321   2.000  0.2164  2.0124  0.0201
  703TIP3    H2 2074   4.208   6.354   2.102 -0.8433 -0.1781 -0.3348
  704TIP3   OH2 2075   2.593   4.619   2.201  0.2476  0.3646 -0.1192
  704TIP3    H1 2076   2.531   4.663   2.143 -1.5289  1.0906  2.1792
  704TIP3    H2 2077   2.649   4.690   2.233  1.1677 -0.0182 -0.8528
  705TIP3   OH2 2078   0.910   1.464   0.323  0.1077 -0.2819  0.7897
  705TIP3    H1 2079   0.894   1.376   0.290  1.0280 -0.6622  1.3057
  705TIP3    H2 2080   0.950   1.510   0.250  1.2719 -0.8396  1.0504
  706TIP3   OH2 2081   5.488   4.464   3.674  0.0359  0.4261  0.1944
  706TIP3    H1 2082   5.516   4.544   3.631 -0.7816  1.0557  0.8027
  706TIP3    H2 2083   5.407   4.439   3.629  0.9287 -0.7806 -0.8330
  707TIP3   OH2 2084   1.652   2.950   2.854  0.0936 -0.0793 -0.4409
  707TIP3    H1 2085   1.634   2.998   2.935  1.0035 -0.0054 -0.2753
  707TIP3    H2 2086   1.579   2.888   2.847 -1.5131  1.7802 -1.0410
  708TIP3   OH2 2087   3.033   3.799   5.332  0.0722  0.1995  0.0249
  708TIP3    H1 2088   3.070   3.862   5.271  1.2115  1.8300  2.2973
  708TIP3    H2 2089   3.106   3.741   5.354 -0.4082 -0.5624 -0.3274
  709TIP3   OH2 2090   1.943   0.086   3.093  0.4608 -0.1627  0.3845
  709TIP3    H1 2091   2.000   0.036   3.036 -1.0735 -0.4527 -0.9700
  709TIP3    H2 2092   1.930   0.030   3.170  0.1531 -1.1027 -0.3370
  710TIP3   OH2 2093   3.231   6.489   3.113 -0.0852  0.1469  0.6700
  710TIP3    H1 2094   3.241   6.575   3.155 -0.2549 -0.2169  1.4728
  710TIP3    H2 2095   3.285   6.430   3.166  0.7206 -0.0865 -0.3897
  711TIP3   OH2 2096   3.504   4.997   4.770 -0.4242  0.0560  0.2869
  711TIP3    H1 2097   3.448   5.013   4.693 -1.0172  0.3736  0.7756
  711TIP3    H2 2098   3.563   5.073   4.772  0.1624 -0.3702 -0.3364
  712TIP3   OH2 2099   6.578   2.259   3.245 -0.2962 -0.0302  0.0773
  712TIP3    H1 2100   6.648   2.322   3.261  0.8151 -1.4716  1.0936
  712TIP3    H2 2101   6.509   2.283   3.307 -0.5190  1.0592 -0.5549
  713TIP3   OH2 2102   0.966   2.956   5.520 -0.0415 -0.5159  0.3244
  713TIP3    H1 2103   0.976   2.936   5.613  0.8109 -1.2068  0.0956
  713TIP3    H2 2104   1.008   3.041   5.508  0.9591 -1.0037  0.3414
  714TIP3   OH2 2105   5.496   1.522   3.528  0.1232  0.1367 -0.3035
  714TIP3    H1 2106   5.416   1.547   3.481 -0.5574  0.5841  1.0392
  714TIP3    H2 2107   5.528   1.445   3.481 -2.7270 -1.9102  0.8003
  715TIP3   OH2 2108   6.342   6.704   2.364 -0.1296  0.1431 -0.1321
  715TIP3    H1 2109   6.334   6.800   2.364 -1.1526  0.0973  1.4051
  715TIP3    H2 2110   6.425   6.687   2.320  0.5111  1.7951  0.3419
  716TIP3   OH2 2111   1.148   0.386   4.693 -0.1377 -0.3570  0.0157
  716TIP3    H1 2112   1.151   0.482   4.698  0.3102 -0.3217 -0.7155
  716TIP3    H2 2113   1.058   0.367   4.665  0.0021 -0.0951 -0.6457
  717TIP3   OH2 2114   7.180   4.355   4.026 -0.1134 -0.0559 -0.1252
  717TIP3    H1 2115   7.264   4.398   4.043  0.2861 -0.5803 -0.7227
  717TIP3    H2 2116   7.120   4.427   4.005  0.2585  0.3005  0.0155
  718TIP3   OH2 2117   0.649   3.982   2.768  0.4938 -0.5814 -0.1100
  718TIP3    H1 2118   0.626   3.943   2.853  0.6395  0.6824  0.5287
  718TIP3    H2 2119   0.699   3.914   2.723 -0.0325 -1.4582  0.6061
  719TIP3   OH2 2120   4.504   0.234   0.527 -0.1224 -0.0168 -0.2624
  719TIP3    H1 2121   4.543   0.166   0.472  0.6468 -0.0585  0.3255
  719TIP3    H2 2122   4.467   0.187   0.601 -0.5958  0.1048 -0.4151
  720TIP3   OH2 2123   0.853   0.358   1.873  0.0627  0.2194  0.2126
  720TIP3    H1 2124   0.913   0.421   1.833 -0.9291  0.9723 -0.1484
  720TIP3    H2 2125   0.908   0.303   1.928  1.0908  0.8026 -0.2072
  721TIP3   OH2 2126   3.102   1.668   0.950  0.7074  0.1338 -0.6188
  721TIP3    H1 2127   3.063   1.599   1.004  0.0432 -0.4495 -1.7859
  721TIP3    H2 2128   3.069   1.651   0.862 -1.0352  3.0527 -0.6695
  722TIP3   OH2 2129   3.727   2.797   5.021  0.4362  0.0404 -0.7217
  722TIP3    H1 2130   3.679   2.876   4.998 -1.9259 -1.2134 -0.5109
  722TIP3    H2 2131   3.807   2.828   5.064 -0.8981  2.3018  0.2964
  723TIP3   OH2 2132   1.987   4.696   3.840 -0.6533 -0.7816  0.4086
  723TIP3    H1 2133   2.034   4.713   3.921 -0.5983  0.9388  0.0621
  723TIP3    H2 2134   2.055   4.697   3.772 -0.9941  0.3646  0.0614
  724TIP3   OH2 2135   1.799   0.473   5.793 -0.2704  0.5775 -0.5960
  724TIP3    H1 2136   1.765   0.544   5.847 -1.8892  1.0490 -2.1163
  724TIP3    H2 2137   1.891   0.493   5.781 -0.3147  1.4686  0.4419
  725TIP3   OH2 2138   1.201   4.717   2.182 -0.6929 -0.3044 -0.0050
  725TIP3    H1 2139   1.197   4.761   2.267  0.3951  1.3976 -0.7773
  725TIP3    H2 2140   1.164   4.780   2.120  1.4887 -0.1311 -1.2481
  726TIP3   OH2 2141   2.664   0.437   4.437  0.2154 -0.2936 -0.2753
  726TIP3    H1 2142   2.673   0.465   4.529 -1.2361  0.2756 -0.2840
  726TIP3    H2 2143   2.604   0.363   4.441  0.1662 -0.2783 -0.7622
  727TIP3   OH2 2144   3.205   6.162   1.191 -0.1165 -0.0589  0.6332
  727TIP3    H1 2145   3.293   6.200   1.193  0.0713 -0.4888  0.6887
  727TIP3    H2 2146   3.220   6.067   1.193 -0.5591 -0.1510 -0.3088
  728TIP3   OH2 2147   1.275   1.273   1.473 -0.0380  0.4296  0.6253
  728TIP3    H1 2148   1.242   1.337   1.410  0.5248  0.2248  0.1084
  728TIP3    H2 2149   1.211   1.203   1.474 -1.5159  1.7034  2.4058
  729TIP3   OH2 2150   5.586   1.048   4.467 -0.2529 -0.0775 -0.4383
  729TIP3    H1 2151   5.655   1.022   4.528 -0.1866 -1.8803 -1.2132
  729TIP3    H2 2152   5.551   0.965   4.433 -1.3541  0.8401 -1.6651
  730TIP3   OH2 2153   0.528   4.587   1.977  0.0979  0.0114  0.3493
  730TIP3    H1 2154   0.521   4.682   1.963 -0.7029  0.0171  0.7343
  730TIP3    H2 2155   0.555   4.579   2.068 -0.3281 -0.1370  0.4642
  731TIP3   OH2 2156   6.609   5.791   3.903 -0.0750 -0.4243  0.2338
  731TIP3    H1 2157   6.558   5.777   3.983 -0.3993  0.9719  0.3078
  731TIP3    H2 2158   6.659   5.871   3.921  1.7493 -1.4611 -0.0453
  732TIP3   OH2 2159   7.165   3.481   0.576  0.5982 -0.1358  0.0290
  732TIP3    H1 2160   7.185   3.428   0.498  2.4294  1.3196 -0.5609
  732TIP3    H2 2161   7.141   3.417   0.642 -1.3703 -1.4169 -1.7787
  733TIP3   OH2 2162   3.574   6.705   4.497 -0.4444  0.3388 -0.1371
  733TIP3    H1 2163   3.528   6.673   4.575  0.4989  0.8817  0.6515
  733TIP3    H2 2164   3.633   6.772   4.529 -0.3968  0.9338 -1.4000
  734TIP3   OH2 2165   5.718   4.625   4.097  0.1609 -0.0101 -0.2727
  734TIP3    H1 2166   5.672   4.706   4.122 -1.6532 -1.3233  0.8881
  734TIP3    H2 2167   5.652   4.575   4.049  0.9056 -1.2727 -0.0017
  735TIP3   OH2 2168   6.510   3.887   1.765 -0.1781  0.3355 -0.4953
  735TIP3    H1 2169   6.559   3.818   1.810  0.0081  0.6202 -0.2594
  735TIP3    H2 2170   6.461   3.931   1.835 -1.0386 -0.1575 -0.7688
  736TIP3   OH2 2171   1.341   0.223   4.856 -0.2209  0.5828  0.2486
  736TIP3    H1 2172   1.430   0.255   4.843 -0.6828  0.8264 -3.4362
  736TIP3    H2 2173   1.295   0.295   4.901  1.4726  0.1736  2.8551
  737TIP3   OH2 2174   2.635   2.998   5.094 -0.4941  0.2859  0.2955
  737TIP3    H1 2175   2.562   2.993   5.157 -0.1078 -0.5257  0.6971
  737TIP3    H2 2176   2.695   2.930   5.122  0.1324  0.5335 -0.4143
  738TIP3   OH2 2177   5.007   2.899   0.937 -0.0992 -0.1629  0.6329
  738TIP3    H1 2178   5.052   2.965   0.989 -0.5083 -0.7754  1.7798
  738TIP3    H2 2179   5.077   2.841   0.905  0.2153  0.5707 -0.0384
  739TIP3   OH2 2180   3.660   1.295   1.343  0.1610 -0.0952 -0.0769
  739TIP3    H1 2181   3.665   1.358   1.271 -0.9384  0.3207  0.1844
  739TIP3    H2 2182   3.699   1.215   1.308  1.0811  0.5689 -0.5985
  740TIP3   OH2 2183   6.324   4.804   3.781  0.1830  0.1205  0.2813
  740TIP3    H1 2184   6.289   4.744   3.715  1.2894  0.1175 -0.3129
  740TIP3    H2 2185   6.301   4.763   3.864 -0.1327 -0.5064 -0.1026
  741TIP3   OH2 2186   6.514   2.214   1.538  0.0912 -0.0478  0.2483
  741TIP3    H1 2187   6.487   2.270   1.611 -0.3316  2.0550 -1.4098
  741TIP3    H2 2188   6.442   2.152   1.528 -0.7077  0.8064  0.4979
  742TIP3   OH2 2189   0.966   3.767   1.467 -0.6140 -0.1029  0.0436
  742TIP3    H1 2190   0.889   3.788   1.521 -0.6829 -0.2276 -0.0063
  742TIP3    H2 2191   0.946   3.804   1.381 -1.3079 -1.4929 -0.4214
  743TIP3   OH2 2192   5.054   4.520   0.169  0.1522  0.0936  0.4477
  743TIP3    H1 2193   5.102   4.470   0.235  0.4375  0.2175  0.3337
  743TIP3    H2 2194   4.968   4.534   0.207  0.1116 -0.3822  0.5311
  744TIP3   OH2 2195   0.186   0.796   4.926 -0.3288 -0.1966  0.1853
  744TIP3    H1 2196   0.143   0.869   4.969  1.5643  0.0577  1.7787
  744TIP3    H2 2197   0.115   0.750   4.881 -1.6739  2.2103 -0.3595
  745TIP3   OH2 2198   5.081   2.221   3.598 -0.3403 -0.7390  0.3005
  745TIP3    H1 2199   5.045   2.146   3.647  0.6764 -2.1312 -0.9709
  745TIP3    H2 2200   5.155   2.183   3.549  0.2229  1.1311 -0.3567
  746TIP3   OH2 2201   2.999   4.575   3.822 -0.1664  0.0467  0.1612
  746TIP3    H1 2202   2.986   4.670   3.827  0.6482  0.2090 -0.5461
  746TIP3    H2 2203   2.998   4.556   3.728 -0.3985 -0.6512  0.3065
  747TIP3   OH2 2204   4.955   4.841   0.904 -0.1060  0.4306  0.3033
  747TIP3    H1 2205   4.925   4.751   0.907  0.2172  0.3493  1.2866
  747TIP3    H2 2206   5.050   4.835   0.893  0.0015  0.6400  1.1114
  748TIP3   OH2 2207   6.026   0.242   0.830 -0.8900 -0.2686  0.2903
  748TIP3    H1 2208   6.068   0.272   0.911 -0.1782 -0.6374  0.0682
  748TIP3    H2 2209   5.960   0.308   0.811  0.5175  1.0829 -0.0906
  749TIP3   OH2 2210   6.321   0.606   4.576  0.2097  0.7078  0.6264
  749TIP3    H1 2211   6.361   0.654   4.503 -0.9681  0.4480 -0.2313
  749TIP3    H2 2212   6.316   0.669   4.647  1.1703  1.0420  0.4034
  750TIP3   OH2 2213   3.856   3.265   2.389  0.0568 -0.0961  0.0695
  750TIP3    H1 2214   3.860   3.195   2.324 -2.6476 -1.2821  1.0280
  750TIP3    H2 2215   3.772   3.307   2.374 -0.1383  0.3276  2.0682
  751TIP3   OH2 2216   4.672   6.763   2.043 -0.2251  0.0813 -0.6018
  751TIP3    H1 2217   4.734   6.782   2.113 -1.6833  0.4658  0.6249
  751TIP3    H2 2218   4.647   6.671   2.055 -1.0896  0.3726 -0.1004
  752TIP3   OH2 2219   2.028   3.940   4.804 -0.0017 -0.1435 -0.5080
  752TIP3    H1 2220   2.013   3.931   4.898 -1.7504  1.2363 -0.6077
  752TIP3    H2 2221   1.960   3.888   4.763  0.3028 -0.1437 -1.0225
  753TIP3   OH2 2222   2.945   5.663   5.352  0.1069  0.2230  0.2081
  753TIP3    H1 2223   2.944   5.673   5.257  1.7035 -0.1098  0.1412
  753TIP3    H2 2224   2.875   5.722   5.382  0.7659  1.7178 -1.0440
  754TIP3   OH2 2225   3.379   6.553   3.483 -0.2765  0.2653  0.5218
  754TIP3    H1 2226   3.336   6.472   3.456 -0.1150  0.3776 -0.0814
  754TIP3    H2 2227   3.331   6.622   3.438  1.4475  0.2952 -1.4345
  755TIP3   OH2 2228   2.876   0.965   0.060  0.1749  0.3219 -0.3565
  755TIP3    H1 2229   2.939   0.939   0.126 -0.2680 -1.5682 -0.6231
  755TIP3    H2 2230   2.927   0.973  -0.021  0.2035 -0.4604 -0.4185
  756TIP3   OH2 2231   0.316   0.813   4.639 -0.4726 -0.1045  0.5141
  756TIP3    H1 2232   0.226   0.841   4.652  0.3242  2.1015  1.7760
  756TIP3    H2 2233   0.369   0.874   4.691  1.8429 -0.6063 -1.0756
  757TIP3   OH2 2234   3.949   0.786   1.132  0.4125  0.6028 -1.3208
  757TIP3    H1 2235   4.000   0.730   1.191 -1.2970  0.2273 -0.1234
  757TIP3    H2 2236   3.981   0.764   1.045  2.4935  0.6239 -0.6110
  758TIP3   OH2 2237   4.359   6.429   2.358 -0.1775  0.4559  0.1582
  758TIP3    H1 2238   4.356   6.521   2.332  1.6910  0.4913 -0.0779
  758TIP3    H2 2239   4.362   6.381   2.276  0.9259  0.3086  0.2755
  759TIP3   OH2 2240   1.384   2.131   1.525  0.3016  0.3761 -0.3584
  759TIP3    H1 2241   1.449   2.116   1.456 -0.9189 -0.5821 -1.3423
  759TIP3    H2 2242   1.370   2.045   1.565 -2.1954 -0.0398 -1.8933
  760TIP3   OH2 2243   3.351   6.395   5.650 -0.8008 -0.4073 -0.2194
  760TIP3    H1 2244   3.408   6.403   5.573 -0.2301 -1.0710  0.1335
  760TIP3    H2 2245   3.307   6.311   5.639 -1.2358 -0.1933 -0.1573
  761TIP3   OH2 2246   1.382   3.383   2.532  0.2387 -0.0338 -0.1332
  761TIP3    H1 2247   1.463   3.336   2.550  1.3253  1.3435 -1.2011
  761TIP3    H2 2248   1.316   3.314   2.520  1.3541 -1.1961  0.1879
  762TIP3   OH2 2249   0.873   5.187   3.306  0.4686 -0.4049  0.0190
  762TIP3    H1 2250   0.910   5.257   3.360 -1.3778  0.1079  0.7099
  762TIP3    H2 2251   0.793   5.160   3.353  0.2601 -1.8429 -1.0736
  763TIP3   OH2 2252   2.517   5.818   3.863  0.1089 -0.8093 -0.5777
  763TIP3    H1 2253   2.596   5.866   3.838  0.2392 -0.8171 -0.1879
  763TIP3    H2 2254   2.473   5.799   3.780  1.8842 -3.2021 -1.0544
  764TIP3   OH2 2255   5.243   6.153   0.148  0.6290 -0.7830 -0.4579
  764TIP3    H1 2256   5.196   6.153   0.232  2.1272 -0.7844  0.4047
  764TIP3    H2 2257   5.290   6.070   0.146 -0.1703 -1.2441 -1.7879
  765TIP3   OH2 2258   5.491   6.647   5.579 -0.8384  0.2169  0.2795
  765TIP3    H1 2259   5.489   6.675   5.488 -0.8560 -0.7379 -0.0242
  765TIP3    H2 2260   5.415   6.589   5.589  0.1185 -1.0696  0.4157
  766TIP3   OH2 2261   6.215   1.097   4.833 -0.6869 -0.0912 -0.1382
  766TIP3    H1 2262   6.130   1.140   4.826 -0.7114  0.1681  1.3437
  766TIP3    H2 2263   6.247   1.121   4.920  1.4362  0.7801 -1.0645
  767TIP3   OH2 2264   5.665   3.648   2.002  1.2293 -0.4347  0.4389
  767TIP3    H1 2265   5.705   3.730   1.974 -1.5805  0.0628 -2.7448
  767TIP3    H2 2266   5.704   3.582   1.945  0.1075 -0.4887 -0.2967
  768TIP3   OH2 2267   3.066   6.566   4.633 -0.0929  0.3009  0.2059
  768TIP3    H1 2268   2.977   6.541   4.657  0.4409 -1.0723  0.8963
  768TIP3    H2 2269   3.060   6.594   4.542 -1.0812 -0.6526 -0.0390
  769TIP3   OH2 2270   4.043   2.798   0.841  0.1181  0.5240 -0.3141
  769TIP3    H1 2271   4.067   2.736   0.772  1.4326  2.1211 -1.3735
  769TIP3    H2 2272   3.962   2.837   0.811 -0.1664  0.0747 -0.1451
  770TIP3   OH2 2273   6.754   4.992   2.974  0.4948 -0.6861 -0.7742
  770TIP3    H1 2274   6.844   5.023   2.961  0.8491 -0.9571  0.7837
  770TIP3    H2 2275   6.763   4.903   3.008 -0.3983 -1.0412 -1.4261
  771TIP3   OH2 2276   3.346   1.313   2.862  0.6100 -0.4374  0.5031
  771TIP3    H1 2277   3.429   1.278   2.894 -0.2636 -1.3318  1.8678
  771TIP3    H2 2278   3.292   1.323   2.940 -0.1324  1.4143 -0.1879
  772TIP3   OH2 2279   1.888   0.369   0.183  0.5146 -0.3537 -0.6599
  772TIP3    H1 2280   1.802   0.346   0.146  0.4259  0.1115 -0.7471
  772TIP3    H2 2281   1.892   0.321   0.266 -1.3974  2.3544  1.1908
  773TIP3   OH2 2282   0.741   3.407   2.959  0.7795  0.2155 -0.3018
  773TIP3    H1 2283   0.649   3.381   2.956  0.4203  1.3609  0.1088
  773TIP3    H2 2284   0.789   3.328   2.937 -0.2528 -0.7655  0.7980
  774TIP3   OH2 2285   6.087   2.628   4.309 -0.3071  0.1297  0.6594
  774TIP3    H1 2286   6.078   2.548   4.258  1.8540 -0.3913  0.9882
  774TIP3    H2 2287   6.094   2.697   4.243  0.6537 -0.3160  0.2825
  775TIP3   OH2 2288   1.338   3.222   4.692 -0.5122  0.2617  0.1505
  775TIP3    H1 2289   1.372   3.136   4.715 -1.9700 -0.7807 -1.3550
  775TIP3    H2 2290   1.243   3.209   4.682 -0.5453  1.5927 -1.8684
  776TIP3   OH2 2291   4.045   6.606   5.072  0.2966 -0.6208  0.4040
  776TIP3    H1 2292   3.997   6.675   5.027  0.8267 -1.5105 -1.5959
  776TIP3    H2 2293   4.043   6.633   5.164 -1.4247  0.8882 -0.0118
  777TIP3   OH2 2294   5.606   1.353   3.324  0.1021  0.3964 -0.0519
  777TIP3    H1 2295   5.542   1.366   3.254  0.6930 -0.6906 -0.8178
  777TIP3    H2 2296   5.690   1.379   3.285  0.8261 -2.4773 -0.6077
  778TIP3   OH2 2297   1.101   3.869   4.119 -0.0701 -0.3959 -0.2734
  778TIP3    H1 2298   1.136   3.871   4.030  1.0619  0.3647  0.1676
  778TIP3    H2 2299   1.018   3.822   4.111  0.2685 -0.8104 -1.6355
  779TIP3   OH2 2300   0.401   2.568   3.954 -0.2652  0.5687 -0.2760
  779TIP3    H1 2301   0.477   2.528   3.997 -0.7874 -0.5094 -0.3211
  779TIP3    H2 2302   0.420   2.563   3.861 -1.6676 -2.5874 -0.5262
  780TIP3   OH2 2303   1.800   0.627   0.155  0.0401  0.6206 -0.6441
  780TIP3    H1 2304   1.846   0.545   0.173 -0.6861  0.7178  2.0792
  780TIP3    H2 2305   1.709   0.601   0.137 -0.6528  0.8346  2.1352
  781TIP3   OH2 2306   2.213   2.729   3.146  0.1412 -0.4378  0.6168
  781TIP3    H1 2307   2.156   2.680   3.086  0.6094 -3.0858  2.1916
  781TIP3    H2 2308   2.162   2.806   3.169 -2.2907 -1.9822  0.8443
  782TIP3   OH2 2309   6.400   2.828   0.790 -0.8976 -0.2597 -0.2702
  782TIP3    H1 2310   6.309   2.803   0.809 -0.6685  0.2170  1.6932
  782TIP3    H2 2311   6.414   2.907   0.843  1.0727 -1.1229  0.5827
  783TIP3   OH2 2312   4.315   2.866   4.569 -0.1063  0.3781 -0.0668
  783TIP3    H1 2313   4.235   2.887   4.617 -0.4185  0.1405 -0.4779
  783TIP3    H2 2314   4.291   2.792   4.513  0.3605  0.3905 -0.2899
  784TIP3   OH2 2315   0.878   3.484   1.610  0.1135  0.2594 -0.0450
  784TIP3    H1 2316   0.855   3.484   1.517  1.3893 -1.5357 -0.4104
  784TIP3    H2 2317   0.819   3.420   1.649  0.9657 -0.5256 -0.0224
  785TIP3   OH2 2318   6.613   5.325   0.571  0.1128 -0.3210  0.1304
  785TIP3    H1 2319   6.647   5.414   0.578 -0.8414  0.2405 -1.7758
  785TIP3    H2 2320   6.545   5.330   0.504 -0.0673 -2.4594  0.0759
  786TIP3   OH2 2321   7.068   0.742   2.823  0.3768  0.2415  0.1990
  786TIP3    H1 2322   7.052   0.827   2.865  1.6971  0.7242 -0.2049
  786TIP3    H2 2323   6.992   0.728   2.767 -0.0655  0.9441  0.6025
  787TIP3   OH2 2324   6.827   4.103   0.450  0.0921  0.1127  0.0897
  787TIP3    H1 2325   6.781   4.179   0.486 -0.5966  0.4337 -1.4027
  787TIP3    H2 2326   6.771   4.028   0.471  1.2022 -0.1810  2.3594
  788TIP3   OH2 2327   2.569   4.211   4.875 -0.3618  0.9755  0.3055
  788TIP3    H1 2328   2.519   4.233   4.797  0.1237  2.4284  0.3799
  788TIP3    H2 2329   2.652   4.177   4.842 -1.5725 -2.1245  0.1674
  789TIP3   OH2 2330   4.744   5.332   5.707 -0.0300 -0.0092  0.3104
  789TIP3    H1 2331   4.779   5.275   5.639  0.2008 -0.0976  0.5020
  789TIP3    H2 2332   4.687   5.275   5.759 -1.9286  0.5255 -1.0638
  790TIP3   OH2 2333   3.780   1.085   3.148  0.2616  0.3293  0.1867
  790TIP3    H1 2334   3.741   1.165   3.113 -0.5153 -0.9713 -2.1116
  790TIP3    H2 2335   3.854   1.115   3.200  0.5244  2.5116 -1.3211
  791TIP3   OH2 2336   2.463   4.982   5.303  0.1059  0.4229  0.3269
  791TIP3    H1 2337   2.532   5.028   5.349  1.1009 -1.2444  0.5702
  791TIP3    H2 2338   2.476   4.889   5.325 -1.7565 -0.0115 -0.2030
  792TIP3   OH2 2339   6.215   2.204   1.635 -0.2781  0.2337  0.2085
  792TIP3    H1 2340   6.135   2.255   1.641 -0.7517 -0.6531  2.8165
  792TIP3    H2 2341   6.281   2.258   1.679  0.2316  0.3499 -0.6791
  793TIP3   OH2 2342   0.204   3.184   4.698  0.0750  0.5004 -0.4180
  793TIP3    H1 2343   0.213   3.271   4.660  0.1055  0.2980 -0.8774
  793TIP3    H2 2344   0.160   3.199   4.782 -3.2277  0.6280 -2.0108
  794TIP3   OH2 2345   5.242   4.814   4.131 -0.4916 -0.1252 -0.2007
  794TIP3    H1 2346   5.278   4.727   4.115 -0.8434 -0.3622  0.2438
  794TIP3    H2 2347   5.248   4.859   4.047  1.1857 -0.0165 -0.0460
  795TIP3   OH2 2348   3.400   5.740   4.260  0.1231  0.1062 -0.0530
  795TIP3    H1 2349   3.329   5.803   4.273  0.2637 -0.0236  1.4410
  795TIP3    H2 2350   3.357   5.660   4.231 -0.1611  0.5352 -0.8411
  796TIP3   OH2 2351   7.106   0.335   2.376 -0.0827  0.1781  0.0694
  796TIP3    H1 2352   7.121   0.299   2.289  1.1091  0.3353  0.1973
  796TIP3    H2 2353   7.125   0.263   2.436 -0.6675  0.1412  0.2188
  797TIP3   OH2 2354   1.158   1.473   1.659 -0.1070 -0.1543  0.4066
  797TIP3    H1 2355   1.224   1.526   1.616 -1.5302  0.9610 -0.5176
  797TIP3    H2 2356   1.120   1.530   1.725 -2.2288  0.3819 -1.1568
  798TIP3   OH2 2357   0.863   0.701   2.661  0.4203  0.0198 -0.4124
  798TIP3    H1 2358   0.830   0.790   2.646 -2.1930 -0.9921 -1.2724
  798TIP3    H2 2359   0.881   0.667   2.573 -0.2626 -0.8513 -0.2275
  799TIP3   OH2 2360   5.544   4.312   1.963  0.2902 -0.4099 -0.0228
  799TIP3    H1 2361   5.490   4.233   1.963 -0.6639  0.1916 -1.5305
  799TIP3    H2 2362   5.622   4.288   2.013 -0.9037 -1.6271  1.3400
  800TIP3   OH2 2363   4.983   4.781   3.790 -0.3192  0.5260  0.2181
  800TIP3    H1 2364   4.967   4.792   3.884  0.6242  0.3260  0.4205
  800TIP3    H2 2365   4.908   4.821   3.747 -1.3012 -0.3488  1.0745
  801TIP3   OH2 2366   2.017   0.690   3.592 -0.1689  0.3378  0.3308
  801TIP3    H1 2367   2.006   0.631   3.518 -1.7152 -0.8918  1.4696
  801TIP3    H2 2368   2.054   0.635   3.661 -0.7192  0.9228  1.1156
  802TIP3   OH2 2369   0.593   1.016   4.537 -0.0960 -0.0155  0.0153
  802TIP3    H1 2370   0.555   1.047   4.455 -1.6812 -0.6509  0.4832
  802TIP3    H2 2371   0.519   1.007   4.596  1.0210  0.4014  1.5269
  803TIP3   OH2 2372   3.205   1.450   2.326  0.7320  0.0705 -0.3959
  803TIP3    H1 2373   3.207   1.476   2.234  1.2315 -0.5053 -0.5585
  803TIP3    H2 2374   3.112   1.437   2.345  0.7045 -1.3394 -1.2847
  804TIP3   OH2 2375   1.781   5.230   2.433 -0.0645  0.2515  0.3232
  804TIP3    H1 2376   1.838   5.266   2.501 -0.3372  0.6137  0.3633
  804TIP3    H2 2377   1.779   5.299   2.366 -0.3552  0.1862  0.2666
  805TIP3   OH2 2378   0.546   4.192   5.830 -0.3767  0.0219  0.1223
  805TIP3    H1 2379   0.517   4.283   5.819  0.1904  0.4649  1.9119
  805TIP3    H2 2380   0.638   4.194   5.802  0.2956  0.5488  2.2320
  806TIP3   OH2 2381   5.431   4.332   5.479  0.1774 -0.3999 -0.2926
  806TIP3    H1 2382   5.411   4.264   5.414 -0.7278  1.3287 -1.9336
  806TIP3    H2 2383   5.407   4.414   5.435  0.5696  0.9359  1.8628
  807TIP3   OH2 2384   3.621   4.059   2.728  0.6451  0.0552  0.4055
  807TIP3    H1 2385   3.619   4.113   2.650  0.6817 -2.7878 -1.7344
  807TIP3    H2 2386   3.529   4.036   2.744  0.7011  0.1098  0.8183
  808TIP3   OH2 2387   7.071   6.751   4.628  0.1723 -0.0012  0.5431
  808TIP3    H1 2388   7.067   6.834   4.675  0.8213  0.4741 -0.2239
  808TIP3    H2 2389   6.986   6.709   4.647  0.6620 -0.1629  2.6827
  809TIP3   OH2 2390   5.601   6.262   1.392  0.3824  0.2665 -0.0399
  809TIP3    H1 2391   5.609   6.220   1.307  1.3176  2.3906 -1.0950
  809TIP3    H2 2392   5.625   6.354   1.376  2.9533  0.2974  2.9310
  810TIP3   OH2 2393   5.849   1.281   3.926 -0.2173 -0.2513  0.1383
  810TIP3    H1 2394   5.863   1.375   3.916  0.3840 -0.4886 -1.8374
  810TIP3    H2 2395   5.909   1.254   3.995  1.4018  0.4548 -0.9479
  811TIP3   OH2 2396   2.167   1.366   1.626 -0.0188  0.3344  0.0390
  811TIP3    H1 2397   2.137   1.386   1.715  0.0263 -3.5152  1.1023
  811TIP3    H2 2398   2.252   1.410   1.620 -1.0852  2.7091  0.8766
  812TIP3   OH2 2399   0.703   1.915   0.139 -0.4132  0.0335 -0.4567
  812TIP3    H1 2400   0.664   1.866   0.212 -0.8043 -1.2897 -1.5186
  812TIP3    H2 2401   0.635   1.977   0.113 -1.3777 -1.4257 -1.5031
  813TIP3   OH2 2402   0.514   3.422   1.436  0.1706  0.2484 -0.1300
  813TIP3    H1 2403   0.532   3.437   1.343 -0.7491  0.1674 -0.3257
  813TIP3    H2 2404   0.529   3.329   1.449 -0.0600  0.1902 -0.2807
  814TIP3   OH2 2405   3.563   1.135   0.842  0.3091 -0.3556 -0.1551
  814TIP3    H1 2406   3.532   1.211   0.892 -0.7162 -0.8114 -0.0775
  814TIP3    H2 2407   3.607   1.080   0.907  0.6550 -0.0551 -0.1272
  815TIP3   OH2 2408   5.703   5.904   1.347  0.1355  0.1996 -0.2483
  815TIP3    H1 2409   5.721   5.811   1.343  1.3090  0.4450 -2.0010
  815TIP3    H2 2410   5.640   5.920   1.277 -1.3462  0.5002  1.1026
  816TIP3   OH2 2411   2.538   0.604   1.828  0.1091  0.3289  0.3806
  816TIP3    H1 2412   2.561   0.589   1.920  0.7455  1.0573  0.3540
  816TIP3    H2 2413   2.617   0.583   1.779 -1.0491 -2.8516 -0.3274
  817TIP3   OH2 2414   6.572   0.550   0.245 -0.0275 -0.9550  0.4860
  817TIP3    H1 2415   6.590   0.563   0.152 -0.3388  0.1884  0.5698
  817TIP3    H2 2416   6.503   0.485   0.247  1.1103 -2.2130 -0.0039
  818TIP3   OH2 2417   2.413   0.831   5.280 -0.0913  0.0063 -0.4560
  818TIP3    H1 2418   2.381   0.768   5.345  1.2296 -0.6656 -0.4229
  818TIP3    H2 2419   2.501   0.855   5.310 -0.7594  2.3525 -0.1487
  819TIP3   OH2 2420   2.645   2.306   5.673  0.0285 -0.1343  0.3014
  819TIP3    H1 2421   2.661   2.240   5.606 -0.7991 -0.4406  0.3945
  819TIP3    H2 2422   2.555   2.291   5.701 -0.3696  1.3699 -0.0498
  820TIP3   OH2 2423   3.360   5.907   2.036 -0.0885  0.4410 -0.4561
  820TIP3    H1 2424   3.309   5.913   2.117  0.2961 -1.1663 -0.0604
  820TIP3    H2 2425   3.306   5.950   1.970 -1.0701  0.4833  0.3519
  821TIP3   OH2 2426   6.671   2.312   5.794  0.4052  1.0919  0.1627
  821TIP3    H1 2427   6.703   2.393   5.754  1.2696  0.6437 -0.0800
  821TIP3    H2 2428   6.722   2.243   5.752 -0.9846  0.3311 -0.3118
  822TIP3   OH2 2429   4.148   2.675   0.628  0.1825  0.0843  0.7776
  822TIP3    H1 2430   4.103   2.630   0.557  0.8022 -0.6432  0.8335
  822TIP3    H2 2431   4.196   2.746   0.584 -0.9914  0.8604  0.7203
  823TIP3   OH2 2432   4.565   0.231   1.534  0.1100  0.8983  0.5157
  823TIP3    H1 2433   4.530   0.309   1.578  0.3803  1.0482  0.4713
  823TIP3    H2 2434   4.525   0.157   1.580 -0.7211  1.0704  0.0784
  824TIP3   OH2 2435   1.078   6.701   2.789  0.5523  0.1182 -0.2279
  824TIP3    H1 2436   1.121   6.654   2.861 -0.6576  0.4837  0.7520
  824TIP3    H2 2437   1.037   6.777   2.830 -1.0478 -0.2183 -1.1230
  825TIP3   OH2 2438   6.025   3.474   4.905 -0.3859 -0.4283 -0.5976
  825TIP3    H1 2439   5.965   3.413   4.862 -0.7305 -0.7005  0.2435
  825TIP3    H2 2440   5.974   3.511   4.977  0.4975 -0.7940  0.2347
  826TIP3   OH2 2441   1.806   0.798   5.436 -0.3204 -0.3249  0.0987
  826TIP3    H1 2442   1.745   0.753   5.495 -1.5129 -0.3608 -1.1079
  826TIP3    H2 2443   1.892   0.785   5.476 -1.0019 -0.9292  1.4526
  827TIP3   OH2 2444   3.279   2.107   2.413 -0.0859  0.1907  0.2827
  827TIP3    H1 2445   3.218   2.045   2.374 -1.3725  0.4349  1.7855
  827TIP3    H2 2446   3.278   2.183   2.355  2.1791 -1.3976 -2.0658
  828TIP3   OH2 2447   6.902   5.575   0.229 -0.1900 -0.0173 -0.5022
  828TIP3    H1 2448   6.855   5.632   0.168  0.1782 -2.1876 -2.9969
  828TIP3    H2 2449   6.994   5.583   0.204  0.1499  0.1251  0.7442
  829TIP3   OH2 2450   1.773   4.691   5.208  0.2615  0.1016 -0.0609
  829TIP3    H1 2451   1.681   4.682   5.233  0.8982 -1.1843  2.0255
  829TIP3    H2 2452   1.770   4.722   5.118 -2.2228 -2.0018 -0.8160
  830TIP3   OH2 2453   3.823   1.559   3.730  0.4791 -0.1995  0.2071
  830TIP3    H1 2454   3.765   1.561   3.806  0.1502  0.3739 -0.0500
  830TIP3    H2 2455   3.796   1.635   3.678  2.1779  0.7269  0.5974
  831TIP3   OH2 2456   0.805   3.677   2.146 -0.4527 -0.0105 -0.0952
  831TIP3    H1 2457   0.821   3.592   2.186 -1.1901  0.2399  0.7420
  831TIP3    H2 2458   0.882   3.729   2.169 -1.1087  0.2972  1.4793
  832TIP3   OH2 2459   0.891   6.216   1.451 -0.0113 -0.3195 -0.2167
  832TIP3    H1 2460   0.944   6.218   1.531  0.5551 -2.6598 -0.4676
  832TIP3    H2 2461   0.811   6.171   1.476  0.1385 -1.0041 -0.9404
  833TIP3   OH2 2462   0.569   6.412   4.257 -0.2134 -0.5369  0.0897
  833TIP3    H1 2463   0.647   6.468   4.255 -0.7999  0.2956 -1.5166
  833TIP3    H2 2464   0.514   6.449   4.326 -0.6383  0.9862 -1.0129
  834TIP3   OH2 2465   6.926   4.280   0.181 -0.0769 -0.4278  0.3703
  834TIP3    H1 2466   6.948   4.317   0.096  0.0090 -0.9779  0.1468
  834TIP3    H2 2467   6.983   4.204   0.190 -0.9827 -1.1348  0.3446
  835TIP3   OH2 2468   2.427   5.152   1.655  0.2210 -0.2218 -0.2950
  835TIP3    H1 2469   2.494   5.203   1.608  0.5957 -1.2525 -0.9174
  835TIP3    H2 2470   2.344   5.189   1.624  0.4848  0.2046 -0.5157
  836TIP3   OH2 2471   0.409   5.117   3.872  0.2158 -0.0141  0.8665
  836TIP3    H1 2472   0.500   5.093   3.891  0.3478  0.6559  1.1047
  836TIP3    H2 2473   0.406   5.212   3.886 -0.5968 -0.0784  1.1508
  837TIP3   OH2 2474   0.668   5.900   4.492  0.0277  0.2647  0.4800
  837TIP3    H1 2475   0.677   5.902   4.397 -1.4155 -0.8514  0.2776
  837TIP3    H2 2476   0.758   5.906   4.525  0.5511  0.5961 -0.9432
  838TIP3   OH2 2477   5.722   5.366   4.961 -0.0985  0.4243  0.2566
  838TIP3    H1 2478   5.667   5.382   5.037  0.7171  0.2849  0.8965
  838TIP3    H2 2479   5.810   5.355   4.997  0.4984  1.4528 -0.8030
  839TIP3   OH2 2480   2.916   1.158   2.195 -0.2043 -0.0755  0.2075
  839TIP3    H1 2481   2.859   1.091   2.159  0.4187  0.1658 -1.3052
  839TIP3    H2 2482   2.999   1.113   2.211 -0.8142 -0.4716  2.5776
  840TIP3   OH2 2483   0.542   3.153   1.482  0.3770  0.0143  0.2328
  840TIP3    H1 2484   0.464   3.128   1.531  0.1080 -0.5137 -0.4523
  840TIP3    H2 2485   0.532   3.111   1.397  1.3801 -0.0198  0.1125
  841TIP3   OH2 2486   4.096   0.118   1.330 -0.5816 -0.3619 -0.2771
  841TIP3    H1 2487   4.152   0.162   1.394  0.8134  0.6629 -2.1036
  841TIP3    H2 2488   4.018   0.095   1.379  0.8812 -0.6604  2.0616
  842TIP3   OH2 2489   6.499   5.844   2.571 -0.0669 -0.0210 -0.2193
  842TIP3    H1 2490   6.445   5.827   2.493 -2.5350 -0.7992  1.5476
  842TIP3    H2 2491   6.524   5.936   2.562  0.6679 -0.3676 -2.4488
  843TIP3   OH2 2492   6.980   5.455   3.630  0.0353  0.2998 -0.1917
  843TIP3    H1 2493   7.014   5.375   3.670 -0.4046 -0.3012 -0.9806
  843TIP3    H2 2494   6.977   5.519   3.701  2.9920  0.4750 -0.0873
  844TIP3   OH2 2495   4.034   3.816   1.174  0.3510  0.1671 -0.5583
  844TIP3    H1 2496   4.124   3.790   1.157  1.1824  1.4403  1.6008
  844TIP3    H2 2497   4.013   3.777   1.259 -1.8243 -1.6517 -1.8187
  845TIP3   OH2 2498   5.341   4.861   5.227 -0.2548  0.0878 -0.7848
  845TIP3    H1 2499   5.249   4.883   5.242 -0.2329 -0.8851  1.1743
  845TIP3    H2 2500   5.382   4.944   5.202 -1.5320  0.6572 -1.0954
  846TIP3   OH2 2501   4.089   4.774   3.037 -0.0751 -0.3271 -0.0233
  846TIP3    H1 2502   4.070   4.841   3.103  1.0814 -1.5030  1.5701
  846TIP3    H2 2503   4.015   4.714   3.041 -0.1135 -0.2748  0.0505
  847TIP3   OH2 2504   0.361   0.914   1.783  0.5476 -0.4741  0.0231
  847TIP3    H1 2505   0.403   0.937   1.866  0.9996  0.5606 -0.4809
  847TIP3    H2 2506   0.405   0.833   1.756  2.5092  0.7427 -0.6557
  848TIP3   OH2 2507   1.079   5.771   5.885 -0.4169  0.3411  0.5153
  848TIP3    H1 2508   1.151   5.761   5.822 -0.1310  1.7721  0.5766
  848TIP3    H2 2509   1.001   5.772   5.830 -0.4899 -1.8549  0.4973
  849TIP3   OH2 2510   2.430   4.036   3.760  0.1817  0.0403 -0.5702
  849TIP3    H1 2511   2.513   4.064   3.720 -0.6755  1.5543 -1.3848
  849TIP3    H2 2512   2.388   4.118   3.787 -0.1237 -0.8063  1.8001
  850TIP3   OH2 2513   6.770   1.732   3.446 -0.0531 -0.0181 -0.7210
  850TIP3    H1 2514   6.747   1.717   3.355  0.8215 -1.4531 -0.7240
  850TIP3    H2 2515   6.694   1.702   3.496 -0.2681  0.1520 -0.9445
  851TIP3   OH2 2516   3.828   0.931   5.208 -0.0159 -0.3645  0.6360
  851TIP3    H1 2517   3.826   0.913   5.114  0.4299  0.3557  0.4806
  851TIP3    H2 2518   3.745   0.898   5.241  0.7144 -2.6373  0.3775
  852TIP3   OH2 2519   5.943   2.409   0.466  0.1533 -0.2519  0.1327
  852TIP3    H1 2520   5.863   2.436   0.421 -0.6620 -0.1088  1.6157
  852TIP3    H2 2521   6.014   2.435   0.407 -0.8087  1.0602 -0.4943
  853TIP3   OH2 2522   5.490   3.222   3.199  0.1170  0.4729  0.1335
  853TIP3    H1 2523   5.428   3.164   3.154  0.2156  1.1935 -0.9728
  853TIP3    H2 2524   5.455   3.230   3.287  0.1976 -1.3920  0.3807
  854TIP3   OH2 2525   1.943   5.704   2.928  0.2010 -0.1929 -0.2380
  854TIP3    H1 2526   1.888   5.733   2.854 -0.4977  2.9729  1.3299
  854TIP3    H2 2527   2.027   5.748   2.913 -0.1477  1.0075  1.0733
  855TIP3   OH2 2528   6.572   2.474   3.790  0.0282 -0.0412 -0.6071
  855TIP3    H1 2529   6.649   2.510   3.835 -0.0580  0.6844 -1.0199
  855TIP3    H2 2530   6.596   2.383   3.772  1.8415  0.7808 -2.9330
  856TIP3   OH2 2531   2.748   0.962   2.115 -0.0695  0.2405 -0.3194
  856TIP3    H1 2532   2.749   0.898   2.044 -1.4725  0.0034 -0.1618
  856TIP3    H2 2533   2.746   0.910   2.195 -0.1436  0.4884 -0.1593
  857TIP3   OH2 2534   2.221   5.794   2.985  0.4580  0.3575  0.2642
  857TIP3    H1 2535   2.255   5.754   3.064 -0.0190  2.9165  1.8754
  857TIP3    H2 2536   2.298   5.830   2.941  0.9350 -2.3675 -1.3665
  858TIP3   OH2 2537   2.654   5.047   2.180 -0.5723 -0.7352 -0.3435
  858TIP3    H1 2538   2.568   5.090   2.177  0.7707  2.4179  1.5076
  858TIP3    H2 2539   2.707   5.095   2.116  0.4780 -0.9460  0.3423
  859TIP3   OH2 2540   6.073   1.232   4.238 -0.1093 -0.4071 -0.7138
  859TIP3    H1 2541   6.042   1.321   4.224 -0.9265 -1.0070 -3.1262
  859TIP3    H2 2542   6.073   1.192   4.151 -0.1434 -2.9020  0.3435
  860TIP3   OH2 2543   3.331   0.795   5.852 -0.5455  0.5607  0.6255
  860TIP3    H1 2544   3.349   0.751   5.935 -0.9169 -1.2062 -0.1823
  860TIP3    H2 2545   3.353   0.731   5.785 -1.1281  1.6125 -0.6316
  861TIP3   OH2 2546   2.682   6.005   3.457 -0.0987  0.8033 -0.3135
  861TIP3    H1 2547   2.596   6.002   3.414 -0.3655 -1.2052  0.2643
  861TIP3    H2 2548   2.745   5.985   3.388 -0.2397  0.7344 -0.4211
  862TIP3   OH2 2549   1.482   0.406   4.162  0.0617  0.9054  0.2590
  862TIP3    H1 2550   1.400   0.368   4.193  0.4073  0.2901  0.4257
  862TIP3    H2 2551   1.547   0.336   4.170  0.6930  1.4931  0.4855
  863TIP3   OH2 2552   1.756   3.811   2.548 -0.2835 -0.5801 -0.2519
  863TIP3    H1 2553   1.706   3.802   2.467 -0.1910  0.0006 -0.3808
  863TIP3    H2 2554   1.824   3.744   2.543 -0.0226 -0.2741 -0.8448
  864TIP3   OH2 2555   2.168   4.839   1.444 -0.1561  0.1068 -0.6394
  864TIP3    H1 2556   2.226   4.862   1.371 -0.3319 -1.1961 -1.2035
  864TIP3    H2 2557   2.223   4.849   1.522  0.2724  0.6950 -1.0057
  865TIP3   OH2 2558   5.634   1.444   2.927  0.1249 -0.6816  0.0167
  865TIP3    H1 2559   5.662   1.499   3.001 -2.3625  1.0824 -0.2156
  865TIP3    H2 2560   5.579   1.377   2.967 -1.3114  0.3372 -0.1283
  866TIP3   OH2 2561   5.412   4.465   1.492  0.0217 -0.2070 -0.4885
  866TIP3    H1 2562   5.344   4.532   1.486 -0.2708 -0.1699  2.0071
  866TIP3    H2 2563   5.494   4.513   1.480 -0.2386  0.4242  0.1463
  867TIP3   OH2 2564   6.470   1.966   5.486  0.0545  0.1070 -0.2615
  867TIP3    H1 2565   6.523   1.936   5.560  0.5884 -1.1880 -1.1412
  867TIP3    H2 2566   6.462   1.890   5.429 -0.8941  0.9004 -1.2351
  868TIP3   OH2 2567   1.775   2.410   4.433 -0.5871 -0.4761 -0.3023
  868TIP3    H1 2568   1.744   2.416   4.342  0.9158  2.1236 -0.7052
  868TIP3    H2 2569   1.774   2.500   4.465  0.6896 -1.1089  1.6614
  869TIP3   OH2 2570   2.478   0.005   5.573 -0.8726  0.1772  0.2678
  869TIP3    H1 2571   2.553   0.065   5.576  0.2205 -1.1594  0.9673
  869TIP3    H2 2572   2.461  -0.016   5.665 -1.7624  0.0355  0.0783
  870TIP3   OH2 2573   2.510   2.595   3.817  0.1094  0.2795 -0.0370
  870TIP3    H1 2574   2.561   2.577   3.896 -1.3164  1.1028  1.0973
  870TIP3    H2 2575   2.557   2.668   3.775  1.0152 -0.3287 -0.1229
  871TIP3   OH2 2576   1.415   4.076   5.664  0.0168  0.1812 -0.2929
  871TIP3    H1 2577   1.452   4.116   5.586 -0.1269  0.8858 -0.0069
  871TIP3    H2 2578   1.468   3.998   5.679  0.6034  0.5171 -0.5941
  872TIP3   OH2 2579   2.216   5.104   5.276  0.2146  0.0348  0.1697
  872TIP3    H1 2580   2.166   5.071   5.201  1.3013  1.4152 -1.2457
  872TIP3    H2 2581   2.304   5.070   5.262 -0.2029 -2.3948  2.6491
  873TIP3   OH2 2582   2.686   3.584   2.058  0.2566 -0.4084  0.0976
  873TIP3    H1 2583   2.706   3.557   1.969  1.9901  0.6707  0.1096
  873TIP3    H2 2584   2.733   3.521   2.114 -0.1320 -0.5856  0.2235
  874TIP3   OH2 2585   5.047   2.835   4.420 -0.1408  0.2110  0.0574
  874TIP3    H1 2586   5.058   2.741   4.431  0.3920  0.2256 -0.2760
  874TIP3    H2 2587   4.987   2.862   4.489  1.4673 -0.0108  1.5949
  875TIP3   OH2 2588   1.804   1.732   4.001 -0.2312 -0.1403 -0.2319
  875TIP3    H1 2589   1.842   1.656   4.044  0.6659  0.3180 -0.1974
  875TIP3    H2 2590   1.877   1.772   3.953 -0.7871  0.4474 -0.6144
  876TIP3   OH2 2591   0.768   6.245   3.231 -0.1815  0.1103  0.1901
  876TIP3    H1 2592   0.853   6.251   3.276 -0.4448 -0.8541  0.8444
  876TIP3    H2 2593   0.747   6.152   3.231 -1.1018  0.3029 -0.2513
  877TIP3   OH2 2594   0.304   2.363   1.525 -0.4508  0.4441  0.6540
  877TIP3    H1 2595   0.224   2.415   1.523 -1.5850 -1.2202  1.0915
  877TIP3    H2 2596   0.344   2.378   1.439 -1.9801  0.1839 -0.1328
  878TIP3   OH2 2597   1.625   0.938   0.786 -0.2014  0.0609  0.7060
  878TIP3    H1 2598   1.664   1.013   0.741 -1.3387 -0.3586 -1.0518
  878TIP3    H2 2599   1.537   0.967   0.810 -0.4574 -0.5231  0.5020
  879TIP3   OH2 2600   0.549   3.714   0.613 -0.5412 -0.5387 -0.2385
  879TIP3    H1 2601   0.544   3.670   0.698 -1.4387  0.9414  0.5240
  879TIP3    H2 2602   0.596   3.653   0.557  0.6859 -1.2790  1.5085
  880TIP3   OH2 2603   4.690   4.649   1.709  0.2434 -0.0026 -0.1761
  880TIP3    H1 2604   4.730   4.569   1.743  1.9066 -0.3496 -2.7252
  880TIP3    H2 2605   4.596   4.630   1.709  0.5236 -1.5310  0.2945
  881TIP3   OH2 2606   5.011   6.510   0.219 -0.0622 -0.9307 -0.1964
  881TIP3    H1 2607   4.921   6.535   0.239  0.1528 -1.4831  1.5685
  881TIP3    H2 2608   5.059   6.593   0.218 -0.4399 -0.7093 -0.3903
  882TIP3   OH2 2609   6.024   2.553   4.542  0.0471 -0.3470 -0.2476
  882TIP3    H1 2610   5.987   2.476   4.499 -2.4522  0.6606 -0.0964
  882TIP3    H2 2611   6.045   2.614   4.471 -0.5334 -0.1389 -0.2455
  883TIP3   OH2 2612   6.730   4.843   4.597 -0.0197  0.2761 -0.1439
  883TIP3    H1 2613   6.661   4.853   4.532 -0.0947 -3.6144 -0.8827
  883TIP3    H2 2614   6.704   4.767   4.649  2.4440  0.2593  1.2332
  884TIP3   OH2 2615   2.876   2.707   5.622 -0.0897  0.1000  0.0911
  884TIP3    H1 2616   2.934   2.663   5.685 -0.6859  1.0721  1.3717
  884TIP3    H2 2617   2.801   2.648   5.613  0.6624 -0.7357 -0.8706
  885TIP3   OH2 2618   2.640   2.797   3.674  0.0873 -0.0235  0.1515
  885TIP3    H1 2619   2.678   2.876   3.712  0.0213  0.3202 -0.4840
  885TIP3    H2 2620   2.582   2.829   3.604 -2.5866 -0.4414  2.0480
  886TIP3   OH2 2621   2.075   4.944   3.649  0.4645  0.3805  0.1082
  886TIP3    H1 2622   1.991   4.911   3.617 -0.6265 -0.5584  3.4681
  886TIP3    H2 2623   2.139   4.877   3.623 -0.2964 -0.2371 -0.2243
  887TIP3   OH2 2624   3.660   0.637   2.529  0.2980  0.3141 -0.2005
  887TIP3    H1 2625   3.672   0.721   2.574 -0.0911 -0.1902  0.8910
  887TIP3    H2 2626   3.566   0.634   2.511 -0.0632 -0.7135  1.5524
  888TIP3   OH2 2627   3.800   5.220   2.983  0.2206 -0.0365  0.2460
  888TIP3    H1 2628   3.829   5.135   2.952  1.9142  0.2757  0.8645
  888TIP3    H2 2629   3.706   5.209   2.998  0.7778 -2.5942  2.7330
  889TIP3   OH2 2630   6.080   6.099   5.003 -0.7862  0.4046  0.0263
  889TIP3    H1 2631   6.164   6.144   4.996 -0.2443 -0.5857 -0.0615
  889TIP3    H2 2632   6.072   6.077   5.096 -0.1401 -0.9445 -0.2027
  890TIP3   OH2 2633   0.258   1.580   0.714 -0.0896  0.5662  0.0286
  890TIP3    H1 2634   0.204   1.598   0.637 -0.6113  1.8573  0.6820
  890TIP3    H2 2635   0.242   1.487   0.733 -0.2899  0.3441 -1.1412
  891TIP3   OH2 2636   6.076   4.098   0.719  0.2930 -0.6666 -0.1797
  891TIP3    H1 2637   6.055   4.122   0.629  1.8384 -1.0622 -0.6777
  891TIP3    H2 2638   6.023   4.019   0.735  2.4868 -2.6583 -1.9938
  892TIP3   OH2 2639   3.344   2.588   1.214 -0.6397 -0.1881  0.4774
  892TIP3    H1 2640   3.423   2.535   1.224 -0.4360 -0.0942 -0.4801
  892TIP3    H2 2641   3.278   2.545   1.268 -0.4208 -1.3178 -0.1255
  893TIP3   OH2 2642   5.144   5.434   1.737  0.4900  0.0736  0.1374
  893TIP3    H1 2643   5.230   5.458   1.705  0.6644 -1.5337 -0.7083
  893TIP3    H2 2644   5.158   5.352   1.784 -0.6284 -0.4571 -0.4145
  894TIP3   OH2 2645   2.172   2.898   1.298  0.4748  0.1620 -0.0508
  894TIP3    H1 2646   2.247   2.908   1.356  1.1578  2.9070 -1.2513
  894TIP3    H2 2647   2.124   2.980   1.305 -2.0659 -1.2024  0.0631
  895TIP3   OH2 2648   6.960   3.816   1.012  0.3921 -0.2420 -0.0086
  895TIP3    H1 2649   6.871   3.787   0.990  0.5914  1.0155 -2.8690
  895TIP3    H2 2650   6.972   3.897   0.963  2.4926  0.6739  1.8293
  896TIP3   OH2 2651   2.137   0.585   4.000 -0.1773 -0.2231  0.3645
  896TIP3    H1 2652   2.106   0.508   4.048 -0.1450 -1.1860 -1.0884
  896TIP3    H2 2653   2.232   0.581   4.009 -0.2180  0.1029  0.9553
  897TIP3   OH2 2654   0.146   3.694   1.066  0.0048  0.3747  0.0036
  897TIP3    H1 2655   0.171   3.768   1.122 -0.7983 -0.4761  1.5646
  897TIP3    H2 2656   0.204   3.623   1.094 -2.1875 -0.8595  1.8072
  898TIP3   OH2 2657   6.307   5.722   3.240 -0.3527  0.0991  0.0097
  898TIP3    H1 2658   6.393   5.691   3.209  0.2942  2.3878 -0.6503
  898TIP3    H2 2659   6.244   5.676   3.185  0.5724  0.1512 -1.1347
  899TIP3   OH2 2660   0.596   6.473   3.336 -0.5759 -0.7547  0.5977
  899TIP3    H1 2661   0.679   6.472   3.383  0.7922 -0.4616 -1.6447
  899TIP3    H2 2662   0.567   6.381   3.337  0.7787 -1.2191 -0.1864
  900TIP3   OH2 2663   5.824   5.338   0.933 -0.7296 -0.7589  0.2839
  900TIP3    H1 2664   5.765   5.301   0.999 -0.7556 -0.5028  0.4045
  900TIP3    H2 2665   5.911   5.331   0.971 -0.5276 -2.3046 -0.4163
  901TIP3   OH2 2666   3.763   0.158   4.313 -0.6017  0.0723  0.5570
  901TIP3    H1 2667   3.857   0.140   4.306 -0.4985 -0.4250  2.5976
  901TIP3    H2 2668   3.723   0.100   4.248  0.5208  0.9014 -0.9477
  902TIP3   OH2 2669   5.637   3.598   5.423 -0.3283  0.2722 -0.0714
  902TIP3    H1 2670   5.680   3.536   5.364 -1.6024  0.5041 -1.2966
  902TIP3    H2 2671   5.568   3.547   5.465  0.7825  0.0207  1.5226
  903TIP3   OH2 2672   1.183   2.634   0.816 -0.2573  0.0508  0.9764
  903TIP3    H1 2673   1.109   2.653   0.759  1.0874  1.6296 -0.3353
  903TIP3    H2 2674   1.221   2.719   0.836  2.9791 -0.7736 -0.9110
  904TIP3   OH2 2675   5.397   2.262   4.104  0.4968  0.1451 -0.0716
  904TIP3    H1 2676   5.360   2.206   4.174 -1.4131  1.4719  0.0615
  904TIP3    H2 2677   5.467   2.311   4.147 -1.5960  2.0203  1.4216
  905TIP3   OH2 2678   7.000   0.051   2.633  0.2061  0.1080 -0.1395
  905TIP3    H1 2679   7.001   0.115   2.705  0.1881  2.0651 -1.7896
  905TIP3    H2 2680   6.943   0.091   2.567  1.6914 -0.7311 -2.0099
  906TIP3   OH2 2681   2.268   1.273   4.453 -0.4245 -0.2310  0.1636
  906TIP3    H1 2682   2.321   1.257   4.376 -2.4945  0.1924 -1.4476
  906TIP3    H2 2683   2.292   1.361   4.482  0.2793 -0.3497 -0.0649
  907TIP3   OH2 2684   0.025   1.453   4.299 -0.3325  0.0597  0.1392
  907TIP3    H1 2685   0.075   1.433   4.220  0.5463  1.6262  0.2401
  907TIP3    H2 2686  -0.040   1.518   4.271  0.8668  1.6684  0.8956
  908TIP3   OH2 2687   5.122   1.313   1.643  0.8658  0.0774  0.0358
  908TIP3    H1 2688   5.192   1.378   1.650  1.2109 -0.3743  1.0488
  908TIP3    H2 2689   5.069   1.326   1.722  0.6664 -0.5495  0.0086
  909TIP3   OH2 2690   4.286   2.877   0.467  0.7144  0.2253 -0.4199
  909TIP3    H1 2691   4.360   2.925   0.505  0.1491  1.9729 -1.4029
  909TIP3    H2 2692   4.217   2.943   0.458 -1.2041 -1.4524  0.9624
  910TIP3   OH2 2693   2.829   5.954   3.207  0.0043  0.8126 -0.2165
  910TIP3    H1 2694   2.792   5.916   3.128  0.3550 -0.4887  0.2331
  910TIP3    H2 2695   2.919   5.922   3.210 -0.3542 -0.1071  1.3122
  911TIP3   OH2 2696   5.903   5.546   0.750 -0.8698  0.2297  0.3048
  911TIP3    H1 2697   5.866   5.487   0.815 -0.0437  0.0982  0.6667
  911TIP3    H2 2698   5.986   5.576   0.789 -0.3827  0.1805 -0.6665
  912TIP3   OH2 2699   6.375   2.875   5.390  0.4566  0.3238 -0.5117
  912TIP3    H1 2700   6.436   2.826   5.336 -1.6626 -1.6548 -1.2916
  912TIP3    H2 2701   6.313   2.913   5.328 -1.1130 -0.6781  0.3502
  913TIP3   OH2 2702   7.073   2.784   2.798 -0.1945 -0.2295 -0.1493
  913TIP3    H1 2703   7.045   2.782   2.889  0.8756 -0.6438  0.1871
  913TIP3    H2 2704   7.113   2.698   2.783  2.5282  0.8946 -0.0376
  914TIP3   OH2 2705   6.225   1.906   4.952 -0.1722 -0.6362  0.4624
  914TIP3    H1 2706   6.311   1.890   4.990 -0.0946 -0.2099  0.4759
  914TIP3    H2 2707   6.241   1.972   4.885 -0.8705  1.4355  2.2095
  915TIP3   OH2 2708   0.237   1.298   1.651 -0.4624 -0.4243 -0.2105
  915TIP3    H1 2709   0.260   1.216   1.608  0.2195  0.6863 -2.0782
  915TIP3    H2 2710   0.304   1.360   1.623 -2.5789  1.5323 -1.3214
  916TIP3   OH2 2711   2.494   3.400   1.835  0.0661 -0.3062 -0.3509
  916TIP3    H1 2712   2.459   3.419   1.748  0.9196 -0.5744 -0.7642
  916TIP3    H2 2713   2.558   3.469   1.851 -0.7319  0.2764  0.4692
  917TIP3   OH2 2714   2.761   2.260   2.302 -0.3039  0.0743 -0.2430
  917TIP3    H1 2715   2.761   2.165   2.290  0.4060  0.0294  0.0642
  917TIP3    H2 2716   2.669   2.282   2.321 -0.9335 -0.2273 -2.6483
  918TIP3   OH2 2717   2.987   2.930   2.394 -0.4452 -0.3630  0.5327
  918TIP3    H1 2718   2.971   2.837   2.381 -2.0381  0.2678 -3.4879
  918TIP3    H2 2719   3.082   2.939   2.394 -0.2604 -1.8705 -0.7389
  919TIP3   OH2 2720   2.261   3.887   2.874 -0.4898  1.0166 -0.0966
  919TIP3    H1 2721   2.235   3.932   2.954  0.3579  1.0234  0.1877
  919TIP3    H2 2722   2.192   3.907   2.811 -1.6672  0.2235  0.8935
  920TIP3   OH2 2723   0.430   5.260   0.586  1.0338  0.1768  0.4587
  920TIP3    H1 2724   0.361   5.201   0.556  0.1953  1.2581  0.2016
  920TIP3    H2 2725   0.488   5.270   0.510  0.8340  0.1745  0.3056
  921TIP3   OH2 2726   6.239   1.074   2.539  0.1173 -0.1905  0.3939
  921TIP3    H1 2727   6.273   0.989   2.569  1.1335  0.2001  0.4009
  921TIP3    H2 2728   6.257   1.134   2.612 -0.0834  0.1451  0.1697
  922TIP3   OH2 2729   6.687   3.591   5.827 -0.3364 -0.1113 -0.3357
  922TIP3    H1 2730   6.683   3.496   5.820  1.1158 -0.1814 -0.3282
  922TIP3    H2 2731   6.759   3.617   5.769  0.0634  0.8797  0.5772
  923TIP3   OH2 2732   0.579   2.172   2.290 -0.3538 -0.4134  0.0691
  923TIP3    H1 2733   0.487   2.157   2.268 -0.4187  1.1918 -0.9099
  923TIP3    H2 2734   0.622   2.088   2.276 -1.4194 -0.8171 -0.8719
  924TIP3   OH2 2735   4.748   4.895   5.518  0.0316 -0.4194  0.7994
  924TIP3    H1 2736   4.752   4.856   5.431 -0.8845 -1.0574  1.0287
  924TIP3    H2 2737   4.824   4.860   5.564 -0.6966 -1.8417  0.9557
  925TIP3   OH2 2738   2.463   0.462   5.694 -0.2816 -0.1631  0.1358
  925TIP3    H1 2739   2.390   0.484   5.751 -0.4221 -2.2173  0.8515
  925TIP3    H2 2740   2.518   0.404   5.747 -0.1056 -1.6768 -1.5689
  926TIP3   OH2 2741   0.812   4.208   5.789  0.4000  0.8249 -0.1299
  926TIP3    H1 2742   0.851   4.125   5.816 -0.6678 -0.2509 -1.7260
  926TIP3    H2 2743   0.862   4.234   5.712  0.8127  1.7672  0.4316
  927TIP3   OH2 2744   1.161   4.430   2.245 -0.0931 -0.0015  0.2606
  927TIP3    H1 2745   1.066   4.420   2.253 -0.3956  2.5195  0.3452
  927TIP3    H2 2746   1.175   4.524   2.235  2.3241 -0.4366 -1.0468
  928TIP3   OH2 2747   6.938   4.432   1.881  0.2219 -0.0998  0.0148
  928TIP3    H1 2748   6.952   4.413   1.788 -1.8261 -0.7800 -0.2061
  928TIP3    H2 2749   6.862   4.379   1.905  0.7187  0.0592  2.0951
  929TIP3   OH2 2750   5.894   6.599   2.455 -0.2908  0.3462 -0.4086
  929TIP3    H1 2751   5.965   6.583   2.393  0.3576  1.4820  0.0147
  929TIP3    H2 2752   5.893   6.520   2.510  1.1756  0.6277  0.0701
  930TIP3   OH2 2753   0.608   4.851   2.626  0.4255  0.5523  0.0599
  930TIP3    H1 2754   0.523   4.892   2.609 -0.0583 -0.1468  0.7599
  930TIP3    H2 2755   0.641   4.828   2.538  0.6248  2.2257 -0.3321
  931TIP3   OH2 2756   4.976   1.690   3.557 -0.3442  0.5508 -0.2212
  931TIP3    H1 2757   4.940   1.602   3.563  0.4724  0.2837  1.1254
  931TIP3    H2 2758   4.916   1.745   3.609  0.5450  0.2944  1.1295
  932TIP3   OH2 2759   2.713   6.177   0.013  0.0507 -0.6806  0.1988
  932TIP3    H1 2760   2.730   6.090   0.049  2.4628  0.6032  2.4611
  932TIP3    H2 2761   2.678   6.227   0.086  1.2204  0.9485 -0.2940
  933TIP3   OH2 2762   4.614   4.704   4.033 -0.0170  0.6094 -0.3274
  933TIP3    H1 2763   4.648   4.619   4.063  2.6123  1.3829 -0.8225
  933TIP3    H2 2764   4.557   4.734   4.103 -1.7917 -1.9496 -0.5496
  934TIP3   OH2 2765   3.307   5.595   1.903  0.3876 -0.4505 -0.7353
  934TIP3    H1 2766   3.371   5.578   1.971  1.3281  0.3571 -1.3896
  934TIP3    H2 2767   3.349   5.659   1.845 -0.3857 -1.0890 -2.0630
  935TIP3   OH2 2768   0.275   3.442   0.165 -0.3998  0.0625  0.3600
  935TIP3    H1 2769   0.369   3.426   0.168 -0.5070 -0.4504  1.7876
  935TIP3    H2 2770   0.251   3.429   0.073  1.1035  1.4242 -0.2692
  936TIP3   OH2 2771   6.687   3.945   2.081  0.7773 -0.0692 -0.2695
  936TIP3    H1 2772   6.676   3.881   2.010 -0.5902  0.5264 -0.6207
  936TIP3    H2 2773   6.704   3.892   2.158 -0.3707 -0.8833 -0.5486
  937TIP3   OH2 2774   0.624   5.123   5.094 -0.2888  0.2271  0.1254
  937TIP3    H1 2775   0.635   5.189   5.025 -1.3801  0.0770 -0.2173
  937TIP3    H2 2776   0.706   5.073   5.092  0.7991  1.9229  0.8020
  938TIP3   OH2 2777   2.048   1.285   0.910 -0.0210  0.6317 -0.0082
  938TIP3    H1 2778   2.089   1.199   0.904  0.0031  0.5779  0.8076
  938TIP3    H2 2779   2.113   1.341   0.952 -1.1559  0.2482  2.4270
  939TIP3   OH2 2780   2.304   3.668   2.482 -0.3241 -0.0340  0.0538
  939TIP3    H1 2781   2.299   3.635   2.393 -0.3525 -2.1992  0.7985
  939TIP3    H2 2782   2.304   3.763   2.473 -0.3895 -0.2099 -2.2285
  940TIP3   OH2 2783   2.455   5.565   4.941  0.3543  0.2796 -0.3995
  940TIP3    H1 2784   2.485   5.601   5.025 -1.9254  2.2453 -0.3078
  940TIP3    H2 2785   2.426   5.476   4.962 -1.1397  1.0739  1.2004
  941TIP3   OH2 2786   0.511   6.576   3.976  0.7184  0.2540 -0.5222
  941TIP3    H1 2787   0.547   6.663   3.960  0.7190  0.8076  2.0283
  941TIP3    H2 2788   0.525   6.562   4.070 -0.0219 -2.1646 -0.7234
  942TIP3   OH2 2789   2.937   5.012   4.935  0.0615  0.0069 -0.0856
  942TIP3    H1 2790   2.900   4.987   4.850 -3.6404 -1.6744  1.7840
  942TIP3    H2 2791   2.897   5.097   4.954 -0.7042 -0.5185  0.7412
  943TIP3   OH2 2792   4.340   4.390   0.657 -0.2024 -0.1072 -0.6808
  943TIP3    H1 2793   4.251   4.415   0.684 -0.3629 -1.5678  0.2676
  943TIP3    H2 2794   4.379   4.472   0.625 -1.2981  0.9365  0.5116
  944TIP3   OH2 2795   5.613   5.473   0.187  0.5876 -0.2937  0.2320
  944TIP3    H1 2796   5.612   5.441   0.097 -0.5009 -1.8684  0.7451
  944TIP3    H2 2797   5.567   5.557   0.184 -2.6800 -1.9306 -0.2369
  945TIP3   OH2 2798   6.054   5.867   5.190  0.8474  0.2682  0.1896
  945TIP3    H1 2799   6.149   5.858   5.198  0.7762 -1.2452 -0.3737
  945TIP3    H2 2800   6.033   5.826   5.106 -0.4958 -1.0179  1.1065
  946TIP3   OH2 2801   4.287   0.022   3.559  0.5913  0.2012  0.7165
  946TIP3    H1 2802   4.284   0.095   3.621  0.6932  0.1470  0.7864
  946TIP3    H2 2803   4.200  -0.016   3.562  0.8214 -0.2995  1.4296
  947TIP3   OH2 2804   5.335   5.037   5.543 -0.1509 -0.2951 -0.5617
  947TIP3    H1 2805   5.410   5.087   5.512 -0.0778 -0.2035 -0.2411
  947TIP3    H2 2806   5.367   4.947   5.550  0.1018 -0.1633  0.1221
  948TIP3   OH2 2807   6.551   4.815   4.378  0.0343  0.0890  0.3598
  948TIP3    H1 2808   6.569   4.748   4.312  0.2815 -1.8552  2.3077
  948TIP3    H2 2809   6.492   4.772   4.440 -0.2484  1.8779  1.3875
  949TIP3   OH2 2810   5.966   4.191   4.079  0.3405  0.2948  0.5332
  949TIP3    H1 2811   5.984   4.245   4.002  1.4162  0.8567  1.1467
  949TIP3    H2 2812   5.931   4.253   4.143  1.8393  0.3627  1.3382
  950TIP3   OH2 2813   0.982   0.027   2.636 -0.2336  0.5697 -0.0359
  950TIP3    H1 2814   1.044   0.064   2.699  0.3069 -0.2260 -0.0804
  950TIP3    H2 2815   1.034  -0.037   2.587 -1.0942 -0.1415 -0.0526
  951TIP3   OH2 2816   2.502   2.259   2.040 -0.7798  0.3702 -0.0658
  951TIP3    H1 2817   2.507   2.243   2.134 -0.4781  0.2072 -0.1077
  951TIP3    H2 2818   2.413   2.235   2.016 -0.8302  0.3266  0.1644
  952TIP3   OH2 2819   5.518   5.111   2.470  0.7263  0.0774  0.6394
  952TIP3    H1 2820   5.573   5.186   2.447  0.3882  0.3950  0.8473
  952TIP3    H2 2821   5.444   5.116   2.410  1.0486 -0.5061  0.1801
  953TIP3   OH2 2822   3.620   5.014   1.345  0.1916  0.0261  0.0034
  953TIP3    H1 2823   3.625   5.083   1.412 -1.6705 -0.9050  1.2117
  953TIP3    H2 2824   3.708   5.010   1.308  0.9989  1.3621  1.6095
  954TIP3   OH2 2825   2.555   2.393   5.349  1.0758  0.3860  0.6806
  954TIP3    H1 2826   2.577   2.392   5.255  0.1670  0.4247  0.4574
  954TIP3    H2 2827   2.471   2.348   5.354  1.8479 -0.9900  1.6884
  955TIP3   OH2 2828   6.876   0.917   5.687  0.1817  0.5961 -0.4449
  955TIP3    H1 2829   6.839   0.853   5.626 -0.0770  0.5012 -0.1866
  955TIP3    H2 2830   6.802   0.971   5.713  0.4576  1.2144 -0.9124
  956TIP3   OH2 2831   0.899   2.575   1.915 -0.2233  0.0261 -0.2957
  956TIP3    H1 2832   0.876   2.536   1.831  0.6703 -0.0614 -0.5051
  956TIP3    H2 2833   0.877   2.508   1.980 -0.1143 -0.2327 -0.5276
  957TIP3   OH2 2834   6.404   2.975   1.050  0.4300  0.1544 -0.2381
  957TIP3    H1 2835   6.368   3.049   1.001 -1.3405 -0.3910  0.1705
  957TIP3    H2 2836   6.448   3.015   1.125  1.6396  0.8952 -1.2973
  958TIP3   OH2 2837   4.671   2.155   0.973  0.5673 -0.5299  0.0708
  958TIP3    H1 2838   4.672   2.152   0.877  1.0141 -1.1331  0.0962
  958TIP3    H2 2839   4.684   2.065   1.001 -2.2978 -0.8458  0.7047
  959TIP3   OH2 2840   0.680   0.965   4.261  0.1075 -0.4008  0.0819
  959TIP3    H1 2841   0.752   0.972   4.198  1.6783  1.6684  1.9574
  959TIP3    H2 2842   0.721   0.926   4.339 -1.0960 -0.2540  0.8035
  960TIP3   OH2 2843   4.017   5.812   1.965  0.2031  0.5885 -0.3666
  960TIP3    H1 2844   3.965   5.880   2.009 -0.6040 -0.4407  0.3238
  960TIP3    H2 2845   4.023   5.841   1.874 -2.1623  0.4277 -0.6250
  961TIP3   OH2 2846   1.876   6.018   0.696  0.7189  0.8413 -0.3400
  961TIP3    H1 2847   1.962   6.028   0.737  1.1261 -1.7035 -0.4040
  961TIP3    H2 2848   1.895   5.987   0.607 -0.1909 -2.2490  0.4313
  962TIP3   OH2 2849   7.169   2.946   1.205 -0.5388 -0.2074  0.3332
  962TIP3    H1 2850   7.153   3.001   1.128  3.0672 -1.4473 -1.5108
  962TIP3    H2 2851   7.167   3.007   1.278  0.0916  1.8516 -1.2499
  963TIP3   OH2 2852   1.075   5.566   5.584 -0.7325 -0.3209  0.8255
  963TIP3    H1 2853   1.103   5.513   5.510  0.9240 -0.3844  1.4527
  963TIP3    H2 2854   1.040   5.646   5.545 -1.3846 -1.0222 -0.0625
  964TIP3   OH2 2855   5.139   5.181   5.182 -0.6101  0.3627 -0.0219
  964TIP3    H1 2856   5.116   5.265   5.222 -1.6913  0.2569 -0.3649
  964TIP3    H2 2857   5.129   5.117   5.252  3.0115  0.7746  1.0673
  965TIP3   OH2 2858   6.342   3.378   3.950 -0.4162 -0.2370  0.1918
  965TIP3    H1 2859   6.370   3.467   3.974  0.9608 -0.1005 -1.6779
  965TIP3    H2 2860   6.306   3.342   4.031  0.7943  1.3303  1.5181
  966TIP3   OH2 2861   5.633   1.240   0.138  0.0278  0.3454 -0.0696
  966TIP3    H1 2862   5.659   1.266   0.226 -0.3492  2.5229 -0.5593
  966TIP3    H2 2863   5.596   1.319   0.098  1.6834 -0.0806 -2.7447
  967TIP3   OH2 2864   3.417   5.328   3.192 -0.1517  0.1974 -0.1325
  967TIP3    H1 2865   3.342   5.379   3.158  0.3102  0.7917 -0.2794
  967TIP3    H2 2866   3.379   5.274   3.261 -0.6218  0.9119  0.1847
  968TIP3   OH2 2867   6.218   1.155   5.119 -0.4401  0.4535  0.2079
  968TIP3    H1 2868   6.269   1.097   5.176  1.3604  0.5052 -1.2405
  968TIP3    H2 2869   6.143   1.181   5.172  1.6206  1.3188  2.9383
  969TIP3   OH2 2870   1.120   2.373   1.582 -0.2030  0.1683 -0.3373
  969TIP3    H1 2871   1.132   2.312   1.508 -2.7928  0.5713 -1.1954
  969TIP3    H2 2872   1.090   2.318   1.654  0.1524  0.0788 -0.2544
  970TIP3   OH2 2873   0.060   3.208   1.757 -1.1958  1.1558  0.1496
  970TIP3    H1 2874  -0.012   3.207   1.820 -1.1878 -2.1869  0.2697
  970TIP3    H2 2875   0.059   3.121   1.718  3.1352  0.7530  0.5362
  971TIP3   OH2 2876   5.297   5.592   3.383 -0.3082 -0.4285  0.1071
  971TIP3    H1 2877   5.341   5.677   3.385 -0.0712 -0.5503  0.1371
  971TIP3    H2 2878   5.367   5.529   3.366 -0.5791 -0.5574 -0.5393
  972TIP3   OH2 2879   5.646   6.358   0.761 -0.9034 -0.2791 -0.4373
  972TIP3    H1 2880   5.621   6.281   0.813 -1.4528  0.9502  1.1881
  972TIP3    H2 2881   5.738   6.341   0.738 -1.2089 -1.7285 -0.7120
  973TIP3   OH2 2882   5.300   5.049   0.210 -0.4756 -0.0464  0.4497
  973TIP3    H1 2883   5.231   4.991   0.244 -2.3151  0.2042 -2.4575
  973TIP3    H2 2884   5.263   5.137   0.218 -0.1457  0.1727 -0.3430
  974TIP3   OH2 2885   4.958   4.536   4.265  0.3458 -0.0902  0.0823
  974TIP3    H1 2886   5.042   4.572   4.296  1.8295 -3.1668  0.0212
  974TIP3    H2 2887   4.966   4.534   4.170 -0.6680  1.4126 -0.0641
  975TIP3   OH2 2888   0.101   5.752   4.991  0.0293  0.7546  0.5788
  975TIP3    H1 2889   0.128   5.677   5.045  1.2926 -1.8237 -3.1941
  975TIP3    H2 2890   0.169   5.817   5.004  1.7281 -0.8655  0.2353
  976TIP3   OH2 2891   4.129   5.215   1.583 -0.1141  0.2965 -0.0731
  976TIP3    H1 2892   4.100   5.297   1.543  2.0940  1.3410  0.2759
  976TIP3    H2 2893   4.219   5.233   1.611  0.6009 -2.3859 -0.3573
  977TIP3   OH2 2894   5.391   5.779   2.596 -0.8009  0.4285  0.3720
  977TIP3    H1 2895   5.303   5.785   2.633 -1.5687  0.4798 -1.3889
  977TIP3    H2 2896   5.411   5.868   2.566 -0.2664  0.3506  0.4763
  978TIP3   OH2 2897   4.845   0.190   1.642  0.2395 -0.3749  0.4340
  978TIP3    H1 2898   4.937   0.204   1.618  0.3481 -0.7600  0.6128
  978TIP3    H2 2899   4.796   0.244   1.581  0.5258 -1.1330 -0.4885
  979TIP3   OH2 2900   6.969   6.079   0.851  0.1187  0.2958 -0.0595
  979TIP3    H1 2901   6.940   6.165   0.883 -0.8402 -0.0730  0.1041
  979TIP3    H2 2902   7.035   6.051   0.914  1.2137  1.3617 -0.6950
  980TIP3   OH2 2903   1.744   1.630   3.030  0.3611 -0.1237  0.3771
  980TIP3    H1 2904   1.835   1.653   3.012  0.1912 -0.8651 -1.6539
  980TIP3    H2 2905   1.692   1.692   2.978 -0.2721 -0.3239  0.7542
  981TIP3   OH2 2906   5.748   3.038   2.677  0.6529  0.2103  0.0742
  981TIP3    H1 2907   5.842   3.032   2.698  0.4304 -1.6228  0.7675
  981TIP3    H2 2908   5.706   2.980   2.740 -0.8778  0.4137 -0.7148
  982TIP3   OH2 2909   5.847   3.098   4.500  0.0554 -0.1790 -0.0772
  982TIP3    H1 2910   5.822   3.006   4.510  2.1334 -0.8194 -0.2544
  982TIP3    H2 2911   5.765   3.143   4.482 -1.0838 -1.9268  0.4325
  983TIP3   OH2 2912   3.974   3.789   4.449 -0.6428 -0.0001 -0.0691
  983TIP3    H1 2913   3.918   3.866   4.452  1.1712  1.4480 -0.8671
  983TIP3    H2 2914   3.999   3.782   4.356  1.9811  0.6207  0.5077
  984TIP3   OH2 2915   2.273   5.078   4.157 -0.0407 -0.0366  0.3751
  984TIP3    H1 2916   2.320   5.149   4.113 -0.2497 -0.5534 -0.7185
  984TIP3    H2 2917   2.209   5.048   4.092  0.4739 -1.6641  0.5817
  985TIP3   OH2 2918   6.749   6.556   4.031  0.0306  0.1882  0.6618
  985TIP3    H1 2919   6.811   6.618   3.995 -1.0660  0.0980 -1.5404
  985TIP3    H2 2920   6.664   6.583   3.996 -0.4859 -2.5546 -0.5089
  986TIP3   OH2 2921   6.198   3.972   1.219 -0.3039  0.0264  0.4908
  986TIP3    H1 2922   6.218   3.932   1.135 -0.5727 -0.8737  0.8491
  986TIP3    H2 2923   6.104   3.960   1.231 -0.1580 -0.4525  1.2212
  987TIP3   OH2 2924   4.705   4.879   4.781 -0.2438 -0.0881  0.6575
  987TIP3    H1 2925   4.700   4.930   4.701 -0.3767  0.9271  1.2937
  987TIP3    H2 2926   4.649   4.802   4.764  1.2649 -0.9045 -0.8981
  988TIP3   OH2 2927   3.589   6.177   1.992  0.3300 -0.5867 -0.0573
  988TIP3    H1 2928   3.586   6.122   2.071  0.0696 -1.0080 -0.3570
  988TIP3    H2 2929   3.503   6.219   1.990 -0.2213 -1.7179 -0.9174
  989TIP3   OH2 2930   2.585   5.536   4.698 -0.7404  0.2483 -0.5679
  989TIP3    H1 2931   2.523   5.539   4.770 -0.8960 -0.0832 -0.6853
  989TIP3    H2 2932   2.632   5.619   4.702  1.9636 -1.2062  2.2996
  990TIP3   OH2 2933   1.108   6.159   1.087 -1.1379 -0.4662  0.0540
  990TIP3    H1 2934   1.114   6.165   0.992 -0.1505  1.1866  0.1791
  990TIP3    H2 2935   1.042   6.092   1.103 -1.8251 -0.2777 -1.7911
  991TIP3   OH2 2936   5.101   3.304   3.312  0.6635  0.4314 -0.0271
  991TIP3    H1 2937   5.082   3.365   3.384 -0.3814  1.0828 -0.8339
  991TIP3    H2 2938   5.159   3.354   3.254  1.1483  0.0618  0.1346
  992TIP3   OH2 2939   5.737   4.571   5.620 -0.0810 -0.0769 -0.4057
  992TIP3    H1 2940   5.645   4.551   5.641 -0.8164  0.9298 -2.3767
  992TIP3    H2 2941   5.733   4.653   5.571  2.0463  0.6886  0.6120
  993TIP3   OH2 2942   0.389   3.193   3.958 -0.1182  0.5468 -0.2820
  993TIP3    H1 2943   0.458   3.256   3.980  0.9382 -0.5853 -0.2434
  993TIP3    H2 2944   0.410   3.116   4.010 -0.8082 -0.1919 -1.0784
  994TIP3   OH2 2945   4.582   1.183   0.795 -0.0322 -0.1962 -0.2522
  994TIP3    H1 2946   4.677   1.189   0.800 -0.1945  2.0796  2.3659
  994TIP3    H2 2947   4.561   1.100   0.839  0.6827 -0.3781 -0.2321
  995TIP3   OH2 2948   3.083   3.623   5.873  0.0293 -0.1262 -0.1469
  995TIP3    H1 2949   3.041   3.567   5.807 -1.8775  2.7709 -1.6021
  995TIP3    H2 2950   3.014   3.642   5.936  0.7000  0.4102  0.4340
  996TIP3   OH2 2951   2.227   3.134   2.746 -0.5464 -0.3701  0.1117
  996TIP3    H1 2952   2.154   3.174   2.699  0.6329  2.3280  0.3864
  996TIP3    H2 2953   2.202   3.140   2.839  0.5123  1.8960  0.3236
  997TIP3   OH2 2954   6.805   5.186   4.996 -0.3206  0.1674 -1.1016
  997TIP3    H1 2955   6.827   5.166   4.906  1.8810  0.8771 -0.7732
  997TIP3    H2 2956   6.889   5.194   5.041 -1.2395  2.6318  0.3888
  998TIP3   OH2 2957   5.603   5.141   3.077 -0.4629  0.3349  0.1135
  998TIP3    H1 2958   5.636   5.171   3.162 -1.5416 -1.9637  1.4263
  998TIP3    H2 2959   5.681   5.125   3.024  0.2250  1.6094  0.6935
  999TIP3   OH2 2960   5.404   0.403   1.505 -1.1386 -0.5796  0.3008
  999TIP3    H1 2961   5.406   0.308   1.494 -1.3648 -0.5036 -0.4110
  999TIP3    H2 2962   5.417   0.438   1.417 -0.9071  0.0520  0.5791
 1000TIP3   OH2 2963   5.538   0.929   5.161 -0.1948  0.0975 -0.0170
 1000TIP3    H1 2964   5.472   0.860   5.164 -1.1951  1.0029 -0.3037
 1000TIP3    H2 2965   5.575   0.924   5.073 -2.0714  1.4824 -0.9801
 1001TIP3   OH2 2966   3.305   0.127   1.382  0.3670 -0.2900 -0.5348
 1001TIP3    H1 2967   3.393   0.164   1.372  0.1889 -0.2351 -2.1464
 1001TIP3    H2 2968   3.321   0.038   1.415  0.8881  0.4570  1.3546
 1002TIP3   OH2 2969   5.108   0.611   1.000 -0.4741  0.4825  0.0626
 1002TIP3    H1 2970   5.104   0.608   0.905  0.4663 -3.1388  0.0036
 1002TIP3    H2 2971   5.164   0.687   1.019  0.8819  0.1984 -2.3982
 1003TIP3   OH2 2972   3.069   3.374   2.897 -0.2722  0.3531  0.1096
 1003TIP3    H1 2973   3.004   3.375   2.967 -0.4625  0.2366 -0.0651
 1003TIP3    H2 2974   3.064   3.285   2.862 -0.2287  0.4351 -0.1014
 1004TIP3   OH2 2975   4.102   3.736   0.221 -0.0787  0.0593 -0.0153
 1004TIP3    H1 2976   4.124   3.652   0.182  1.2563 -0.1685  1.1455
 1004TIP3    H2 2977   4.129   3.728   0.313  1.9472  2.3857 -0.3037
 1005TIP3   OH2 2978   3.950   3.656   3.453  0.0444 -0.6393 -0.0172
 1005TIP3    H1 2979   4.041   3.646   3.483 -0.0138 -0.9348  0.0607
 1005TIP3    H2 2980   3.938   3.586   3.389 -0.1075 -0.5553 -0.0803
 1006TIP3   OH2 2981   0.686   4.938   0.355 -0.1125  0.2239 -0.5845
 1006TIP3    H1 2982   0.666   4.864   0.413  0.0758 -0.0844 -0.9094
 1006TIP3    H2 2983   0.611   4.942   0.296 -0.7265  1.0852  0.2139
 1007TIP3   OH2 2984   3.633   4.345   4.698 -0.2269 -0.1161  0.1039
 1007TIP3    H1 2985   3.704   4.409   4.702 -1.5141  1.4559 -0.8535
 1007TIP3    H2 2986   3.601   4.339   4.788 -1.4199  2.2342 -0.0955
 1008TIP3   OH2 2987   3.032   6.653   2.473 -0.0051  0.0935 -0.2345
 1008TIP3    H1 2988   3.002   6.625   2.559 -0.9423  0.0876 -0.5512
 1008TIP3    H2 2989   3.054   6.573   2.427  1.3586  0.1405  0.2864
 1009TIP3   OH2 2990   5.882   5.264   2.145  0.1976  0.0312  0.7603
 1009TIP3    H1 2991   5.893   5.355   2.117 -0.9973  0.1277  0.5574
 1009TIP3    H2 2992   5.953   5.217   2.102 -0.0336  0.6320 -0.3287
 1010TIP3   OH2 2993   6.421   1.362   4.720 -0.5669 -0.2341  0.2296
 1010TIP3    H1 2994   6.352   1.420   4.751  0.1105  0.8562 -0.2537
 1010TIP3    H2 2995   6.374   1.290   4.677 -1.4159  1.1182 -1.1964
 1011TIP3   OH2 2996   1.216   1.509   5.658  0.4945 -0.1474 -0.1274
 1011TIP3    H1 2997   1.249   1.451   5.590  1.8001 -0.1300  0.4653
 1011TIP3    H2 2998   1.131   1.538   5.625  0.5775 -1.0490 -1.2056
 1012TIP3   OH2 2999   0.364   6.517   2.810 -0.4931  0.1034 -0.4140
 1012TIP3    H1 3000   0.402   6.599   2.841 -0.4550 -0.2377  0.4823
 1012TIP3    H2 3001   0.278   6.513   2.852 -0.8595  0.0973 -1.1484
 1013TIP3   OH2 3002   6.821   4.696   5.150  0.3953  0.7239  0.4546
 1013TIP3    H1 3003   6.798   4.782   5.185 -0.3298  0.4505  0.6687
 1013TIP3    H2 3004   6.848   4.713   5.060  1.0138  1.2703  0.7355
 1014TIP3   OH2 3005   4.968   2.467   1.765  0.0988  0.0746 -0.4917
 1014TIP3    H1 3006   5.024   2.472   1.688 -1.0778 -0.8325 -1.4663
 1014TIP3    H2 3007   5.007   2.526   1.829  1.8209 -0.1268 -1.3223
 1015TIP3   OH2 3008   5.614   4.043   0.624  0.1037 -0.1163 -0.1584
 1015TIP3    H1 3009   5.669   3.972   0.659  0.8075 -0.2475 -1.4902
 1015TIP3    H2 3010   5.646   4.057   0.535 -1.6705  0.2024 -0.7708
 1016TIP3   OH2 3011   6.925   6.306   3.147  0.3295 -0.0760  0.0586
 1016TIP3    H1 3012   6.904   6.349   3.230  1.0482  1.1623 -0.3774
 1016TIP3    H2 3013   6.950   6.217   3.172  0.4713  0.2614  1.1587
 1017TIP3   OH2 3014   4.368   6.655   3.389  0.3605 -0.1768 -0.2242
 1017TIP3    H1 3015   4.282   6.642   3.350 -1.0625  2.3809  1.7701
 1017TIP3    H2 3016   4.382   6.578   3.443 -0.1573 -1.0955 -1.3465
 1018TIP3   OH2 3017   5.773   4.007   2.193  0.1817  0.7016 -0.2305
 1018TIP3    H1 3018   5.773   3.918   2.157  0.5437  0.4174  0.4446
 1018TIP3    H2 3019   5.825   4.057   2.130  1.8315 -0.0480  0.4721
 1019TIP3   OH2 3020   2.891   3.647   0.219  0.1835  0.1194  0.4524
 1019TIP3    H1 3021   2.858   3.639   0.129  2.5960 -2.9739 -0.3199
 1019TIP3    H2 3022   2.851   3.574   0.266 -0.0608  0.9694  1.6167
 1020TIP3   OH2 3023   3.833   1.485   1.465  0.1179  0.3796  0.1307
 1020TIP3    H1 3024   3.919   1.469   1.426 -0.1015 -0.8245  0.0892
 1020TIP3    H2 3025   3.784   1.404   1.449 -0.4760  0.4094  1.6113
 1021TIP3   OH2 3026   2.337   0.830   5.886 -0.0778 -0.0311  0.3415
 1021TIP3    H1 3027   2.268   0.891   5.859 -0.6450 -1.2289 -1.1461
 1021TIP3    H2 3028   2.402   0.835   5.816 -0.1526 -1.1062  0.1705
 1022TIP3   OH2 3029   1.811   1.199   0.270  0.1815 -0.1772  0.5596
 1022TIP3    H1 3030   1.807   1.104   0.274 -1.0498 -0.1119  2.5197
 1022TIP3    H2 3031   1.720   1.227   0.283  0.5289  1.2663  0.0736
 1023TIP3   OH2 3032   5.787   1.550   4.939  0.1838  0.9040  0.5783
 1023TIP3    H1 3033   5.843   1.620   4.907  1.6017 -0.4534 -0.0230
 1023TIP3    H2 3034   5.845   1.494   4.991 -0.1989 -1.2939 -1.1903
 1024TIP3   OH2 3035   1.627   5.322   4.363 -0.0843  0.0015  0.0926
 1024TIP3    H1 3036   1.575   5.403   4.365 -1.8284 -0.9795 -2.0441
 1024TIP3    H2 3037   1.678   5.328   4.282  0.0451 -0.8689  0.0988
 1025TIP3   OH2 3038   1.314   5.018   5.233  0.0251  0.2758 -0.3188
 1025TIP3    H1 3039   1.256   5.090   5.211 -0.1114  0.2610 -0.0187
 1025TIP3    H2 3040   1.262   4.962   5.291  0.4504  0.4500  0.2433
 1026TIP3   OH2 3041   6.219   1.746   2.797 -0.1130  0.3415 -0.2215
 1026TIP3    H1 3042   6.297   1.695   2.816 -0.5244 -0.6196 -1.0134
 1026TIP3    H2 3043   6.158   1.683   2.758 -1.2899  1.0659  0.3918
 1027TIP3   OH2 3044   5.135   4.891   2.182 -0.6493  0.1975 -0.2177
 1027TIP3    H1 3045   5.141   4.857   2.271  1.7495 -0.5613 -0.5918
 1027TIP3    H2 3046   5.046   4.871   2.155 -0.5599 -2.2516  1.0166
 1028TIP3   OH2 3047   5.047   5.035   4.963 -0.1643  0.2727  0.1975
 1028TIP3    H1 3048   5.121   5.061   4.909 -0.9641  3.1805  0.3070
 1028TIP3    H2 3049   5.057   5.086   5.044 -0.0536 -2.4821  2.0919
 1029TIP3   OH2 3050   4.540   2.031   4.228 -0.0220 -0.3721 -0.5277
 1029TIP3    H1 3051   4.544   2.082   4.309 -0.2416 -0.9339 -0.1595
 1029TIP3    H2 3052   4.459   2.058   4.186 -0.1105 -0.3777 -0.3607
 1030TIP3   OH2 3053   0.907   6.644   1.381  0.0439  0.2507 -0.0181
 1030TIP3    H1 3054   0.896   6.620   1.473 -0.8953 -0.6776 -0.3578
 1030TIP3    H2 3055   1.002   6.645   1.368  0.1697 -0.2065  0.8166
 1031TIP3   OH2 3056   4.506   2.998   0.615  0.0552 -0.1869  0.2070
 1031TIP3    H1 3057   4.540   2.964   0.697  0.8996  1.5854  0.6411
 1031TIP3    H2 3058   4.584   3.022   0.565 -0.2163  5.0639  1.6904
 1032TIP3   OH2 3059   5.317   6.781   2.570  0.4086 -0.2617 -0.3881
 1032TIP3    H1 3060   5.243   6.740   2.525  1.0773 -1.7909 -0.1628
 1032TIP3    H2 3061   5.389   6.719   2.559  1.9703  1.6562 -1.4822
 1033TIP3   OH2 3062   4.646   3.778   2.268  0.3950 -0.0066  0.0164
 1033TIP3    H1 3063   4.647   3.833   2.347 -0.4527  0.2183 -0.1149
 1033TIP3    H2 3064   4.678   3.836   2.199 -3.5021  1.5261 -0.8088
 1034TIP3   OH2 3065   4.403   3.780   2.815  0.3077  0.1018 -0.7970
 1034TIP3    H1 3066   4.438   3.702   2.775 -1.3136 -0.9715 -0.2436
 1034TIP3    H2 3067   4.308   3.764   2.820  0.0212  1.7873 -0.0286
 1035TIP3   OH2 3068   5.994   6.567   1.453 -0.4604 -0.0182 -0.3713
 1035TIP3    H1 3069   5.946   6.583   1.373  0.6702  2.0585 -0.7103
 1035TIP3    H2 3070   5.989   6.473   1.467 -2.3585 -0.1560 -1.7747
 1036TIP3   OH2 3071   4.173   6.121   1.548 -0.3250 -0.2523 -0.8653
 1036TIP3    H1 3072   4.157   6.027   1.557 -1.1258 -0.0896 -0.4919
 1036TIP3    H2 3073   4.227   6.144   1.624  0.4228 -0.5166 -1.3011
 1037TIP3   OH2 3074   6.455   4.105   0.834  0.0431  0.2195  0.0531
 1037TIP3    H1 3075   6.469   4.094   0.740  1.2308  1.6791  0.0218
 1037TIP3    H2 3076   6.380   4.163   0.840  0.4203  0.7153 -0.0120
 1038TIP3   OH2 3077   5.270   0.988   2.188  0.3151 -0.3420 -0.1760
 1038TIP3    H1 3078   5.346   0.977   2.131  1.1557 -0.4702  0.9199
 1038TIP3    H2 3079   5.196   0.960   2.135  1.0868 -0.6611 -1.1267
 1039TIP3   OH2 3080   2.614   5.223   3.781  0.0399 -0.1088  0.5032
 1039TIP3    H1 3081   2.580   5.173   3.706  1.8231 -1.2922  0.4096
 1039TIP3    H2 3082   2.573   5.309   3.773 -1.3282 -0.8274 -0.6989
 1040TIP3   OH2 3083   2.776   5.116   0.206  0.3665 -0.2170 -0.2651
 1040TIP3    H1 3084   2.782   5.031   0.163  0.9433 -0.3608  0.0997
 1040TIP3    H2 3085   2.831   5.174   0.154  1.4623 -0.5068  0.5510
 1041TIP3   OH2 3086   1.768   1.339   4.708 -0.0004 -0.0710 -0.7357
 1041TIP3    H1 3087   1.821   1.418   4.719 -0.2587  0.1074 -0.7590
 1041TIP3    H2 3088   1.809   1.292   4.635  1.5899 -1.1500  0.7945
 1042TIP3   OH2 3089   3.636   1.393   3.070 -0.0950 -0.0366  0.0800
 1042TIP3    H1 3090   3.589   1.455   3.014  0.0213  0.3022  0.3466
 1042TIP3    H2 3091   3.686   1.449   3.130  0.9941 -0.3875 -0.4857
 1043TIP3   OH2 3092   6.561   3.960   5.432 -0.0242  0.4123 -0.3014
 1043TIP3    H1 3093   6.501   3.885   5.430  0.6970 -0.1954  0.3203
 1043TIP3    H2 3094   6.504   4.036   5.419 -1.2553  0.0281  2.2233
 1044TIP3   OH2 3095   4.378   1.514   1.211  0.0572 -0.8767 -0.2421
 1044TIP3    H1 3096   4.300   1.482   1.255  0.4610 -0.3644  0.8673
 1044TIP3    H2 3097   4.439   1.440   1.211 -0.1884 -1.0839 -0.5643
 1045TIP3   OH2 3098   0.852   5.580   2.394 -0.1809 -0.2277  0.0781
 1045TIP3    H1 3099   0.852   5.670   2.364 -0.8631  0.1932  1.2695
 1045TIP3    H2 3100   0.859   5.586   2.489  1.0753 -1.4792  0.0909
 1046TIP3   OH2 3101   6.693   6.679   0.624 -0.1963 -0.2744  0.4860
 1046TIP3    H1 3102   6.601   6.653   0.623 -0.6597  1.2384 -0.8748
 1046TIP3    H2 3103   6.697   6.748   0.690  0.0691 -0.6415  0.8586
 1047TIP3   OH2 3104   2.984   5.807   3.743  0.1532 -0.2830  0.1150
 1047TIP3    H1 3105   2.932   5.759   3.807 -1.6289  0.6666 -0.5416
 1047TIP3    H2 3106   2.936   5.797   3.661  1.1473  0.4476 -0.5825
 1048TIP3   OH2 3107   0.096   2.651   5.450  0.0446  0.1321 -0.0480
 1048TIP3    H1 3108   0.156   2.643   5.524  0.2956  3.3216  0.2266
 1048TIP3    H2 3109   0.033   2.719   5.477 -0.1539  1.0350 -2.5256
 1049TIP3   OH2 3110   5.259   2.143   5.148 -0.8296  0.8443  0.1923
 1049TIP3    H1 3111   5.320   2.125   5.077 -1.6733 -1.1291 -0.0971
 1049TIP3    H2 3112   5.314   2.163   5.223  0.3293 -2.0333  0.2472
 1050TIP3   OH2 3113   2.764   0.870   1.832  0.1539  0.8116  0.0858
 1050TIP3    H1 3114   2.809   0.786   1.838  0.1748  0.7141 -1.2123
 1050TIP3    H2 3115   2.823   0.926   1.780 -0.2902  1.3272  0.1210
 1051TIP3   OH2 3116   5.699   0.098   4.374  0.0998 -0.2137 -0.6206
 1051TIP3    H1 3117   5.733   0.011   4.356  0.1719 -0.2734 -0.1839
 1051TIP3    H2 3118   5.776   0.152   4.391  0.0604 -0.0482 -0.9534
 1052TIP3   OH2 3119   5.134   4.154   2.361 -0.1851 -0.2721  0.6771
 1052TIP3    H1 3120   5.181   4.205   2.295  2.0056 -0.5968  1.8813
 1052TIP3    H2 3121   5.071   4.215   2.398 -1.3360 -0.0369 -1.5356
 1053TIP3   OH2 3122   1.563   0.113   0.654  0.2211 -0.2146 -0.6727
 1053TIP3    H1 3123   1.569   0.041   0.717  1.3649 -0.7113 -1.3040
 1053TIP3    H2 3124   1.525   0.185   0.703 -2.4907 -1.6885 -0.4262
 1054TIP3   OH2 3125   0.386   6.246   0.212  0.1462 -0.5621  0.5014
 1054TIP3    H1 3126   0.440   6.254   0.291 -0.7309  1.3517  0.9755
 1054TIP3    H2 3127   0.296   6.240   0.245 -0.0643 -2.3907 -0.3103
 1055TIP3   OH2 3128   4.983   0.777   2.850 -0.6852  0.0832 -0.1859
 1055TIP3    H1 3129   4.943   0.817   2.773  0.5532  1.2835 -0.2521
 1055TIP3    H2 3130   5.020   0.695   2.818 -2.0348 -0.4748 -0.3685
 1056TIP3   OH2 3131   5.772   5.951   3.666 -0.6499 -0.4992 -0.2144
 1056TIP3    H1 3132   5.814   5.940   3.751 -0.4407 -1.0579 -0.3818
 1056TIP3    H2 3133   5.828   6.013   3.619 -0.1372 -1.0391 -0.3417
 1057TIP3   OH2 3134   0.365   5.354   4.698 -0.5833  0.5585 -0.1260
 1057TIP3    H1 3135   0.413   5.328   4.776 -2.8247  1.1021  1.5218
 1057TIP3    H2 3136   0.300   5.416   4.729 -1.2300  1.1883 -2.5326
 1058TIP3   OH2 3137   4.688   3.991   3.345 -0.0048 -0.2296 -0.1912
 1058TIP3    H1 3138   4.688   4.067   3.402 -0.4188  0.5149 -1.1644
 1058TIP3    H2 3139   4.769   3.945   3.366 -0.0393  0.1509  0.8217
 1059TIP3   OH2 3140   3.948   4.938   3.720  0.6082 -0.1050 -0.3475
 1059TIP3    H1 3141   3.935   4.906   3.810  0.5426  1.6400  0.3100
 1059TIP3    H2 3142   4.036   4.977   3.722 -0.0830  1.5112 -0.5281
 1060TIP3   OH2 3143   3.992   5.588   1.766  0.1880  0.0338 -0.0402
 1060TIP3    H1 3144   3.913   5.642   1.776 -0.7330 -1.3635  0.4532
 1060TIP3    H2 3145   4.032   5.620   1.685 -1.3272  0.2192 -0.7570
 1061TIP3   OH2 3146   6.467   5.573   5.680 -0.1782 -0.3446  0.1448
 1061TIP3    H1 3147   6.524   5.638   5.721 -1.4356  0.7223  0.2580
 1061TIP3    H2 3148   6.505   5.560   5.593  1.2577 -1.0128  0.8292
 1062TIP3   OH2 3149   3.767   5.972   0.634  0.2011  0.3232  0.0774
 1062TIP3    H1 3150   3.801   6.046   0.583  1.6514 -0.6537 -0.4316
 1062TIP3    H2 3151   3.735   5.911   0.568 -0.1096  0.0879  0.4483
 1063TIP3   OH2 3152   0.219   0.480   2.433 -0.0300 -0.0851  0.1280
 1063TIP3    H1 3153   0.262   0.546   2.487  0.1500  0.3431 -0.5269
 1063TIP3    H2 3154   0.242   0.397   2.474 -0.5981  0.2720  1.2048
 1064TIP3   OH2 3155   3.190   2.362   0.459  0.1192  0.2238 -0.2487
 1064TIP3    H1 3156   3.167   2.277   0.496  2.2452 -0.4066 -0.2324
 1064TIP3    H2 3157   3.199   2.345   0.365  1.2146  0.2367 -0.1603
 1065TIP3   OH2 3158   0.735   0.106   5.478 -0.2407  0.2402 -0.2914
 1065TIP3    H1 3159   0.640   0.112   5.475 -0.3110 -0.9446 -1.0489
 1065TIP3    H2 3160   0.757   0.125   5.569 -1.3674 -1.2986  0.3508
 1066TIP3   OH2 3161   3.205   0.954   2.237 -0.1099  0.4981  0.2005
 1066TIP3    H1 3162   3.199   0.917   2.325  0.1728 -0.4170 -0.1557
 1066TIP3    H2 3163   3.263   0.894   2.189 -1.2638  0.2620 -0.9682
 1067TIP3   OH2 3164   2.858   0.048   0.069 -0.3894  0.2053 -0.8530
 1067TIP3    H1 3165   2.791   0.033   0.136 -0.1522  0.6254 -0.5161
 1067TIP3    H2 3166   2.936   0.002   0.102 -0.3302  0.2430 -0.9397
 1068TIP3   OH2 3167   0.422   3.585   3.835 -0.1860  0.2380 -0.3961
 1068TIP3    H1 3168   0.517   3.589   3.844  0.1522 -3.0758 -1.1793
 1068TIP3    H2 3169   0.391   3.565   3.923 -0.2906  1.9467 -0.0059
 1069TIP3   OH2 3170   1.350   1.689   5.011  0.5559 -0.1577  0.3488
 1069TIP3    H1 3171   1.425   1.736   5.049  0.8411  1.1218 -1.6745
 1069TIP3    H2 3172   1.380   1.660   4.925 -0.4085 -2.0648  0.6020
 1070TIP3   OH2 3173   2.267   4.148   4.064 -0.6918  0.1412  0.1489
 1070TIP3    H1 3174   2.297   4.065   4.103  1.6740  1.0692  0.4548
 1070TIP3    H2 3175   2.320   4.215   4.107 -0.0801  1.4943 -2.5207
 1071TIP3   OH2 3176   1.408   2.663   3.754  0.2296  0.0746  0.0783
 1071TIP3    H1 3177   1.438   2.740   3.802  0.4631  0.3650 -0.5238
 1071TIP3    H2 3178   1.387   2.599   3.822  1.6364  0.0733  0.5507
 1072TIP3   OH2 3179   0.335   0.805   2.461  0.3382 -0.1996 -0.9085
 1072TIP3    H1 3180   0.259   0.766   2.417  0.8930 -2.9482  0.3409
 1072TIP3    H2 3181   0.404   0.740   2.449  1.3787  0.4341  1.2507
 1073TIP3   OH2 3182   3.777   5.772   2.259 -0.2754 -0.1488  0.5000
 1073TIP3    H1 3183   3.716   5.820   2.316  1.7355  2.3346  0.7603
 1073TIP3    H2 3184   3.725   5.750   2.182 -1.6603  1.5186  0.8814
 1074TIP3   OH2 3185   5.972   3.768   2.324  0.6286  0.5228 -0.1046
 1074TIP3    H1 3186   5.941   3.719   2.248  2.0147 -0.3155 -0.1790
 1074TIP3    H2 3187   6.028   3.706   2.371  1.6784  1.7471  0.3179
 1075TIP3   OH2 3188   4.015   4.044   5.779 -0.1010  0.0753 -0.0172
 1075TIP3    H1 3189   3.964   4.074   5.854  0.5720 -0.8157  0.8250
 1075TIP3    H2 3190   3.976   3.960   5.755 -0.1128  0.2072 -0.4679
 1076TIP3   OH2 3191   4.572   5.646   3.185 -0.5221 -0.1746 -0.2452
 1076TIP3    H1 3192   4.522   5.573   3.221  0.1816 -1.3875 -1.6342
 1076TIP3    H2 3193   4.653   5.606   3.152  0.9764  1.5817  1.0524
 1077TIP3   OH2 3194   1.454   5.977   3.005  0.5712  0.3820  0.0957
 1077TIP3    H1 3195   1.460   5.882   3.015  1.3543  0.2104 -1.6637
 1077TIP3    H2 3196   1.462   5.992   2.911  0.1572  2.1823  0.3095
 1078TIP3   OH2 3197   7.003   5.256   2.800  0.7150 -0.8270  0.1350
 1078TIP3    H1 3198   7.016   5.224   2.889 -1.2847  2.4938  1.8335
 1078TIP3    H2 3199   6.954   5.186   2.757  0.4626 -1.9587  2.1068
 1079TIP3   OH2 3200   5.687   0.339   0.947  0.0946  0.2747 -0.2314
 1079TIP3    H1 3201   5.714   0.410   0.888  0.9231  0.0397 -0.1587
 1079TIP3    H2 3202   5.763   0.326   1.005 -0.0895 -0.5737 -0.1621
 1080TIP3   OH2 3203   2.409   4.957   3.242  0.2954  0.1462  0.1660
 1080TIP3    H1 3204   2.351   4.928   3.312 -0.1212  0.9317  0.1513
 1080TIP3    H2 3205   2.492   4.913   3.260 -0.0824 -0.3989  0.6107
 1081TIP3   OH2 3206   0.340   0.614   4.096 -0.1773  0.0422 -0.9995
 1081TIP3    H1 3207   0.368   0.701   4.069 -0.0402  0.1535 -0.5055
 1081TIP3    H2 3208   0.419   0.573   4.133 -0.6620  0.3908  0.4844
 1082TIP3   OH2 3209   6.861   1.985   0.163 -0.2123  0.0791 -0.0527
 1082TIP3    H1 3210   6.794   1.916   0.163  1.0953 -1.2545 -0.2734
 1082TIP3    H2 3211   6.898   1.982   0.252  0.2531  0.0758 -0.2425
 1083TIP3   OH2 3212   2.986   4.359   5.081  0.3301 -0.2688 -0.3984
 1083TIP3    H1 3213   3.013   4.427   5.143  2.5346 -0.8533 -0.6441
 1083TIP3    H2 3214   2.940   4.294   5.134  0.3645  0.2311  0.2467
 1084TIP3   OH2 3215   3.377   4.726   2.165 -0.2188 -0.0948  0.6687
 1084TIP3    H1 3216   3.416   4.731   2.078 -2.6290 -0.1265 -0.4927
 1084TIP3    H2 3217   3.369   4.632   2.182 -0.5589 -0.0876  0.5425
 1085TIP3   OH2 3218   2.907   2.138   1.623  0.1346 -0.4699 -0.5605
 1085TIP3    H1 3219   2.836   2.100   1.572  0.5313 -0.1429 -1.3785
 1085TIP3    H2 3220   2.943   2.065   1.672 -0.6049 -0.6831 -0.3272
 1086TIP3   OH2 3221   3.741   4.843   5.270  0.3678  0.1784  0.1043
 1086TIP3    H1 3222   3.715   4.900   5.198 -1.4340 -0.4175  0.2409
 1086TIP3    H2 3223   3.704   4.884   5.348  1.1104  0.0742  0.5212
 1087TIP3   OH2 3224   4.944   0.553   2.494 -0.7332  0.4559 -0.2685
 1087TIP3    H1 3225   5.027   0.552   2.542 -0.2715  1.3250 -1.0312
 1087TIP3    H2 3226   4.879   0.581   2.559 -0.4395 -0.1926  0.3232
 1088TIP3   OH2 3227   6.255   1.977   1.350 -0.5986 -0.0654  0.2012
 1088TIP3    H1 3228   6.297   1.957   1.434  2.7397  0.1841 -1.2192
 1088TIP3    H2 3229   6.271   2.070   1.337 -0.6957 -0.1815 -0.8657
 1089TIP3   OH2 3230   5.442   0.936   0.145 -0.2006 -0.0633  0.3052
 1089TIP3    H1 3231   5.420   0.923   0.237 -0.5727 -0.8966  0.1016
 1089TIP3    H2 3232   5.425   0.852   0.103  0.9162  0.0138 -0.3483
 1090TIP3   OH2 3233   5.286   5.922   1.997  0.8321 -0.4744 -0.1619
 1090TIP3    H1 3234   5.359   5.940   1.939 -0.7694 -0.1911 -2.2239
 1090TIP3    H2 3235   5.313   5.845   2.047  3.0308  0.4214  0.1472
 1091TIP3   OH2 3236   1.100   2.215   3.015 -0.1635 -0.1755  0.1609
 1091TIP3    H1 3237   1.068   2.266   3.089  1.3655  0.8113  0.1952
 1091TIP3    H2 3238   1.029   2.154   2.994 -0.3271 -1.0992  2.9910
 1092TIP3   OH2 3239   6.553   1.156   2.482  0.2092  0.3804  0.4357
 1092TIP3    H1 3240   6.538   1.068   2.516 -1.7047  0.9480  1.1708
 1092TIP3    H2 3241   6.641   1.179   2.512  0.5598 -1.1020  0.5943
 1093TIP3   OH2 3242   0.900   1.103   4.865  0.2036  0.2167  0.4019
 1093TIP3    H1 3243   0.952   1.184   4.857  2.4136 -1.2662 -1.7572
 1093TIP3    H2 3244   0.932   1.063   4.946 -0.2634  1.0603  1.0168
 1094TIP3   OH2 3245   1.777   2.241   3.151  0.1109  0.3136 -0.2012
 1094TIP3    H1 3246   1.845   2.174   3.149 -0.4727 -0.2698 -0.8287
 1094TIP3    H2 3247   1.723   2.223   3.075 -2.1086 -0.6692  1.4973
 1095TIP3   OH2 3248   5.228   1.056   0.737  0.4928 -0.3525  0.7977
 1095TIP3    H1 3249   5.168   1.039   0.809 -1.0848  1.3737 -0.0323
 1095TIP3    H2 3250   5.299   1.108   0.776  0.4783 -0.7599  1.3866
 1096TIP3   OH2 3251   6.651   4.413   2.333  0.5476  0.1113  0.2294
 1096TIP3    H1 3252   6.676   4.328   2.295 -1.5017 -0.3148 -0.3337
 1096TIP3    H2 3253   6.714   4.427   2.403 -0.9359 -3.6090  2.6745
 1097TIP3   OH2 3254   6.858   0.822   2.627  0.3342  0.1207 -0.2728
 1097TIP3    H1 3255   6.868   0.876   2.706 -0.4274  0.4826 -0.4132
 1097TIP3    H2 3256   6.903   0.872   2.559  0.8498 -0.1118 -0.1085
 1098TIP3   OH2 3257   2.187   3.357   4.753  0.9305  0.6495  0.5398
 1098TIP3    H1 3258   2.251   3.376   4.822 -0.5716  0.4184  2.0809
 1098TIP3    H2 3259   2.119   3.307   4.797 -0.5398  1.2782 -0.9230
 1099TIP3   OH2 3260   4.878   0.124   3.771 -0.1457  0.1268 -0.2579
 1099TIP3    H1 3261   4.971   0.115   3.790 -0.4994 -1.5428  0.9152
 1099TIP3    H2 3262   4.847   0.188   3.835 -0.0406 -0.3478  0.2783
 1100TIP3   OH2 3263   2.001   1.658   4.190 -0.4343 -0.4351  0.2439
 1100TIP3    H1 3264   2.042   1.730   4.141  0.8516 -1.5271 -0.3757
 1100TIP3    H2 3265   1.986   1.590   4.124 -1.4907 -0.7932  0.8380
 1101TIP3   OH2 3266   7.149   0.248   2.115 -0.6128 -0.1870 -0.2683
 1101TIP3    H1 3267   7.198   0.329   2.104 -1.4582  0.4328  0.4190
 1101TIP3    H2 3268   7.208   0.180   2.083  1.1505  0.4128  1.5157
 1102TIP3   OH2 3269   5.120   6.774   0.598 -0.0142  0.2404 -0.3831
 1102TIP3    H1 3270   5.111   6.866   0.575  1.7810  0.3176 -0.9510
 1102TIP3    H2 3271   5.138   6.773   0.692 -0.4101  0.4337 -0.3046
 1103TIP3   OH2 3272   6.837   3.265   3.113 -0.3431  0.0520  0.0760
 1103TIP3    H1 3273   6.778   3.228   3.047 -0.6396 -1.8505  1.3180
 1103TIP3    H2 3274   6.784   3.330   3.159 -0.1614  1.3340 -1.4278
 1104TIP3   OH2 3275   5.954   3.568   4.103 -0.2824  0.5173  0.0302
 1104TIP3    H1 3276   6.036   3.612   4.128 -0.1322  0.9595 -1.1981
 1104TIP3    H2 3277   5.982   3.495   4.048 -0.5385 -1.1230  1.9374
 1105TIP3   OH2 3278   4.626   0.556   1.888  0.8810  0.0845  0.0866
 1105TIP3    H1 3279   4.572   0.482   1.863  1.8063 -0.6884  0.3085
 1105TIP3    H2 3280   4.594   0.581   1.974 -1.6630  2.1312 -1.3288
 1106TIP3   OH2 3281   4.509   4.277   5.824 -0.0371  0.1583 -0.0669
 1106TIP3    H1 3282   4.577   4.268   5.758  0.1892 -4.0006  0.4974
 1106TIP3    H2 3283   4.515   4.368   5.852  3.6004  0.6034 -1.7535
 1107TIP3   OH2 3284   0.136   3.934   3.633 -0.3017  0.5201  0.0411
 1107TIP3    H1 3285   0.202   3.865   3.629  0.1751  0.9889 -0.2227
 1107TIP3    H2 3286   0.183   4.014   3.609 -1.2162  0.6835 -1.3431
 1108TIP3   OH2 3287   0.940   1.981   2.383  0.3421  0.0705 -0.2403
 1108TIP3    H1 3288   0.990   2.007   2.305 -0.6471  2.5673 -0.1267
 1108TIP3    H2 3289   0.985   2.024   2.455 -0.3310  0.0283  0.2099
 1109TIP3   OH2 3290   5.813   1.235   5.177  0.5616 -0.0153 -0.3716
 1109TIP3    H1 3291   5.902   1.252   5.209  0.7532  0.6057 -1.2065
 1109TIP3    H2 3292   5.790   1.150   5.215  2.4219 -1.3426 -2.0387
 1110TIP3   OH2 3293   5.863   1.310   1.052 -0.2113  0.5550 -0.5222
 1110TIP3    H1 3294   5.938   1.353   1.093 -0.8985  1.5440 -0.2289
 1110TIP3    H2 3295   5.891   1.291   0.963 -0.5545  3.7326 -1.4431
 1111TIP3   OH2 3296   5.558   5.792   0.547 -0.8216  0.4006  0.3207
 1111TIP3    H1 3297   5.486   5.730   0.553 -1.0510  0.5063 -1.0224
 1111TIP3    H2 3298   5.629   5.744   0.505 -0.2582  0.4312  1.2189
 1112TIP3   OH2 3299   0.828   4.162   1.878 -0.2603 -0.0354 -0.3874
 1112TIP3    H1 3300   0.818   4.070   1.853 -0.8951  0.1156 -0.7165
 1112TIP3    H2 3301   0.772   4.209   1.816 -0.7015  0.4871  0.4049
 1113TIP3   OH2 3302   7.016   0.315   1.689 -0.5950  0.2221  1.0360
 1113TIP3    H1 3303   6.986   0.344   1.776 -2.1505  0.0080  0.6104
 1113TIP3    H2 3304   7.069   0.238   1.707  1.0775  1.5263  1.9519
 1114TIP3   OH2 3305   1.828   5.005   3.978 -0.2014  0.3082 -0.1147
 1114TIP3    H1 3306   1.810   4.919   3.939  0.4625 -0.2303  0.7252
 1114TIP3    H2 3307   1.751   5.057   3.957 -0.5449 -0.4415 -0.7829
 1115TIP3   OH2 3308   6.615   0.130   5.168 -0.0631  0.2331 -0.3436
 1115TIP3    H1 3309   6.582   0.114   5.079 -1.2973  2.7750 -0.4268
 1115TIP3    H2 3310   6.577   0.060   5.220 -0.3007 -0.6123 -1.5908
 1116TIP3   OH2 3311   6.241   2.742   1.787  0.2504  0.3842 -0.2190
 1116TIP3    H1 3312   6.161   2.785   1.816  1.4091  1.7463  1.1032
 1116TIP3    H2 3313   6.281   2.802   1.725  0.3331 -0.2239 -0.7721
 1117TIP3   OH2 3314   5.468   0.212   1.093 -0.4848 -0.2118  0.0943
 1117TIP3    H1 3315   5.398   0.248   1.038  0.2983  1.9120  0.4162
 1117TIP3    H2 3316   5.546   0.261   1.068  0.4670 -1.1325  1.1820
 1118TIP3   OH2 3317   5.918   3.976   2.830  0.0472  0.2855  0.1238
 1118TIP3    H1 3318   5.961   4.058   2.807  2.6701 -1.0824 -0.2712
 1118TIP3    H2 3319   5.906   3.981   2.925 -1.7681  1.9072 -0.1221
 1119TIP3   OH2 3320   1.955   5.709   1.205  0.4166  0.1662  0.0597
 1119TIP3    H1 3321   1.975   5.798   1.236 -0.5792  0.0927  0.9889
 1119TIP3    H2 3322   1.862   5.697   1.225 -0.1200 -0.1793 -2.3690
 1120TIP3   OH2 3323   0.198   2.147   5.439 -1.0101 -0.2839  0.1347
 1120TIP3    H1 3324   0.271   2.101   5.480 -0.6336 -0.6334 -0.8760
 1120TIP3    H2 3325   0.164   2.085   5.374 -1.5993  0.2282 -0.0608
 1121TIP3   OH2 3326   5.427   1.818   5.893  0.0296 -0.1065  0.0744
 1121TIP3    H1 3327   5.460   1.898   5.851  0.6123  0.3627  1.3864
 1121TIP3    H2 3328   5.346   1.845   5.937  0.2071 -0.2377  0.4882
 1122TIP3   OH2 3329   0.793   0.208   1.176 -0.3093  0.9547  0.0837
 1122TIP3    H1 3330   0.861   0.223   1.242  0.5727  0.9067 -0.7934
 1122TIP3    H2 3331   0.743   0.290   1.175 -1.4633  0.3586  2.0345
 1123TIP3   OH2 3332   7.121   5.925   3.001 -0.7618 -0.7068 -0.7040
 1123TIP3    H1 3333   7.155   5.971   2.925 -0.4763 -0.2670 -0.3112
 1123TIP3    H2 3334   7.047   5.874   2.967 -1.1282  0.0935 -1.1193
 1124TIP3   OH2 3335   1.851   1.689   0.091 -0.5487  0.2988  0.3074
 1124TIP3    H1 3336   1.762   1.692   0.126 -1.6716 -0.2070 -2.2450
 1124TIP3    H2 3337   1.859   1.770   0.041 -0.4573 -0.6587 -1.3034
 1125TIP3   OH2 3338   2.393   4.879   2.481 -0.0394 -0.1469  0.4049
 1125TIP3    H1 3339   2.406   4.845   2.392  1.7202 -0.3628  0.7104
 1125TIP3    H2 3340   2.346   4.809   2.526 -0.4242 -0.2831 -0.1864
 1126TIP3   OH2 3341   3.841   1.886   4.810 -0.3195 -0.3628 -0.0809
 1126TIP3    H1 3342   3.892   1.805   4.804 -1.5809 -1.1774 -0.1908
 1126TIP3    H2 3343   3.904   1.952   4.838  0.2105 -1.9428  2.8133
 1127TIP3   OH2 3344   2.918   3.385   3.335 -0.0201  0.2469  0.7594
 1127TIP3    H1 3345   3.013   3.400   3.341 -0.2500  1.7670  1.0141
 1127TIP3    H2 3346   2.879   3.461   3.377 -1.3858  0.3372 -0.5984
 1128TIP3   OH2 3347   6.621   2.218   3.777  0.4771 -0.3803  0.5390
 1128TIP3    H1 3348   6.565   2.143   3.755  0.0107  0.4446 -1.3082
 1128TIP3    H2 3349   6.681   2.184   3.844  1.3990 -2.9419 -1.3892
 1129TIP3   OH2 3350   2.084   4.068   4.578  0.1658 -0.1929 -0.1783
 1129TIP3    H1 3351   2.074   4.015   4.657  3.9036  0.9914  1.2861
 1129TIP3    H2 3352   2.133   4.011   4.518  0.9383  0.3080 -0.0310
 1130TIP3   OH2 3353   2.903   6.706   4.169  0.7922 -0.3868  0.6100
 1130TIP3    H1 3354   2.927   6.689   4.078  1.3839 -0.9582  0.8661
 1130TIP3    H2 3355   2.914   6.801   4.179 -1.2568  0.0148 -0.4681
 1131TIP3   OH2 3356   1.762   1.085   0.593  0.3145 -0.2328 -0.3277
 1131TIP3    H1 3357   1.850   1.054   0.571  0.4207  0.4066 -0.8265
 1131TIP3    H2 3358   1.769   1.180   0.592 -0.4495 -0.1714 -0.6441
 1132TIP3   OH2 3359   3.008   4.248   4.808  0.1978  0.5149 -0.4327
 1132TIP3    H1 3360   3.031   4.287   4.893  0.1100 -1.1701  0.4046
 1132TIP3    H2 3361   3.071   4.286   4.747  0.5996  1.3779  0.4774
 1133TIP3   OH2 3362   7.100   3.687   1.838 -0.0025 -0.0334 -0.4501
 1133TIP3    H1 3363   7.169   3.629   1.870  1.2700  1.2380 -0.7593
 1133TIP3    H2 3364   7.092   3.666   1.745 -0.2544 -0.4050 -0.3430
 1134TIP3   OH2 3365   6.865   6.707   4.293  0.5211  0.2967  0.6015
 1134TIP3    H1 3366   6.883   6.790   4.250  1.2249 -0.2925 -0.2906
 1134TIP3    H2 3367   6.923   6.644   4.249 -1.2392 -1.0265  0.0102
 1135TIP3   OH2 3368   6.973   5.114   4.502  1.3333  0.0686 -0.1345
 1135TIP3    H1 3369   6.894   5.114   4.449  0.8246  0.0881  0.6038
 1135TIP3    H2 3370   6.989   5.206   4.521 -1.5250 -0.0165  4.0673
 1136TIP3   OH2 3371   5.087   0.165   1.934  0.3865 -0.1236  0.2375
 1136TIP3    H1 3372   5.149   0.115   1.988 -1.6189 -2.5302  0.4841
 1136TIP3    H2 3373   5.105   0.137   1.844 -0.8284 -1.4957  0.3884
 1137TIP3   OH2 3374   1.791   6.118   2.845  0.0075  0.3762  0.3134
 1137TIP3    H1 3375   1.803   6.116   2.939  1.0706  2.1376  0.2510
 1137TIP3    H2 3376   1.821   6.033   2.815 -1.3475 -0.6234  1.6318
 1138TIP3   OH2 3377   0.540   0.180   5.059 -0.4394 -0.2687  0.2139
 1138TIP3    H1 3378   0.628   0.205   5.088 -1.2508  1.5648  1.3196
 1138TIP3    H2 3379   0.534   0.086   5.076  0.7313 -0.0985  1.7483
 1139TIP3   OH2 3380   4.419   1.667   3.103  0.2677  0.4190 -0.4193
 1139TIP3    H1 3381   4.488   1.724   3.137  0.6863  1.1483 -2.3629
 1139TIP3    H2 3382   4.418   1.684   3.009 -2.5358  0.4073 -0.4810
 1140TIP3   OH2 3383   0.731   2.172   4.690 -0.1606 -0.3404 -0.2187
 1140TIP3    H1 3384   0.731   2.187   4.595  0.4772 -0.3606 -0.2281
 1140TIP3    H2 3385   0.817   2.204   4.719  0.7354 -2.7221 -0.0291
 1141TIP3   OH2 3386   6.798   1.172   5.057  0.3696 -0.4430 -0.3873
 1141TIP3    H1 3387   6.730   1.199   4.994  0.2964  0.8669  0.2181
 1141TIP3    H2 3388   6.765   1.203   5.141  1.9172  0.6154 -0.1393
 1142TIP3   OH2 3389   5.515   4.787   3.072  0.6873  0.0975 -0.5085
 1142TIP3    H1 3390   5.575   4.854   3.103 -0.7381  0.6174  1.2900
 1142TIP3    H2 3391   5.448   4.835   3.023  0.9315 -0.3191 -1.2789
 1143TIP3   OH2 3392   6.736   1.880   2.995  0.2905  0.0338  0.7292
 1143TIP3    H1 3393   6.724   1.797   2.950 -1.3719  0.4986  0.2794
 1143TIP3    H2 3394   6.812   1.920   2.952  0.7333 -0.9588  0.5570
 1144TIP3   OH2 3395   1.639   0.235   3.055 -0.0641  0.1390  0.3819
 1144TIP3    H1 3396   1.631   0.180   3.134 -0.8651 -1.0023 -0.4681
 1144TIP3    H2 3397   1.723   0.280   3.067  1.1295 -1.9939  0.7071
 1145TIP3   OH2 3398   3.902   1.243   4.301 -0.0281  0.0813 -0.6367
 1145TIP3    H1 3399   3.871   1.318   4.249  0.2804 -0.2272 -1.2795
 1145TIP3    H2 3400   3.909   1.171   4.237 -2.1450 -1.0435  0.2937
 1146TIP3   OH2 3401   3.853   4.302   0.408  0.5072 -0.2484 -0.5293
 1146TIP3    H1 3402   3.930   4.272   0.456 -0.0973 -0.5159  0.2955
 1146TIP3    H2 3403   3.869   4.396   0.394 -0.2627  0.3801  2.1592
 1147TIP3   OH2 3404   0.407   0.537   0.325  0.4838 -0.8357 -0.4658
 1147TIP3    H1 3405   0.489   0.489   0.313  0.8334 -0.6165  0.8359
 1147TIP3    H2 3406   0.435   0.625   0.350 -0.0572 -1.4465  2.7129
 1148TIP3   OH2 3407   0.569   0.970   5.779  0.1212 -0.4571 -0.2806
 1148TIP3    H1 3408   0.633   0.899   5.771  2.2884  1.3541  0.0300
 1148TIP3    H2 3409   0.600   1.023   5.852 -0.3060  1.8550 -1.6742
 1149TIP3   OH2 3410   6.594   6.463   4.824 -0.4620 -0.0713 -0.2667
 1149TIP3    H1 3411   6.595   6.377   4.865 -0.1082  0.0480 -0.0185
 1149TIP3    H2 3412   6.670   6.508   4.861 -1.1088  0.6409  0.2324
 1150TIP3   OH2 3413   5.051   0.954   4.416 -0.4646  0.2999 -0.0257
 1150TIP3    H1 3414   5.035   0.976   4.508 -0.3666 -0.3035  0.1437
 1150TIP3    H2 3415   5.014   0.866   4.407  0.3773 -0.0322 -0.3145
 1151TIP3   OH2 3416   2.380   4.868   1.649  0.3638 -0.2621 -0.3990
 1151TIP3    H1 3417   2.388   4.818   1.730  0.1149  0.9486  0.4011
 1151TIP3    H2 3418   2.421   4.952   1.668  2.3115 -0.6932 -2.2477
 1152TIP3   OH2 3419   0.345   1.414   0.153 -0.5681  0.0918 -0.0751
 1152TIP3    H1 3420   0.324   1.373   0.237 -0.9240 -0.5669 -0.4730
 1152TIP3    H2 3421   0.341   1.508   0.171 -0.4969 -0.0399  0.6759
 1153TIP3   OH2 3422   0.846   0.930   4.668 -0.0964  0.0943  0.5014
 1153TIP3    H1 3423   0.859   0.973   4.753 -0.2733  1.9553 -0.3457
 1153TIP3    H2 3424   0.773   0.977   4.628 -0.5565 -1.2960 -0.3509
 1154TIP3   OH2 3425   0.066   5.899   2.421 -0.6090  0.5360  0.4436
 1154TIP3    H1 3426   0.127   5.947   2.477  1.7289 -2.2257  0.4695
 1154TIP3    H2 3427   0.012   5.849   2.482  2.2672 -2.8662  0.5373
 1155TIP3   OH2 3428   5.827   6.647   3.184 -0.4014 -0.1513  0.5936
 1155TIP3    H1 3429   5.785   6.707   3.122 -2.6265  0.1901  2.3055
 1155TIP3    H2 3430   5.877   6.703   3.242 -3.8206  0.4832  3.2505
 1156TIP3   OH2 3431   0.791   3.647   4.792  0.1694  0.1906 -0.1612
 1156TIP3    H1 3432   0.748   3.719   4.838 -1.2235 -0.8416  0.2292
 1156TIP3    H2 3433   0.779   3.571   4.850 -1.2999 -1.0680 -2.0065
 1157TIP3   OH2 3434   5.873   0.129   3.417 -0.2113 -0.0690  0.3504
 1157TIP3    H1 3435   5.917   0.162   3.496  0.6551  0.0093 -0.1423
 1157TIP3    H2 3436   5.787   0.171   3.417  0.1371  0.6615  0.7630
 1158TIP3   OH2 3437   6.470   1.502   4.478 -0.2752 -0.0239  0.3402
 1158TIP3    H1 3438   6.511   1.427   4.436 -3.1495 -1.5649  0.0719
 1158TIP3    H2 3439   6.445   1.470   4.565  1.2220  1.6551  1.4808
 1159TIP3   OH2 3440   6.403   4.741   0.574 -0.3049 -0.0381  0.0588
 1159TIP3    H1 3441   6.348   4.713   0.647 -0.9713  0.7296 -0.1331
 1159TIP3    H2 3442   6.419   4.834   0.590  0.0954 -0.0173 -0.4246
 1160TIP3   OH2 3443   3.065   2.670   1.117 -0.6351  0.1969  0.3683
 1160TIP3    H1 3444   3.096   2.612   1.048  0.8742 -0.5064  1.5821
 1160TIP3    H2 3445   3.144   2.708   1.154 -1.5387  2.1754  0.3592
 1161TIP3   OH2 3446   6.582   4.131   1.675  0.0171 -0.5807  0.0372
 1161TIP3    H1 3447   6.539   4.048   1.656  0.9402 -0.9344 -0.6065
 1161TIP3    H2 3448   6.597   4.130   1.769  0.5354 -1.4255 -0.0416
 1162TIP3   OH2 3449   0.446   1.313   1.883 -0.9593 -0.4775 -0.5939
 1162TIP3    H1 3450   0.468   1.279   1.969 -1.1544  0.1442 -0.2924
 1162TIP3    H2 3451   0.351   1.322   1.883 -0.9700 -0.5572 -0.9060
 1163TIP3   OH2 3452   0.229   3.892   1.258 -0.4781 -0.2105 -0.3344
 1163TIP3    H1 3453   0.162   3.954   1.288 -0.2361  0.4941 -1.2193
 1163TIP3    H2 3454   0.234   3.827   1.328 -2.1041 -0.2893 -0.2455
 1164TIP3   OH2 3455   4.231   3.232   4.070  0.0067 -0.3145 -0.2527
 1164TIP3    H1 3456   4.259   3.324   4.071  1.7755 -0.8175 -0.4789
 1164TIP3    H2 3457   4.141   3.235   4.102 -0.1983  1.5679 -0.8496
 1165TIP3   OH2 3458   6.903   2.313   2.347 -0.3874  0.9401  0.3552
 1165TIP3    H1 3459   6.840   2.327   2.277  0.2808 -0.7836 -0.6666
 1165TIP3    H2 3460   6.850   2.308   2.427 -1.4955  0.1879 -0.3956
 1166TIP3   OH2 3461   3.878   1.872   0.798 -0.0637  0.4229  0.3784
 1166TIP3    H1 3462   3.947   1.925   0.757 -0.3457  0.7053  0.2598
 1166TIP3    H2 3463   3.917   1.841   0.879  0.0054  1.0769  0.6041
 1167TIP3   OH2 3464   5.974   4.249   0.949  0.1295  0.1688  0.3967
 1167TIP3    H1 3465   6.019   4.180   0.899  1.5496  1.3060  0.0105
 1167TIP3    H2 3466   6.037   4.274   1.016 -0.3524  1.1029  0.5128
 1168TIP3   OH2 3467   3.834   1.748   3.496  0.1733 -0.0338  0.1267
 1168TIP3    H1 3468   3.928   1.729   3.493 -0.0143 -0.9546 -0.1715
 1168TIP3    H2 3469   3.829   1.840   3.523  1.1573  0.0201  0.1568
 1169TIP3   OH2 3470   5.293   0.210   1.310 -0.6101 -0.0145 -0.3610
 1169TIP3    H1 3471   5.358   0.232   1.244 -0.0095  0.4709  0.3740
 1169TIP3    H2 3472   5.241   0.140   1.270  0.3310 -0.3855 -0.9711
 1170TIP3   OH2 3473   6.706   5.468   3.226  0.4219  0.5689  0.8966
 1170TIP3    H1 3474   6.672   5.416   3.298 -0.8774  0.1081 -0.0067
 1170TIP3    H2 3475   6.771   5.412   3.184 -1.1517 -0.4969 -0.2245
 1171TIP3   OH2 3476   5.719   0.979   0.917 -0.3561 -0.0251  0.2760
 1171TIP3    H1 3477   5.781   0.996   0.988 -1.5421 -0.4081  1.4352
 1171TIP3    H2 3478   5.761   0.910   0.865  0.0101 -0.5862  1.2857
 1172TIP3   OH2 3479   3.002   2.500   5.243  0.6956  0.2672  0.2311
 1172TIP3    H1 3480   3.009   2.584   5.288  2.0428  0.8428 -0.9367
 1172TIP3    H2 3481   3.028   2.520   5.153  0.4908 -1.3026 -0.2022
 1173TIP3   OH2 3482   0.872   5.354   5.215 -0.3801  0.1314  0.6677
 1173TIP3    H1 3483   0.822   5.392   5.142  1.2969  0.1752 -0.5136
 1173TIP3    H2 3484   0.806   5.333   5.281 -2.0162 -0.1944 -0.9893
 1174TIP3   OH2 3485   7.032   1.884   4.618  0.3715  0.3809 -0.2148
 1174TIP3    H1 3486   7.027   1.860   4.710  1.4737  3.1900  0.6958
 1174TIP3    H2 3487   6.942   1.876   4.586 -0.0112 -0.7139  1.0555
 1175TIP3   OH2 3488   0.325   1.064   1.542  0.0486  1.0549  0.4396
 1175TIP3    H1 3489   0.338   1.029   1.630  1.6525 -0.9851 -0.5152
 1175TIP3    H2 3490   0.241   1.030   1.514 -2.4001  4.7651  2.4003
 1176TIP3   OH2 3491   0.820   1.757   2.722  0.2010 -0.6348 -0.1079
 1176TIP3    H1 3492   0.779   1.843   2.729 -1.4624 -1.3287 -1.0409
 1176TIP3    H2 3493   0.890   1.770   2.658 -1.1631 -0.3445 -1.6102
 1177TIP3   OH2 3494   0.597   3.369   4.044 -0.5545 -0.3086  1.1078
 1177TIP3    H1 3495   0.599   3.449   3.993 -5.0219 -0.9759 -0.4746
 1177TIP3    H2 3496   0.576   3.398   4.133 -0.2011  0.3604  0.9825
 1178TIP3   OH2 3497   5.957   0.160   3.668  0.3438  1.2731  0.3094
 1178TIP3    H1 3498   5.886   0.168   3.732 -0.6016  0.6357 -0.6233
 1178TIP3    H2 3499   6.010   0.087   3.700 -0.1749  0.8973  0.3265
 1179TIP3   OH2 3500   0.630   4.514   4.018 -0.3567 -0.2377  0.1753
 1179TIP3    H1 3501   0.680   4.565   3.955  0.6600  1.0981  1.9866
 1179TIP3    H2 3502   0.601   4.578   4.083  0.8728 -1.8910  2.4851
 1180TIP3   OH2 3503   7.012   2.615   0.723 -0.3729  0.3776  0.2635
 1180TIP3    H1 3504   7.059   2.648   0.799 -0.7411  0.7287  0.3459
 1180TIP3    H2 3505   6.921   2.607   0.753 -0.5298  0.5677 -0.1500
 1181TIP3   OH2 3506   6.298   3.699   1.352 -0.0990  0.3245  0.4529
 1181TIP3    H1 3507   6.342   3.710   1.268 -0.9220 -0.5489 -0.1137
 1181TIP3    H2 3508   6.288   3.788   1.386  0.6005  0.6547 -0.1799
 1182TIP3   OH2 3509   3.734   1.172   1.817  0.4210 -0.1316  0.1714
 1182TIP3    H1 3510   3.818   1.138   1.788  1.1699  1.1593  0.7300
 1182TIP3    H2 3511   3.753   1.262   1.845 -1.4866  0.8478 -1.4274
 1183TIP3   OH2 3512   2.367   1.505   5.636  0.0169  0.0956 -0.3461
 1183TIP3    H1 3513   2.323   1.539   5.558 -0.9835 -0.5334 -0.0824
 1183TIP3    H2 3514   2.438   1.450   5.602 -1.4248 -1.5237 -0.8913
 1184TIP3   OH2 3515   1.893   5.830   4.710 -0.1418 -0.2008  0.5088
 1184TIP3    H1 3516   1.806   5.835   4.669  0.0584  1.4616  0.2165
 1184TIP3    H2 3517   1.950   5.796   4.641  0.0571  1.9156 -0.4375
 1185TIP3   OH2 3518   1.260   3.182   1.378 -0.2911  0.2682  0.5717
 1185TIP3    H1 3519   1.251   3.184   1.474  0.8798 -0.1429  0.6985
 1185TIP3    H2 3520   1.310   3.102   1.361 -1.1511 -0.0733 -0.4532
 1186TIP3   OH2 3521   4.462   1.695   1.417  0.1768 -0.4803 -0.6473
 1186TIP3    H1 3522   4.555   1.689   1.396  0.5736 -0.9248  1.1048
 1186TIP3    H2 3523   4.424   1.615   1.380  0.7699 -1.0448 -0.0499
 1187TIP3   OH2 3524   4.015   3.472   5.361 -0.9751  0.0322 -0.1312
 1187TIP3    H1 3525   3.942   3.534   5.367 -1.0660  0.0535 -1.3028
 1187TIP3    H2 3526   3.974   3.386   5.365 -0.9903  0.0424 -0.0597
 1188TIP3   OH2 3527   4.486   4.966   1.570 -0.1459  0.2299 -0.4185
 1188TIP3    H1 3528   4.551   4.898   1.588 -0.5773  0.2659  1.5181
 1188TIP3    H2 3529   4.402   4.924   1.587 -0.5254  0.7277 -1.0265
 1189TIP3   OH2 3530   3.244   0.398   5.754  0.7883 -0.0405  0.5651
 1189TIP3    H1 3531   3.172   0.399   5.817  0.2468 -0.5417 -0.0311
 1189TIP3    H2 3532   3.235   0.314   5.709 -1.6834  2.0284 -3.3837
 1190TIP3   OH2 3533   4.316   4.260   4.574 -0.5240  0.0590  0.5294
 1190TIP3    H1 3534   4.234   4.296   4.607  0.9440  1.6963  2.6172
 1190TIP3    H2 3535   4.332   4.183   4.628 -0.4010  0.0515  0.4829
 1191TIP3   OH2 3536   6.663   6.573   3.160  0.1997  0.0513  0.4334
 1191TIP3    H1 3537   6.616   6.625   3.095 -1.3749 -0.5027  1.0676
 1191TIP3    H2 3538   6.704   6.503   3.109 -0.6649 -0.1345 -0.0354
 1192TIP3   OH2 3539   6.120   4.253   5.784 -0.6197 -0.0521 -0.0985
 1192TIP3    H1 3540   6.159   4.323   5.733 -0.4066 -0.0663  0.0425
 1192TIP3    H2 3541   6.113   4.180   5.723 -1.1557  0.1958 -0.3368
 1193TIP3   OH2 3542   2.699   4.059   3.623 -0.1070 -0.0287 -0.1569
 1193TIP3    H1 3543   2.768   4.057   3.557 -0.0005 -0.5658 -0.0358
 1193TIP3    H2 3544   2.733   4.007   3.696 -0.5950 -0.2178 -0.0577
 1194TIP3   OH2 3545   4.973   3.244   0.811  0.0738 -0.5470 -0.1816
 1194TIP3    H1 3546   5.067   3.262   0.820  0.0767 -0.2473 -0.7287
 1194TIP3    H2 3547   4.944   3.306   0.744 -0.6754 -0.0899  0.5483
 1195TIP3   OH2 3548   6.216   4.110   0.098  0.6248  0.0489 -0.1139
 1195TIP3    H1 3549   6.183   4.030   0.138  0.5265  0.4589  0.6274
 1195TIP3    H2 3550   6.268   4.153   0.166 -0.8562  1.5580  0.1252
 1196TIP3   OH2 3551   2.743   4.315   1.346  0.1434  0.1883  0.4433
 1196TIP3    H1 3552   2.748   4.221   1.333  0.8440  0.2203  0.3955
 1196TIP3    H2 3553   2.785   4.352   1.268  0.4169  0.5184  0.7411
 1197TIP3   OH2 3554   0.550   3.058   3.531 -0.3244  0.0924 -0.3119
 1197TIP3    H1 3555   0.491   3.133   3.532 -1.0477 -0.3084 -3.4698
 1197TIP3    H2 3556   0.505   2.991   3.582 -1.2520  0.6865 -0.3369
 1198TIP3   OH2 3557   3.990   0.257   3.428 -0.2355 -0.4650 -0.1695
 1198TIP3    H1 3558   4.000   0.349   3.451  0.9936 -0.7437  0.5220
 1198TIP3    H2 3559   3.973   0.257   3.334  0.5277  0.4293 -0.3253
 1199TIP3   OH2 3560   3.893   6.566   5.833  0.0021  0.1949 -0.4169
 1199TIP3    H1 3561   3.809   6.606   5.810  1.1474  3.8095  0.9314
 1199TIP3    H2 3562   3.931   6.540   5.749 -1.7394 -0.0122 -1.1878
 1200TIP3   OH2 3563   6.993   1.564   5.355 -0.5508  0.0531  0.1396
 1200TIP3    H1 3564   7.000   1.577   5.450 -2.6725 -0.7581  0.4722
 1200TIP3    H2 3565   6.965   1.649   5.321 -0.9510  0.0368  0.4166
 1201TIP3   OH2 3566   1.958   2.086   1.952  0.1800 -0.2209 -0.3280
 1201TIP3    H1 3567   1.909   2.168   1.943  0.6709  0.0294 -0.7452
 1201TIP3    H2 3568   2.017   2.084   1.877 -0.2918 -1.2857 -0.6950
 1202TIP3   OH2 3569   4.818   2.262   5.226 -0.0720  0.0269  0.2819
 1202TIP3    H1 3570   4.837   2.168   5.235 -0.8305 -0.0735  0.9170
 1202TIP3    H2 3571   4.901   2.300   5.196  0.0528 -0.9396 -0.6534
 1203TIP3   OH2 3572   5.093   4.137   5.858  0.0029 -0.0582 -0.1359
 1203TIP3    H1 3573   5.137   4.052   5.848  1.1181  0.4574  0.1648
 1203TIP3    H2 3574   5.158   4.192   5.901 -0.5402  1.0918 -0.7382
 1204TIP3   OH2 3575   1.413   1.649   2.875  0.3277  0.7680 -0.3663
 1204TIP3    H1 3576   1.472   1.577   2.854  0.1881  1.0402 -1.7628
 1204TIP3    H2 3577   1.444   1.722   2.822 -0.3053  1.3648  0.0734
 1205TIP3   OH2 3578   1.926   2.634   5.080  0.3288  0.4543 -0.3551
 1205TIP3    H1 3579   1.942   2.592   4.996  0.8869 -1.4474  0.6290
 1205TIP3    H2 3580   2.012   2.669   5.105 -0.0455  1.8518 -0.9864
 1206TIP3   OH2 3581   1.837   0.306   3.537  0.2416 -0.0977  0.1369
 1206TIP3    H1 3582   1.785   0.229   3.561  0.7608 -0.6260 -0.4196
 1206TIP3    H2 3583   1.924   0.289   3.574  0.4283  0.1021 -0.2079
 1207TIP3   OH2 3584   4.103   1.461   5.363  0.5912 -0.0495 -0.6506
 1207TIP3    H1 3585   4.014   1.427   5.371  0.8022 -0.3207  1.0226
 1207TIP3    H2 3586   4.102   1.515   5.284 -1.2281  0.4300 -0.3344
 1208TIP3   OH2 3587   2.943   5.336   1.078 -0.1356 -0.1715 -0.2917
 1208TIP3    H1 3588   2.992   5.270   1.029  0.9708  0.5613 -0.2000
 1208TIP3    H2 3589   2.991   5.418   1.063  0.0902  0.1208  1.7712
 1209TIP3   OH2 3590   1.407   4.717   4.250 -0.3794 -0.2523  0.0719
 1209TIP3    H1 3591   1.482   4.770   4.275 -0.5831  0.0544  0.0325
 1209TIP3    H2 3592   1.384   4.747   4.162 -0.6041 -0.2807  0.1194
 1210TIP3   OH2 3593   0.379   3.110   0.207 -0.4724  0.2544  0.4546
 1210TIP3    H1 3594   0.379   3.126   0.112 -2.4329  0.9614  0.5282
 1210TIP3    H2 3595   0.469   3.083   0.227 -0.2742 -1.0069 -1.7830
 1211TIP3   OH2 3596   0.270   4.978   1.080 -1.1790  0.3988 -0.2396
 1211TIP3    H1 3597   0.354   5.018   1.056 -1.0378  2.1181  2.6385
 1211TIP3    H2 3598   0.289   4.884   1.086  0.5638  0.7418  0.2410
 1212TIP3   OH2 3599   7.033   5.149   0.854  0.3599 -0.2183  0.3621
 1212TIP3    H1 3600   6.984   5.230   0.841  0.8845 -0.0415 -0.6317
 1212TIP3    H2 3601   6.996   5.088   0.790  1.3382 -0.1097 -0.3425
 1213TIP3   OH2 3602   6.707   5.246   1.035 -0.2206  0.0661 -0.2405
 1213TIP3    H1 3603   6.761   5.247   0.956  0.6770 -1.9409  0.2840
 1213TIP3    H2 3604   6.628   5.198   1.009  0.3735 -1.2029  0.2137
 1214TIP3   OH2 3605   5.695   0.979   2.178  0.2872 -0.3490 -0.2330
 1214TIP3    H1 3606   5.624   0.984   2.114  1.1072 -1.3210 -1.2775
 1214TIP3    H2 3607   5.754   0.913   2.142  0.9342 -0.6927  1.4004
 1215TIP3   OH2 3608   3.727   6.752   0.320 -0.3435  0.0515 -0.0600
 1215TIP3    H1 3609   3.636   6.750   0.351 -0.2320  0.4688  0.2993
 1215TIP3    H2 3610   3.761   6.665   0.340 -0.8050 -0.2722 -0.6325
 1216TIP3   OH2 3611   0.334  -0.005   4.169 -0.5604 -0.2030  0.1777
 1216TIP3    H1 3612   0.361   0.070   4.221 -0.0597 -0.1193 -0.1936
 1216TIP3    H2 3613   0.302   0.033   4.087  0.8938 -0.4384 -0.5360
 1217TIP3   OH2 3614   0.727   6.766   5.047  0.2065 -0.1639 -0.9476
 1217TIP3    H1 3615   0.740   6.807   4.962 -0.3331  1.3881 -0.3129
 1217TIP3    H2 3616   0.635   6.739   5.047 -0.6112  2.3884  0.1521
 1218TIP3   OH2 3617   0.863   3.055   2.179 -0.4785 -0.0721 -0.4272
 1218TIP3    H1 3618   0.797   3.016   2.123 -1.0694  1.2057 -0.6549
 1218TIP3    H2 3619   0.860   3.149   2.158  0.9100  0.1103  0.0646
 1219TIP3   OH2 3620   5.439   2.361   2.053  0.0699  0.6272 -0.0920
 1219TIP3    H1 3621   5.353   2.362   2.010 -0.2276  0.4156  0.4775
 1219TIP3    H2 3622   5.431   2.291   2.118  1.0531 -0.1577 -0.7806
 1220TIP3   OH2 3623   2.176   3.626   0.909  0.2723  0.2841  0.1430
 1220TIP3    H1 3624   2.088   3.665   0.913  0.0504 -0.2177  0.3291
 1220TIP3    H2 3625   2.169   3.557   0.843  0.1208 -0.7084  1.1622
 1221TIP3   OH2 3626   5.954   3.255   2.682 -0.0295  0.1605  0.1007
 1221TIP3    H1 3627   5.919   3.343   2.701 -0.7889 -0.2326  0.5869
 1221TIP3    H2 3628   5.924   3.202   2.756 -1.3478 -0.9786 -1.2091
 1222TIP3   OH2 3629   3.455   5.531   1.339 -0.3944  0.1721  0.1409
 1222TIP3    H1 3630   3.508   5.582   1.400  1.6169 -0.7629 -0.7349
 1222TIP3    H2 3631   3.460   5.579   1.256 -0.7899 -0.0181  0.0024
 1223TIP3   OH2 3632   6.852   2.794   2.610  0.3113 -0.4278 -0.4149
 1223TIP3    H1 3633   6.900   2.777   2.529  2.0320 -3.8285  1.0904
 1223TIP3    H2 3634   6.921   2.803   2.677 -1.0514  1.8368  0.8027
 1224TIP3   OH2 3635   5.640   0.544   1.875  0.1097  0.1018  0.0920
 1224TIP3    H1 3636   5.734   0.557   1.859  0.0375  1.4089  0.6522
 1224TIP3    H2 3637   5.621   0.599   1.950 -0.7376 -1.6140  1.1803
 1225TIP3   OH2 3638   4.279   5.307   1.322 -0.2578 -0.2322 -0.0265
 1225TIP3    H1 3639   4.189   5.336   1.337  0.5804  1.8931  1.2607
 1225TIP3    H2 3640   4.313   5.285   1.409  0.2585 -1.8603 -0.5849
 1226TIP3   OH2 3641   0.736   4.670   3.813 -0.1503 -0.3878 -0.3387
 1226TIP3    H1 3642   0.711   4.761   3.796 -1.6811 -0.7776 -0.3376
 1226TIP3    H2 3643   0.832   4.671   3.813 -0.1318  1.0194 -1.3865
 1227TIP3   OH2 3644   0.430   0.952   3.431  0.2845 -0.3383  0.6669
 1227TIP3    H1 3645   0.525   0.955   3.418  0.3923 -1.5567  0.9537
 1227TIP3    H2 3646   0.399   0.893   3.362 -0.0630 -1.0809  1.4403
 1228TIP3   OH2 3647   5.373   5.952   5.099 -0.4659 -0.1985  0.3454
 1228TIP3    H1 3648   5.386   6.046   5.095  0.9764 -0.4215 -0.8145
 1228TIP3    H2 3649   5.430   5.916   5.031  0.5943 -2.0470  2.0640
 1229TIP3   OH2 3650   1.607   3.432   3.177 -0.3343  0.4977  0.4576
 1229TIP3    H1 3651   1.630   3.525   3.187  0.8897  0.4063 -1.1349
 1229TIP3    H2 3652   1.547   3.431   3.102  0.5668 -0.1077 -0.2669
 1230TIP3   OH2 3653   3.867   2.418   1.992  0.1285 -0.3592 -0.0799
 1230TIP3    H1 3654   3.955   2.421   1.954 -0.4644  1.8229 -1.4470
 1230TIP3    H2 3655   3.822   2.494   1.955 -1.8584 -0.5167  1.7985
 1231TIP3   OH2 3656   0.326   6.318   2.425  0.1216  0.3929  0.2365
 1231TIP3    H1 3657   0.350   6.371   2.349  1.4906 -2.0090 -1.1064
 1231TIP3    H2 3658   0.386   6.347   2.494  0.9320  0.5098 -0.4977
 1232TIP3   OH2 3659   2.278   1.085   3.012 -0.4298  0.2158  0.0742
 1232TIP3    H1 3660   2.370   1.072   2.990 -0.0926  0.5218  1.2515
 1232TIP3    H2 3661   2.269   1.180   3.026 -1.1293  0.3092 -0.8661
 1233TIP3   OH2 3662   2.120   4.911   5.486 -0.0670 -0.3705  0.0814
 1233TIP3    H1 3663   2.173   4.978   5.443 -2.2564  1.1111 -0.4713
 1233TIP3    H2 3664   2.091   4.953   5.567  0.6442 -1.6395  1.0204
 1234TIP3   OH2 3665   4.264   2.630   4.440  0.2810  0.2036  0.4775
 1234TIP3    H1 3666   4.276   2.557   4.380 -0.3511 -0.6843  1.3975
 1234TIP3    H2 3667   4.169   2.643   4.444  0.1089 -1.1092  2.7748
 1235TIP3   OH2 3668   2.599   1.635   4.452 -0.4009 -0.1849  0.6270
 1235TIP3    H1 3669   2.540   1.639   4.528 -2.0161 -2.5450 -0.3880
 1235TIP3    H2 3670   2.654   1.558   4.468 -0.3394 -0.3454 -0.3070
 1236TIP3   OH2 3671   2.592   5.486   1.988 -0.3501 -0.0378 -0.4099
 1236TIP3    H1 3672   2.499   5.507   1.983 -0.3294 -0.0384 -0.8382
 1236TIP3    H2 3673   2.633   5.567   2.020 -0.5346 -0.1466  0.1062
 1237TIP3   OH2 3674   6.410   2.975   3.500  0.0703  0.4442 -0.3241
 1237TIP3    H1 3675   6.406   3.054   3.445  0.4584  0.6524 -0.0520
 1237TIP3    H2 3676   6.435   3.007   3.586 -1.8897  0.3049  0.3485
 1238TIP3   OH2 3677   6.943   5.061   0.442  0.0173 -0.3506  0.2712
 1238TIP3    H1 3678   6.959   5.153   0.421  0.9737 -0.5557  0.0404
 1238TIP3    H2 3679   6.849   5.048   0.427 -0.6304  1.1604  2.5182
 1239TIP3   OH2 3680   1.312   2.901   0.867 -0.0584 -0.2554  0.4577
 1239TIP3    H1 3681   1.400   2.922   0.837  0.1782 -0.2596  1.1371
 1239TIP3    H2 3682   1.314   2.915   0.962 -0.5922 -0.9342  0.5798
 1240TIP3   OH2 3683   0.063   0.452   1.619 -0.5013 -0.2431  0.1566
 1240TIP3    H1 3684  -0.030   0.453   1.598 -0.4558  0.7497 -0.0257
 1240TIP3    H2 3685   0.070   0.498   1.702 -0.4164 -2.2826  1.3326
 1241TIP3   OH2 3686   5.443   3.387   4.207 -0.9291  0.9065 -0.2731
 1241TIP3    H1 3687   5.500   3.362   4.279  0.8796  2.0287 -1.2279
 1241TIP3    H2 3688   5.365   3.333   4.218  0.6688 -1.3860  0.6048
 1242TIP3   OH2 3689   6.208   6.299   1.761  0.2353 -0.1563 -0.0299
 1242TIP3    H1 3690   6.203   6.335   1.673 -1.7585 -0.7265 -0.1906
 1242TIP3    H2 3691   6.299   6.270   1.770  0.6927  0.7067 -1.5557
 1243TIP3   OH2 3692   1.088   4.525   3.567  0.0056  0.2848  0.3289
 1243TIP3    H1 3693   1.088   4.469   3.645 -2.6091 -2.3737 -1.3819
 1243TIP3    H2 3694   1.151   4.484   3.508 -1.3619 -0.5008 -0.6418
 1244TIP3   OH2 3695   6.316   1.436   0.818 -0.3262 -0.4167  0.0214
 1244TIP3    H1 3696   6.371   1.498   0.771  0.0108 -0.4341  0.3830
 1244TIP3    H2 3697   6.272   1.386   0.750 -0.1886 -0.1395 -0.2714
 1245TIP3   OH2 3698   5.647   6.760   5.100  0.4413 -0.3698  0.1691
 1245TIP3    H1 3699   5.694   6.820   5.157 -1.4158  0.5451  0.8499
 1245TIP3    H2 3700   5.572   6.731   5.152 -0.2287 -1.0695 -1.1272
 1246TIP3   OH2 3701   4.860   0.512   3.252 -0.5754  0.1503  0.6619
 1246TIP3    H1 3702   4.823   0.490   3.337 -0.1865  1.1980  1.1131
 1246TIP3    H2 3703   4.873   0.607   3.255 -0.6238  0.2159 -0.5865
 1247TIP3   OH2 3704   3.087   2.658   4.888 -0.0824  0.5550  0.5664
 1247TIP3    H1 3705   3.161   2.651   4.827  0.5308 -0.9978  1.4342
 1247TIP3    H2 3706   3.011   2.629   4.837 -0.0355  1.6550 -0.1735
 1248TIP3   OH2 3707   3.742   6.579   0.969  0.4596  0.2684  0.7257
 1248TIP3    H1 3708   3.693   6.661   0.960  0.6938  0.4486  1.0468
 1248TIP3    H2 3709   3.734   6.557   1.062  1.3009  0.5094  0.8663
 1249TIP3   OH2 3710   4.752   6.705   0.426  0.2824  0.5102 -0.0438
 1249TIP3    H1 3711   4.738   6.630   0.484 -0.0210 -0.6087 -1.5010
 1249TIP3    H2 3712   4.680   6.701   0.363  1.4378  0.7461 -1.4344
 1250TIP3   OH2 3713   0.227   3.283   1.548  0.2951 -0.3042 -0.1736
 1250TIP3    H1 3714   0.166   3.267   1.620  0.6367 -0.0712  0.1691
 1250TIP3    H2 3715   0.280   3.203   1.542  0.3251 -0.2884 -0.1118
 1251TIP3   OH2 3716   5.338   6.255   3.337  0.3122 -0.3073 -0.2391
 1251TIP3    H1 3717   5.337   6.351   3.332  0.7434 -0.2895 -0.0634
 1251TIP3    H2 3718   5.294   6.235   3.419  1.7914 -0.1712  0.6262
 1252TIP3   OH2 3719   3.562   0.401   3.157 -0.8314  0.1863 -0.2185
 1252TIP3    H1 3720   3.609   0.333   3.110 -0.4254  1.0582 -1.1181
 1252TIP3    H2 3721   3.557   0.370   3.247 -0.2557 -0.8097 -0.5245
 1253TIP3   OH2 3722   5.907   3.078   0.522  0.1501 -0.3769 -0.0788
 1253TIP3    H1 3723   5.855   3.074   0.442 -3.0555 -0.0785  1.8009
 1253TIP3    H2 3724   5.900   2.990   0.560  1.2988 -0.4076  0.1050
 1254TIP3   OH2 3725   4.258   1.825   0.404 -0.3479 -0.2735  0.0204
 1254TIP3    H1 3726   4.300   1.835   0.490  1.4206 -1.1721 -0.6990
 1254TIP3    H2 3727   4.306   1.884   0.347 -0.3999 -0.9230 -0.7126
 1255TIP3   OH2 3728   6.564   1.609   4.082 -0.1019  0.1007 -0.1146
 1255TIP3    H1 3729   6.492   1.668   4.061 -0.5703  0.4061  2.1657
 1255TIP3    H2 3730   6.643   1.662   4.069 -0.5326  1.4745  2.3941
 1256TIP3   OH2 3731   7.131   0.937   2.588  0.3253 -0.2734 -0.0854
 1256TIP3    H1 3732   7.128   0.936   2.492  0.1269 -0.5505 -0.0749
 1256TIP3    H2 3733   7.152   0.847   2.613 -0.0756 -0.3036  0.1474
 1257TIP3   OH2 3734   0.366   3.474   0.917  0.1368  0.2204 -0.1171
 1257TIP3    H1 3735   0.330   3.522   0.843 -2.3648 -1.6622 -0.2770
 1257TIP3    H2 3736   0.399   3.393   0.879  1.5318  0.4764  0.4986
 1258TIP3   OH2 3737   6.607   3.826   4.500  0.6407  0.2414  0.0925
 1258TIP3    H1 3738   6.551   3.904   4.500 -2.6551 -1.8952 -0.5793
 1258TIP3    H2 3739   6.605   3.795   4.590  0.9721  0.3050  0.1214
 1259TIP3   OH2 3740   4.062   2.248   3.057  0.1411  0.1461  0.2070
 1259TIP3    H1 3741   4.043   2.188   3.129  0.8729 -0.5836 -0.1896
 1259TIP3    H2 3742   4.009   2.216   2.985  0.1683  0.2629  0.1354
 1260TIP3   OH2 3743   3.014   4.444   2.155  0.4323 -0.1622  0.1780
 1260TIP3    H1 3744   3.053   4.453   2.068 -1.5297 -0.7030 -0.8303
 1260TIP3    H2 3745   3.040   4.523   2.202  0.2402  0.9187 -1.4649
 1261TIP3   OH2 3746   2.720   6.320   4.932  0.3609 -0.0380 -0.1024
 1261TIP3    H1 3747   2.696   6.276   5.014  1.4259 -1.1921 -0.3633
 1261TIP3    H2 3748   2.644   6.307   4.875  0.4722 -1.2097 -0.0218
 1262TIP3   OH2 3749   1.852   4.631   3.139 -0.0251 -0.2966  0.0106
 1262TIP3    H1 3750   1.877   4.692   3.209  1.4489 -0.9317  0.0594
 1262TIP3    H2 3751   1.933   4.587   3.114 -0.5054 -0.0862 -2.1267
 1263TIP3   OH2 3752   1.765   6.005   5.580 -0.5375  0.5012 -0.0534
 1263TIP3    H1 3753   1.795   6.005   5.671 -0.2438 -2.6278 -0.0202
 1263TIP3    H2 3754   1.702   6.077   5.575 -1.6307 -0.0808  3.0208
 1264TIP3   OH2 3755   0.256   2.946   4.593 -0.1803 -0.1363  0.0394
 1264TIP3    H1 3756   0.258   2.920   4.685  0.8173  1.1490  0.4045
 1264TIP3    H2 3757   0.223   3.036   4.595  0.7118  0.2138 -0.7787
 1265TIP3   OH2 3758   1.232   3.520   4.070 -0.0317 -0.3083  0.3301
 1265TIP3    H1 3759   1.307   3.461   4.060 -0.5654 -1.1610  1.1215
 1265TIP3    H2 3760   1.227   3.535   4.165 -1.1636 -0.6826  0.3388
 1266TIP3   OH2 3761   1.408   0.276   1.565 -0.2806  0.1543  0.6824
 1266TIP3    H1 3762   1.482   0.216   1.556 -1.2325 -1.1445  1.3039
 1266TIP3    H2 3763   1.445   0.362   1.544  2.3428  0.1599  4.3232
 1267TIP3   OH2 3764   3.173   1.760   3.582  0.2229  0.1019  0.3023
 1267TIP3    H1 3765   3.253   1.716   3.554  0.6530  0.2332  1.2854
 1267TIP3    H2 3766   3.140   1.802   3.502  0.5064 -0.8991 -0.3653
 1268TIP3   OH2 3767   2.934   1.570   3.072 -0.0377 -0.5936 -0.4792
 1268TIP3    H1 3768   2.862   1.625   3.104  0.3494 -0.6223  0.4789
 1268TIP3    H2 3769   3.008   1.630   3.062 -0.6679 -0.1430 -3.4246
 1269TIP3   OH2 3770   4.570   3.081   1.972  0.2163 -0.2606 -0.4236
 1269TIP3    H1 3771   4.579   3.176   1.965 -0.5268 -0.2777 -2.1179
 1269TIP3    H2 3772   4.476   3.068   1.989 -0.1871 -0.7278 -2.6652
 1270TIP3   OH2 3773   5.713   4.027   3.345 -0.5919 -0.3848 -0.3141
 1270TIP3    H1 3774   5.640   4.088   3.350  0.4794  1.0070 -1.0274
 1270TIP3    H2 3775   5.790   4.078   3.371 -0.0083 -2.1716  1.8093
 1271TIP3   OH2 3776   0.368   2.868   3.631  0.6261  0.2942  0.4486
 1271TIP3    H1 3777   0.291   2.868   3.687  0.1767 -0.1537 -0.1534
 1271TIP3    H2 3778   0.363   2.785   3.584  0.7835  0.8341 -0.5391
 1272TIP3   OH2 3779   5.364   2.015   3.843  0.4198 -0.0258 -0.3603
 1272TIP3    H1 3780   5.436   2.071   3.815  0.4683  0.5116  0.7704
 1272TIP3    H2 3781   5.287   2.072   3.844  0.5867  0.2316  1.4020
 1273TIP3   OH2 3782   6.540   1.999   3.191  0.3699 -0.3828  0.4768
 1273TIP3    H1 3783   6.590   1.994   3.110 -0.5782 -1.4183 -0.0714
 1273TIP3    H2 3784   6.547   2.091   3.218  1.0288 -0.1151 -0.5601
 1274TIP3   OH2 3785   1.338   0.314   4.501  0.4566 -0.1353 -0.2753
 1274TIP3    H1 3786   1.316   0.397   4.458 -1.3394  0.3899  1.5088
 1274TIP3    H2 3787   1.301   0.322   4.589  0.3115 -2.8124 -0.0146
 1275TIP3   OH2 3788   4.508   1.001   5.227 -0.6033  0.1966  0.3983
 1275TIP3    H1 3789   4.541   0.955   5.150 -1.1274  0.8400 -0.2188
 1275TIP3    H2 3790   4.420   1.028   5.203 -0.4816  1.1014  0.9215
 1276TIP3   OH2 3791   4.807   0.108   1.927 -0.1907 -0.2650  0.1477
 1276TIP3    H1 3792   4.839   0.154   1.849 -1.0096  0.8483  0.4396
 1276TIP3    H2 3793   4.882   0.105   1.986  0.3840 -0.9442 -0.5911
 1277TIP3   OH2 3794   2.762   3.933   2.832 -0.1958  0.2387  0.0892
 1277TIP3    H1 3795   2.818   3.978   2.768 -2.0680 -0.0655 -1.9203
 1277TIP3    H2 3796   2.677   3.929   2.789 -1.6657  0.2428  2.7870
 1278TIP3   OH2 3797   6.513   6.528   3.389 -0.2443 -0.3525 -0.2453
 1278TIP3    H1 3798   6.485   6.438   3.376 -1.3899  0.2561 -2.5802
 1278TIP3    H2 3799   6.554   6.553   3.306  0.8223  1.0412  0.6468
 1279TIP3   OH2 3800   4.835   2.548   3.200 -0.3701  0.2090 -0.1111
 1279TIP3    H1 3801   4.790   2.572   3.281  0.8554  1.4849  0.2330
 1279TIP3    H2 3802   4.886   2.626   3.178 -1.0604  0.0741 -2.4031
 1280TIP3   OH2 3803   0.711   5.565   0.748 -0.1910  0.7243 -0.6655
 1280TIP3    H1 3804   0.623   5.539   0.773 -0.2460  1.5380  0.0465
 1280TIP3    H2 3805   0.703   5.657   0.722  0.5624  1.0340  0.1382
 1281TIP3   OH2 3806   1.332   1.352   3.775 -0.0248 -0.1469  0.0999
 1281TIP3    H1 3807   1.318   1.259   3.793  1.1431 -0.2698  0.4581
 1281TIP3    H2 3808   1.412   1.374   3.823 -1.5676  1.6291  2.0640
 1282TIP3   OH2 3809   1.346   2.066   2.356  0.0751  0.2325 -0.2393
 1282TIP3    H1 3810   1.429   2.103   2.327  0.8702  0.0440  1.6764
 1282TIP3    H2 3811   1.350   1.974   2.332  1.5942 -0.3975  2.0480
 1283TIP3   OH2 3812   2.819   4.911   5.243 -0.0138 -0.3080 -0.0738
 1283TIP3    H1 3813   2.799   4.818   5.234  2.3123 -0.7740 -1.3086
 1283TIP3    H2 3814   2.871   4.916   5.323  1.6012 -0.4622 -1.0665
 1284TIP3   OH2 3815   6.356   0.280   1.363 -0.3014  0.2567  0.8583
 1284TIP3    H1 3816   6.324   0.190   1.349  0.5205  0.1859 -0.8086
 1284TIP3    H2 3817   6.281   0.335   1.342 -0.5484 -0.0226  1.0012
 1285TIP3   OH2 3818   2.988   5.172   4.591 -0.4143  0.5643 -0.1116
 1285TIP3    H1 3819   2.985   5.120   4.510 -0.9359 -1.6706  1.2620
 1285TIP3    H2 3820   2.932   5.125   4.652 -1.8262  3.3957  0.9466
 1286TIP3   OH2 3821   3.833   1.888   3.809  0.3823  0.0703 -0.2085
 1286TIP3    H1 3822   3.757   1.940   3.836 -0.9022 -0.5119 -2.4336
 1286TIP3    H2 3823   3.867   1.933   3.732  0.8469 -0.9496 -0.6124
 1287TIP3   OH2 3824   3.696   3.010   2.623 -0.2594 -0.0616  0.2630
 1287TIP3    H1 3825   3.770   3.064   2.650 -0.5525  0.3743  0.2106
 1287TIP3    H2 3826   3.718   2.979   2.536 -0.1985  0.1858  0.1899
 1288TIP3   OH2 3827   0.975   1.825   3.888 -0.0582 -0.2683 -0.0664
 1288TIP3    H1 3828   1.042   1.865   3.832  1.2452  0.0285  1.6154
 1288TIP3    H2 3829   1.012   1.740   3.913 -0.0086  0.1400  1.3393
 1289TIP3   OH2 3830   0.082   0.855   1.734 -0.0609  0.1066 -0.2199
 1289TIP3    H1 3831   0.166   0.896   1.753  1.1068 -1.8841 -0.7259
 1289TIP3    H2 3832   0.085   0.772   1.782 -1.9306  0.1747  0.0876
 1290TIP3   OH2 3833   1.458   1.516   0.774  0.8390 -0.2175  0.3724
 1290TIP3    H1 3834   1.501   1.555   0.698 -0.2877  0.3316 -0.0092
 1290TIP3    H2 3835   1.528   1.474   0.823  2.0167  1.6520  0.3954
 1291TIP3   OH2 3836   3.905   1.170   2.065  0.4033 -0.3327  0.1273
 1291TIP3    H1 3837   3.856   1.178   2.146  1.0026 -1.8507  0.6895
 1291TIP3    H2 3838   3.905   1.257   2.027 -1.0699  0.1039  1.0675
 1292TIP3   OH2 3839   3.559   5.180   3.776  0.5944 -0.1443 -0.2541
 1292TIP3    H1 3840   3.538   5.239   3.848 -1.1558 -0.9019 -0.0836
 1292TIP3    H2 3841   3.560   5.236   3.699  0.5070  0.3563  0.1031
 1293TIP3   OH2 3842   4.689   3.973   2.024  0.3104 -0.2570 -0.4366
 1293TIP3    H1 3843   4.731   4.007   2.102 -0.4467 -0.4012  0.0483
 1293TIP3    H2 3844   4.755   3.917   1.983  0.5117 -0.6580  0.4194
 1294TIP3   OH2 3845   3.336   1.964   4.524  0.1165  0.6711 -0.1947
 1294TIP3    H1 3846   3.413   1.910   4.506  0.5318  1.1544  0.0923
 1294TIP3    H2 3847   3.262   1.903   4.523  0.7944 -0.3070  2.2534
 1295TIP3   OH2 3848   1.771   3.821   5.246  0.4363  0.2256 -0.0261
 1295TIP3    H1 3849   1.787   3.800   5.153 -1.7426  2.6633 -1.0800
 1295TIP3    H2 3850   1.836   3.888   5.266  0.7214 -0.0940  0.1160
 1296TIP3   OH2 3851   1.735   1.393   5.013  0.6458  0.4888  0.6019
 1296TIP3    H1 3852   1.809   1.348   5.055  1.5176  0.5358 -0.8327
 1296TIP3    H2 3853   1.747   1.378   4.920 -0.6327  1.3294  0.2773
 1297TIP3   OH2 3854   2.628   4.035   0.989 -0.1602  0.1715 -0.3477
 1297TIP3    H1 3855   2.589   4.120   0.970 -0.1041  0.1019 -0.7789
 1297TIP3    H2 3856   2.581   3.974   0.932 -1.1281 -0.3043  0.9135
 1298TIP3   OH2 3857   0.251   1.937   5.755  0.4435 -0.0959 -0.4014
 1298TIP3    H1 3858   0.253   1.845   5.731 -1.5288 -0.1333 -0.5638
 1298TIP3    H2 3859   0.340   1.969   5.738  1.6641 -2.3432  1.2638
 1299TIP3   OH2 3860   5.359   2.060   2.933  0.6584  0.0176 -0.0231
 1299TIP3    H1 3861   5.341   1.994   2.866  1.2443  1.4600 -1.6679
 1299TIP3    H2 3862   5.451   2.047   2.955  0.1389 -1.3230  1.5526
 1300TIP3   OH2 3863   4.125   2.770   3.073  0.1586  0.1573  0.1226
 1300TIP3    H1 3864   4.089   2.843   3.021  2.1948  0.2556 -1.2505
 1300TIP3    H2 3865   4.203   2.807   3.115 -0.1915 -0.5746  1.4916
 1301TIP3   OH2 3866   2.400   0.218   1.702  0.3779 -0.1903 -0.5898
 1301TIP3    H1 3867   2.453   0.173   1.768  1.1158 -0.3502 -1.2786
 1301TIP3    H2 3868   2.322   0.164   1.693  0.1211  0.0074  0.3801
 1302TIP3   OH2 3869   4.147   1.417   0.969 -0.8799 -0.0833  0.3303
 1302TIP3    H1 3870   4.152   1.499   0.921 -2.5869 -0.7048 -1.0034
 1302TIP3    H2 3871   4.197   1.355   0.915  0.1780 -0.0267  1.1969
 1303TIP3   OH2 3872   5.199   1.664   0.338 -0.4024  0.0442 -0.4411
 1303TIP3    H1 3873   5.126   1.697   0.390 -1.1536  0.0171 -1.4412
 1303TIP3    H2 3874   5.267   1.645   0.402 -0.6297  1.7133  0.3618
 1304TIP3   OH2 3875   4.215   5.598   4.249 -0.5666 -0.6752 -0.2067
 1304TIP3    H1 3876   4.249   5.517   4.287 -0.5429 -0.9929 -0.8862
 1304TIP3    H2 3877   4.211   5.660   4.322  0.9886 -0.7802 -0.0100
 1305TIP3   OH2 3878   0.077   2.272   3.127 -0.3030  0.3832  0.0357
 1305TIP3    H1 3879  -0.011   2.247   3.154  0.3206 -1.5431  0.4100
 1305TIP3    H2 3880   0.107   2.330   3.197 -1.4237  1.4819 -0.3525
 1306TIP3   OH2 3881   6.886   6.584   0.247 -0.2742  0.2888 -0.1302
 1306TIP3    H1 3882   6.907   6.633   0.327 -0.1636 -0.7410  0.4834
 1306TIP3    H2 3883   6.834   6.510   0.277 -0.6198  0.1395 -1.0744
 1307TIP3   OH2 3884   5.378   4.895   3.602  0.1658  0.7901  0.5023
 1307TIP3    H1 3885   5.338   4.938   3.527  0.3064  0.0922  0.0107
 1307TIP3    H2 3886   5.469   4.926   3.603 -0.6155  3.3740  2.3767
 1308TIP3   OH2 3887   3.453   6.780   0.373  0.8908  0.1812 -0.3020
 1308TIP3    H1 3888   3.407   6.769   0.290  0.5785  0.3381 -0.1546
 1308TIP3    H2 3889   3.397   6.839   0.423 -0.1248 -1.7134  0.9247
 1309TIP3   OH2 3890   6.251   4.277   0.821  0.3703 -0.6080  0.1425
 1309TIP3    H1 3891   6.182   4.212   0.809  1.0831 -1.4413  0.4366
 1309TIP3    H2 3892   6.236   4.341   0.752  0.2304 -1.6023 -0.7698
 1310TIP3   OH2 3893   4.610   5.367   3.491  0.1547  0.1702 -0.1532
 1310TIP3    H1 3894   4.525   5.361   3.448  0.6538  2.1685 -1.5614
 1310TIP3    H2 3895   4.593   5.343   3.582 -1.6213 -0.7750 -0.6994
 1311TIP3   OH2 3896   3.377   5.329   0.280  0.0767 -0.3662  0.2173
 1311TIP3    H1 3897   3.352   5.237   0.284  0.5670 -0.4697  1.1012
 1311TIP3    H2 3898   3.344   5.359   0.195  2.1194 -1.9992 -1.2560
 1312TIP3   OH2 3899   4.934   5.645   2.535 -0.2172 -0.1072 -0.1466
 1312TIP3    H1 3900   4.847   5.644   2.495  0.0665  2.1432 -0.9543
 1312TIP3    H2 3901   4.967   5.734   2.520  1.2532 -0.1344  2.2627
 1313TIP3   OH2 3902   4.273   3.103   0.226  0.5303 -0.2421  0.4537
 1313TIP3    H1 3903   4.293   3.173   0.288 -0.6775 -0.1672  0.7792
 1313TIP3    H2 3904   4.181   3.084   0.240  0.8562 -2.0138  0.4811
 1314TIP3   OH2 3905   5.046   0.492   5.247 -0.8360 -0.0259  0.2244
 1314TIP3    H1 3906   5.117   0.469   5.307 -0.2724  0.4091 -0.2616
 1314TIP3    H2 3907   5.010   0.408   5.219 -1.8700 -0.2374  2.0346
 1315TIP3   OH2 3908   6.905   0.872   3.252 -0.3339  0.2108  0.4594
 1315TIP3    H1 3909   6.892   0.906   3.163 -2.3632 -0.2762  0.5209
 1315TIP3    H2 3910   6.987   0.824   3.247 -0.1860  0.5531 -1.0494
 1316TIP3   OH2 3911   5.515   4.081   5.650  0.5299 -0.0085 -0.4538
 1316TIP3    H1 3912   5.511   4.089   5.555  0.7067 -0.2974 -0.4884
 1316TIP3    H2 3913   5.533   3.988   5.665  1.5106  0.2105 -0.1790
 1317TIP3   OH2 3914   2.489   2.367   4.713 -0.2075  0.2583 -0.0602
 1317TIP3    H1 3915   2.569   2.314   4.712 -0.8498 -0.8497  1.7314
 1317TIP3    H2 3916   2.515   2.451   4.751  0.0927 -0.1704  0.7066
 1318TIP3   OH2 3917   1.015   2.360   2.082 -0.1346 -0.2369  0.1064
 1318TIP3    H1 3918   1.102   2.369   2.120  0.0030  1.2886 -0.5100
 1318TIP3    H2 3919   0.956   2.364   2.157  0.2549  0.3657  0.3905
 1319TIP3   OH2 3920   4.990   0.045   5.544  0.7739 -0.8803  1.2385
 1319TIP3    H1 3921   5.039   0.058   5.462 -2.1252 -1.9483 -0.8400
 1319TIP3    H2 3922   4.969   0.133   5.574 -1.3781 -0.3582 -1.4219
 1320TIP3   OH2 3923   5.157   3.148   4.611 -0.5859  0.2076  0.6415
 1320TIP3    H1 3924   5.069   3.145   4.573 -0.4556 -0.9738  0.3891
 1320TIP3    H2 3925   5.154   3.084   4.683  0.1583 -0.1230  0.3908
 1321TIP3   OH2 3926   4.859   0.688   5.247  0.3980 -0.1684 -0.1160
 1321TIP3    H1 3927   4.902   0.602   5.248  0.5096 -0.1230 -0.7325
 1321TIP3    H2 3928   4.858   0.715   5.339 -1.2817 -1.6484  0.3841
 1322TIP3   OH2 3929   2.234   4.769   1.152 -0.4659  0.0602 -0.3304
 1322TIP3    H1 3930   2.279   4.714   1.088 -0.3763 -0.3027  0.0419
 1322TIP3    H2 3931   2.293   4.844   1.165 -0.6817  0.3526 -0.9879
 1323TIP3   OH2 3932   4.598   1.274   5.420  0.2583  0.4331  0.4506
 1323TIP3    H1 3933   4.566   1.364   5.408 -0.9787  0.2376  1.9610
 1323TIP3    H2 3934   4.587   1.233   5.335  0.5032  1.6062 -0.1696
 1324TIP3   OH2 3935   6.827   6.422   2.171  0.7344 -0.0207 -0.2283
 1324TIP3    H1 3936   6.825   6.495   2.110  0.8368 -0.2678 -0.5322
 1324TIP3    H2 3937   6.856   6.460   2.254  0.5753  0.3197 -0.3259
 1325TIP3   OH2 3938   4.998  -0.000   0.455 -0.2693  0.1342 -0.3483
 1325TIP3    H1 3939   4.997   0.048   0.372 -0.3742 -0.8168 -0.9177
 1325TIP3    H2 3940   4.948   0.054   0.515 -1.4719  0.1478 -1.3144
 1326TIP3   OH2 3941   0.924   5.283   0.107  0.2887 -0.4622 -0.2204
 1326TIP3    H1 3942   0.956   5.194   0.126  1.4064 -0.3754 -1.5462
 1326TIP3    H2 3943   1.004   5.336   0.102 -0.2094  0.2067 -1.4473
 1327TIP3   OH2 3944   2.843   1.427   0.575 -0.1070  0.5315  0.5209
 1327TIP3    H1 3945   2.777   1.497   0.583 -0.6090  0.1780 -0.3706
 1327TIP3    H2 3946   2.865   1.426   0.482  0.8442  0.3452  0.7451
 1328TIP3   OH2 3947   4.315   6.052   4.475  0.9367  0.3659  0.4000
 1328TIP3    H1 3948   4.403   6.073   4.507  1.4067  1.1473 -1.2712
 1328TIP3    H2 3949   4.279   6.137   4.449 -0.4058  0.0709  1.2198
 1329TIP3   OH2 3950   7.114   4.882   0.581  0.3373  0.1361 -0.3741
 1329TIP3    H1 3951   7.174   4.952   0.608  1.0956  0.2988 -2.3117
 1329TIP3    H2 3952   7.053   4.924   0.521  0.4197 -0.7320 -1.0847
 1330TIP3   OH2 3953   1.884   5.031   0.722 -0.1416 -0.0844 -1.2791
 1330TIP3    H1 3954   1.936   5.111   0.722 -0.1296 -0.0109  1.2825
 1330TIP3    H2 3955   1.793   5.061   0.728 -0.3036 -0.2613 -2.5919
 1331TIP3   OH2 3956   6.878   3.881   5.839 -0.4559  0.5421  0.2896
 1331TIP3    H1 3957   6.897   3.819   5.769  1.0392  1.4945 -0.2248
 1331TIP3    H2 3958   6.832   3.953   5.796  0.4414  1.1174  0.2548
 1332TIP3   OH2 3959   0.930   1.799   1.430  0.4333  0.5219 -0.0122
 1332TIP3    H1 3960   0.879   1.751   1.496 -0.3065 -2.1093 -2.2738
 1332TIP3    H2 3961   1.021   1.782   1.453  0.1844 -0.8079  0.1095
 1333TIP3   OH2 3962   2.622   3.814   0.254 -0.0326  0.1475  0.4201
 1333TIP3    H1 3963   2.553   3.748   0.243 -0.2793  0.0270  2.3680
 1333TIP3    H2 3964   2.703   3.769   0.229 -0.4325 -0.2842 -0.1243
 1334TIP3   OH2 3965   5.495   4.148   2.656 -0.4334  0.0149  0.0371
 1334TIP3    H1 3966   5.414   4.140   2.706 -0.5355  0.4378 -0.0556
 1334TIP3    H2 3967   5.472   4.118   2.568  0.2151 -2.5780  0.6573
 1335TIP3   OH2 3968   0.855   2.886   1.287 -0.1273 -0.1126 -0.1239
 1335TIP3    H1 3969   0.923   2.818   1.282 -1.3961 -1.4435  0.0029
 1335TIP3    H2 3970   0.846   2.904   1.381 -0.6224 -0.6714 -0.0561
 1336TIP3   OH2 3971   0.789   1.064   1.102  0.5029 -0.2643 -0.1222
 1336TIP3    H1 3972   0.807   0.984   1.053 -0.3754 -0.2654 -0.4632
 1336TIP3    H2 3973   0.858   1.125   1.075  0.3284 -0.4329 -0.9762
 1337TIP3   OH2 3974   3.242   0.424   4.286 -0.1772  0.4273  0.3741
 1337TIP3    H1 3975   3.261   0.410   4.379 -1.3718 -0.4573  0.5048
 1337TIP3    H2 3976   3.146   0.430   4.282 -0.3519 -2.1615 -1.1200
 1338TIP3   OH2 3977   0.862   0.075   0.757  0.1316 -0.3245 -0.3802
 1338TIP3    H1 3978   0.876   0.113   0.670  2.9686  1.7608  0.8254
 1338TIP3    H2 3979   0.950   0.068   0.794 -0.8106 -2.9903  1.6552
 1339TIP3   OH2 3980   0.727   5.286   1.020  0.1597 -0.2759  0.3262
 1339TIP3    H1 3981   0.734   5.282   1.116  3.2843 -0.4463  0.1944
 1339TIP3    H2 3982   0.695   5.374   1.002  0.3533  0.0602  1.5339
 1340TIP3   OH2 3983   6.505   1.200   3.134  0.3025 -0.8113  0.3562
 1340TIP3    H1 3984   6.584   1.147   3.138  0.0858 -1.5733 -2.8312
 1340TIP3    H2 3985   6.536   1.288   3.110  0.2219 -1.3191 -1.8184
 1341TIP3   OH2 3986   3.021   5.546   0.215  0.3706  0.0648 -0.2071
 1341TIP3    H1 3987   3.056   5.605   0.148  0.8212 -0.2586 -0.2614
 1341TIP3    H2 3988   2.997   5.603   0.287  1.9234  0.2191  0.2196
 1342TIP3   OH2 3989   5.170   0.713   2.607 -0.7525 -0.5524 -0.2355
 1342TIP3    H1 3990   5.192   0.804   2.588 -2.5346  0.5478  2.3636
 1342TIP3    H2 3991   5.255   0.672   2.627 -0.0174  0.8387 -0.3402
 1343TIP3   OH2 3992   5.054   3.264   2.960  0.1101  0.3836  0.1835
 1343TIP3    H1 3993   5.057   3.262   2.865 -0.8054  0.2667  0.1446
 1343TIP3    H2 3994   4.978   3.319   2.980 -0.8562 -1.0971  0.8098
 1344TIP3   OH2 3995   5.044   0.752   3.801 -0.1685  0.0603 -0.6755
 1344TIP3    H1 3996   5.005   0.690   3.863 -0.9574  0.2524 -0.9691
 1344TIP3    H2 3997   4.970   0.800   3.765  0.3064  0.1226 -1.5917
 1345TIP3   OH2 3998   0.302   3.004   1.915 -0.0117 -0.0958 -0.2371
 1345TIP3    H1 3999   0.211   3.002   1.946  0.0078  0.4135 -0.1475
 1345TIP3    H2 4000   0.342   3.078   1.960  0.4692 -0.3543 -0.2316
 1346TIP3   OH2 4001   7.156   1.918   3.377  0.2194  0.4342 -0.1787
 1346TIP3    H1 4002   7.172   1.923   3.472  1.1533 -0.1175 -0.3040
 1346TIP3    H2 4003   7.122   1.830   3.363  1.9311 -0.1896 -0.6113
 1347TIP3   OH2 4004   5.198   6.137   3.546 -0.1726  0.4048  0.1660
 1347TIP3    H1 4005   5.191   6.139   3.641  1.0249 -1.3450  0.3384
 1347TIP3    H2 4006   5.157   6.055   3.520  0.0810  0.5554 -0.7541
 1348TIP3   OH2 4007   5.969   3.158   5.631 -0.3569  0.1019  0.0048
 1348TIP3    H1 4008   5.960   3.244   5.672 -0.4360 -1.1229  2.7508
 1348TIP3    H2 4009   6.062   3.149   5.613 -0.5481  1.3967 -1.9581
 1349TIP3   OH2 4010   5.503   1.208   5.066  0.4785  0.0345  0.4031
 1349TIP3    H1 4011   5.501   1.114   5.051 -0.5751 -0.0118  0.7247
 1349TIP3    H2 4012   5.567   1.220   5.136 -0.6767 -0.6673  1.6487
 1350TIP3   OH2 4013   1.882   4.473   2.055 -0.0672  0.8659 -0.5914
 1350TIP3    H1 4014   1.875   4.514   1.969  1.3256  0.6169 -0.8370
 1350TIP3    H2 4015   1.791   4.467   2.086 -0.5606  1.1807 -1.9237
 1351TIP3   OH2 4016   3.913   1.024   4.082  0.7331 -0.1220 -0.1508
 1351TIP3    H1 4017   3.877   0.974   4.009  1.3187 -0.1465 -0.4292
 1351TIP3    H2 4018   3.925   0.959   4.152  0.6907 -0.2059 -0.2218
 1352TIP3   OH2 4019   6.689   1.679   2.841 -0.0523 -0.0622 -0.0932
 1352TIP3    H1 4020   6.777   1.642   2.832  0.7549  1.6685  0.2659
 1352TIP3    H2 4021   6.662   1.698   2.751 -1.0241 -2.5598 -0.4218
 1353TIP3   OH2 4022   2.871   4.559   0.161 -0.2928 -0.2686 -0.2237
 1353TIP3    H1 4023   2.789   4.544   0.115 -1.5334 -0.9746  2.0932
 1353TIP3    H2 4024   2.846   4.599   0.243  1.6651 -0.6533  0.6221
 1354TIP3   OH2 4025   2.078   0.217   4.872  0.1776 -0.5378 -0.4093
 1354TIP3    H1 4026   2.060   0.257   4.956 -0.0837 -1.2920 -0.1010
 1354TIP3    H2 4027   2.169   0.187   4.879  0.3272 -0.1401 -0.5904
 1355TIP3   OH2 4028   0.977   4.982   5.449  0.2982 -0.0675 -0.0506
 1355TIP3    H1 4029   0.975   4.934   5.531 -1.3129 -0.2082 -0.1314
 1355TIP3    H2 4030   1.030   4.928   5.390  0.1374 -0.7695  0.4398
 1356TIP3   OH2 4031   3.787   3.851   2.705 -0.2388  0.0585  0.3675
 1356TIP3    H1 4032   3.752   3.774   2.750  0.0341 -0.3069 -0.0386
 1356TIP3    H2 4033   3.733   3.924   2.737  0.0727 -0.1613  1.4181
 1357TIP3   OH2 4034   6.640   6.259   4.504  0.6147  0.4305 -0.0207
 1357TIP3    H1 4035   6.634   6.166   4.527  1.0978  0.7447  1.4846
 1357TIP3    H2 4036   6.553   6.281   4.469  0.8337 -0.8309 -1.4771
 1358TIP3   OH2 4037   4.882   1.586   2.720 -0.0584  0.0016 -0.3474
 1358TIP3    H1 4038   4.884   1.576   2.815  1.8660 -0.6490 -0.4112
 1358TIP3    H2 4039   4.809   1.646   2.703 -0.0656  0.5916  1.5715
 1359TIP3   OH2 4040   6.147   2.361   5.173  0.3706  0.2415 -0.5450
 1359TIP3    H1 4041   6.088   2.436   5.175  0.3022  0.1817 -0.3391
 1359TIP3    H2 4042   6.106   2.296   5.230  0.8919  0.3927  0.0159
 1360TIP3   OH2 4043   5.536   0.242   4.973 -0.0339  0.3371 -0.6799
 1360TIP3    H1 4044   5.621   0.266   4.937 -0.0391  1.1567 -0.1941
 1360TIP3    H2 4045   5.556   0.194   5.054 -0.0268 -1.1509 -1.5303
 1361TIP3   OH2 4046   3.249   3.147   4.560 -0.2614  0.0259  0.0898
 1361TIP3    H1 4047   3.308   3.091   4.609  0.2801  0.5338  0.0306
 1361TIP3    H2 4048   3.165   3.140   4.605 -0.4485 -1.5332 -0.4449
 1362TIP3   OH2 4049   1.581   1.831   5.438  0.2273 -0.8784 -0.1307
 1362TIP3    H1 4050   1.614   1.790   5.358 -0.1170 -0.8224 -0.3069
 1362TIP3    H2 4051   1.532   1.908   5.407  1.6003  0.1757  0.2506
 1363TIP3   OH2 4052   2.294   2.370   5.514  0.7573 -0.6326  0.4009
 1363TIP3    H1 4053   2.330   2.337   5.596  0.5127 -0.3863  0.6091
 1363TIP3    H2 4054   2.305   2.465   5.520  1.0008 -0.6355  0.0250
 1364TIP3   OH2 4055   2.936   1.585   3.645  0.0368 -0.0356 -0.4308
 1364TIP3    H1 4056   2.935   1.597   3.740  1.8842  0.9847 -0.4887
 1364TIP3    H2 4057   2.992   1.656   3.613 -1.4267  0.3110 -2.4062
 1365TIP3   OH2 4058   2.526   4.905   1.391  0.0256 -0.2800  0.2588
 1365TIP3    H1 4059   2.486   4.936   1.473  0.2417 -0.3065  0.3747
 1365TIP3    H2 4060   2.594   4.844   1.420  1.2536  0.9910  0.1311
 1366TIP3   OH2 4061   4.038   4.418   0.670 -0.7397 -0.2832 -0.1042
 1366TIP3    H1 4062   4.048   4.383   0.581  2.3024 -1.6937  0.6749
 1366TIP3    H2 4063   3.968   4.364   0.708 -1.4862 -0.2368 -1.3280
 1367TIP3   OH2 4064   1.679   4.269   0.315  0.3280 -0.0712  0.0167
 1367TIP3    H1 4065   1.633   4.256   0.232  0.2730  0.7543 -0.0947
 1367TIP3    H2 4066   1.728   4.187   0.328 -1.1088 -0.9381  0.1183
 1368TIP3   OH2 4067   2.872   2.360   1.352  0.0362  0.2524  0.3406
 1368TIP3    H1 4068   2.802   2.345   1.416  1.0502  1.3982  1.7799
 1368TIP3    H2 4069   2.849   2.304   1.278 -3.2025  1.6313  0.1342
 1369TIP3   OH2 4070   6.992   6.383   0.003  0.4706  0.1852  0.2963
 1369TIP3    H1 4071   6.924   6.315   0.003  0.3645  0.2893  0.4504
 1369TIP3    H2 4072   6.948   6.460   0.039  0.5279  0.3975 -0.0865
 1370TIP3   OH2 4073   6.973   4.413   3.208 -0.1714 -0.2685 -0.4253
 1370TIP3    H1 4074   7.046   4.474   3.216 -0.0637 -0.5788  1.3407
 1370TIP3    H2 4075   6.957   4.382   3.297 -0.1359 -2.9184 -1.2309
 1371TIP3   OH2 4076   2.462   5.965   5.437 -0.8591 -0.3528 -0.3676
 1371TIP3    H1 4077   2.501   6.053   5.435 -0.2198 -0.6201  0.1281
 1371TIP3    H2 4078   2.375   5.978   5.474 -0.5334 -0.0149  0.2878
 1372TIP3   OH2 4079   6.353   5.842   2.349  0.0345  0.2414  0.3794
 1372TIP3    H1 4080   6.429   5.839   2.292  0.4624 -0.6848  0.9775
 1372TIP3    H2 4081   6.282   5.872   2.292  0.8663  1.2778 -0.1413
 1373TIP3   OH2 4082   2.836   1.746   4.731 -0.5148 -0.0553 -0.2388
 1373TIP3    H1 4083   2.750   1.703   4.736 -1.1652  1.2036 -0.1944
 1373TIP3    H2 4084   2.889   1.687   4.677 -1.1534 -1.2444  0.3731
 1374TIP3   OH2 4085   3.302   3.230   5.009  0.4614 -0.2501  0.0971
 1374TIP3    H1 4086   3.207   3.221   5.003  0.3394  0.6553  0.4985
 1374TIP3    H2 4087   3.327   3.278   4.931  0.6250 -0.7058 -0.1330
 1375TIP3   OH2 4088   1.307   3.288   1.676 -0.0871  0.5306  0.6781
 1375TIP3    H1 4089   1.310   3.360   1.612 -0.8421 -1.4123 -1.7105
 1375TIP3    H2 4090   1.219   3.291   1.712 -0.1822  0.6850  0.4340
 1376TIP3   OH2 4091   3.696   3.973   1.259 -0.4241 -0.6097 -0.2200
 1376TIP3    H1 4092   3.687   3.878   1.267  0.8862 -0.7338 -0.0465
 1376TIP3    H2 4093   3.649   3.995   1.179 -1.9181 -1.2103  0.4531
 1377TIP3   OH2 4094   4.596   0.187   5.222 -0.6156 -0.0045  0.5924
 1377TIP3    H1 4095   4.521   0.133   5.195 -1.7129  1.2249  1.0628
 1377TIP3    H2 4096   4.611   0.162   5.313 -0.0056 -0.7251  0.3043
 1378TIP3   OH2 4097  -0.029   1.682   0.149  0.0075 -0.2560 -0.2938
 1378TIP3    H1 4098  -0.012   1.591   0.172  0.1154 -0.1024  0.2553
 1378TIP3    H2 4099   0.050   1.711   0.104 -0.0269 -0.4327 -0.4681
 1379TIP3   OH2 4100   0.380   5.821   4.244 -0.1712 -0.0558  0.0672
 1379TIP3    H1 4101   0.434   5.862   4.312  0.9971 -0.3112 -0.6629
 1379TIP3    H2 4102   0.326   5.758   4.292 -1.9114  2.1524  1.1853
 1380TIP3   OH2 4103   3.853   3.958   1.491 -0.3641 -0.2347 -0.1602
 1380TIP3    H1 4104   3.803   3.886   1.530 -0.3692 -1.7768 -2.7599
 1380TIP3    H2 4105   3.810   3.975   1.408  0.0962  2.3540  0.0529
 1381TIP3   OH2 4106   2.695   4.321   0.311 -0.4477 -0.3559 -0.3079
 1381TIP3    H1 4107   2.718   4.380   0.239  1.6659  0.0150  0.6232
 1381TIP3    H2 4108   2.612   4.281   0.282 -1.2569  2.0120 -1.5614
 1382TIP3   OH2 4109   0.259   6.060   5.289 -0.2779 -0.0180  0.2873
 1382TIP3    H1 4110   0.213   6.141   5.311 -1.2894 -0.1929 -1.0445
 1382TIP3    H2 4111   0.257   6.057   5.193 -1.7416 -2.4076  0.3145
 1383TIP3   OH2 4112   1.281   1.120   4.707  0.0388 -0.3646 -0.0824
 1383TIP3    H1 4113   1.211   1.184   4.719 -1.4016 -1.8157 -0.4279
 1383TIP3    H2 4114   1.287   1.109   4.612  2.1741  1.1957 -0.2147
 1384TIP3   OH2 4115   6.154   0.993   1.477  0.1319  0.5441  0.1311
 1384TIP3    H1 4116   6.133   1.084   1.454  0.1698  0.6089  0.3518
 1384TIP3    H2 4117   6.212   0.964   1.407 -0.9089  0.2689 -0.6340
 1385TIP3   OH2 4118   4.517   1.253   4.871  0.0136  0.1431 -0.4416
 1385TIP3    H1 4119   4.436   1.279   4.917  0.2193  0.9304 -0.5014
 1385TIP3    H2 4120   4.577   1.326   4.886  0.6961 -0.4073 -0.4591
 1386TIP3   OH2 4121   5.644   5.599   2.572 -0.2085  0.0641 -0.2071
 1386TIP3    H1 4122   5.603   5.512   2.572 -1.7374  0.7043 -2.6032
 1386TIP3    H2 4123   5.571   5.660   2.570  0.8631  1.4431  0.7506
 1387TIP3   OH2 4124   5.566   4.966   5.824 -0.0538 -0.7019  0.0729
 1387TIP3    H1 4125   5.610   4.997   5.903 -0.2747  2.7146 -0.9615
 1387TIP3    H2 4126   5.473   4.970   5.846 -0.2681  2.3152 -0.7871
 1388TIP3   OH2 4127   0.860   0.413   5.480 -0.1179  0.0792  0.0665
 1388TIP3    H1 4128   0.854   0.461   5.563 -1.6643  1.5634 -0.8324
 1388TIP3    H2 4129   0.922   0.343   5.498  0.2768  0.8779  2.2185
 1389TIP3   OH2 4130   0.959   1.612   0.093 -0.4359 -1.0551  0.0225
 1389TIP3    H1 4131   0.998   1.604   0.007  0.5045  1.3838  0.1489
 1389TIP3    H2 4132   1.018   1.670   0.142 -1.0499 -2.1693  2.2571
 1390TIP3   OH2 4133   6.335   4.213   5.087 -0.6063 -0.7530  0.4938
 1390TIP3    H1 4134   6.416   4.173   5.057 -0.5741 -0.7936  0.6306
 1390TIP3    H2 4135   6.359   4.259   5.168 -0.0066  1.9638 -1.1016
 1391TIP3   OH2 4136   3.996   3.944   3.337  0.4629 -0.0902  0.0848
 1391TIP3    H1 4137   3.983   3.931   3.431  0.9447  0.1419  0.1883
 1391TIP3    H2 4138   4.080   3.903   3.319  1.2102  1.3699  0.0977
 1392TIP3   OH2 4139   0.647   0.395   1.291 -0.0742 -0.3719 -0.3553
 1392TIP3    H1 4140   0.682   0.370   1.376  0.9761  0.4373 -0.5292
 1392TIP3    H2 4141   0.571   0.450   1.311 -0.8761 -1.5741  0.0273
 1393TIP3   OH2 4142   0.402   1.149   4.335 -0.5724 -0.0175  0.2771
 1393TIP3    H1 4143   0.438   1.164   4.248 -0.9928 -0.7784 -0.0354
 1393TIP3    H2 4144   0.397   1.236   4.374  0.2791  0.2547 -0.1915
 1394TIP3   OH2 4145   6.927   4.839   3.715  0.3400 -0.3485  0.0275
 1394TIP3    H1 4146   6.939   4.926   3.678 -0.6605 -0.0061  0.4825
 1394TIP3    H2 4147   6.838   4.838   3.748 -0.3727 -2.2269 -1.7254
 1395TIP3   OH2 4148   6.502   6.166   0.586 -0.2374  0.1598  1.2793
 1395TIP3    H1 4149   6.546   6.154   0.671 -0.6609  0.4057  1.5399
 1395TIP3    H2 4150   6.412   6.137   0.602 -0.7979  1.8450  1.4217
 1396TIP3   OH2 4151   6.324   2.391   3.903  0.5069  0.9569 -0.3826
 1396TIP3    H1 4152   6.407   2.422   3.865  1.5514  1.8308  2.3303
 1396TIP3    H2 4153   6.261   2.399   3.832  2.4304  1.7372 -2.1205
 1397TIP3   OH2 4154   2.710   1.408   3.730  0.6312 -0.3080  0.1004
 1397TIP3    H1 4155   2.736   1.325   3.688 -1.5966  0.0102 -2.1800
 1397TIP3    H2 4156   2.763   1.475   3.685  0.4468 -0.2422 -0.0177
 1398TIP3   OH2 4157   4.993   5.472   3.512  0.2411  0.0679 -0.0285
 1398TIP3    H1 4158   4.961   5.557   3.482 -0.6714 -0.5429 -0.8809
 1398TIP3    H2 4159   4.997   5.419   3.432  1.4651 -0.4890  0.3875
 1399TIP3   OH2 4160   4.250   3.433   5.843  0.1073  0.0203 -0.0821
 1399TIP3    H1 4161   4.320   3.446   5.778 -0.3916  0.1313 -0.6036
 1399TIP3    H2 4162   4.194   3.366   5.805  1.1030 -1.6937  1.3251
 1400TIP3   OH2 4163   6.295   4.630   2.020  0.5036 -0.5941 -0.4691
 1400TIP3    H1 4164   6.328   4.719   2.030 -1.2993  0.4976 -3.1125
 1400TIP3    H2 4165   6.374   4.575   2.020  1.9496  1.3535 -1.8221
 1401TIP3   OH2 4166   1.783   3.315   5.606 -0.0240 -0.0777 -0.3681
 1401TIP3    H1 4167   1.811   3.234   5.647 -1.9355 -0.5978  0.0273
 1401TIP3    H2 4168   1.850   3.379   5.630  2.0657 -1.7270 -1.5518
 1402TIP3   OH2 4169   3.251   5.309   4.947 -0.0883 -0.6732  0.3559
 1402TIP3    H1 4170   3.260   5.250   4.872 -0.5924 -0.4622  0.1258
 1402TIP3    H2 4171   3.323   5.371   4.938 -0.3536 -0.4296 -0.1622
 1403TIP3   OH2 4172   1.573   2.208   3.340 -0.2279 -0.2572 -0.0481
 1403TIP3    H1 4173   1.549   2.116   3.329  0.5349 -0.3469 -1.0371
 1403TIP3    H2 4174   1.650   2.220   3.284  0.1704  0.7834  0.7054
 1404TIP3   OH2 4175   1.322   3.640   5.746  0.1677 -0.0810 -0.4351
 1404TIP3    H1 4176   1.293   3.550   5.728 -0.7476 -0.2076  1.4369
 1404TIP3    H2 4177   1.410   3.630   5.783 -1.0345 -0.5593  2.5889
 1405TIP3   OH2 4178   0.599   4.893   0.783 -0.1120 -0.4955 -0.3607
 1405TIP3    H1 4179   0.695   4.885   0.779  0.1073  1.9382 -1.6953
 1405TIP3    H2 4180   0.584   4.977   0.826 -1.6974 -1.0526  0.2295
 1406TIP3   OH2 4181   2.521   2.682   5.309  0.6553 -0.1222 -0.7422
 1406TIP3    H1 4182   2.564   2.658   5.390  0.7713 -0.4711 -0.9042
 1406TIP3    H2 4183   2.528   2.604   5.254 -1.3973 -0.7019 -0.2748
 1407TIP3   OH2 4184   1.154   3.006   1.600 -0.1900  0.3654 -0.4404
 1407TIP3    H1 4185   1.200   2.949   1.538 -0.7499 -2.1492  1.2949
 1407TIP3    H2 4186   1.062   2.998   1.575 -0.3737 -0.3350  0.4003
 1408TIP3   OH2 4187   1.287   3.839   2.313  0.3235 -0.3557  1.0169
 1408TIP3    H1 4188   1.207   3.891   2.304  0.7244  0.0607 -0.5444
 1408TIP3    H2 4189   1.292   3.817   2.406 -1.6590 -0.5007  1.1236
 1409TIP3   OH2 4190   4.711   0.191   2.223  0.7521 -0.1431 -0.0836
 1409TIP3    H1 4191   4.703   0.281   2.254  1.7234 -0.2735  0.6018
 1409TIP3    H2 4192   4.789   0.192   2.167  2.8032 -1.1814  2.5423
 1410TIP3   OH2 4193   3.530   2.318   1.458 -0.2403 -0.7144 -0.3531
 1410TIP3    H1 4194   3.601   2.266   1.494 -0.6619 -1.3504 -0.4229
 1410TIP3    H2 4195   3.450   2.275   1.488 -0.6227  0.6639  0.7134
 1411TIP3   OH2 4196   4.043   0.456   0.378  0.3843 -0.4358  0.1690
 1411TIP3    H1 4197   4.043   0.380   0.436 -1.6594 -0.3982  0.2890
 1411TIP3    H2 4198   4.066   0.420   0.292 -1.2917 -1.3730  0.0714
 1412TIP3   OH2 4199   0.894   2.006   1.805 -0.5964  0.5982  0.0063
 1412TIP3    H1 4200   0.891   2.101   1.792 -1.5168  0.8020  1.4747
 1412TIP3    H2 4201   0.803   1.978   1.800 -0.7021  0.2542  2.4104
 1413TIP3   OH2 4202   2.961   6.582   5.375 -0.4260 -0.1712 -0.6794
 1413TIP3    H1 4203   2.949   6.660   5.429 -1.4432  0.0494 -1.1926
 1413TIP3    H2 4204   2.970   6.510   5.438 -0.0805  0.2707 -0.2126
 1414TIP3   OH2 4205   6.426   6.419   2.942  0.4742 -0.1589 -0.3761
 1414TIP3    H1 4206   6.388   6.506   2.951  0.2579 -0.3704  0.8963
 1414TIP3    H2 4207   6.513   6.426   2.981  0.9787 -0.1867 -1.4700
 1415TIP3   OH2 4208   5.402   3.368   1.198 -0.4837  0.4881 -0.2642
 1415TIP3    H1 4209   5.422   3.446   1.147 -0.7891  0.5026 -0.3635
 1415TIP3    H2 4210   5.307   3.373   1.213 -0.4098  0.4417  0.2302
 1416TIP3   OH2 4211   2.468   0.899   3.688  0.0691 -0.8805  0.1700
 1416TIP3    H1 4212   2.534   0.923   3.754 -0.4211  3.0653 -0.5419
 1416TIP3    H2 4213   2.386   0.894   3.737 -0.0567  0.5637  0.1395
 1417TIP3   OH2 4214   3.286   2.710   0.695 -0.3036  0.7310  0.1279
 1417TIP3    H1 4215   3.292   2.704   0.600  1.0821  2.6301  0.0466
 1417TIP3    H2 4216   3.305   2.802   0.714  2.3625 -0.1791  2.4246
 1418TIP3   OH2 4217   3.475   5.572   2.615  0.1081  0.3139 -0.0016
 1418TIP3    H1 4218   3.481   5.563   2.710  0.9891 -1.3907 -0.1824
 1418TIP3    H2 4219   3.558   5.612   2.589  0.0580  0.3567 -0.0986
 1419TIP3   OH2 4220   0.315   4.464   1.638 -0.2658  0.5214 -0.6034
 1419TIP3    H1 4221   0.367   4.385   1.626  2.5300  1.8602  1.4961
 1419TIP3    H2 4222   0.240   4.436   1.690 -0.6437 -1.1048 -1.9388
 1420TIP3   OH2 4223   0.249   2.989   2.797  0.1757  0.0965  0.0984
 1420TIP3    H1 4224   0.185   3.010   2.864  0.8074  0.7426  0.5069
 1420TIP3    H2 4225   0.196   2.967   2.720 -0.5534 -0.8004  0.8326
 1421TIP3   OH2 4226   3.709   0.141   2.433  0.2236  0.4285 -0.3582
 1421TIP3    H1 4227   3.802   0.146   2.409  0.0166 -0.3583 -1.3862
 1421TIP3    H2 4228   3.707   0.080   2.507  0.4121 -0.5344 -1.1186
 1422TIP3   OH2 4229   4.211   6.359   4.736 -0.0832 -0.5164 -0.4362
 1422TIP3    H1 4230   4.123   6.394   4.752  0.0742  0.3286 -1.3191
 1422TIP3    H2 4231   4.212   6.338   4.643  1.0743  0.8136 -0.7716
 1423TIP3   OH2 4232   6.570   3.008   5.786  0.1559  0.3381  0.0025
 1423TIP3    H1 4233   6.656   2.990   5.824 -0.8160 -0.3361  2.0298
 1423TIP3    H2 4234   6.548   2.929   5.737 -0.2235 -0.4203  1.3428
 1424TIP3   OH2 4235   2.449   4.673   0.658  0.3693 -0.0986  0.8188
 1424TIP3    H1 4236   2.492   4.753   0.628 -0.9303 -0.0547 -1.1431
 1424TIP3    H2 4237   2.378   4.659   0.594 -0.9494 -1.4906  2.4994
 1425TIP3   OH2 4238   5.381   1.664   0.553  0.2637 -0.5002  0.0951
 1425TIP3    H1 4239   5.476   1.656   0.557  0.4041  1.1013  1.3009
 1425TIP3    H2 4240   5.349   1.609   0.625  0.3893  0.0020  0.5438
 1426TIP3   OH2 4241   2.505   5.605   5.478 -0.7708 -0.5398 -0.0033
 1426TIP3    H1 4242   2.423   5.654   5.466 -1.9058 -1.8695  1.7525
 1426TIP3    H2 4243   2.476   5.516   5.498  1.0968 -0.9877  0.8905
 1427TIP3   OH2 4244   6.863   4.789   4.873 -0.6106 -0.3484 -0.1149
 1427TIP3    H1 4245   6.824   4.874   4.852 -1.3956 -1.2576 -2.7949
 1427TIP3    H2 4246   6.957   4.802   4.865 -0.6646  0.5188  0.5980
 1428TIP3   OH2 4247   2.421   1.415   1.275  0.1624  0.0264  0.5793
 1428TIP3    H1 4248   2.505   1.441   1.235  0.0481 -2.3603 -1.4567
 1428TIP3    H2 4249   2.420   1.320   1.269 -2.2312 -0.0823  1.6129
 1429TIP3   OH2 4250   2.991   4.990   0.377 -0.0002  0.3187  0.1272
 1429TIP3    H1 4251   2.925   5.047   0.335 -0.8565 -1.5867 -1.2580
 1429TIP3    H2 4252   2.952   4.903   0.374  1.4354 -0.4368  1.8625
 1430TIP3   OH2 4253   6.823   3.445   5.056 -0.9404 -0.2459  0.2641
 1430TIP3    H1 4254   6.837   3.466   4.964  1.0775 -1.8150  0.1474
 1430TIP3    H2 4255   6.806   3.530   5.098 -1.4940  0.5382 -1.4601
 1431TIP3   OH2 4256   2.351   3.680   4.611  0.0813  0.3555  0.2289
 1431TIP3    H1 4257   2.403   3.679   4.692 -2.5020 -1.4786  2.0459
 1431TIP3    H2 4258   2.374   3.599   4.566  0.5062  0.7043 -0.1919
 1432TIP3   OH2 4259   3.837   3.740   5.487  0.4033  0.7972 -0.3461
 1432TIP3    H1 4260   3.743   3.724   5.498  0.4696  1.1062  0.7499
 1432TIP3    H2 4261   3.841   3.807   5.418 -0.2492  1.6498  0.4212
 1433TIP3   OH2 4262   2.887   6.539   2.677 -0.1664  0.2768 -0.0946
 1433TIP3    H1 4263   2.816   6.475   2.667  0.4717 -0.4343 -0.1050
 1433TIP3    H2 4264   2.842   6.621   2.699 -0.9116 -0.4602  1.2663
 1434TIP3   OH2 4265   0.272   0.873   2.705  0.6749 -0.0018  0.0500
 1434TIP3    H1 4266   0.278   0.824   2.623 -1.6331 -0.5180  0.1309
 1434TIP3    H2 4267   0.234   0.811   2.767 -1.1313  1.4851  0.4940
 1435TIP3   OH2 4268   3.793   2.634   2.236  0.1198 -0.5518  0.2412
 1435TIP3    H1 4269   3.831   2.548   2.254  2.2442  0.3293  0.2181
 1435TIP3    H2 4270   3.798   2.643   2.141  1.4707  0.2359  0.3617
 1436TIP3   OH2 4271   0.909   2.234   1.239 -0.0462 -0.0996 -0.1000
 1436TIP3    H1 4272   0.901   2.262   1.148 -3.6847  0.1574  0.1712
 1436TIP3    H2 4273   0.896   2.140   1.237 -1.9618  0.1189  0.2428
 1437TIP3   OH2 4274   2.163   0.296   0.065 -0.1341 -0.0728  0.1093
 1437TIP3    H1 4275   2.084   0.242   0.071 -0.2789  0.1255  0.0056
 1437TIP3    H2 4276   2.199   0.296   0.154  0.5837 -1.4078 -0.1672
 1438TIP3   OH2 4277   5.543   5.239   0.739  0.2267 -0.1497 -0.0390
 1438TIP3    H1 4278   5.573   5.257   0.828  1.4156 -0.4551 -0.3554
 1438TIP3    H2 4279   5.622   5.216   0.692 -0.2980  0.6089 -1.3413
 1439TIP3   OH2 4280   2.264   2.828   0.777  0.0025  0.5506  0.1108
 1439TIP3    H1 4281   2.180   2.853   0.816 -0.4851 -1.2107  0.2610
 1439TIP3    H2 4282   2.313   2.786   0.848  0.4781  0.3608 -0.3215
 1440TIP3   OH2 4283   1.564   6.459   1.866  0.2623  0.1751  0.3599
 1440TIP3    H1 4284   1.645   6.465   1.815 -0.6796 -1.9309 -1.5845
 1440TIP3    H2 4285   1.592   6.474   1.957  2.7538 -0.1231 -0.2672
 1441TIP3   OH2 4286   0.769   5.378   1.669 -0.1534 -0.0392 -0.3750
 1441TIP3    H1 4287   0.699   5.325   1.632 -0.6227 -0.5692  1.1994
 1441TIP3    H2 4288   0.838   5.315   1.692  0.5824  0.4015 -1.2954
 1442TIP3   OH2 4289   1.992   3.805   0.340  0.5932 -0.0271 -0.2330
 1442TIP3    H1 4290   1.907   3.809   0.296  0.1840 -0.3995  0.5125
 1442TIP3    H2 4291   2.052   3.847   0.279  0.0191 -0.4459 -1.1102
 1443TIP3   OH2 4292   1.375   0.989   5.617 -0.3179  0.1150  0.2376
 1443TIP3    H1 4293   1.441   1.009   5.551  0.1318 -0.4444  0.5055
 1443TIP3    H2 4294   1.346   0.900   5.596 -1.0773  0.3901  0.0587
 1444TIP3   OH2 4295   5.619   6.404   2.415  0.3808  0.5320 -0.0973
 1444TIP3    H1 4296   5.685   6.347   2.454 -0.9489 -0.9332  0.1650
 1444TIP3    H2 4297   5.575   6.444   2.490 -0.4951 -0.2907 -0.1462
 1445TIP3   OH2 4298   1.381   0.834   2.680  0.2371  0.3668 -0.3138
 1445TIP3    H1 4299   1.427   0.901   2.630  1.0548  1.0803  1.3038
 1445TIP3    H2 4300   1.288   0.856   2.671  0.5215  2.6352  1.2750
 1446TIP3   OH2 4301   5.028   3.617   3.704  0.0644 -0.8678 -0.2277
 1446TIP3    H1 4302   5.005   3.698   3.658  0.9505 -1.2446 -1.4025
 1446TIP3    H2 4303   4.985   3.624   3.789 -1.5186 -0.0608 -1.0514
 1447TIP3   OH2 4304   3.978   1.120   0.801  1.3208  0.4189 -0.3413
 1447TIP3    H1 4305   3.916   1.049   0.817 -0.0744  1.0484 -2.5086
 1447TIP3    H2 4306   4.054   1.077   0.763  0.1619  0.0666 -2.4382
 1448TIP3   OH2 4307   5.491   5.491   2.101 -0.1899  0.3594 -0.0138
 1448TIP3    H1 4308   5.496   5.441   2.182 -1.8075 -0.3876 -0.3214
 1448TIP3    H2 4309   5.447   5.572   2.125  0.4868  0.6987  0.0868
 1449TIP3   OH2 4310   3.137   5.772   1.700  0.7382 -0.2677  0.5463
 1449TIP3    H1 4311   3.221   5.802   1.736  0.9978 -0.3771  0.0407
 1449TIP3    H2 4312   3.159   5.693   1.650  0.7326  0.9794 -1.5304
 1450TIP3   OH2 4313   6.609   2.810   3.362  0.0799 -0.6232 -0.1142
 1450TIP3    H1 4314   6.606   2.755   3.440  1.0976  1.3342  1.3723
 1450TIP3    H2 4315   6.532   2.867   3.370 -1.0875 -1.8659 -1.7501
 1451TIP3   OH2 4316   5.037   6.209   4.158  0.3772  0.0898 -0.3380
 1451TIP3    H1 4317   4.976   6.229   4.087  0.3986  0.6522 -0.2008
 1451TIP3    H2 4318   5.015   6.120   4.184  0.0942  0.0305 -0.7718
 1452TIP3   OH2 4319   2.533   1.231   2.419 -0.3710  0.1218  0.5253
 1452TIP3    H1 4320   2.462   1.291   2.441 -0.3449  0.4896 -0.3546
 1452TIP3    H2 4321   2.490   1.146   2.410 -0.8564  0.4929 -0.8504
 1453TIP3   OH2 4322   4.888   1.170   2.644  0.2608 -0.7901  0.6475
 1453TIP3    H1 4323   4.847   1.191   2.728  1.2579  1.4321  0.6504
 1453TIP3    H2 4324   4.859   1.240   2.585  0.1138 -1.9399 -0.6902
 1454TIP3   OH2 4325   0.793   3.541   1.352 -0.0585 -0.7447  0.3923
 1454TIP3    H1 4326   0.824   3.456   1.319 -1.1174 -0.6532 -0.9159
 1454TIP3    H2 4327   0.809   3.602   1.280 -1.1418 -0.2474  0.5603
 1455TIP3   OH2 4328   6.537   1.657   0.426  0.4260  0.4812  0.1605
 1455TIP3    H1 4329   6.584   1.578   0.397  0.7242  1.6154 -2.7492
 1455TIP3    H2 4330   6.452   1.624   0.455  0.3484 -0.9269 -1.4600
 1456TIP3   OH2 4331   2.212   6.070   2.272 -0.0759  0.2691 -0.0583
 1456TIP3    H1 4332   2.235   6.086   2.363  0.1621  0.2740 -0.1194
 1456TIP3    H2 4333   2.296   6.066   2.226 -0.2318  1.7924 -0.5275
 1457TIP3   OH2 4334   6.352   5.986   2.827 -0.1589  0.3735 -0.1398
 1457TIP3    H1 4335   6.317   5.902   2.798  0.9797 -0.3970  0.6330
 1457TIP3    H2 4336   6.380   6.030   2.746 -2.3201  0.7773 -0.7139
 1458TIP3   OH2 4337   1.444   4.313   2.948 -0.2294 -0.2995 -0.0599
 1458TIP3    H1 4338   1.434   4.275   2.861 -0.0470 -1.7561  0.5286
 1458TIP3    H2 4339   1.380   4.267   3.002 -0.2593  0.5064  0.6073
 1459TIP3   OH2 4340   6.030   3.128   2.376  0.3791 -0.7485  0.5199
 1459TIP3    H1 4341   6.000   3.154   2.463  2.0412  0.6454  0.7226
 1459TIP3    H2 4342   6.106   3.072   2.392  0.9640 -0.1275 -0.0171
 1460TIP3   OH2 4343   1.617   1.363   3.885  0.4144 -0.1985 -0.3694
 1460TIP3    H1 4344   1.607   1.416   3.965 -0.8995 -0.5465 -0.2877
 1460TIP3    H2 4345   1.691   1.403   3.839 -0.8451  2.0472 -0.5629
 1461TIP3   OH2 4346   0.793   5.942   5.682  0.4447 -0.5121  0.1727
 1461TIP3    H1 4347   0.722   6.006   5.670 -0.2277 -0.9567  1.5377
 1461TIP3    H2 4348   0.864   5.974   5.626 -1.3198 -0.8630 -2.4257
 1462TIP3   OH2 4349   0.143   0.093   2.029  0.2329  0.1800 -0.2030
 1462TIP3    H1 4350   0.194   0.102   1.949 -1.1017  1.5733 -0.9479
 1462TIP3    H2 4351   0.152   0.000   2.053 -0.6779 -0.6942 -2.9008
 1463TIP3   OH2 4352   2.777   6.018   0.683  0.1745 -1.0145  0.1246
 1463TIP3    H1 4353   2.852   6.061   0.643 -0.4544 -0.6844 -0.7227
 1463TIP3    H2 4354   2.815   5.949   0.738  1.0639 -1.3259 -0.8586
 1464TIP3   OH2 4355   0.945   3.740   3.383  0.2796 -0.3797  0.3804
 1464TIP3    H1 4356   0.959   3.682   3.308 -0.5777 -0.1262  0.0091
 1464TIP3    H2 4357   0.865   3.707   3.424 -0.4443  0.7467 -0.0667
 1465TIP3   OH2 4358   0.739   2.774   2.811  0.1380 -0.2715 -0.3201
 1465TIP3    H1 4359   0.662   2.829   2.825  0.0554 -0.7422  1.3302
 1465TIP3    H2 4360   0.704   2.690   2.781  0.3056  0.6966 -3.5622
 1466TIP3   OH2 4361   6.381   4.426   1.609 -0.1023 -0.7409 -0.5774
 1466TIP3    H1 4362   6.411   4.477   1.685 -0.5779  0.4730 -1.1659
 1466TIP3    H2 4363   6.442   4.354   1.603  1.3331  0.4086 -0.3925
 1467TIP3   OH2 4364   6.412   0.631   3.878  0.2433 -0.1149  0.0872
 1467TIP3    H1 4365   6.434   0.724   3.873  1.7337 -0.5169 -1.8562
 1467TIP3    H2 4366   6.322   0.627   3.845 -0.2470  0.7292  1.2432
 1468TIP3   OH2 4367   5.187   1.830   2.443 -0.1283  0.6369 -0.0174
 1468TIP3    H1 4368   5.192   1.911   2.493 -0.5587 -1.4174  3.7147
 1468TIP3    H2 4369   5.097   1.826   2.412  0.0119  1.6971 -0.6321
 1469TIP3   OH2 4370   7.063   0.983   4.253  0.1137  0.6609  0.6452
 1469TIP3    H1 4371   6.979   0.943   4.277  1.1829 -0.5601  2.6021
 1469TIP3    H2 4372   7.129   0.917   4.275  1.6609  1.8861 -0.0987
 1470TIP3   OH2 4373   7.060   1.737   2.948 -0.3279 -0.0636 -0.3441
 1470TIP3    H1 4374   7.071   1.670   3.015 -0.5834 -1.1354 -1.3308
 1470TIP3    H2 4375   7.125   1.804   2.969 -1.2846  0.2992  1.7281
 1471TIP3   OH2 4376   2.965   4.906   2.195  0.1932  0.0425  0.1709
 1471TIP3    H1 4377   3.005   4.993   2.200  1.3580 -0.3741 -1.2557
 1471TIP3    H2 4378   2.940   4.897   2.103 -0.2741 -0.9767  0.3920
 1472TIP3   OH2 4379   2.253   2.827   2.800 -0.1890  0.0747  0.2140
 1472TIP3    H1 4380   2.170   2.797   2.838 -0.9823  1.8158 -0.0579
 1472TIP3    H2 4381   2.240   2.920   2.784  0.9390 -0.1169 -2.2171
 1473TIP3   OH2 4382   2.564   1.034   2.988  0.1613 -0.0733 -0.0624
 1473TIP3    H1 4383   2.603   1.118   3.010  1.6809 -1.0010  0.9257
 1473TIP3    H2 4384   2.570   0.982   3.068 -1.5466 -0.8595 -0.3888
 1474TIP3   OH2 4385   4.007   0.530   3.510  0.0305  0.5061  0.0350
 1474TIP3    H1 4386   4.074   0.532   3.442  1.0152 -2.9323  0.6863
 1474TIP3    H2 4387   4.053   0.557   3.590 -0.5432  2.2832 -0.1820
 1475TIP3   OH2 4388   1.608   5.609   1.849  0.1101 -0.4273 -0.4412
 1475TIP3    H1 4389   1.554   5.540   1.888 -0.4777  0.2749  0.0185
 1475TIP3    H2 4390   1.567   5.690   1.878  2.4545  0.1840  1.3601
 1476TIP3   OH2 4391   5.784   2.370   1.866 -0.1083 -0.3084  0.7642
 1476TIP3    H1 4392   5.808   2.297   1.924  0.4864 -0.5457  0.2294
 1476TIP3    H2 4393   5.858   2.431   1.872 -0.0614 -0.3161  0.2841
 1477TIP3   OH2 4394   0.720   4.690   1.009 -0.0864  0.0403 -0.2144
 1477TIP3    H1 4395   0.791   4.736   1.054 -0.3099 -1.2352  1.5163
 1477TIP3    H2 4396   0.712   4.736   0.926  2.0637  0.8780 -0.0364
 1478TIP3   OH2 4397   1.301   5.875   2.653 -0.0697  0.2176 -0.0405
 1478TIP3    H1 4398   1.280   5.782   2.651 -0.2911  0.2718 -1.6905
 1478TIP3    H2 4399   1.223   5.915   2.693  0.0046 -0.2883  0.6295
 1479TIP3   OH2 4400   1.149   2.212   0.855 -0.1476  0.0922  0.4483
 1479TIP3    H1 4401   1.178   2.290   0.903 -0.9110  0.9428 -0.4345
 1479TIP3    H2 4402   1.225   2.187   0.802  0.7322 -0.9027  2.0815
 1480TIP3   OH2 4403   5.362   5.720   2.164 -0.7145 -0.0497  0.3414
 1480TIP3    H1 4404   5.397   5.801   2.200  2.8826 -1.3015  0.0816
 1480TIP3    H2 4405   5.279   5.707   2.209 -1.5279  3.7755  0.2651
 1481TIP3   OH2 4406   6.102   3.437   4.554 -0.5969 -0.2581 -0.1084
 1481TIP3    H1 4407   6.039   3.432   4.482 -0.5042  0.3335 -0.2422
 1481TIP3    H2 4408   6.079   3.518   4.600 -0.7372 -0.6994  0.6149
 1482TIP3   OH2 4409   3.291   5.771   2.537 -0.3512 -0.2004  0.0669
 1482TIP3    H1 4410   3.335   5.854   2.554  0.4076 -0.3883 -0.8704
 1482TIP3    H2 4411   3.356   5.705   2.562 -0.7813 -0.5023  0.3836
 1483TIP3   OH2 4412   5.958   2.307   1.599 -0.7376  0.1553  0.0829
 1483TIP3    H1 4413   6.006   2.383   1.567  0.6674 -0.3421  0.9193
 1483TIP3    H2 4414   5.919   2.337   1.681 -2.3082  0.7000 -0.8233
 1484TIP3   OH2 4415   5.223   4.366   3.903 -0.1404  0.3080  0.2536
 1484TIP3    H1 4416   5.280   4.319   3.842 -0.7033 -0.2430  0.1510
 1484TIP3    H2 4417   5.188   4.298   3.961 -1.3788  0.5225 -0.2280
 1485TIP3   OH2 4418   3.000   6.729   0.612  0.5777  0.2787 -0.4666
 1485TIP3    H1 4419   3.058   6.653   0.606  1.4595  0.9009 -0.1581
 1485TIP3    H2 4420   3.045   6.797   0.562  0.0195  0.7231 -0.3688
 1486TIP3   OH2 4421   5.820   4.021   0.171 -0.4777 -0.8737 -0.7026
 1486TIP3    H1 4422   5.855   3.945   0.125 -2.4515 -1.8009 -0.7459
 1486TIP3    H2 4423   5.864   4.020   0.257  0.0489 -1.6186 -0.9737
 1487TIP3   OH2 4424   2.842   2.266   5.298  0.2951  0.6132  0.5506
 1487TIP3    H1 4425   2.915   2.325   5.283 -0.7980  1.9860  0.4475
 1487TIP3    H2 4426   2.764   2.317   5.277 -0.6777 -1.0920 -0.2917
 1488TIP3   OH2 4427   2.321   3.222   5.595 -0.6294  0.0287  0.3899
 1488TIP3    H1 4428   2.360   3.265   5.518 -0.7162 -0.2805  0.1721
 1488TIP3    H2 4429   2.343   3.129   5.584 -0.1595  0.0616  1.0305
 1489TIP3   OH2 4430   5.737   4.857   3.246  0.4943  0.1812 -0.5040
 1489TIP3    H1 4431   5.786   4.936   3.225  2.2031 -0.8611 -0.6424
 1489TIP3    H2 4432   5.803   4.788   3.250 -0.3727 -0.6620  3.1472
 1490TIP3   OH2 4433   4.334   0.887   5.617 -0.4755 -0.0720  0.3108
 1490TIP3    H1 4434   4.425   0.881   5.588 -0.4760 -2.4526  0.5902
 1490TIP3    H2 4435   4.296   0.955   5.561  1.6568  1.6601  0.8321
 1491TIP3   OH2 4436   6.094   4.230   1.342 -0.3531  0.1265  0.1703
 1491TIP3    H1 4437   6.137   4.238   1.257  0.6844 -0.6826  0.5946
 1491TIP3    H2 4438   6.001   4.233   1.321 -0.1309 -0.5251 -1.0558
 1492TIP3   OH2 4439   6.067   6.193   2.747 -0.4438  0.1912  0.3720
 1492TIP3    H1 4440   6.055   6.235   2.832 -1.2696 -1.2390  0.9987
 1492TIP3    H2 4441   6.113   6.112   2.767 -0.5115 -0.0898 -0.5691
 1493TIP3   OH2 4442   0.196   5.258   0.843  0.0066 -0.7776 -0.0514
 1493TIP3    H1 4443   0.244   5.288   0.766  0.1878 -0.5803  0.1378
 1493TIP3    H2 4444   0.109   5.298   0.833 -0.3751 -1.7602 -0.7885
 1494TIP3   OH2 4445   3.239   5.929   2.292  0.9549  0.3217  0.0647
 1494TIP3    H1 4446   3.254   5.850   2.344  1.6714 -0.6132 -1.4625
 1494TIP3    H2 4447   3.162   5.907   2.238  3.5271 -1.1229 -3.4003
 1495TIP3   OH2 4448   2.783   5.635   1.046  0.5911 -0.1189  0.3056
 1495TIP3    H1 4449   2.742   5.610   1.129 -1.1239 -0.1533 -0.5081
 1495TIP3    H2 4450   2.758   5.566   0.985  0.6041  0.6473 -0.5872
 1496TIP3   OH2 4451   5.648   3.446   0.368  0.2036 -0.0048  0.2029
 1496TIP3    H1 4452   5.710   3.408   0.430 -0.9745 -0.3364  1.2268
 1496TIP3    H2 4453   5.702   3.483   0.298  1.4716 -2.9301 -0.5037
 1497TIP3   OH2 4454   4.242   2.088   5.115  0.0477  0.7161  0.8692
 1497TIP3    H1 4455   4.212   2.177   5.136  1.4505  0.9935  1.8867
 1497TIP3    H2 4456   4.327   2.100   5.073  0.3298 -0.1467  1.1619
 1498TIP3   OH2 4457   0.474   4.954   4.493 -0.3281 -0.3926 -0.4044
 1498TIP3    H1 4458   0.566   4.952   4.467 -0.5708  0.0516 -1.3375
 1498TIP3    H2 4459   0.433   4.882   4.444 -0.8638  0.6834 -1.5808
 1499TIP3   OH2 4460   2.309   5.019   0.825  0.0954 -0.3306  0.2423
 1499TIP3    H1 4461   2.354   4.942   0.860 -0.0052 -0.2846  0.4742
 1499TIP3    H2 4462   2.234   4.984   0.778  1.2942 -0.5341 -1.6238
 1500TIP3   OH2 4463   3.004   1.284   5.742  0.2987  0.2054  0.2072
 1500TIP3    H1 4464   3.031   1.319   5.827 -1.8017  0.6289  0.7475
 1500TIP3    H2 4465   3.011   1.358   5.682 -1.2150  0.7657  0.6993
 1501TIP3   OH2 4466   6.311   6.810   5.763  0.4397  0.8849  0.2028
 1501TIP3    H1 4467   6.355   6.871   5.704 -1.2782  0.9422 -1.1091
 1501TIP3    H2 4468   6.343   6.724   5.737 -0.9883  0.8273 -1.5126
 1502TIP3   OH2 4469   3.287   6.230   5.014  0.2562  0.7013  0.0640
 1502TIP3    H1 4470   3.290   6.135   5.016 -0.7778  0.6730  1.0640
 1502TIP3    H2 4471   3.379   6.256   5.002  0.2498 -0.4126 -3.6321
 1503TIP3   OH2 4472   1.083   6.063   3.027 -0.0158  0.6997  0.5871
 1503TIP3    H1 4473   1.000   6.104   3.001 -0.0853  1.8987  2.4871
 1503TIP3    H2 4474   1.059   6.002   3.096  0.4531 -0.6298 -0.3755
 1504TIP3   OH2 4475   5.098   2.114   3.871  0.4785 -0.1476  0.0645
 1504TIP3    H1 4476   5.080   2.048   3.938 -0.7509  1.4981  1.4598
 1504TIP3    H2 4477   5.029   2.100   3.806  0.1236 -0.1637  0.4345
 1505TIP3   OH2 4478   2.545   5.512   3.696  0.3613  0.3326  0.1443
 1505TIP3    H1 4479   2.577   5.596   3.662  2.3903  0.2448  1.6710
 1505TIP3    H2 4480   2.614   5.450   3.677  0.5530 -0.1834  2.3116
 1506TIP3   OH2 4481   6.133   0.113   5.086 -0.0524 -0.2535 -0.4652
 1506TIP3    H1 4482   6.145   0.112   5.180 -0.9862 -0.1073 -0.3306
 1506TIP3    H2 4483   6.100   0.201   5.067 -1.6866 -0.8593 -0.6542
 1507TIP3   OH2 4484   2.565   6.695   2.478  0.1433 -0.0927 -0.5673
 1507TIP3    H1 4485   2.650   6.738   2.474 -0.0611  0.4556  0.4587
 1507TIP3    H2 4486   2.502   6.766   2.463 -0.1362 -0.6792 -2.4143
 1508TIP3   OH2 4487   1.448   3.785   0.762  0.0577 -0.4897  0.0635
 1508TIP3    H1 4488   1.537   3.788   0.797 -0.0219 -1.6503  0.3994
 1508TIP3    H2 4489   1.450   3.843   0.686  0.7377  0.5591  0.8587
 1509TIP3   OH2 4490   4.934   1.099   1.600  0.2990  0.2569  0.6388
 1509TIP3    H1 4491   5.011   1.144   1.635  1.0838 -1.8058  1.7195
 1509TIP3    H2 4492   4.862   1.160   1.614  1.4001  1.3974  1.5284
 1510TIP3   OH2 4493   4.360   4.775   2.964  0.7603  0.1927 -0.2544
 1510TIP3    H1 4494   4.402   4.746   3.045 -1.0974 -2.2005 -0.0317
 1510TIP3    H2 4495   4.266   4.772   2.984  0.2989  0.9429 -2.0792
 1511TIP3   OH2 4496   2.696   3.014   3.047 -0.3745  0.3243  0.4948
 1511TIP3    H1 4497   2.709   3.029   2.953  0.8441 -0.1866  0.5546
 1511TIP3    H2 4498   2.606   2.982   3.054 -0.3034 -0.1703 -0.5747
 1512TIP3   OH2 4499   1.967   4.901   1.135 -0.1883 -0.5467 -0.2556
 1512TIP3    H1 4500   1.973   4.996   1.125  1.1224 -0.5261  0.4887
 1512TIP3    H2 4501   2.058   4.871   1.133 -0.5087 -1.6605  0.7574
 1513TIP3   OH2 4502   4.838   4.427   0.389  0.1081  0.1831 -0.3129
 1513TIP3    H1 4503   4.823   4.515   0.356 -0.0114  0.3220  0.1037
 1513TIP3    H2 4504   4.878   4.440   0.475  0.1500 -0.1692 -0.2749
 1514TIP3   OH2 4505   6.158   0.262   2.603 -0.1764  0.3561  0.0703
 1514TIP3    H1 4506   6.220   0.216   2.545 -1.4494  0.5523 -1.5263
 1514TIP3    H2 4507   6.113   0.323   2.545 -0.4215  1.6934  1.6195
 1515TIP3   OH2 4508   3.969   1.387   4.685  0.0965  0.0868 -0.7379
 1515TIP3    H1 4509   4.015   1.366   4.604 -0.8483  0.2657 -1.3468
 1515TIP3    H2 4510   3.885   1.341   4.677  0.4701 -0.9155  0.7071
 1516TIP3   OH2 4511   6.464   4.095   5.752 -0.5389  0.3326 -0.4548
 1516TIP3    H1 4512   6.440   4.010   5.715 -0.8171  1.4445 -3.0063
 1516TIP3    H2 4513   6.408   4.158   5.708  1.7515  2.1691 -0.9705
 1517TIP3   OH2 4514   5.611   2.865   4.799 -0.1947  1.2234  0.4426
 1517TIP3    H1 4515   5.580   2.955   4.809 -0.5891  0.9636  1.6062
 1517TIP3    H2 4516   5.534   2.810   4.814 -0.0197  0.6872 -0.5327
 1518TIP3   OH2 4517   4.905   2.984   4.247  0.0136 -0.1077  0.2184
 1518TIP3    H1 4518   4.883   3.072   4.276  0.7250 -0.1978  1.0989
 1518TIP3    H2 4519   4.961   2.949   4.317  0.9433 -0.7179 -0.7931
 1519TIP3   OH2 4520   5.747   5.597   5.428 -0.1800  0.0486 -0.3370
 1519TIP3    H1 4521   5.793   5.619   5.508 -1.3511 -0.0272  0.3798
 1519TIP3    H2 4522   5.679   5.536   5.456 -0.2678 -0.3984 -1.4738
 1520TIP3   OH2 4523   2.149   0.142   4.156 -0.2442  0.0347  0.8069
 1520TIP3    H1 4524   2.099   0.223   4.169  2.0939  1.6370  0.2759
 1520TIP3    H2 4525   2.126   0.113   4.068  0.2974  1.1678  0.2847
 1521TIP3   OH2 4526   6.995   2.453   0.178 -0.6583  0.1459  0.2979
 1521TIP3    H1 4527   6.920   2.393   0.177 -0.6681  0.1501  0.7448
 1521TIP3    H2 4528   7.018   2.461   0.270  1.3770 -1.7257  0.0368
 1522TIP3   OH2 4529   2.055   5.312   4.179 -0.2498 -0.0793 -0.2914
 1522TIP3    H1 4530   2.018   5.321   4.266 -0.3124  0.2240 -0.3472
 1522TIP3    H2 4531   2.059   5.218   4.163  0.7822 -0.1806  0.4742
 1523TIP3   OH2 4532   6.089   2.214   4.809  0.3101 -0.0231  0.7275
 1523TIP3    H1 4533   6.158   2.258   4.858  1.2640 -1.9414  1.2289
 1523TIP3    H2 4534   6.011   2.268   4.822  1.5074  1.7634  0.8156
 1524TIP3   OH2 4535   4.311   1.958   5.610 -0.4893  0.3355  0.2938
 1524TIP3    H1 4536   4.217   1.957   5.629 -0.5664  0.3474 -0.0829
 1524TIP3    H2 4537   4.327   2.044   5.571 -0.5480 -0.1148 -0.7521
 1525TIP3   OH2 4538   0.086   4.716   4.170 -0.1394  0.6378 -0.1098
 1525TIP3    H1 4539   0.127   4.802   4.175  1.4599 -0.1109  0.3820
 1525TIP3    H2 4540   0.131   4.672   4.097 -0.9963  0.2413 -0.4134
 1526TIP3   OH2 4541   1.841   2.757   1.363 -0.0944  0.0096 -0.2519
 1526TIP3    H1 4542   1.911   2.751   1.428 -0.2878  1.5545  0.1481
 1526TIP3    H2 4543   1.807   2.668   1.356  0.5549 -0.3704  1.0582
 1527TIP3   OH2 4544   5.496   5.452   5.535 -0.2806 -0.4635 -0.7909
 1527TIP3    H1 4545   5.507   5.498   5.618  0.7317 -2.7081  0.3785
 1527TIP3    H2 4546   5.454   5.517   5.478  1.6013  2.1133  0.5447
 1528TIP3   OH2 4547   7.174   3.612   0.264 -0.4471  0.3042 -0.0098
 1528TIP3    H1 4548   7.086   3.612   0.301 -0.0836 -1.1072  0.9410
 1528TIP3    H2 4549   7.214   3.531   0.297  1.2144  0.9251 -0.4027
 1529TIP3   OH2 4550   5.580   1.355   1.477 -0.4905  0.7533 -0.2238
 1529TIP3    H1 4551   5.558   1.276   1.428 -0.5224  0.3021  0.4891
 1529TIP3    H2 4552   5.661   1.332   1.523  0.2090  1.5890 -1.0050
 1530TIP3   OH2 4553   6.609   3.714   4.799  0.1347  0.3529  0.8811
 1530TIP3    H1 4554   6.628   3.647   4.865  0.1756  0.4986  1.0176
 1530TIP3    H2 4555   6.581   3.790   4.850 -3.0929 -0.5332  0.6687
 1531TIP3   OH2 4556   4.428   4.204   2.937  0.2819  0.1356 -0.1707
 1531TIP3    H1 4557   4.433   4.201   3.032 -0.4364  0.6932 -0.1040
 1531TIP3    H2 4558   4.339   4.237   2.919  0.1625 -0.6179 -1.0361
 1532TIP3   OH2 4559   6.507   2.058   2.284 -0.0673 -0.4829 -1.2902
 1532TIP3    H1 4560   6.532   1.968   2.304 -2.3611 -0.9033  0.1419
 1532TIP3    H2 4561   6.499   2.100   2.370  1.7194  1.3813 -1.9499
 1533TIP3   OH2 4562   1.558   0.252   3.722 -0.4823  0.1624 -0.4153
 1533TIP3    H1 4563   1.613   0.225   3.795 -1.7996 -0.3631  0.4143
 1533TIP3    H2 4564   1.568   0.347   3.718 -0.8712  0.2733  0.8635
 1534TIP3   OH2 4565   6.349   2.656   4.449 -0.7335 -0.0211  0.8696
 1534TIP3    H1 4566   6.264   2.663   4.405 -0.9569 -0.0879  1.2859
 1534TIP3    H2 4567   6.368   2.562   4.450 -0.4715  0.0224  0.4409
 1535TIP3   OH2 4568   4.771   6.618   0.029 -0.5578  0.3390  0.0619
 1535TIP3    H1 4569   4.815   6.702   0.032  0.2710 -0.1102  1.5453
 1535TIP3    H2 4570   4.835   6.558  -0.010 -0.6842  0.1531  0.1372
 1536TIP3   OH2 4571   4.536   1.940   0.103 -0.2724  0.2520 -0.5222
 1536TIP3    H1 4572   4.445   1.919   0.083 -0.2490  0.0443 -0.4155
 1536TIP3    H2 4573   4.577   1.953   0.017  0.0927 -1.7541 -0.7121
 1537TIP3   OH2 4574   2.231   0.589   1.836  0.3241 -0.3272 -0.5719
 1537TIP3    H1 4575   2.189   0.586   1.750  0.0438  1.5349 -0.5393
 1537TIP3    H2 4576   2.324   0.575   1.818  0.0715 -1.5837 -0.9706
 1538TIP3   OH2 4577   2.071   6.592   1.081  0.1174 -0.3529 -0.2014
 1538TIP3    H1 4578   2.161   6.569   1.103  0.6506  1.2768 -0.5186
 1538TIP3    H2 4579   2.053   6.670   1.133 -0.2423  0.7730 -1.9379
 1539TIP3   OH2 4580   4.681   2.037   0.342  0.0777 -0.2751  0.5558
 1539TIP3    H1 4581   4.615   2.102   0.368 -0.5047 -1.0489  1.0538
 1539TIP3    H2 4582   4.640   1.990   0.269  1.4197  1.4103 -1.4201
 1540TIP3   OH2 4583   1.563   4.350   3.866  0.0237  0.7939  0.0922
 1540TIP3    H1 4584   1.643   4.300   3.848 -0.2926  0.7335 -1.3175
 1540TIP3    H2 4585   1.574   4.432   3.818 -0.9295  0.5970 -0.5021
 1541TIP3   OH2 4586   1.900   5.561   3.595  0.2227 -0.0568  0.2163
 1541TIP3    H1 4587   1.991   5.535   3.578  0.5721  0.7826  0.7777
 1541TIP3    H2 4588   1.905   5.623   3.667 -0.8151 -0.0744  0.3219
 1542TIP3   OH2 4589   1.822   4.231   0.918  0.4600  0.1561  0.9913
 1542TIP3    H1 4590   1.822   4.291   0.993  1.2410  1.2330  0.1563
 1542TIP3    H2 4591   1.914   4.221   0.895  0.2257 -0.1367  0.1493
 1543TIP3   OH2 4592   4.152   0.349   4.653  0.0637  0.6540 -0.3226
 1543TIP3    H1 4593   4.145   0.364   4.558 -0.7131  2.2654 -0.0367
 1543TIP3    H2 4594   4.227   0.400   4.680  0.4014  0.0386 -0.0793
 1544TIP3   OH2 4595   1.149   5.286   0.869  0.0698 -0.2862  0.1446
 1544TIP3    H1 4596   1.211   5.336   0.922 -1.1202  1.1639  0.2455
 1544TIP3    H2 4597   1.070   5.341   0.867 -0.2555 -0.7184 -2.3368
 1545TIP3   OH2 4598   3.349   2.816   1.048  0.2509  0.0537  0.5722
 1545TIP3    H1 4599   3.368   2.735   1.096  1.2822  0.4863  0.9168
 1545TIP3    H2 4600   3.406   2.812   0.971 -0.0656  0.2229  0.3255
 1546TIP3   OH2 4601   5.511   2.488   3.500 -0.6757  0.1016  0.0262
 1546TIP3    H1 4602   5.534   2.545   3.573  0.2263 -1.0862  0.7089
 1546TIP3    H2 4603   5.422   2.460   3.519 -0.5209 -0.0316  0.5705
 1547TIP3   OH2 4604   4.431   2.206   0.651 -0.1161 -0.3259 -0.0649
 1547TIP3    H1 4605   4.366   2.162   0.597  0.7785 -0.1406 -1.3496
 1547TIP3    H2 4606   4.394   2.292   0.669 -0.6833 -0.6070  0.1427
 1548TIP3   OH2 4607   1.365   5.031   0.507  0.5046 -0.3289  0.2452
 1548TIP3    H1 4608   1.306   5.035   0.582 -0.2188  0.4845 -0.3538
 1548TIP3    H2 4609   1.404   5.118   0.502  0.4915 -0.3504 -0.3595
 1549TIP3   OH2 4610   3.245   6.012   5.289 -0.0579 -0.0941  0.2311
 1549TIP3    H1 4611   3.163   5.986   5.247 -1.4282  2.7875  0.8682
 1549TIP3    H2 4612   3.310   6.009   5.219 -1.5374  1.2047 -1.2891
 1550TIP3   OH2 4613   0.468   3.210   1.105  0.0936  0.6397  0.5169
 1550TIP3    H1 4614   0.405   3.224   1.176  0.5288  0.9015  0.8556
 1550TIP3    H2 4615   0.509   3.126   1.126 -0.8905 -0.0564 -0.2789
 1551TIP3   OH2 4616   4.572   3.657   0.728 -0.0886  0.2957  0.2244
 1551TIP3    H1 4617   4.525   3.581   0.693  2.4811 -1.3753  0.2038
 1551TIP3    H2 4618   4.636   3.680   0.661  1.0636  0.6720  1.4022
 1552TIP3   OH2 4619   3.263   5.468   2.459 -0.2846  0.4045  0.1681
 1552TIP3    H1 4620   3.326   5.510   2.518  0.0987  1.0055 -0.6475
 1552TIP3    H2 4621   3.314   5.402   2.413  0.0897  1.6961 -1.3653
 1553TIP3   OH2 4622   5.266   2.081   1.078 -0.0531 -0.2365  0.4359
 1553TIP3    H1 4623   5.328   2.026   1.030  1.5113  1.7490  0.0286
 1553TIP3    H2 4624   5.241   2.148   1.015 -2.0251 -0.5262  0.8679
 1554TIP3   OH2 4625   5.394   0.512   5.389 -0.3514 -0.3283 -0.2007
 1554TIP3    H1 4626   5.342   0.529   5.468 -0.0338 -0.2202 -0.0137
 1554TIP3    H2 4627   5.455   0.443   5.415  0.2101  0.1812 -0.1480
 1555TIP3   OH2 4628   3.460   6.713   1.776  0.2045  0.0688 -0.2592
 1555TIP3    H1 4629   3.398   6.724   1.849  0.8374  0.0828  0.2861
 1555TIP3    H2 4630   3.405   6.710   1.698 -0.6847 -2.0446  0.3759
 1556TIP3   OH2 4631   3.599   5.752   3.904 -0.0355 -0.9035  0.5189
 1556TIP3    H1 4632   3.661   5.742   3.976 -0.1336  0.1850  0.7721
 1556TIP3    H2 4633   3.635   5.822   3.850 -1.0450 -0.2231  0.6946
 1557TIP3   OH2 4634   2.460   2.858   1.977 -0.0943 -0.2086  0.3580
 1557TIP3    H1 4635   2.448   2.953   1.974 -0.5104 -0.2684 -0.1497
 1557TIP3    H2 4636   2.384   2.826   2.027 -0.3042 -0.3216 -0.0254
 1558TIP3   OH2 4637   7.146   3.963   4.550  0.0064  0.2817 -0.2205
 1558TIP3    H1 4638   7.239   3.942   4.542 -0.5825 -2.6621 -0.4797
 1558TIP3    H2 4639   7.112   3.951   4.461 -0.5221  2.1095 -0.2967
 1559TIP3   OH2 4640   2.085   4.773   4.127  0.3231  0.3460  0.0466
 1559TIP3    H1 4641   2.145   4.715   4.173 -1.8566 -1.6855  0.5079
 1559TIP3    H2 4642   2.006   4.775   4.181 -0.4098  2.1610 -0.9806
 1560TIP3   OH2 4643   2.334   5.764   0.612  0.0158  0.0378 -0.1057
 1560TIP3    H1 4644   2.381   5.815   0.678 -0.6849  0.5055  0.0502
 1560TIP3    H2 4645   2.385   5.775   0.532 -0.6076  1.7745 -0.3050
 1561TIP3   OH2 4646   2.486   1.962   0.716 -0.0026 -0.2295  0.4461
 1561TIP3    H1 4647   2.425   1.951   0.644 -1.2920  0.7408  1.3254
 1561TIP3    H2 4648   2.481   2.056   0.737  1.1758 -0.2897  1.0826
 1562TIP3   OH2 4649   4.812   5.216   0.277  0.1731  0.6539 -0.9361
 1562TIP3    H1 4650   4.765   5.154   0.332  0.4430  1.4575  0.2462
 1562TIP3    H2 4651   4.802   5.182   0.188 -0.0418 -0.8281 -0.3744
 1563TIP3   OH2 4652   1.168   5.782   3.964  0.0007 -0.1465  0.5041
 1563TIP3    H1 4653   1.159   5.844   4.036 -0.9945 -0.4213  0.6248
 1563TIP3    H2 4654   1.079   5.769   3.932 -0.0728 -2.7134  1.5016
 1564TIP3   OH2 4655   0.987   1.247   0.981 -0.7962  0.3364  0.1221
 1564TIP3    H1 4656   1.045   1.323   0.984 -0.2643  0.1180 -2.2194
 1564TIP3    H2 4657   0.916   1.273   0.921  0.6523 -1.6980 -2.7416
 1565TIP3   OH2 4658   6.201   6.208   3.846  0.0033 -0.1941  0.4521
 1565TIP3    H1 4659   6.177   6.136   3.787  2.4739 -1.4870  0.8621
 1565TIP3    H2 4660   6.241   6.164   3.921  2.3801  1.5891  0.3447
 1566TIP3   OH2 4661   0.448   5.587   1.968 -1.0191  0.0321 -0.1649
 1566TIP3    H1 4662   0.365   5.621   1.936 -0.1491  0.1427 -2.5029
 1566TIP3    H2 4663   0.514   5.642   1.926  0.2657  0.0709  1.7791
 1567TIP3   OH2 4664   0.769   4.900   1.398 -0.0212 -0.4906 -1.4608
 1567TIP3    H1 4665   0.752   4.922   1.490  0.0206  1.6024 -1.9248
 1567TIP3    H2 4666   0.805   4.811   1.402  1.7588  0.2154  0.7405
 1568TIP3   OH2 4667   3.533   5.180   3.014 -0.2504 -0.2810 -0.0411
 1568TIP3    H1 4668   3.482   5.193   2.934 -0.4960 -0.1272  0.1364
 1568TIP3    H2 4669   3.489   5.236   3.079 -1.1270 -1.7020  0.6483
 1569TIP3   OH2 4670   1.055   0.066   3.700  0.0939 -0.1405 -0.0954
 1569TIP3    H1 4671   0.996   0.043   3.771 -0.5108 -0.9025 -0.8148
 1569TIP3    H2 4672   1.027   0.153   3.672  1.3378  0.8594  1.5822
 1570TIP3   OH2 4673   1.214   0.179   5.213  0.3530  0.3155 -0.7708
 1570TIP3    H1 4674   1.287   0.129   5.177  0.7622  0.7324 -0.5466
 1570TIP3    H2 4675   1.145   0.115   5.227  0.6786 -0.0882 -0.9923
 1571TIP3   OH2 4676   6.706   0.430   3.554 -0.4804 -0.2600  0.1434
 1571TIP3    H1 4677   6.786   0.407   3.508 -0.2329  0.3283  0.2652
 1571TIP3    H2 4678   6.702   0.526   3.548 -1.4983 -0.3226 -0.3986
 1572TIP3   OH2 4679   0.559   2.725   3.739  0.4085  0.6948  0.5456
 1572TIP3    H1 4680   0.486   2.776   3.704  0.3019  1.2133  1.4766
 1572TIP3    H2 4681   0.607   2.787   3.794  4.0503  1.5922 -3.1829
 1573TIP3   OH2 4682   3.245   0.422   2.643 -0.6608 -0.6675  0.4504
 1573TIP3    H1 4683   3.302   0.477   2.588 -0.9204 -0.6999  0.1454
 1573TIP3    H2 4684   3.284   0.426   2.730  0.6633 -1.8511 -0.0389
 1574TIP3   OH2 4685   3.179   1.296   0.186 -0.0199 -0.1792 -0.0128
 1574TIP3    H1 4686   3.198   1.210   0.223 -1.0959  0.2752  1.6958
 1574TIP3    H2 4687   3.261   1.321   0.141  0.3876 -1.9500 -0.3524
 1575TIP3   OH2 4688   2.805   4.037   0.174 -0.7766 -0.8266  0.3474
 1575TIP3    H1 4689   2.768   4.124   0.160  0.3159 -0.3276  0.5007
 1575TIP3    H2 4690   2.729   3.982   0.193 -1.4708  0.1092  0.3572
 1576TIP3   OH2 4691   0.334   5.938   2.250  0.2968  0.0800 -0.2217
 1576TIP3    H1 4692   0.342   5.937   2.346  0.4718 -0.1017 -0.2355
 1576TIP3    H2 4693   0.424   5.931   2.219  0.1938 -0.5340 -0.3949
 1577TIP3   OH2 4694   3.225   3.164   3.403 -0.0239  0.1286  0.4057
 1577TIP3    H1 4695   3.302   3.172   3.459 -0.5244  0.0011  1.1342
 1577TIP3    H2 4696   3.254   3.193   3.317  0.3312  2.0086  1.1080
 1578TIP3   OH2 4697   6.076   6.378   0.952  0.4154  0.1957  0.1181
 1578TIP3    H1 4698   5.996   6.430   0.965  0.0372 -0.2275 -0.4710
 1578TIP3    H2 4699   6.132   6.401   1.027 -0.2590  0.4893  0.5433
 1579TIP3   OH2 4700   4.629   0.591   5.101 -0.0205  0.5330 -0.0053
 1579TIP3    H1 4701   4.570   0.666   5.092  0.6690  1.1434  0.4050
 1579TIP3    H2 4702   4.707   0.628   5.143  0.0613 -0.5549  0.8449
 1580TIP3   OH2 4703   1.620   3.897   4.875  0.0952 -0.3664  0.1319
 1580TIP3    H1 4704   1.635   3.848   4.794 -0.2606 -0.5747  0.1902
 1580TIP3    H2 4705   1.599   3.986   4.845 -1.0514 -0.6828 -0.0595
 1581TIP3   OH2 4706   6.002   2.879   4.604  0.4586  0.3193 -0.4540
 1581TIP3    H1 4707   6.097   2.870   4.606  0.3616 -0.8036  0.4244
 1581TIP3    H2 4708   5.982   2.904   4.514  1.4429 -1.5011 -1.2270
 1582TIP3   OH2 4709   1.095   2.948   3.066 -0.2797  0.3391  0.1434
 1582TIP3    H1 4710   1.084   2.861   3.105 -1.5477  0.2736 -0.3183
 1582TIP3    H2 4711   1.006   2.982   3.058 -0.2035  0.1146 -3.1901
 1583TIP3   OH2 4712   2.810   4.707   4.559  0.1525 -0.5755  0.2307
 1583TIP3    H1 4713   2.760   4.690   4.479 -0.2645  1.0258  0.1245
 1583TIP3    H2 4714   2.802   4.626   4.610 -1.7182 -0.7095 -0.2250
 1584TIP3   OH2 4715   4.586   6.759   4.608 -0.3478 -0.4858 -0.4748
 1584TIP3    H1 4716   4.657   6.724   4.554  1.3287  0.6224  0.8779
 1584TIP3    H2 4717   4.540   6.682   4.640 -1.2390 -1.1877 -3.1502
 1585TIP3   OH2 4718   3.004   3.116   2.847  0.1946  0.2879 -0.0639
 1585TIP3    H1 4719   3.025   3.038   2.795 -0.4466 -0.2765  0.5114
 1585TIP3    H2 4720   2.976   3.082   2.932 -4.0482  0.8940 -1.0317
 1586TIP3   OH2 4721   3.087   2.268   1.057 -0.1976  0.3342  0.1758
 1586TIP3    H1 4722   2.992   2.257   1.062 -0.3616  1.0189 -1.0629
 1586TIP3    H2 4723   3.100   2.335   0.990  1.1104  1.2204  1.2567
 1587TIP3   OH2 4724   4.515   6.232   3.631 -0.1942 -0.9010 -0.0305
 1587TIP3    H1 4725   4.470   6.312   3.606 -0.0178 -0.4574  1.0367
 1587TIP3    H2 4726   4.478   6.164   3.574 -0.9583 -0.2266 -0.3446
 1588TIP3   OH2 4727   0.036   6.422   1.622  0.4667 -0.0941  0.5425
 1588TIP3    H1 4728   0.026   6.327   1.619  1.2447 -0.2542  1.8701
 1588TIP3    H2 4729   0.110   6.440   1.563  2.2062 -0.6898  2.4106
 1589TIP3   OH2 4730   5.589   5.184   4.128 -0.3966 -0.3743 -0.0076
 1589TIP3    H1 4731   5.674   5.198   4.171 -0.3815  0.8515 -0.3923
 1589TIP3    H2 4732   5.525   5.196   4.198 -0.3312  0.7117 -0.1210
 1590TIP3   OH2 4733   5.133   2.919   0.077 -0.0451 -0.0657  0.1656
 1590TIP3    H1 4734   5.229   2.917   0.077  0.0167  0.5506 -1.7421
 1590TIP3    H2 4735   5.110   2.941  -0.013 -1.9874  0.0925  0.6593
 1591TIP3   OH2 4736   1.112   0.232   0.091 -0.4523  0.3723 -0.0669
 1591TIP3    H1 4737   1.124   0.273   0.005  0.7897  1.1382  0.4481
 1591TIP3    H2 4738   1.063   0.298   0.141 -0.7086  0.1466 -0.0208
 1592TIP3   OH2 4739   3.953   2.162   4.936  0.1464  0.4945 -0.8427
 1592TIP3    H1 4740   4.042   2.196   4.931  0.1012  0.6063 -0.8828
 1592TIP3    H2 4741   3.945   2.127   5.024  0.1298  0.7597 -0.7384
 1593TIP3   OH2 4742   4.120   5.084   1.111  0.2335  0.5621 -0.2082
 1593TIP3    H1 4743   4.149   5.052   1.026  0.4972 -0.1535  0.1406
 1593TIP3    H2 4744   4.162   5.026   1.174 -0.3311  0.7914  0.3938
 1594TIP3   OH2 4745   4.451   2.142   2.813 -0.3557 -0.2813  0.3376
 1594TIP3    H1 4746   4.516   2.113   2.877 -1.0431 -0.7883  0.8333
 1594TIP3    H2 4747   4.429   2.231   2.840 -0.1632 -0.2582  0.4178
 1595TIP3   OH2 4748   4.270   0.769   1.566  0.1063  0.1320  0.3222
 1595TIP3    H1 4749   4.184   0.786   1.606  0.6114 -0.1763  1.6048
 1595TIP3    H2 4750   4.296   0.854   1.529 -1.1658 -0.0017 -0.9634
 1596TIP3   OH2 4751   5.612   4.915   4.850  0.2396  0.2198  0.0703
 1596TIP3    H1 4752   5.589   4.862   4.773  0.5628  0.9964 -0.5795
 1596TIP3    H2 4753   5.696   4.955   4.827 -1.0154  2.7678 -0.4130
 1597TIP3   OH2 4754   2.568   2.116   4.442 -0.2812  0.2571 -0.7790
 1597TIP3    H1 4755   2.544   2.082   4.528  0.5034  0.1089 -0.6083
 1597TIP3    H2 4756   2.491   2.164   4.412 -0.6939 -0.0108 -0.1586
 1598TIP3   OH2 4757   0.253   1.447   4.873  0.1322 -0.4882  0.0884
 1598TIP3    H1 4758   0.266   1.355   4.847  1.0839 -0.0126 -1.2498
 1598TIP3    H2 4759   0.191   1.481   4.809  0.8550  0.1546 -0.2830
 1599TIP3   OH2 4760   2.737   1.147   2.626  0.5646 -0.6177 -0.2472
 1599TIP3    H1 4761   2.704   1.072   2.675 -0.4864  1.4222  2.4016
 1599TIP3    H2 4762   2.663   1.175   2.572  0.0673 -0.0282  0.6995
 1600TIP3   OH2 4763   5.895   6.234   2.041 -0.0385 -0.1896 -0.1152
 1600TIP3    H1 4764   5.959   6.222   2.110 -0.3892 -0.1735  0.2175
 1600TIP3    H2 4765   5.908   6.160   1.983  0.2948 -0.1731 -0.0653
 1601TIP3   OH2 4766   0.032   3.352   0.329  0.1652 -0.0140  0.2130
 1601TIP3    H1 4767   0.125   3.374   0.319 -0.2778  2.2366  0.4519
 1601TIP3    H2 4768   0.011   3.304   0.249  1.1000  1.1805 -0.8100
 1602TIP3   OH2 4769   6.392   6.725   4.460  0.5343 -0.1821  0.2679
 1602TIP3    H1 4770   6.482   6.703   4.438  0.1907 -1.2945 -0.0685
 1602TIP3    H2 4771   6.363   6.654   4.518 -0.0978  0.2095  0.4500
 1603TIP3   OH2 4772   3.447   6.718   2.396  0.2636  0.5436  0.2058
 1603TIP3    H1 4773   3.540   6.696   2.397  0.0556 -0.4199  0.2015
 1603TIP3    H2 4774   3.408   6.662   2.464 -0.3570  0.6807 -0.0261
 1604TIP3   OH2 4775   0.651   1.794   1.945  0.1064 -0.4128  0.0014
 1604TIP3    H1 4776   0.728   1.778   2.000  1.0546 -0.1570 -1.2106
 1604TIP3    H2 4777   0.614   1.707   1.931  0.8908 -0.7030 -0.3840
 1605TIP3   OH2 4778   4.103   3.889   2.683  0.2095 -0.2728 -0.1313
 1605TIP3    H1 4779   4.062   3.938   2.612 -0.1232  0.3236  0.4553
 1605TIP3    H2 4780   4.038   3.824   2.708  0.2687 -0.3868 -0.2733
 1606TIP3   OH2 4781   5.392   0.796   5.431  0.5509  0.1284 -0.1159
 1606TIP3    H1 4782   5.393   0.712   5.385  0.9818 -0.4664  0.9724
 1606TIP3    H2 4783   5.309   0.836   5.404  0.7749 -0.1971 -1.3939
 1607TIP3   OH2 4784   5.335   1.362   4.694  0.3298  0.0693  0.3172
 1607TIP3    H1 4785   5.415   1.380   4.744  1.1110  2.2308 -1.5429
 1607TIP3    H2 4786   5.363   1.302   4.624 -0.0385 -0.3534  0.5224
 1608TIP3   OH2 4787   0.995   0.514   3.139 -0.0146 -0.3781  0.4839
 1608TIP3    H1 4788   0.989   0.419   3.146 -1.6418 -0.2664  1.0342
 1608TIP3    H2 4789   0.956   0.534   3.054 -0.2621 -0.1695  0.6433
 1609TIP3   OH2 4790   4.724   4.381   3.758 -0.3976 -0.2948 -0.5879
 1609TIP3    H1 4791   4.741   4.377   3.852 -0.7671 -0.1572 -0.5144
 1609TIP3    H2 4792   4.810   4.370   3.718 -0.2382 -0.3528 -0.2345
 1610TIP3   OH2 4793   5.238   3.182   1.431  0.4830  0.0402  0.3993
 1610TIP3    H1 4794   5.198   3.240   1.366  0.5641 -0.2289  0.1055
 1610TIP3    H2 4795   5.171   3.173   1.498  0.1484 -0.1840  0.0429
 1611TIP3   OH2 4796   5.511   1.701   4.985 -0.1791  0.1612  0.1852
 1611TIP3    H1 4797   5.464   1.632   5.032  1.0673  0.3564  1.7777
 1611TIP3    H2 4798   5.484   1.782   5.028 -2.1176  0.8331 -2.0614
 1612TIP3   OH2 4799   1.129   2.726   3.646 -0.8465  0.5786  0.3737
 1612TIP3    H1 4800   1.084   2.642   3.632  0.5397 -0.4486  1.8179
 1612TIP3    H2 4801   1.216   2.702   3.677  0.5965  2.5238 -1.8035
 1613TIP3   OH2 4802   2.860   0.981   4.658 -0.1819  0.5146 -0.4616
 1613TIP3    H1 4803   2.878   1.039   4.584  0.8460  0.6817 -0.1069
 1613TIP3    H2 4804   2.884   0.894   4.626 -1.2973  0.3410 -0.8482
 1614TIP3   OH2 4805   1.543   4.401   0.521 -0.0311  0.4584 -0.0644
 1614TIP3    H1 4806   1.615   4.397   0.459  0.8539  1.4604  0.8734
 1614TIP3    H2 4807   1.583   4.388   0.607 -1.2898 -1.3789  0.3281
 1615TIP3   OH2 4808   0.714   6.001   4.242 -0.2846 -0.5699 -0.5791
 1615TIP3    H1 4809   0.802   6.032   4.261 -1.1194  1.1069  0.8662
 1615TIP3    H2 4810   0.683   6.058   4.172 -0.1571 -1.3612 -1.3093
 1616TIP3   OH2 4811   6.391   4.425   3.667 -0.0334  0.6038 -0.2897
 1616TIP3    H1 4812   6.448   4.478   3.611 -0.0671  1.6794  0.6600
 1616TIP3    H2 4813   6.307   4.471   3.667 -0.4839 -0.2093 -0.5584
 1617TIP3   OH2 4814   3.602   4.781   3.953  0.2094 -0.2865  0.1206
 1617TIP3    H1 4815   3.667   4.711   3.963  0.1627 -0.5800 -1.2949
 1617TIP3    H2 4816   3.609   4.806   3.861 -1.1201  0.2428  0.1414
 1618TIP3   OH2 4817   3.924   1.367   0.627 -0.2546  0.1666 -0.5706
 1618TIP3    H1 4818   3.910   1.301   0.695 -0.8157 -0.7209 -1.5146
 1618TIP3    H2 4819   3.883   1.446   0.661 -0.4602 -0.2413  0.1510
 1619TIP3   OH2 4820   0.098   6.055   3.392 -0.1867  0.3401  0.0331
 1619TIP3    H1 4821   0.165   6.046   3.460  0.4550  1.0476 -0.4940
 1619TIP3    H2 4822   0.022   6.091   3.438  0.6592  2.0639  0.1663
 1620TIP3   OH2 4823   5.146   0.052   3.870  0.3373 -0.9869  0.0115
 1620TIP3    H1 4824   5.221   0.090   3.916 -0.6347  2.7253 -1.1328
 1620TIP3    H2 4825   5.074   0.057   3.933 -0.0594  0.2139 -0.5226
 1621TIP3   OH2 4826   1.502   6.050   2.742  0.0061  0.2934  0.5124
 1621TIP3    H1 4827   1.455   5.981   2.696 -0.0447  1.6565 -1.6157
 1621TIP3    H2 4828   1.591   6.015   2.754 -0.9172 -1.4875  2.7187
 1622TIP3   OH2 4829   3.591   6.282   1.331  0.0089 -0.4457 -0.1930
 1622TIP3    H1 4830   3.642   6.235   1.398 -2.4497  0.0988  2.2477
 1622TIP3    H2 4831   3.504   6.291   1.370 -0.8266  2.2724 -2.4035
 1623TIP3   OH2 4832   3.865   4.259   0.864 -0.3039  0.0609 -0.4903
 1623TIP3    H1 4833   3.798   4.196   0.837  0.2897 -0.8020  0.0034
 1623TIP3    H2 4834   3.896   4.227   0.948  0.1233  0.9356 -0.3064
 1624TIP3   OH2 4835   3.113   0.093   4.804  0.8804  0.1564  0.4899
 1624TIP3    H1 4836   3.024   0.115   4.829  0.8196  0.0904  0.3361
 1624TIP3    H2 4837   3.104   0.053   4.718  0.9137 -1.0512  1.0243
 1625TIP3   OH2 4838   0.548   0.004   4.808  0.2574  0.4765 -0.3101
 1625TIP3    H1 4839   0.503   0.088   4.812 -1.1733 -0.1973 -1.3038
 1625TIP3    H2 4840   0.521  -0.034   4.724 -0.2353 -1.5621  0.7024
 1626TIP3   OH2 4841   6.003   2.938   0.016 -0.3697 -0.5046 -0.2544
 1626TIP3    H1 4842   6.001   2.898   0.103 -1.0074 -0.1996 -0.1261
 1626TIP3    H2 4843   6.033   3.028   0.032  1.5393 -1.0292 -0.5934
 1627TIP3   OH2 4844   3.302   1.432   3.485  0.2572  0.1775 -0.6431
 1627TIP3    H1 4845   3.216   1.415   3.446 -0.4140 -0.3097  0.9651
 1627TIP3    H2 4846   3.318   1.525   3.467 -0.8748  0.4161 -0.5048
 1628TIP3   OH2 4847   3.459   2.040   3.153 -0.6485 -0.3724  0.1986
 1628TIP3    H1 4848   3.529   1.977   3.171 -0.0739  0.2011 -0.0168
 1628TIP3    H2 4849   3.494   2.124   3.181 -0.7817  0.1138 -1.0472
 1629TIP3   OH2 4850   1.502   4.672   2.733  0.0819 -0.8650 -0.0230
 1629TIP3    H1 4851   1.418   4.628   2.718  0.2767 -1.4543  0.5732
 1629TIP3    H2 4852   1.505   4.686   2.828  0.8648 -1.2645  0.0152
 1630TIP3   OH2 4853   4.849   5.453   2.033 -0.2280 -0.3645  0.2085
 1630TIP3    H1 4854   4.761   5.490   2.026 -0.3581 -0.8727 -1.2540
 1630TIP3    H2 4855   4.908   5.526   2.019 -0.4277 -0.1449  0.5094
 1631TIP3   OH2 4856   4.439   6.432   1.270 -0.2456  0.6983  0.4436
 1631TIP3    H1 4857   4.425   6.400   1.359  1.2072 -0.2357  0.3671
 1631TIP3    H2 4858   4.526   6.400   1.246  0.4471  2.9897 -0.4105
 1632TIP3   OH2 4859   6.180   0.633   0.772  0.2355 -0.4907 -0.2609
 1632TIP3    H1 4860   6.171   0.624   0.867  1.9069 -2.8928 -0.2335
 1632TIP3    H2 4861   6.102   0.591   0.737 -0.4902  0.5887  0.0245
 1633TIP3   OH2 4862   3.204   5.716   4.578  0.4991 -0.0678  0.0387
 1633TIP3    H1 4863   3.285   5.715   4.528 -0.4938 -0.1457 -1.6470
 1633TIP3    H2 4864   3.158   5.637   4.551 -1.2573  1.2542 -1.0052
 1634TIP3   OH2 4865   2.442   0.605   2.439 -0.7703  0.1899  0.5946
 1634TIP3    H1 4866   2.366   0.549   2.457 -0.8684  0.2222  0.2904
 1634TIP3    H2 4867   2.515   0.544   2.434 -1.2630 -0.3513 -2.5532
 1635TIP3   OH2 4868   4.938   1.644   0.945  0.2609  0.2996  0.0256
 1635TIP3    H1 4869   4.927   1.587   1.021 -0.3713  0.1152 -0.2046
 1635TIP3    H2 4870   4.997   1.596   0.887 -1.2623 -0.6937 -0.7355
 1636TIP3   OH2 4871   3.419   0.465   1.477  0.5727 -0.2073 -0.5935
 1636TIP3    H1 4872   3.378   0.407   1.541  0.3115 -2.7103 -2.8267
 1636TIP3    H2 4873   3.511   0.437   1.475  0.9844  1.0560 -0.0963
 1637TIP3   OH2 4874   2.173   1.604   0.211 -0.1847 -0.1067 -0.7046
 1637TIP3    H1 4875   2.181   1.565   0.125  1.0366 -1.0478 -0.2044
 1637TIP3    H2 4876   2.085   1.583   0.240  0.2254 -1.9954 -0.7158
 1638TIP3   OH2 4877   4.025   6.377   2.105  0.3908 -0.6839  0.0912
 1638TIP3    H1 4878   3.933   6.378   2.078  0.6549  0.9341 -0.9515
 1638TIP3    H2 4879   4.037   6.459   2.154  1.5200 -0.2641 -0.8245
 1639TIP3   OH2 4880   1.682   3.913   0.112 -0.1576  0.0793  0.7018
 1639TIP3    H1 4881   1.728   3.972   0.173 -3.1392  0.2409  3.0127
 1639TIP3    H2 4882   1.673   3.831   0.160  0.9211 -1.2083 -1.1777
 1640TIP3   OH2 4883   1.359   2.411   5.000  0.9072 -0.2356 -0.0634
 1640TIP3    H1 4884   1.404   2.489   5.033 -1.6766  0.9415  0.9823
 1640TIP3    H2 4885   1.274   2.444   4.969  1.1144 -2.1404 -3.0565
 1641TIP3   OH2 4886   6.951   1.018   1.463  0.2744  0.4610 -0.0674
 1641TIP3    H1 4887   6.940   0.928   1.495 -1.6407  1.0843  1.2320
 1641TIP3    H2 4888   7.028   1.051   1.510  0.3960 -0.1856  0.2022
 1642TIP3   OH2 4889   6.644   2.926   5.431 -0.1842  0.2752  0.0863
 1642TIP3    H1 4890   6.550   2.924   5.450  0.1266 -1.6741  1.8670
 1642TIP3    H2 4891   6.652   2.889   5.344 -1.0163 -0.9807  0.5137
 1643TIP3   OH2 4892   0.968   0.213   3.081 -0.0283  0.1322 -0.6857
 1643TIP3    H1 4893   0.949   0.207   3.175  0.1818 -1.5923 -0.7289
 1643TIP3    H2 4894   0.882   0.212   3.039 -0.1104  0.6357 -0.5416
 1644TIP3   OH2 4895   4.725   5.786   5.642 -0.1172  0.4578  0.2502
 1644TIP3    H1 4896   4.775   5.715   5.683  1.1823  1.0688 -0.2241
 1644TIP3    H2 4897   4.790   5.837   5.594 -1.2568  1.0957 -0.6819
 1645TIP3   OH2 4898   0.435   4.854   5.535  0.3127 -0.4050 -0.0613
 1645TIP3    H1 4899   0.472   4.795   5.600  0.9338  3.8897  3.9622
 1645TIP3    H2 4900   0.340   4.839   5.540  0.5321 -2.2965 -0.6518
 1646TIP3   OH2 4901   1.907   6.381   5.607 -0.1175 -0.3249 -0.1058
 1646TIP3    H1 4902   1.938   6.316   5.670 -0.0577  0.7627  1.0223
 1646TIP3    H2 4903   1.894   6.461   5.658 -2.9296 -0.1617 -0.8862
 1647TIP3   OH2 4904   6.109   4.098   5.257  0.3293 -0.4917  0.0136
 1647TIP3    H1 4905   6.176   4.139   5.203  1.2247 -0.8683  0.8193
 1647TIP3    H2 4906   6.121   4.136   5.344 -0.9200 -0.0972  0.0346
 1648TIP3   OH2 4907   6.272   5.991   0.365  0.2772  0.0413 -0.0208
 1648TIP3    H1 4908   6.239   6.069   0.409  0.5457  0.4478 -0.5186
 1648TIP3    H2 4909   6.203   5.967   0.303  0.4962  0.3236 -0.3829
 1649TIP3   OH2 4910   5.659   5.685   3.920 -0.0661  0.0405 -0.2004
 1649TIP3    H1 4911   5.635   5.669   4.011 -1.4418  0.6258 -0.4429
 1649TIP3    H2 4912   5.742   5.734   3.925 -0.3038  0.3625  0.7341
 1650TIP3   OH2 4913   6.216   4.476   2.922 -0.2249  0.2908 -0.6154
 1650TIP3    H1 4914   6.237   4.473   2.829  2.8237 -1.1587  0.0137
 1650TIP3    H2 4915   6.291   4.519   2.963 -1.1439  0.2204  1.2719
 1651TIP3   OH2 4916   1.155   0.762   0.281 -0.0251  0.5028 -0.3696
 1651TIP3    H1 4917   1.105   0.692   0.322  0.3939  0.8029  0.6864
 1651TIP3    H2 4918   1.225   0.782   0.343  2.6231 -1.1793 -2.5625
 1652TIP3   OH2 4919   3.242   1.527   4.180  0.7199 -0.4175 -0.7204
 1652TIP3    H1 4920   3.198   1.457   4.132  1.4987 -0.5060 -1.3464
 1652TIP3    H2 4921   3.218   1.607   4.133 -2.4048  0.1831  1.5813
 1653TIP3   OH2 4922   0.788   3.329   0.086 -0.4244  0.2530  0.4863
 1653TIP3    H1 4923   0.787   3.329  -0.009 -0.1040  1.8099  0.4585
 1653TIP3    H2 4924   0.776   3.237   0.110  2.4534 -0.6578 -1.0918
 1654TIP3   OH2 4925   1.857   1.003   5.253 -0.3026 -0.0383  0.7218
 1654TIP3    H1 4926   1.868   0.942   5.326  1.5387 -0.6067  0.0267
 1654TIP3    H2 4927   1.802   0.957   5.190  0.2089 -0.5836  0.6641
 1655TIP3   OH2 4928   4.452   3.664   2.112 -0.3201 -0.0979 -0.0868
 1655TIP3    H1 4929   4.402   3.591   2.147 -1.5060  0.9416  0.4812
 1655TIP3    H2 4930   4.499   3.699   2.189 -0.9403  0.6391 -0.0322
 1656TIP3   OH2 4931   2.507   0.659   2.171  0.7000  0.6238  0.2997
 1656TIP3    H1 4932   2.472   0.738   2.131  2.1756  1.1846  0.0222
 1656TIP3    H2 4933   2.488   0.669   2.264  0.4197  1.0701  0.1971
 1657TIP3   OH2 4934   5.861   4.097   1.872 -0.3028 -0.0992  0.2374
 1657TIP3    H1 4935   5.846   4.179   1.920 -0.2815  0.4962 -0.7522
 1657TIP3    H2 4936   5.915   4.123   1.797  2.6396 -1.5443  1.6719
 1658TIP3   OH2 4937   5.063   6.558   5.308  0.0525 -0.1205  0.0903
 1658TIP3    H1 4938   5.059   6.462   5.316  1.2677 -0.2731 -0.8313
 1658TIP3    H2 4939   4.988   6.581   5.254 -0.1773 -0.5600  0.2132
 1659TIP3   OH2 4940   2.766   0.262   1.866  0.5270  0.5120 -0.1047
 1659TIP3    H1 4941   2.764   0.304   1.952 -0.2150  0.5759 -0.1501
 1659TIP3    H2 4942   2.694   0.199   1.868  1.1464 -0.2159 -0.3178
 1660TIP3   OH2 4943   0.942   4.824   1.122  0.1760  0.3470  0.3788
 1660TIP3    H1 4944   0.984   4.871   1.050  2.2455 -1.1637  0.5157
 1660TIP3    H2 4945   0.949   4.884   1.197  1.8038  0.3060  0.2990
 1661TIP3   OH2 4946   4.606   3.720   3.619 -0.5289  0.4672 -0.2187
 1661TIP3    H1 4947   4.581   3.762   3.536  0.4538 -0.2734 -0.9094
 1661TIP3    H2 4948   4.700   3.734   3.625 -0.4241 -0.4135  0.2611
 1662TIP3   OH2 4949   4.336   0.047   1.171 -0.4153  0.1062  0.0729
 1662TIP3    H1 4950   4.326   0.100   1.092 -0.8217  0.4428  0.3459
 1662TIP3    H2 4951   4.347   0.111   1.242 -1.7176 -0.1424  0.5210
 1663TIP3   OH2 4952   3.456   3.965   5.773  0.2055 -0.0302 -0.0985
 1663TIP3    H1 4953   3.447   4.060   5.781  0.9737  0.1821 -1.4686
 1663TIP3    H2 4954   3.382   3.939   5.717  0.8045 -0.0328 -0.8992
 1664TIP3   OH2 4955   5.508   1.422   1.937  0.2626  0.7474 -0.4579
 1664TIP3    H1 4956   5.430   1.370   1.918  0.3145  0.5007 -0.0008
 1664TIP3    H2 4957   5.488   1.508   1.899 -0.0617  0.5696 -0.7016
 1665TIP3   OH2 4958   2.306   6.273   3.616  0.1878 -0.1040 -0.1540
 1665TIP3    H1 4959   2.365   6.212   3.661  0.4681 -0.1292 -0.5431
 1665TIP3    H2 4960   2.219   6.240   3.635  0.3557 -2.4600 -2.7712
 1666TIP3   OH2 4961   6.664   0.123   0.323 -0.3434 -0.4564 -0.2496
 1666TIP3    H1 4962   6.736   0.137   0.261  0.4935  0.3455  0.8420
 1666TIP3    H2 4963   6.674   0.195   0.386  0.1133 -2.3433  1.9865
 1667TIP3   OH2 4964   5.303   0.810   1.129  0.5084  0.2511  0.5671
 1667TIP3    H1 4965   5.271   0.827   1.217  1.1749 -0.2458  0.9195
 1667TIP3    H2 4966   5.392   0.776   1.142  0.6437  0.2416 -0.2966
 1668TIP3   OH2 4967   0.437   4.133   2.691  0.4743 -0.2766  0.3928
 1668TIP3    H1 4968   0.518   4.085   2.707 -0.1193 -1.7892 -0.7882
 1668TIP3    H2 4969   0.420   4.120   2.597 -1.9285 -1.3849  0.8953
 1669TIP3   OH2 4970   2.067   2.821   0.971 -0.5123 -0.3137 -0.9678
 1669TIP3    H1 4971   2.040   2.771   1.048  0.6460 -0.7841 -0.8520
 1669TIP3    H2 4972   2.070   2.912   1.001  2.1485 -0.7030  0.2599
 1670TIP3   OH2 4973   2.358   2.493   2.713  0.1286  0.3480  0.4574
 1670TIP3    H1 4974   2.404   2.411   2.699  1.8671  0.8664  2.6253
 1670TIP3    H2 4975   2.393   2.527   2.795 -0.4239  3.3329 -0.4171
 1671TIP3   OH2 4976   1.084   0.541   1.012  0.0066  0.3573 -0.2425
 1671TIP3    H1 4977   1.023   0.572   1.078  0.2120  0.6825 -0.2038
 1671TIP3    H2 4978   1.124   0.620   0.977  0.7046  0.1267  0.0131
 1672TIP3   OH2 4979   0.255   1.183   2.829 -0.0406 -0.6977  0.3010
 1672TIP3    H1 4980   0.235   1.276   2.842  0.3818 -0.7980  1.8212
 1672TIP3    H2 4981   0.171   1.142   2.810 -0.3564 -0.1410  0.5044
 1673TIP3   OH2 4982   6.598   0.898   2.629  0.1510 -0.0880 -0.3619
 1673TIP3    H1 4983   6.679   0.848   2.622  0.0820 -0.6561  2.2187
 1673TIP3    H2 4984   6.565   0.879   2.716 -2.4905  0.5910 -1.1210
 1674TIP3   OH2 4985   3.199   6.274   2.899  0.0278  0.2674  0.2721
 1674TIP3    H1 4986   3.164   6.340   2.959 -0.0932 -1.0991  1.7701
 1674TIP3    H2 4987   3.288   6.302   2.881 -0.2953  1.2824  0.2119
 1675TIP3   OH2 4988   1.812   1.503   2.549  0.3536 -0.2974 -0.2125
 1675TIP3    H1 4989   1.852   1.504   2.462  0.3740  1.4505 -0.2103
 1675TIP3    H2 4990   1.884   1.480   2.609  0.3446 -1.4809 -0.6198
 1676TIP3   OH2 4991   2.667   2.324   1.807  0.2768 -0.0411  0.2158
 1676TIP3    H1 4992   2.656   2.250   1.867 -0.1837  0.6627  1.0278
 1676TIP3    H2 4993   2.761   2.340   1.805  0.1787  0.9746  2.0865
 1677TIP3   OH2 4994   5.354   1.673   5.665 -0.2318  0.2921 -0.2576
 1677TIP3    H1 4995   5.401   1.677   5.748 -1.4512 -0.4257  0.4983
 1677TIP3    H2 4996   5.385   1.593   5.623 -0.8476 -0.2409  0.2925
 1678TIP3   OH2 4997   0.686   1.059   5.162  0.4236 -0.0146 -0.1386
 1678TIP3    H1 4998   0.619   1.109   5.116 -0.7725  0.7836  2.2802
 1678TIP3    H2 4999   0.724   1.121   5.224 -0.0325 -1.6383  1.8928
 1679TIP3   OH2 5000   0.176   5.010   5.266  0.2187 -0.4291 -0.1140
 1679TIP3    H1 5001   0.133   5.073   5.323  1.9874 -0.4088  1.2947
 1679TIP3    H2 5002   0.139   4.925   5.291 -1.5702 -0.1218 -1.4573
 1680TIP3   OH2 5003   6.430   5.972   1.943 -0.2266  0.0499 -0.0065
 1680TIP3    H1 5004   6.368   5.901   1.958 -0.2346 -0.1511 -0.9294
 1680TIP3    H2 5005   6.400   6.043   2.000  0.6368 -1.1528  2.0808
 1681TIP3   OH2 5006   0.577   5.410   5.750 -0.3785  0.4004  0.3033
 1681TIP3    H1 5007   0.655   5.357   5.737 -0.9310 -0.3277 -0.0651
 1681TIP3    H2 5008   0.574   5.426   5.845  0.0952  0.2556  0.3426
 1682TIP3   OH2 5009   6.138   2.585   0.974  0.0823  0.3794  0.2936
 1682TIP3    H1 5010   6.198   2.538   0.916  0.8715  1.3366  0.3151
 1682TIP3    H2 5011   6.124   2.524   1.047  1.3375  0.2729  0.4772
 1683TIP3   OH2 5012   6.071   5.273   1.353 -0.5970 -0.3477 -0.0355
 1683TIP3    H1 5013   6.102   5.361   1.331  0.4038 -0.6662  0.0426
 1683TIP3    H2 5014   6.148   5.229   1.390 -1.5599 -0.6627  1.6741
 1684TIP3   OH2 5015   4.676   1.746   3.503 -0.8798 -0.2268  0.2646
 1684TIP3    H1 5016   4.739   1.674   3.507 -0.3023  0.2208 -0.4692
 1684TIP3    H2 5017   4.694   1.799   3.581  0.3848  0.4760 -0.4720
 1685TIP3   OH2 5018   1.878   5.718   0.859  0.3349  0.3432  0.1360
 1685TIP3    H1 5019   1.950   5.659   0.881 -0.0681 -0.2902 -0.2341
 1685TIP3    H2 5020   1.907   5.762   0.779  0.3078  0.0890 -0.0127
 1686TIP3   OH2 5021   3.902   0.157   3.659 -0.4960  0.2939 -0.4214
 1686TIP3    H1 5022   3.945   0.072   3.661 -1.1192 -0.0328 -0.8196
 1686TIP3    H2 5023   3.923   0.193   3.573 -1.8881 -0.3317 -1.0465
 1687TIP3   OH2 5024   3.546   2.718   0.239 -0.0365  0.7754  0.1850
 1687TIP3    H1 5025   3.628   2.693   0.195 -0.3009 -0.3754  0.2952
 1687TIP3    H2 5026   3.490   2.749   0.169  1.0956  3.3858  0.3349
 1688TIP3   OH2 5027   2.823   2.944   5.750  0.2288 -0.2157  0.1990
 1688TIP3    H1 5028   2.854   2.859   5.721  1.3095  0.7633 -1.7693
 1688TIP3    H2 5029   2.842   2.946   5.844  2.2410 -1.3295 -0.1165
 1689TIP3   OH2 5030   5.245   3.228   0.809  0.6566 -0.4003  0.5198
 1689TIP3    H1 5031   5.291   3.177   0.876 -0.4833 -1.3859  0.5866
 1689TIP3    H2 5032   5.289   3.205   0.727  1.4095  0.0373  0.7908
 1690TIP3   OH2 5033   6.335   4.397   5.300  0.0971 -0.3047  0.4828
 1690TIP3    H1 5034   6.254   4.443   5.320  0.5461  0.2556  1.0426
 1690TIP3    H2 5035   6.398   4.467   5.279  0.8172 -0.6377  1.4549
 1691TIP3   OH2 5036   5.429   2.004   1.894 -0.4425 -0.3083  0.2338
 1691TIP3    H1 5037   5.483   2.061   1.839  1.3910 -0.7494  1.5075
 1691TIP3    H2 5038   5.482   1.988   1.972 -2.9778  0.3214  2.1944
 1692TIP3   OH2 5039   0.954   4.105   0.580  0.2625 -0.3946  0.1061
 1692TIP3    H1 5040   0.986   4.164   0.512  0.8762 -1.8070 -0.8810
 1692TIP3    H2 5041   0.863   4.086   0.555  0.4031 -0.6996 -0.1815
 1693TIP3   OH2 5042   4.776   5.596   1.582  0.2937  0.6858  0.0042
 1693TIP3    H1 5043   4.797   5.570   1.493 -0.1524  0.4886 -0.0457
 1693TIP3    H2 5044   4.817   5.682   1.592 -1.4014  1.6694 -1.1028
 1694TIP3   OH2 5045   0.929   1.815   0.842  0.2088  0.0058 -0.2687
 1694TIP3    H1 5046   0.973   1.889   0.882 -0.0230  0.4219 -0.7746
 1694TIP3    H2 5047   0.973   1.738   0.878  1.5743  0.4155 -1.0159
 1695TIP3   OH2 5048   4.404   4.110   0.704 -0.9077 -0.5305  0.4715
 1695TIP3    H1 5049   4.367   4.198   0.696 -1.3322 -0.7980 -0.6067
 1695TIP3    H2 5050   4.335   4.052   0.673 -0.3865 -1.2019  0.5473
 1696TIP3   OH2 5051   6.204   4.134   3.596  0.1374 -0.5776 -0.1169
 1696TIP3    H1 5052   6.290   4.171   3.616  0.6071 -1.3577 -0.6552
 1696TIP3    H2 5053   6.219   4.075   3.522 -0.9050 -0.5365 -0.3882
 1697TIP3   OH2 5054   2.106   2.380   2.028  0.4462 -0.3805  0.1028
 1697TIP3    H1 5055   2.113   2.417   1.940  0.7658  0.2740  0.3958
 1697TIP3    H2 5056   2.159   2.300   2.026  0.5448 -0.3034 -0.2654
 1698TIP3   OH2 5057   3.724   5.613   0.606  0.2862 -0.8634  0.1012
 1698TIP3    H1 5058   3.631   5.595   0.618  0.3138 -1.1520 -0.0939
 1698TIP3    H2 5059   3.741   5.588   0.515  0.6747 -1.3288  0.2999
 1699TIP3   OH2 5060   5.658   0.289   1.325  0.0827  0.4557 -0.1707
 1699TIP3    H1 5061   5.586   0.328   1.276 -0.0312  0.8602  0.3116
 1699TIP3    H2 5062   5.719   0.361   1.340 -0.7696  0.8042  1.9035
 1700TIP3   OH2 5063   2.104   2.609   5.483 -0.8667 -0.6158 -0.7615
 1700TIP3    H1 5064   2.151   2.657   5.551 -1.4599 -1.3958  0.2233
 1700TIP3    H2 5065   2.133   2.649   5.401  1.4998 -1.0539 -0.2158
 1701TIP3   OH2 5066   2.659   5.919   5.157  0.4771 -0.4850 -0.8176
 1701TIP3    H1 5067   2.711   5.844   5.127 -0.3296 -2.1084  1.5300
 1701TIP3    H2 5068   2.568   5.892   5.146  0.1738  0.0667  0.1599
 1702TIP3   OH2 5069   5.695   2.169   4.935 -0.0423 -0.9195 -0.1924
 1702TIP3    H1 5070   5.718   2.112   5.008  0.2005  1.1895  1.4540
 1702TIP3    H2 5071   5.724   2.121   4.857 -1.5363 -3.8588  0.9053
 1703TIP3   OH2 5072   3.907   3.227   5.386  0.1091  0.2885 -0.4600
 1703TIP3    H1 5073   3.883   3.190   5.472  1.3032 -1.2970 -0.7605
 1703TIP3    H2 5074   3.828   3.218   5.333  0.1884 -1.3573 -0.3389
 1704TIP3   OH2 5075   0.095   1.864   1.454 -0.3036  0.3042  0.8065
 1704TIP3    H1 5076   0.136   1.782   1.481 -0.1551 -0.3603 -1.2830
 1704TIP3    H2 5077   0.132   1.930   1.513  0.2331 -0.9833  1.9637
 1705TIP3   OH2 5078   3.430   0.847   0.838  0.0139  0.2766  0.2711
 1705TIP3    H1 5079   3.488   0.903   0.786  0.6119 -0.9915 -0.4617
 1705TIP3    H2 5080   3.438   0.881   0.927  0.4122  1.3062 -0.1377
 1706TIP3   OH2 5081   3.061   3.271   4.844  0.3237 -0.6333 -0.1942
 1706TIP3    H1 5082   2.984   3.325   4.859  0.1869 -0.3572 -1.7783
 1706TIP3    H2 5083   3.032   3.204   4.782  1.8470  0.7654 -2.5780
 1707TIP3   OH2 5084   4.501   4.679   3.169  0.4937  0.1278 -0.4570
 1707TIP3    H1 5085   4.502   4.763   3.215  0.7505 -0.1768  0.1179
 1707TIP3    H2 5086   4.445   4.623   3.223  1.0098 -0.3127 -0.3711
 1708TIP3   OH2 5087   2.784   3.736   5.629  0.5409  0.2863  0.0570
 1708TIP3    H1 5088   2.719   3.773   5.569 -0.3487 -0.7552  0.3408
 1708TIP3    H2 5089   2.857   3.798   5.627 -1.0101  2.2216  0.8158
 1709TIP3   OH2 5090   2.932   5.307   0.085 -0.0493 -0.3188  0.0644
 1709TIP3    H1 5091   2.965   5.386   0.128  0.7956 -0.1781 -0.8036
 1709TIP3    H2 5092   2.929   5.330  -0.008  1.2952 -1.6426 -0.3519
 1710TIP3   OH2 5093   0.662   6.059   1.528  0.3307  0.6441 -0.0507
 1710TIP3    H1 5094   0.606   6.035   1.454 -1.1841 -0.4872  1.3936
 1710TIP3    H2 5095   0.603   6.099   1.591  1.6369  1.7946  0.4932
 1711TIP3   OH2 5096   2.554   3.465   0.386 -0.1639 -0.3972  0.4297
 1711TIP3    H1 5097   2.505   3.383   0.384  0.6633 -0.9094  0.8400
 1711TIP3    H2 5098   2.636   3.444   0.430 -1.0931  1.2519  3.2729
 1712TIP3   OH2 5099   4.557   3.545   5.447 -0.4531 -0.5471  0.5369
 1712TIP3    H1 5100   4.596   3.469   5.404 -0.8495 -0.3428 -0.1977
 1712TIP3    H2 5101   4.537   3.605   5.376  1.0454  0.8244  1.1994
 1713TIP3   OH2 5102   6.578   5.942   5.025  0.2303  0.0542 -0.0266
 1713TIP3    H1 5103   6.604   5.872   4.965  0.7774  0.5566 -0.3842
 1713TIP3    H2 5104   6.608   5.912   5.111 -0.0571 -0.4088 -0.0798
 1714TIP3   OH2 5105   4.166   5.860   1.410  0.0695 -0.6177  0.2687
 1714TIP3    H1 5106   4.193   5.807   1.335  1.8816  2.5763 -1.6045
 1714TIP3    H2 5107   4.082   5.898   1.384 -0.7697 -1.7788  1.2015
 1715TIP3   OH2 5108   2.494   0.739   1.566  0.8011  0.3152 -0.4823
 1715TIP3    H1 5109   2.489   0.674   1.636  0.0905  1.6738  0.7777
 1715TIP3    H2 5110   2.446   0.699   1.493  0.1713 -0.4686  0.3443
 1716TIP3   OH2 5111   2.559   3.771   3.158 -0.0324 -0.1590 -0.0967
 1716TIP3    H1 5112   2.587   3.736   3.242 -0.7922  4.1207  2.2431
 1716TIP3    H2 5113   2.465   3.754   3.156 -0.2887  1.0099  0.7351
 1717TIP3   OH2 5114   3.939   5.827   0.029 -0.3335 -0.2637  0.7190
 1717TIP3    H1 5115   3.961   5.743   0.068  0.5503 -0.4002 -0.0446
 1717TIP3    H2 5116   3.877   5.806  -0.041  1.4895 -0.5752 -0.8868
 1718TIP3   OH2 5117   3.245   5.932   4.342  0.0579 -0.4973  0.6242
 1718TIP3    H1 5118   3.184   5.974   4.402 -0.1778  1.0735 -0.6371
 1718TIP3    H2 5119   3.314   5.997   4.329  1.0025 -1.4958  0.5368
 1719TIP3   OH2 5120   6.301   4.262   2.687  0.4104  0.1581 -0.2122
 1719TIP3    H1 5121   6.331   4.343   2.646 -0.1332  0.7603  0.5481
 1719TIP3    H2 5122   6.276   4.206   2.614 -0.8611  1.3368 -0.7245
 1720TIP3   OH2 5123   5.485   1.356   2.215 -0.1895 -0.1843 -0.2226
 1720TIP3    H1 5124   5.393   1.341   2.239 -0.6326  3.1342  0.7329
 1720TIP3    H2 5125   5.489   1.336   2.122 -0.6906 -4.6804  0.5250
 1721TIP3   OH2 5126   5.207   1.425   2.874 -0.1496 -0.3389 -0.1987
 1721TIP3    H1 5127   5.209   1.428   2.778 -0.4058  0.4632 -0.1838
 1721TIP3    H2 5128   5.187   1.333   2.894 -0.9843 -0.3326 -0.9285
 1722TIP3   OH2 5129   0.141   3.278   3.855  0.3236  0.4008  0.1490
 1722TIP3    H1 5130   0.075   3.250   3.919 -1.8169  0.4449 -1.9137
 1722TIP3    H2 5131   0.220   3.232   3.881 -0.9472 -1.0290  1.7406
 1723TIP3   OH2 5132   5.610   3.173   2.154  0.3738 -0.1952 -0.1572
 1723TIP3    H1 5133   5.647   3.178   2.066 -0.3397 -0.4207 -0.4704
 1723TIP3    H2 5134   5.676   3.215   2.210  0.3164  1.0017 -0.9486
 1724TIP3   OH2 5135   3.171   3.153   2.252 -0.4786  0.4692  0.1634
 1724TIP3    H1 5136   3.148   3.179   2.341  1.2813  0.1958  0.7423
 1724TIP3    H2 5137   3.265   3.131   2.257 -0.3532  0.4149 -1.7474
 1725TIP3   OH2 5138   3.160   0.129   4.185 -0.0601  0.7435  0.9727
 1725TIP3    H1 5139   3.125   0.070   4.251  0.2472 -0.7993 -0.1729
 1725TIP3    H2 5140   3.164   0.215   4.228 -2.9484  0.5120  1.8908
 1726TIP3   OH2 5141   2.174   0.075   0.564 -0.4242  0.0160 -0.4290
 1726TIP3    H1 5142   2.241   0.078   0.633 -1.5929 -0.0231  0.7479
 1726TIP3    H2 5143   2.167  -0.018   0.543 -2.7177 -0.5453  2.1866
 1727TIP3   OH2 5144   3.414   2.062   0.015  0.7361 -0.5296  0.3232
 1727TIP3    H1 5145   3.507   2.082   0.029  0.5127 -0.2192  1.4564
 1727TIP3    H2 5146   3.407   1.968   0.031  0.9111 -0.6181 -0.1070
 1728TIP3   OH2 5147   0.625   4.452   2.727 -0.1514 -0.3090  0.4897
 1728TIP3    H1 5148   0.701   4.506   2.706 -0.3740  0.0603  0.6201
 1728TIP3    H2 5149   0.662   4.371   2.763  0.2974 -1.4359 -2.2388
 1729TIP3   OH2 5150   3.747   2.339   3.623  0.0577  0.1543 -0.2652
 1729TIP3    H1 5151   3.745   2.290   3.541  1.0623  0.4441 -0.4673
 1729TIP3    H2 5152   3.727   2.429   3.598  1.8641  0.5310 -0.4170
 1730TIP3   OH2 5153   4.771   3.389   5.730 -0.0193 -0.9073 -0.2343
 1730TIP3    H1 5154   4.777   3.304   5.775 -0.3722  0.3934  2.4455
 1730TIP3    H2 5155   4.693   3.430   5.767  0.1941  0.6255 -1.4067
 1731TIP3   OH2 5156   2.805   5.374   1.328 -0.1454  0.2827  0.6686
 1731TIP3    H1 5157   2.795   5.468   1.311  0.1390  0.4277  1.2473
 1731TIP3    H2 5158   2.871   5.345   1.265  0.4079  0.6617  1.0625
 1732TIP3   OH2 5159   6.304   6.638   0.113  0.1219  0.1159 -0.3634
 1732TIP3    H1 5160   6.225   6.585   0.125  0.1598  0.1836  0.1991
 1732TIP3    H2 5161   6.282   6.722   0.152  0.9563 -0.3115  1.0924
 1733TIP3   OH2 5162   0.744   1.398   5.079  0.3866 -0.1422 -0.4708
 1733TIP3    H1 5163   0.769   1.482   5.119 -1.9748  0.1095  0.6352
 1733TIP3    H2 5164   0.827   1.359   5.052  1.7007  1.7497  0.5939
 1734TIP3   OH2 5165   4.909   5.323   0.976  0.2387 -0.3626  0.2960
 1734TIP3    H1 5166   4.820   5.314   0.943  0.5292 -0.9527 -0.3481
 1734TIP3    H2 5167   4.965   5.307   0.900  0.9207 -1.5824  1.0222
 1735TIP3   OH2 5168   0.111   2.301   2.471  0.2864  0.5796  0.0490
 1735TIP3    H1 5169   0.199   2.332   2.453  0.0440  1.5430  0.4574
 1735TIP3    H2 5170   0.116   2.269   2.562  0.0027  1.5048  0.4038
 1736TIP3   OH2 5171   3.129   4.983   4.272 -0.0326 -0.6423  0.6080
 1736TIP3    H1 5172   3.066   4.946   4.333 -0.1936 -0.6070  0.4612
 1736TIP3    H2 5173   3.128   5.077   4.291  0.0414 -0.6522  0.6651
 1737TIP3   OH2 5174   2.490   0.017   0.460  0.8426 -0.0057 -0.5403
 1737TIP3    H1 5175   2.480   0.095   0.514 -0.9400 -0.9660  0.6147
 1737TIP3    H2 5176   2.527  -0.049   0.520  1.4079 -0.3441 -1.2379
 1738TIP3   OH2 5177   1.315   5.606   4.600 -0.2336  1.0875  0.0872
 1738TIP3    H1 5178   1.334   5.585   4.508 -2.0929  0.6848 -0.2407
 1738TIP3    H2 5179   1.317   5.522   4.645 -0.4036  1.1457  0.2034
 1739TIP3   OH2 5180   3.592   6.702   0.626 -0.0301  0.3297 -0.6037
 1739TIP3    H1 5181   3.582   6.735   0.715  1.7355  1.2918 -0.7263
 1739TIP3    H2 5182   3.563   6.775   0.570 -1.3327 -0.3435 -0.8449
 1740TIP3   OH2 5183   3.915   4.567   3.237  0.3177  0.3601 -0.2070
 1740TIP3    H1 5184   3.989   4.531   3.188  0.9036  0.3667  0.6390
 1740TIP3    H2 5185   3.951   4.587   3.323 -0.4540  1.2232 -0.0623
 1741TIP3   OH2 5186   3.222   0.710   0.984  0.4063 -0.2447  0.3091
 1741TIP3    H1 5187   3.266   0.640   0.936 -0.0445  0.6955 -1.5889
 1741TIP3    H2 5188   3.192   0.771   0.916  0.3884  1.5728  1.8469
 1742TIP3   OH2 5189   6.745   4.609   3.325 -0.0264  0.1146  0.1383
 1742TIP3    H1 5190   6.810   4.580   3.261  1.2557  0.5945  1.1616
 1742TIP3    H2 5191   6.773   4.698   3.347 -0.9646  0.2760  0.7054
 1743TIP3   OH2 5192   0.819   6.070   0.402  0.0275  0.2213 -0.2506
 1743TIP3    H1 5193   0.908   6.103   0.393  0.1882 -0.1741 -0.1447
 1743TIP3    H2 5194   0.804   6.018   0.323  0.0322 -0.0257 -0.0922
 1744TIP3   OH2 5195   7.167   4.573   1.386 -0.6751 -0.4752 -0.3113
 1744TIP3    H1 5196   7.204   4.486   1.401 -0.4234 -0.4490 -0.7718
 1744TIP3    H2 5197   7.223   4.632   1.438  1.1087 -0.1978 -2.4001
 1745TIP3   OH2 5198   0.062   2.650   0.067  0.1644  0.1426  0.2999
 1745TIP3    H1 5199   0.122   2.710   0.111 -1.2153  2.2034 -0.4718
 1745TIP3    H2 5200   0.113   2.614  -0.005  0.8746  0.8589  0.4246
 1746TIP3   OH2 5201   0.560   6.573   1.686 -0.0659  0.3967  0.0738
 1746TIP3    H1 5202   0.537   6.639   1.752  0.5820  1.9232 -1.1694
 1746TIP3    H2 5203   0.607   6.506   1.735 -0.4617  0.9953  1.3284
 1747TIP3   OH2 5204   6.393   4.025   2.822 -0.3237  0.2217 -0.1789
 1747TIP3    H1 5205   6.352   4.091   2.765 -1.2376 -0.6924 -0.6068
 1747TIP3    H2 5206   6.450   3.975   2.764  1.0922  1.1923  0.3262
 1748TIP3   OH2 5207   4.445   2.914   2.366  0.2883 -0.6728  0.3020
 1748TIP3    H1 5208   4.520   2.970   2.348 -2.4193  2.8350 -1.2764
 1748TIP3    H2 5209   4.413   2.887   2.280 -1.5098 -0.1181  0.7406
 1749TIP3   OH2 5210   5.462   5.438   1.612 -0.6674 -0.4106  0.1110
 1749TIP3    H1 5211   5.541   5.491   1.608 -0.7173 -0.2445  1.1534
 1749TIP3    H2 5212   5.493   5.350   1.636 -0.7983 -0.3509  0.4975
 1750TIP3   OH2 5213   2.825   6.523   5.744  0.0719  0.5104 -0.5829
 1750TIP3    H1 5214   2.912   6.509   5.707  0.4158  1.8369 -0.3103
 1750TIP3    H2 5215   2.766   6.480   5.682  1.0294 -2.5904  0.4552
 1751TIP3   OH2 5216   4.182   5.794   4.092 -0.3584  0.1606  0.4372
 1751TIP3    H1 5217   4.190   5.701   4.116 -0.1718 -0.8584 -3.0148
 1751TIP3    H2 5218   4.249   5.838   4.144  0.4155 -1.8402  1.2476
 1752TIP3   OH2 5219   1.458   5.272   4.009 -0.1594  0.0983  0.1313
 1752TIP3    H1 5220   1.519   5.344   4.022 -1.8524  1.6179  0.1083
 1752TIP3    H2 5221   1.498   5.219   3.940  1.3146  0.7978  0.4127
 1753TIP3   OH2 5222   6.489   4.187   3.529 -0.5776 -0.6129 -0.0281
 1753TIP3    H1 5223   6.574   4.189   3.574 -0.7069 -2.6389  0.3944
 1753TIP3    H2 5224   6.447   4.268   3.554  2.2422  1.8242 -2.3645
 1754TIP3   OH2 5225   6.769   1.402   2.871  0.1292 -0.2756  0.4002
 1754TIP3    H1 5226   6.715   1.481   2.868 -1.3150 -1.2463 -0.8999
 1754TIP3    H2 5227   6.814   1.400   2.787 -0.0711 -0.9664  0.2994
 1755TIP3   OH2 5228   2.975   4.500   2.538  0.2631 -0.0517  0.4976
 1755TIP3    H1 5229   2.896   4.497   2.483 -0.2283  0.0369  1.1776
 1755TIP3    H2 5230   3.047   4.514   2.477 -0.0192 -1.9729 -0.3663
 1756TIP3   OH2 5231   3.383   1.635   1.846  0.9551 -0.1782 -0.6621
 1756TIP3    H1 5232   3.428   1.716   1.870  0.7506  0.0049 -0.8868
 1756TIP3    H2 5233   3.337   1.656   1.764  0.0478 -0.1986 -0.1750
 1757TIP3   OH2 5234   2.385   4.836   2.979  0.2721 -0.1683 -0.6484
 1757TIP3    H1 5235   2.460   4.829   2.920 -1.2363  1.9050 -2.9886
 1757TIP3    H2 5236   2.411   4.903   3.043  1.4206 -1.4830  0.3045
 1758TIP3   OH2 5237   4.755   6.246   0.585 -0.1034  0.2342 -0.1682
 1758TIP3    H1 5238   4.768   6.187   0.511  1.9118 -1.7590  1.6333
 1758TIP3    H2 5239   4.668   6.224   0.618 -0.3112 -0.0851 -0.8983
 1759TIP3   OH2 5240   6.237   3.217   2.159 -0.3519 -0.1256  0.1620
 1759TIP3    H1 5241   6.304   3.151   2.142  0.7815  1.1747 -0.5887
 1759TIP3    H2 5242   6.206   3.196   2.247 -1.2102 -2.6253 -0.6532
 1760TIP3   OH2 5243   6.926   5.401   0.830  0.0343  0.3183  0.3161
 1760TIP3    H1 5244   6.867   5.473   0.852 -1.7092 -0.6405 -0.9948
 1760TIP3    H2 5245   6.870   5.336   0.787  2.1553 -0.4082 -1.5355
 1761TIP3   OH2 5246   0.247   5.221   2.592  0.3840  0.2128 -0.4798
 1761TIP3    H1 5247   0.165   5.232   2.543 -0.5651  2.0142  1.3922
 1761TIP3    H2 5248   0.225   5.244   2.682  2.6358 -0.7188  0.3827
 1762TIP3   OH2 5249   3.125   2.885   2.699 -0.6494 -0.1429  0.6523
 1762TIP3    H1 5250   3.188   2.820   2.668 -1.2115 -1.0638  1.3852
 1762TIP3    H2 5251   3.099   2.933   2.621  1.1370  0.4357  0.3633
 1763TIP3   OH2 5252   3.200   2.280   0.184 -0.2493  0.5544 -0.4193
 1763TIP3    H1 5253   3.120   2.244   0.145  0.3924  0.5142 -1.7699
 1763TIP3    H2 5254   3.243   2.327   0.111  1.0911  0.3382  0.2006
 1764TIP3   OH2 5255   2.264   4.996   4.458  0.4078  0.0841  0.4444
 1764TIP3    H1 5256   2.255   5.023   4.367  0.7806  1.9779  0.9149
 1764TIP3    H2 5257   2.327   4.924   4.456 -1.3150 -1.4511 -0.9909
 1765TIP3   OH2 5258   1.817   0.527   4.715 -0.3531  0.1247 -0.3347
 1765TIP3    H1 5259   1.744   0.573   4.673  0.3332  2.1765  0.6023
 1765TIP3    H2 5260   1.872   0.499   4.642 -0.9516  0.5043 -0.9536
 1766TIP3   OH2 5261   0.096   1.491   5.094 -0.7023 -0.0282 -0.4839
 1766TIP3    H1 5262   0.015   1.440   5.098 -1.0239  0.4977 -0.1716
 1766TIP3    H2 5263   0.143   1.455   5.019 -0.5524 -1.3181  0.1996
 1767TIP3   OH2 5264   6.814   0.681   3.486  0.1993  0.3133 -0.8732
 1767TIP3    H1 5265   6.808   0.752   3.422  1.0027  0.9309 -0.2838
 1767TIP3    H2 5266   6.871   0.617   3.444  0.5871  0.6409 -0.8614
 1768TIP3   OH2 5267   4.273   1.145   3.107 -0.0928  0.1256  0.4266
 1768TIP3    H1 5268   4.195   1.120   3.057 -1.2545  1.7868  1.3105
 1768TIP3    H2 5269   4.328   1.190   3.043 -0.4208  0.0246  0.0660
 1769TIP3   OH2 5270   6.885   3.567   0.816 -0.0805  0.1871  0.3502
 1769TIP3    H1 5271   6.969   3.527   0.839 -0.1888 -0.2474  0.0019
 1769TIP3    H2 5272   6.830   3.553   0.893 -0.2773 -0.7895  0.0376
 1770TIP3   OH2 5273   5.383   4.059   1.838  0.1183 -0.3381  0.3347
 1770TIP3    H1 5274   5.387   4.117   1.762 -1.1984 -1.4188 -0.6287
 1770TIP3    H2 5275   5.455   3.997   1.826  0.9261  0.4805  0.8576
 1771TIP3   OH2 5276   0.567   2.997   3.839 -0.2761 -0.2119 -0.2698
 1771TIP3    H1 5277   0.484   3.044   3.829 -0.3765 -0.6480 -1.8449
 1771TIP3    H2 5278   0.624   3.058   3.886 -0.7880  1.0133 -1.1815
 1772TIP3   OH2 5279   0.348   2.108   2.153  0.4815 -0.0439 -0.1041
 1772TIP3    H1 5280   0.264   2.150   2.135  1.4337  1.5575 -1.0618
 1772TIP3    H2 5281   0.336   2.017   2.126  0.1955  0.9931 -4.2053
 1773TIP3   OH2 5282   5.678   6.639   2.258 -0.4076 -0.4686 -0.2736
 1773TIP3    H1 5283   5.661   6.549   2.285  2.0193 -0.6762  0.8065
 1773TIP3    H2 5284   5.723   6.678   2.333 -0.6752  1.4028 -1.0400
 1774TIP3   OH2 5285   3.751   0.622   3.489  0.8456 -0.1879 -0.3761
 1774TIP3    H1 5286   3.765   0.601   3.581 -1.1935 -2.1002 -0.4237
 1774TIP3    H2 5287   3.839   0.622   3.451  1.6225 -0.5830  1.3276
 1775TIP3   OH2 5288   0.763   3.145   3.992 -0.3032  0.3135  0.2899
 1775TIP3    H1 5289   0.829   3.137   4.060 -0.5669 -1.0705  0.4055
 1775TIP3    H2 5290   0.723   3.230   4.007  1.7586  1.4180 -0.0896
 1776TIP3   OH2 5291   1.326   4.703   0.228  0.5388  0.2677  0.3764
 1776TIP3    H1 5292   1.322   4.630   0.290 -0.7955 -0.0119 -0.0079
 1776TIP3    H2 5293   1.420   4.720   0.217  0.9840 -2.4892 -0.8091
 1777TIP3   OH2 5294   6.870   5.861   3.480  0.0162 -0.0788 -0.0943
 1777TIP3    H1 5295   6.893   5.901   3.564  0.2137  0.0504 -0.2105
 1777TIP3    H2 5296   6.954   5.840   3.439 -0.0830 -0.4150 -0.1305
 1778TIP3   OH2 5297   7.175   3.217   3.412  0.4473 -0.1201 -0.0361
 1778TIP3    H1 5298   7.245   3.231   3.476 -1.2635  0.4067  1.8607
 1778TIP3    H2 5299   7.106   3.279   3.439 -0.6595 -0.4659 -1.9293
 1779TIP3   OH2 5300   6.200   2.085   5.406  0.4758  0.0778 -0.0690
 1779TIP3    H1 5301   6.293   2.079   5.430  0.2647 -0.0388  0.7619
 1779TIP3    H2 5302   6.158   2.122   5.483 -0.0134  1.1972 -0.8534
 1780TIP3   OH2 5303   1.826   3.837   4.613 -0.2414 -0.3863  0.1048
 1780TIP3    H1 5304   1.877   3.760   4.589 -0.5173 -0.2624 -0.9367
 1780TIP3    H2 5305   1.735   3.811   4.600 -0.3615 -0.0636  0.2826
 1781TIP3   OH2 5306   6.287   3.897   3.816  0.6453  0.0599  0.5394
 1781TIP3    H1 5307   6.326   3.887   3.730  0.3971  0.5014  0.3730
 1781TIP3    H2 5308   6.297   3.811   3.857 -0.1657 -0.4655 -0.3167
 1782TIP3   OH2 5309   6.405   2.365   1.768 -0.1212  0.0371  0.2932
 1782TIP3    H1 5310   6.480   2.388   1.823  0.6006  0.2443 -0.7436
 1782TIP3    H2 5311   6.329   2.388   1.821  0.5584  1.0101  0.8837
 1783TIP3   OH2 5312   2.032   2.427   5.690  0.1264 -0.6530 -0.1273
 1783TIP3    H1 5313   2.110   2.415   5.745 -1.0397  0.3182  1.8195
 1783TIP3    H2 5314   2.064   2.481   5.617  1.0225  1.0652  1.4252
 1784TIP3   OH2 5315   2.525   2.820   4.494 -0.3887 -0.2161 -0.0259
 1784TIP3    H1 5316   2.594   2.760   4.521 -0.7340 -1.2324 -1.2930
 1784TIP3    H2 5317   2.448   2.764   4.481 -1.5133  0.8898  1.4651
 1785TIP3   OH2 5318   5.775   5.827   2.706 -0.1573  0.5303  0.2991
 1785TIP3    H1 5319   5.741   5.765   2.641 -1.8285  0.6407  1.0253
 1785TIP3    H2 5320   5.771   5.778   2.789  1.6770  0.4890  0.4065
 1786TIP3   OH2 5321   3.234   0.395   3.784 -0.2010  0.4604 -0.0794
 1786TIP3    H1 5322   3.328   0.402   3.767  0.2198 -1.0789  1.3285
 1786TIP3    H2 5323   3.215   0.466   3.845  0.2272  0.3362  0.2066
 1787TIP3   OH2 5324   6.551   3.965   3.023 -0.0087  0.2558  0.0120
 1787TIP3    H1 5325   6.540   4.020   3.100  1.0730 -1.2601  1.3146
 1787TIP3    H2 5326   6.491   4.002   2.958 -0.6227  1.8389  1.4155
 1788TIP3   OH2 5327   2.814   2.950   5.400 -0.8889  0.2136 -0.5127
 1788TIP3    H1 5328   2.778   2.944   5.489  0.7468  0.0647  0.1762
 1788TIP3    H2 5329   2.805   3.043   5.377 -0.4636  0.4374  0.1979
 1789TIP3   OH2 5330   2.519   4.303   3.000  0.0333  0.0911  0.5720
 1789TIP3    H1 5331   2.571   4.329   2.923 -0.3715  0.9257  0.5733
 1789TIP3    H2 5332   2.433   4.342   2.986  0.2307  1.0969  1.9013
 1790TIP3   OH2 5333   3.679   3.301   4.618 -0.2688  0.0971  0.0754
 1790TIP3    H1 5334   3.589   3.299   4.585 -0.4006 -0.5965  0.4642
 1790TIP3    H2 5335   3.676   3.357   4.695 -0.3502  0.1389  0.0414
 1791TIP3   OH2 5336   0.323   3.642   3.065 -0.0233  0.2539  0.3744
 1791TIP3    H1 5337   0.293   3.713   3.008  0.2883  1.2699  1.4370
 1791TIP3    H2 5338   0.258   3.573   3.053  0.7568 -0.1597 -2.2451
 1792TIP3   OH2 5339   2.869   5.062   2.845  0.0467 -0.2935  0.1830
 1792TIP3    H1 5340   2.801   5.120   2.880  0.0218 -0.4554  0.4086
 1792TIP3    H2 5341   2.891   5.005   2.919 -1.0370 -1.6033 -0.4536
 1793TIP3   OH2 5342   4.020   4.951   3.258 -0.5457 -0.0793 -0.0308
 1793TIP3    H1 5343   3.958   5.024   3.261 -0.2579  0.1259  1.2393
 1793TIP3    H2 5344   4.103   4.992   3.231 -0.2839  0.1504  1.0873
 1794TIP3   OH2 5345   5.721   3.234   0.888  0.8553 -0.0310  0.5668
 1794TIP3    H1 5346   5.717   3.142   0.864 -1.2381  0.3624 -0.9574
 1794TIP3    H2 5347   5.679   3.239   0.974 -1.2455 -0.2843 -0.3780
 1795TIP3   OH2 5348   6.848   5.785   1.321  0.0944 -0.1588  0.6886
 1795TIP3    H1 5349   6.906   5.738   1.261  0.2340  0.1789  0.5536
 1795TIP3    H2 5350   6.841   5.728   1.398  0.1951 -0.4346  0.4935
 1796TIP3   OH2 5351   1.948   1.393   0.432  0.5436 -0.4117  0.0441
 1796TIP3    H1 5352   1.882   1.391   0.501  1.5267 -1.6408  0.9904
 1796TIP3    H2 5353   1.933   1.314   0.380 -0.0713  0.4081 -1.0766
 1797TIP3   OH2 5354   6.340   1.311   2.429  0.1329  0.2507  0.7010
 1797TIP3    H1 5355   6.423   1.286   2.469 -0.3244  0.5882  1.9046
 1797TIP3    H2 5356   6.277   1.247   2.461 -0.0949  0.0398 -0.1434
 1798TIP3   OH2 5357   6.236   6.063   2.521 -0.3794 -0.0184 -0.5246
 1798TIP3    H1 5358   6.291   5.996   2.481 -0.6835 -2.4076  2.6600
 1798TIP3    H2 5359   6.153   6.020   2.538  0.1952  0.1359  3.8598
 1799TIP3   OH2 5360   0.254   2.959   4.314  0.6438  0.3694 -0.2225
 1799TIP3    H1 5361   0.260   2.928   4.405  1.2582  0.2417 -0.3076
 1799TIP3    H2 5362   0.168   2.929   4.285  0.8331 -0.4161  0.0079
 1800TIP3   OH2 5363   1.385   0.422   5.232 -0.1189 -0.0979 -0.3594
 1800TIP3    H1 5364   1.383   0.450   5.141  0.0341  2.3517  0.3129
 1800TIP3    H2 5365   1.303   0.373   5.244  0.2024 -1.0574 -1.9553
 1801TIP3   OH2 5366   4.791   1.151   5.065  0.8174  0.1225  0.1853
 1801TIP3    H1 5367   4.793   1.058   5.086 -1.4213 -0.2157 -0.7766
 1801TIP3    H2 5368   4.734   1.157   4.989  1.5236  2.2228 -0.2397
 1802TIP3   OH2 5369   0.579   3.682   3.216  0.3931 -0.6542 -0.0693
 1802TIP3    H1 5370   0.484   3.671   3.211  0.0191  2.2864 -1.5406
 1802TIP3    H2 5371   0.593   3.732   3.296  0.2898  1.3723 -1.2289
 1803TIP3   OH2 5372   4.322   6.388   3.464  0.8567 -0.2474  0.1734
 1803TIP3    H1 5373   4.234   6.410   3.493  1.0891 -0.1299  0.8105
 1803TIP3    H2 5374   4.316   6.297   3.436  0.4593 -0.1374 -0.1047
 1804TIP3   OH2 5375   6.986   0.629   0.173 -0.6387  0.0099  0.3642
 1804TIP3    H1 5376   6.944   0.574   0.238 -1.2247  0.6263  0.5182
 1804TIP3    H2 5377   6.980   0.718   0.209 -0.3872  0.2725 -0.2271
 1805TIP3   OH2 5378   0.190   3.302   0.692 -0.1827  0.3928  0.1344
 1805TIP3    H1 5379   0.209   3.394   0.712  0.3085  0.2673  0.2553
 1805TIP3    H2 5380   0.232   3.286   0.608 -2.9307  1.1455 -1.5115
 1806TIP3   OH2 5381   0.297   0.298   4.531 -0.4463 -0.5449 -0.3086
 1806TIP3    H1 5382   0.215   0.271   4.573  0.0084 -0.8651  0.4078
 1806TIP3    H2 5383   0.324   0.376   4.580 -0.9732  0.3417 -1.3843
 1807TIP3   OH2 5384   4.669   3.071   5.105  0.7653  0.0018 -0.8025
 1807TIP3    H1 5385   4.605   3.121   5.055  0.0541 -0.9345 -0.8502
 1807TIP3    H2 5386   4.663   3.107   5.194  0.0488 -0.1856 -0.7659
 1808TIP3   OH2 5387   5.996   2.794   0.240  0.2982 -0.2722  0.3842
 1808TIP3    H1 5388   6.056   2.790   0.314 -1.1540  0.5036  1.6586
 1808TIP3    H2 5389   5.912   2.767   0.275 -0.9202  2.1621 -0.3837
 1809TIP3   OH2 5390   5.205   3.631   2.985  0.0483  0.5482  0.2471
 1809TIP3    H1 5391   5.111   3.627   2.971 -0.1236  0.5835  1.3124
 1809TIP3    H2 5392   5.239   3.680   2.910 -0.6806 -0.1338 -0.5470
 1810TIP3   OH2 5393   3.511   2.585   1.501  0.0625  0.3969  0.6440
 1810TIP3    H1 5394   3.437   2.628   1.456 -0.5639  0.5377  1.7772
 1810TIP3    H2 5395   3.513   2.497   1.464 -1.1535  0.1520  1.1001
 1811TIP3   OH2 5396   0.303   6.747   4.504  0.2877  0.4560 -0.0275
 1811TIP3    H1 5397   0.274   6.826   4.550  0.5448  0.5929 -0.0993
 1811TIP3    H2 5398   0.225   6.692   4.501  0.6366 -0.2300  1.9466
 1812TIP3   OH2 5399   4.907   5.359   4.117  0.3190 -0.2699 -0.2629
 1812TIP3    H1 5400   4.824   5.335   4.076  0.6649 -1.9126 -0.0553
 1812TIP3    H2 5401   4.884   5.377   4.208  0.2654 -1.2215 -0.0862
 1813TIP3   OH2 5402   6.680   1.050   1.887 -0.2574  0.2295  0.0340
 1813TIP3    H1 5403   6.757   0.994   1.892 -0.5549 -0.2396 -0.5085
 1813TIP3    H2 5404   6.642   1.047   1.975 -0.1270 -0.2207  0.0773
 1814TIP3   OH2 5405   5.606   3.900   1.780  0.2128 -0.4510 -0.3536
 1814TIP3    H1 5406   5.692   3.931   1.810  0.0192  0.7052 -0.9434
 1814TIP3    H2 5407   5.626   3.838   1.710  0.5841  1.3991 -1.9810
 1815TIP3   OH2 5408   3.964   1.862   1.693 -0.1478 -0.1954 -0.3226
 1815TIP3    H1 5409   4.048   1.818   1.677 -0.9259 -1.5015 -1.0004
 1815TIP3    H2 5410   3.906   1.792   1.721 -1.8265  0.0639 -2.8518
 1816TIP3   OH2 5411   6.409   6.710   1.873 -0.4391 -0.3019 -0.0935
 1816TIP3    H1 5412   6.473   6.639   1.874 -1.1685 -1.0130 -1.4350
 1816TIP3    H2 5413   6.324   6.666   1.865 -1.2890  0.5408  3.1682
 1817TIP3   OH2 5414   0.540   1.552   1.815 -0.1143  0.6455  0.3617
 1817TIP3    H1 5415   0.556   1.525   1.725 -0.0672  0.0956  0.5333
 1817TIP3    H2 5416   0.517   1.472   1.861  1.6868  0.5766  1.2567
 1818TIP3   OH2 5417   6.637   0.895   4.462 -0.4996  0.5229 -0.4869
 1818TIP3    H1 5418   6.635   0.945   4.543 -0.0100 -0.4357  0.1254
 1818TIP3    H2 5419   6.612   0.806   4.487  0.4021  0.0341 -1.2436
 1819TIP3   OH2 5420   4.495   5.383   3.178 -0.2098 -0.2526  0.2326
 1819TIP3    H1 5421   4.531   5.314   3.122 -1.5936 -0.4569 -0.4655
 1819TIP3    H2 5422   4.444   5.336   3.244 -0.3835  0.0742  0.3341
 1820TIP3   OH2 5423   5.888   0.829   0.775  0.7093 -0.1397 -0.5286
 1820TIP3    H1 5424   5.886   0.733   0.767  0.1458 -0.2001  0.1780
 1820TIP3    H2 5425   5.948   0.858   0.706  0.0180 -0.9192 -1.4911
 1821TIP3   OH2 5426   5.635   3.797   0.327  0.3444  0.4166  0.1363
 1821TIP3    H1 5427   5.651   3.891   0.326 -0.0402  0.4837 -1.0357
 1821TIP3    H2 5428   5.634   3.774   0.420 -0.3086  1.6877  0.4629
 1822TIP3   OH2 5429   0.042   0.496   5.222  0.7339  0.7467  0.1245
 1822TIP3    H1 5430   0.009   0.583   5.243 -1.7159 -0.0668  0.0498
 1822TIP3    H2 5431   0.082   0.465   5.303  1.2555  1.7656  0.2717
 1823TIP3   OH2 5432   5.163   6.164   3.863 -0.1798  0.5259 -0.7721
 1823TIP3    H1 5433   5.257   6.184   3.863 -0.1202  0.2802 -1.5093
 1823TIP3    H2 5434   5.131   6.201   3.945  0.7443 -0.2958 -0.0210
 1824TIP3   OH2 5435   3.428   3.378   1.954 -0.5083 -0.7147 -0.0497
 1824TIP3    H1 5436   3.370   3.329   1.896 -1.8676  0.5006  0.2170
 1824TIP3    H2 5437   3.374   3.452   1.984  0.0775 -1.3749  2.8797
 1825TIP3   OH2 5438   5.808   4.464   1.396 -0.0046 -0.0576 -0.2209
 1825TIP3    H1 5439   5.772   4.379   1.423  0.1942 -0.2617 -0.5824
 1825TIP3    H2 5440   5.831   4.451   1.304 -2.4722  1.1941 -1.0828
 1826TIP3   OH2 5441   2.130   2.426   0.751  0.4228  0.1487 -0.0903
 1826TIP3    H1 5442   2.106   2.493   0.815 -0.6459 -0.6124  0.3345
 1826TIP3    H2 5443   2.087   2.346   0.781 -0.6699 -0.0931 -2.0933
 1827TIP3   OH2 5444   4.866   5.594   4.617  0.2108  0.2069 -0.0466
 1827TIP3    H1 5445   4.865   5.662   4.684 -0.2659  0.5466 -0.4011
 1827TIP3    H2 5446   4.792   5.614   4.561  1.7925  1.1319 -1.8995
 1828TIP3   OH2 5447   3.131   5.614   4.834  0.6165 -0.0049 -0.0711
 1828TIP3    H1 5448   3.103   5.705   4.823  0.0969 -0.0930  0.4385
 1828TIP3    H2 5449   3.211   5.607   4.782  1.3909  1.0829  0.9097
 1829TIP3   OH2 5450   6.135   6.528   2.334  0.6198  0.3451  0.0233
 1829TIP3    H1 5451   6.209   6.588   2.333  1.0048 -0.1096 -1.5524
 1829TIP3    H2 5452   6.167   6.452   2.383  0.1457  1.3438  1.9750
 1830TIP3   OH2 5453   2.047   0.455   1.260 -0.1803 -0.1105  0.5083
 1830TIP3    H1 5454   2.034   0.548   1.240 -0.5131 -0.4419 -0.9392
 1830TIP3    H2 5455   2.071   0.416   1.176 -2.1033 -1.7059  0.6311
 1831TIP3   OH2 5456   3.536   6.108   3.583  0.2140  0.3474  0.3263
 1831TIP3    H1 5457   3.572   6.113   3.671  1.3890 -0.0401 -0.1158
 1831TIP3    H2 5458   3.545   6.016   3.559 -0.5366  0.3555 -0.0316
 1832TIP3   OH2 5459   3.188   4.406   4.627  0.3860  0.0526 -0.2742
 1832TIP3    H1 5460   3.206   4.463   4.702 -0.1058  1.5039 -1.2150
 1832TIP3    H2 5461   3.164   4.467   4.557  0.2496 -1.3117 -1.4355
 1833TIP3   OH2 5462   4.224   2.105   0.171  0.1652 -0.1702  0.5330
 1833TIP3    H1 5463   4.253   2.052   0.097  0.5608 -0.5583  0.9607
 1833TIP3    H2 5464   4.151   2.055   0.208  1.1912 -0.9791  1.5662
 1834TIP3   OH2 5465   5.603   6.168   5.603  0.4434 -0.2975 -0.0509
 1834TIP3    H1 5466   5.636   6.252   5.633 -1.6803  0.6815 -0.3279
 1834TIP3    H2 5467   5.596   6.177   5.508 -0.4477 -0.5382 -0.0145
 1835TIP3   OH2 5468   0.518   5.308   2.580 -0.0095  0.1685  0.3270
 1835TIP3    H1 5469   0.533   5.395   2.543 -2.0220 -0.0901 -1.2214
 1835TIP3    H2 5470   0.423   5.298   2.581  0.1812 -2.2485 -0.1190
 1836TIP3   OH2 5471   4.860   5.371   3.735 -0.0175  0.4876  0.3169
 1836TIP3    H1 5472   4.926   5.415   3.788  0.2328  1.4134 -0.7191
 1836TIP3    H2 5473   4.878   5.400   3.645 -1.9799  0.9781  0.0321
 1837TIP3   OH2 5474   6.795   5.841   0.186  0.0775 -0.0089 -0.0070
 1837TIP3    H1 5475   6.806   5.886   0.102 -2.0876  1.3259  0.3412
 1837TIP3    H2 5476   6.700   5.830   0.195  0.3610 -1.6392  1.5234
 1838TIP3   OH2 5477   0.367   0.586   5.610 -0.1718  0.1374  0.5500
 1838TIP3    H1 5478   0.373   0.621   5.521  0.2434 -0.3521  0.3787
 1838TIP3    H2 5479   0.449   0.538   5.622 -0.8932 -1.1430  0.6055
 1839TIP3   OH2 5480   3.301   3.437   4.797 -0.3203 -0.4266 -0.6277
 1839TIP3    H1 5481   3.225   3.406   4.846 -0.7167  0.6024 -0.5679
 1839TIP3    H2 5482   3.294   3.532   4.799  2.6895 -0.1059  2.1209
 1840TIP3   OH2 5483   0.355   3.280   0.456  0.6807 -0.0387 -0.7313
 1840TIP3    H1 5484   0.415   3.353   0.438 -0.7459  0.9637 -1.7132
 1840TIP3    H2 5485   0.366   3.221   0.382  0.4050  0.2008 -0.9683
 1841TIP3   OH2 5486   1.840   4.683   1.884  0.1025 -0.0060 -0.1296
 1841TIP3    H1 5487   1.771   4.700   1.820 -0.3529 -1.7133 -0.1429
 1841TIP3    H2 5488   1.809   4.725   1.964  0.2618  1.3806 -0.7607
 1842TIP3   OH2 5489   0.385   0.813   3.122  0.2333 -0.0809  0.1605
 1842TIP3    H1 5490   0.407   0.724   3.096  0.3379 -0.3642  1.1866
 1842TIP3    H2 5491   0.420   0.868   3.052  1.5072 -0.7421  0.2557
 1843TIP3   OH2 5492   6.041   4.603   5.045  0.1894  0.3422 -0.2536
 1843TIP3    H1 5493   5.970   4.555   5.002 -0.6696  1.2537  0.1225
 1843TIP3    H2 5494   6.072   4.544   5.114  0.1369 -0.2572 -0.7366
 1844TIP3   OH2 5495   1.238   2.428   1.009 -0.3075 -0.2416 -0.3715
 1844TIP3    H1 5496   1.222   2.475   1.091  3.1235  0.8283 -0.1260
 1844TIP3    H2 5497   1.213   2.490   0.941  1.8828  1.1449 -0.0309
 1845TIP3   OH2 5498   5.302   2.852   2.239 -0.6412  0.4036  0.0119
 1845TIP3    H1 5499   5.269   2.776   2.190  0.0204  0.1536 -0.0621
 1845TIP3    H2 5500   5.388   2.870   2.200 -0.3245  0.5159  0.7428
 1846TIP3   OH2 5501   3.884   4.403   5.026 -0.3266 -0.0910  0.0897
 1846TIP3    H1 5502   3.867   4.473   5.089 -0.7203  0.2665 -0.4059
 1846TIP3    H2 5503   3.975   4.416   4.999  0.5922 -1.5660  2.2014
 1847TIP3   OH2 5504   2.762   3.645   4.225  0.8273 -0.2128 -0.4241
 1847TIP3    H1 5505   2.719   3.560   4.216  0.3594 -0.0900  0.5381
 1847TIP3    H2 5506   2.748   3.669   4.316 -2.8759  2.9420 -1.5780
 1848TIP3   OH2 5507   3.488   3.094   3.476 -0.4193 -0.1012  0.0078
 1848TIP3    H1 5508   3.523   3.155   3.411  0.0470  0.6293  0.9124
 1848TIP3    H2 5509   3.563   3.040   3.501 -0.3608  0.2505  0.6151
 1849TIP3   OH2 5510   3.684   0.528   5.213  0.7701 -0.1623  0.2685
 1849TIP3    H1 5511   3.640   0.512   5.129  0.1134 -0.8624  0.7345
 1849TIP3    H2 5512   3.680   0.623   5.224  1.8383  0.0627 -1.0028
 1850TIP3   OH2 5513   5.124   3.262   4.898  0.6551 -0.2942 -0.0005
 1850TIP3    H1 5514   5.079   3.286   4.817  2.2158 -0.3485 -0.9399
 1850TIP3    H2 5515   5.163   3.176   4.879  3.4607  0.9173 -0.3301
 1851TIP3   OH2 5516   6.760   3.517   0.069  0.0616 -0.1293 -0.2227
 1851TIP3    H1 5517   6.804   3.547   0.149  0.4523 -1.5397  0.1113
 1851TIP3    H2 5518   6.803   3.434   0.047 -1.8908 -1.1591 -0.3278
 1852TIP3   OH2 5519   3.767   2.543   0.546 -0.1384  0.1956  0.1867
 1852TIP3    H1 5520   3.747   2.531   0.454 -0.6835 -1.6546  0.5018
 1852TIP3    H2 5521   3.860   2.522   0.554 -0.1258  0.2166  0.0908
 1853TIP3   OH2 5522   2.193   3.519   2.269  0.0592 -0.2279  0.0304
 1853TIP3    H1 5523   2.269   3.537   2.213 -0.1789 -0.0428 -0.2342
 1853TIP3    H2 5524   2.118   3.524   2.210 -0.2700  0.7475  0.5180
 1854TIP3   OH2 5525   0.123   1.935   5.247  0.5030 -0.3108 -0.6162
 1854TIP3    H1 5526   0.053   1.910   5.307 -0.8786  0.8948 -1.6333
 1854TIP3    H2 5527   0.153   1.853   5.209 -0.6120 -0.8420 -0.3905
 1855TIP3   OH2 5528   1.999   5.791   2.444 -0.5112  0.5409 -0.0207
 1855TIP3    H1 5529   2.028   5.879   2.470 -0.0239  0.8194 -1.4097
 1855TIP3    H2 5530   1.906   5.800   2.426 -0.6664  0.5402  0.7287
 1856TIP3   OH2 5531   4.843   3.269   4.347 -0.4419  0.2422  0.4319
 1856TIP3    H1 5532   4.889   3.349   4.321  0.8627 -0.6578 -0.1597
 1856TIP3    H2 5533   4.886   3.243   4.429  0.9105 -1.1818 -0.6697
 1857TIP3   OH2 5534   5.246   0.392   4.412  0.2557 -0.0550  0.0336
 1857TIP3    H1 5535   5.172   0.425   4.361 -0.6134 -0.6860  0.8599
 1857TIP3    H2 5536   5.261   0.460   4.477 -0.5707 -0.5800  0.7950
 1858TIP3   OH2 5537   3.443   6.090   3.950  0.2186  0.2069 -0.1577
 1858TIP3    H1 5538   3.419   6.145   3.876 -0.0041  2.4449  1.4824
 1858TIP3    H2 5539   3.537   6.075   3.939  0.4989  1.7773 -0.1437
 1859TIP3   OH2 5540   3.098   6.334   5.200 -0.3495  0.3176  0.6658
 1859TIP3    H1 5541   3.145   6.272   5.145 -0.3758  1.0974 -0.2592
 1859TIP3    H2 5542   3.024   6.363   5.147 -0.1255  1.4171  0.9254
 1860TIP3   OH2 5543   1.894   0.954   5.702  0.6905 -0.1115 -0.4565
 1860TIP3    H1 5544   1.848   0.888   5.754  2.4042  0.7920  2.4596
 1860TIP3    H2 5545   1.824   1.002   5.657 -0.8787 -1.2668  0.6319
 1861TIP3   OH2 5546   2.206   0.081   3.569  0.1951  0.5258  0.8954
 1861TIP3    H1 5547   2.282   0.129   3.600 -0.1367  0.8578  1.2085
 1861TIP3    H2 5548   2.132   0.140   3.586 -0.2259 -0.1258  1.3525
 1862TIP3   OH2 5549   2.519   3.086   4.539  0.2460  0.3737 -0.4615
 1862TIP3    H1 5550   2.515   2.991   4.530  1.8943  0.1600  0.6840
 1862TIP3    H2 5551   2.448   3.107   4.600  1.1292 -0.3806  0.8676
 1863TIP3   OH2 5552   6.049   3.678   1.753 -0.1550  0.3429  0.1467
 1863TIP3    H1 5553   6.140   3.694   1.727 -0.3738  0.9451 -0.2842
 1863TIP3    H2 5554   6.054   3.650   1.844  0.3885  1.3302  0.4264
 1864TIP3   OH2 5555   0.524   2.218   1.960  0.2150 -0.5456  0.7440
 1864TIP3    H1 5556   0.479   2.175   2.033  0.3591  0.1805  1.2661
 1864TIP3    H2 5557   0.453   2.254   1.907  0.0965 -1.3261  0.3524
 1865TIP3   OH2 5558   3.305   5.004   5.075 -0.2535  0.2565 -0.4107
 1865TIP3    H1 5559   3.360   5.082   5.066  2.0818 -1.2526 -0.2005
 1865TIP3    H2 5560   3.298   4.991   5.170  2.3241 -1.5863 -0.3450
 1866TIP3   OH2 5561   2.740   3.571   2.703 -0.3802  0.7622 -0.5523
 1866TIP3    H1 5562   2.834   3.588   2.698  0.0373 -1.2683 -0.5257
 1866TIP3    H2 5563   2.716   3.594   2.792  0.5838 -0.7414  0.1423
 1867TIP3   OH2 5564   5.454   3.908   0.820 -0.4269 -0.0531  0.6954
 1867TIP3    H1 5565   5.514   3.951   0.759 -1.0059 -0.2072  0.0026
 1867TIP3    H2 5566   5.432   3.825   0.778 -2.2402  0.6129  0.2453
 1868TIP3   OH2 5567   4.351   5.247   4.144 -0.3076  0.3351 -0.0036
 1868TIP3    H1 5568   4.407   5.302   4.199  1.0323 -1.4552  0.5007
 1868TIP3    H2 5569   4.397   5.164   4.138 -1.7081 -0.3849 -1.7015
 1869TIP3   OH2 5570   6.489   4.133   1.952 -0.2270 -0.0956 -0.0940
 1869TIP3    H1 5571   6.398   4.161   1.939 -0.7201 -0.6571  1.7414
 1869TIP3    H2 5572   6.487   4.085   2.035  1.7203 -0.3064 -0.1241
 1870TIP3   OH2 5573   5.979   2.572   2.900  0.1060 -0.0360  0.2829
 1870TIP3    H1 5574   5.905   2.532   2.946 -0.6360  0.5979 -0.3249
 1870TIP3    H2 5575   6.050   2.509   2.910 -0.8825 -1.2923 -0.2236
 1871TIP3   OH2 5576   4.331   6.841   4.441 -0.3881  1.0510  0.0871
 1871TIP3    H1 5577   4.401   6.811   4.499 -0.5080  1.4807  0.4583
 1871TIP3    H2 5578   4.296   6.760   4.403 -0.3148  0.7610  0.6239
 1872TIP3   OH2 5579   3.027   1.429   0.785  0.0375 -0.2889 -0.0442
 1872TIP3    H1 5580   2.958   1.437   0.719  2.6149  0.7153 -2.8277
 1872TIP3    H2 5581   3.013   1.342   0.823 -1.5912 -0.9301 -1.9147
 1873TIP3   OH2 5582   5.674   2.322   3.930 -0.5024  0.3250  0.6131
 1873TIP3    H1 5583   5.620   2.399   3.911 -0.7064  0.1280  0.3906
 1873TIP3    H2 5584   5.662   2.266   3.853 -0.4187  0.0355  0.8139
 1874TIP3   OH2 5585   3.291   4.167   5.029 -0.1225 -0.0522  0.1566
 1874TIP3    H1 5586   3.290   4.256   5.064 -0.4783  0.1410 -0.3358
 1874TIP3    H2 5587   3.282   4.178   4.935  2.8049 -0.4697 -0.2492
 1875TIP3   OH2 5588   1.435   0.943   2.952 -0.4255 -0.1072 -0.3716
 1875TIP3    H1 5589   1.515   0.928   3.003 -1.4235 -1.9602  0.7999
 1875TIP3    H2 5590   1.459   0.919   2.862  0.6980  0.7666 -0.3238
 1876TIP3   OH2 5591   5.387   2.941   5.390 -0.2682  0.0741 -0.2359
 1876TIP3    H1 5592   5.311   2.976   5.437 -0.3229 -0.8740  0.3890
 1876TIP3    H2 5593   5.442   3.018   5.375 -0.4399  0.4705  1.0101
 1877TIP3   OH2 5594   6.063   2.988   3.893  0.7657 -0.3244 -0.0858
 1877TIP3    H1 5595   6.154   3.016   3.895  0.3644  1.0265 -0.2622
 1877TIP3    H2 5596   6.034   3.005   3.803  0.1846 -0.2308  0.1140
 1878TIP3   OH2 5597   2.698   6.429   5.500  0.4321 -0.3584 -0.3873
 1878TIP3    H1 5598   2.661   6.478   5.427  1.4308  1.2677  0.1558
 1878TIP3    H2 5599   2.760   6.369   5.460  0.5197  0.0838 -0.9270
 1879TIP3   OH2 5600   4.046   5.689   3.636  0.2117  0.7879 -0.5719
 1879TIP3    H1 5601   4.079   5.668   3.723 -1.0013 -0.5767 -0.4018
 1879TIP3    H2 5602   4.076   5.779   3.620  1.1113  0.7858  0.9126
 1880TIP3   OH2 5603   2.091   1.075   1.801  0.3413  0.6498  0.2772
 1880TIP3    H1 5604   2.121   1.003   1.745 -2.4229  0.1209 -0.6845
 1880TIP3    H2 5605   2.169   1.127   1.816  1.5779 -0.0866 -2.7808
 1881TIP3   OH2 5606   1.921   6.597   5.851 -0.3465  0.2020 -0.3231
 1881TIP3    H1 5607   1.880   6.673   5.809 -0.6602  0.1860 -0.0496
 1881TIP3    H2 5608   2.014   6.621   5.857 -0.5826  0.9641  0.5831
 1882TIP3   OH2 5609   3.387   2.209   3.744  0.2755  0.4797  0.4649
 1882TIP3    H1 5610   3.468   2.159   3.751 -0.3876 -1.2115 -2.4684
 1882TIP3    H2 5611   3.411   2.288   3.695  0.0683 -0.3297 -0.9693
 1883TIP3   OH2 5612   5.721   4.570   0.883  0.2775 -0.0389 -0.0597
 1883TIP3    H1 5613   5.716   4.488   0.834  2.8646 -1.7500  2.1849
 1883TIP3    H2 5614   5.712   4.544   0.975  3.4762  1.7347  0.9240
 1884TIP3   OH2 5615   4.860   3.660   5.666  0.3401  0.5902  0.3635
 1884TIP3    H1 5616   4.788   3.614   5.710  0.8794 -0.5463  0.0940
 1884TIP3    H2 5617   4.935   3.649   5.723  0.4889  1.1192  0.2752
 1885TIP3   OH2 5618   1.427   0.544   0.353 -0.3143 -0.0012 -0.2666
 1885TIP3    H1 5619   1.421   0.528   0.258 -2.2132  4.5444 -1.1727
 1885TIP3    H2 5620   1.342   0.519   0.387 -0.7226  1.2038 -0.3728
 1886TIP3   OH2 5621   6.689   5.897   1.976  0.3884  1.0104  0.5211
 1886TIP3    H1 5622   6.689   5.806   1.946  0.8038  1.6877 -1.6768
 1886TIP3    H2 5623   6.597   5.923   1.973  0.1045  0.3356  2.3434
 1887TIP3   OH2 5624   3.792   4.697   1.591 -0.2793 -0.3122 -0.1851
 1887TIP3    H1 5625   3.734   4.670   1.520 -1.0191 -0.7166  0.5565
 1887TIP3    H2 5626   3.871   4.644   1.580 -0.3547 -0.3115 -0.7497
 1888TIP3   OH2 5627   0.186   4.504   4.398 -0.3290 -0.0178 -0.2317
 1888TIP3    H1 5628   0.205   4.538   4.311 -0.7840 -1.3225 -0.8685
 1888TIP3    H2 5629   0.092   4.521   4.410 -0.3707 -0.2714 -0.1954
 1889TIP3   OH2 5630   6.882   4.428   3.713 -0.5095 -0.1811 -0.1310
 1889TIP3    H1 5631   6.889   4.408   3.807 -1.7903  1.0097  0.2646
 1889TIP3    H2 5632   6.873   4.342   3.671 -1.8429 -0.6798  1.0631
 1890TIP3   OH2 5633   5.782   0.127   4.050 -0.8354  0.0430  0.8988
 1890TIP3    H1 5634   5.844   0.127   4.122  0.6201 -0.4346 -0.3184
 1890TIP3    H2 5635   5.739   0.042   4.054  1.7311 -1.4752 -0.7893
 1891TIP3   OH2 5636   2.313   1.077   5.133 -0.4181  0.7800 -0.6845
 1891TIP3    H1 5637   2.226   1.064   5.096 -0.7658  3.8612 -1.1902
 1891TIP3    H2 5638   2.354   0.990   5.129 -2.7817 -0.3686 -2.1023
 1892TIP3   OH2 5639   0.641   2.667   3.129 -0.3019  0.3726 -0.1775
 1892TIP3    H1 5640   0.626   2.633   3.218  1.4939  1.3945  0.5715
 1892TIP3    H2 5641   0.719   2.722   3.138 -0.6765  1.3011 -2.2019
 1893TIP3   OH2 5642   5.922   4.895   0.529 -0.3300 -0.8513  0.5017
 1893TIP3    H1 5643   5.931   4.820   0.588 -2.9605  1.1881  3.8653
 1893TIP3    H2 5644   5.834   4.886   0.492 -1.3429  1.2578  2.2173
 1894TIP3   OH2 5645   0.914   3.210   2.858 -0.3947 -0.3588  0.7630
 1894TIP3    H1 5646   1.004   3.216   2.892 -0.3540 -0.7371  0.7245
 1894TIP3    H2 5647   0.878   3.131   2.899 -0.6105 -0.3755  0.5443
 1895TIP3   OH2 5648   3.873   2.374   5.528 -0.2829  0.3434 -0.2560
 1895TIP3    H1 5649   3.816   2.308   5.488  0.8689 -0.6739 -0.2609
 1895TIP3    H2 5650   3.946   2.384   5.467 -0.0795  1.1033  0.0922
 1896TIP3   OH2 5651   0.827   0.015   2.036 -0.5761  0.3954  0.2648
 1896TIP3    H1 5652   0.893   0.083   2.047 -1.0181  0.6022  1.9886
 1896TIP3    H2 5653   0.860  -0.058   2.088 -0.8159 -0.1837 -0.3831
 1897TIP3   OH2 5654   3.744   5.015   0.484 -0.2542 -0.3497 -0.1444
 1897TIP3    H1 5655   3.658   5.039   0.516 -0.6437 -2.3297  0.4680
 1897TIP3    H2 5656   3.726   4.966   0.403  0.0934 -2.3139  0.8975
 1898TIP3   OH2 5657   3.572   6.074   2.864  0.0963  0.3756  0.0876
 1898TIP3    H1 5658   3.647   6.099   2.810  0.6520  0.1954  0.7592
 1898TIP3    H2 5659   3.532   6.156   2.891  1.3661  0.5607  1.5297
 1899TIP3   OH2 5660   4.487   2.998   5.521 -0.1903  0.3492 -0.0941
 1899TIP3    H1 5661   4.474   3.059   5.449 -1.8922  1.4913  1.1248
 1899TIP3    H2 5662   4.563   3.033   5.568  0.9221 -0.3944 -1.2516
 1900TIP3   OH2 5663   4.612   3.688   1.671 -0.0627 -0.0266 -0.6699
 1900TIP3    H1 5664   4.588   3.726   1.756  2.1101  0.8078 -0.3731
 1900TIP3    H2 5665   4.688   3.633   1.690 -1.0408 -1.8547 -1.7075
 1901TIP3   OH2 5666   0.067   5.756   3.146  0.0974 -0.6332 -0.8485
 1901TIP3    H1 5667   0.011   5.809   3.089  0.5866 -0.6714 -1.3660
 1901TIP3    H2 5668   0.043   5.666   3.125 -1.1110 -0.6379  0.4043
 1902TIP3   OH2 5669   1.590   3.626   1.248 -0.8570  0.0143  0.3224
 1902TIP3    H1 5670   1.675   3.659   1.219  0.0184 -1.4257  1.1526
 1902TIP3    H2 5671   1.551   3.699   1.296  0.7013  0.1277  1.4930
 1903TIP3   OH2 5672   0.798   4.022   4.638 -0.7402 -0.2168  0.1492
 1903TIP3    H1 5673   0.799   3.978   4.724 -1.2357 -2.0736 -0.7316
 1903TIP3    H2 5674   0.866   4.089   4.644 -0.3569 -0.7102  1.7935
 1904TIP3   OH2 5675   0.795   0.321   5.168 -0.4639  0.2449  0.0487
 1904TIP3    H1 5676   0.859   0.287   5.106  1.0418  5.4007 -1.7649
 1904TIP3    H2 5677   0.842   0.329   5.251 -0.0169  0.3807 -0.2186
 1905TIP3   OH2 5678   2.244   4.033   1.835 -0.2324 -0.3661 -0.7703
 1905TIP3    H1 5679   2.153   4.063   1.836 -0.2381 -0.3877 -0.5544
 1905TIP3    H2 5680   2.294   4.109   1.867 -0.1551 -0.2909 -1.0681
 1906TIP3   OH2 5681   3.619   5.163   1.576  0.2877  0.6169 -0.3590
 1906TIP3    H1 5682   3.670   5.092   1.615  2.3539  0.1874 -3.5084
 1906TIP3    H2 5683   3.684   5.229   1.553 -1.0657  1.6945 -1.2464
 1907TIP3   OH2 5684   2.445   2.631   2.404  0.3111  0.0738  0.2832
 1907TIP3    H1 5685   2.528   2.613   2.360  0.7526  3.3115 -0.4678
 1907TIP3    H2 5686   2.379   2.625   2.335  0.1577 -0.7727  0.5006
 1908TIP3   OH2 5687   3.537   4.235   0.121  0.7675 -0.2368 -0.0476
 1908TIP3    H1 5688   3.444   4.239   0.096  0.7821 -2.4717 -0.6818
 1908TIP3    H2 5689   3.582   4.286   0.054  0.1471 -0.5473 -0.7241
 1909TIP3   OH2 5690   4.413   1.834   1.652  0.0776 -0.8011 -0.1926
 1909TIP3    H1 5691   4.423   1.769   1.582  1.0936 -0.8896  0.0114
 1909TIP3    H2 5692   4.461   1.910   1.620  2.1355 -1.4526  1.1292
 1910TIP3   OH2 5693   2.292   0.503   2.728 -0.5242 -0.0945 -0.4348
 1910TIP3    H1 5694   2.263   0.418   2.763 -0.5460  0.8315  1.9638
 1910TIP3    H2 5695   2.226   0.565   2.759 -0.2685  0.9088 -1.8002
 1911TIP3   OH2 5696   2.558   1.097   4.014 -0.0502 -0.3759  0.0430
 1911TIP3    H1 5697   2.644   1.136   4.005 -0.1004 -0.2223  0.2308
 1911TIP3    H2 5698   2.575   1.003   4.021  0.1657 -0.2780  0.9769
 1912TIP3   OH2 5699   0.245   4.306   0.592  0.3103  0.1127  0.3315
 1912TIP3    H1 5700   0.223   4.255   0.513 -1.9898  0.0330  0.9402
 1912TIP3    H2 5701   0.173   4.369   0.600  1.1282  0.9093  1.7112
 1913TIP3   OH2 5702   4.655   3.106   3.560  0.1533 -0.3384  0.0674
 1913TIP3    H1 5703   4.685   3.150   3.640 -2.2018 -0.3934  1.0579
 1913TIP3    H2 5704   4.708   3.027   3.555  1.2283  0.2971  0.8318
 1914TIP3   OH2 5705   6.170   5.177   5.191  0.2209 -0.0960  0.2085
 1914TIP3    H1 5706   6.181   5.101   5.134 -2.2375  0.4982 -1.2021
 1914TIP3    H2 5707   6.133   5.142   5.272  0.6101 -0.5735  0.1824
 1915TIP3   OH2 5708   5.988   0.126   1.396 -0.1965 -0.0832  0.2852
 1915TIP3    H1 5709   5.949   0.043   1.369 -1.9310  0.6642  0.3462
 1915TIP3    H2 5710   5.973   0.130   1.490  2.0324 -0.7446  0.7284
 1916TIP3   OH2 5711   6.450   5.334   3.797 -0.0502  0.2904  0.1647
 1916TIP3    H1 5712   6.428   5.250   3.838 -2.0657  0.8614  0.3652
 1916TIP3    H2 5713   6.382   5.394   3.827  0.5036  1.6397 -1.1458
 1917TIP3   OH2 5714   1.951   3.833   1.975  0.1458 -0.3228 -0.0668
 1917TIP3    H1 5715   1.912   3.816   2.060  0.6167 -0.3146  0.1511
 1917TIP3    H2 5716   1.927   3.923   1.954  0.1631 -0.2732  0.1292
 1918TIP3   OH2 5717   7.120   0.705   4.027 -0.3189 -0.3295 -0.5528
 1918TIP3    H1 5718   7.186   0.670   3.967  1.0270 -0.1380  0.7508
 1918TIP3    H2 5719   7.162   0.701   4.113 -1.6186  0.8234  0.1690
 1919TIP3   OH2 5720   6.871   3.683   3.377  0.7616 -0.0843 -0.0022
 1919TIP3    H1 5721   6.915   3.611   3.422  2.0145  0.9642  0.5167
 1919TIP3    H2 5722   6.936   3.716   3.315  0.0592  0.3335 -0.5253
 1920TIP3   OH2 5723   5.959   4.684   3.177  0.1891  0.4616 -0.0043
 1920TIP3    H1 5724   6.035   4.740   3.193  0.8420 -0.0903 -1.0371
 1920TIP3    H2 5725   5.975   4.607   3.232 -0.1113  0.7434  0.4939
 1921TIP3   OH2 5726   2.820   6.158   5.702 -0.1634 -0.3167 -0.2223
 1921TIP3    H1 5727   2.814   6.078   5.649 -0.8021  0.7308 -1.8356
 1921TIP3    H2 5728   2.737   6.204   5.684  0.8102  1.3890 -0.5342
 1922TIP3   OH2 5729   2.796   3.226   5.492 -0.8932 -0.8762 -0.0122
 1922TIP3    H1 5730   2.765   3.281   5.565 -1.4243 -3.7016  2.0538
 1922TIP3    H2 5731   2.876   3.186   5.525 -0.8528 -1.8330 -1.2004
 1923TIP3   OH2 5732   2.585   5.552   5.207 -0.6776 -0.0089 -0.2789
 1923TIP3    H1 5733   2.553   5.462   5.198  0.0288 -0.4378  1.2156
 1923TIP3    H2 5734   2.600   5.563   5.301  0.2034  1.3378 -0.5496
 1924TIP3   OH2 5735   0.476   1.856   4.955 -0.0128 -0.0688 -0.4804
 1924TIP3    H1 5736   0.555   1.896   4.918  0.5793 -0.5619  0.2083
 1924TIP3    H2 5737   0.493   1.762   4.951  0.3405 -0.1335  1.5587
 1925TIP3   OH2 5738   0.834   1.469   2.849  0.2835 -0.1083  0.4996
 1925TIP3    H1 5739   0.776   1.534   2.889 -0.0163 -0.4004  0.5488
 1925TIP3    H2 5740   0.843   1.401   2.916  1.3515  0.3206  0.8068
 1926TIP3   OH2 5741   1.754   2.179   5.279  0.3490  0.2861 -0.0305
 1926TIP3    H1 5742   1.724   2.224   5.358 -0.0116  0.3468 -0.2004
 1926TIP3    H2 5743   1.673   2.150   5.236  0.5466  0.2130 -0.3531
 1927TIP3   OH2 5744   5.164   1.310   0.592  0.3914  0.0669  0.2853
 1927TIP3    H1 5745   5.183   1.218   0.606 -0.3665 -0.0100  0.8628
 1927TIP3    H2 5746   5.232   1.340   0.531  0.7479 -0.8197  0.2395
 1928TIP3   OH2 5747   0.684   2.334   5.328 -0.1771 -0.5154  0.2763
 1928TIP3    H1 5748   0.643   2.358   5.411 -0.2791 -0.9258  0.3504
 1928TIP3    H2 5749   0.611   2.300   5.275 -0.2695  0.5448 -0.3033
 1929TIP3   OH2 5750   1.604   1.466   2.756 -0.0217  0.0411 -0.0554
 1929TIP3    H1 5751   1.662   1.406   2.803 -1.0416 -0.2266  0.9040
 1929TIP3    H2 5752   1.663   1.528   2.714  0.9722 -0.2740  0.8201
 1930TIP3   OH2 5753   2.025   2.454   3.392  0.3089 -0.0847 -0.3229
 1930TIP3    H1 5754   1.973   2.507   3.331  0.2578  1.0988  0.6955
 1930TIP3    H2 5755   1.961   2.400   3.438 -0.0550  1.2281  0.7895
 1931TIP3   OH2 5756   0.165   1.697   2.997 -0.1341  0.0393  0.0053
 1931TIP3    H1 5757   0.247   1.721   3.040 -0.7918 -1.3700  2.2073
 1931TIP3    H2 5758   0.104   1.765   3.024 -0.3745 -0.4728  0.7941
 1932TIP3   OH2 5759   2.738   5.700   1.580 -0.1814 -0.0148  0.0437
 1932TIP3    H1 5760   2.682   5.749   1.641 -0.6529 -0.2401 -0.2086
 1932TIP3    H2 5761   2.819   5.751   1.577 -0.4674  0.4591  0.2086
 1933TIP3   OH2 5762   7.055   5.843   0.354 -0.0111  0.0907 -0.5480
 1933TIP3    H1 5763   7.151   5.844   0.356 -0.0160  0.7250 -0.5529
 1933TIP3    H2 5764   7.033   5.783   0.283  0.3912  0.5412 -1.0590
 1934TIP3   OH2 5765   5.946   0.229   1.975  0.0855 -0.1629  0.3125
 1934TIP3    H1 5766   5.894   0.215   2.054 -2.0569 -1.5214 -1.2196
 1934TIP3    H2 5767   6.016   0.164   1.981 -1.3554 -1.8201  0.1291
 1935TIP3   OH2 5768   0.009   3.820   3.423 -0.0158 -0.9779  0.0085
 1935TIP3    H1 5769   0.039   3.877   3.494 -2.7391 -0.1796  0.6576
 1935TIP3    H2 5770   0.032   3.867   3.343 -0.9240  0.3786  0.5068
 1936TIP3   OH2 5771   6.893   3.465   1.713  0.3046 -0.2138  0.1284
 1936TIP3    H1 5772   6.961   3.501   1.656  1.0847 -1.0409  0.5061
 1936TIP3    H2 5773   6.938   3.444   1.794 -0.4282 -0.6706  0.4340
 1937TIP3   OH2 5774   3.922   0.593   1.783 -0.1887  0.1928 -0.4297
 1937TIP3    H1 5775   3.980   0.656   1.740  0.1225 -0.6678 -1.3024
 1937TIP3    H2 5776   3.924   0.516   1.727 -1.3737 -0.2350  0.0779
 1938TIP3   OH2 5777   6.086   0.402   4.228  0.4566 -0.0334 -0.2296
 1938TIP3    H1 5778   6.046   0.415   4.142 -0.2725  0.4115  0.1710
 1938TIP3    H2 5779   6.134   0.483   4.245 -1.4741  0.9264  0.8725
 1939TIP3   OH2 5780   2.463   6.354   5.338  0.2945  0.2310  0.2569
 1939TIP3    H1 5781   2.393   6.338   5.275 -0.1794 -1.8932  1.2405
 1939TIP3    H2 5782   2.529   6.286   5.319  1.3768  1.2231  0.3519
 1940TIP3   OH2 5783   6.590   3.284   2.307  0.2734  0.1641 -0.1419
 1940TIP3    H1 5784   6.548   3.213   2.356 -0.0325  0.5080  0.0978
 1940TIP3    H2 5785   6.680   3.284   2.338 -0.4046  1.8343  2.1521
 1941TIP3   OH2 5786   3.715   3.775   3.381 -0.8471 -0.5695  0.3972
 1941TIP3    H1 5787   3.792   3.731   3.417 -0.9426 -1.7375 -0.7591
 1941TIP3    H2 5788   3.751   3.839   3.319 -0.7105  1.0517  2.0513
 1942TIP3   OH2 5789   3.981   2.659   1.071  0.6398 -0.6955  0.1162
 1942TIP3    H1 5790   4.028   2.708   1.003  0.0402  1.9839  1.5259
 1942TIP3    H2 5791   3.894   2.645   1.034  0.6013 -0.0708 -0.0396
 1943TIP3   OH2 5792   2.968   4.286   1.778 -0.0883 -0.5961 -0.3803
 1943TIP3    H1 5793   2.953   4.362   1.834  0.6700  0.5359 -1.6488
 1943TIP3    H2 5794   2.967   4.321   1.689  0.3674 -2.0687 -0.9980
 1944TIP3   OH2 5795   3.029   2.901   0.248  0.0777  0.3634 -0.1865
 1944TIP3    H1 5796   2.941   2.894   0.212 -0.2576  0.0902  0.6604
 1944TIP3    H2 5797   3.016   2.909   0.342  0.9567  0.3591 -0.0546
 1945TIP3   OH2 5798   1.687   2.492   0.767  0.2837  0.1900  0.1245
 1945TIP3    H1 5799   1.593   2.487   0.783  0.6294 -0.5314  2.1391
 1945TIP3    H2 5800   1.717   2.564   0.822  0.9079  0.5218 -0.6239
 1946TIP3   OH2 5801   5.638   4.059   4.890 -0.0677 -0.0123  0.2464
 1946TIP3    H1 5802   5.609   3.983   4.839  0.0859 -0.0106  0.1563
 1946TIP3    H2 5803   5.576   4.064   4.963 -1.6490  1.3176 -1.1080
 1947TIP3   OH2 5804   1.109   0.799   0.933  0.0469 -0.3528  0.0338
 1947TIP3    H1 5805   1.192   0.803   0.887 -0.2684  2.6518 -0.4837
 1947TIP3    H2 5806   1.107   0.878   0.986 -1.8178 -1.1645  1.3003
 1948TIP3   OH2 5807   1.431   6.568   3.839  0.7067  0.1462  0.1542
 1948TIP3    H1 5808   1.423   6.639   3.904  0.6552 -0.3427  0.6910
 1948TIP3    H2 5809   1.342   6.554   3.807  0.7595  0.5158 -0.1724
 1949TIP3   OH2 5810   6.183   4.609   3.634 -0.4429  0.2248 -0.3792
 1949TIP3    H1 5811   6.169   4.602   3.540 -0.4543 -0.7665 -0.3135
 1949TIP3    H2 5812   6.095   4.601   3.672 -0.5394  1.4136 -0.3068
 1950TIP3   OH2 5813   1.257   6.154   4.612 -0.2011 -0.2116 -0.3065
 1950TIP3    H1 5814   1.171   6.143   4.654  0.4689 -0.9875  0.9124
 1950TIP3    H2 5815   1.285   6.065   4.592  1.7475 -0.2908  2.3328
 1951TIP3   OH2 5816   4.348   4.480   3.298  0.6319 -0.4925  0.2735
 1951TIP3    H1 5817   4.272   4.456   3.246 -1.1035 -2.1769  3.3249
 1951TIP3    H2 5818   4.394   4.397   3.313  1.0956 -0.0602  1.3561
 1952TIP3   OH2 5819   2.626   6.154   5.291  0.0958  0.2555  0.2926
 1952TIP3    H1 5820   2.626   6.068   5.250  1.3271  0.4970 -0.2310
 1952TIP3    H2 5821   2.717   6.170   5.316 -0.1761  1.2471  0.7187
 1953TIP3   OH2 5822   4.399   1.132   5.752 -0.4920 -0.5246  0.6776
 1953TIP3    H1 5823   4.338   1.172   5.689 -0.4276 -0.2559  0.7877
 1953TIP3    H2 5824   4.386   1.037   5.740 -0.3385 -0.4772  0.1223
 1954TIP3   OH2 5825   3.871   4.607   5.184 -0.4070 -0.4307 -0.0255
 1954TIP3    H1 5826   3.943   4.609   5.248 -0.9415  0.6345  0.5778
 1954TIP3    H2 5827   3.823   4.688   5.201 -1.4860 -0.9095 -0.7345
 1955TIP3   OH2 5828   3.092   4.682   2.298 -0.1825 -0.3596  0.2614
 1955TIP3    H1 5829   3.044   4.759   2.266  0.5900 -0.1080 -0.3066
 1955TIP3    H2 5830   3.155   4.717   2.360  1.6233 -0.2183 -1.5382
 1956TIP3   OH2 5831   4.485   1.754   2.853  0.1479 -0.0410  0.1507
 1956TIP3    H1 5832   4.580   1.760   2.846  0.2547 -0.5483  1.0389
 1956TIP3    H2 5833   4.453   1.790   2.771  1.1597 -1.4272 -0.9119
 1957TIP3   OH2 5834   5.776   4.756   5.894  0.1997  0.3825  0.1840
 1957TIP3    H1 5835   5.862   4.727   5.863  0.4779  1.1684  0.1894
 1957TIP3    H2 5836   5.728   4.781   5.815 -0.7995 -1.9688 -0.0326
 1958TIP3   OH2 5837   4.105   0.654   3.782 -0.2349 -0.1164 -0.0244
 1958TIP3    H1 5838   4.060   0.648   3.866  1.4537 -1.1162  0.8753
 1958TIP3    H2 5839   4.142   0.742   3.781 -0.0176 -0.1959  0.4347
 1959TIP3   OH2 5840   1.623   1.641   2.433  0.6184  0.3251 -0.3562
 1959TIP3    H1 5841   1.578   1.569   2.390  1.5143  0.6707 -1.9649
 1959TIP3    H2 5842   1.699   1.601   2.475  0.7264  0.2156 -0.6520
 1960TIP3   OH2 5843   4.824   6.408   2.246  0.0699 -0.0855 -0.6647
 1960TIP3    H1 5844   4.747   6.374   2.291  1.0540  0.3626  1.4430
 1960TIP3    H2 5845   4.802   6.500   2.229 -0.4613 -0.3553 -1.5421
 1961TIP3   OH2 5846   4.460   1.051   3.304  0.0573  0.2001 -0.6467
 1961TIP3    H1 5847   4.406   1.089   3.236  0.7560  1.7147 -0.4009
 1961TIP3    H2 5848   4.486   0.965   3.270 -1.3200  0.0465 -1.3465
 1962TIP3   OH2 5849   0.783   5.450   3.849 -0.0350 -0.4834 -0.2059
 1962TIP3    H1 5850   0.818   5.475   3.764  0.0628 -0.8825 -0.2853
 1962TIP3    H2 5851   0.823   5.366   3.868 -0.3352 -0.5694  0.0696
 1963TIP3   OH2 5852   0.052   6.325   3.805 -0.6420 -0.0520 -0.3013
 1963TIP3    H1 5853  -0.039   6.332   3.836 -0.2817  0.9719  0.5637
 1963TIP3    H2 5854   0.105   6.353   3.879  0.3970 -0.6443 -0.8020
 1964TIP3   OH2 5855   2.018   3.733   5.429  0.4555  0.0379 -0.5751
 1964TIP3    H1 5856   1.956   3.665   5.400  0.7910 -0.3889 -0.3104
 1964TIP3    H2 5857   1.995   3.810   5.377 -0.9294  0.1797  0.1838
 1965TIP3   OH2 5858   6.237   4.945   4.920 -0.1351 -0.3351  0.3532
 1965TIP3    H1 5859   6.214   4.869   4.866  0.2510  0.1048 -0.4369
 1965TIP3    H2 5860   6.329   4.932   4.941 -0.1790 -0.2977  0.5645
 1966TIP3   OH2 5861   6.695   1.345   1.015  0.0440  0.0347 -0.2945
 1966TIP3    H1 5862   6.636   1.376   0.947 -0.6974  0.2922  0.4466
 1966TIP3    H2 5863   6.640   1.293   1.073  0.4795  0.5100  0.5663
 1967TIP3   OH2 5864   1.474   1.436   4.917  0.1688 -0.0327 -0.6916
 1967TIP3    H1 5865   1.426   1.436   5.000 -0.3254 -2.7328 -0.8869
 1967TIP3    H2 5866   1.566   1.443   4.943  0.1039 -1.8646  0.2537
 1968TIP3   OH2 5867   0.186   2.107   4.029 -0.0575 -0.2943  0.1681
 1968TIP3    H1 5868   0.250   2.174   4.050 -0.3685 -0.2382  0.9595
 1968TIP3    H2 5869   0.119   2.153   3.978  0.4239 -0.3128 -0.4873
 1969TIP3   OH2 5870   1.560   6.343   3.956 -0.1707  0.2039  0.7294
 1969TIP3    H1 5871   1.513   6.418   3.922 -1.0680 -0.4746  0.4290
 1969TIP3    H2 5872   1.645   6.345   3.911 -0.5312  0.5252  0.0548
 1970TIP3   OH2 5873   5.462   2.970   5.662 -0.4239  0.0186 -0.0327
 1970TIP3    H1 5874   5.454   2.922   5.579 -1.4628 -0.7969  0.5088
 1970TIP3    H2 5875   5.554   2.994   5.667  0.0015 -1.3633 -0.6569
 1971TIP3   OH2 5876   3.159   3.818   4.752 -0.2867 -0.0067  0.1338
 1971TIP3    H1 5877   3.215   3.859   4.686  0.6926  0.7132  1.3630
 1971TIP3    H2 5878   3.072   3.857   4.738 -0.0974  0.0987 -0.7563
 1972TIP3   OH2 5879   2.448   2.564   5.740 -0.1692 -0.2992 -0.8375
 1972TIP3    H1 5880   2.529   2.591   5.784 -0.1510 -0.8651 -0.5158
 1972TIP3    H2 5881   2.425   2.481   5.782 -1.9424  0.7482  0.3692
 1973TIP3   OH2 5882   4.952   0.985   2.455 -0.1597 -0.5003 -0.2765
 1973TIP3    H1 5883   5.046   0.972   2.440 -0.2270 -2.0109  0.4742
 1973TIP3    H2 5884   4.947   1.024   2.542 -0.1277  2.4267 -1.4351
 1974TIP3   OH2 5885   0.684   0.150   3.858 -0.3000  0.1666  0.2420
 1974TIP3    H1 5886   0.609   0.134   3.800 -0.0824  0.4960 -0.1294
 1974TIP3    H2 5887   0.662   0.231   3.905 -0.7783 -0.4457  1.1242
 1975TIP3   OH2 5888   1.532   1.230   0.222 -0.6580  0.3800 -0.1940
 1975TIP3    H1 5889   1.515   1.148   0.268 -0.4679  0.0763 -0.6642
 1975TIP3    H2 5890   1.478   1.294   0.268  1.5126  0.6443  2.1421
 1976TIP3   OH2 5891   3.003   4.217   2.997 -0.4815 -0.3381 -0.4345
 1976TIP3    H1 5892   3.031   4.284   3.058 -2.1317 -0.1776  0.1967
 1976TIP3    H2 5893   2.953   4.265   2.930 -0.3403 -0.7450 -0.8354
 1977TIP3   OH2 5894   5.033   3.126   1.097  0.1063  0.1540  0.1356
 1977TIP3    H1 5895   4.975   3.190   1.056 -0.5840 -0.8050 -0.4406
 1977TIP3    H2 5896   5.121   3.153   1.071 -0.1667  0.9271 -0.0035
 1978TIP3   OH2 5897   5.118   5.543   4.944 -0.2643  0.5247 -0.4168
 1978TIP3    H1 5898   5.152   5.558   4.855  3.3300  2.3812  1.0731
 1978TIP3    H2 5899   5.159   5.611   4.997 -1.2273 -1.3054  2.9589
 1979TIP3   OH2 5900   3.489   2.509   5.354 -0.4798 -0.1642  0.0169
 1979TIP3    H1 5901   3.448   2.502   5.268 -0.9995 -1.0804  0.3301
 1979TIP3    H2 5902   3.423   2.477   5.415  0.9098 -2.4343  0.4691
 1980TIP3   OH2 5903   0.004   2.687   0.477  0.0072 -0.0716 -0.1674
 1980TIP3    H1 5904   0.003   2.601   0.518 -1.3193  0.3774  0.8224
 1980TIP3    H2 5905   0.037   2.671   0.388 -0.1467 -1.5798  0.0199
 1981TIP3   OH2 5906   0.090   3.601   1.352 -0.2085 -0.6172  0.2569
 1981TIP3    H1 5907   0.121   3.554   1.275 -0.4592  1.3442 -1.1087
 1981TIP3    H2 5908   0.164   3.596   1.413  0.5209 -1.0627 -0.6260
 1982TIP3   OH2 5909   5.026   5.652   5.304 -1.0925  0.2273  0.0161
 1982TIP3    H1 5910   5.102   5.709   5.318 -0.5885 -0.6314  0.8376
 1982TIP3    H2 5911   5.063   5.565   5.292 -1.9952 -0.4458  1.7480
 1983TIP3   OH2 5912   6.958   4.367   1.583  0.2767 -0.3167 -0.7371
 1983TIP3    H1 5913   6.899   4.442   1.572  1.0724  0.2173 -1.4799
 1983TIP3    H2 5914   6.959   4.325   1.498 -1.5242 -2.2496  0.1115
 1984TIP3   OH2 5915   2.735   2.803   0.571  0.0455  0.0386  0.1466
 1984TIP3    H1 5916   2.681   2.747   0.517  0.3536 -1.5285  1.3955
 1984TIP3    H2 5917   2.793   2.743   0.618  1.6465  1.5348  0.1857
 1985TIP3   OH2 5918   2.588   6.635   3.720 -0.3712  0.1724  0.0777
 1985TIP3    H1 5919   2.548   6.616   3.805  1.6420  2.0282  1.5708
 1985TIP3    H2 5920   2.675   6.597   3.725 -0.8333 -1.3428 -1.9917
 1986TIP3   OH2 5921   4.553   3.104   1.326 -0.3993  0.0442 -0.0768
 1986TIP3    H1 5922   4.502   3.167   1.275 -0.9274  1.2034  1.7965
 1986TIP3    H2 5923   4.627   3.081   1.269 -0.9437  1.2820 -1.3337
 1987TIP3   OH2 5924   4.401   2.553   0.073  0.2264 -0.1377 -0.1987
 1987TIP3    H1 5925   4.387   2.545   0.167 -0.1062  0.5216 -0.1881
 1987TIP3    H2 5926   4.487   2.594   0.065  0.4568 -0.6139 -0.1944
 1988TIP3   OH2 5927   4.848   4.201   0.244  0.0330 -0.5983  0.4578
 1988TIP3    H1 5928   4.844   4.242   0.158 -0.9476  0.6000  1.0413
 1988TIP3    H2 5929   4.827   4.272   0.305  0.6500 -1.4368  1.6869
 1989TIP3   OH2 5930   1.158   0.794   1.730  0.5504 -0.2082  0.1973
 1989TIP3    H1 5931   1.231   0.793   1.669  0.6364  1.7260  0.2156
 1989TIP3    H2 5932   1.187   0.847   1.803 -0.6518  0.1056  0.4808
 1990TIP3   OH2 5933   6.812   1.669   2.379  0.0825  1.2487  0.6515
 1990TIP3    H1 5934   6.764   1.653   2.298 -0.9530  1.3259  1.2383
 1990TIP3    H2 5935   6.855   1.754   2.364 -1.1753  1.9203  0.6499
 1991TIP3   OH2 5936   4.233   4.514   5.605 -0.2040 -0.6178 -0.3502
 1991TIP3    H1 5937   4.142   4.503   5.632 -1.3482  4.1077 -1.4963
 1991TIP3    H2 5938   4.281   4.520   5.688 -0.8309 -3.0149  0.2694
 1992TIP3   OH2 5939   2.595   3.926   0.564 -0.2695  0.2220  0.3032
 1992TIP3    H1 5940   2.572   3.850   0.511 -2.1087  0.7231  0.3402
 1992TIP3    H2 5941   2.552   3.999   0.520  3.0966  1.6942 -0.9596
 1993TIP3   OH2 5942   2.852   6.272   2.427  0.0391  0.8493  0.1173
 1993TIP3    H1 5943   2.865   6.183   2.462 -0.0813  0.2865 -1.1839
 1993TIP3    H2 5944   2.941   6.305   2.414  0.2703 -0.5567 -2.8409
 1994TIP3   OH2 5945   2.093   6.266   2.525 -0.4147 -0.5066 -0.1155
 1994TIP3    H1 5946   2.018   6.303   2.573 -0.8924 -1.7355  0.1437
 1994TIP3    H2 5947   2.120   6.335   2.465 -0.7383  0.5431  0.9057
 1995TIP3   OH2 5948   1.439   2.631   3.297  0.6305 -0.4973 -0.2152
 1995TIP3    H1 5949   1.360   2.679   3.271  2.1858  0.5349 -3.5145
 1995TIP3    H2 5950   1.414   2.539   3.290 -1.2295 -0.3289  2.3711
 1996TIP3   OH2 5951   2.413   1.234   0.085 -0.3075 -0.0099  0.5041
 1996TIP3    H1 5952   2.483   1.169   0.087  3.4850  3.6676  2.5885
 1996TIP3    H2 5953   2.351   1.206   0.152  0.6324 -1.9459  0.6055
 1997TIP3   OH2 5954   6.312   3.399   4.739  0.5288  0.4229  0.1776
 1997TIP3    H1 5955   6.245   3.391   4.672  1.0313 -4.2728 -0.1148
 1997TIP3    H2 5956   6.263   3.416   4.820 -1.0622 -1.9587 -0.1718
 1998TIP3   OH2 5957   6.764   2.345   2.588 -0.1207 -0.3571  0.3043
 1998TIP3    H1 5958   6.723   2.309   2.667 -0.3655  0.4577  0.5635
 1998TIP3    H2 5959   6.789   2.434   2.612  0.3898 -0.3179 -0.3416
 1999TIP3   OH2 5960   4.285   4.481   4.103  0.5095  0.1528  0.2376
 1999TIP3    H1 5961   4.288   4.571   4.133  1.6773 -0.2954  1.5739
 1999TIP3    H2 5962   4.261   4.430   4.180  0.4161 -0.7411 -0.3531
 2000TIP3   OH2 5963   4.904   0.578   1.970 -0.5203  0.4250  0.0998
 2000TIP3    H1 5964   4.842   0.545   1.905  1.4840 -1.6845 -0.9052
 2000TIP3    H2 5965   4.939   0.499   2.011  0.7473  1.5851  1.3562
 2001TIP3   OH2 5966   6.687   4.260   4.727  0.4736 -0.9877  0.0151
 2001TIP3    H1 5967   6.633   4.181   4.729  2.0783 -2.1653 -0.5720
 2001TIP3    H2 5968   6.763   4.235   4.675  1.8763  0.3781  1.3040
 2002TIP3   OH2 5969   6.053   6.514   0.140 -0.0242 -0.0206  0.1809
 2002TIP3    H1 5970   6.021   6.425   0.125 -0.1126  0.0670 -0.1613
 2002TIP3    H2 5971   6.002   6.568   0.080 -0.3800  0.3438  0.8102
 2003TIP3   OH2 5972   4.967   0.673   1.421  0.8400 -0.4004 -0.2172
 2003TIP3    H1 5973   5.040   0.683   1.483 -0.8793  0.5331  1.7747
 2003TIP3    H2 5974   4.928   0.760   1.416  0.5036 -0.6064 -2.1730
 2004TIP3   OH2 5975   5.481   5.174   2.010  0.4433 -0.0048 -0.4768
 2004TIP3    H1 5976   5.551   5.222   1.968 -0.8125  0.1836 -2.4754
 2004TIP3    H2 5977   5.401   5.217   1.980 -0.5872  0.4881  2.5577
 2005TIP3   OH2 5978   1.694   2.094   2.468 -0.3133  0.6662 -0.0211
 2005TIP3    H1 5979   1.683   2.161   2.400 -2.2593 -1.2108 -1.7179
 2005TIP3    H2 5980   1.632   2.118   2.536 -3.3904 -0.8809 -2.0272
 2006TIP3   OH2 5981   6.240   0.951   1.077  0.3197  0.3727 -0.0713
 2006TIP3    H1 5982   6.311   0.996   1.032  0.3112  1.2202  0.7419
 2006TIP3    H2 5983   6.282   0.912   1.154  0.2947 -0.8952 -0.6693
 2007TIP3   OH2 5984   6.225   2.665   0.091 -0.8384 -0.5614 -0.3247
 2007TIP3    H1 5985   6.210   2.700   0.003  2.1061  1.7164 -0.0516
 2007TIP3    H2 5986   6.170   2.720   0.148  2.0069  2.4270 -0.1707
 2008TIP3   OH2 5987   1.573   0.536   4.525 -0.2790 -0.1386 -1.0362
 2008TIP3    H1 5988   1.593   0.442   4.525  0.4265  0.0022  0.1124
 2008TIP3    H2 5989   1.479   0.540   4.510 -0.3097 -1.0270 -1.1422
 2009TIP3   OH2 5990   2.896   3.899   1.855  0.9280 -0.0340  0.0330
 2009TIP3    H1 5991   2.925   3.837   1.789  1.6949 -1.0547  1.2669
 2009TIP3    H2 5992   2.919   3.857   1.938  0.0073  1.2010  0.9426
 2010TIP3   OH2 5993   6.539   6.646   1.505  0.8260  0.8478 -0.1291
 2010TIP3    H1 5994   6.632   6.662   1.523  1.2888 -0.7722 -0.8774
 2010TIP3    H2 5995   6.522   6.559   1.541 -0.1994  0.8045 -0.6884
 2011TIP3   OH2 5996   6.044   6.159   4.261  0.0106  0.2852  1.2015
 2011TIP3    H1 5997   6.001   6.142   4.345 -0.0295  0.2135  1.1658
 2011TIP3    H2 5998   6.076   6.249   4.269 -0.3962  0.4372  1.1204
 2012TIP3   OH2 5999   7.144   1.885   5.448  0.1203  1.1742 -0.0744
 2012TIP3    H1 6000   7.191   1.824   5.506  0.0121  0.9964 -0.1740
 2012TIP3    H2 6001   7.162   1.972   5.486 -2.3230  0.8989  1.9817
 2013TIP3   OH2 6002   1.588   4.961   2.700 -0.4847  0.3125 -0.4403
 2013TIP3    H1 6003   1.646   4.974   2.776  0.6091  1.9358 -1.4941
 2013TIP3    H2 6004   1.600   4.869   2.677  0.9631  0.3638 -0.0318
 2014TIP3   OH2 6005   6.442   1.403   3.617 -0.3304  0.3272  0.6044
 2014TIP3    H1 6006   6.451   1.481   3.563  1.2521 -1.9747 -2.8188
 2014TIP3    H2 6007   6.348   1.396   3.634 -0.7737  1.7836 -0.9796
 2015TIP3   OH2 6008   4.000   1.644   3.936 -0.5373 -0.2920 -0.0170
 2015TIP3    H1 6009   3.949   1.667   3.859 -1.0105 -0.1551  0.3280
 2015TIP3    H2 6010   4.089   1.673   3.916 -1.2080  2.6812  0.6774
 2016TIP3   OH2 6011   0.989   3.952   4.866 -0.3055  0.1437 -0.1695
 2016TIP3    H1 6012   0.984   3.900   4.786 -0.3093 -1.4309  0.8163
 2016TIP3    H2 6013   1.009   3.889   4.935  0.9715  1.6312  0.9049
 2017TIP3   OH2 6014   3.625   1.332   2.115 -0.1567  0.4053 -0.0324
 2017TIP3    H1 6015   3.688   1.394   2.079  1.1176 -1.2653 -0.8232
 2017TIP3    H2 6016   3.670   1.294   2.191  0.3110 -1.5857 -1.2297
 2018TIP3   OH2 6017   5.832   0.794   5.574 -0.0776  0.5850 -0.9306
 2018TIP3    H1 6018   5.837   0.776   5.481 -1.9986  0.7789 -1.1179
 2018TIP3    H2 6019   5.880   0.723   5.616 -0.4067 -0.2921 -2.0100
 2019TIP3   OH2 6020   0.538   4.410   2.260  0.6753 -0.4820  0.1221
 2019TIP3    H1 6021   0.500   4.399   2.347 -0.0783 -0.7100 -0.2223
 2019TIP3    H2 6022   0.629   4.435   2.276  0.3714  0.1377  0.9818
 2020TIP3   OH2 6023   0.021   0.791   4.356  0.2377 -0.3267  0.0249
 2020TIP3    H1 6024   0.037   0.852   4.428 -1.9192 -0.3771  0.5999
 2020TIP3    H2 6025   0.014   0.706   4.399 -0.5318 -0.4321 -0.3033
 2021TIP3   OH2 6026   1.984   4.162   5.773  0.4429 -0.5175 -0.6498
 2021TIP3    H1 6027   2.064   4.187   5.727 -0.0541  0.4698 -1.0057
 2021TIP3    H2 6028   1.997   4.192   5.863  0.2346  0.1968 -0.8519
 2022TIP3   OH2 6029   1.838   4.049   0.306 -0.1191  0.0658  0.0764
 2022TIP3    H1 6030   1.795   3.995   0.373  0.2897  0.0994  0.3733
 2022TIP3    H2 6031   1.927   4.062   0.340  0.4569 -0.8631 -1.0060
 2023TIP3   OH2 6032   4.425   0.803   0.645 -0.2945 -0.2171  0.0321
 2023TIP3    H1 6033   4.371   0.852   0.707  0.1283  0.5391 -0.1826
 2023TIP3    H2 6034   4.448   0.722   0.692  1.1286  0.9276  1.4087
 2024TIP3   OH2 6035   3.887   3.255   2.711  0.3828 -0.3870  0.3130
 2024TIP3    H1 6036   3.972   3.256   2.666 -0.0818 -0.1374 -0.5896
 2024TIP3    H2 6037   3.836   3.324   2.667 -0.9561 -1.8421 -0.5069
 2025TIP3   OH2 6038   5.171   5.828   3.535 -0.4622  0.0765  0.1915
 2025TIP3    H1 6039   5.126   5.748   3.510 -0.3061  0.2004 -0.5064
 2025TIP3    H2 6040   5.259   5.819   3.497 -0.0381  0.0411  1.1415
 2026TIP3   OH2 6041   3.267   1.961   1.230 -0.3009  0.0819  0.6612
 2026TIP3    H1 6042   3.197   2.015   1.265 -0.7899 -1.2798  1.8934
 2026TIP3    H2 6043   3.236   1.932   1.145 -1.8114 -1.4725  1.6850
 2027TIP3   OH2 6044   5.971   5.658   4.298  0.2850 -0.2879  0.2509
 2027TIP3    H1 6045   5.921   5.703   4.230 -0.8768 -3.9896 -1.6058
 2027TIP3    H2 6046   6.059   5.648   4.261  1.2903  2.3317  1.6764
 2028TIP3   OH2 6047   4.564   4.531   0.175 -0.2423  0.9419  0.4226
 2028TIP3    H1 6048   4.554   4.543   0.080  0.8236  0.7140  0.2685
 2028TIP3    H2 6049   4.547   4.437   0.189  1.2487  0.6041  0.1929
 2029TIP3   OH2 6050   1.033   3.599   5.285  0.7413  0.6105 -0.1429
 2029TIP3    H1 6051   1.064   3.632   5.369  0.8986 -1.7270  0.7880
 2029TIP3    H2 6052   1.088   3.523   5.267  0.0544  0.4733 -1.8945
 2030TIP3   OH2 6053   1.402   1.276   1.713 -0.3451  0.1060  0.3235
 2030TIP3    H1 6054   1.338   1.233   1.769  0.7879 -0.8615  0.9087
 2030TIP3    H2 6055   1.354   1.297   1.633 -2.4554  2.9654  2.1587
 2031TIP3   OH2 6056   1.137   1.032   1.097  0.1245  0.1932 -0.3980
 2031TIP3    H1 6057   1.219   1.054   1.141 -0.0681  0.6002 -0.2379
 2031TIP3    H2 6058   1.106   1.116   1.062 -0.8298  0.2602  0.5620
 2032TIP3   OH2 6059   3.615   0.938   2.685 -0.4529 -0.2025 -0.6451
 2032TIP3    H1 6060   3.544   0.877   2.704  0.3984 -1.0464 -0.0921
 2032TIP3    H2 6061   3.571   1.017   2.656 -1.6673 -0.3030  0.7968
 2033TIP3   OH2 6062   0.256   0.244   1.235  0.2680 -0.3571  0.1969
 2033TIP3    H1 6063   0.237   0.333   1.208  0.6649 -0.5771 -0.8552
 2033TIP3    H2 6064   0.268   0.196   1.153 -0.8349 -1.5773  0.7064
 2034TIP3   OH2 6065   6.533   6.435   2.414  0.2243 -0.8236  0.1486
 2034TIP3    H1 6066   6.449   6.391   2.426 -1.1471  1.0132 -1.8300
 2034TIP3    H2 6067   6.543   6.491   2.491 -1.9889  1.2235 -0.9187
 2035TIP3   OH2 6068   1.139   2.650   1.612  0.2157  0.4175 -0.0222
 2035TIP3    H1 6069   1.217   2.682   1.566 -0.6839  0.9366 -1.2479
 2035TIP3    H2 6070   1.114   2.571   1.564 -0.0287  0.2683  0.3509
 2036TIP3   OH2 6071   0.585   5.580   1.024 -0.0346 -0.2382  0.1345
 2036TIP3    H1 6072   0.504   5.530   1.022 -0.2258  0.0544 -1.5550
 2036TIP3    H2 6073   0.558   5.672   1.016  0.4069 -0.0500  0.7705
 2037TIP3   OH2 6074   5.594   1.919   1.180 -0.1409  0.4216  0.5761
 2037TIP3    H1 6075   5.683   1.954   1.167 -0.8363  1.6402 -1.2445
 2037TIP3    H2 6076   5.602   1.864   1.258  3.3972 -3.5313 -2.1020
 2038TIP3   OH2 6077   1.468   1.876   1.212 -0.2921 -0.1461  0.0528
 2038TIP3    H1 6078   1.481   1.782   1.202 -1.7654 -0.3425 -0.2935
 2038TIP3    H2 6079   1.476   1.911   1.124  1.7542  0.2987  0.3726
 2039TIP3   OH2 6080   6.327   2.609   5.649  0.3820 -0.2894  0.7307
 2039TIP3    H1 6081   6.272   2.544   5.604 -0.7185  1.3140 -0.3692
 2039TIP3    H2 6082   6.282   2.693   5.633  1.6295  0.7269  2.2744
 2040TIP3   OH2 6083   0.867   1.902   4.330 -0.0803  0.3280  0.0556
 2040TIP3    H1 6084   0.906   1.820   4.360 -1.7977 -1.2542 -1.7732
 2040TIP3    H2 6085   0.928   1.937   4.266  0.2840  0.0784  0.2643
 2041TIP3   OH2 6086   1.636   3.030   1.518 -0.1773 -0.0149  0.1278
 2041TIP3    H1 6087   1.684   2.994   1.592  1.1366  0.5126 -0.4475
 2041TIP3    H2 6088   1.571   2.963   1.497  0.5139 -0.8917  0.7190
 2042TIP3   OH2 6089   0.864   6.800  -0.002  0.1996  0.0106  0.2242
 2042TIP3    H1 6090   0.932   6.736   0.019 -1.1731 -1.0658  1.5320
 2042TIP3    H2 6091   0.795   6.785   0.062 -1.7475  0.3653 -1.6619
 2043TIP3   OH2 6092   2.315   6.683   2.254 -0.6751 -0.2963 -0.5564
 2043TIP3    H1 6093   2.251   6.742   2.296 -0.1875 -0.4797  0.4779
 2043TIP3    H2 6094   2.390   6.739   2.235 -0.1636 -0.5873  0.5372
 2044TIP3   OH2 6095   4.581   0.765   3.755 -0.2905  0.1623 -0.2080
 2044TIP3    H1 6096   4.576   0.670   3.766  0.2859  0.0845 -0.5410
 2044TIP3    H2 6097   4.508   0.800   3.806 -0.2465 -0.4360  0.2764
 2045TIP3   OH2 6098   0.036   4.793   1.548 -0.3084 -0.2343  0.1205
 2045TIP3    H1 6099   0.002   4.883   1.549  3.2075  1.3317 -2.0686
 2045TIP3    H2 6100   0.070   4.779   1.637 -1.9732  0.0566  0.8362
 2046TIP3   OH2 6101   3.329   6.353   1.965 -0.5415  0.0210  0.3143
 2046TIP3    H1 6102   3.250   6.302   1.983  0.3365 -1.4962  0.0462
 2046TIP3    H2 6103   3.353   6.391   2.049 -1.9952  1.1920  0.2344
 2047TIP3   OH2 6104   2.630   0.346   1.636 -0.2457  0.2900 -0.6498
 2047TIP3    H1 6105   2.698   0.302   1.688  1.0429  1.5068 -1.2232
 2047TIP3    H2 6106   2.548   0.307   1.666  0.7020 -1.3742 -0.0533
 2048TIP3   OH2 6107   4.013   3.789   4.179 -0.0362  0.3084 -0.4647
 2048TIP3    H1 6108   4.026   3.763   4.088 -2.0721 -1.7128 -0.2987
 2048TIP3    H2 6109   3.970   3.874   4.174  2.4017  1.5650 -1.2426
 2049TIP3   OH2 6110   0.053   2.415   0.868 -0.1858  0.6136 -0.7437
 2049TIP3    H1 6111   0.122   2.435   0.805  0.1143  0.5454 -0.4384
 2049TIP3    H2 6112   0.073   2.470   0.944 -0.7295  0.9381 -0.8233
 2050TIP3   OH2 6113   1.941   2.570   2.186  0.4459 -0.1888  0.0432
 2050TIP3    H1 6114   1.979   2.657   2.195 -0.2343 -0.0536  2.1865
 2050TIP3    H2 6115   2.015   2.514   2.163  1.0529  0.7954 -0.4656
 2051TIP3   OH2 6116   5.581   3.106   3.876 -0.2174  0.6927  0.4505
 2051TIP3    H1 6117   5.543   3.077   3.792 -0.0109  2.3747 -0.2517
 2051TIP3    H2 6118   5.603   3.024   3.921  0.2254 -0.2516 -1.3812
 2052TIP3   OH2 6119   6.632   5.329   1.948  0.4014  0.6184  0.2579
 2052TIP3    H1 6120   6.718   5.361   1.921  0.9308 -0.4170  0.6707
 2052TIP3    H2 6121   6.584   5.408   1.974  0.5258  1.4609 -1.7960
 2053TIP3   OH2 6122   5.786   2.198   5.885 -0.3093  0.1345 -0.1780
 2053TIP3    H1 6123   5.859   2.138   5.902 -1.5804 -1.2065  0.7404
 2053TIP3    H2 6124   5.793   2.218   5.791 -0.6342 -2.6085 -0.8716
 2054TIP3   OH2 6125   6.456   6.537   5.418  0.3457 -0.4162 -0.3302
 2054TIP3    H1 6126   6.361   6.532   5.405  0.4834 -1.0448 -1.1648
 2054TIP3    H2 6127   6.493   6.494   5.341  1.3748  1.9100 -1.2462
 2055TIP3   OH2 6128   3.425   6.099   5.625  1.1211 -0.4779 -0.2011
 2055TIP3    H1 6129   3.462   6.148   5.698  1.0916 -2.2545  1.0603
 2055TIP3    H2 6130   3.489   6.107   5.555  0.8022  1.8944 -0.3071
 2056TIP3   OH2 6131   1.355   5.336   5.455 -0.4615  0.4454 -0.2554
 2056TIP3    H1 6132   1.278   5.346   5.398  0.7070  1.2763 -1.7666
 2056TIP3    H2 6133   1.386   5.425   5.469  0.2221  0.1181  0.3496
 2057TIP3   OH2 6134   1.815   3.031   5.201 -0.2836 -0.6901  0.2911
 2057TIP3    H1 6135   1.804   3.120   5.236  1.1394  0.2458 -1.4365
 2057TIP3    H2 6136   1.810   3.043   5.106 -0.2564 -2.5055  0.0391
 2058TIP3   OH2 6137   0.113   4.789   4.480  0.9295  0.3371  0.0806
 2058TIP3    H1 6138   0.201   4.782   4.444  1.2722  3.3630  0.0269
 2058TIP3    H2 6139   0.118   4.863   4.541 -1.5379  0.5020  0.1938
 2059TIP3   OH2 6140   2.663   0.162   1.418 -0.2994 -0.2642 -0.3077
 2059TIP3    H1 6141   2.692   0.086   1.469  2.9917  1.2308  0.3721
 2059TIP3    H2 6142   2.634   0.225   1.484 -2.4900 -0.6780 -0.8254
 2060TIP3   OH2 6143   7.208   4.252   1.163 -0.1843 -0.0897  0.6581
 2060TIP3    H1 6144   7.137   4.190   1.172 -1.5696  1.4673  0.9284
 2060TIP3    H2 6145   7.230   4.276   1.253 -0.4538  0.6498  0.5354
 2061TIP3   OH2 6146   3.444   3.080   5.161  0.1245  0.4211 -0.2337
 2061TIP3    H1 6147   3.368   3.027   5.187 -0.2592  1.1334  0.1390
 2061TIP3    H2 6148   3.407   3.150   5.107  0.3195  1.4742  0.9240
 2062TIP3   OH2 6149   2.575   1.485   0.401 -0.1721  0.2479  0.9167
 2062TIP3    H1 6150   2.634   1.559   0.414 -1.5563  1.7113 -0.5397
 2062TIP3    H2 6151   2.488   1.521   0.415 -1.0701 -0.4159 -2.1320
 2063TIP3   OH2 6152   6.975   6.104   5.296  0.3184  0.1272  0.4412
 2063TIP3    H1 6153   7.053   6.160   5.289  0.8093 -0.6128 -0.0778
 2063TIP3    H2 6154   6.956   6.103   5.390  1.4582 -0.3741  0.6842
 2064TIP3   OH2 6155   0.706   3.608   3.508  0.1616  0.0471 -0.2404
 2064TIP3    H1 6156   0.643   3.585   3.440 -1.0188  0.4577  0.6781
 2064TIP3    H2 6157   0.707   3.533   3.566 -1.4087  1.0099  1.1067
 2065TIP3   OH2 6158   3.561   6.628   5.326 -0.2697 -0.3465  0.1280
 2065TIP3    H1 6159   3.508   6.676   5.390 -2.9291 -2.1239 -0.5420
 2065TIP3    H2 6160   3.542   6.671   5.242 -0.7689 -1.0192 -0.1201
 2066TIP3   OH2 6161   0.844   2.359   0.718 -0.2197  0.1168  0.1947
 2066TIP3    H1 6162   0.762   2.315   0.698  0.0485 -0.0221 -0.6149
 2066TIP3    H2 6163   0.912   2.305   0.677  0.2715  0.2902  0.7572
 2067TIP3   OH2 6164   4.259   4.147   5.762 -0.3932  0.5563 -0.1821
 2067TIP3    H1 6165   4.212   4.206   5.704 -0.8109  1.4328  0.9950
 2067TIP3    H2 6166   4.194   4.082   5.788 -0.3324  0.4410 -0.3132
 2068TIP3   OH2 6167   3.788   3.376   4.896  0.5586  0.0711  0.6311
 2068TIP3    H1 6168   3.734   3.408   4.968 -1.0134 -0.9009 -0.0601
 2068TIP3    H2 6169   3.805   3.454   4.843 -0.9415  0.2713  0.3993
 2069TIP3   OH2 6170   2.427   2.466   3.568 -0.1762 -0.4421 -0.4909
 2069TIP3    H1 6171   2.440   2.485   3.661 -0.1399  1.8682 -0.9122
 2069TIP3    H2 6172   2.408   2.551   3.528 -0.5489 -1.4227 -2.5541
 2070TIP3   OH2 6173   5.632   3.238   2.534  0.3026 -0.3306 -0.5720
 2070TIP3    H1 6174   5.554   3.188   2.510  0.0267 -0.5878  0.7782
 2070TIP3    H2 6175   5.690   3.173   2.575  0.1473  0.3169  0.7358
 2071TIP3   OH2 6176   2.318   1.411   2.482 -0.1914  0.0636  0.0953
 2071TIP3    H1 6177   2.265   1.369   2.414 -0.8785 -0.5911  1.0098
 2071TIP3    H2 6178   2.280   1.380   2.564  1.7760 -0.6104  0.8027
 2072TIP3   OH2 6179   5.588   6.148   3.428 -0.6296 -0.0914  0.5654
 2072TIP3    H1 6180   5.597   6.193   3.511 -0.4770  2.1240 -0.5924
 2072TIP3    H2 6181   5.497   6.162   3.402 -0.0972  1.2851 -0.7055
 2073TIP3   OH2 6182   0.140   3.742   2.702  0.3800 -0.4031  0.0032
 2073TIP3    H1 6183   0.211   3.795   2.665 -0.2143 -0.2306 -0.9566
 2073TIP3    H2 6184   0.177   3.655   2.712  1.1345 -0.0021  0.8357
 2074TIP3   OH2 6185   2.884   5.706   2.808 -0.5713 -0.0160  0.0281
 2074TIP3    H1 6186   2.979   5.695   2.801 -0.4919  1.2671 -1.5067
 2074TIP3    H2 6187   2.848   5.644   2.744 -0.8664 -1.2431  1.3232
 2075TIP3   OH2 6188   0.545   6.170   5.002 -0.9889  0.0292  0.3404
 2075TIP3    H1 6189   0.508   6.084   4.980 -1.9477  0.6744 -0.7143
 2075TIP3    H2 6190   0.592   6.196   4.923 -0.0784  0.1674  0.9177
 2076TIP3   OH2 6191   5.161   6.260   0.442 -0.4777  0.0846 -0.4005
 2076TIP3    H1 6192   5.153   6.356   0.438 -0.2036  0.0802 -1.2436
 2076TIP3    H2 6193   5.238   6.246   0.497  0.9853  0.4395 -2.2515
 2077TIP3   OH2 6194   6.837   2.267   3.094 -0.2352  0.0796 -0.1336
 2077TIP3    H1 6195   6.819   2.225   3.010 -1.5828 -0.1177  0.2404
 2077TIP3    H2 6196   6.827   2.196   3.158  1.2864  0.1054  0.1693
 2078TIP3   OH2 6197   3.862   4.945   4.316  0.4385 -0.2470  0.1679
 2078TIP3    H1 6198   3.867   5.017   4.379  0.8097  0.8736 -1.1107
 2078TIP3    H2 6199   3.800   4.975   4.250  1.8855 -0.3368 -1.2903
 2079TIP3   OH2 6200  -0.003   1.947   2.762 -0.2814 -0.1232 -0.6538
 2079TIP3    H1 6201   0.026   1.952   2.671  0.8099 -1.5513 -0.4162
 2079TIP3    H2 6202   0.046   2.016   2.807  1.2880 -1.1994 -0.6487
 2080TIP3   OH2 6203   4.387   3.804   5.381 -0.3658  0.4430 -0.2920
 2080TIP3    H1 6204   4.394   3.864   5.455 -0.9086  2.1499 -1.5383
 2080TIP3    H2 6205   4.319   3.742   5.406  0.0575  0.4719  0.9629
 2081TIP3   OH2 6206   0.371   1.656   3.186 -0.2768  0.0396 -0.1540
 2081TIP3    H1 6207   0.393   1.745   3.214 -0.7242 -0.2269  1.1044
 2081TIP3    H2 6208   0.293   1.633   3.238  0.6162 -1.5678  0.5461
 2082TIP3   OH2 6209   1.726   3.988   0.758  0.7739 -0.2303 -0.0254
 2082TIP3    H1 6210   1.794   3.959   0.698 -0.9272 -0.1588 -2.1110
 2082TIP3    H2 6211   1.758   4.071   0.794  1.7521 -0.1814 -0.9784
 2083TIP3   OH2 6212   6.476   3.762   0.266 -0.5603  0.1579 -0.7809
 2083TIP3    H1 6213   6.406   3.817   0.302 -0.0004  0.7207 -0.5462
 2083TIP3    H2 6214   6.478   3.686   0.324 -0.6862  0.3429 -0.5320
 2084TIP3   OH2 6215   3.787   0.161   2.801 -0.8142 -0.1063  0.1597
 2084TIP3    H1 6216   3.864   0.205   2.764 -0.2663  1.4747  2.8619
 2084TIP3    H2 6217   3.801   0.068   2.783  1.7344  0.1383  0.5125
 2085TIP3   OH2 6218   1.239   5.009   4.565  0.2919  0.1265  0.4444
 2085TIP3    H1 6219   1.287   5.019   4.647 -1.4322  1.3899  1.3551
 2085TIP3    H2 6220   1.282   5.069   4.505  0.0542  1.0306  1.1583
 2086TIP3   OH2 6221   5.383   2.673   3.050  0.2896 -0.4772  0.0429
 2086TIP3    H1 6222   5.313   2.628   3.001  0.1883 -0.8837  0.5539
 2086TIP3    H2 6223   5.353   2.764   3.055  0.0815 -0.5254 -0.2618
 2087TIP3   OH2 6224   2.315   3.769   0.448 -0.4879 -0.3381 -0.3825
 2087TIP3    H1 6225   2.285   3.817   0.525  0.7861  0.4725 -0.3665
 2087TIP3    H2 6226   2.317   3.834   0.378 -0.6310 -0.8337 -0.8602
 2088TIP3   OH2 6227   7.177   3.948   1.429 -0.8785  0.4835  0.3470
 2088TIP3    H1 6228   7.205   3.984   1.513  0.8448  0.1598 -0.0621
 2088TIP3    H2 6229   7.107   3.886   1.451 -0.6179  0.5855  1.4985
 2089TIP3   OH2 6230   1.998   6.565   2.088 -0.5147 -0.2775 -0.0666
 2089TIP3    H1 6231   1.989   6.657   2.061  1.3351  0.8197  2.6126
 2089TIP3    H2 6232   2.083   6.538   2.054 -0.7472 -0.7984 -0.2483
 2090TIP3   OH2 6233   0.467   4.308   2.014 -0.3063  0.0572  0.0832
 2090TIP3    H1 6234   0.470   4.394   1.973  2.1966  0.0936  0.2236
 2090TIP3    H2 6235   0.493   4.323   2.105 -0.4975 -0.7746  0.2922
 2091TIP3   OH2 6236   4.202   3.983   0.236 -0.4393  0.1549  0.6008
 2091TIP3    H1 6237   4.176   3.892   0.221 -0.9410  0.2359  0.9448
 2091TIP3    H2 6238   4.122   4.034   0.224 -0.1592  0.5554  0.3977
 2092TIP3   OH2 6239   0.101   6.403   3.308 -0.5626 -1.0803  0.5541
 2092TIP3    H1 6240   0.030   6.374   3.251 -0.5282 -0.3906  0.1481
 2092TIP3    H2 6241   0.071   6.381   3.396 -1.1480 -1.0745  0.3618
 2093TIP3   OH2 6242   5.760   5.847   0.166  0.2699 -0.6269  0.2912
 2093TIP3    H1 6243   5.792   5.889   0.086  0.0281 -0.9800  0.0011
 2093TIP3    H2 6244   5.839   5.825   0.216  0.3778  0.9376  0.8597
 2094TIP3   OH2 6245   0.136   2.226   2.749 -0.1829 -0.2244  0.0363
 2094TIP3    H1 6246   0.154   2.319   2.760 -2.7214  0.3803 -0.2722
 2094TIP3    H2 6247   0.193   2.182   2.812  0.4803  1.5957  0.7531
 2095TIP3   OH2 6248   0.126   0.964   3.107 -0.1197  0.3681  0.2108
 2095TIP3    H1 6249   0.192   0.899   3.082  1.4204  1.3257  1.6173
 2095TIP3    H2 6250   0.093   0.998   3.024  1.2981 -0.0025 -0.5360
 2096TIP3   OH2 6251   3.414   3.794   0.003 -0.0692  0.2141 -0.3653
 2096TIP3    H1 6252   3.416   3.860   0.073 -1.5309  0.3291 -0.3895
 2096TIP3    H2 6253   3.505   3.783  -0.023  0.6340 -0.5325  2.2018
 2097TIP3   OH2 6254   0.234   0.418   0.972  0.2654 -0.6039  0.1944
 2097TIP3    H1 6255   0.262   0.327   0.962 -1.1092 -0.9134 -1.1469
 2097TIP3    H2 6256   0.309   0.469   0.941 -0.0390 -1.3709 -1.9880
 2098TIP3   OH2 6257   2.006   4.580   5.556  0.2420 -0.4537  0.2121
 2098TIP3    H1 6258   2.059   4.501   5.563  0.4922 -0.6655 -2.7536
 2098TIP3    H2 6259   1.982   4.584   5.464 -2.7727  1.0476  0.9520
 2099TIP3   OH2 6260   2.223   6.755   1.214 -0.4859 -0.7644  0.2994
 2099TIP3    H1 6261   2.168   6.833   1.205 -0.5098 -0.3937  2.7837
 2099TIP3    H2 6262   2.306   6.779   1.174 -0.1371  0.9857  1.9656
 2100TIP3   OH2 6263   4.850   1.054   0.859 -0.5650 -0.1357 -0.2190
 2100TIP3    H1 6264   4.851   0.979   0.800  0.9618 -1.0252  0.8819
 2100TIP3    H2 6265   4.883   1.021   0.942 -0.3970  1.6260  0.4755
 2101TIP3   OH2 6266   6.255   6.822   3.449  0.1274 -0.7247 -0.7275
 2101TIP3    H1 6267   6.234   6.732   3.425  0.2813 -0.6724 -1.0555
 2101TIP3    H2 6268   6.172   6.858   3.481 -0.2660 -0.5503 -1.9205
 2102TIP3   OH2 6269   0.924   2.295   3.215 -0.0747 -0.0413 -0.2962
 2102TIP3    H1 6270   0.971   2.317   3.295  1.7067 -1.4641 -0.8806
 2102TIP3    H2 6271   0.873   2.217   3.238 -0.2455  0.0672 -0.3094
 2103TIP3   OH2 6272   2.484   0.620   3.636  0.6190  0.0002  0.6338
 2103TIP3    H1 6273   2.563   0.579   3.673  0.1359 -0.4907  1.1304
 2103TIP3    H2 6274   2.507   0.713   3.631  1.5267 -0.2373  0.0056
 2104TIP3   OH2 6275   7.199   4.851   3.210 -0.7942  0.1412 -0.3143
 2104TIP3    H1 6276   7.165   4.844   3.121  1.0004 -1.1248 -0.9617
 2104TIP3    H2 6277   7.171   4.771   3.253 -1.1799  0.4942  0.1041
 2105TIP3   OH2 6278   2.287   2.795   0.514  0.5186  0.1806 -0.2612
 2105TIP3    H1 6279   2.304   2.703   0.534  0.3843 -0.0238 -1.0568
 2105TIP3    H2 6280   2.252   2.831   0.596 -2.5511 -1.2587 -0.8169
 2106TIP3   OH2 6281   5.990   1.822   0.687 -0.0834 -0.6917  0.2712
 2106TIP3    H1 6282   6.005   1.829   0.782  1.8052  1.8567 -0.1335
 2106TIP3    H2 6283   5.910   1.871   0.672  1.2859  1.6837  0.2470
 2107TIP3   OH2 6284   2.741   2.523   4.741  0.1332 -0.0181 -0.3339
 2107TIP3    H1 6285   2.745   2.596   4.680  0.3050 -0.5553 -0.9653
 2107TIP3    H2 6286   2.827   2.522   4.784 -0.4044  1.1449  0.8592
 2108TIP3   OH2 6287   2.034   5.499   0.615 -0.0071 -0.2030  0.5836
 2108TIP3    H1 6288   2.041   5.584   0.571 -2.2687  0.2427  0.9448
 2108TIP3    H2 6289   2.037   5.520   0.708 -2.9101 -0.1214  0.7616
 2109TIP3   OH2 6290   4.500   6.094   0.646  0.0145 -0.1639 -0.4775
 2109TIP3    H1 6291   4.573   6.063   0.699 -0.1787  0.6469  0.2929
 2109TIP3    H2 6292   4.441   6.136   0.709 -1.9617 -2.2794 -0.8129
 2110TIP3   OH2 6293   6.633   4.929   0.911 -0.1207  0.2793  0.0584
 2110TIP3    H1 6294   6.637   4.885   0.996  1.3629 -0.4444 -0.3523
 2110TIP3    H2 6295   6.708   4.895   0.863 -0.4965  1.2535 -1.2751
 2111TIP3   OH2 6296   4.930   6.355   4.480 -0.2270 -0.2369 -0.3847
 2111TIP3    H1 6297   5.025   6.351   4.492 -0.0844  0.6498 -1.1411
 2111TIP3    H2 6298   4.902   6.264   4.487  0.2451 -0.2467  3.0353
 2112TIP3   OH2 6299   6.125   1.749   2.233  0.5115 -0.3579  0.2413
 2112TIP3    H1 6300   6.160   1.828   2.273  0.4390 -0.1046 -0.1889
 2112TIP3    H2 6301   6.164   1.677   2.282 -0.7524 -0.0519  1.7852
 2113TIP3   OH2 6302   3.997   5.420   4.539 -0.1531 -0.4806 -0.0876
 2113TIP3    H1 6303   4.092   5.416   4.539 -0.1161  0.1226  1.0513
 2113TIP3    H2 6304   3.973   5.433   4.631 -1.2796  0.4754 -0.4923
 2114TIP3   OH2 6305   2.460   3.075   3.832  0.0422 -0.4978  0.0966
 2114TIP3    H1 6306   2.451   3.143   3.765 -1.5608 -1.1529 -0.4134
 2114TIP3    H2 6307   2.552   3.080   3.859  0.3564  0.7857 -1.0695
 2115TIP3   OH2 6308   3.333   4.674   5.235  0.4288  0.2796 -1.1159
 2115TIP3    H1 6309   3.323   4.764   5.265  1.9361  0.6689 -1.7015
 2115TIP3    H2 6310   3.281   4.623   5.297  0.5102  1.4208 -0.0653
 2116TIP3   OH2 6311   6.324   3.231   3.488 -0.0525  0.1179 -0.1971
 2116TIP3    H1 6312   6.259   3.234   3.558 -1.6447 -1.2757 -1.5193
 2116TIP3    H2 6313   6.406   3.253   3.530 -1.5583  3.8253  1.2352
 2117TIP3   OH2 6314   2.485   0.923   1.789  0.1123 -0.0409 -0.5272
 2117TIP3    H1 6315   2.576   0.937   1.815  0.5955 -1.1162 -1.5202
 2117TIP3    H2 6316   2.491   0.858   1.719 -1.3480  0.6512 -1.3183
 2118TIP3   OH2 6317   6.683   0.328   1.961 -0.8182  0.7935 -0.2087
 2118TIP3    H1 6318   6.666   0.250   1.909  0.7244 -0.4043  0.9898
 2118TIP3    H2 6319   6.599   0.347   2.003 -0.6938 -1.7380  1.3964
 2119TIP3   OH2 6320   3.477   4.640   1.837 -0.3525 -0.3279 -0.5479
 2119TIP3    H1 6321   3.492   4.733   1.853  0.7533 -0.8221  1.7141
 2119TIP3    H2 6322   3.556   4.611   1.791  1.5212 -0.9384  2.6984
 2120TIP3   OH2 6323   0.245   5.454   5.782 -0.1592 -0.3516  0.4737
 2120TIP3    H1 6324   0.311   5.391   5.751  0.1671 -0.9905  2.3655
 2120TIP3    H2 6325   0.189   5.469   5.705  1.6548 -0.4405 -0.9417
 2121TIP3   OH2 6326   0.796   5.821   1.621  0.3553 -0.0675  0.2494
 2121TIP3    H1 6327   0.774   5.912   1.602  0.0625  0.0899  1.2794
 2121TIP3    H2 6328   0.891   5.820   1.629  0.4870 -0.1291 -1.0684
 2122TIP3   OH2 6329   5.325   3.674   1.030 -0.0686 -0.2030 -0.0443
 2122TIP3    H1 6330   5.320   3.756   1.079  0.6819  1.9326 -3.2335
 2122TIP3    H2 6331   5.418   3.651   1.032 -0.3167 -1.2147  1.0833
 2123TIP3   OH2 6332   0.624   2.454   4.148  0.1306  0.5072 -0.0726
 2123TIP3    H1 6333   0.627   2.472   4.242 -1.0884 -2.2664  0.6038
 2123TIP3    H2 6334   0.704   2.404   4.130 -0.0969  0.2145 -0.2901
 2124TIP3   OH2 6335   7.078   2.727   5.584 -0.6127 -0.2148  0.5270
 2124TIP3    H1 6336   7.048   2.672   5.511 -1.7340  0.6255  0.3247
 2124TIP3    H2 6337   7.076   2.670   5.660 -0.4933 -0.8058  0.0960
 2125TIP3   OH2 6338   3.234   2.032   0.807  0.3073 -0.3059 -0.1810
 2125TIP3    H1 6339   3.279   1.957   0.768 -1.1179 -1.0736 -0.4298
 2125TIP3    H2 6340   3.190   1.996   0.884 -1.0016  0.0907 -0.7179
 2126TIP3   OH2 6341   2.158   6.301   0.319 -0.0881 -0.5119 -0.3876
 2126TIP3    H1 6342   2.254   6.302   0.322 -0.0858 -1.2812  0.1599
 2126TIP3    H2 6343   2.137   6.236   0.251 -0.2331  0.8611 -1.6998
 2127TIP3   OH2 6344   1.303   3.390   1.166  0.3333  0.5875 -0.2068
 2127TIP3    H1 6345   1.219   3.430   1.148 -0.7102 -2.4173 -3.1041
 2127TIP3    H2 6346   1.300   3.366   1.259 -2.2683  0.0720 -0.3672
 2128TIP3   OH2 6347   3.099   5.386   2.828 -0.1687 -0.1085  0.3400
 2128TIP3    H1 6348   3.006   5.383   2.848 -0.5946 -2.4375 -1.5881
 2128TIP3    H2 6349   3.135   5.305   2.863  1.4066  1.1785  1.9186
 2129TIP3   OH2 6350   4.647   5.021   3.778 -0.1915 -0.4381 -0.2758
 2129TIP3    H1 6351   4.688   4.969   3.709  1.8324  0.5499  0.1062
 2129TIP3    H2 6352   4.692   4.994   3.858 -2.4028 -1.4612  0.6928
 2130TIP3   OH2 6353   0.210   6.433   4.408  0.2460  0.8690  0.8045
 2130TIP3    H1 6354   0.131   6.403   4.453  0.0592 -0.4400 -0.3117
 2130TIP3    H2 6355   0.217   6.375   4.331  2.2064  1.0401  0.8012
 2131TIP3   OH2 6356   6.578   2.310   0.918 -0.1804  0.3970 -0.5971
 2131TIP3    H1 6357   6.607   2.248   0.984  1.5880 -0.0260 -1.7194
 2131TIP3    H2 6358   6.552   2.256   0.843 -0.5033  0.9442 -0.8897
 2132TIP3   OH2 6359   0.913   1.960   1.216 -0.2617  0.3271  0.0838
 2132TIP3    H1 6360   1.001   1.948   1.180  0.0509 -0.4606  1.0475
 2132TIP3    H2 6361   0.906   1.893   1.284 -1.5542  0.4864  0.1290
 2133TIP3   OH2 6362   2.850   0.590   3.050 -0.8633  0.6270  0.8876
 2133TIP3    H1 6363   2.816   0.526   2.986 -1.9429  1.0652  0.9962
 2133TIP3    H2 6364   2.831   0.551   3.135 -0.4688  0.5679  0.9493
 2134TIP3   OH2 6365   6.633   3.201   1.006 -0.3042  0.0784  0.0604
 2134TIP3    H1 6366   6.561   3.260   0.982 -0.4941 -0.1743  0.0126
 2134TIP3    H2 6367   6.700   3.218   0.939 -1.6815 -2.2214 -2.0625
 2135TIP3   OH2 6368   3.808   3.181   5.634 -0.3289  0.0818  0.1969
 2135TIP3    H1 6369   3.755   3.107   5.665 -0.6092  0.1005 -0.2198
 2135TIP3    H2 6370   3.773   3.257   5.682 -0.3133  0.0065  0.3269
 2136TIP3   OH2 6371   4.001   5.803   5.037  0.1966  0.1678 -0.2715
 2136TIP3    H1 6372   4.084   5.807   4.991  0.7045 -2.6137  0.2306
 2136TIP3    H2 6373   3.940   5.762   4.975 -0.0198 -0.4082  0.3013
 2137TIP3   OH2 6374   6.384   2.077   0.478 -0.1947 -0.2872  0.3946
 2137TIP3    H1 6375   6.354   2.098   0.389 -0.2443  0.5537  0.6024
 2137TIP3    H2 6376   6.341   1.994   0.498 -0.9179 -0.0309 -0.0290
 2138TIP3   OH2 6377   2.770   2.014   0.513 -0.1676 -0.3454 -0.0748
 2138TIP3    H1 6378   2.750   2.014   0.419  2.1249 -0.6659 -0.6168
 2138TIP3    H2 6379   2.718   2.087   0.548 -0.4283  0.3265 -1.7549
 2139TIP3   OH2 6380   1.092   0.428   3.834  0.1084  0.3436  0.0031
 2139TIP3    H1 6381   1.012   0.470   3.867  0.1690 -0.2519  0.9568
 2139TIP3    H2 6382   1.162   0.463   3.890  0.5327  0.8772 -0.8400
 2140TIP3   OH2 6383   7.090   1.472   2.305  0.2193  0.5346 -0.0126
 2140TIP3    H1 6384   7.179   1.445   2.329  0.5741  2.3378  0.8903
 2140TIP3    H2 6385   7.051   1.502   2.387 -2.0351 -2.1541  0.0497
 2141TIP3   OH2 6386   5.600   0.962   5.509  0.0821 -0.3428 -0.4537
 2141TIP3    H1 6387   5.668   0.930   5.568  1.9855  1.3025 -1.6089
 2141TIP3    H2 6388   5.553   0.883   5.482  0.0323 -1.2721  2.1214
 2142TIP3   OH2 6389   0.310   3.570   4.116  0.2272  0.0485  0.3744
 2142TIP3    H1 6390   0.231   3.549   4.167 -1.2797 -1.0692 -2.2478
 2142TIP3    H2 6391   0.382   3.538   4.170 -1.2698 -1.2529  1.7160
 2143TIP3   OH2 6392   4.048   2.572   0.391  0.2254 -0.0680 -0.1551
 2143TIP3    H1 6393   4.040   2.483   0.426 -0.0244  0.7181  1.9972
 2143TIP3    H2 6394   4.120   2.567   0.328 -0.0026 -1.8491 -0.3263
 2144TIP3   OH2 6395   5.774   1.313   2.678  0.3957  0.1682  0.2646
 2144TIP3    H1 6396   5.782   1.405   2.701 -0.9921  0.7832 -1.5401
 2144TIP3    H2 6397   5.680   1.297   2.672  0.5825 -0.4511 -2.6793
 2145TIP3   OH2 6398   0.726   0.506   2.828  0.5853  0.2606  0.1014
 2145TIP3    H1 6399   0.795   0.524   2.764  0.0430  0.6060 -0.3964
 2145TIP3    H2 6400   0.689   0.592   2.848 -0.5131 -0.0376 -0.5767
 2146TIP3   OH2 6401   3.617   2.255   5.261  0.9725 -0.3850  0.6794
 2146TIP3    H1 6402   3.562   2.324   5.297  0.2070 -1.9827  2.8448
 2146TIP3    H2 6403   3.572   2.226   5.182  2.0612  2.4412 -1.1193
 2147TIP3   OH2 6404   2.039   2.088   1.324  0.1628  0.2883 -0.4880
 2147TIP3    H1 6405   2.052   2.167   1.375  0.0072  1.0900 -1.6373
 2147TIP3    H2 6406   2.123   2.043   1.327 -0.0364 -0.0136  0.9836
 2148TIP3   OH2 6407   3.210   1.982   3.069  0.0904  0.0089  0.2584
 2148TIP3    H1 6408   3.290   1.987   3.122  1.0578  0.0883 -1.1655
 2148TIP3    H2 6409   3.172   1.897   3.091 -1.0836  1.1420  3.1722
 2149TIP3   OH2 6410   3.376   0.174   4.780 -0.0856  0.3081 -0.9047
 2149TIP3    H1 6411   3.290   0.134   4.788 -0.1778  0.6604 -0.0730
 2149TIP3    H2 6412   3.437   0.100   4.788 -0.3008  0.1118 -1.0851
 2150TIP3   OH2 6413   1.635   3.944   3.273  0.1094  0.0355  0.4881
 2150TIP3    H1 6414   1.592   3.922   3.356  0.0461 -0.1804  0.3974
 2150TIP3    H2 6415   1.728   3.929   3.290  0.3792  2.1546  1.2389
 2151TIP3   OH2 6416   7.148   2.097   2.402  0.0778  0.6471 -0.2888
 2151TIP3    H1 6417   7.233   2.135   2.425 -0.3623  2.2521 -1.1170
 2151TIP3    H2 6418   7.084   2.152   2.447 -0.5865  0.8831 -1.4790
 2152TIP3   OH2 6419   1.646   1.346   0.896 -0.0587  0.7651  0.2340
 2152TIP3    H1 6420   1.723   1.357   0.840  0.3014 -0.2526  0.4969
 2152TIP3    H2 6421   1.683   1.334   0.984 -0.4090 -1.1384  0.1710
 2153TIP3   OH2 6422   1.894   6.096   3.258  0.4358 -0.2535 -0.3355
 2153TIP3    H1 6423   1.801   6.074   3.249  0.4011 -0.3931  0.2981
 2153TIP3    H2 6424   1.940   6.027   3.209  0.2635 -1.0289  0.5578
 2154TIP3   OH2 6425   0.062   3.040   2.042 -0.6422 -0.4992  0.4360
 2154TIP3    H1 6426  -0.022   2.995   2.029 -1.4499  0.4501  2.0711
 2154TIP3    H2 6427   0.038   3.131   2.060  0.8285  0.0550 -0.2478
 2155TIP3   OH2 6428   3.369   3.271   3.689  0.2556 -0.4199  0.0566
 2155TIP3    H1 6429   3.431   3.233   3.627 -0.6601 -0.6812 -0.7122
 2155TIP3    H2 6430   3.424   3.319   3.751  1.2298 -0.6984 -0.5696
 2156TIP3   OH2 6431   3.423   4.840   0.767  0.1929  0.8092 -0.2072
 2156TIP3    H1 6432   3.403   4.753   0.733 -0.6476  0.8600  0.1242
 2156TIP3    H2 6433   3.506   4.830   0.812 -0.9289 -0.3693  1.7505
 2157TIP3   OH2 6434   0.569   5.988   1.259 -0.0178  0.6437  0.2640
 2157TIP3    H1 6435   0.596   6.007   1.169 -1.3090  2.7682  0.2603
 2157TIP3    H2 6436   0.595   5.897   1.273  1.4823  0.6861 -1.7612
 2158TIP3   OH2 6437   3.086   0.898   1.659  0.7602 -0.4545 -0.5833
 2158TIP3    H1 6438   3.007   0.936   1.621  1.4576  0.4630 -1.1407
 2158TIP3    H2 6439   3.093   0.811   1.619  0.8657  0.0652 -1.7097
 2159TIP3   OH2 6440   2.213   3.943   2.445 -0.6527 -0.5504 -0.3465
 2159TIP3    H1 6441   2.182   3.981   2.363 -2.1707 -2.2356 -0.6193
 2159TIP3    H2 6442   2.180   4.001   2.513 -0.5788  0.1046 -0.8682
 2160TIP3   OH2 6443   2.239   6.288   5.169  0.6271  0.0641  0.1885
 2160TIP3    H1 6444   2.195   6.208   5.197 -0.5427  0.6042 -0.0372
 2160TIP3    H2 6445   2.248   6.277   5.074  0.4343  0.2060  0.1526
 2161TIP3   OH2 6446   4.703   5.052   0.071  0.0805  0.1024  0.0061
 2161TIP3    H1 6447   4.747   5.108   0.007 -0.2034  1.6580  1.0999
 2161TIP3    H2 6448   4.629   5.015   0.024  0.1669  0.8048 -0.7085
 2162TIP3   OH2 6449   1.896   5.030   1.969  0.0069 -0.3621 -0.1091
 2162TIP3    H1 6450   1.865   5.117   1.945 -1.8071 -1.1354 -0.7166
 2162TIP3    H2 6451   1.940   4.998   1.890 -0.4270 -0.4671 -0.3125
 2163TIP3   OH2 6452   0.062   5.745   3.555 -0.3854  0.4642  0.3106
 2163TIP3    H1 6453   0.011   5.805   3.501  0.2478  1.3525  0.6904
 2163TIP3    H2 6454   0.076   5.792   3.637  2.2458  0.8627 -0.2771
 2164TIP3   OH2 6455   3.641   3.637   4.805 -0.9273 -0.3589 -0.1072
 2164TIP3    H1 6456   3.552   3.634   4.769 -1.0939 -1.3651  0.3584
 2164TIP3    H2 6457   3.696   3.656   4.729 -1.6472  1.8402 -0.1626
 2165TIP3   OH2 6458   5.166   3.911   0.490 -0.6335  0.3065 -0.3192
 2165TIP3    H1 6459   5.086   3.864   0.468  0.6252 -0.6646 -3.4204
 2165TIP3    H2 6460   5.215   3.851   0.546 -1.7690  0.7110  1.1846
 2166TIP3   OH2 6461   2.151   1.922   3.601 -0.4407  0.1239  0.1942
 2166TIP3    H1 6462   2.166   1.946   3.510 -0.3297  1.0281  0.4442
 2166TIP3    H2 6463   2.096   1.992   3.636 -0.4491 -0.1914  0.8328
 2167TIP3   OH2 6464   0.884   1.443   1.366  0.0787  0.1866 -0.6079
 2167TIP3    H1 6465   0.980   1.449   1.361  0.1191  0.9964  0.7271
 2167TIP3    H2 6466   0.861   1.488   1.447 -1.3039 -1.5362  0.0112
 2168TIP3   OH2 6467   0.945   5.323   4.133 -0.5837 -0.1054  0.1493
 2168TIP3    H1 6468   0.915   5.241   4.172 -2.1786  0.7241  0.7577
 2168TIP3    H2 6469   0.916   5.391   4.194  1.7845  0.8671  0.2909
 2169TIP3   OH2 6470   1.858   0.030   4.143 -0.1399 -0.0553 -0.1790
 2169TIP3    H1 6471   1.822   0.095   4.203  0.7776 -0.7342  1.1506
 2169TIP3    H2 6472   1.881  -0.044   4.198  1.6215 -0.3500 -1.2020
 2170TIP3   OH2 6473   6.568   0.164   1.129 -0.2718  0.2073  0.3102
 2170TIP3    H1 6474   6.639   0.137   1.069 -0.0639  0.2089  0.5529
 2170TIP3    H2 6475   6.497   0.103   1.110 -0.1696  0.1388  0.1352
 2171TIP3   OH2 6476   2.125   0.090   3.875  0.1726 -0.6391 -0.0018
 2171TIP3    H1 6477   2.200   0.030   3.878 -0.7006 -1.7281  0.8586
 2171TIP3    H2 6478   2.051   0.035   3.847 -0.4608  0.2617 -0.1451
 2172TIP3   OH2 6479   5.859   5.186   1.505 -0.1654  0.3714  0.0554
 2172TIP3    H1 6480   5.876   5.102   1.547  1.7240  2.3772  3.8761
 2172TIP3    H2 6481   5.945   5.212   1.470 -0.8724  0.4829 -1.6673
 2173TIP3   OH2 6482   2.253   5.296   0.334  0.0094 -0.0103  0.2784
 2173TIP3    H1 6483   2.300   5.342   0.403 -0.2046 -0.1939  0.5457
 2173TIP3    H2 6484   2.229   5.212   0.373 -0.2880 -0.0354  0.0463
 2174TIP3   OH2 6485   0.972   0.214   4.999 -0.4737 -0.1899  0.2943
 2174TIP3    H1 6486   1.005   0.140   4.947 -1.0142  0.5458 -1.1572
 2174TIP3    H2 6487   1.051   0.257   5.032  0.0310  0.5428 -1.6995
 2175TIP3   OH2 6488   4.221   6.004   3.110 -0.6339 -0.3580 -0.6989
 2175TIP3    H1 6489   4.312   5.996   3.139 -0.7658 -0.8198 -0.4068
 2175TIP3    H2 6490   4.177   5.927   3.146 -1.3913  0.4410  0.1509
 2176TIP3   OH2 6491   2.389   6.536   1.388  0.2818 -0.3529 -0.4702
 2176TIP3    H1 6492   2.399   6.620   1.432  1.5242 -0.1218 -1.1311
 2176TIP3    H2 6493   2.342   6.481   1.450 -3.0809  1.5857 -1.0355
 2177TIP3   OH2 6494   5.614   4.439   4.590  0.0660 -0.2109 -0.0838
 2177TIP3    H1 6495   5.595   4.351   4.556  0.0322 -0.4231  0.4747
 2177TIP3    H2 6496   5.657   4.424   4.674  2.4829  0.2674 -1.1618
 2178TIP3   OH2 6497   1.914   3.595   2.809  0.0403 -0.5035 -0.0344
 2178TIP3    H1 6498   1.962   3.556   2.883  2.2765  1.3338 -0.3926
 2178TIP3    H2 6499   1.909   3.688   2.831 -0.3739 -0.1322 -1.6204
 2179TIP3   OH2 6500   6.637   2.438   5.346  0.9126 -0.0783  0.1976
 2179TIP3    H1 6501   6.548   2.439   5.379  1.2481  0.1373  1.1292
 2179TIP3    H2 6502   6.631   2.394   5.261 -0.2882  1.1267 -0.3728
 2180TIP3   OH2 6503   2.777   6.018   1.005  0.7603 -0.2594  0.3581
 2180TIP3    H1 6504   2.742   5.943   0.958  2.0259 -0.7460  0.1429
 2180TIP3    H2 6505   2.850   6.049   0.951  0.6985  0.6842  0.7935
 2181TIP3   OH2 6506   5.116   2.100   1.512  0.3747 -0.7054 -0.3263
 2181TIP3    H1 6507   5.064   2.108   1.592 -0.2208 -0.0455 -0.7622
 2181TIP3    H2 6508   5.198   2.143   1.533 -0.3694  0.9110 -0.5481
 2182TIP3   OH2 6509   1.517   4.522   5.771  0.2959 -0.3307 -0.0306
 2182TIP3    H1 6510   1.601   4.566   5.761  0.2758 -0.2978 -0.0514
 2182TIP3    H2 6511   1.517   4.491   5.862 -0.4811  1.3359  0.5827
 2183TIP3   OH2 6512   2.921   3.251   4.600  0.0402  0.4843 -0.0628
 2183TIP3    H1 6513   2.886   3.223   4.516 -0.4616 -1.0299  0.6188
 2183TIP3    H2 6514   2.849   3.300   4.641  0.3569  1.4089 -0.5696
 2184TIP3   OH2 6515   0.328   2.706   0.879 -0.0455 -0.1681  0.3483
 2184TIP3    H1 6516   0.266   2.686   0.949 -0.6853 -0.2070 -0.2220
 2184TIP3    H2 6517   0.320   2.632   0.818  1.6423 -0.9348  0.9816
 2185TIP3   OH2 6518   7.031   1.454   3.994 -0.4620  0.1940 -0.1715
 2185TIP3    H1 6519   7.088   1.381   4.017 -0.3139  0.3209 -0.1351
 2185TIP3    H2 6520   7.024   1.505   4.075 -1.4013 -0.3377  0.0982
 2186TIP3   OH2 6521   0.213   3.868   1.912 -0.0055  0.5422  0.1289
 2186TIP3    H1 6522   0.258   3.787   1.888  0.4457  0.7753  0.1951
 2186TIP3    H2 6523   0.281   3.925   1.949 -0.6879  0.1588  2.1044
 2187TIP3   OH2 6524   1.810   1.080   4.372  0.0760 -0.0981  0.5308
 2187TIP3    H1 6525   1.806   1.167   4.413  1.8423 -0.2049  1.0357
 2187TIP3    H2 6526   1.900   1.075   4.338 -0.2079 -1.4818 -0.0491
 2188TIP3   OH2 6527   5.107   5.741   3.036  0.1406  0.3337  0.0911
 2188TIP3    H1 6528   5.130   5.653   3.068  0.3367  0.8487  1.4266
 2188TIP3    H2 6529   5.016   5.752   3.062 -0.2354  0.0951 -1.0910
 2189TIP3   OH2 6530   1.785   5.324   0.115  0.5038  0.3633  0.0776
 2189TIP3    H1 6531   1.853   5.278   0.166  2.5643  2.1527 -0.8954
 2189TIP3    H2 6532   1.742   5.381   0.179 -1.4519 -2.0530  1.0930
 2190TIP3   OH2 6533   1.806   5.998   0.965  0.0072  0.1124  0.2038
 2190TIP3    H1 6534   1.824   6.014   0.873  1.1252 -0.7597  0.2536
 2190TIP3    H2 6535   1.796   5.903   0.972 -0.7801  0.2313  0.8692
 2191TIP3   OH2 6536   1.878   1.602   1.077 -0.2345  0.4051 -0.3157
 2191TIP3    H1 6537   1.916   1.558   1.153  0.8115  0.6715 -0.6705
 2191TIP3    H2 6538   1.951   1.651   1.039 -0.6092 -0.1904 -1.8391
 2192TIP3   OH2 6539   6.838   6.034   1.406 -0.4845 -0.2706  0.7663
 2192TIP3    H1 6540   6.815   5.944   1.380  0.8114 -0.2858 -0.4319
 2192TIP3    H2 6541   6.926   6.026   1.444 -0.8308  0.3357  1.7215
 2193TIP3   OH2 6542   0.787   5.311   2.417 -0.0593  0.7968  0.0530
 2193TIP3    H1 6543   0.709   5.286   2.465  0.0339 -0.1257 -0.2597
 2193TIP3    H2 6544   0.770   5.401   2.389 -2.1568 -0.1656 -2.2024
 2194TIP3   OH2 6545   2.498   0.296   0.555  0.0011  0.2402  0.4136
 2194TIP3    H1 6546   2.507   0.352   0.478  1.3284  1.0364  1.1146
 2194TIP3    H2 6547   2.469   0.354   0.624 -0.8086 -0.3959  0.6178
 2195TIP3   OH2 6548   6.689   4.704   2.234 -0.4614 -0.1207  0.1652
 2195TIP3    H1 6549   6.701   4.686   2.327  0.2337 -0.5218  0.0020
 2195TIP3    H2 6550   6.765   4.666   2.192 -0.6837  0.2115 -0.5568
 2196TIP3   OH2 6551   3.031   6.719   2.945  0.1949 -0.1898 -0.6129
 2196TIP3    H1 6552   3.047   6.784   2.877 -0.9910  1.3215  0.4994
 2196TIP3    H2 6553   2.967   6.759   3.003  1.2520 -1.3566  1.5027
 2197TIP3   OH2 6554   5.290   1.811   2.133  0.1015  0.5858 -0.6561
 2197TIP3    H1 6555   5.317   1.756   2.206  2.8383  0.8581 -1.3799
 2197TIP3    H2 6556   5.194   1.808   2.136  0.1121 -2.4896  0.5999
 2198TIP3   OH2 6557   5.498   1.242   2.747 -0.2970 -0.0541 -0.3297
 2198TIP3    H1 6558   5.425   1.202   2.794 -1.5411  0.0293 -2.0811
 2198TIP3    H2 6559   5.537   1.303   2.809 -0.3607 -1.6211  1.3388
 2199TIP3   OH2 6560   4.473   6.555   3.770 -0.0859 -0.0134  0.3295
 2199TIP3    H1 6561   4.388   6.513   3.758 -0.9177  1.8778 -0.8150
 2199TIP3    H2 6562   4.456   6.648   3.759  2.0804  0.4530  0.4314
 2200TIP3   OH2 6563   1.748   4.191   1.231  0.4694  0.4959 -0.2905
 2200TIP3    H1 6564   1.672   4.227   1.278  0.6909  1.4974 -0.6782
 2200TIP3    H2 6565   1.710   4.125   1.173 -0.1987  1.3876 -0.9005
 2201TIP3   OH2 6566   6.266   5.771   1.997 -0.0058  0.0469 -0.5467
 2201TIP3    H1 6567   6.258   5.682   2.034  1.0808 -0.1613 -0.7805
 2201TIP3    H2 6568   6.216   5.768   1.916  0.8986 -0.6778 -1.0927
 2202TIP3   OH2 6569   6.156   0.637   1.053 -0.3851  0.0926 -0.1391
 2202TIP3    H1 6570   6.088   0.654   1.118 -0.1544 -2.1674  0.8028
 2202TIP3    H2 6571   6.223   0.703   1.071 -0.4552 -0.2926  1.7853
 2203TIP3   OH2 6572   3.316   2.824   1.466  0.0482 -0.0973  0.3614
 2203TIP3    H1 6573   3.245   2.814   1.530 -0.0489  1.0239  0.4443
 2203TIP3    H2 6574   3.276   2.796   1.383 -0.6261  0.8557  0.3404
 2204TIP3   OH2 6575   5.143   2.124   0.462 -0.3017  0.1414 -0.4184
 2204TIP3    H1 6576   5.125   2.073   0.384 -1.8352  1.8100 -1.2203
 2204TIP3    H2 6577   5.065   2.113   0.517 -1.1015  2.2718 -1.0234
 2205TIP3   OH2 6578   1.107   1.787   4.223 -0.4645  0.4328 -0.2218
 2205TIP3    H1 6579   1.181   1.807   4.281 -1.5661  1.6262  0.8347
 2205TIP3    H2 6580   1.148   1.760   4.141  1.1412  0.3443  0.5646
 2206TIP3   OH2 6581   0.052   0.419   4.959  0.4950 -0.4511 -0.1400
 2206TIP3    H1 6582   0.049   0.439   5.053  1.7664  0.2781 -0.2366
 2206TIP3    H2 6583   0.040   0.324   4.955  0.2492 -0.4738  0.7368
 2207TIP3   OH2 6584   2.448   3.054   0.768 -0.3529 -0.2814  0.1122
 2207TIP3    H1 6585   2.536   3.017   0.773 -0.0114 -0.0245 -2.4405
 2207TIP3    H2 6586   2.393   2.981   0.739  0.0658  0.6054 -3.4992
 2208TIP3   OH2 6587   4.540   3.603   1.048 -0.6615 -0.0938 -0.2071
 2208TIP3    H1 6588   4.629   3.618   1.015 -0.7792 -0.5430 -0.7596
 2208TIP3    H2 6589   4.508   3.530   0.995 -1.7726  0.7976 -0.7919
 2209TIP3   OH2 6590   6.280   2.312   3.307 -0.3875 -0.1066  0.0920
 2209TIP3    H1 6591   6.300   2.405   3.317 -3.8494  0.9071 -0.9545
 2209TIP3    H2 6592   6.292   2.276   3.395 -0.0384  1.5773  0.7844
 2210TIP3   OH2 6593   1.932   6.067   3.533 -0.1568  0.5130 -0.0515
 2210TIP3    H1 6594   1.865   6.005   3.504 -0.4379  0.6965  0.1942
 2210TIP3    H2 6595   1.938   6.130   3.461  1.4562 -0.8034 -1.1380
 2211TIP3   OH2 6596   6.443   2.536   5.002 -0.4793 -0.1436  0.0547
 2211TIP3    H1 6597   6.474   2.456   5.045 -1.2845 -0.4187  0.1345
 2211TIP3    H2 6598   6.523   2.577   4.969  0.3707  0.7456  2.8810
 2212TIP3   OH2 6599   7.015   2.286   1.069 -0.0815 -0.4299 -0.0355
 2212TIP3    H1 6600   6.964   2.346   1.013 -0.2237  0.0404  0.5924
 2212TIP3    H2 6601   7.101   2.284   1.029  0.3794  1.3789  0.7576
 2213TIP3   OH2 6602   5.427   1.331   3.070  0.2718 -0.2187  0.8427
 2213TIP3    H1 6603   5.365   1.404   3.076 -0.1180 -0.4554 -0.1959
 2213TIP3    H2 6604   5.380   1.256   3.107 -0.0891 -0.4035  0.0345
 2214TIP3   OH2 6605   1.079   5.468   4.349  0.3241 -0.3240 -0.3115
 2214TIP3    H1 6606   1.118   5.412   4.282  1.8020  0.2102  0.0495
 2214TIP3    H2 6607   1.039   5.540   4.301 -0.8748 -1.2346 -0.7302
 2215TIP3   OH2 6608   2.619   5.160   1.198 -0.1867 -0.4452 -0.3778
 2215TIP3    H1 6609   2.631   5.080   1.248 -0.1084 -0.7325 -0.8461
 2215TIP3    H2 6610   2.695   5.214   1.219 -0.7540 -0.0560  0.7400
 2216TIP3   OH2 6611   1.564   5.704   3.038  0.4242  0.3734  0.3099
 2216TIP3    H1 6612   1.476   5.667   3.030  0.3918  0.5674 -0.2960
 2216TIP3    H2 6613   1.599   5.665   3.118  0.0152 -0.1824  0.2259
 2217TIP3   OH2 6614   6.770   1.318   5.301 -0.3143  0.5468  0.0906
 2217TIP3    H1 6615   6.713   1.332   5.377 -0.6218 -0.3541  0.0369
 2217TIP3    H2 6616   6.858   1.310   5.338 -0.6698 -1.7587  0.5865
 2218TIP3   OH2 6617   5.933   4.665   1.784  0.2745 -0.2169 -0.7013
 2218TIP3    H1 6618   5.920   4.670   1.689 -1.5022 -0.7595 -0.5171
 2218TIP3    H2 6619   6.013   4.614   1.794  0.4114 -0.2772 -1.9017
 2219TIP3   OH2 6620   5.628   6.157   4.823 -0.1078  0.4221  0.3963
 2219TIP3    H1 6621   5.635   6.241   4.869 -0.2873  0.6315  0.0493
 2219TIP3    H2 6622   5.686   6.167   4.748 -0.9762  0.6584 -0.2619
 2220TIP3   OH2 6623   0.261   4.129   1.610  0.1805 -0.3183  0.1496
 2220TIP3    H1 6624   0.183   4.118   1.666  0.1044 -0.8748 -0.0531
 2220TIP3    H2 6625   0.293   4.040   1.598  1.0440 -0.0601  0.4945
 2221TIP3   OH2 6626   5.826   1.593   2.632 -0.2775 -0.2628  0.2694
 2221TIP3    H1 6627   5.843   1.626   2.544 -0.3689  0.1035  0.3855
 2221TIP3    H2 6628   5.752   1.646   2.663 -0.8505 -1.0198  0.2192
 2222TIP3   OH2 6629   5.667   5.866   3.379  0.0131 -0.3141  0.0475
 2222TIP3    H1 6630   5.669   5.961   3.386  1.5232 -0.1440 -1.8653
 2222TIP3    H2 6631   5.754   5.838   3.408 -0.0698 -1.0234 -0.3477
 2223TIP3   OH2 6632   1.398   5.153   0.810 -0.0727 -0.4495  0.1951
 2223TIP3    H1 6633   1.323   5.134   0.754  1.2230 -0.3288 -1.6895
 2223TIP3    H2 6634   1.367   5.135   0.899 -2.2577 -0.5401 -0.5217
 2224TIP3   OH2 6635   0.021   3.139   0.807  0.1726  0.0576 -0.3283
 2224TIP3    H1 6636   0.019   3.053   0.764 -0.4684  0.0336 -0.2613
 2224TIP3    H2 6637   0.086   3.189   0.758  0.7779 -0.5647 -0.1715
 2225TIP3   OH2 6638   1.329   4.441   2.601 -0.0402 -0.0055  0.7770
 2225TIP3    H1 6639   1.386   4.432   2.525  0.5378  0.3376  1.1681
 2225TIP3    H2 6640   1.320   4.352   2.635 -0.7662 -0.2489 -0.0233
 2226TIP3   OH2 6641   5.189   2.939   3.872  0.0457 -0.4174  0.1315
 2226TIP3    H1 6642   5.197   2.847   3.849 -0.0812 -0.9178  1.9453
 2226TIP3    H2 6643   5.148   2.939   3.959  2.0527  1.2258  1.1847
 2227TIP3   OH2 6644   4.865   2.101   2.558  0.1231  0.3951  0.4159
 2227TIP3    H1 6645   4.893   2.192   2.549  2.4226 -0.1877  0.9721
 2227TIP3    H2 6646   4.799   2.102   2.626 -0.5094  1.7497 -0.1935
 2228TIP3   OH2 6647   6.305   3.412   0.066 -0.8189  0.8595  0.2621
 2228TIP3    H1 6648   6.362   3.485   0.042 -1.1774  1.1217  0.1996
 2228TIP3    H2 6649   6.359   3.356   0.121 -0.7513  1.5210  0.8789
 2229TIP3   OH2 6650   3.004   6.665   3.894  0.5641 -0.0136 -0.7882
 2229TIP3    H1 6651   3.093   6.675   3.927  0.4864  1.3979 -0.9210
 2229TIP3    H2 6652   3.013   6.667   3.799  0.3187  1.3811 -0.8148
 2230TIP3   OH2 6653   1.291   4.046   1.489 -1.1053  0.7194 -0.3430
 2230TIP3    H1 6654   1.207   4.008   1.513 -1.7800  1.0538 -2.0559
 2230TIP3    H2 6655   1.300   4.123   1.546 -0.2891 -1.1742  2.2772
 2231TIP3   OH2 6656   3.687   6.520   2.547  0.2074 -0.5663 -0.0133
 2231TIP3    H1 6657   3.686   6.539   2.640 -2.0145 -1.0783  0.1099
 2231TIP3    H2 6658   3.718   6.602   2.506  0.5167 -0.1065  1.1103
 2232TIP3   OH2 6659   1.939   5.177   2.647  0.2366 -0.2107  0.0758
 2232TIP3    H1 6660   1.915   5.092   2.610  0.0827  0.1627 -0.6985
 2232TIP3    H2 6661   2.014   5.159   2.704  1.0496 -0.6592 -1.1122
 2233TIP3   OH2 6662   0.425   4.529   0.600 -0.0273  0.5449  0.4103
 2233TIP3    H1 6663   0.366   4.592   0.643 -0.0438  1.1900 -0.5232
 2233TIP3    H2 6664   0.374   4.448   0.594 -0.9302  1.1690 -0.6120
 2234TIP3   OH2 6665   4.213   6.473   3.770  0.1301 -0.0810 -0.3535
 2234TIP3    H1 6666   4.202   6.468   3.865  0.5029 -2.1484 -0.3541
 2234TIP3    H2 6667   4.129   6.503   3.736 -0.3010 -0.2275  0.5785
 2235TIP3   OH2 6668   3.510   5.348   3.548  0.0929  0.0315 -0.1565
 2235TIP3    H1 6669   3.581   5.383   3.493  0.3733 -1.2450 -0.6476
 2235TIP3    H2 6670   3.472   5.425   3.590  2.5556  0.6748  1.0709
 2236TIP3   OH2 6671   7.102   5.969   1.411  0.5105 -0.4244  0.5339
 2236TIP3    H1 6672   7.192   5.939   1.427  0.9686 -1.5377 -3.1891
 2236TIP3    H2 6673   7.072   5.917   1.337 -3.1380  0.2064  1.3636
 2237TIP3   OH2 6674   2.550   1.644   4.916  0.0917  0.0608 -0.5676
 2237TIP3    H1 6675   2.550   1.587   4.992 -2.7194 -0.3861 -0.8049
 2237TIP3    H2 6676   2.585   1.727   4.949  2.1695 -1.0533  0.2921
 2238TIP3   OH2 6677   0.176   0.354   5.684 -0.1835 -0.2075  0.0339
 2238TIP3    H1 6678   0.086   0.338   5.711 -0.6478  2.7779  0.6656
 2238TIP3    H2 6679   0.169   0.379   5.591 -0.1554  0.7871  0.2852
 2239TIP3   OH2 6680   4.784   4.619   3.065 -0.0918  0.0047 -0.0425
 2239TIP3    H1 6681   4.710   4.671   3.097 -0.0082  0.1919 -0.1595
 2239TIP3    H2 6682   4.753   4.528   3.071  0.3985 -0.0871  1.9073
 2240TIP3   OH2 6683   2.646   2.536   4.346  0.1903  0.5995  0.2839
 2240TIP3    H1 6684   2.700   2.462   4.317 -0.1587  0.6223 -0.4598
 2240TIP3    H2 6685   2.564   2.525   4.298 -0.9902 -0.1830  2.3538
 2241TIP3   OH2 6686   3.839   0.405   4.488  0.4154 -0.1208  0.5515
 2241TIP3    H1 6687   3.844   0.342   4.560 -1.6592 -0.0978  0.7846
 2241TIP3    H2 6688   3.763   0.378   4.438 -0.7076  2.2961  0.8018
 2242TIP3   OH2 6689   1.854   1.438   3.755 -0.1651 -0.0691 -0.2769
 2242TIP3    H1 6690   1.911   1.487   3.696  0.8381 -0.0200  0.6943
 2242TIP3    H2 6691   1.844   1.353   3.714 -0.8607  0.4994 -1.3373
 2243TIP3   OH2 6692   3.798   4.970   1.673  0.1484  0.6291 -0.2145
 2243TIP3    H1 6693   3.782   4.877   1.688  1.5646  0.5805  1.4020
 2243TIP3    H2 6694   3.885   4.974   1.634 -0.8089  1.2008 -2.4264
 2244TIP3   OH2 6695   6.192   6.483   5.342  0.5514 -0.2068  0.2313
 2244TIP3    H1 6696   6.146   6.473   5.426  0.0107  0.7268  0.0643
 2244TIP3    H2 6697   6.180   6.399   5.298 -0.9100 -0.0411  0.2528
 2245TIP3   OH2 6698   0.654   2.239   2.774  0.8183 -0.5188  0.1912
 2245TIP3    H1 6699   0.597   2.163   2.776 -1.2888  0.9844  1.2303
 2245TIP3    H2 6700   0.654   2.272   2.864  2.5073  0.1565 -0.0110
 2246TIP3   OH2 6701   3.509   3.152   5.716 -0.1571  0.1815 -0.5661
 2246TIP3    H1 6702   3.416   3.149   5.740  0.3149  1.9828  1.8411
 2246TIP3    H2 6703   3.542   3.065   5.738 -0.1287  1.1820  4.2974
 2247TIP3   OH2 6704   2.923   4.292   1.115 -0.7378 -0.4798  0.0792
 2247TIP3    H1 6705   3.007   4.339   1.118 -1.9047  1.8615 -1.2045
 2247TIP3    H2 6706   2.939   4.218   1.056  1.4425 -2.5728  2.9767
 2248TIP3   OH2 6707   2.175   5.978   0.440  0.3853 -0.2126  0.0363
 2248TIP3    H1 6708   2.228   5.905   0.409  0.2016 -1.8440  3.1288
 2248TIP3    H2 6709   2.230   6.021   0.505 -0.5687  0.6493  0.2907
 2249TIP3   OH2 6710   2.832   3.429   0.359 -0.0165 -0.5693  0.0289
 2249TIP3    H1 6711   2.904   3.379   0.396 -0.1298 -1.7770 -1.2887
 2249TIP3    H2 6712   2.784   3.366   0.305 -1.4293  0.4630  0.0213
 2250TIP3   OH2 6713   1.568   6.213   0.350  0.1586 -0.0272 -0.1482
 2250TIP3    H1 6714   1.506   6.150   0.313 -1.0813  1.2683 -0.3424
 2250TIP3    H2 6715   1.580   6.279   0.282 -0.1914  1.0472  0.8090
 2251TIP3   OH2 6716   5.456   3.775   2.537  0.3758  0.0905  0.0527
 2251TIP3    H1 6717   5.445   3.870   2.525 -2.0048 -0.4084 -2.7038
 2251TIP3    H2 6718   5.538   3.755   2.492 -0.1496  0.6182 -1.2019
 2252TIP3   OH2 6719   5.583   2.610   5.512 -0.1367  0.1269  0.4958
 2252TIP3    H1 6720   5.575   2.652   5.597  0.2607  0.2764  0.4606
 2252TIP3    H2 6721   5.528   2.531   5.519 -1.9833  1.3135  0.1156
 2253TIP3   OH2 6722   6.728   5.491   3.514  0.2737 -0.4619  0.1786
 2253TIP3    H1 6723   6.748   5.574   3.469 -1.0028  1.2238  2.4801
 2253TIP3    H2 6724   6.811   5.464   3.552  0.4021  0.6909  0.7740
 2254TIP3   OH2 6725   3.986   6.635   3.709 -0.0969 -0.4576 -0.6682
 2254TIP3    H1 6726   4.049   6.668   3.646 -0.7581  0.0536 -1.0714
 2254TIP3    H2 6727   3.933   6.711   3.732  0.5440 -0.4743  1.0195
 2255TIP3   OH2 6728   3.461   2.622   2.035  0.2228  0.0985  0.0173
 2255TIP3    H1 6729   3.404   2.545   2.039  0.2938  0.0449 -0.0074
 2255TIP3    H2 6730   3.419   2.685   2.093 -0.4805  0.4766 -0.8844
 2256TIP3   OH2 6731   1.988   2.765   4.138 -0.0510 -0.1683  0.3589
 2256TIP3    H1 6732   2.032   2.708   4.200 -1.8539 -0.2928  1.5998
 2256TIP3    H2 6733   2.050   2.774   4.066  1.1049 -2.0370  1.0400
 2257TIP3   OH2 6734   5.418   2.028   2.239 -0.2284  0.6706 -0.1835
 2257TIP3    H1 6735   5.347   1.970   2.209 -0.9179  1.5143 -0.2343
 2257TIP3    H2 6736   5.496   1.994   2.195 -0.6507 -0.0784 -0.3900
 2258TIP3   OH2 6737   0.931   5.893   1.137  0.0583  0.3284  0.0491
 2258TIP3    H1 6738   0.837   5.905   1.151  0.3131 -0.9254  3.7078
 2258TIP3    H2 6739   0.941   5.799   1.119  0.6033  0.5939 -1.1828
 2259TIP3   OH2 6740   6.684   4.778   1.127  0.1333 -0.4675  0.3984
 2259TIP3    H1 6741   6.712   4.708   1.069 -0.4584 -0.2924 -0.1133
 2259TIP3    H2 6742   6.596   4.753   1.154  0.1566 -0.2235  0.7068
 2260TIP3   OH2 6743   0.226   3.267   4.212 -0.0694 -0.2739  0.7448
 2260TIP3    H1 6744   0.287   3.222   4.269  1.0685  0.3473  0.0574
 2260TIP3    H2 6745   0.277   3.287   4.133 -0.0961  3.2316  1.4476
 2261TIP3   OH2 6746   0.151   2.038   0.514 -0.6936 -0.1777 -0.5391
 2261TIP3    H1 6747   0.157   1.943   0.523 -1.2778 -0.3157 -1.4887
 2261TIP3    H2 6748   0.086   2.064   0.580  0.7991 -0.1922  0.9937
 2262TIP3   OH2 6749   3.787   1.416   5.266  0.6981 -0.0166  0.4106
 2262TIP3    H1 6750   3.784   1.435   5.172 -0.2982  0.2268  0.4773
 2262TIP3    H2 6751   3.716   1.354   5.280  0.6333  0.1934  1.0555
 2263TIP3   OH2 6752   4.510   5.952   4.839  0.2036 -0.3403 -0.1514
 2263TIP3    H1 6753   4.502   5.985   4.750 -1.2490 -0.1093  0.0350
 2263TIP3    H2 6754   4.507   6.030   4.894 -2.8180 -0.6322  0.2672
 2264TIP3   OH2 6755   3.588   3.656   2.145  0.9095  0.7240 -0.1218
 2264TIP3    H1 6756   3.610   3.674   2.053  0.2243 -1.2697 -0.7293
 2264TIP3    H2 6757   3.544   3.736   2.175 -0.2777  0.8536 -2.0240
 2265TIP3   OH2 6758   4.020   1.418   3.204  0.0460 -0.1304  0.0212
 2265TIP3    H1 6759   3.934   1.418   3.244  0.9175 -0.6687  2.0158
 2265TIP3    H2 6760   4.050   1.327   3.212  1.1122  0.2141  0.0836
 2266TIP3   OH2 6761   0.133   6.527   0.225 -0.1232 -0.2583  0.8581
 2266TIP3    H1 6762   0.122   6.445   0.274 -0.0756  1.3117  3.6839
 2266TIP3    H2 6763   0.226   6.548   0.235 -0.1029  0.0892  0.0157
 2267TIP3   OH2 6764   4.926   1.133   3.500  0.1546  0.0277  0.3016
 2267TIP3    H1 6765   4.879   1.129   3.584 -0.1291 -0.6621  0.1161
 2267TIP3    H2 6766   5.018   1.146   3.525 -0.2278  2.3634  0.6445
 2268TIP3   OH2 6767   1.476   4.643   2.042 -0.7403 -0.5944  0.0705
 2268TIP3    H1 6768   1.521   4.724   2.066  2.2932 -1.8184 -0.9465
 2268TIP3    H2 6769   1.383   4.666   2.039 -0.0423  2.6606  0.3345
 2269TIP3   OH2 6770   6.905   2.762   3.019 -1.1158  0.4747  0.3620
 2269TIP3    H1 6771   6.921   2.668   3.014  0.2344  0.7121 -0.0253
 2269TIP3    H2 6772   6.905   2.782   3.113  1.0821  0.4612  0.4136
 2270TIP3   OH2 6773   5.125   6.107   3.204 -0.3860  0.1279 -1.1249
 2270TIP3    H1 6774   5.105   6.014   3.215 -0.0952  0.0744 -1.0600
 2270TIP3    H2 6775   5.198   6.124   3.263 -0.5207  0.4285 -1.0397
 2271TIP3   OH2 6776   1.065   3.814   4.405 -0.1977  0.4979 -0.1044
 2271TIP3    H1 6777   1.067   3.799   4.310 -0.1478 -0.9263  0.1081
 2271TIP3    H2 6778   1.100   3.903   4.415  0.2548  0.4925 -1.3886
 2272TIP3   OH2 6779   2.979   0.465   2.693  0.0706  0.7702 -0.0084
 2272TIP3    H1 6780   2.962   0.394   2.754  1.1189  0.9024  0.4638
 2272TIP3    H2 6781   3.058   0.438   2.646  0.7352  1.7842  0.4789
 2273TIP3   OH2 6782   0.965   6.279   2.692 -0.0498  0.0007 -0.3231
 2273TIP3    H1 6783   0.898   6.257   2.757  0.9278 -0.7355  0.4594
 2273TIP3    H2 6784   1.048   6.257   2.734  0.5801 -1.2394 -2.1009
 2274TIP3   OH2 6785   3.695   0.162   3.102  1.0569 -0.0002  0.4388
 2274TIP3    H1 6786   3.652   0.119   3.176  0.5569 -0.6969 -0.2383
 2274TIP3    H2 6787   3.742   0.091   3.058  3.3800  0.8146  1.4450
 2275TIP3   OH2 6788   6.628   6.078   0.814  0.2951 -0.0489 -0.5235
 2275TIP3    H1 6789   6.567   6.024   0.864 -0.1406 -0.4628 -1.4657
 2275TIP3    H2 6790   6.629   6.162   0.860 -0.5992 -0.2042 -0.1976
 2276TIP3   OH2 6791   4.283   4.998   0.885  0.0473 -0.2840  0.2985
 2276TIP3    H1 6792   4.317   5.052   0.956  0.7443  1.8921 -1.5813
 2276TIP3    H2 6793   4.344   4.924   0.880  2.4126  1.6007 -0.5485
 2277TIP3   OH2 6794   5.442   4.055   4.592  0.1552 -0.2251  0.0008
 2277TIP3    H1 6795   5.444   4.089   4.681  0.1032  0.7983 -0.3805
 2277TIP3    H2 6796   5.351   4.031   4.577  0.3826 -1.5953  0.6466
 2278TIP3   OH2 6797   3.769   0.872   2.304  0.6589 -0.2520  0.4947
 2278TIP3    H1 6798   3.681   0.908   2.299  1.0634  0.6289 -0.6224
 2278TIP3    H2 6799   3.755   0.777   2.312 -0.4029 -0.3011 -1.2808
 2279TIP3   OH2 6800   6.373   2.924   1.640 -0.2521  0.7450  0.1612
 2279TIP3    H1 6801   6.429   2.894   1.568  1.0876  2.3688  0.4715
 2279TIP3    H2 6802   6.294   2.955   1.597  0.2362  1.0218 -0.5574
 2280TIP3   OH2 6803   2.068   3.649   4.644  0.4557 -0.1728  0.1154
 2280TIP3    H1 6804   2.153   3.692   4.632  0.8058 -0.8357  0.1778
 2280TIP3    H2 6805   2.090   3.559   4.666 -0.2709 -0.3537  0.1152
 2281TIP3   OH2 6806   6.061   4.403   3.158 -0.6802 -0.4405 -0.3423
 2281TIP3    H1 6807   6.119   4.437   3.090 -0.7824  0.9400  0.2243
 2281TIP3    H2 6808   5.980   4.382   3.112 -0.0396 -1.5700 -0.9924
 2282TIP3   OH2 6809   4.438   6.219   2.697  0.1104  0.5617  0.1176
 2282TIP3    H1 6810   4.360   6.242   2.646 -0.3533 -1.8973 -0.4153
 2282TIP3    H2 6811   4.404   6.174   2.774  0.9493  1.2985  0.9366
 2283TIP3   OH2 6812   5.725   3.582   4.594 -0.3128  0.4239 -0.4904
 2283TIP3    H1 6813   5.724   3.537   4.509 -0.6055  1.5004 -1.0865
 2283TIP3    H2 6814   5.818   3.597   4.612 -0.1427 -1.3601  0.2619
 2284TIP3   OH2 6815   4.670   4.640   3.746 -0.6817  0.0450  0.1697
 2284TIP3    H1 6816   4.676   4.545   3.734  2.2195  0.0354  1.0035
 2284TIP3    H2 6817   4.660   4.653   3.840  2.2037  0.5294  0.5044
 2285TIP3   OH2 6818   2.251   6.047   5.558  0.6123  0.4705 -0.4191
 2285TIP3    H1 6819   2.259   6.106   5.633 -0.8545  0.5557 -0.3000
 2285TIP3    H2 6820   2.169   6.073   5.516  0.2163 -1.0981 -0.6856
 2286TIP3   OH2 6821   4.752   2.994   0.476 -0.5827  0.5586 -0.6460
 2286TIP3    H1 6822   4.798   2.994   0.560  0.7739 -1.7770 -1.3157
 2286TIP3    H2 6823   4.821   3.006   0.410 -1.2565 -0.2936 -1.5408
 2287TIP3   OH2 6824   3.087   0.216   1.894  0.4908 -0.0156 -0.7153
 2287TIP3    H1 6825   3.118   0.126   1.884  0.2689 -0.0869 -0.7749
 2287TIP3    H2 6826   3.136   0.250   1.969 -0.1005 -0.4937 -0.0925
 2288TIP3   OH2 6827   6.610   2.768   4.456 -0.0037  0.1312  0.7627
 2288TIP3    H1 6828   6.589   2.857   4.485 -1.2781  0.3187 -0.5964
 2288TIP3    H2 6829   6.526   2.723   4.451  0.4802 -0.7639  0.2186
 2289TIP3   OH2 6830   0.389   0.586   1.360 -0.0397 -0.4582 -0.7825
 2289TIP3    H1 6831   0.389   0.681   1.351  0.4219 -0.4212 -0.4312
 2289TIP3    H2 6832   0.307   0.558   1.320 -0.1981  0.0899 -0.8498
 2290TIP3   OH2 6833   3.113   0.492   5.265  0.1531 -0.3520  0.0851
 2290TIP3    H1 6834   3.060   0.426   5.311 -1.5475 -0.8831 -2.4227
 2290TIP3    H2 6835   3.081   0.576   5.297 -1.5982 -0.6911 -0.6566
 2291TIP3   OH2 6836   1.475   2.700   5.114  0.4277 -0.3820 -0.1984
 2291TIP3    H1 6837   1.417   2.766   5.153  1.3878  2.3389 -3.0291
 2291TIP3    H2 6838   1.550   2.697   5.174  0.1635  0.7781  0.2245
 2292TIP3   OH2 6839   5.544   4.195   0.915 -0.3136  0.5567 -0.5644
 2292TIP3    H1 6840   5.482   4.204   0.843 -4.0739  0.0092  2.3134
 2292TIP3    H2 6841   5.523   4.267   0.974  1.0884 -0.2741  1.0319
 2293TIP3   OH2 6842   4.444   4.622   5.805 -0.0335  0.1963  1.0130
 2293TIP3    H1 6843   4.479   4.666   5.727 -1.4277  0.5668  0.5679
 2293TIP3    H2 6844   4.416   4.693   5.862 -0.4088 -0.0972  1.1939
 2294TIP3   OH2 6845   3.167   2.526   0.880 -0.5340  0.3286  0.2534
 2294TIP3    H1 6846   3.209   2.447   0.846 -2.2296 -0.6667  0.3763
 2294TIP3    H2 6847   3.177   2.590   0.809  1.7452  0.3893  0.5450
 2295TIP3   OH2 6848   3.206   6.482   4.142 -0.5945 -0.1522  0.0173
 2295TIP3    H1 6849   3.167   6.398   4.118  1.2683 -0.6567 -1.5247
 2295TIP3    H2 6850   3.252   6.466   4.224  0.6005 -0.9738 -0.7765
 2296TIP3   OH2 6851   6.061   4.192   2.177 -0.1102 -0.4108  0.0403
 2296TIP3    H1 6852   6.086   4.107   2.214  0.8881  0.0575  0.5117
 2296TIP3    H2 6853   6.048   4.248   2.254  1.3888  0.4214 -0.2690
 2297TIP3   OH2 6854   1.841   2.623   1.680  0.0631  0.2575 -0.7305
 2297TIP3    H1 6855   1.748   2.624   1.704  0.2835 -0.8254  0.2644
 2297TIP3    H2 6856   1.857   2.535   1.647  1.3745 -0.6181  1.9805
 2298TIP3   OH2 6857   1.040   3.632   5.814 -0.6740  0.2903  0.1401
 2298TIP3    H1 6858   1.125   3.663   5.844 -0.3766 -0.1413 -0.2571
 2298TIP3    H2 6859   1.033   3.544   5.849 -1.2058  0.5242  0.6450
 2299TIP3   OH2 6860   2.656   6.429   2.553  0.0234  0.2337 -0.3554
 2299TIP3    H1 6861   2.640   6.382   2.472  1.6751 -1.0062 -0.0094
 2299TIP3    H2 6862   2.627   6.518   2.536 -0.2766 -0.1686 -2.0620
 2300TIP3   OH2 6863   1.041   4.352   4.075 -0.1205 -0.2933  0.1088
 2300TIP3    H1 6864   1.093   4.415   4.125 -1.3933  0.6055  0.3633
 2300TIP3    H2 6865   1.074   4.267   4.103  0.4956  0.2308  1.0553
 2301TIP3   OH2 6866   2.863   6.827   3.629  0.5226 -0.4572 -0.1347
 2301TIP3    H1 6867   2.799   6.834   3.699  1.7099 -1.5994  1.1128
 2301TIP3    H2 6868   2.850   6.740   3.592  1.1083 -0.5617 -0.1087
 2302TIP3   OH2 6869   3.759   5.757   2.826  0.0745 -0.3063 -0.0228
 2302TIP3    H1 6870   3.681   5.721   2.870 -1.3644  0.1677 -2.0399
 2302TIP3    H2 6871   3.813   5.681   2.806 -0.6104 -0.8149  0.0419
 2303TIP3   OH2 6872   0.499   4.154   0.074  0.0868 -0.4333 -0.1121
 2303TIP3    H1 6873   0.545   4.185  -0.004 -0.1277 -0.7514 -0.3671
 2303TIP3    H2 6874   0.410   4.188   0.065  0.0486 -0.5091 -0.0272
 2304TIP3   OH2 6875   4.058   1.059   2.946  0.2046 -0.1173 -0.1301
 2304TIP3    H1 6876   4.119   1.095   2.882 -1.1126 -0.6584 -1.7416
 2304TIP3    H2 6877   3.974   1.058   2.902 -1.5259  2.5522  2.6999
 2305TIP3   OH2 6878   6.814   2.739   1.691 -0.2130 -0.5777 -0.2422
 2305TIP3    H1 6879   6.728   2.720   1.653  0.4210  0.6206 -2.4334
 2305TIP3    H2 6880   6.795   2.761   1.782 -1.8587 -3.2521  0.2005
 2306TIP3   OH2 6881   2.172   5.183   1.238 -0.3456  0.5183 -0.2594
 2306TIP3    H1 6882   2.242   5.122   1.216  0.3217  1.2738 -0.3013
 2306TIP3    H2 6883   2.192   5.212   1.327 -0.8934  0.3600 -0.0801
 2307TIP3   OH2 6884   1.875   6.410   3.605  0.1859 -0.2533 -0.0976
 2307TIP3    H1 6885   1.825   6.346   3.554  0.0074  0.5864 -1.0063
 2307TIP3    H2 6886   1.933   6.452   3.541  1.8499 -0.9890  0.8800
 2308TIP3   OH2 6887   6.130   1.440   0.112 -0.1032 -0.2814  0.3505
 2308TIP3    H1 6888   6.171   1.360   0.147 -1.3716 -1.7384 -1.2770
 2308TIP3    H2 6889   6.058   1.457   0.172  1.3275  0.8812  1.8412
 2309TIP3   OH2 6890   1.061   2.983   0.883 -0.1767 -0.1432 -0.3068
 2309TIP3    H1 6891   1.155   2.967   0.882 -0.3559 -1.2177 -0.8133
 2309TIP3    H2 6892   1.050   3.065   0.834  0.3283 -1.0567 -2.0414
 2310TIP3   OH2 6893   5.219   4.028   3.291 -0.0212 -0.1880 -0.1872
 2310TIP3    H1 6894   5.220   3.962   3.222  1.2496 -0.7932  0.3682
 2310TIP3    H2 6895   5.229   3.977   3.372  0.5168  0.6526  0.2840
 2311TIP3   OH2 6896   1.549   2.276   4.529  0.3415  0.2330  0.6392
 2311TIP3    H1 6897   1.519   2.198   4.484 -0.6236  0.6887  0.4730
 2311TIP3    H2 6898   1.638   2.290   4.496 -0.1467  0.2527 -0.7422
 2312TIP3   OH2 6899   6.746   3.494   1.042 -0.2104  0.1424 -0.6455
 2312TIP3    H1 6900   6.755   3.411   1.090  2.2332  0.4192 -0.4800
 2312TIP3    H2 6901   6.718   3.556   1.109  0.6566 -0.0176 -0.1028
 2313TIP3   OH2 6902   6.407   6.445   3.630  0.2021  0.3510 -0.3716
 2313TIP3    H1 6903   6.419   6.512   3.562 -0.4972  0.9435  0.0684
 2313TIP3    H2 6904   6.335   6.478   3.683  1.1684  0.2410  1.0628
 2314TIP3   OH2 6905   2.598   3.429   4.625  0.4530 -0.1540 -0.5717
 2314TIP3    H1 6906   2.521   3.374   4.609  1.2794 -1.7962  0.7804
 2314TIP3    H2 6907   2.591   3.452   4.718  0.7389  1.1212 -0.8430
 2315TIP3   OH2 6908   5.134   5.255   0.264 -0.3818  0.3801 -0.3116
 2315TIP3    H1 6909   5.041   5.230   0.266 -0.6644  1.3811 -0.4458
 2315TIP3    H2 6910   5.133   5.351   0.259  0.6416  0.3515 -1.8077
 2316TIP3   OH2 6911   0.606   1.326   0.279 -0.5962  0.2768  0.1048
 2316TIP3    H1 6912   0.573   1.384   0.210  1.0581  0.8969 -0.2040
 2316TIP3    H2 6913   0.610   1.381   0.357  0.7319  0.5483 -0.1290
 2317TIP3   OH2 6914   2.017   1.715   2.993  0.1920  0.1449  0.1810
 2317TIP3    H1 6915   2.025   1.672   3.078 -0.6770 -0.9410 -0.2672
 2317TIP3    H2 6916   2.086   1.782   2.993  0.9261 -0.5923  1.2798
 2318TIP3   OH2 6917   5.164   4.291   5.629 -0.5185  0.3713  0.0235
 2318TIP3    H1 6918   5.215   4.233   5.572 -1.4934 -0.1654 -0.3342
 2318TIP3    H2 6919   5.121   4.232   5.691 -0.7313  0.8072  0.2946
 2319TIP3   OH2 6920   2.309   3.561   1.305 -0.0994  0.7922 -0.3002
 2319TIP3    H1 6921   2.239   3.500   1.330 -0.9564  1.4474 -1.0618
 2319TIP3    H2 6922   2.366   3.564   1.382 -0.6024 -0.1727  0.1322
 2320TIP3   OH2 6923   3.374   4.252   4.447 -0.1368  0.1732  0.0532
 2320TIP3    H1 6924   3.416   4.336   4.463  0.9280 -0.0113 -1.4763
 2320TIP3    H2 6925   3.286   4.261   4.482 -0.2768  2.1736 -0.7028
 2321TIP3   OH2 6926   0.466   0.804   0.442  0.4792  0.0279  0.9014
 2321TIP3    H1 6927   0.374   0.799   0.417  0.2132  2.0192  1.2919
 2321TIP3    H2 6928   0.469   0.875   0.506  2.6107  1.7614 -0.9261
 2322TIP3   OH2 6929   1.306   3.005   0.345  0.9607 -0.3360  0.2261
 2322TIP3    H1 6930   1.274   3.027   0.432  0.8301 -0.5830  0.2415
 2322TIP3    H2 6931   1.284   2.913   0.334  0.6140 -0.2058 -0.2244
 2323TIP3   OH2 6932   6.713   0.370   5.318  0.0931 -0.3095  0.1044
 2323TIP3    H1 6933   6.635   0.332   5.277 -0.2849 -1.3713  1.6753
 2323TIP3    H2 6934   6.770   0.393   5.245 -0.5832 -1.9760 -1.0256
 2324TIP3   OH2 6935   6.388   5.922   5.828  0.2960  1.1319  0.2763
 2324TIP3    H1 6936   6.459   5.984   5.815  1.0940  0.6901  2.1521
 2324TIP3    H2 6937   6.423   5.859   5.891 -0.7556 -0.7782 -0.9549
 2325TIP3   OH2 6938   0.499   1.009   2.778  0.3237 -0.4910 -0.2054
 2325TIP3    H1 6939   0.463   1.091   2.812  0.9125 -0.0022 -0.7293
 2325TIP3    H2 6940   0.422   0.960   2.748  0.0254  0.2056 -0.6016
 2326TIP3   OH2 6941   1.686   6.276   3.464 -0.4006 -0.6674 -0.1745
 2326TIP3    H1 6942   1.623   6.232   3.522 -0.8214  0.2238  0.0512
 2326TIP3    H2 6943   1.694   6.217   3.389 -3.4237  0.3140 -1.4302
 2327TIP3   OH2 6944   0.672   0.120   0.942 -0.1673 -0.1826  0.6194
 2327TIP3    H1 6945   0.740   0.108   0.876 -0.4187  1.2259  0.0704
 2327TIP3    H2 6946   0.717   0.161   1.016 -0.1934 -0.3438  0.7259
 2328TIP3   OH2 6947   3.735   2.178   2.162 -0.4574 -0.4510 -0.0196
 2328TIP3    H1 6948   3.657   2.229   2.181 -0.3989 -0.0069 -0.9478
 2328TIP3    H2 6949   3.806   2.243   2.159 -0.6308 -0.2579 -2.9369
 2329TIP3   OH2 6950   2.872   1.987   2.614 -0.0209  0.3220 -0.5317
 2329TIP3    H1 6951   2.848   1.965   2.524  0.9156 -1.3274 -0.4080
 2329TIP3    H2 6952   2.904   1.905   2.652 -0.1427  1.0466  1.2301
 2330TIP3   OH2 6953   4.965   4.425   2.209  0.1847 -0.3451 -0.3196
 2330TIP3    H1 6954   4.956   4.486   2.135 -0.7695 -0.4035 -0.2596
 2330TIP3    H2 6955   4.940   4.340   2.173  2.1458 -0.8641 -0.5820
 2331TIP3   OH2 6956   1.695   4.797   2.980  0.1731  0.0340  0.3879
 2331TIP3    H1 6957   1.739   4.736   3.038  2.4642  0.6128 -0.5999
 2331TIP3    H2 6958   1.764   4.829   2.923 -0.8751  3.6242  0.8975
 2332TIP3   OH2 6959   1.807   6.744   4.474  0.3849 -0.4770 -0.1668
 2332TIP3    H1 6960   1.887   6.767   4.427  0.7041 -0.2524  0.4723
 2332TIP3    H2 6961   1.801   6.649   4.466  1.1567 -0.5888  0.4611
 2333TIP3   OH2 6962   1.083   1.240   1.805 -0.4086  0.0356 -0.1246
 2333TIP3    H1 6963   1.154   1.214   1.863  0.3798 -2.8707 -2.1349
 2333TIP3    H2 6964   1.114   1.321   1.764  0.6300  0.1297  0.7973
 2334TIP3   OH2 6965   6.938   1.087   1.059  0.5832 -0.3518 -0.2851
 2334TIP3    H1 6966   6.981   1.172   1.058 -0.9618  0.4740  0.4097
 2334TIP3    H2 6967   6.946   1.055   0.969  1.2575  0.4680 -0.5302
 2335TIP3   OH2 6968   6.334   3.880   0.763 -0.1205 -0.6319 -0.5649
 2335TIP3    H1 6969   6.364   3.956   0.813 -0.0829 -1.8752  1.3906
 2335TIP3    H2 6970   6.242   3.871   0.786 -0.3767 -0.6493 -1.5328
 2336TIP3   OH2 6971   2.904   3.355   2.403 -0.4547 -0.1682 -0.2632
 2336TIP3    H1 6972   2.836   3.382   2.465 -1.2127 -0.5104 -0.9338
 2336TIP3    H2 6973   2.859   3.348   2.319  0.4498 -0.2347 -0.7576
 2337TIP3   OH2 6974   5.326   2.328   0.347  0.2871 -0.0344  0.4130
 2337TIP3    H1 6975   5.377   2.274   0.286  0.5973 -0.7804  1.3027
 2337TIP3    H2 6976   5.250   2.273   0.369 -0.3381  0.6290 -0.0512
 2338TIP3   OH2 6977   4.204   4.367   0.145  0.5527 -0.7129  0.3017
 2338TIP3    H1 6978   4.230   4.363   0.237  1.2983  0.9553  0.1925
 2338TIP3    H2 6979   4.225   4.456   0.118  1.3089 -1.4696 -1.7802
 2339TIP3   OH2 6980   4.981   0.351   1.069  0.9531  0.1696  0.2855
 2339TIP3    H1 6981   4.999   0.261   1.043  2.1751 -0.2365  2.3707
 2339TIP3    H2 6982   5.040   0.403   1.014 -0.3290 -0.1705 -1.5078
 2340TIP3   OH2 6983   4.798   2.884   3.647 -0.1853  0.0443 -0.3442
 2340TIP3    H1 6984   4.866   2.822   3.619  1.4749  1.2765  0.7688
 2340TIP3    H2 6985   4.808   2.890   3.742 -0.6574  1.5971 -0.3567
 2341TIP3   OH2 6986   1.177   1.081   5.301  0.2586 -0.4270  0.6126
 2341TIP3    H1 6987   1.260   1.062   5.257  1.3560 -0.8094  2.7417
 2341TIP3    H2 6988   1.110   1.045   5.242  1.6723 -1.3467 -0.5011
 2342TIP3   OH2 6989   6.330   1.869   4.167 -0.0944 -0.3451  0.1822
 2342TIP3    H1 6990   6.289   1.783   4.172 -1.8536  0.4516  0.0838
 2342TIP3    H2 6991   6.277   1.925   4.223  1.6665  0.4650  1.1214
 2343TIP3   OH2 6992   1.319   2.972   1.140  0.4183  0.4920  0.3794
 2343TIP3    H1 6993   1.325   2.920   1.221  1.6253  2.4217  1.6283
 2343TIP3    H2 6994   1.245   3.030   1.154 -1.8416 -1.6875 -1.6081
 2344TIP3   OH2 6995   3.411   1.673   3.475  0.0371 -0.1997  0.2298
 2344TIP3    H1 6996   3.438   1.748   3.421  1.9910 -1.4122 -0.5897
 2344TIP3    H2 6997   3.463   1.680   3.555 -0.0525 -0.4778  0.3155
 2345TIP3   OH2 6998   2.755   5.911   4.213 -0.0688 -0.0467  0.2610
 2345TIP3    H1 6999   2.762   5.938   4.304  1.9686  2.5777 -0.5584
 2345TIP3    H2 7000   2.668   5.942   4.186  0.5452  2.0299  0.5241
 2346TIP3   OH2 7001   0.709   6.447   2.432 -0.2679 -0.0768  0.2594
 2346TIP3    H1 7002   0.621   6.483   2.442 -0.0243  1.1568 -1.4490
 2346TIP3    H2 7003   0.759   6.484   2.504 -0.6029  1.1082 -0.1040
 2347TIP3   OH2 7004   0.087   1.211   0.043 -0.3355 -0.3227  0.5284
 2347TIP3    H1 7005   0.133   1.237  -0.037 -0.8997 -0.3085  0.2073
 2347TIP3    H2 7006   0.104   1.117   0.050  2.5991  0.2003  2.2595
 2348TIP3   OH2 7007   0.851   6.528   2.644 -0.2976  0.5841  0.8285
 2348TIP3    H1 7008   0.873   6.439   2.671 -1.5461  0.3642  1.1564
 2348TIP3    H2 7009   0.917   6.583   2.686  0.5726 -0.1907  0.4999
 2349TIP3   OH2 7010   4.739   0.571   2.729  0.1851  0.9889  0.0004
 2349TIP3    H1 7011   4.770   0.555   2.818  0.0262  1.2631  0.1090
 2349TIP3    H2 7012   4.734   0.667   2.723 -0.3473  0.9574 -0.1118
 2350TIP3   OH2 7013   4.571   2.550   3.087 -1.0295  0.2745 -0.4610
 2350TIP3    H1 7014   4.543   2.641   3.093  0.3233  0.6447  0.9860
 2350TIP3    H2 7015   4.656   2.554   3.042 -1.0521 -0.3022 -0.5703
 2351TIP3   OH2 7016   7.019   3.720   4.992 -0.0470 -0.3093 -0.3060
 2351TIP3    H1 7017   7.057   3.783   4.931 -1.7222  1.1548  0.0724
 2351TIP3    H2 7018   7.074   3.642   4.983  1.3515  0.7603 -1.7086
 2352TIP3   OH2 7019   3.803   1.589   2.593  0.2977  0.0581  1.1463
 2352TIP3    H1 7020   3.806   1.588   2.498 -0.2561 -2.2239  1.0914
 2352TIP3    H2 7021   3.887   1.551   2.620 -0.2396 -0.9300  1.4856
 2353TIP3   OH2 7022   2.219   1.377   1.090  0.8151 -0.0956 -0.4152
 2353TIP3    H1 7023   2.291   1.316   1.070  1.4640  0.8460 -1.0340
 2353TIP3    H2 7024   2.256   1.437   1.154  0.0465 -0.5649  0.4912
 2354TIP3   OH2 7025   5.128   0.156   5.286 -0.4766 -0.4213 -0.3006
 2354TIP3    H1 7026   5.173   0.075   5.260 -0.2125  0.2128 -1.9269
 2354TIP3    H2 7027   5.037   0.140   5.263 -0.6473 -0.7282  0.5720
 2355TIP3   OH2 7028   4.963   6.736   1.623 -0.2080  0.6837 -0.6315
 2355TIP3    H1 7029   4.934   6.823   1.595  0.8550  0.9186 -1.0298
 2355TIP3    H2 7030   4.898   6.709   1.688 -1.4014  1.1356 -1.5808
 2356TIP3   OH2 7031   0.991   6.271   1.987 -0.1378 -0.1830 -0.0974
 2356TIP3    H1 7032   1.061   6.309   2.040  1.3904  0.6213 -2.5220
 2356TIP3    H2 7033   1.000   6.177   2.000  0.9241 -0.0552  0.2135
 2357TIP3   OH2 7034   2.786   6.515   4.395  0.1731 -0.6040  0.4732
 2357TIP3    H1 7035   2.817   6.586   4.339  1.0405  0.8743  2.6518
 2357TIP3    H2 7036   2.691   6.525   4.398  0.1878 -0.2664 -0.1552
 2358TIP3   OH2 7037   0.352   1.651   2.077 -0.0587  0.2104 -0.0967
 2358TIP3    H1 7038   0.323   1.696   2.156 -0.0252 -1.9202  1.1829
 2358TIP3    H2 7039   0.273   1.608   2.043  0.4756 -1.1882  0.3833
 2359TIP3   OH2 7040   0.172   4.992   0.799  0.1929 -0.0700  0.6333
 2359TIP3    H1 7041   0.108   5.038   0.746  0.4332  0.4856  0.8180
 2359TIP3    H2 7042   0.220   5.061   0.844  0.7509 -0.4869  0.6911
 2360TIP3   OH2 7043   4.540   0.077   3.413  0.0338  0.0348  0.1016
 2360TIP3    H1 7044   4.519   0.053   3.503 -0.0209  0.3031  0.1627
 2360TIP3    H2 7045   4.490   0.158   3.398 -0.9940 -0.7155 -0.6063
 2361TIP3   OH2 7046   3.889   3.090   2.158 -0.5859  0.2211  0.3056
 2361TIP3    H1 7047   3.823   3.139   2.110 -1.7969 -2.3349 -0.8619
 2361TIP3    H2 7048   3.931   3.035   2.091  2.1039  1.0273  1.1848
 2362TIP3   OH2 7049   5.976   1.067   0.637  0.2450 -0.2617 -0.3351
 2362TIP3    H1 7050   5.996   1.092   0.727  2.0000 -0.4601 -0.6311
 2362TIP3    H2 7051   5.881   1.074   0.631  0.2664  2.0053  0.8584
 2363TIP3   OH2 7052   5.980   1.822   0.949 -0.4777 -0.3536 -0.0025
 2363TIP3    H1 7053   5.999   1.759   1.019 -0.9137 -0.3477  0.1248
 2363TIP3    H2 7054   5.938   1.895   0.994 -0.7862 -0.3628 -0.2769
 2364TIP3   OH2 7055   4.765   0.823   0.102 -0.6383 -0.4112 -0.3506
 2364TIP3    H1 7056   4.792   0.746   0.153 -0.3566 -0.7078 -0.9413
 2364TIP3    H2 7057   4.842   0.880   0.102  0.0302 -1.2391 -2.0005
 2365TIP3   OH2 7058   1.701   1.276   1.481 -0.0824  0.1524  0.1799
 2365TIP3    H1 7059   1.714   1.312   1.569  0.8580 -0.0262  0.1268
 2365TIP3    H2 7060   1.769   1.209   1.473  0.5395  0.8909 -1.0618
 2366TIP3   OH2 7061   0.776   3.126   1.661 -0.0588 -0.4303  0.2897
 2366TIP3    H1 7062   0.712   3.152   1.594  1.4295  0.1154 -0.9875
 2366TIP3    H2 7063   0.794   3.034   1.642  0.1358 -0.3566  0.0988
 2367TIP3   OH2 7064   0.761   2.341   1.441 -0.2427  0.4778  0.0277
 2367TIP3    H1 7065   0.814   2.306   1.369  0.0632  1.7648 -0.4021
 2367TIP3    H2 7066   0.698   2.271   1.461  0.8788 -0.6299 -0.2137
 2368TIP3   OH2 7067   0.099   3.051   3.238  0.0231 -0.5219  0.1277
 2368TIP3    H1 7068   0.050   3.108   3.296  2.5278  1.3160  0.5657
 2368TIP3    H2 7069   0.037   3.031   3.167 -1.6288  0.9060  1.0883
 2369TIP3   OH2 7070   4.898   3.136   2.167 -0.0380  0.1025 -0.0752
 2369TIP3    H1 7071   4.874   3.212   2.221  0.7733  1.0818 -1.0398
 2369TIP3    H2 7072   4.981   3.106   2.203  0.4198  0.6544 -0.6286
 2370TIP3   OH2 7073   2.175   1.032   0.924 -0.4389 -0.5522 -0.1658
 2370TIP3    H1 7074   2.252   1.057   0.975 -1.2047  3.4104 -0.6644
 2370TIP3    H2 7075   2.211   0.989   0.846  1.0747 -0.9652  0.7140
 2371TIP3   OH2 7076   6.589   4.017   1.407 -0.0607  0.4220  0.2813
 2371TIP3    H1 7077   6.632   4.079   1.467 -0.4121 -0.0508  1.0359
 2371TIP3    H2 7078   6.641   4.022   1.327  2.0750 -0.8734  1.4609
 2372TIP3   OH2 7079   3.276   4.295   0.069  0.4151  0.2181  0.8135
 2372TIP3    H1 7080   3.258   4.242  -0.009  0.3399  0.9980  0.2903
 2372TIP3    H2 7081   3.203   4.277   0.128  0.5315 -0.4631  0.7507
 2373TIP3   OH2 7082   3.131   4.731   3.207  0.3026 -0.2457  0.6317
 2373TIP3    H1 7083   3.084   4.782   3.274 -0.3013 -0.0654  0.0777
 2373TIP3    H2 7084   3.221   4.727   3.240  0.0909  0.1243  1.2938
 2374TIP3   OH2 7085   1.978   3.073   0.496 -0.0645  0.4173 -0.0876
 2374TIP3    H1 7086   1.896   3.073   0.543  0.5026  0.4409  0.9274
 2374TIP3    H2 7087   2.004   3.166   0.493 -0.6028  0.5479 -1.3805
 2375TIP3   OH2 7088   6.183   0.441   2.799 -0.2639 -0.3188  0.2748
 2375TIP3    H1 7089   6.217   0.510   2.742  1.2458 -1.1227  0.1612
 2375TIP3    H2 7090   6.186   0.362   2.745  0.5218 -0.9572  1.2197
 2376TIP3   OH2 7091   0.427   6.705   5.027  0.4034  0.4196 -0.1403
 2376TIP3    H1 7092   0.357   6.732   5.087 -1.4341  1.1519 -2.4299
 2376TIP3    H2 7093   0.434   6.778   4.965  2.8111  0.0662 -0.3593
 2377TIP3   OH2 7094   4.588   5.283   3.771 -0.3394 -0.2560  0.3064
 2377TIP3    H1 7095   4.673   5.325   3.759 -1.0183  0.7911 -1.1413
 2377TIP3    H2 7096   4.605   5.189   3.761  0.4963  0.0166 -1.1121
 2378TIP3   OH2 7097   5.879   5.034   1.763  0.1535 -0.0814 -0.0146
 2378TIP3    H1 7098   5.910   5.125   1.762  0.9343 -0.3396 -0.9319
 2378TIP3    H2 7099   5.959   4.982   1.755 -0.4140 -0.7967 -1.3961
 2379TIP3   OH2 7100   3.916   1.121   4.860 -0.1872  0.6130 -0.4957
 2379TIP3    H1 7101   3.898   1.113   4.766  2.7594 -2.9173 -0.9962
 2379TIP3    H2 7102   3.902   1.032   4.894 -1.4366  1.8530  2.5692
 2380TIP3   OH2 7103   6.009   5.521   2.413  0.3346 -0.3832  0.0525
 2380TIP3    H1 7104   5.916   5.532   2.390  0.4961 -0.1659 -0.5257
 2380TIP3    H2 7105   6.049   5.484   2.334  0.5159 -1.6316  0.7225
 2381TIP3   OH2 7106   1.562   2.627   1.679 -0.1012 -0.1129  0.1888
 2381TIP3    H1 7107   1.545   2.704   1.625 -2.1083  1.2879  2.6317
 2381TIP3    H2 7108   1.494   2.565   1.654  0.2009 -0.2657 -0.2667
 2382TIP3   OH2 7109   4.808   0.107   2.467  0.8980  0.3156  0.2457
 2382TIP3    H1 7110   4.787   0.134   2.377  1.5487 -0.2450 -0.0818
 2382TIP3    H2 7111   4.772   0.176   2.522  1.1844  1.0665 -0.4956
 2383TIP3   OH2 7112   4.565   2.692   2.226 -0.4514  0.8793 -0.6859
 2383TIP3    H1 7113   4.525   2.666   2.143 -0.1995 -1.9470 -0.0348
 2383TIP3    H2 7114   4.627   2.761   2.203 -0.2500  0.0490 -2.8878
 2384TIP3   OH2 7115   6.463   6.264   3.931  0.0704 -0.2673  0.0794
 2384TIP3    H1 7116   6.429   6.300   4.013  0.3567 -0.2192  0.1780
 2384TIP3    H2 7117   6.389   6.266   3.871  0.2865  1.3010 -0.1816
 2385TIP3   OH2 7118   3.076   2.852   4.495  0.0181 -0.2337  0.3086
 2385TIP3    H1 7119   3.069   2.901   4.413 -1.4880  0.2019  0.6730
 2385TIP3    H2 7120   3.127   2.774   4.472  1.3587  0.8412 -0.5685
 2386TIP3   OH2 7121   0.624   3.022   4.198  0.6231  0.0271 -0.7402
 2386TIP3    H1 7122   0.597   2.933   4.178  0.0313  0.5424 -2.4110
 2386TIP3    H2 7123   0.645   3.060   4.113  1.1026  1.4072 -0.0318
 2387TIP3   OH2 7124   6.009   3.419   1.713 -0.2719  0.3867 -0.0917
 2387TIP3    H1 7125   6.017   3.514   1.711 -0.4415  0.3970 -0.5775
 2387TIP3    H2 7126   6.073   3.390   1.777 -1.1416  0.9217  1.0550
 2388TIP3   OH2 7127   1.762   3.258   2.299  0.5789 -0.3373 -0.7824
 2388TIP3    H1 7128   1.772   3.196   2.226 -2.2434 -1.2743 -0.4752
 2388TIP3    H2 7129   1.796   3.210   2.375  1.9692  0.0144 -1.1452
 2389TIP3   OH2 7130   4.293   3.233   2.123 -0.1632 -0.0230 -0.6319
 2389TIP3    H1 7131   4.244   3.187   2.191 -0.5853  0.1609 -0.8086
 2389TIP3    H2 7132   4.344   3.299   2.170 -0.0267 -0.2638 -0.4403
 2390TIP3   OH2 7133   1.893   3.882   1.601  0.0593 -1.1615  0.2850
 2390TIP3    H1 7134   1.945   3.862   1.679 -1.0663 -3.1932  0.5821
 2390TIP3    H2 7135   1.955   3.924   1.541  1.3194 -0.9556  1.6794
 2391TIP3   OH2 7136   3.879   3.089   4.634 -0.1232  0.3050  0.0683
 2391TIP3    H1 7137   3.863   3.183   4.634  1.1335  0.5522 -0.9088
 2391TIP3    H2 7138   3.970   3.080   4.661 -0.9102 -0.8318  2.6494
 2392TIP3   OH2 7139   3.739   1.996   4.186 -0.2115 -0.4856 -0.5885
 2392TIP3    H1 7140   3.661   1.955   4.224  0.2434 -2.1686 -1.4001
 2392TIP3    H2 7141   3.808   1.984   4.251  0.1403 -1.8477 -1.1832
 2393TIP3   OH2 7142   6.672   4.610   5.479  0.1002  0.3509 -0.2869
 2393TIP3    H1 7143   6.648   4.701   5.463 -0.0970  0.2678 -0.4621
 2393TIP3    H2 7144   6.748   4.615   5.537 -1.4577  0.5822  1.8668
 2394TIP3   OH2 7145   3.507   6.764   5.104 -0.3345  0.4954 -0.1207
 2394TIP3    H1 7146   3.587   6.817   5.106 -0.5396  0.8238 -0.6038
 2394TIP3    H2 7147   3.492   6.747   5.011 -0.6349  0.1371 -0.0085
 2395TIP3   OH2 7148   1.325   3.340   4.426  0.0271 -0.0846 -0.3347
 2395TIP3    H1 7149   1.416   3.355   4.402  1.1220 -1.2222  2.6354
 2395TIP3    H2 7150   1.330   3.296   4.511 -3.3052 -0.4477 -0.2112
 2396TIP3   OH2 7151   4.282   4.280   1.564 -0.4049  0.1440 -0.7880
 2396TIP3    H1 7152   4.241   4.230   1.634  0.4748 -0.3433 -0.6124
 2396TIP3    H2 7153   4.271   4.226   1.486  0.5726 -0.3549 -0.5922
 2397TIP3   OH2 7154   2.140   0.795   3.193 -0.3611 -0.0219  0.4387
 2397TIP3    H1 7155   2.145   0.728   3.262 -0.4622  0.7690  1.2365
 2397TIP3    H2 7156   2.176   0.874   3.234  1.8260 -0.0958 -1.1600
 2398TIP3   OH2 7157   5.577   5.216   4.563 -0.4216  0.2032  0.0233
 2398TIP3    H1 7158   5.509   5.172   4.511  0.0326 -0.1701 -0.2625
 2398TIP3    H2 7159   5.540   5.220   4.651 -0.3475 -1.0591  0.1316
 2399TIP3   OH2 7160   0.917   1.576   4.160  0.3768  0.0312 -0.2096
 2399TIP3    H1 7161   0.952   1.664   4.175  2.2916 -0.9226  1.2128
 2399TIP3    H2 7162   0.957   1.548   4.077  1.0353 -0.1092  0.1544
 2400TIP3   OH2 7163   3.238   3.231   5.376  0.3962 -0.6074 -0.2211
 2400TIP3    H1 7164   3.174   3.233   5.305 -1.8803 -3.7587  1.4724
 2400TIP3    H2 7165   3.238   3.140   5.406  3.6383 -0.1228  1.7747
 2401TIP3   OH2 7166   3.172   3.327   2.505 -0.5271 -0.0330 -0.1394
 2401TIP3    H1 7167   3.164   3.308   2.599  0.7230  0.2345  0.0396
 2401TIP3    H2 7168   3.083   3.350   2.478 -0.8915 -0.0116  0.9981
 2402TIP3   OH2 7169   6.904   5.300   1.894 -0.0958  0.4107 -0.0572
 2402TIP3    H1 7170   6.949   5.274   1.973 -1.4445 -0.1018  0.5731
 2402TIP3    H2 7171   6.911   5.225   1.835 -1.1139 -0.1378  0.4934
 2403TIP3   OH2 7172   5.441   4.549   2.125  0.1013 -0.4789 -0.1894
 2403TIP3    H1 7173   5.468   4.467   2.167  1.6546  0.4265  0.6889
 2403TIP3    H2 7174   5.523   4.587   2.094 -0.4073  1.3792  0.6233
 2404TIP3   OH2 7175   2.509   6.059   1.360 -0.6859  0.4047 -0.2130
 2404TIP3    H1 7176   2.603   6.074   1.373 -0.5828 -0.4827  0.1816
 2404TIP3    H2 7177   2.493   6.085   1.269  0.1090 -0.1498 -0.5251
 2405TIP3   OH2 7178   0.683   5.823   3.508  0.6895  0.9920 -0.0800
 2405TIP3    H1 7179   0.617   5.767   3.468  1.4151  0.9050 -1.2095
 2405TIP3    H2 7180   0.762   5.769   3.508  1.6394  2.2639 -2.0345
 2406TIP3   OH2 7181   0.896   4.995   2.779 -0.2736  0.2687  0.2391
 2406TIP3    H1 7182   0.899   4.949   2.696 -0.7563  0.6239  0.0174
 2406TIP3    H2 7183   0.893   4.926   2.845  0.1006 -0.0149 -0.0351
 2407TIP3   OH2 7184   5.271   2.842   1.727 -0.0821 -0.2627 -0.7826
 2407TIP3    H1 7185   5.290   2.933   1.747 -2.9471  0.4865 -1.0048
 2407TIP3    H2 7186   5.308   2.828   1.639  1.7746  0.1402 -0.1080
 2408TIP3   OH2 7187   2.861   3.326   3.081  0.0424  0.1892  0.2609
 2408TIP3    H1 7188   2.886   3.302   3.171  1.1586 -0.7174 -0.2616
 2408TIP3    H2 7189   2.792   3.264   3.058  1.0936 -0.8705 -0.1565
 2409TIP3   OH2 7190   4.446   2.769   1.900  0.5624  0.5541  0.8627
 2409TIP3    H1 7191   4.518   2.707   1.889  0.5713  0.7568 -0.3067
 2409TIP3    H2 7192   4.379   2.740   1.838 -0.1839  0.6591  1.5915
 2410TIP3   OH2 7193   6.991   0.758   4.535 -0.1452 -0.3755 -0.1215
 2410TIP3    H1 7194   7.027   0.680   4.493  0.8086 -0.9243  1.6418
 2410TIP3    H2 7195   6.938   0.800   4.466  1.6782 -0.9766 -1.9965
 2411TIP3   OH2 7196   4.822   4.050   2.884  0.2172  0.1875  1.1396
 2411TIP3    H1 7197   4.771   4.068   2.963 -1.4028 -0.0880  0.1966
 2411TIP3    H2 7198   4.796   4.118   2.823  1.7222  0.6054  0.9394
 2412TIP3   OH2 7199   5.370   2.750   0.481  0.0809  0.4514  0.0602
 2412TIP3    H1 7200   5.307   2.689   0.442  2.9722 -2.4618 -0.4918
 2412TIP3    H2 7201   5.391   2.712   0.566  2.0788  0.5028 -0.3583
 2413TIP3   OH2 7202   2.085   3.336   1.581  0.5823 -0.1490 -0.1062
 2413TIP3    H1 7203   2.014   3.400   1.576  1.7257  1.1052 -1.1376
 2413TIP3    H2 7204   2.041   3.251   1.578 -0.9258  0.5767  0.4396
 2414TIP3   OH2 7205   1.997   5.220   3.355  0.5089 -0.1227  0.3682
 2414TIP3    H1 7206   1.929   5.159   3.385  0.7258 -0.9961 -0.8210
 2414TIP3    H2 7207   2.065   5.214   3.421  0.2749 -0.7512  0.5663
 2415TIP3   OH2 7208   3.186   1.220   1.683 -0.1332  0.3067  0.2264
 2415TIP3    H1 7209   3.214   1.202   1.594  2.1468  1.1524  0.7008
 2415TIP3    H2 7210   3.267   1.219   1.734 -1.3440  0.1005  2.2548
 2416TIP3   OH2 7211   6.678   5.008   0.466 -0.0053  0.3962 -0.0987
 2416TIP3    H1 7212   6.633   5.061   0.399 -1.3235  0.8384  1.0754
 2416TIP3    H2 7213   6.613   5.000   0.536  2.1281  2.0483  2.2196
 2417TIP3   OH2 7214   0.576   2.298   4.960  0.2540  0.4661 -0.2235
 2417TIP3    H1 7215   0.657   2.253   4.981  1.1262  2.6894  1.5249
 2417TIP3    H2 7216   0.530   2.306   5.044 -0.7642  1.0861 -0.8158
 2418TIP3   OH2 7217   1.563   0.896   2.407 -0.2499  0.3189 -0.3137
 2418TIP3    H1 7218   1.503   0.890   2.332 -1.7094  0.2541  0.8098
 2418TIP3    H2 7219   1.564   0.807   2.443  1.2016  0.1174 -0.7811
 2419TIP3   OH2 7220   4.588   1.734   0.305 -0.4102  0.0275 -0.1984
 2419TIP3    H1 7221   4.665   1.689   0.271  0.6306  1.9469 -0.5100
 2419TIP3    H2 7222   4.557   1.787   0.231 -0.6748  1.0029  0.6003
 2420TIP3   OH2 7223   2.452   4.213   2.227 -0.1859  0.1460  0.0696
 2420TIP3    H1 7224   2.492   4.151   2.166  0.4926  1.1223 -0.4896
 2420TIP3    H2 7225   2.445   4.295   2.178 -3.3434 -0.0585 -0.0384
 2421TIP3   OH2 7226   1.602   4.062   5.181  0.0159  0.2379 -0.0633
 2421TIP3    H1 7227   1.647   3.991   5.228  0.8385  1.0088  0.3494
 2421TIP3    H2 7228   1.556   4.018   5.110 -0.4032 -0.8442  0.8312
 2422TIP3   OH2 7229   1.414   5.445   1.527 -0.0424  0.0018  0.0115
 2422TIP3    H1 7230   1.429   5.516   1.590 -1.7325 -0.5733  1.1303
 2422TIP3    H2 7231   1.339   5.474   1.475  0.8116  0.0948 -1.2158
 2423TIP3   OH2 7232   1.121   3.207   3.358  0.2270 -0.0971 -0.3478
 2423TIP3    H1 7233   1.096   3.152   3.432  0.5222 -0.9137 -0.8309
 2423TIP3    H2 7234   1.198   3.163   3.321  0.6570  0.8256 -0.5624
 2424TIP3   OH2 7235   3.961   1.613   0.882 -0.2218 -0.0082  0.1409
 2424TIP3    H1 7236   3.868   1.609   0.864 -0.4889 -1.4298  1.5736
 2424TIP3    H2 7237   3.967   1.645   0.972  0.7420  1.1924 -0.3205
 2425TIP3   OH2 7238   2.543   2.304   2.690  0.1051 -0.6752 -0.4799
 2425TIP3    H1 7239   2.588   2.363   2.751 -0.3427 -0.3831 -0.4240
 2425TIP3    H2 7240   2.580   2.218   2.708  0.4204 -0.4886 -0.2241
 2426TIP3   OH2 7241   3.674   5.454   5.227  0.2256  0.1330 -0.0953
 2426TIP3    H1 7242   3.692   5.544   5.257  1.0297 -0.0486 -0.0144
 2426TIP3    H2 7243   3.678   5.401   5.307  0.9572 -0.1494 -0.3177
 2427TIP3   OH2 7244   3.872   1.057   2.698 -0.1156 -0.7216 -0.2951
 2427TIP3    H1 7245   3.787   1.013   2.700  0.1804 -1.2897  0.0813
 2427TIP3    H2 7246   3.851   1.150   2.688 -0.9264 -0.4791  2.6749
 2428TIP3   OH2 7247   1.614   0.116   4.676 -0.0177  0.3263  0.1847
 2428TIP3    H1 7248   1.652   0.072   4.752 -0.7282  0.1971  0.4678
 2428TIP3    H2 7249   1.586   0.045   4.618  0.0230  0.4219  0.0455
 2429TIP3   OH2 7250   6.808   0.545   0.368  0.0649 -0.0017  0.6051
 2429TIP3    H1 7251   6.816   0.454   0.397 -0.4708 -0.1001  0.4550
 2429TIP3    H2 7252   6.719   0.551   0.334  0.0973  0.5838  0.6226
 2430TIP3   OH2 7253   0.593   2.679   0.626 -0.4066  0.2637  0.5078
 2430TIP3    H1 7254   0.571   2.631   0.545  1.6770 -1.9160  1.1065
 2430TIP3    H2 7255   0.662   2.739   0.600 -0.9687  0.8655  0.3601
 2431TIP3   OH2 7256   5.992   5.376   5.552  0.4590 -0.1912 -0.5418
 2431TIP3    H1 7257   5.952   5.460   5.575 -1.1016 -1.0364 -0.0607
 2431TIP3    H2 7258   6.082   5.383   5.585 -0.2003  0.6012  1.2234
 2432TIP3   OH2 7259   1.604   6.604   0.530  0.5263  0.2575  0.9252
 2432TIP3    H1 7260   1.619   6.626   0.438 -0.5121  0.4055  0.7778
 2432TIP3    H2 7261   1.602   6.509   0.531 -1.2971  0.2465  0.4438
 2433TIP3   OH2 7262   0.269   4.901   2.094  0.3502  0.3481  0.7834
 2433TIP3    H1 7263   0.285   4.893   2.000  0.9341 -1.6883  1.0084
 2433TIP3    H2 7264   0.353   4.930   2.131 -0.1045  1.9528  0.6202
 2434TIP3   OH2 7265   1.097   4.160   0.832  0.4577 -0.4882 -0.2236
 2434TIP3    H1 7266   1.091   4.077   0.786 -0.3786 -1.0055  0.7799
 2434TIP3    H2 7267   1.118   4.224   0.764  2.4042 -1.6892 -0.8140
 2435TIP3   OH2 7268   6.901   3.916   2.717  0.0670 -0.0907  0.1794
 2435TIP3    H1 7269   6.826   3.942   2.663  0.7538  0.5033 -0.5234
 2435TIP3    H2 7270   6.899   3.975   2.792 -0.7252 -0.7271  0.6721
 2436TIP3   OH2 7271   2.836   2.599   0.277  0.0037 -0.0756 -0.2438
 2436TIP3    H1 7272   2.897   2.618   0.348  0.3271 -0.7457 -0.3333
 2436TIP3    H2 7273   2.762   2.557   0.319  0.1226 -0.3237 -0.2821
 2437TIP3   OH2 7274   0.786   6.565   4.257  0.1525  0.3418 -0.2012
 2437TIP3    H1 7275   0.819   6.651   4.285  0.1608  0.8187 -1.6072
 2437TIP3    H2 7276   0.843   6.540   4.185  0.0755 -0.8142  0.1268
 2438TIP3   OH2 7277   2.973   1.451   1.085  0.9434 -0.0041 -0.5029
 2438TIP3    H1 7278   2.949   1.374   1.034 -1.0790  0.0480  0.2561
 2438TIP3    H2 7279   3.019   1.415   1.162 -0.3446 -0.5277  0.0518
 2439TIP3   OH2 7280   3.732   1.348   5.744 -0.6368  0.8290  0.1248
 2439TIP3    H1 7281   3.723   1.438   5.774  1.1236  1.4386 -0.9970
 2439TIP3    H2 7282   3.817   1.346   5.700  0.0105 -1.7294  1.3100
 2440TIP3   OH2 7283   0.160   2.801   3.822  0.2795  0.0867 -0.0509
 2440TIP3    H1 7284   0.121   2.873   3.872  1.2113  0.4463  0.1746
 2440TIP3    H2 7285   0.134   2.723   3.871 -1.8737  0.1160 -1.0312
 2441TIP3   OH2 7286   4.382   4.150   1.047 -0.3207 -0.2046  0.2572
 2441TIP3    H1 7287   4.456   4.089   1.047 -0.0104  0.1582 -0.2657
 2441TIP3    H2 7288   4.334   4.129   0.967  0.2958  0.8134 -0.4158
 2442TIP3   OH2 7289   4.208   3.557   0.890 -1.1958  0.6159 -0.3711
 2442TIP3    H1 7290   4.266   3.633   0.893 -0.0161 -0.2824  2.2440
 2442TIP3    H2 7291   4.124   3.590   0.921 -0.1102  0.5307  3.0290
 2443TIP3   OH2 7292   2.833   4.609   4.149 -0.7598 -0.0758  0.6120
 2443TIP3    H1 7293   2.869   4.670   4.084 -0.3118 -0.6888  0.2772
 2443TIP3    H2 7294   2.910   4.580   4.198 -0.5631 -2.4201 -0.9576
 2444TIP3   OH2 7295   2.642   4.734   1.072 -0.0023 -0.4000 -0.0652
 2444TIP3    H1 7296   2.661   4.781   1.153  3.6957  0.0564 -0.9986
 2444TIP3    H2 7297   2.655   4.642   1.094  2.7261 -0.1679 -0.4039
 2445TIP3   OH2 7298   6.047   6.443   3.936  0.6842 -0.4411 -0.1306
 2445TIP3    H1 7299   6.105   6.508   3.895 -0.1891 -0.3519 -1.2687
 2445TIP3    H2 7300   6.084   6.359   3.910  0.8614 -0.3847 -0.0601
 2446TIP3   OH2 7301   2.635   0.915   1.014 -0.3935 -0.2054  0.3376
 2446TIP3    H1 7302   2.639   0.826   1.051 -0.4550  0.1467  1.2227
 2446TIP3    H2 7303   2.707   0.962   1.056 -1.5133  0.6817  1.3590
 2447TIP3   OH2 7304   1.453   0.862   4.592  0.3158 -0.2020 -0.2824
 2447TIP3    H1 7305   1.433   0.833   4.681 -2.2856  0.5033 -0.5536
 2447TIP3    H2 7306   1.367   0.875   4.551  1.3832  2.2951 -1.9765
 2448TIP3   OH2 7307   1.487   6.351   0.581  0.0829 -0.1910  0.0241
 2448TIP3    H1 7308   1.533   6.281   0.533 -1.9224 -1.6609  0.1368
 2448TIP3    H2 7309   1.409   6.368   0.529 -0.0630  1.1403  0.6525
 2449TIP3   OH2 7310   6.758   0.219   2.801  0.5720  0.0232  0.3425
 2449TIP3    H1 7311   6.822   0.287   2.782 -1.1481  1.3638 -1.0308
 2449TIP3    H2 7312   6.698   0.222   2.726 -0.3598 -2.0696  0.9324
 2450TIP3   OH2 7313   1.770   4.161   2.341 -0.2109 -0.0718 -0.2019
 2450TIP3    H1 7314   1.725   4.106   2.277 -0.8768 -1.0997  1.1155
 2450TIP3    H2 7315   1.701   4.211   2.383 -0.0130 -0.7962  1.0183
 2451TIP3   OH2 7316   6.654   5.046   1.485 -0.2681 -0.2251  0.4585
 2451TIP3    H1 7317   6.621   5.087   1.564 -1.2471 -0.5608  0.2390
 2451TIP3    H2 7318   6.585   5.061   1.420  0.2161 -0.5477 -0.1366
 2452TIP3   OH2 7319   3.473   1.773   5.273  0.5813 -0.2373 -0.4136
 2452TIP3    H1 7320   3.390   1.738   5.241  0.5662 -0.4861 -0.1100
 2452TIP3    H2 7321   3.477   1.862   5.237 -1.1358  0.8254  1.8084
 2453TIP3   OH2 7322   0.274   2.121   2.973 -0.1253 -0.0686 -0.0166
 2453TIP3    H1 7323   0.195   2.109   3.026  0.8194 -0.8093  1.3218
 2453TIP3    H2 7324   0.316   2.198   3.011 -0.3676  0.5176 -0.9369
 2454TIP3   OH2 7325   5.385   2.941   3.217 -0.4340  0.3548 -0.1884
 2454TIP3    H1 7326   5.302   2.982   3.191  0.3552  1.5584 -0.9536
 2454TIP3    H2 7327   5.363   2.885   3.291 -1.7321  1.5903  0.4106
 2455TIP3   OH2 7328   6.355   4.736   4.570  0.2490 -0.0445  0.0517
 2455TIP3    H1 7329   6.327   4.653   4.533  1.0184  0.0456 -0.7702
 2455TIP3    H2 7330   6.304   4.745   4.651 -0.7926 -0.6829 -0.5152
 2456TIP3   OH2 7331   3.760   2.619   0.083  0.0285 -0.1444  0.3523
 2456TIP3    H1 7332   3.748   2.545   0.143 -2.4833 -0.5628 -0.5395
 2456TIP3    H2 7333   3.834   2.594   0.028  1.1974 -0.5680  2.0335
 2457TIP3   OH2 7334   2.124   4.515   1.632  0.1347  0.2151  0.3793
 2457TIP3    H1 7335   2.097   4.570   1.706  1.3162  0.7512  0.4356
 2457TIP3    H2 7336   2.128   4.575   1.558  0.5134  0.0122  0.2324
 2458TIP3   OH2 7337   5.876   4.372   4.321  0.4651 -0.0043  0.2260
 2458TIP3    H1 7338   5.876   4.288   4.367  1.2560  0.4085  1.0034
 2458TIP3    H2 7339   5.804   4.422   4.361 -0.1991 -0.4074 -0.4419
 2459TIP3   OH2 7340   3.057   6.524   1.567 -0.6373 -0.1275  0.1877
 2459TIP3    H1 7341   2.963   6.509   1.570 -0.4248 -1.4323  2.3839
 2459TIP3    H2 7342   3.076   6.571   1.648  0.4789  1.0754 -0.7371
 2460TIP3   OH2 7343   4.275   4.609   0.071 -0.5598 -0.2879 -0.1212
 2460TIP3    H1 7344   4.264   4.647  -0.016 -0.6490  1.4514  0.6129
 2460TIP3    H2 7345   4.343   4.663   0.112 -0.4446 -1.1540  0.8631
 2461TIP3   OH2 7346   5.187   3.626   2.402 -0.1424 -0.4524  0.0449
 2461TIP3    H1 7347   5.259   3.674   2.445 -0.2289 -0.1438 -0.1548
 2461TIP3    H2 7348   5.187   3.540   2.445 -0.7061  0.1034  1.1925
 2462TIP3   OH2 7349   6.488   5.788   4.136  0.1846  0.0149 -0.3497
 2462TIP3    H1 7350   6.436   5.775   4.216 -0.0581 -0.2289 -0.5435
 2462TIP3    H2 7351   6.552   5.855   4.160 -2.2434  2.7840 -1.0117
 2463TIP3   OH2 7352   5.141   3.420   5.103 -0.0998 -0.2200  0.5770
 2463TIP3    H1 7353   5.080   3.480   5.060 -0.8217 -1.8032 -0.7323
 2463TIP3    H2 7354   5.150   3.347   5.041  1.5817 -0.9607  1.6260
 2464TIP3   OH2 7355   1.314   1.272   5.452 -0.5368 -0.2374  0.1456
 2464TIP3    H1 7356   1.245   1.306   5.395  0.5819  0.8302 -0.6116
 2464TIP3    H2 7357   1.324   1.181   5.425 -1.3100 -0.2704 -0.0632
 2465TIP3   OH2 7358   3.644   0.331   3.432  0.4519  0.0823  0.4021
 2465TIP3    H1 7359   3.584   0.397   3.466 -0.0618 -0.5120  0.6649
 2465TIP3    H2 7360   3.725   0.379   3.414 -0.5725  1.2423 -1.4895
 2466TIP3   OH2 7361   0.639   3.284   2.154 -0.2435 -0.3186 -0.2285
 2466TIP3    H1 7362   0.676   3.275   2.067 -0.1052 -0.6187 -0.1381
 2466TIP3    H2 7363   0.708   3.324   2.206  0.0588 -1.1431  0.0108
 2467TIP3   OH2 7364   1.642   5.074   5.294 -0.4831  0.1333 -0.0559
 2467TIP3    H1 7365   1.547   5.062   5.289 -0.3934 -0.1850 -1.1953
 2467TIP3    H2 7366   1.653   5.166   5.318 -1.0722  0.4896 -1.0923
 2468TIP3   OH2 7367   5.988   1.233   4.910  0.8817  0.2593 -0.2442
 2468TIP3    H1 7368   6.054   1.301   4.894  1.4995  0.0771  1.3483
 2468TIP3    H2 7369   5.928   1.273   4.974 -0.4283  0.3149 -1.4472
 2469TIP3   OH2 7370   2.718   6.599   0.545 -0.0753  0.0890 -0.5434
 2469TIP3    H1 7371   2.804   6.632   0.569 -0.5238  1.0672 -0.2248
 2469TIP3    H2 7372   2.672   6.676   0.511 -1.5444  0.0726  1.2651
 2470TIP3   OH2 7373   4.023   5.371   1.373  0.0001 -0.1592 -0.3418
 2470TIP3    H1 7374   3.962   5.415   1.432 -0.5055 -0.1259 -0.8897
 2470TIP3    H2 7375   3.968   5.335   1.304  0.6606  0.4173 -1.1817
 2471TIP3   OH2 7376   5.918   1.790   3.918 -0.3785  0.2869  0.4058
 2471TIP3    H1 7377   5.892   1.847   3.846  0.3796  0.6137  0.3748
 2471TIP3    H2 7378   5.871   1.708   3.903 -1.9241  1.0836  0.7655
 2472TIP3   OH2 7379   5.144   4.224   1.894 -0.1253 -0.2124  0.0522
 2472TIP3    H1 7380   5.161   4.309   1.934  0.0153 -0.7756  1.2288
 2472TIP3    H2 7381   5.228   4.200   1.854 -0.2812  0.3774 -0.6601
 2473TIP3   OH2 7382   6.966   4.169   4.629 -0.0522 -0.1055 -0.0463
 2473TIP3    H1 7383   6.998   4.081   4.610 -0.5470 -0.5871  1.2088
 2473TIP3    H2 7384   7.044   4.217   4.656 -0.1591 -1.0137  2.1090
 2474TIP3   OH2 7385   1.801   0.395   0.773 -0.0319 -0.1843 -0.0059
 2474TIP3    H1 7386   1.829   0.303   0.779 -0.1766 -0.2073  0.3399
 2474TIP3    H2 7387   1.756   0.401   0.689 -1.0457 -0.7109  0.4909
 2475TIP3   OH2 7388   3.669   1.201   5.490  0.5096 -0.2230 -0.6047
 2475TIP3    H1 7389   3.643   1.119   5.532 -0.5313  1.8009  3.1024
 2475TIP3    H2 7390   3.752   1.224   5.531  1.4376  0.0463 -2.5245
 2476TIP3   OH2 7391   4.764   6.521   1.220  0.3977 -0.5660  0.0050
 2476TIP3    H1 7392   4.830   6.462   1.183  0.4265  0.2299 -1.2498
 2476TIP3    H2 7393   4.815   6.592   1.258  0.3047 -0.5921  0.1787
 2477TIP3   OH2 7394   0.987   0.838   3.453  0.2285  0.0338 -0.1158
 2477TIP3    H1 7395   0.952   0.869   3.537 -1.0854 -1.4116 -0.0884
 2477TIP3    H2 7396   1.014   0.917   3.408 -1.9467  1.1444  0.4088
 2478TIP3   OH2 7397   4.110   1.545   4.298  0.5597 -0.1378  0.1105
 2478TIP3    H1 7398   4.059   1.566   4.377  0.6004 -0.4040  0.2095
 2478TIP3    H2 7399   4.046   1.549   4.227  0.8367  1.6932 -0.0825
 2479TIP3   OH2 7400   1.504   3.359   2.160  0.0644  0.2288  0.1877
 2479TIP3    H1 7401   1.588   3.404   2.173 -0.1673  0.5851  0.4473
 2479TIP3    H2 7402   1.516   3.275   2.204  0.2331  0.3411  0.3611
 2480TIP3   OH2 7403   4.579   2.219   1.321  0.1980  0.4956  0.1100
 2480TIP3    H1 7404   4.548   2.131   1.302  0.3393  0.2844  0.8476
 2480TIP3    H2 7405   4.667   2.222   1.283 -0.0026  0.4970 -0.3686
 2481TIP3   OH2 7406   2.475   5.164   2.774 -0.5521 -0.3663  0.1113
 2481TIP3    H1 7407   2.482   5.239   2.833 -0.7260 -0.4868  0.2871
 2481TIP3    H2 7408   2.521   5.191   2.695 -1.7399  0.4286 -0.3237
 2482TIP3   OH2 7409   3.011   5.894   4.727 -0.0126 -0.2816 -0.1764
 2482TIP3    H1 7410   3.036   5.834   4.657  0.1239 -2.1250  1.3715
 2482TIP3    H2 7411   3.004   5.980   4.684  0.9265 -1.1713 -2.2392
 2483TIP3   OH2 7412   6.869   3.692   5.644 -0.6942 -0.0130 -0.1504
 2483TIP3    H1 7413   6.932   3.620   5.643  2.5185  2.5543 -0.9285
 2483TIP3    H2 7414   6.848   3.706   5.551  0.4793  1.3829 -0.2340
 2484TIP3   OH2 7415   1.203   3.303   2.181  0.1551 -0.2289 -0.3775
 2484TIP3    H1 7416   1.269   3.369   2.163 -1.8166  1.4802 -1.8762
 2484TIP3    H2 7417   1.212   3.240   2.110 -0.0079  0.1668 -0.7521
 2485TIP3   OH2 7418   5.773   2.639   0.300  0.3396 -0.0097 -0.0676
 2485TIP3    H1 7419   5.732   2.580   0.363 -0.2575 -1.8273 -2.0601
 2485TIP3    H2 7420   5.755   2.600   0.215  1.3821  2.1891 -1.3822
 2486TIP3   OH2 7421   3.362   0.655   2.508  0.5693 -0.2825  0.1106
 2486TIP3    H1 7422   3.313   0.734   2.483 -0.7970 -1.2729 -0.4476
 2486TIP3    H2 7423   3.394   0.673   2.596 -0.0696  0.7312  0.1490
 2487TIP3   OH2 7424   3.380   2.651   3.783 -0.0254  0.6057  0.2733
 2487TIP3    H1 7425   3.290   2.672   3.807  0.2106  1.6768  0.2453
 2487TIP3    H2 7426   3.396   2.699   3.702  0.0479 -0.8959 -0.6569
 2488TIP3   OH2 7427   0.097   6.781   5.847 -0.3718  0.3909  0.3935
 2488TIP3    H1 7428   0.080   6.803   5.938 -2.7158 -2.5433  0.8154
 2488TIP3    H2 7429   0.183   6.738   5.849 -0.6842 -0.2358  1.3858
 2489TIP3   OH2 7430   0.822   1.293   0.653  0.1005  0.1605 -0.0455
 2489TIP3    H1 7431   0.827   1.370   0.709 -0.3298  3.2473 -3.8046
 2489TIP3    H2 7432   0.900   1.299   0.598 -0.9063 -0.9397 -1.6832
 2490TIP3   OH2 7433   0.857   3.191   0.396  0.0853 -0.0768  0.2089
 2490TIP3    H1 7434   0.828   3.279   0.372 -2.1448 -0.7676  0.0792
 2490TIP3    H2 7435   0.951   3.199   0.410  0.1369  2.0710 -0.9173
 2491TIP3   OH2 7436   1.790   3.488   4.584  0.5489 -0.3382 -0.8466
 2491TIP3    H1 7437   1.877   3.456   4.563  1.3382  1.4108 -0.4123
 2491TIP3    H2 7438   1.763   3.539   4.508 -0.2113 -1.0452 -1.0712
 2492TIP3   OH2 7439   1.354   0.436   0.104 -0.1708  0.0329  0.4502
 2492TIP3    H1 7440   1.350   0.366   0.039  1.7850 -0.6889  1.0372
 2492TIP3    H2 7441   1.288   0.413   0.169 -1.4969  0.2733 -0.7611
 2493TIP3   OH2 7442   0.944   6.053   4.383 -0.3600 -0.2792  0.3888
 2493TIP3    H1 7443   0.954   5.967   4.423  0.1686  0.4183  1.8271
 2493TIP3    H2 7444   0.957   6.115   4.455 -0.5277  1.0142 -0.6483
 2494TIP3   OH2 7445  -0.012   2.290   4.166  0.2225 -0.4672  0.4595
 2494TIP3    H1 7446   0.082   2.299   4.177  0.4403 -2.3400  0.4561
 2494TIP3    H2 7447  -0.032   2.338   4.086  1.4161 -1.1962 -0.2944
 2495TIP3   OH2 7448   2.048   3.320   0.801  0.1708  0.2230  0.0586
 2495TIP3    H1 7449   2.026   3.314   0.708  1.0209 -0.8435 -0.0851
 2495TIP3    H2 7450   2.144   3.324   0.803  0.1936 -0.4564  0.9196
 2496TIP3   OH2 7451   1.960   6.782   0.635 -0.3985  0.3979 -0.4194
 2496TIP3    H1 7452   2.012   6.730   0.697 -0.7434 -0.3084 -0.7076
 2496TIP3    H2 7453   1.932   6.719   0.569 -3.4802  0.2073  0.8815
 2497TIP3   OH2 7454   2.781   6.481   0.255  0.1655  0.3451 -0.6712
 2497TIP3    H1 7455   2.818   6.558   0.211  0.5051  0.4851 -0.1544
 2497TIP3    H2 7456   2.740   6.515   0.334 -1.4875  0.2426 -1.4511
 2498TIP3   OH2 7457   3.989   1.521   1.167  0.8415 -0.3166 -0.5060
 2498TIP3    H1 7458   4.028   1.525   1.254 -0.4843  0.1567  0.0944
 2498TIP3    H2 7459   4.062   1.500   1.109  1.7769 -0.4994  0.6929
 2499TIP3   OH2 7460   3.426   2.253   4.046 -0.4514  0.1987 -0.2150
 2499TIP3    H1 7461   3.471   2.281   3.966 -0.5879 -0.5512 -0.5677
 2499TIP3    H2 7462   3.488   2.273   4.116  1.1996 -2.2519 -0.8187
 2500TIP3   OH2 7463   7.004   6.135   3.508 -0.0364 -0.4821 -0.5384
 2500TIP3    H1 7464   6.990   6.085   3.428 -0.5554 -0.4464 -0.4788
 2500TIP3    H2 7465   6.944   6.095   3.572  1.9823 -2.0100  0.5157
 2501TIP3   OH2 7466   4.960   6.314   3.163  0.6642  0.0088 -0.0298
 2501TIP3    H1 7467   4.865   6.306   3.149  0.4468  1.0102  0.7479
 2501TIP3    H2 7468   4.987   6.227   3.190  0.0709 -0.4381 -0.8313
 2502TIP3   OH2 7469   3.210   4.553   4.874  0.4648  0.0051  0.3819
 2502TIP3    H1 7470   3.219   4.648   4.887  0.2591 -0.0028  0.5694
 2502TIP3    H2 7471   3.248   4.514   4.953 -2.3165 -0.0148  1.8080
 2503TIP3   OH2 7472   5.364   1.436   5.881  0.3440  0.1381  0.1752
 2503TIP3    H1 7473   5.284   1.416   5.833  0.1520  0.0403  0.5348
 2503TIP3    H2 7474   5.334   1.466   5.967  0.6801  0.4523  0.1868
 2504TIP3   OH2 7475   5.493   5.939   3.755  0.3003  0.5825  0.0384
 2504TIP3    H1 7476   5.558   5.949   3.686  1.7508 -0.6155  1.1538
 2504TIP3    H2 7477   5.493   5.845   3.774 -2.6442  0.3180 -0.6939
 2505TIP3   OH2 7478   5.304   2.776   3.417 -0.3647  0.0408  0.0599
 2505TIP3    H1 7479   5.274   2.711   3.354  1.5422  0.1990 -1.0897
 2505TIP3    H2 7480   5.318   2.726   3.498 -0.3182 -0.6908 -0.3948
 2506TIP3   OH2 7481   0.166   2.859   2.215  0.2718 -0.1914  0.7388
 2506TIP3    H1 7482   0.139   2.917   2.144 -0.6075 -3.0327 -1.4687
 2506TIP3    H2 7483   0.261   2.870   2.219  0.2013  0.9025 -0.0651
 2507TIP3   OH2 7484   1.205   5.608   0.959 -0.0367 -0.2882 -0.6338
 2507TIP3    H1 7485   1.186   5.555   1.036  2.8209 -0.3526  0.1094
 2507TIP3    H2 7486   1.282   5.568   0.920  1.3985  2.4426 -0.8348
 2508TIP3   OH2 7487   1.523   2.401   5.304 -0.1835  0.2877 -0.3306
 2508TIP3    H1 7488   1.571   2.414   5.385 -0.5256  0.5097 -0.1644
 2508TIP3    H2 7489   1.522   2.487   5.262  1.4115 -0.1394 -1.3710
 2509TIP3   OH2 7490   4.952   1.091   4.198  0.0239  0.1308  0.4230
 2509TIP3    H1 7491   5.008   1.039   4.256 -0.0022  0.3348  0.6365
 2509TIP3    H2 7492   4.997   1.090   4.114 -0.5175 -1.1205  0.1306
 2510TIP3   OH2 7493   3.613   4.215   1.379  0.4226  0.1894  0.2255
 2510TIP3    H1 7494   3.686   4.209   1.441  0.1882 -0.1081  0.4767
 2510TIP3    H2 7495   3.624   4.139   1.322 -0.0478 -0.2192  0.6637
 2511TIP3   OH2 7496   5.872   5.833   3.912  0.1037 -0.0082  0.2082
 2511TIP3    H1 7497   5.873   5.910   3.968 -1.0893  0.4078 -0.3202
 2511TIP3    H2 7498   5.964   5.809   3.903  0.5147  1.4785  0.2156
 2512TIP3   OH2 7499   2.915   0.755   4.512  0.4908 -0.2858 -0.0286
 2512TIP3    H1 7500   2.948   0.718   4.593  0.4653 -0.1299  0.0528
 2512TIP3    H2 7501   2.902   0.679   4.455 -0.8954 -0.5661  0.6152
 2513TIP3   OH2 7502   0.437   6.627   5.615  0.2174 -0.2144 -0.9636
 2513TIP3    H1 7503   0.387   6.628   5.534 -0.4928 -0.7345 -0.5429
 2513TIP3    H2 7504   0.485   6.710   5.614 -1.1087  0.5812 -1.1085
 2514TIP3   OH2 7505   0.423   1.203   0.560  0.2368  0.0375 -0.2211
 2514TIP3    H1 7506   0.492   1.268   0.563  0.3324 -0.0249 -0.9575
 2514TIP3    H2 7507   0.464   1.122   0.590  1.0224 -0.4518 -2.4428
 2515TIP3   OH2 7508   5.881   6.398   3.406 -0.1145 -0.4320  0.5693
 2515TIP3    H1 7509   5.898   6.469   3.468 -1.0239 -1.9358  2.6653
 2515TIP3    H2 7510   5.873   6.442   3.321  3.3663  1.4883  1.0687
 2516TIP3   OH2 7511   1.772   5.576   4.493 -0.1317  0.4724  0.0523
 2516TIP3    H1 7512   1.701   5.542   4.547 -1.1547 -0.1518 -1.6031
 2516TIP3    H2 7513   1.741   5.662   4.465 -0.3193  0.1419 -0.7809
 2517TIP3   OH2 7514   5.842   5.566   4.814  0.0588 -0.0543 -0.3465
 2517TIP3    H1 7515   5.780   5.600   4.749 -2.4826 -1.4495  1.1655
 2517TIP3    H2 7516   5.787   5.515   4.873  2.2931  0.8622  2.7107
 2518TIP3   OH2 7517   1.706   1.366   1.193  0.2909  0.1107  0.2616
 2518TIP3    H1 7518   1.790   1.410   1.203  0.7454 -0.7502  0.2604
 2518TIP3    H2 7519   1.680   1.342   1.282 -0.0029  0.4532  0.2721
 2519TIP3   OH2 7520   1.041   4.859   1.623 -0.5894  0.0840  0.4701
 2519TIP3    H1 7521   1.026   4.815   1.540 -2.0571  0.5054  0.4670
 2519TIP3    H2 7522   1.023   4.793   1.690  1.3765 -0.4840  0.4861
 2520TIP3   OH2 7523   3.623   3.038   4.949 -0.0898 -0.2331 -0.3033
 2520TIP3    H1 7524   3.545   3.030   5.005  0.1509 -2.3037 -0.1977
 2520TIP3    H2 7525   3.634   3.132   4.937 -2.1051  0.1371  0.3876
 2521TIP3   OH2 7526   5.145   6.721   2.231 -0.1601  0.1620  0.2515
 2521TIP3    H1 7527   5.114   6.690   2.146 -0.2041  1.6921 -0.3383
 2521TIP3    H2 7528   5.179   6.644   2.274 -1.6998 -0.9726 -0.4569
 2522TIP3   OH2 7529   1.447   6.542   2.184  0.2984  0.1580 -0.5210
 2522TIP3    H1 7530   1.531   6.505   2.157  0.3309  0.0489 -0.2761
 2522TIP3    H2 7531   1.461   6.570   2.275 -0.2507 -0.8622 -0.1127
 2523TIP3   OH2 7532   4.037   3.791   2.989  0.4348  0.4897 -0.3595
 2523TIP3    H1 7533   3.952   3.777   3.031  1.3271 -0.0552  1.3533
 2523TIP3    H2 7534   4.063   3.704   2.959  1.7214  0.0553  1.8480
 2524TIP3   OH2 7535   6.299   3.163   0.907 -0.0450 -0.0001 -0.2659
 2524TIP3    H1 7536   6.209   3.172   0.937 -0.1947  1.6237 -1.0989
 2524TIP3    H2 7537   6.294   3.174   0.812  1.1081  1.1009 -0.2365
 2525TIP3   OH2 7538   1.946   1.658   0.363  0.1055 -0.3594 -0.3515
 2525TIP3    H1 7539   1.912   1.643   0.276 -0.7760  2.2083 -0.5345
 2525TIP3    H2 7540   1.921   1.580   0.413 -0.0510 -1.5184 -2.1576
 2526TIP3   OH2 7541   2.708   3.631   4.493 -0.4765  0.4595  0.2869
 2526TIP3    H1 7542   2.646   3.563   4.521 -0.2813 -0.1743 -0.7752
 2526TIP3    H2 7543   2.763   3.647   4.570  0.3111 -1.5238  0.1845
 2527TIP3   OH2 7544   6.211   6.440   2.717  0.1336  0.3435  0.1457
 2527TIP3    H1 7545   6.175   6.353   2.736  0.3198  0.2171 -0.0674
 2527TIP3    H2 7546   6.256   6.465   2.797  1.6754 -0.5729 -0.3782
 2528TIP3   OH2 7547   3.380   1.950   0.518  0.5020 -0.7268 -0.1289
 2528TIP3    H1 7548   3.367   1.969   0.425  0.6628  1.0252  0.1644
 2528TIP3    H2 7549   3.427   2.027   0.552 -0.4525 -0.8503  1.6108
 2529TIP3   OH2 7550   4.269   2.090   4.206 -0.0570  0.1021  0.8581
 2529TIP3    H1 7551   4.264   2.105   4.112  0.9378  0.7018  0.8866
 2529TIP3    H2 7552   4.182   2.058   4.230 -0.2351 -0.3095 -0.3023
 2530TIP3   OH2 7553   0.124   6.753   4.855  0.2541 -0.3075  0.0116
 2530TIP3    H1 7554   0.159   6.765   4.767 -0.3210  1.6700 -0.0057
 2530TIP3    H2 7555   0.052   6.690   4.843 -0.3188  0.5131 -1.0965
 2531TIP3   OH2 7556   0.641   5.712   1.291 -0.0587  0.0627  0.0908
 2531TIP3    H1 7557   0.656   5.695   1.384 -1.8988  0.4765  0.5057
 2531TIP3    H2 7558   0.567   5.656   1.267  0.4663 -0.1301 -1.1579
 2532TIP3   OH2 7559   2.624   4.574   0.034 -0.4286  0.0866 -0.0082
 2532TIP3    H1 7560   2.619   4.556  -0.060 -0.1446 -0.2817  0.0430
 2532TIP3    H2 7561   2.539   4.545   0.069 -0.9149  1.1306 -0.2905
 2533TIP3   OH2 7562   6.277   5.594   4.619 -0.4043  0.1962 -0.3176
 2533TIP3    H1 7563   6.192   5.567   4.654 -0.3883  1.2081  0.5639
 2533TIP3    H2 7564   6.330   5.514   4.622 -0.3965  0.1990  2.0523
 2534TIP3   OH2 7565   4.089   2.988   3.697 -0.0746 -0.4889  0.5785
 2534TIP3    H1 7566   4.043   3.066   3.666 -0.3545 -1.0694 -0.5299
 2534TIP3    H2 7567   4.019   2.927   3.720  0.1437 -0.6748  0.7427
 2535TIP3   OH2 7568   0.860   3.423   2.264 -0.0796  0.2341  0.4583
 2535TIP3    H1 7569   0.876   3.398   2.355 -1.3232 -3.0535 -0.0768
 2535TIP3    H2 7570   0.935   3.387   2.216  0.3645  1.5984  0.0817
 2536TIP3   OH2 7571   5.084   2.886   5.829 -0.1869 -0.0796  0.2523
 2536TIP3    H1 7572   5.118   2.897   5.918  2.7871  0.9506 -0.8573
 2536TIP3    H2 7573   5.127   2.955   5.779  0.7680 -2.5247 -2.5975
 2537TIP3   OH2 7574   1.729   4.990   1.701  0.0692 -0.8444  0.0542
 2537TIP3    H1 7575   1.761   4.991   1.611  0.2910 -1.5904  0.1214
 2537TIP3    H2 7576   1.710   4.898   1.719  2.1638 -1.0599  1.5117
 2538TIP3   OH2 7577   1.732   4.451   1.071  0.1229 -0.2219 -0.2927
 2538TIP3    H1 7578   1.727   4.387   1.141  2.2368 -0.5809 -0.3996
 2538TIP3    H2 7579   1.740   4.535   1.116  1.7626 -0.4750 -0.0390
 2539TIP3   OH2 7580   6.023   2.135   5.719 -0.0026  0.0333 -0.1443
 2539TIP3    H1 7581   6.044   2.224   5.747 -1.4760  0.1708  0.6331
 2539TIP3    H2 7582   5.932   2.139   5.692 -0.2870 -1.3633  0.4944
 2540TIP3   OH2 7583   3.881   4.982   1.280  0.1423  0.7701  0.2647
 2540TIP3    H1 7584   3.938   5.032   1.221  0.6162  1.6580  1.4225
 2540TIP3    H2 7585   3.918   4.997   1.367 -0.2930 -0.8432  0.7560
 2541TIP3   OH2 7586   2.793   4.461   2.352 -0.2896 -0.0507  0.3361
 2541TIP3    H1 7587   2.862   4.463   2.286  0.1312  0.2303  0.7722
 2541TIP3    H2 7588   2.714   4.489   2.306  0.2031  1.1726  0.1834
 2542TIP3   OH2 7589   0.449   0.617   2.693 -0.1620 -0.1916 -0.4696
 2542TIP3    H1 7590   0.515   0.570   2.642  0.0560 -0.5261  0.1101
 2542TIP3    H2 7591   0.499   0.657   2.765 -0.0737  2.2085 -1.7596
 2543TIP3   OH2 7592   1.655   5.812   3.632  0.4384  0.5137  0.1960
 2543TIP3    H1 7593   1.726   5.808   3.567  0.3928  0.4429  0.1504
 2543TIP3    H2 7594   1.588   5.866   3.591  0.2806  0.2189  0.0567
 2544TIP3   OH2 7595   6.876   2.697   2.104  0.1787  0.2243 -0.1949
 2544TIP3    H1 7596   6.799   2.642   2.116 -0.3208  0.9999  0.2864
 2544TIP3    H2 7597   6.845   2.769   2.048  0.7009  0.2447 -0.4596
 2545TIP3   OH2 7598   4.364   6.206   0.445 -0.3064  0.2110  0.1312
 2545TIP3    H1 7599   4.283   6.155   0.446 -0.6338  0.6697  2.5855
 2545TIP3    H2 7600   4.422   6.162   0.507  1.0131  0.4387 -0.8728
 2546TIP3   OH2 7601   2.399   2.553   2.976 -0.0551  0.6686 -0.1053
 2546TIP3    H1 7602   2.345   2.610   3.031  0.8998  1.0762  0.4215
 2546TIP3    H2 7603   2.486   2.592   2.978  1.0914 -1.7033  1.6916
 2547TIP3   OH2 7604   0.687   2.179   0.533 -0.3675  0.4183  0.1201
 2547TIP3    H1 7605   0.627   2.107   0.554 -1.2500  0.6605 -1.3913
 2547TIP3    H2 7606   0.774   2.145   0.556 -1.0202 -0.0793  2.0025
 2548TIP3   OH2 7607   3.366   5.646   5.800  0.1498 -0.3226 -0.3971
 2548TIP3    H1 7608   3.317   5.705   5.858  0.1072 -0.1239 -0.6333
 2548TIP3    H2 7609   3.393   5.701   5.727 -0.7419 -0.8114 -1.1139
 2549TIP3   OH2 7610   4.293   3.011   3.869 -0.1077  0.1994  0.6672
 2549TIP3    H1 7611   4.247   3.061   3.936  1.0114  0.5780  1.1760
 2549TIP3    H2 7612   4.223   2.979   3.811 -0.9919  0.8364  1.3452
 2550TIP3   OH2 7613   0.933   2.107   5.547 -0.2725  0.4070  0.1044
 2550TIP3    H1 7614   1.013   2.106   5.494 -0.5656  1.2123 -0.3688
 2550TIP3    H2 7615   0.913   2.014   5.562  1.0594  0.2015  0.7178
 2551TIP3   OH2 7616   4.599   1.876   4.664  0.0215  0.0820  0.0499
 2551TIP3    H1 7617   4.665   1.825   4.617  0.5737 -0.6630  1.5551
 2551TIP3    H2 7618   4.566   1.938   4.599  0.2605 -1.3145 -1.4780
 2552TIP3   OH2 7619   4.084   1.017   0.204 -0.2804 -0.3054  0.3427
 2552TIP3    H1 7620   4.061   0.986   0.291  1.8374  0.9023  1.4048
 2552TIP3    H2 7621   4.159   0.964   0.179 -1.0431 -0.8389 -0.9061
 2553TIP3   OH2 7622   0.857   0.238   4.746 -0.4000  0.0216  0.0118
 2553TIP3    H1 7623   0.850   0.144   4.762 -0.9593 -0.3210 -1.9204
 2553TIP3    H2 7624   0.872   0.276   4.832 -1.9145 -1.6730  1.1056
 2554TIP3   OH2 7625   7.171   3.160   4.500 -0.0136  0.0313  0.5150
 2554TIP3    H1 7626   7.260   3.150   4.535  0.6529 -0.5116 -1.2186
 2554TIP3    H2 7627   7.115   3.161   4.577  1.3905 -0.8086  1.6013
 2555TIP3   OH2 7628   1.672   2.932   1.239 -0.1589  0.2319 -0.1973
 2555TIP3    H1 7629   1.734   2.860   1.253 -0.5350 -0.0246  0.1994
 2555TIP3    H2 7630   1.618   2.932   1.319 -1.2814 -0.1633 -0.9384
 2556TIP3   OH2 7631   5.350   0.650   1.946  1.0178 -0.0263 -0.1960
 2556TIP3    H1 7632   5.258   0.653   1.974  0.8554  0.3449 -0.7611
 2556TIP3    H2 7633   5.352   0.583   1.878  1.2529 -0.3449  0.1256
 2557TIP3   OH2 7634   0.539   3.880   3.424 -0.1874  0.0968  0.0950
 2557TIP3    H1 7635   0.497   3.822   3.488 -0.1689  0.0438  0.0590
 2557TIP3    H2 7636   0.594   3.938   3.476 -0.9743  0.7473  0.2361
 2558TIP3   OH2 7637   6.599   3.582   3.816  0.0769  0.0273 -0.7049
 2558TIP3    H1 7638   6.628   3.636   3.742  1.5550  0.3351  0.0609
 2558TIP3    H2 7639   6.602   3.641   3.891 -1.5730 -0.2356 -0.3982
 2559TIP3   OH2 7640   2.285   1.818   1.195  0.2168 -0.8277  1.2249
 2559TIP3    H1 7641   2.289   1.913   1.182  0.8466 -1.1813 -2.0524
 2559TIP3    H2 7642   2.374   1.794   1.220  0.7441 -0.7801 -0.4833
 2560TIP3   OH2 7643   1.848   1.363   4.363 -0.4369 -0.0451  0.2659
 2560TIP3    H1 7644   1.829   1.457   4.362  0.1884  0.0919  0.4022
 2560TIP3    H2 7645   1.927   1.356   4.418 -0.2645 -0.6049 -0.0524
 2561TIP3   OH2 7646   4.048   2.239   1.360  0.3035 -0.5467 -0.1155
 2561TIP3    H1 7647   4.131   2.191   1.355 -0.1363 -1.2409 -1.0457
 2561TIP3    H2 7648   4.065   2.320   1.312  1.3242  0.7032  2.2294
 2562TIP3   OH2 7649   0.103   1.213   3.267 -0.1001  0.1183 -0.7730
 2562TIP3    H1 7650   0.132   1.162   3.192 -0.0525  1.3941 -1.6526
 2562TIP3    H2 7651   0.008   1.220   3.256  0.0397  1.3020 -1.3908
 2563TIP3   OH2 7652   0.363   2.643   4.251  0.1505 -0.1672 -0.3800
 2563TIP3    H1 7653   0.317   2.698   4.314  1.2008  0.3217 -0.0264
 2563TIP3    H2 7654   0.392   2.567   4.302 -2.7590 -1.9938 -1.1959
 2564TIP3   OH2 7655   6.450   4.278   4.122 -0.5942  0.4107  0.6245
 2564TIP3    H1 7656   6.399   4.204   4.089  1.9332 -0.0660 -2.7621
 2564TIP3    H2 7657   6.411   4.354   4.080 -0.4992  0.4723  0.6487
 2565TIP3   OH2 7658   1.569   2.232   2.246 -0.6312 -0.0358 -0.5061
 2565TIP3    H1 7659   1.621   2.312   2.254 -2.4378  1.0926  0.7805
 2565TIP3    H2 7660   1.591   2.197   2.159 -0.0073  2.0213 -1.2288
 2566TIP3   OH2 7661   4.320   4.959   4.868  0.0857  0.3500 -0.1345
 2566TIP3    H1 7662   4.315   4.928   4.778 -1.7109 -0.6183  0.2580
 2566TIP3    H2 7663   4.229   4.961   4.898  0.4928  2.1756  1.1665
 2567TIP3   OH2 7664   0.648   5.044   3.389  0.4105 -0.3337 -0.0160
 2567TIP3    H1 7665   0.682   4.968   3.343 -0.5759 -0.6000 -0.3384
 2567TIP3    H2 7666   0.563   5.062   3.348 -0.1225 -0.0735  1.1293
 2568TIP3   OH2 7667   5.573   6.163   5.334  0.7567  0.1701 -0.1398
 2568TIP3    H1 7668   5.484   6.149   5.301  0.9115 -2.4943  0.3478
 2568TIP3    H2 7669   5.629   6.124   5.267  1.4361 -0.0209  0.5397
 2569TIP3   OH2 7670   2.297   6.546   3.588 -0.6813 -0.2185  0.6327
 2569TIP3    H1 7671   2.316   6.452   3.597 -2.0526 -0.7016 -0.9900
 2569TIP3    H2 7672   2.381   6.589   3.604  0.1454 -1.7718  0.7031
 2570TIP3   OH2 7673   4.255   0.282   1.487 -0.5549 -0.4346  0.2638
 2570TIP3    H1 7674   4.280   0.260   1.577 -0.6881  1.3454  0.7709
 2570TIP3    H2 7675   4.294   0.367   1.471  0.1713 -1.0720 -1.6991
 2571TIP3   OH2 7676   4.922   3.174   4.034  0.0181 -0.3515 -0.1897
 2571TIP3    H1 7677   4.953   3.259   4.065 -0.9576  0.3771 -1.1385
 2571TIP3    H2 7678   4.887   3.131   4.113 -2.9687  1.7014 -0.2009
 2572TIP3   OH2 7679   3.926   0.086   1.577 -0.1556  0.3499 -0.0110
 2572TIP3    H1 7680   3.977   0.010   1.606  1.9884  0.9030 -1.9960
 2572TIP3    H2 7681   3.868   0.051   1.509  0.8822  0.4297 -0.9776
 2573TIP3   OH2 7682   5.804   5.058   4.670 -0.4446  0.4106  0.1789
 2573TIP3    H1 7683   5.739   5.124   4.646 -0.2759  0.3492 -0.4555
 2573TIP3    H2 7684   5.824   5.076   4.762 -0.4677  1.1745  0.0346
 2574TIP3   OH2 7685   4.710   5.667   2.386  0.1185 -0.0004 -0.0660
 2574TIP3    H1 7686   4.690   5.598   2.323  0.1584  0.4450 -0.5689
 2574TIP3    H2 7687   4.649   5.738   2.365  1.1523  0.7540 -0.6087
 2575TIP3   OH2 7688   4.097   2.922   4.725  0.2064  0.5615  0.3725
 2575TIP3    H1 7689   4.086   2.906   4.818 -0.5939 -1.4047 -0.0080
 2575TIP3    H2 7690   4.038   2.860   4.682  2.4318 -0.4604 -1.4797
 2576TIP3   OH2 7691   1.963   1.916   0.741  0.1591 -0.3362 -0.3723
 2576TIP3    H1 7692   1.879   1.960   0.758 -0.6716 -2.1523  0.4771
 2576TIP3    H2 7693   1.964   1.903   0.646 -1.7867 -2.5154 -0.2034
 2577TIP3   OH2 7694   2.671   5.053   3.468  0.7482  0.4008 -0.6240
 2577TIP3    H1 7695   2.639   5.106   3.395 -3.1822 -1.0849 -0.2239
 2577TIP3    H2 7696   2.663   4.962   3.437  0.5029 -0.2052  1.1029
 2578TIP3   OH2 7697   3.443   0.104   1.694 -0.0260 -0.2532 -0.8574
 2578TIP3    H1 7698   3.524   0.136   1.733 -0.1264 -0.5946 -0.3612
 2578TIP3    H2 7699   3.462   0.096   1.600  0.4065 -0.0076 -0.7885
 2579TIP3   OH2 7700   0.251   0.910   1.001  0.0315 -0.0641 -0.3707
 2579TIP3    H1 7701   0.323   0.969   0.978 -0.1947  1.1411  1.7943
 2579TIP3    H2 7702   0.274   0.876   1.087 -1.4955 -0.4680 -0.0989
 2580TIP3   OH2 7703   5.734   3.935   3.831 -0.0246 -0.2718  0.0285
 2580TIP3    H1 7704   5.711   3.862   3.888  0.8768 -0.3432  0.3097
 2580TIP3    H2 7705   5.829   3.932   3.824  0.2302  1.9528  1.5212
 2581TIP3   OH2 7706   3.306   1.504   0.788  0.6208 -0.0433  0.7320
 2581TIP3    H1 7707   3.210   1.503   0.794  0.6584  1.0765  2.0270
 2581TIP3    H2 7708   3.327   1.431   0.730 -1.0421  0.0932 -0.1028
 2582TIP3   OH2 7709   1.405   4.760   1.104 -0.1815  0.8683 -0.2824
 2582TIP3    H1 7710   1.315   4.747   1.135  0.3942  0.8606  1.5498
 2582TIP3    H2 7711   1.434   4.674   1.076 -0.7614  0.8854 -0.9525
 2583TIP3   OH2 7712   5.601   2.928   1.216 -0.3321 -0.4198  0.3258
 2583TIP3    H1 7713   5.647   2.854   1.256  0.3053 -0.3013 -0.1859
 2583TIP3    H2 7714   5.508   2.904   1.224 -0.1328 -1.3498  0.0405
 2584TIP3   OH2 7715   5.347   5.414   2.350  0.6586  0.0055 -0.4262
 2584TIP3    H1 7716   5.382   5.403   2.438  0.9659  0.7540 -0.4467
 2584TIP3    H2 7717   5.334   5.325   2.318 -0.6174 -0.3150  0.8302
 2585TIP3   OH2 7718   1.742   4.983   2.324  0.0010  0.1236 -0.2680
 2585TIP3    H1 7719   1.771   5.068   2.358  2.7844 -0.9968  0.4403
 2585TIP3    H2 7720   1.784   4.919   2.381 -0.9875 -1.7612 -1.5722
 2586TIP3   OH2 7721   2.335   1.602   0.456 -0.2902  0.4516 -0.0206
 2586TIP3    H1 7722   2.267   1.611   0.523 -0.6674 -0.7417 -0.2249
 2586TIP3    H2 7723   2.288   1.585   0.375  0.2131  0.7050 -0.3742
 2587TIP3   OH2 7724   0.479   0.595   2.369 -0.0925 -0.2303 -0.4454
 2587TIP3    H1 7725   0.533   0.530   2.414  0.1821 -0.3243 -0.9023
 2587TIP3    H2 7726   0.395   0.552   2.356  0.3726 -0.8606 -1.5796
 2588TIP3   OH2 7727   4.330   1.963   3.189  0.0192  0.7098 -0.1087
 2588TIP3    H1 7728   4.251   2.007   3.219  0.7657  1.1339  1.3733
 2588TIP3    H2 7729   4.345   1.894   3.254  2.3333  2.3781  1.3049
 2589TIP3   OH2 7730   4.286   6.049   2.841 -0.7500 -0.0507  0.4819
 2589TIP3    H1 7731   4.203   6.014   2.808 -0.8541  0.1420  0.5368
 2589TIP3    H2 7732   4.274   6.050   2.936 -1.3317  1.5574  0.4232
 2590TIP3   OH2 7733   0.640   3.038   4.475  0.1504  0.1418  0.8610
 2590TIP3    H1 7734   0.681   3.118   4.508  0.3328  0.3511  0.1326
 2590TIP3    H2 7735   0.647   3.044   4.380  1.7450 -1.5336  0.7929
 2591TIP3   OH2 7736   5.832   0.653   1.074  0.1525 -0.4091  0.2614
 2591TIP3    H1 7737   5.859   0.744   1.064 -0.0132 -0.4645 -0.8551
 2591TIP3    H2 7738   5.843   0.615   0.987  0.2316 -1.4631  0.7187
 2592TIP3   OH2 7739   3.357   3.903   4.564 -0.0636 -0.0504 -0.8928
 2592TIP3    H1 7740   3.434   3.953   4.589 -1.9461  2.9615 -0.6008
 2592TIP3    H2 7741   3.324   3.948   4.486 -1.8501 -0.8550 -0.6449
 2593TIP3   OH2 7742   5.474   0.664   3.426  0.4390  0.1874 -0.7688
 2593TIP3    H1 7743   5.423   0.617   3.492 -1.8909  2.7876 -0.5785
 2593TIP3    H2 7744   5.531   0.597   3.389 -1.0492 -2.2561  1.0390
 2594TIP3   OH2 7745   1.648   5.155   0.698  0.8028 -0.3229 -0.0703
 2594TIP3    H1 7746   1.564   5.170   0.741  1.3884  1.7724  0.4378
 2594TIP3    H2 7747   1.627   5.147   0.605  0.2340  3.5345 -0.4475
 2595TIP3   OH2 7748   7.047   1.647   3.434  0.0748  0.2033  0.3410
 2595TIP3    H1 7749   7.090   1.640   3.520  0.0093 -0.6517  0.3047
 2595TIP3    H2 7750   6.955   1.660   3.454  0.3878  2.8103  0.4364
 2596TIP3   OH2 7751   3.200   3.000   0.689  0.6777 -0.1693 -0.2661
 2596TIP3    H1 7752   3.124   2.959   0.646  0.2013  0.8983 -0.4703
 2596TIP3    H2 7753   3.167   3.030   0.773  1.0206 -0.1859 -0.1247
 2597TIP3   OH2 7754   4.232   2.568   2.236 -0.1903  0.2101 -0.7962
 2597TIP3    H1 7755   4.282   2.649   2.247 -1.3319  0.8337  0.0144
 2597TIP3    H2 7756   4.272   2.507   2.298 -1.2379  1.1320  0.8830
 2598TIP3   OH2 7757   4.818   0.911   4.013 -0.8289  0.4318  0.2316
 2598TIP3    H1 7758   4.887   0.976   4.025  0.5532 -0.7267 -1.0199
 2598TIP3    H2 7759   4.832   0.877   3.924 -2.0663 -0.9215  0.5115
 2599TIP3   OH2 7760   7.014   4.805   4.537  0.4204 -1.0178  0.0072
 2599TIP3    H1 7761   6.919   4.791   4.538  0.7016 -3.4327 -0.6011
 2599TIP3    H2 7762   7.024   4.897   4.513 -1.7688 -0.8403 -0.4788
 2600TIP3   OH2 7763   0.912   0.521   1.220  0.1296 -0.2976 -0.3457
 2600TIP3    H1 7764   0.823   0.553   1.234 -0.3075 -1.8653  0.8168
 2600TIP3    H2 7765   0.926   0.458   1.291  1.3542 -1.7266 -1.7655
 2601TIP3   OH2 7766   7.216   6.142   0.541  0.1862 -0.4671  0.1375
 2601TIP3    H1 7767   7.148   6.114   0.480 -0.0751  1.0786 -0.3029
 2601TIP3    H2 7768   7.189   6.228   0.572  2.7888  1.0558 -1.4506
 2602TIP3   OH2 7769   4.483   4.046   4.927  0.9581  0.0123 -0.5147
 2602TIP3    H1 7770   4.551   4.067   4.991  0.6156 -1.0570  0.2251
 2602TIP3    H2 7771   4.403   4.034   4.979 -0.1153  2.3875 -1.4711
 2603TIP3   OH2 7772   1.964   6.363   3.240 -0.2648 -0.0956  0.1195
 2603TIP3    H1 7773   1.946   6.276   3.275 -0.1932  0.3407  1.2944
 2603TIP3    H2 7774   2.020   6.404   3.306 -0.7400  1.0227 -0.1550
 2604TIP3   OH2 7775   5.287   2.340   2.568  0.4758 -0.1543  0.2302
 2604TIP3    H1 7776   5.323   2.267   2.619  0.0083 -0.2152  0.4780
 2604TIP3    H2 7777   5.363   2.379   2.525  0.6301 -1.2988 -0.5743
 2605TIP3   OH2 7778   6.903   1.503   4.420  0.2059  0.2274  0.4522
 2605TIP3    H1 7779   6.969   1.436   4.438  1.6075  1.3586 -0.2456
 2605TIP3    H2 7780   6.917   1.569   4.489 -1.1621 -0.1695  1.1410
 2606TIP3   OH2 7781   0.579   3.526   2.037  0.3918  0.3653  0.0312
 2606TIP3    H1 7782   0.569   3.445   2.087 -0.0731 -0.3600 -1.2119
 2606TIP3    H2 7783   0.666   3.559   2.061  0.8898 -0.8831 -0.0132
 2607TIP3   OH2 7784   2.155   1.828   0.017 -0.6762  0.4464  0.0978
 2607TIP3    H1 7785   2.119   1.914   0.039  1.8127  1.3104  1.1458
 2607TIP3    H2 7786   2.121   1.770   0.085  1.3545  1.6724  2.3361
 2608TIP3   OH2 7787   6.639   0.224   5.573  0.5631 -0.1367  0.5572
 2608TIP3    H1 7788   6.568   0.285   5.594 -1.2541 -2.0090  0.1796
 2608TIP3    H2 7789   6.674   0.256   5.490  0.4309  1.0309  0.9377
 2609TIP3   OH2 7790   0.545   3.866   1.027  0.1575 -0.1350  0.2058
 2609TIP3    H1 7791   0.629   3.908   1.011 -0.0841  0.3857  0.2926
 2609TIP3    H2 7792   0.563   3.798   1.092  0.8147 -1.0853 -0.9287
 2610TIP3   OH2 7793   4.207   0.432   0.110 -0.9306 -0.3099 -0.8296
 2610TIP3    H1 7794   4.267   0.475   0.049 -1.3946  1.2182 -0.2501
 2610TIP3    H2 7795   4.130   0.412   0.057 -2.1265  2.7436 -0.4426
 2611TIP3   OH2 7796   1.321   6.055   0.633  0.6592 -0.3143 -0.0738
 2611TIP3    H1 7797   1.307   6.125   0.696  0.9348  1.2125 -1.6443
 2611TIP3    H2 7798   1.415   6.039   0.635  0.5584 -0.9106  0.5164
 2612TIP3   OH2 7799   1.494   4.560   3.018  0.0816 -0.0590 -0.3407
 2612TIP3    H1 7800   1.574   4.534   3.062  0.5813  0.6635 -0.7982
 2612TIP3    H2 7801   1.454   4.478   2.989  0.4048 -0.4492  0.3136
 2613TIP3   OH2 7802   6.749   2.497   4.172 -0.1056  0.2683 -0.0981
 2613TIP3    H1 7803   6.734   2.406   4.198 -2.1631  0.2055 -1.2590
 2613TIP3    H2 7804   6.843   2.510   4.183  0.1406 -1.7946  0.7198
 2614TIP3   OH2 7805   6.607   2.761   3.971  0.2386 -0.5296 -0.4638
 2614TIP3    H1 7806   6.566   2.679   3.998  1.6555 -0.4752  2.2190
 2614TIP3    H2 7807   6.602   2.817   4.048 -0.7119  1.9871 -2.2241
 2615TIP3   OH2 7808   4.502   2.094   4.528  0.8265  0.2558  0.7020
 2615TIP3    H1 7809   4.448   2.161   4.569  0.1209  0.9970 -1.3371
 2615TIP3    H2 7810   4.591   2.130   4.527  0.6719  0.6348  0.7338
 2616TIP3   OH2 7811   5.750   1.749   4.652  0.2128 -0.5380  0.1856
 2616TIP3    H1 7812   5.741   1.655   4.669 -0.4009 -0.4409  0.4137
 2616TIP3    H2 7813   5.845   1.763   4.646  0.2818 -1.4209 -1.2613
 2617TIP3   OH2 7814   1.128   5.362   2.913 -0.1513 -0.2777 -0.1781
 2617TIP3    H1 7815   1.140   5.286   2.970  0.7546 -0.5381 -0.6940
 2617TIP3    H2 7816   1.041   5.350   2.875 -0.8923  0.0418  1.3207
 2618TIP3   OH2 7817   3.298   5.954   4.699 -0.5282  0.0216  0.3637
 2618TIP3    H1 7818   3.389   5.927   4.715 -0.1453 -0.3741 -2.0056
 2618TIP3    H2 7819   3.258   5.878   4.655 -0.5227  1.7435 -2.9928
 2619TIP3   OH2 7820   3.190   6.807   2.323  0.6350  0.0605 -0.1322
 2619TIP3    H1 7821   3.134   6.754   2.380  0.5405 -0.7685 -0.9656
 2619TIP3    H2 7822   3.278   6.794   2.357  0.7886 -1.7151 -1.0937
 2620TIP3   OH2 7823   0.414   2.181   2.545  0.3896  0.7178  0.0006
 2620TIP3    H1 7824   0.464   2.250   2.501 -0.4216  0.1339 -1.9132
 2620TIP3    H2 7825   0.471   2.105   2.542  1.1301  1.1602  1.7765
 2621TIP3   OH2 7826   3.852   6.458   4.864  0.8667 -0.0526 -0.4180
 2621TIP3    H1 7827   3.864   6.550   4.889  2.3815 -0.1767 -0.6008
 2621TIP3    H2 7828   3.865   6.458   4.769 -0.1003 -0.3231 -0.5608
 2622TIP3   OH2 7829   5.480   3.747   4.063 -0.5650 -0.1967 -0.0058
 2622TIP3    H1 7830   5.416   3.719   4.127  0.2658  0.4231  1.1462
 2622TIP3    H2 7831   5.565   3.731   4.105 -0.0241  1.8057 -0.2131
 2623TIP3   OH2 7832   3.548   0.133   2.044 -0.1887 -0.8462  0.1377
 2623TIP3    H1 7833   3.501   0.132   2.128  1.8814 -1.2004  1.3638
 2623TIP3    H2 7834   3.606   0.057   2.049  0.5398 -0.4060 -1.2898
 2624TIP3   OH2 7835   5.739   3.790   2.765  0.0673 -0.3673  0.0182
 2624TIP3    H1 7836   5.799   3.862   2.781 -0.4472  0.0000  0.3037
 2624TIP3    H2 7837   5.716   3.799   2.672 -2.5136  1.8228  0.7467
 2625TIP3   OH2 7838   1.111   2.804   1.319 -0.0751  0.2527  0.0731
 2625TIP3    H1 7839   1.101   2.715   1.285 -0.6989  1.2804 -2.7061
 2625TIP3    H2 7840   1.196   2.803   1.364 -0.2205 -1.7916  0.4102
 2626TIP3   OH2 7841   5.753   0.488   5.482 -0.3422 -0.6160 -0.0489
 2626TIP3    H1 7842   5.709   0.531   5.555  0.5338  0.6885 -0.2568
 2626TIP3    H2 7843   5.783   0.560   5.426  0.0575 -1.5494 -1.0683
 2627TIP3   OH2 7844   4.146   6.587   1.288  0.0639  0.1298 -0.3797
 2627TIP3    H1 7845   4.106   6.658   1.339 -0.2604  1.2746 -2.1409
 2627TIP3    H2 7846   4.079   6.519   1.287 -0.2443  0.4170  0.0514
 2628TIP3   OH2 7847   0.519   5.065   0.981 -0.0560  0.1064  0.2149
 2628TIP3    H1 7848   0.540   5.009   1.055  1.1974  0.1869 -0.0656
 2628TIP3    H2 7849   0.548   5.152   1.007 -1.3935  0.5170  0.3868
 2629TIP3   OH2 7850   1.027   3.760   1.946  0.6036 -0.3798  0.9650
 2629TIP3    H1 7851   0.974   3.830   1.984 -0.9053 -0.7114 -0.4103
 2629TIP3    H2 7852   1.055   3.708   2.020 -1.1855 -0.2963  1.7515
 2630TIP3   OH2 7853   1.984   4.235   5.201 -0.1799 -0.5850 -0.4141
 2630TIP3    H1 7854   2.031   4.247   5.118  0.5112 -1.0444 -0.0962
 2630TIP3    H2 7855   2.004   4.314   5.251  0.9488 -1.1417  0.0431
 2631TIP3   OH2 7856   5.466   6.033   0.427  0.7387  0.2136  0.1735
 2631TIP3    H1 7857   5.398   6.065   0.486 -0.9390 -1.0197 -0.9914
 2631TIP3    H2 7858   5.481   5.943   0.454 -2.2722 -1.4537 -2.9625
 2632TIP3   OH2 7859   0.145   4.825   2.670  0.3601 -0.0718  0.4787
 2632TIP3    H1 7860   0.078   4.792   2.611  0.7825 -0.2393  0.0814
 2632TIP3    H2 7861   0.165   4.752   2.728  1.2986 -0.5453 -0.4045
 2633TIP3   OH2 7862   6.093   4.935   3.544  0.1158 -0.4336  0.3291
 2633TIP3    H1 7863   6.150   5.011   3.554 -0.3580 -0.2340  1.7057
 2633TIP3    H2 7864   6.026   4.963   3.482  1.1892 -0.4967 -0.9023
 2634TIP3   OH2 7865   3.646   2.112   3.757  0.1212  0.4847  0.3422
 2634TIP3    H1 7866   3.689   2.188   3.718  1.1793  0.0306  0.5853
 2634TIP3    H2 7867   3.651   2.044   3.689  1.1629 -0.0278  0.8914
 2635TIP3   OH2 7868   0.707   4.196   1.291 -0.3108  0.5371 -0.2020
 2635TIP3    H1 7869   0.638   4.194   1.224 -0.1889  1.4585 -0.3676
 2635TIP3    H2 7870   0.740   4.286   1.289  1.4687 -0.0833 -0.6949
 2636TIP3   OH2 7871   5.698   0.773   3.151 -0.6275  0.6931 -0.4484
 2636TIP3    H1 7872   5.790   0.777   3.121 -1.1264 -1.7035 -2.6723
 2636TIP3    H2 7873   5.700   0.716   3.228 -0.1076  1.8897  0.4591
 2637TIP3   OH2 7874   4.113   2.058   0.793  0.6166  0.3905  0.2067
 2637TIP3    H1 7875   4.188   2.038   0.849  1.6982  1.3032 -0.8733
 2637TIP3    H2 7876   4.065   2.126   0.841  0.0296 -0.6945  1.2361
 2638TIP3   OH2 7877   0.802   3.156   3.533 -0.1049  0.2027 -0.4165
 2638TIP3    H1 7878   0.718   3.113   3.549  0.0999  0.7205  2.5194
 2638TIP3    H2 7879   0.866   3.085   3.539 -0.2336 -0.1978 -2.6873
 2639TIP3   OH2 7880   0.225   3.574   5.129 -0.4402  0.6942 -0.1407
 2639TIP3    H1 7881   0.226   3.652   5.074 -1.5552  0.1680 -0.9472
 2639TIP3    H2 7882   0.229   3.607   5.219 -1.7503  1.7302 -0.4430
 2640TIP3   OH2 7883   1.909   5.089   5.215  0.0082  0.2689  0.6199
 2640TIP3    H1 7884   1.889   5.182   5.204  0.8387  0.5213  1.1824
 2640TIP3    H2 7885   1.824   5.049   5.233 -0.4649  0.8015 -0.3333
 2641TIP3   OH2 7886   4.028   2.681   1.956 -0.4790 -0.0384 -0.3897
 2641TIP3    H1 7887   4.078   2.602   1.976  1.3546  0.5907 -2.1323
 2641TIP3    H2 7888   4.061   2.747   2.017  0.0949  0.0991 -0.8375
 2642TIP3   OH2 7889   5.437   5.603   3.745  0.0392  0.3939 -0.1792
 2642TIP3    H1 7890   5.512   5.590   3.803 -0.3213 -1.1059 -0.0205
 2642TIP3    H2 7891   5.469   5.573   3.659 -0.0387  0.7968 -0.3505
 2643TIP3   OH2 7892   0.679   3.435   2.650 -0.2882  0.5683  0.1641
 2643TIP3    H1 7893   0.619   3.458   2.579  2.1933  1.1795 -1.8614
 2643TIP3    H2 7894   0.667   3.504   2.715 -1.1015  1.1692 -0.6034
 2644TIP3   OH2 7895   2.188   6.305   2.083  0.1421  0.1424  0.7097
 2644TIP3    H1 7896   2.205   6.219   2.123  0.8174  0.0430  0.2333
 2644TIP3    H2 7897   2.123   6.287   2.016  0.7272 -0.1165  0.2010
 2645TIP3   OH2 7898   5.080   2.641   1.361  0.0808  0.2593  0.2851
 2645TIP3    H1 7899   5.064   2.613   1.271  0.6567  0.8459 -0.0037
 2645TIP3    H2 7900   5.123   2.726   1.353 -2.7168  1.8986  1.1447
 2646TIP3   OH2 7901   4.303   2.562   1.400 -0.2168 -0.1455  0.9100
 2646TIP3    H1 7902   4.339   2.500   1.463  1.0247 -1.5817 -1.1200
 2646TIP3    H2 7903   4.220   2.523   1.372  1.6470 -2.3026 -2.1378
 2647TIP3   OH2 7904   2.665   4.794   1.969  0.4444 -0.3538 -0.4594
 2647TIP3    H1 7905   2.606   4.860   1.932 -0.6485  0.6054  2.6894
 2647TIP3    H2 7906   2.748   4.840   1.980  0.7478 -0.6169 -1.4859
 2648TIP3   OH2 7907   0.175   5.933   4.085  0.2766 -0.0779  0.2703
 2648TIP3    H1 7908   0.259   5.897   4.115  0.9377 -0.6824 -2.1340
 2648TIP3    H2 7909   0.198   6.013   4.038 -0.4542 -0.3744 -0.6132
 2649TIP3   OH2 7910   4.144   3.095   5.441  0.2990  0.1114 -0.2030
 2649TIP3    H1 7911   4.075   3.156   5.418 -1.0607 -1.4981 -0.5651
 2649TIP3    H2 7912   4.221   3.150   5.455 -0.7051  1.8213 -1.1168
 2650TIP3   OH2 7913   2.977   1.259   2.651 -0.4514 -0.8022 -0.4163
 2650TIP3    H1 7914   2.959   1.262   2.745 -0.1367 -1.5947 -0.3289
 2650TIP3    H2 7915   2.896   1.225   2.612 -0.3582 -1.0771 -0.3694
 2651TIP3   OH2 7916   7.023   3.128   2.599 -0.0178 -0.4454  0.2511
 2651TIP3    H1 7917   7.056   3.195   2.658  1.1933 -0.2001 -0.6452
 2651TIP3    H2 7918   7.075   3.050   2.620 -1.1665 -1.0165  1.0441
 2652TIP3   OH2 7919   1.755   1.375   2.131  0.1093 -0.4901  0.0148
 2652TIP3    H1 7920   1.695   1.401   2.202  0.0455 -1.8639  0.5038
 2652TIP3    H2 7921   1.772   1.456   2.083 -0.7693  0.2577  0.9094
 2653TIP3   OH2 7922   3.731   5.414   2.381 -0.2007  0.8354  0.0389
 2653TIP3    H1 7923   3.788   5.377   2.313  0.2284  2.3562 -0.4741
 2653TIP3    H2 7924   3.645   5.374   2.364  0.1144  0.5050 -0.8430
 2654TIP3   OH2 7925   3.062   4.486   0.350 -0.3463 -0.3704 -0.0696
 2654TIP3    H1 7926   3.012   4.492   0.269 -0.7283 -2.0694  0.0135
 2654TIP3    H2 7927   3.122   4.413   0.336 -0.7845 -1.0335  1.3567
 2655TIP3   OH2 7928   2.296   2.260   0.503 -0.9267  0.0115  0.0013
 2655TIP3    H1 7929   2.211   2.289   0.469 -1.9234 -1.5479  1.0688
 2655TIP3    H2 7930   2.283   2.168   0.526  0.1314  0.5390  3.1293
 2656TIP3   OH2 7931   1.418   3.828   5.038 -0.7680 -0.1015 -0.0179
 2656TIP3    H1 7932   1.506   3.853   5.008 -0.8204 -0.5267 -0.5430
 2656TIP3    H2 7933   1.358   3.878   4.983 -0.9178 -2.5241 -2.2963
 2657TIP3   OH2 7934   2.366   5.022   3.611  0.3721  0.0596  0.0223
 2657TIP3    H1 7935   2.276   5.053   3.621  0.7934  1.1621  0.5587
 2657TIP3    H2 7936   2.357   4.939   3.563 -0.9111  0.1985 -0.0308
 2658TIP3   OH2 7937   6.326   3.280   1.645 -0.4345  0.1333  0.4206
 2658TIP3    H1 7938   6.272   3.295   1.568  0.4792  1.5170 -0.0086
 2658TIP3    H2 7939   6.346   3.187   1.644 -2.8772 -0.4473  0.6803
 2659TIP3   OH2 7940   5.935   1.764   5.733 -0.2503 -0.5347 -0.5701
 2659TIP3    H1 7941   5.842   1.788   5.728 -0.1726 -0.3340 -1.1417
 2659TIP3    H2 7942   5.935   1.677   5.773 -0.8757 -1.5772 -2.6898
 2660TIP3   OH2 7943   2.370   0.605   5.426 -0.2693 -0.1245 -0.1263
 2660TIP3    H1 7944   2.434   0.564   5.483 -1.3497  0.1011  1.3175
 2660TIP3    H2 7945   2.322   0.532   5.386  0.3766 -0.2802 -0.6372
 2661TIP3   OH2 7946   0.311   6.189   1.297 -0.0995 -0.0564  0.0325
 2661TIP3    H1 7947   0.353   6.104   1.280  0.0588  0.2994 -1.5626
 2661TIP3    H2 7948   0.353   6.221   1.377 -0.3837 -1.6062  0.8430
 2662TIP3   OH2 7949   4.715   2.898   2.098  0.2384 -0.3848 -0.1895
 2662TIP3    H1 7950   4.656   2.965   2.063  0.5238  0.4386  0.8587
 2662TIP3    H2 7951   4.786   2.947   2.138  2.2883 -1.3709 -2.4004
 2663TIP3   OH2 7952   6.715   4.155   3.694  0.1202  0.6860 -0.1876
 2663TIP3    H1 7953   6.794   4.130   3.741  0.1160  1.1131  0.0474
 2663TIP3    H2 7954   6.655   4.186   3.762 -0.4217 -0.0577 -0.3040
 2664TIP3   OH2 7955   7.192   6.541   2.091  0.7086  0.3959 -0.3375
 2664TIP3    H1 7956   7.272   6.490   2.075  1.1230  1.3514 -1.4225
 2664TIP3    H2 7957   7.147   6.492   2.160  1.2751 -1.2458 -1.0558
 2665TIP3   OH2 7958   2.306   3.219   4.037 -0.2948 -0.3942 -0.5755
 2665TIP3    H1 7959   2.352   3.175   3.966  0.5061 -1.3783  0.5103
 2665TIP3    H2 7960   2.254   3.150   4.079 -0.1134 -0.0185  0.2934
 2666TIP3   OH2 7961   1.838   5.475   1.047  0.2953  0.4084 -0.2666
 2666TIP3    H1 7962   1.823   5.394   1.095  0.8961  0.1149 -0.5570
 2666TIP3    H2 7963   1.917   5.512   1.087  1.5728 -0.4958 -1.8325
 2667TIP3   OH2 7964   1.582   1.366   5.514 -0.1816  0.3554 -0.1036
 2667TIP3    H1 7965   1.599   1.407   5.429 -1.1350  2.2303  0.5620
 2667TIP3    H2 7966   1.489   1.343   5.511  0.0595 -0.7035  0.0000
 2668TIP3   OH2 7967   6.563   0.549   2.802  0.4019 -0.6474 -0.7171
 2668TIP3    H1 7968   6.574   0.632   2.848  1.9005 -0.9041 -0.5562
 2668TIP3    H2 7969   6.613   0.561   2.721 -0.7542 -0.8184 -1.4729
 2669TIP3   OH2 7970   2.357   6.792   3.276 -0.1898  0.1505  0.0552
 2669TIP3    H1 7971   2.408   6.774   3.355 -1.1039 -1.0835  0.4108
 2669TIP3    H2 7972   2.278   6.835   3.308  0.6275  2.1875 -0.5057
 2670TIP3   OH2 7973   1.948   4.813   2.807 -0.3545  0.2360  0.0854
 2670TIP3    H1 7974   1.984   4.856   2.884 -0.8894 -1.4071  1.3093
 2670TIP3    H2 7975   1.959   4.719   2.824 -2.8061 -0.2659 -0.6452
 2671TIP3   OH2 7976   3.075   2.551   5.784  0.0552  0.0145  0.4980
 2671TIP3    H1 7977   3.050   2.459   5.783  0.2128 -0.0500 -1.4132
 2671TIP3    H2 7978   3.105   2.567   5.873 -2.0741 -1.1856  1.4998
 2672TIP3   OH2 7979   5.310   3.286   5.303  0.3272  0.5931 -0.2967
 2672TIP3    H1 7980   5.397   3.245   5.304  0.0092 -0.0989  0.5522
 2672TIP3    H2 7981   5.291   3.302   5.211  1.8177  1.7746 -0.4396
 2673TIP3   OH2 7982   0.731   3.477   5.843 -0.3889 -0.2895 -0.1044
 2673TIP3    H1 7983   0.751   3.567   5.818 -3.1198  0.5182  0.3031
 2673TIP3    H2 7984   0.675   3.444   5.773  2.3303 -2.5469 -1.3974
 2674TIP3   OH2 7985   4.249   4.612   4.728 -0.3999 -0.6155  0.2612
 2674TIP3    H1 7986   4.173   4.665   4.748 -0.3568 -0.8194  1.0071
 2674TIP3    H2 7987   4.223   4.559   4.653 -1.6569 -2.0008  1.6116
 2675TIP3   OH2 7988   4.751   1.305   1.090  0.7239  0.3894 -0.5770
 2675TIP3    H1 7989   4.738   1.271   1.001  0.7408 -0.6014 -0.2020
 2675TIP3    H2 7990   4.751   1.228   1.146 -0.9343  1.1098  0.4887
 2676TIP3   OH2 7991   7.005   3.009   0.994 -0.3877  0.1558  0.3529
 2676TIP3    H1 7992   6.921   2.965   1.007  0.1450 -0.6127  1.2603
 2676TIP3    H2 7993   6.985   3.080   0.932 -2.0337  0.9950  1.7640
 2677TIP3   OH2 7994   3.386   1.296   4.068  0.4216 -0.3598 -0.2095
 2677TIP3    H1 7995   3.414   1.331   4.153  1.3777 -1.2747 -0.1208
 2677TIP3    H2 7996   3.349   1.371   4.022 -0.3342  0.1076  1.0984
 2678TIP3   OH2 7997   3.858   2.526   2.902  0.2685 -0.4609 -0.2051
 2678TIP3    H1 7998   3.948   2.527   2.869  0.4988 -0.2038  0.4198
 2678TIP3    H2 7999   3.866   2.500   2.994  0.1689  3.5679  1.1397
 2679TIP3   OH2 8000   6.557   3.106   3.260  0.1566  0.0374  0.0380
 2679TIP3    H1 8001   6.564   3.197   3.288 -1.3467  0.8889 -2.0386
 2679TIP3    H2 8002   6.622   3.059   3.312  0.8847  2.2611  1.2574
 2680TIP3   OH2 8003   0.501   1.549   1.546 -0.0076  0.3647 -0.5602
 2680TIP3    H1 8004   0.494   1.457   1.524 -1.1702 -0.0129  1.1750
 2680TIP3    H2 8005   0.413   1.584   1.532  0.4550  1.2829 -1.3655
 2681TIP3   OH2 8006   6.678   4.724   2.499 -0.1465 -0.3100  0.4116
 2681TIP3    H1 8007   6.620   4.649   2.515 -0.3868 -0.4579 -1.0146
 2681TIP3    H2 8008   6.719   4.741   2.584 -1.0954 -1.2025  1.0775
 2682TIP3   OH2 8009   2.722   5.364   3.046 -0.0154 -0.2020  0.0801
 2682TIP3    H1 8010   2.777   5.441   3.056 -0.8830  0.2566  1.5351
 2682TIP3    H2 8011   2.643   5.396   3.001 -1.1065  0.1643  2.1478
 2683TIP3   OH2 8012   1.946   1.409   0.090 -0.2335 -0.2006  0.0726
 2683TIP3    H1 8013   1.861   1.366   0.097 -0.3392  0.1715  1.2522
 2683TIP3    H2 8014   1.926   1.500   0.070 -0.0737 -0.3296 -0.6779
 2684TIP3   OH2 8015   1.406   2.692   4.739  0.5741  0.9846 -0.4529
 2684TIP3    H1 8016   1.320   2.694   4.782  0.4711  1.3017 -0.6648
 2684TIP3    H2 8017   1.398   2.625   4.671  1.0754 -0.2886  0.6970
 2685TIP3   OH2 8018   2.641   3.662   1.464 -0.3191 -0.3214  0.0417
 2685TIP3    H1 8019   2.644   3.755   1.489 -0.1735 -0.4693  0.5775
 2685TIP3    H2 8020   2.628   3.664   1.369 -2.2204  0.2517  0.2654
 2686TIP3   OH2 8021   0.337   0.863   1.260 -0.4294  0.1593  0.0722
 2686TIP3    H1 8022   0.423   0.903   1.259 -0.0522 -0.6344 -1.0143
 2686TIP3    H2 8023   0.293   0.902   1.335  0.4726  1.4059 -0.0248
 2687TIP3   OH2 8024   0.433   0.476   0.677 -0.0004 -0.5213  0.1303
 2687TIP3    H1 8025   0.478   0.424   0.744 -0.0740  0.6953  1.1575
 2687TIP3    H2 8026   0.504   0.509   0.621  0.1097 -1.1044 -0.0795
 2688TIP3   OH2 8027   5.949   2.551   2.628  0.1020 -0.0333  0.3458
 2688TIP3    H1 8028   5.965   2.541   2.722  0.4342  0.8144  0.3903
 2688TIP3    H2 8029   5.864   2.510   2.613  1.3441 -2.8745  0.4753
 2689TIP3   OH2 8030   4.909   4.529   3.587  0.8314 -0.5474 -0.2072
 2689TIP3    H1 8031   4.839   4.508   3.526  0.3906 -1.6395  0.6357
 2689TIP3    H2 8032   4.867   4.581   3.655  0.6564 -1.7313  0.6312
 2690TIP3   OH2 8033   4.010   5.829   3.263 -0.6492  0.1904 -0.0201
 2690TIP3    H1 8034   3.938   5.791   3.314 -0.7235  0.4035  0.0343
 2690TIP3    H2 8035   4.049   5.755   3.218 -1.1058  0.1216 -0.3056
 2691TIP3   OH2 8036   5.546   2.841   5.154 -0.5836  0.3051 -0.0210
 2691TIP3    H1 8037   5.506   2.812   5.072 -1.2006 -0.4985  0.5663
 2691TIP3    H2 8038   5.475   2.883   5.203 -0.9171 -1.7007  1.3036
 2692TIP3   OH2 8039   5.719   6.409   5.710 -0.4853  0.0776  0.4951
 2692TIP3    H1 8040   5.794   6.402   5.651 -0.4509  1.6077  0.3315
 2692TIP3    H2 8041   5.710   6.502   5.727 -0.9314 -0.2711  2.3754
 2693TIP3   OH2 8042   1.744   3.379   0.381 -0.1321 -0.3899 -0.1991
 2693TIP3    H1 8043   1.751   3.367   0.286  2.7455 -3.2730  0.1998
 2693TIP3    H2 8044   1.694   3.304   0.411 -0.6677  0.2813  0.6113
 2694TIP3   OH2 8045   4.444   5.219   2.469 -0.1964  0.0746 -0.3086
 2694TIP3    H1 8046   4.478   5.307   2.487 -2.1661  1.2801 -2.0030
 2694TIP3    H2 8047   4.483   5.195   2.386 -2.1913  0.8582 -1.5438
 2695TIP3   OH2 8048   4.257   4.258   4.283 -0.2618  0.3211 -0.1765
 2695TIP3    H1 8049   4.297   4.252   4.370 -1.3816 -1.9924  0.2501
 2695TIP3    H2 8050   4.264   4.169   4.247 -4.1224 -0.0271 -0.4202
 2696TIP3   OH2 8051   3.103   5.005   3.294  0.2797 -0.0697 -0.2551
 2696TIP3    H1 8052   3.035   5.062   3.258 -0.5377 -1.1980 -0.5354
 2696TIP3    H2 8053   3.167   5.066   3.333 -0.6431  1.0238 -0.4001
 2697TIP3   OH2 8054   5.393   4.903   1.379  0.2130 -0.4701 -0.8416
 2697TIP3    H1 8055   5.429   4.981   1.421  0.0747 -1.0306  0.3325
 2697TIP3    H2 8056   5.431   4.904   1.291  1.9612 -0.2402 -0.1284
 2698TIP3   OH2 8057   2.420   3.629   1.046 -0.4381 -0.4497  0.1408
 2698TIP3    H1 8058   2.365   3.630   0.968  0.0693  1.1265 -0.2276
 2698TIP3    H2 8059   2.359   3.646   1.119 -0.6165  0.1004 -0.1338
 2699TIP3   OH2 8060   0.267   0.194   2.271  0.1246  0.2884  0.2374
 2699TIP3    H1 8061   0.294   0.104   2.253  0.2592  0.0352  1.6123
 2699TIP3    H2 8062   0.244   0.230   2.185 -0.9817 -1.4037 -0.2141
 2700TIP3   OH2 8063   2.366   0.713   0.897  0.3354 -0.6287 -0.1001
 2700TIP3    H1 8064   2.460   0.695   0.889  0.0257 -1.8698 -1.4484
 2700TIP3    H2 8065   2.346   0.770   0.823  0.1516  0.2324  0.6064
 2701TIP3   OH2 8066   0.380   3.332   5.080  0.1598 -0.3462 -0.0048
 2701TIP3    H1 8067   0.303   3.275   5.085 -0.6337  0.6721 -0.1864
 2701TIP3    H2 8068   0.348   3.417   5.111  1.0162  0.2854 -0.7966
 2702TIP3   OH2 8069   0.587   5.062   5.489 -0.8841  0.3270 -0.0045
 2702TIP3    H1 8070   0.614   5.066   5.397  0.8984  1.1148  0.4996
 2702TIP3    H2 8071   0.548   4.976   5.500  1.6297 -1.0136 -0.8344
 2703TIP3   OH2 8072   1.351   6.175   3.362 -0.2693  0.0853  0.1859
 2703TIP3    H1 8073   1.340   6.244   3.426 -0.1739 -0.7309  1.1024
 2703TIP3    H2 8074   1.352   6.094   3.413 -1.0532 -0.6541 -0.9147
 2704TIP3   OH2 8075   1.449   6.512   1.183 -0.3876  0.1474 -0.5407
 2704TIP3    H1 8076   1.388   6.449   1.221 -1.3043  1.0307 -0.4772
 2704TIP3    H2 8077   1.392   6.576   1.139  0.5540  0.3231 -1.5586
 2705TIP3   OH2 8078   7.123   5.725   4.518 -0.3681 -0.0118 -0.0682
 2705TIP3    H1 8079   7.184   5.766   4.579 -1.5714  1.7982 -0.0159
 2705TIP3    H2 8080   7.141   5.631   4.526  0.3690  0.2512  2.1206
 2706TIP3   OH2 8081   6.137   5.904   1.421 -0.8303  0.6647  0.2979
 2706TIP3    H1 8082   6.116   5.813   1.443 -0.9992  0.6907  0.2499
 2706TIP3    H2 8083   6.134   5.951   1.504  0.2181  0.4494  0.4678
 2707TIP3   OH2 8084   2.255   0.568   3.344 -0.3951  0.2535  0.4847
 2707TIP3    H1 8085   2.319   0.501   3.366 -0.6647 -0.5575 -1.0447
 2707TIP3    H2 8086   2.170   0.528   3.364 -0.5459  0.1993 -0.2207
 2708TIP3   OH2 8087   5.122   5.204   2.941  0.1216  0.1330  0.6689
 2708TIP3    H1 8088   5.111   5.135   3.006 -0.0747 -0.6670 -0.1895
 2708TIP3    H2 8089   5.044   5.196   2.885 -0.4528  1.7462  1.1753
 2709TIP3   OH2 8090   4.247   2.950   1.774 -0.5371  0.2178 -0.1782
 2709TIP3    H1 8091   4.222   2.896   1.698 -0.3631  2.0269 -1.5946
 2709TIP3    H2 8092   4.343   2.948   1.773 -0.5297 -0.8061  0.8219
 2710TIP3   OH2 8093   1.609   0.340   5.385 -0.2462 -0.4622  0.1576
 2710TIP3    H1 8094   1.567   0.371   5.465 -1.6207 -0.0934 -0.6816
 2710TIP3    H2 8095   1.545   0.357   5.316  1.3359  0.2319 -1.1934
 2711TIP3   OH2 8096   3.018   5.360   2.405  0.3447  0.4056 -0.3673
 2711TIP3    H1 8097   3.106   5.392   2.421  0.4758 -0.1267 -0.0155
 2711TIP3    H2 8098   2.965   5.399   2.474  0.1087  1.5111 -1.1442
 2712TIP3   OH2 8099   4.806   2.116   1.740 -0.5101 -0.1635 -0.3321
 2712TIP3    H1 8100   4.806   2.211   1.725  1.0475 -0.0529  0.1658
 2712TIP3    H2 8101   4.802   2.107   1.835 -1.0701 -0.6197 -0.3963
 2713TIP3   OH2 8102   2.310   0.961   4.766  0.1079 -0.4165  0.1261
 2713TIP3    H1 8103   2.373   0.991   4.701  0.1650  0.3387  0.5256
 2713TIP3    H2 8104   2.363   0.937   4.842 -0.0987  0.4508  0.5506
 2714TIP3   OH2 8105   1.685   2.512   2.634  0.7364 -0.0483  0.0736
 2714TIP3    H1 8106   1.736   2.509   2.715  0.6555  1.3221  0.1878
 2714TIP3    H2 8107   1.747   2.484   2.566  0.8308 -1.1132  0.5726
 2715TIP3   OH2 8108   1.428   5.911   2.431 -0.0878  0.3310 -0.8372
 2715TIP3    H1 8109   1.374   5.927   2.507  1.1408  0.1773  0.1103
 2715TIP3    H2 8110   1.425   5.992   2.380 -1.0974  0.3496 -0.7650
 2716TIP3   OH2 8111   5.446   4.327   0.318 -0.0227 -0.4233 -0.2708
 2716TIP3    H1 8112   5.352   4.344   0.319  0.0224 -0.1612 -0.1226
 2716TIP3    H2 8113   5.484   4.410   0.289  0.1468 -0.6148 -0.6000
 2717TIP3   OH2 8114   3.103   4.307   2.725  0.3011 -0.6519 -0.8712
 2717TIP3    H1 8115   3.040   4.369   2.688  0.1326 -1.6817 -2.4131
 2717TIP3    H2 8116   3.187   4.351   2.718  0.0240 -0.0836 -0.7188
 2718TIP3   OH2 8117   1.307   5.689   4.205  0.2122  0.2315 -0.2068
 2718TIP3    H1 8118   1.236   5.678   4.269  1.1909  1.0688  1.0629
 2718TIP3    H2 8119   1.261   5.699   4.121 -1.1031 -0.9287  0.3281
 2719TIP3   OH2 8120   3.878   2.292   4.397 -0.2775 -0.1632 -0.1867
 2719TIP3    H1 8121   3.886   2.345   4.477  0.7564  0.2879 -0.5605
 2719TIP3    H2 8122   3.842   2.352   4.332 -2.3547 -0.8811  0.2386
 2720TIP3   OH2 8123   6.447   0.270   3.571  0.4135  0.2393 -0.2435
 2720TIP3    H1 8124   6.527   0.322   3.582 -1.5180  2.9974  2.4245
 2720TIP3    H2 8125   6.400   0.314   3.499  0.4488 -0.1850 -0.5274
 2721TIP3   OH2 8126   2.634   5.084   5.110 -0.1889  0.0787 -0.3097
 2721TIP3    H1 8127   2.677   5.035   5.180  1.1436  1.2268 -0.2768
 2721TIP3    H2 8128   2.565   5.133   5.154  0.0749  0.1199  0.0649
 2722TIP3   OH2 8129   5.568   0.725   1.190 -0.0919  0.6605  0.1874
 2722TIP3    H1 8130   5.645   0.680   1.155  0.5504  1.9690 -0.1673
 2722TIP3    H2 8131   5.604   0.788   1.253 -0.7284  2.0834 -0.8028
 2723TIP3   OH2 8132   1.534   1.162   1.069  0.2667 -0.2476 -0.0336
 2723TIP3    H1 8133   1.552   1.239   1.122 -1.9598 -0.6181  1.4200
 2723TIP3    H2 8134   1.513   1.196   0.982  2.0658  0.5294 -0.1880
 2724TIP3   OH2 8135   3.807   2.469   5.756 -0.9225  0.2546 -0.5225
 2724TIP3    H1 8136   3.878   2.520   5.794 -1.9356  1.4686 -0.1855
 2724TIP3    H2 8137   3.845   2.427   5.679  0.4523 -0.0740  0.3129
 2725TIP3   OH2 8138   0.652   4.200   4.299 -0.2005 -0.2486  0.5566
 2725TIP3    H1 8139   0.562   4.232   4.287 -0.4610 -1.4415 -0.9680
 2725TIP3    H2 8140   0.683   4.182   4.210  1.0115 -1.2960  1.1668
 2726TIP3   OH2 8141   1.933   3.067   2.839 -0.0431  0.2951 -0.4947
 2726TIP3    H1 8142   1.881   2.987   2.848  0.4599  0.0216  0.0437
 2726TIP3    H2 8143   1.946   3.098   2.929  3.0460 -1.1661 -0.2780
 2727TIP3   OH2 8144   5.023   1.442   0.260 -0.5448 -0.0304 -0.1381
 2727TIP3    H1 8145   4.976   1.501   0.319 -2.8191 -0.4682 -1.4320
 2727TIP3    H2 8146   5.116   1.464   0.274 -1.1081  1.2263  2.1186
 2728TIP3   OH2 8147   4.010   2.856   5.629  0.1371 -0.0810  0.3345
 2728TIP3    H1 8148   3.977   2.798   5.560  1.1419  0.8730 -0.9927
 2728TIP3    H2 8149   4.067   2.918   5.584  1.9307 -0.2423  2.2117
 2729TIP3   OH2 8150   3.652   1.523   3.975  0.0065 -0.2413  0.5090
 2729TIP3    H1 8151   3.578   1.496   3.921 -0.1526 -1.6504  1.3913
 2729TIP3    H2 8152   3.622   1.511   4.065  0.7269  0.8077  0.9123
 2730TIP3   OH2 8153   3.719   2.640   1.952  0.0945 -0.1917 -0.6073
 2730TIP3    H1 8154   3.630   2.631   1.987 -0.0261  0.3102 -0.7745
 2730TIP3    H2 8155   3.706   2.657   1.858  0.2267  2.5453 -0.2291
 2731TIP3   OH2 8156   3.010   4.730  -0.013  0.5574 -0.4034 -0.4599
 2731TIP3    H1 8157   3.099   4.737   0.022  0.5698 -0.7049 -0.4259
 2731TIP3    H2 8158   2.971   4.657   0.036  0.3249 -0.3368 -0.5461
 2732TIP3   OH2 8159   1.874   4.305   3.331 -0.8373  0.5704 -0.3933
 2732TIP3    H1 8160   1.883   4.247   3.407  0.7687  1.3773  0.0771
 2732TIP3    H2 8161   1.935   4.377   3.349  0.7052  0.0717 -3.0800
 2733TIP3   OH2 8162   6.059   4.656   2.120 -0.4052 -0.5750 -0.0033
 2733TIP3    H1 8163   6.150   4.651   2.091 -0.5171 -0.8072 -0.3234
 2733TIP3    H2 8164   6.011   4.686   2.042 -0.7456 -1.4306 -0.1279
 2734TIP3   OH2 8165   1.863   6.627   1.865  0.0547  0.5244  0.1487
 2734TIP3    H1 8166   1.936   6.618   1.804  0.1660 -0.5912  0.4221
 2734TIP3    H2 8167   1.875   6.556   1.928  0.3054  2.0270  1.8794
 2735TIP3   OH2 8168   0.821   2.083   3.709 -0.0019 -0.0717 -0.2968
 2735TIP3    H1 8169   0.736   2.071   3.751  0.3609 -0.6367  0.2964
 2735TIP3    H2 8170   0.836   2.177   3.709 -0.4834  0.0030 -0.1193
 2736TIP3   OH2 8171   5.646   2.992   3.327  0.1416  0.3804 -0.4066
 2736TIP3    H1 8172   5.708   2.951   3.266 -0.3721 -0.4066 -0.4176
 2736TIP3    H2 8173   5.560   2.976   3.289 -0.1425  0.5003  0.1676
 2737TIP3   OH2 8174   5.135   5.441   5.661  0.3627 -0.1066 -0.0280
 2737TIP3    H1 8175   5.069   5.477   5.721  0.4280 -1.9170  1.2192
 2737TIP3    H2 8176   5.202   5.509   5.657 -1.1066  1.3750 -0.5741
 2738TIP3   OH2 8177   6.073   1.988   1.881 -0.6102 -0.2590 -0.1301
 2738TIP3    H1 8178   6.121   2.056   1.834  0.9032 -0.4387  1.0539
 2738TIP3    H2 8179   6.097   1.907   1.838 -1.0564 -0.2093 -0.4756
 2739TIP3   OH2 8180   0.709   0.281   1.638 -0.4607 -0.0564 -0.3608
 2739TIP3    H1 8181   0.758   0.288   1.720  0.3515 -0.5065 -0.8066
 2739TIP3    H2 8182   0.649   0.356   1.641 -0.6604 -0.2361  0.7848
 2740TIP3   OH2 8183   5.962   2.893   4.884 -0.2738 -0.4137  0.4436
 2740TIP3    H1 8184   6.013   2.813   4.891 -0.8776 -0.7871  0.6639
 2740TIP3    H2 8185   5.956   2.910   4.790 -1.8851 -1.7771  0.2637
 2741TIP3   OH2 8186   2.236   6.453   3.167  0.1814  0.1225 -0.2217
 2741TIP3    H1 8187   2.184   6.531   3.151 -0.2835 -0.1188  0.0826
 2741TIP3    H2 8188   2.198   6.386   3.110 -0.5614 -0.3510  0.7834
 2742TIP3   OH2 8189   1.687   0.099   5.589 -0.2330 -0.2623 -1.1399
 2742TIP3    H1 8190   1.686   0.188   5.626  1.1919 -0.3132 -0.9447
 2742TIP3    H2 8191   1.694   0.113   5.494  4.7688 -0.0615 -0.9590
 2743TIP3   OH2 8192   3.819   3.272   1.522  0.4586  0.4867  0.2617
 2743TIP3    H1 8193   3.754   3.228   1.467  0.0696  0.1052  0.9932
 2743TIP3    H2 8194   3.818   3.221   1.604  0.9895  1.0557  0.6291
 2744TIP3   OH2 8195   2.916   5.990   5.467  0.6866 -0.0949  0.6018
 2744TIP3    H1 8196   2.979   5.943   5.523  0.4213 -0.4304  0.6192
 2744TIP3    H2 8197   2.852   5.924   5.442  2.0369 -0.5194 -1.9899
 2745TIP3   OH2 8198   5.265   2.278   0.856 -0.2819 -0.6283  0.0351
 2745TIP3    H1 8199   5.213   2.308   0.782 -0.4939 -2.6383 -0.6842
 2745TIP3    H2 8200   5.352   2.262   0.820  0.0094 -0.2333  0.5485
 2746TIP3   OH2 8201   0.086   4.094   2.635  0.1927  0.3822  0.5850
 2746TIP3    H1 8202   0.096   3.999   2.639 -0.0851  0.3526  0.6193
 2746TIP3    H2 8203   0.095   4.115   2.542  1.2592  0.4417  0.6930
 2747TIP3   OH2 8204   3.980   4.761   2.285  0.5616 -0.0958  0.5927
 2747TIP3    H1 8205   3.914   4.753   2.216  1.6991  1.5802 -0.7824
 2747TIP3    H2 8206   3.932   4.748   2.367 -1.2315 -0.1024 -0.4255
 2748TIP3   OH2 8207   2.534   3.940   1.424  0.1283  0.2011 -0.3999
 2748TIP3    H1 8208   2.599   3.976   1.363 -0.0185  0.7931 -0.2095
 2748TIP3    H2 8209   2.459   3.999   1.417 -0.3206 -0.3708 -0.4768
 2749TIP3   OH2 8210   2.311   5.350   5.005 -0.7344  0.3394 -0.3191
 2749TIP3    H1 8211   2.273   5.265   4.982 -0.6450  1.0021 -3.2096
 2749TIP3    H2 8212   2.236   5.410   5.007 -0.2907  1.2532 -4.0979
 2750TIP3   OH2 8213   5.222   6.510   2.379  0.1834  0.1227 -0.2644
 2750TIP3    H1 8214   5.182   6.526   2.464 -1.2193  0.4168 -0.9477
 2750TIP3    H2 8215   5.179   6.431   2.347  1.3755 -0.5253 -0.3171
 2751TIP3   OH2 8216   1.665   1.343   0.480  0.0094 -0.3590  0.5401
 2751TIP3    H1 8217   1.640   1.424   0.525 -0.1151  0.0103 -0.1726
 2751TIP3    H2 8218   1.639   1.358   0.389  1.3916 -0.5890  0.0818
 2752TIP3   OH2 8219   0.509   4.502   4.413 -0.1138 -0.7094  0.3468
 2752TIP3    H1 8220   0.476   4.427   4.365  0.3227 -0.3752 -0.4988
 2752TIP3    H2 8221   0.598   4.515   4.380 -0.3949  0.5447  0.0374
 2753TIP3   OH2 8222   1.739   0.743   1.359  0.5650  0.0340 -0.2307
 2753TIP3    H1 8223   1.765   0.832   1.336 -0.3480  0.3022 -0.2779
 2753TIP3    H2 8224   1.670   0.721   1.296  0.0452 -0.3014  0.4422
 2754TIP3   OH2 8225   6.696   5.773   0.514 -0.1787  0.0700 -0.1564
 2754TIP3    H1 8226   6.611   5.811   0.538 -0.5627  0.1235 -1.4918
 2754TIP3    H2 8227   6.677   5.682   0.493  0.6405 -0.7912  2.4286
 2755TIP3   OH2 8228   3.056   5.026   1.678  0.2527  0.3557  0.0419
 2755TIP3    H1 8229   3.142   5.067   1.688  0.8702 -0.7870 -0.3959
 2755TIP3    H2 8230   3.065   4.970   1.602 -0.3383 -1.1634  1.0489
 2756TIP3   OH2 8231   3.688   3.843   0.365 -0.0305 -0.9699 -0.0797
 2756TIP3    H1 8232   3.775   3.881   0.361  0.1489 -1.0784  1.8344
 2756TIP3    H2 8233   3.701   3.749   0.348  0.2121 -0.9637  0.0717
 2757TIP3   OH2 8234   1.801   3.511   4.857  0.3878  0.3435  0.2377
 2757TIP3    H1 8235   1.837   3.509   4.769  1.1237 -0.6183  0.5351
 2757TIP3    H2 8236   1.740   3.438   4.860 -0.1173  0.7663  0.3352
 2758TIP3   OH2 8237   4.195   2.608   4.849 -0.0421  0.2248  0.6261
 2758TIP3    H1 8238   4.103   2.592   4.869 -0.1610  0.7157  0.4913
 2758TIP3    H2 8239   4.218   2.686   4.900 -0.0330  0.7974 -0.2339
 2759TIP3   OH2 8240   3.537   2.271   0.993 -0.2515  0.3163  0.4862
 2759TIP3    H1 8241   3.578   2.291   0.908 -2.6610  1.3377 -0.5075
 2759TIP3    H2 8242   3.525   2.176   0.991  0.8659  0.1551  0.2774
 2760TIP3   OH2 8243  -0.002   2.742   3.085 -0.5212 -0.8095 -0.0980
 2760TIP3    H1 8244   0.081   2.735   3.038 -0.8319 -0.0078 -0.7974
 2760TIP3    H2 8245  -0.036   2.828   3.061 -1.2379 -0.8534  0.7127
 2761TIP3   OH2 8246   7.078   0.182   2.881 -0.2215  0.3060  0.6585
 2761TIP3    H1 8247   7.067   0.270   2.917  0.1925  0.6940 -0.1418
 2761TIP3    H2 8248   7.173   0.168   2.879 -0.2643  0.0586  0.2626
 2762TIP3   OH2 8249   0.676   3.369   3.644 -0.0012  0.1729 -0.6169
 2762TIP3    H1 8250   0.585   3.341   3.628 -0.7818  1.6506  0.9553
 2762TIP3    H2 8251   0.727   3.290   3.629 -1.9214 -1.7060  1.8841
 2763TIP3   OH2 8252   3.595   3.277   3.311  0.0188 -0.6432  0.4053
 2763TIP3    H1 8253   3.566   3.355   3.358  1.4380 -0.9818  1.9378
 2763TIP3    H2 8254   3.572   3.294   3.220  1.2317  2.0306  0.5140
 2764TIP3   OH2 8255   2.788   6.720   5.176  0.1178  0.1960 -0.3876
 2764TIP3    H1 8256   2.819   6.692   5.090  0.7603  1.2399 -0.5146
 2764TIP3    H2 8257   2.830   6.661   5.238  0.6550  0.2282 -0.7158
 2765TIP3   OH2 8258   2.213   5.763   2.619 -0.6759 -0.0432 -0.3508
 2765TIP3    H1 8259   2.181   5.836   2.672  1.1773  0.9145 -0.4714
 2765TIP3    H2 8260   2.144   5.749   2.553 -0.2074  2.9999 -1.6487
 2766TIP3   OH2 8261   3.075   1.984   0.406 -0.0309  0.2807 -0.4061
 2766TIP3    H1 8262   3.160   2.022   0.387  0.4160 -0.4951 -0.0083
 2766TIP3    H2 8263   3.077   1.899   0.362 -0.7200  0.3824 -0.6466
 2767TIP3   OH2 8264   4.660   6.498   5.317  0.5827  0.0139 -0.6392
 2767TIP3    H1 8265   4.604   6.506   5.240 -0.2519 -0.4241 -0.0985
 2767TIP3    H2 8266   4.603   6.520   5.390  0.3430 -2.8427  0.1753
 2768TIP3   OH2 8267   2.775   4.986   4.707 -0.2265 -0.2867  0.0754
 2768TIP3    H1 8268   2.730   4.904   4.683 -1.9954  0.1535  1.6131
 2768TIP3    H2 8269   2.719   5.055   4.672 -0.1216  0.2788  1.0034
 2769TIP3   OH2 8270   5.538   2.351   0.155  0.1186  0.5350  0.6849
 2769TIP3    H1 8271   5.569   2.359   0.246 -0.0972 -1.6125  0.9866
 2769TIP3    H2 8272   5.561   2.435   0.115  0.0604  1.6036  2.7581
 2770TIP3   OH2 8273   6.207   2.326   1.965  0.3033 -0.3836  0.8437
 2770TIP3    H1 8274   6.113   2.330   1.947  0.6588 -2.3484 -2.1357
 2770TIP3    H2 8275   6.213   2.292   2.054 -1.7639  0.9151  1.5569
 2771TIP3   OH2 8276   3.110   4.149   4.445  0.2911 -0.1884  0.0414
 2771TIP3    H1 8277   3.130   4.066   4.401 -2.1142 -1.2517  0.7873
 2771TIP3    H2 8278   3.026   4.176   4.408  0.0190  0.8179  1.3243
 2772TIP3   OH2 8279   2.850   2.564   1.758  0.8966  0.2991 -0.5105
 2772TIP3    H1 8280   2.915   2.496   1.743  0.1821 -0.4751 -0.1745
 2772TIP3    H2 8281   2.864   2.591   1.849  0.6627  0.0381 -0.3967
 2773TIP3   OH2 8282   1.003   5.035   0.955  0.2712 -0.4029  0.2656
 2773TIP3    H1 8283   0.931   5.094   0.975  0.3438 -0.6063  1.1802
 2773TIP3    H2 8284   1.081   5.091   0.959  0.3335 -0.5390  1.0655
 2774TIP3   OH2 8285   0.126   6.227   0.306 -0.7397  0.3393 -0.2148
 2774TIP3    H1 8286   0.108   6.174   0.384  0.0141 -0.6648 -0.6990
 2774TIP3    H2 8287   0.066   6.192   0.239 -0.1704  0.0077 -0.5642
 2775TIP3   OH2 8288   5.028   2.069   4.225 -0.1954  0.1874  0.6769
 2775TIP3    H1 8289   4.985   2.052   4.310  1.5391  3.6313  2.4497
 2775TIP3    H2 8290   4.985   2.148   4.192 -0.1137 -0.5051 -1.2165
 2776TIP3   OH2 8291   2.984   4.912   5.485 -0.1867 -0.3036  0.1094
 2776TIP3    H1 8292   2.993   4.864   5.567 -0.1821 -0.2640  0.1321
 2776TIP3    H2 8293   3.033   4.993   5.500 -0.3050 -0.2335  0.1170
 2777TIP3   OH2 8294   6.500   3.162   5.235 -0.6079 -0.0979 -0.2531
 2777TIP3    H1 8295   6.412   3.166   5.271 -0.4092 -0.6036  0.3008
 2777TIP3    H2 8296   6.496   3.213   5.154 -1.3317  0.1208 -0.0778
 2778TIP3   OH2 8297   1.231   3.475   3.125 -0.0932  0.0083  0.0584
 2778TIP3    H1 8298   1.190   3.388   3.123  2.8288 -1.4975 -1.6088
 2778TIP3    H2 8299   1.231   3.499   3.218  0.9942 -2.9130  0.9688
 2779TIP3   OH2 8300   2.761   0.363   5.298  0.1448 -0.0577  0.6482
 2779TIP3    H1 8301   2.751   0.399   5.385 -0.2249 -2.2652  1.6000
 2779TIP3    H2 8302   2.672   0.339   5.272  0.2581  0.5244 -0.3200
 2780TIP3   OH2 8303   2.215   4.741   5.275  0.0463 -0.1923  0.6661
 2780TIP3    H1 8304   2.232   4.800   5.202 -0.6651 -0.5849  0.1802
 2780TIP3    H2 8305   2.189   4.799   5.347  1.7537  0.2836  0.9477
 2781TIP3   OH2 8306   6.296   3.702   4.805 -1.0123 -0.5810  1.1135
 2781TIP3    H1 8307   6.357   3.668   4.739 -0.8092 -0.2553  1.1274
 2781TIP3    H2 8308   6.347   3.770   4.851 -1.4387 -0.1987  1.0226
 2782TIP3   OH2 8309   5.244   3.074   4.318 -0.5465  0.1203 -0.3855
 2782TIP3    H1 8310   5.234   3.075   4.414  0.7213 -0.0148 -0.2350
 2782TIP3    H2 8311   5.196   3.151   4.288 -0.2430  0.6461  0.4459
 2783TIP3   OH2 8312   3.963   2.013   3.612  0.2179 -0.3539 -0.1314
 2783TIP3    H1 8313   4.044   1.964   3.601  1.4668  0.8816  2.5474
 2783TIP3    H2 8314   3.990   2.105   3.608 -1.1780  0.0845  0.0248
 2784TIP3   OH2 8315   1.886   5.387   5.234 -0.5705  0.3622  0.5282
 2784TIP3    H1 8316   1.936   5.455   5.281  1.1150  0.2947 -1.0224
 2784TIP3    H2 8317   1.802   5.383   5.279 -0.0301  2.1720  1.8208
 2785TIP3   OH2 8318   3.750   6.304   1.555 -0.0911  0.5323 -0.5168
 2785TIP3    H1 8319   3.722   6.350   1.635 -0.6595 -1.0694  0.2420
 2785TIP3    H2 8320   3.793   6.225   1.587 -0.0366  0.0228 -1.8155
 2786TIP3   OH2 8321   0.415   5.945   0.240 -0.9075 -0.0518 -0.3511
 2786TIP3    H1 8322   0.435   6.034   0.212 -1.5441  0.2428  0.1230
 2786TIP3    H2 8323   0.499   5.910   0.270 -0.7608  0.5724 -0.0218
 2787TIP3   OH2 8324   2.749   3.611   0.600 -0.1323  0.3005 -0.1066
 2787TIP3    H1 8325   2.660   3.591   0.569 -0.4169  0.5252  0.5286
 2787TIP3    H2 8326   2.799   3.627   0.521 -0.9701  1.4110 -0.4446
 2788TIP3   OH2 8327   0.182   2.796   1.258 -0.4038  0.7401 -0.2550
 2788TIP3    H1 8328   0.193   2.823   1.349  0.1271 -0.3151  0.0137
 2788TIP3    H2 8329   0.108   2.848   1.226 -0.5625  1.1576  0.7591
 2789TIP3   OH2 8330   1.497   5.694   0.487 -0.3115 -0.4293  0.1208
 2789TIP3    H1 8331   1.584   5.730   0.504  0.1526 -1.7585  0.6872
 2789TIP3    H2 8332   1.445   5.721   0.563 -0.5473  0.7306 -0.4179
 2790TIP3   OH2 8333   0.673   5.374   4.963  0.4539  0.5000 -0.1654
 2790TIP3    H1 8334   0.722   5.352   4.884 -0.3421  0.5149 -0.6689
 2790TIP3    H2 8335   0.617   5.446   4.938  1.0299  1.2917  0.7398
 2791TIP3   OH2 8336   2.545   2.011   2.691 -0.3071  0.4069 -0.1559
 2791TIP3    H1 8337   2.614   1.965   2.739 -1.6657  1.0733  2.6514
 2791TIP3    H2 8338   2.466   1.962   2.710 -0.9261  0.6556 -1.8913
 2792TIP3   OH2 8339   7.053   0.499   4.377 -0.0051  0.0914  0.0803
 2792TIP3    H1 8340   7.078   0.407   4.365  0.1030  0.3341 -1.7727
 2792TIP3    H2 8341   6.972   0.508   4.327 -0.6603  0.7427  1.2235
 2793TIP3   OH2 8342   3.404   5.411   4.570  0.2912 -0.2891  0.0606
 2793TIP3    H1 8343   3.329   5.364   4.607 -0.9071  1.7587  0.3540
 2793TIP3    H2 8344   3.418   5.369   4.485 -0.6994 -1.2048  0.3138
 2794TIP3   OH2 8345   6.622   4.504   3.554 -0.4590  0.4875 -0.2556
 2794TIP3    H1 8346   6.657   4.540   3.473 -0.9390 -0.0252 -0.7047
 2794TIP3    H2 8347   6.682   4.533   3.622  0.5631  0.0125 -0.9373
 2795TIP3   OH2 8348   1.225   0.655   2.419 -0.4558  0.0546  0.2999
 2795TIP3    H1 8349   1.164   0.726   2.435 -0.2232  0.5146 -0.7384
 2795TIP3    H2 8350   1.218   0.638   2.325 -0.4916 -1.2924  0.5241
 2796TIP3   OH2 8351   1.370   6.636   1.778  0.1043 -0.1864  0.5044
 2796TIP3    H1 8352   1.357   6.693   1.854 -1.3902 -1.1640  1.0279
 2796TIP3    H2 8353   1.433   6.571   1.808  0.6525  0.2940  0.4058
 2797TIP3   OH2 8354   5.290   2.339   4.851 -0.2441 -0.1574 -0.1844
 2797TIP3    H1 8355   5.333   2.255   4.868 -0.2436  0.0153  0.7383
 2797TIP3    H2 8356   5.312   2.393   4.928 -1.0503  0.3620 -0.3101
 2798TIP3   OH2 8357   5.168   2.557   2.666  0.1174  0.0991 -0.1333
 2798TIP3    H1 8358   5.201   2.478   2.624 -0.7119 -0.7011  0.6504
 2798TIP3    H2 8359   5.244   2.615   2.672  0.8331 -0.7897 -0.3893
 2799TIP3   OH2 8360   2.555   1.553   0.962 -0.7711  0.4375 -0.3389
 2799TIP3    H1 8361   2.570   1.646   0.948  0.5289  0.4678  1.0341
 2799TIP3    H2 8362   2.641   1.518   0.984 -1.0689 -1.2785 -1.6688
 2800TIP3   OH2 8363   3.849   1.862   2.680  0.1233  0.0364 -0.2698
 2800TIP3    H1 8364   3.874   1.914   2.603  0.3915 -0.5544 -0.5918
 2800TIP3    H2 8365   3.851   1.771   2.649  2.1779 -0.4047  0.9109
 2801TIP3   OH2 8366   1.691   6.023   4.626  0.1505 -0.1859 -0.5864
 2801TIP3    H1 8367   1.643   6.099   4.593 -0.3748  0.2580  1.0622
 2801TIP3    H2 8368   1.727   6.053   4.710  1.0336 -1.3649 -0.5148
 2802TIP3   OH2 8369   6.861   4.909   2.021 -0.4232  0.2601 -0.2697
 2802TIP3    H1 8370   6.788   4.969   2.008 -0.8827 -0.1159  0.4600
 2802TIP3    H2 8371   6.901   4.937   2.104 -0.8264 -0.6006  0.2379
 2803TIP3   OH2 8372   4.560   2.370   4.795 -0.1745  0.6087 -0.3892
 2803TIP3    H1 8373   4.501   2.432   4.752  0.0909  0.7912 -0.4946
 2803TIP3    H2 8374   4.621   2.425   4.844 -1.8187  0.3784  2.0618
 2804TIP3   OH2 8375   0.682   3.174   2.725  0.8262 -0.1190 -0.2463
 2804TIP3    H1 8376   0.765   3.169   2.772  0.9003  0.2672 -0.3340
 2804TIP3    H2 8377   0.674   3.266   2.700  0.9225 -0.3506 -1.2103
 2805TIP3   OH2 8378   3.029   2.246   2.197 -0.5685  0.1747  0.1283
 2805TIP3    H1 8379   2.936   2.247   2.222 -0.9711 -0.7271 -1.2107
 2805TIP3    H2 8380   3.046   2.155   2.173  0.8349  0.2086  0.8839
 2806TIP3   OH2 8381   6.468   2.555   4.135  0.4532  0.4900  0.2462
 2806TIP3    H1 8382   6.543   2.497   4.147  0.4703  0.5745  0.5438
 2806TIP3    H2 8383   6.414   2.542   4.213  0.9329  1.5823  0.7932
 2807TIP3   OH2 8384   3.642   0.683   4.059 -0.4323 -0.0222 -0.3005
 2807TIP3    H1 8385   3.719   0.710   4.008 -0.1694 -2.7665 -1.5093
 2807TIP3    H2 8386   3.568   0.697   4.001 -0.6485  0.8470  0.1714
 2808TIP3   OH2 8387   4.784   5.258   3.311 -0.5286 -0.4002  0.0429
 2808TIP3    H1 8388   4.722   5.315   3.357 -0.2121 -1.0221  1.2819
 2808TIP3    H2 8389   4.776   5.284   3.220 -1.6173  0.4730  0.3536
 2809TIP3   OH2 8390   2.283   2.977   1.700 -0.2388 -0.3420 -0.3147
 2809TIP3    H1 8391   2.331   3.059   1.685 -1.8559  0.5021 -1.1717
 2809TIP3    H2 8392   2.254   2.982   1.791 -0.2348 -0.0207 -0.3302
 2810TIP3   OH2 8393   1.857   1.912   2.599 -0.8908  0.5459  0.2832
 2810TIP3    H1 8394   1.824   1.992   2.559 -1.6649 -0.1773 -0.5697
 2810TIP3    H2 8395   1.783   1.852   2.599 -0.2000 -0.3444  0.4508
 2811TIP3   OH2 8396   1.712   0.261   4.239  0.3595  0.0234 -0.1930
 2811TIP3    H1 8397   1.672   0.260   4.326  2.0016 -2.6047  0.6556
 2811TIP3    H2 8398   1.793   0.311   4.251  0.0406  0.6188 -0.5069
 2812TIP3   OH2 8399   1.165   2.837   4.924  0.4883  0.4094  0.5972
 2812TIP3    H1 8400   1.104   2.909   4.907 -0.4613 -0.3023  0.9303
 2812TIP3    H2 8401   1.191   2.850   5.015  2.0161  1.5680  0.0338
 2813TIP3   OH2 8402   5.193   6.045   2.588  0.0439 -0.1223 -0.7197
 2813TIP3    H1 8403   5.252   6.100   2.640 -0.9716 -0.1264  0.4748
 2813TIP3    H2 8404   5.201   5.958   2.628  0.1700 -0.4145 -1.3656
 2814TIP3   OH2 8405   6.519   3.817   2.397  0.0392 -1.2027 -0.6210
 2814TIP3    H1 8406   6.552   3.735   2.360 -0.2119 -1.7078  0.2330
 2814TIP3    H2 8407   6.442   3.790   2.448  0.5754 -0.5934  0.5460
 2815TIP3   OH2 8408   3.650   3.655   2.834  0.1554 -0.1331 -0.5071
 2815TIP3    H1 8409   3.559   3.655   2.804  0.3401 -1.8333 -1.1558
 2815TIP3    H2 8410   3.644   3.648   2.929 -0.3858 -0.2946 -0.5506
 2816TIP3   OH2 8411   4.639   6.779   3.411 -0.2431  0.1285 -0.3249
 2816TIP3    H1 8412   4.545   6.759   3.408 -0.1139 -1.1567  1.8485
 2816TIP3    H2 8413   4.647   6.851   3.473  0.3188 -0.7064  0.5881
 2817TIP3   OH2 8414   6.143   4.968   0.698 -0.2528 -0.0413 -0.2215
 2817TIP3    H1 8415   6.151   4.876   0.722 -2.3582 -0.1058  0.5350
 2817TIP3    H2 8416   6.067   4.971   0.640  0.2170  1.1382 -0.8062
 2818TIP3   OH2 8417   6.055   0.752   2.431 -0.1557  0.1155 -0.1752
 2818TIP3    H1 8418   5.992   0.812   2.469  0.2907  0.2291  0.4026
 2818TIP3    H2 8419   6.012   0.667   2.434 -1.2627  0.5455 -2.0628
 2819TIP3   OH2 8420   0.974   0.595   5.704  0.2247 -0.2439 -0.0294
 2819TIP3    H1 8421   1.066   0.620   5.693  0.2611 -0.0525  0.6439
 2819TIP3    H2 8422   0.969   0.561   5.793 -0.1601 -1.1915 -0.4002
 2820TIP3   OH2 8423   0.652   1.435   3.356 -0.9279 -0.3849  0.3216
 2820TIP3    H1 8424   0.685   1.516   3.392  0.3760  0.4087 -2.3696
 2820TIP3    H2 8425   0.656   1.372   3.428  0.2790  1.3401  1.8325
 2821TIP3   OH2 8426   2.264   2.752   5.284  0.0183  0.3005 -0.5461
 2821TIP3    H1 8427   2.257   2.759   5.188 -2.3898 -0.2598 -0.4507
 2821TIP3    H2 8428   2.352   2.716   5.298 -0.6965 -2.7415 -2.7448
 2822TIP3   OH2 8429   3.151   3.495   2.254  0.1131  0.0383 -0.0680
 2822TIP3    H1 8430   3.080   3.468   2.313 -1.0355  1.8006 -0.5846
 2822TIP3    H2 8431   3.194   3.413   2.230 -0.9964 -0.9632  1.1952
 2823TIP3   OH2 8432   4.261   0.671   2.414 -0.0564 -0.6532 -0.0004
 2823TIP3    H1 8433   4.216   0.691   2.332  1.3464 -0.8392 -0.8426
 2823TIP3    H2 8434   4.284   0.756   2.450  1.4001 -0.5748 -1.0162
 2824TIP3   OH2 8435   6.985   3.073   3.241 -0.3321 -0.2729  0.6893
 2824TIP3    H1 8436   6.957   3.142   3.182 -1.5153 -0.7251  0.6807
 2824TIP3    H2 8437   7.049   3.114   3.299 -0.3123  0.5661  0.0809
 2825TIP3   OH2 8438   4.110   4.095   2.125  0.3661 -0.2095 -0.1980
 2825TIP3    H1 8439   4.041   4.138   2.076  1.5115  1.4049 -0.4764
 2825TIP3    H2 8440   4.125   4.013   2.079 -0.0356  0.3061 -1.2733
 2826TIP3   OH2 8441   2.814   6.553   3.600 -0.0987  0.0131 -0.5344
 2826TIP3    H1 8442   2.766   6.497   3.540  0.0881 -0.0436 -0.6297
 2826TIP3    H2 8443   2.906   6.529   3.589 -0.1081 -0.3875  0.1692
 2827TIP3   OH2 8444   0.692   6.201   2.569 -0.0257 -0.2378 -0.4446
 2827TIP3    H1 8445   0.711   6.288   2.532 -1.5801 -0.4209 -1.7825
 2827TIP3    H2 8446   0.650   6.220   2.653  0.7074  0.2664 -0.1797
 2828TIP3   OH2 8447   5.020   1.768   2.091 -0.0117  0.1040  0.3293
 2828TIP3    H1 8448   4.971   1.712   2.031  1.3211  1.7776 -2.5908
 2828TIP3    H2 8449   4.979   1.854   2.081 -1.0904  0.0918  3.5849
 2829TIP3   OH2 8450   5.720   6.013   0.613  0.0012  0.4491 -0.4016
 2829TIP3    H1 8451   5.642   5.958   0.598 -0.3355  0.7765  0.1419
 2829TIP3    H2 8452   5.733   6.058   0.529 -0.6126  0.6693 -0.3842
 2830TIP3   OH2 8453   2.954   5.985   2.836  0.4713 -0.2829 -0.0558
 2830TIP3    H1 8454   2.900   6.027   2.770  0.2284 -0.5395 -0.0228
 2830TIP3    H2 8455   2.924   5.894   2.838 -0.4481  0.0161  1.3423
 2831TIP3   OH2 8456   3.508   5.311   4.041  0.2487 -0.1073  0.2262
 2831TIP3    H1 8457   3.467   5.386   3.997  0.7396  0.0469  0.0270
 2831TIP3    H2 8458   3.435   5.252   4.059  0.0489 -0.2463 -0.9388
 2832TIP3   OH2 8459   6.902   0.468   5.641  0.0061 -0.5117  0.3098
 2832TIP3    H1 8460   6.811   0.479   5.615 -0.2676  0.2850  1.5664
 2832TIP3    H2 8461   6.929   0.386   5.600 -0.3373  0.7194 -2.6016
 2833TIP3   OH2 8462   5.238   1.709   4.108  0.1562 -0.2706  0.1270
 2833TIP3    H1 8463   5.252   1.731   4.200  0.2170 -2.0105  0.5667
 2833TIP3    H2 8464   5.316   1.660   4.083  0.2279  0.3554 -0.9240
 2834TIP3   OH2 8465   2.021   0.515   4.511 -0.4635 -0.7790 -0.2482
 2834TIP3    H1 8466   2.069   0.597   4.497  1.3536 -1.6846  0.4574
 2834TIP3    H2 8467   2.011   0.478   4.424  0.7224 -0.8918 -0.3465
 2835TIP3   OH2 8468   6.017   1.573   0.573 -0.5502  0.3277 -0.1744
 2835TIP3    H1 8469   6.008   1.509   0.643  1.6837 -0.5807 -0.6292
 2835TIP3    H2 8470   5.976   1.653   0.608  0.0965 -0.2169  2.0020
 2836TIP3   OH2 8471   5.739   4.238   2.385  0.2825  0.2961  0.1679
 2836TIP3    H1 8472   5.730   4.170   2.318  1.9034  2.0462 -1.9667
 2836TIP3    H2 8473   5.832   4.238   2.407  0.4406  2.2317 -0.3660
 2837TIP3   OH2 8474   1.429   3.535   0.116  0.0941  0.1576 -0.1199
 2837TIP3    H1 8475   1.371   3.461   0.098 -0.9123  0.0732  2.8425
 2837TIP3    H2 8476   1.397   3.605   0.058 -0.8828 -0.8557 -0.8379
 2838TIP3   OH2 8477   6.734   6.615   5.008  0.1050 -0.3062 -0.2285
 2838TIP3    H1 8478   6.646   6.599   5.041 -1.2187  0.6151 -3.0345
 2838TIP3    H2 8479   6.773   6.676   5.070 -2.4135  1.7495 -0.5472
 2839TIP3   OH2 8480   1.889   6.126   4.394  0.0706  0.3080 -0.2992
 2839TIP3    H1 8481   1.855   6.120   4.483  1.4354  0.5797  0.2557
 2839TIP3    H2 8482   1.865   6.043   4.354 -0.0233 -0.0677  0.5108
 2840TIP3   OH2 8483   0.936   6.152   4.996 -0.2987  0.4234 -0.0036
 2840TIP3    H1 8484   0.931   6.080   5.059 -2.8888  1.3307  0.9239
 2840TIP3    H2 8485   0.999   6.213   5.034 -0.6277  0.2137  0.8839
 2841TIP3   OH2 8486   3.941   3.216   3.598  0.2832  0.0030  0.2728
 2841TIP3    H1 8487   3.975   3.186   3.514  1.7611 -2.1739  1.5370
 2841TIP3    H2 8488   3.997   3.290   3.621  0.9349 -0.4126  0.0602
 2842TIP3   OH2 8489   6.805   0.077   1.787 -0.7501 -0.5913 -0.6894
 2842TIP3    H1 8490   6.901   0.070   1.780 -0.7510 -0.6597 -0.6380
 2842TIP3    H2 8491   6.772   0.042   1.704 -0.7151 -0.0858 -0.9240
 2843TIP3   OH2 8492   5.262   2.682   5.399  0.4190  0.0477 -0.8579
 2843TIP3    H1 8493   5.258   2.698   5.494  0.5793  0.3887 -0.9043
 2843TIP3    H2 8494   5.337   2.734   5.370  0.5004 -0.2274 -1.1391
 2844TIP3   OH2 8495   6.212   4.345   1.097  0.2420 -0.7504  0.0401
 2844TIP3    H1 8496   6.216   4.333   1.002  0.9025 -0.7925  0.0696
 2844TIP3    H2 8497   6.299   4.323   1.128  0.4492  0.5921  0.5007
 2845TIP3   OH2 8498   6.052   2.632   3.468  0.5504 -0.4993 -0.0227
 2845TIP3    H1 8499   5.961   2.662   3.464 -0.2406 -2.7677 -0.4685
 2845TIP3    H2 8500   6.087   2.674   3.547 -0.5632  1.1694 -0.3661
 2846TIP3   OH2 8501   4.481   1.021   1.646  0.3244  0.5735 -0.7895
 2846TIP3    H1 8502   4.515   0.934   1.625  0.9135  0.2827  1.1562
 2846TIP3    H2 8503   4.500   1.033   1.739  1.5273  3.3388 -1.2636
 2847TIP3   OH2 8504   5.898   6.489   4.163 -0.2099 -0.9983  0.1011
 2847TIP3    H1 8505   5.821   6.438   4.138 -0.3596 -0.4406 -0.6013
 2847TIP3    H2 8506   5.943   6.507   4.081  0.3746 -0.8422  0.4477
 2848TIP3   OH2 8507   5.021   1.719   1.504  0.3156 -0.6057 -0.1658
 2848TIP3    H1 8508   5.071   1.661   1.561  2.0386 -0.0869 -1.0813
 2848TIP3    H2 8509   4.944   1.668   1.479  0.5684 -1.5828  0.9652
 2849TIP3   OH2 8510   3.193   6.715   3.405  0.1190  0.5582  0.1392
 2849TIP3    H1 8511   3.224   6.792   3.358  2.5052 -0.8492 -0.7540
 2849TIP3    H2 8512   3.113   6.689   3.360 -0.1976  1.9454 -0.1286
 2850TIP3   OH2 8513   4.224   0.204   3.768 -0.2716 -0.2002  0.4651
 2850TIP3    H1 8514   4.214   0.280   3.825 -1.2816  0.5355 -0.6436
 2850TIP3    H2 8515   4.169   0.136   3.808 -1.0897  0.3554  0.3025
 2851TIP3   OH2 8516   2.672   3.037   2.713 -0.0282 -0.0453 -0.4508
 2851TIP3    H1 8517   2.645   3.123   2.746  0.3363 -0.5103  1.1595
 2851TIP3    H2 8518   2.741   3.057   2.649  1.1372  0.8437  1.0003
 2852TIP3   OH2 8519   6.119   6.479   4.499 -0.2750  0.0601  0.2090
 2852TIP3    H1 8520   6.050   6.414   4.487 -0.4990  0.4392 -0.6129
 2852TIP3    H2 8521   6.152   6.495   4.411 -0.5510  1.4198  0.3323
 2853TIP3   OH2 8522   2.743   1.403   2.383  0.1727  0.3051  0.0536
 2853TIP3    H1 8523   2.675   1.336   2.377 -0.2676  0.8240 -1.1379
 2853TIP3    H2 8524   2.796   1.389   2.304 -0.4243  1.8589 -0.6601
 2854TIP3   OH2 8525   7.044   4.879   2.922  0.3514  0.6151 -0.4391
 2854TIP3    H1 8526   6.985   4.866   2.847  1.4077  0.9213 -1.3417
 2854TIP3    H2 8527   7.061   4.791   2.955 -1.0386  0.5531  0.1876
 2855TIP3   OH2 8528   2.396   2.259   5.737  0.2116 -0.4251 -0.5396
 2855TIP3    H1 8529   2.318   2.205   5.728  1.0127 -1.5099 -1.0599
 2855TIP3    H2 8530   2.432   2.235   5.822  1.8614 -2.4928 -1.7507
 2856TIP3   OH2 8531   1.873   6.478   0.229 -0.3721 -0.4147 -0.3223
 2856TIP3    H1 8532   1.945   6.540   0.237 -1.2476  0.4849  1.1402
 2856TIP3    H2 8533   1.903   6.400   0.275  0.7642 -1.1686 -2.2355
 2857TIP3   OH2 8534   3.351   2.006   1.956 -0.3397  0.1375 -0.1139
 2857TIP3    H1 8535   3.398   1.941   2.009  0.2688  0.9695  0.3939
 2857TIP3    H2 8536   3.420   2.063   1.922 -1.0569  2.3085  1.8831
 2858TIP3   OH2 8537   4.426   2.621   5.829 -0.0111  0.2063  0.3069
 2858TIP3    H1 8538   4.372   2.678   5.884 -2.6082 -0.4744 -1.3982
 2858TIP3    H2 8539   4.423   2.662   5.743  2.3256  0.1534  0.1322
 2859TIP3   OH2 8540   4.765   0.826   2.615 -0.6638 -0.0160 -0.3046
 2859TIP3    H1 8541   4.831   0.820   2.546 -0.6270 -0.9869 -0.2030
 2859TIP3    H2 8542   4.709   0.898   2.588  0.7613  1.2373 -0.0928
 2860TIP3   OH2 8543   4.967   5.399   2.324  0.1951 -0.1235  0.6355
 2860TIP3    H1 8544   5.015   5.475   2.356  1.9329 -1.2820  0.8722
 2860TIP3    H2 8545   4.965   5.411   2.229  2.2756 -0.7454  0.4610
 2861TIP3   OH2 8546   6.356   0.944   2.027  0.3028  0.7110  0.5238
 2861TIP3    H1 8547   6.347   0.974   2.118 -2.3092  2.6169 -0.2292
 2861TIP3    H2 8548   6.431   0.993   1.993  0.8049  0.5927  1.4161
 2862TIP3   OH2 8549   2.149   3.323   0.233 -0.1211 -0.0427 -0.1361
 2862TIP3    H1 8550   2.232   3.283   0.259 -0.6884 -1.8182 -0.9205
 2862TIP3    H2 8551   2.143   3.402   0.286  1.7791 -0.1970  0.3716
 2863TIP3   OH2 8552   4.405   3.291   0.378  0.5292  0.1043  0.0709
 2863TIP3    H1 8553   4.433   3.296   0.470  0.9029 -0.1747 -0.0234
 2863TIP3    H2 8554   4.485   3.307   0.328  0.5730 -0.9023 -0.2046
 2864TIP3   OH2 8555   5.752   1.279   0.403 -0.3216  0.3514 -0.1486
 2864TIP3    H1 8556   5.751   1.183   0.409  0.6301  0.2279 -1.5221
 2864TIP3    H2 8557   5.711   1.308   0.485  1.9867 -1.1640  1.6708
 2865TIP3   OH2 8558   5.627   4.180   3.897 -0.3922 -0.0268 -0.4343
 2865TIP3    H1 8559   5.661   4.090   3.898 -0.8316 -0.1963  0.6022
 2865TIP3    H2 8560   5.545   4.173   3.848 -0.0978 -0.0631 -0.9257
 2866TIP3   OH2 8561   3.432   0.221   4.341  0.0136  0.6016  0.0220
 2866TIP3    H1 8562   3.505   0.277   4.312  1.3757 -1.6373 -1.1841
 2866TIP3    H2 8563   3.371   0.221   4.267  0.4978 -0.2159 -0.4000
 2867TIP3   OH2 8564   0.150   4.786   1.282 -0.2018 -0.1338  0.6270
 2867TIP3    H1 8565   0.159   4.869   1.235 -1.3930 -0.3111  0.0428
 2867TIP3    H2 8566   0.119   4.811   1.369  1.7479  0.1781  1.2704
 2868TIP3   OH2 8567   0.490   3.750   5.713 -0.0013 -0.3671 -0.3598
 2868TIP3    H1 8568   0.578   3.779   5.737 -0.6085  2.5332 -1.2361
 2868TIP3    H2 8569   0.500   3.718   5.623 -0.1574  2.3794 -1.4654
 2869TIP3   OH2 8570   0.467   6.485   4.514 -0.3833 -0.1064 -0.1958
 2869TIP3    H1 8571   0.450   6.473   4.607  1.0625  1.2230  0.2885
 2869TIP3    H2 8572   0.381   6.484   4.473 -1.2664  1.6100  1.4727
 2870TIP3   OH2 8573   1.444   1.660   3.723  0.4954  0.2532 -0.7407
 2870TIP3    H1 8574   1.492   1.669   3.805 -1.6485  0.8961  0.5121
 2870TIP3    H2 8575   1.426   1.750   3.696  1.2304  0.0543 -1.9931
 2871TIP3   OH2 8576   0.114   1.915   3.850 -1.1183  0.0298  0.5513
 2871TIP3    H1 8577   0.149   1.998   3.882  2.3040 -0.9164 -0.3726
 2871TIP3    H2 8578   0.136   1.852   3.918  0.6604 -0.9065 -0.8254
 2872TIP3   OH2 8579   3.808   5.985   2.664  0.7047 -0.3451 -0.2830
 2872TIP3    H1 8580   3.769   5.915   2.717 -0.8023  1.1920  0.7271
 2872TIP3    H2 8581   3.751   5.991   2.587  0.5177  0.1081 -0.1112
 2873TIP3   OH2 8582   0.068   1.691   5.600 -0.0602 -0.0634  0.2904
 2873TIP3    H1 8583   0.117   1.620   5.643 -0.4537  0.2961  1.3590
 2873TIP3    H2 8584   0.081   1.675   5.507  0.5577 -1.0554  0.5248
 2874TIP3   OH2 8585   3.129   5.303   3.219 -0.2920 -0.2803  0.1627
 2874TIP3    H1 8586   3.156   5.280   3.308  0.7206 -0.4557 -0.1773
 2874TIP3    H2 8587   3.036   5.280   3.215 -0.5516  0.4726  1.4180
 2875TIP3   OH2 8588   0.982   0.377   2.657  0.3441 -0.7809 -0.0476
 2875TIP3    H1 8589   1.062   0.364   2.606 -0.3230 -1.0332 -1.0789
 2875TIP3    H2 8590   0.953   0.288   2.679  0.6706 -0.6697  0.8630
 2876TIP3   OH2 8591   4.672   4.138   5.112 -0.2480 -0.1632 -0.2306
 2876TIP3    H1 8592   4.640   4.075   5.178 -1.2431 -0.9718 -1.4388
 2876TIP3    H2 8593   4.656   4.224   5.152 -0.8830 -0.6291  0.5662
 2877TIP3   OH2 8594   5.918   0.815   4.407  0.3137 -0.6361  0.0220
 2877TIP3    H1 8595   5.993   0.810   4.347  1.4010  0.4537  1.2258
 2877TIP3    H2 8596   5.954   0.795   4.493 -0.7122  0.1656  0.6691
 2878TIP3   OH2 8597   3.619   0.573   2.141  0.2568  0.2961 -0.4582
 2878TIP3    H1 8598   3.566   0.645   2.107  0.0947  0.0716 -0.6872
 2878TIP3    H2 8599   3.630   0.514   2.066  0.0399 -0.1212 -0.1715
 2879TIP3   OH2 8600   4.534   3.262   4.905 -0.1215  0.6608  0.1848
 2879TIP3    H1 8601   4.495   3.327   4.963  2.6547  1.5400  1.2171
 2879TIP3    H2 8602   4.504   3.287   4.817 -1.4594  1.5290  0.8639
 2880TIP3   OH2 8603   1.713   5.514   0.295  0.4923 -0.0340  0.0852
 2880TIP3    H1 8604   1.624   5.530   0.261  0.1617 -0.7952  0.5602
 2880TIP3    H2 8605   1.761   5.595   0.275 -0.7042  0.9930  1.1210
 2881TIP3   OH2 8606   6.461   5.369   3.521 -0.4263  0.6888 -0.2398
 2881TIP3    H1 8607   6.545   5.402   3.488  0.1944 -1.0299 -0.5207
 2881TIP3    H2 8608   6.464   5.386   3.615  1.0389 -0.8498  0.0501
 2882TIP3   OH2 8609   0.457   5.088   2.252 -0.2461 -0.3068  0.4242
 2882TIP3    H1 8610   0.447   5.055   2.341  0.7725 -1.2069  0.2349
 2882TIP3    H2 8611   0.393   5.159   2.245 -0.0215  0.0918  2.0102
 2883TIP3   OH2 8612   2.986   5.876   0.343  0.0715 -0.4331  0.1255
 2883TIP3    H1 8613   2.928   5.885   0.267  0.2999 -1.3947 -0.1709
 2883TIP3    H2 8614   2.967   5.954   0.397 -0.0722  0.2663 -0.9134
 2884TIP3   OH2 8615   5.585   4.204   4.413  0.0203  0.4889  0.0684
 2884TIP3    H1 8616   5.525   4.157   4.471  0.5659  0.8133  0.9090
 2884TIP3    H2 8617   5.648   4.138   4.386  0.0830  0.4622  0.2806
 2885TIP3   OH2 8618   1.586   1.536   4.576  0.6294  0.4294 -0.3240
 2885TIP3    H1 8619   1.639   1.464   4.610 -1.3844 -1.5638 -1.1446
 2885TIP3    H2 8620   1.498   1.500   4.570 -0.6775  3.2746  0.0572
 2886TIP3   OH2 8621   5.571   1.426   4.850  0.9753 -0.0726  0.0308
 2886TIP3    H1 8622   5.616   1.500   4.892  1.7409 -0.1957 -0.5573
 2886TIP3    H2 8623   5.588   1.352   4.908 -2.4477  0.7350  2.3930
 2887TIP3   OH2 8624   0.973   2.039   0.149  0.5790  0.7797  0.5630
 2887TIP3    H1 8625   0.892   1.993   0.124  0.5314  0.1363  1.8406
 2887TIP3    H2 8626   1.023   2.045   0.067  0.5245 -1.4459  0.3096
 2888TIP3   OH2 8627   4.420   1.414   5.788 -0.4785 -0.1255 -0.3241
 2888TIP3    H1 8628   4.414   1.319   5.800 -0.5610 -0.1743 -0.7287
 2888TIP3    H2 8629   4.391   1.428   5.698 -0.2185  0.2584 -0.3474
 2889TIP3   OH2 8630   6.969   5.593   3.877 -0.1048  0.4642  0.5570
 2889TIP3    H1 8631   6.997   5.641   3.955 -0.7042 -0.1724  1.1806
 2889TIP3    H2 8632   6.892   5.641   3.845  0.2985  0.8763  0.1981
 2890TIP3   OH2 8633   6.920   2.013   0.858  0.7887 -0.0996 -0.3365
 2890TIP3    H1 8634   6.965   1.929   0.858  0.4511 -0.3106  0.9590
 2890TIP3    H2 8635   6.936   2.049   0.946  1.4325  1.4748 -1.0669
 2891TIP3   OH2 8636   2.362   2.094   2.469 -0.1242 -0.3368  0.5554
 2891TIP3    H1 8637   2.424   2.061   2.534  0.1542  0.3616  0.6499
 2891TIP3    H2 8638   2.287   2.124   2.520  0.3525  0.7960  0.6276
 2892TIP3   OH2 8639   3.722   6.345   4.593 -0.2360  0.5608 -0.7004
 2892TIP3    H1 8640   3.786   6.278   4.618 -1.5125 -0.1583  0.8091
 2892TIP3    H2 8641   3.642   6.296   4.575 -0.8598  1.5922 -0.8017
 2893TIP3   OH2 8642   1.676   0.174   0.396  0.3829  0.4901 -0.0798
 2893TIP3    H1 8643   1.770   0.155   0.401 -0.2147 -3.0975 -0.2671
 2893TIP3    H2 8644   1.639   0.132   0.474 -0.9928  3.0866  0.7824
 2894TIP3   OH2 8645   0.591   1.401   0.544 -0.0133 -0.0182  0.3556
 2894TIP3    H1 8646   0.588   1.493   0.569  0.4869 -0.2857  1.4416
 2894TIP3    H2 8647   0.668   1.366   0.587  0.9590 -0.5050 -1.6410
 2895TIP3   OH2 8648   2.529   3.878   4.844 -0.0904  0.3757  0.0070
 2895TIP3    H1 8649   2.457   3.912   4.897  1.3344  1.7364  1.1451
 2895TIP3    H2 8650   2.518   3.921   4.759  0.1325  1.6784  0.6019
 2896TIP3   OH2 8651   0.325   4.334   3.750 -0.3434  0.3959 -0.9059
 2896TIP3    H1 8652   0.365   4.407   3.702 -1.3745  1.4563 -0.2048
 2896TIP3    H2 8653   0.344   4.257   3.697  1.7248  0.9939 -1.1232
 2897TIP3   OH2 8654   6.996   0.120   1.031  0.1660 -0.2513 -0.1064
 2897TIP3    H1 8655   6.931   0.137   0.963  0.5169 -2.2113 -0.9853
 2897TIP3    H2 8656   7.029   0.207   1.054 -1.9751  0.7076 -0.3799
 2898TIP3   OH2 8657   0.971   3.354   1.001  0.6144  0.2462  0.2577
 2898TIP3    H1 8658   1.029   3.313   1.065  2.1630 -0.2969 -1.4017
 2898TIP3    H2 8659   0.883   3.335   1.032  1.3060 -0.2782  2.0179
 2899TIP3   OH2 8660   5.519   0.090   1.476  0.0368 -0.5800 -0.0414
 2899TIP3    H1 8661   5.557   0.161   1.426  2.4131 -3.7382 -3.2183
 2899TIP3    H2 8662   5.433   0.074   1.436 -0.8219  0.8021  1.1495
 2900TIP3   OH2 8663   6.347   5.380   1.363  0.3867  0.0827  0.0397
 2900TIP3    H1 8664   6.390   5.460   1.334 -0.1913  0.7681  0.9937
 2900TIP3    H2 8665   6.363   5.377   1.457 -0.9763 -0.0289  0.3013
 2901TIP3   OH2 8666   1.168   2.680   3.336  0.0388  0.4485 -0.4433
 2901TIP3    H1 8667   1.078   2.652   3.355  0.3794 -0.6577 -0.3744
 2901TIP3    H2 8668   1.195   2.727   3.415 -0.0032 -0.4455  0.1143
 2902TIP3   OH2 8669   4.649   0.141   5.740  0.0411  0.3095  0.5090
 2902TIP3    H1 8670   4.699   0.213   5.781 -0.1713 -0.2759  1.8523
 2902TIP3    H2 8671   4.558   0.170   5.746  0.1178  0.9836 -1.1476
 2903TIP3   OH2 8672   4.131   3.672   4.652 -0.0098  0.0980  0.3665
 2903TIP3    H1 8673   4.134   3.753   4.704  0.8370 -0.2512  0.8623
 2903TIP3    H2 8674   4.071   3.694   4.580 -1.3703  0.5286  1.5601
 2904TIP3   OH2 8675   1.415   0.287   1.835 -0.1504  0.3152 -0.0247
 2904TIP3    H1 8676   1.497   0.338   1.831 -0.5617  1.0653  0.7533
 2904TIP3    H2 8677   1.396   0.266   1.744 -0.8084  2.9407 -0.5767
 2905TIP3   OH2 8678   3.569   4.174   1.690 -0.0197  0.1166  0.0816
 2905TIP3    H1 8679   3.626   4.143   1.760 -0.0992 -1.9346 -0.6834
 2905TIP3    H2 8680   3.623   4.236   1.641  1.0557 -0.6294  0.2796
 2906TIP3   OH2 8681   2.952   0.021   4.368  0.1422  0.1671  0.0050
 2906TIP3    H1 8682   2.928   0.083   4.298 -2.5615 -1.4603 -0.6672
 2906TIP3    H2 8683   2.871   0.007   4.416  0.9485 -1.9591  0.8548
 2907TIP3   OH2 8684   1.581   0.362   4.806 -0.0549 -0.0798 -0.1986
 2907TIP3    H1 8685   1.588   0.281   4.755 -0.2443  0.5771 -1.2980
 2907TIP3    H2 8686   1.650   0.419   4.771  0.6268 -0.0441  1.1341
 2908TIP3   OH2 8687   6.240   0.682   2.194  0.1948  0.3673 -0.5282
 2908TIP3    H1 8688   6.179   0.753   2.174 -3.2190 -2.2060 -0.3375
 2908TIP3    H2 8689   6.213   0.652   2.281  0.3353 -2.0958 -1.2405
 2909TIP3   OH2 8690   2.143   1.984   5.081  0.0468  0.0637  0.6408
 2909TIP3    H1 8691   2.060   1.997   5.127  0.6833 -0.0116  1.8320
 2909TIP3    H2 8692   2.132   1.900   5.036 -0.4033 -0.1028  1.0519
 2910TIP3   OH2 8693   3.692   2.185   3.389 -0.2502  0.0006  0.4163
 2910TIP3    H1 8694   3.622   2.216   3.331 -0.3199  0.2739  0.6502
 2910TIP3    H2 8695   3.663   2.097   3.416  0.0642 -0.3781 -0.4355
 2911TIP3   OH2 8696   2.046   0.951   4.725 -0.4461  0.0068  0.2781
 2911TIP3    H1 8697   2.141   0.939   4.729 -0.5644 -0.6470  2.6698
 2911TIP3    H2 8698   2.011   0.863   4.718 -0.8982  0.2819 -1.2291
 2912TIP3   OH2 8699   5.024   2.549   4.497 -0.1357  0.0497  0.2493
 2912TIP3    H1 8700   5.099   2.490   4.489 -1.3613 -1.4742 -0.3173
 2912TIP3    H2 8701   4.957   2.512   4.440 -1.7277  0.7421  1.5661
 2913TIP3   OH2 8702   6.074   1.525   2.694 -0.2670  0.0534  0.1414
 2913TIP3    H1 8703   5.979   1.531   2.692 -0.2936 -0.4790 -0.3842
 2913TIP3    H2 8704   6.095   1.449   2.639  0.5110  0.7530 -0.5544
 2914TIP3   OH2 8705   4.827   1.782   3.756  0.2278 -0.5094  0.3462
 2914TIP3    H1 8706   4.746   1.792   3.805  0.8913  1.4113  1.1350
 2914TIP3    H2 8707   4.897   1.793   3.821  1.1276 -0.0566 -0.6593
 2915TIP3   OH2 8708   4.694   3.920   0.787 -0.0563 -0.1232  0.0802
 2915TIP3    H1 8709   4.663   3.830   0.784  1.1302 -0.5246 -1.2072
 2915TIP3    H2 8710   4.662   3.960   0.706 -0.6080  0.6335  0.6613
 2916TIP3   OH2 8711   2.283   2.988   3.238 -0.4414 -0.2377 -0.1451
 2916TIP3    H1 8712   2.223   3.020   3.305 -0.8693 -1.4414  0.0800
 2916TIP3    H2 8713   2.362   2.961   3.287 -0.1858  0.2220 -0.2996
 2917TIP3   OH2 8714   1.133   2.654   3.067 -0.4056  0.0493  0.0125
 2917TIP3    H1 8715   1.057   2.601   3.045  0.9605 -2.4285  0.8614
 2917TIP3    H2 8716   1.143   2.644   3.162  0.8550  0.4565 -0.0580
 2918TIP3   OH2 8717   5.152   2.468   1.557  0.2554  0.0439 -0.0015
 2918TIP3    H1 8718   5.237   2.428   1.538 -0.1438 -1.5023  1.2533
 2918TIP3    H2 8719   5.145   2.540   1.494  0.7963 -2.1302 -2.7092
 2919TIP3   OH2 8720   1.383   4.575   1.763 -0.2269  0.0053 -0.7262
 2919TIP3    H1 8721   1.312   4.537   1.814 -0.6925 -0.6822 -1.8624
 2919TIP3    H2 8722   1.463   4.540   1.805 -0.5297  0.7658  0.5363
 2920TIP3   OH2 8723   0.045   5.110   0.572 -0.5216 -0.0473  0.0150
 2920TIP3    H1 8724   0.123   5.129   0.520 -0.9815 -1.6143 -1.3284
 2920TIP3    H2 8725  -0.023   5.164   0.533 -1.0351 -1.7415 -1.5837
 2921TIP3   OH2 8726   1.530   6.258   1.078  0.0566 -0.3161  0.1538
 2921TIP3    H1 8727   1.584   6.252   1.158  0.1204  1.4113  0.2780
 2921TIP3    H2 8728   1.515   6.351   1.067 -0.4732 -0.5769 -1.5405
 2922TIP3   OH2 8729   4.779   2.174   2.807  0.2635 -0.1162  0.2715
 2922TIP3    H1 8730   4.727   2.244   2.767 -2.0878 -1.0459  1.5382
 2922TIP3    H2 8731   4.771   2.190   2.902  2.5007 -0.2080  0.5355
 2923TIP3   OH2 8732   4.176   2.216   2.250 -0.0176  0.2358  0.2739
 2923TIP3    H1 8733   4.224   2.216   2.168  0.4686  1.3282  0.5322
 2923TIP3    H2 8734   4.240   2.246   2.315 -0.5976  0.1093  0.9119
 2924TIP3   OH2 8735   3.318   0.404   1.227 -0.0284 -0.3233  0.2045
 2924TIP3    H1 8736   3.222   0.410   1.231 -0.3081  2.1553 -3.8362
 2924TIP3    H2 8737   3.348   0.431   1.314 -3.0352  2.0221  0.6913
 2925TIP3   OH2 8738   0.391   3.225   2.081  0.0321  0.6598 -0.2123
 2925TIP3    H1 8739   0.468   3.213   2.136 -0.2096 -0.8170 -0.1389
 2925TIP3    H2 8740   0.317   3.224   2.142 -0.3524 -2.4419 -0.5825
 2926TIP3   OH2 8741   6.535   1.368   0.084  0.7495  0.8275 -0.5263
 2926TIP3    H1 8742   6.604   1.311   0.048 -0.7801 -0.8187 -0.9894
 2926TIP3    H2 8743   6.536   1.350   0.178 -0.0628 -0.3970 -0.7352
 2927TIP3   OH2 8744   0.594   0.952   1.255 -0.0951 -0.5425  0.5880
 2927TIP3    H1 8745   0.670   0.985   1.207  0.2148 -1.0736  0.7042
 2927TIP3    H2 8746   0.608   0.982   1.345  0.5901 -1.6276  0.8649
 2928TIP3   OH2 8747   5.333   0.471   1.008  0.5387 -0.2261  0.0747
 2928TIP3    H1 8748   5.246   0.509   1.019  0.6672 -0.0510  0.4796
 2928TIP3    H2 8749   5.350   0.478   0.914  0.8468  1.3422  0.2295
 2929TIP3   OH2 8750   6.104   3.834   0.923  0.0478  0.5424 -0.3039
 2929TIP3    H1 8751   6.063   3.846   1.008  0.7276  1.4646 -0.0764
 2929TIP3    H2 8752   6.033   3.842   0.860 -0.7906 -2.0169  0.2106
 2930TIP3   OH2 8753   0.702   1.653   0.623 -0.4875 -0.4663  0.4495
 2930TIP3    H1 8754   0.735   1.692   0.542 -1.4927  1.2996  0.8283
 2930TIP3    H2 8755   0.767   1.677   0.689 -0.9977  0.4231  0.6420
 2931TIP3   OH2 8756   2.533   4.265   5.155  0.3947  0.1233 -0.0354
 2931TIP3    H1 8757   2.471   4.336   5.172  1.4526  0.7511  1.4739
 2931TIP3    H2 8758   2.542   4.263   5.060 -0.8758  0.9399 -0.1960
 2932TIP3   OH2 8759   4.972   5.184   2.060  0.8084 -0.1344  0.4902
 2932TIP3    H1 8760   4.915   5.132   2.003 -0.3700 -0.7923  2.1949
 2932TIP3    H2 8761   4.916   5.257   2.088  2.1619  1.6344 -1.1506
 2933TIP3   OH2 8762   6.444   4.196   5.452 -0.3838  0.0424 -0.0189
 2933TIP3    H1 8763   6.363   4.247   5.443 -0.2717  0.4222  1.0486
 2933TIP3    H2 8764   6.513   4.261   5.453 -0.0284 -0.2907 -1.0581
 2934TIP3   OH2 8765   4.223   4.737   5.041 -0.1970 -0.0076  0.2102
 2934TIP3    H1 8766   4.295   4.789   5.006 -0.8417  0.0243 -1.1165
 2934TIP3    H2 8767   4.264   4.658   5.075  0.5076  0.2456 -0.0443
 2935TIP3   OH2 8768   7.041   3.725   5.274  0.4495  0.0281 -0.2896
 2935TIP3    H1 8769   7.098   3.797   5.302  0.9325 -0.2500 -0.5429
 2935TIP3    H2 8770   7.026   3.743   5.181  1.0286 -0.5024 -0.4879
 2936TIP3   OH2 8771   4.638   4.992   4.518  0.0956 -0.5239 -0.2159
 2936TIP3    H1 8772   4.659   4.921   4.458 -0.0652 -0.6038 -0.1770
 2936TIP3    H2 8773   4.675   5.070   4.476  0.1768 -0.6130 -0.3109
 2937TIP3   OH2 8774   6.961   4.593   3.955  0.2785 -0.8228 -0.2716
 2937TIP3    H1 8775   6.916   4.588   4.039  0.1763 -0.6315 -0.3154
 2937TIP3    H2 8776   6.912   4.658   3.904  0.5949 -0.6205 -0.3229
 2938TIP3   OH2 8777   1.596   4.908   4.248 -0.1773 -0.0621  0.1061
 2938TIP3    H1 8778   1.593   4.959   4.167  0.4766  1.2115  0.8438
 2938TIP3    H2 8779   1.569   4.970   4.316 -2.1113 -1.4824  0.7203
 2939TIP3   OH2 8780   5.294   5.557   1.013 -0.0851  0.2218  0.0716
 2939TIP3    H1 8781   5.248   5.474   1.020 -0.5284  0.3668 -0.9042
 2939TIP3    H2 8782   5.384   5.537   1.038 -0.5655 -0.1518  1.6077
 2940TIP3   OH2 8783   4.078   6.054   4.015 -0.5284  0.7259  0.3222
 2940TIP3    H1 8784   4.010   6.057   4.083  0.4268  2.7208  1.2916
 2940TIP3    H2 8785   4.133   5.980   4.040 -0.5633  1.0393  1.3982
 2941TIP3   OH2 8786   6.260   3.047   0.204 -0.3205  0.2675 -0.1761
 2941TIP3    H1 8787   6.349   3.083   0.213  0.3123 -0.7036 -2.0825
 2941TIP3    H2 8788   6.267   2.958   0.238 -0.5933  0.2246 -0.2295
 2942TIP3   OH2 8789   5.310   0.106   3.356 -0.0345  0.2444  0.1446
 2942TIP3    H1 8790   5.299   0.070   3.444  0.2082  3.2258  1.5097
 2942TIP3    H2 8791   5.223   0.103   3.317 -0.2337 -0.6654  0.6470
 2943TIP3   OH2 8792   1.580   4.415   4.645 -0.0842  0.3755  0.5030
 2943TIP3    H1 8793   1.574   4.328   4.684 -0.1342 -0.7484 -1.8803
 2943TIP3    H2 8794   1.534   4.407   4.562  1.4734  2.1899 -0.5909
 2944TIP3   OH2 8795   1.562   6.461   1.500 -0.1073  0.1277  0.3162
 2944TIP3    H1 8796   1.637   6.442   1.556  0.5634  1.2640 -0.1622
 2944TIP3    H2 8797   1.580   6.548   1.464 -0.1886 -0.7891 -2.1440
 2945TIP3   OH2 8798   2.170   2.604   2.459 -0.0524  0.4545  1.1629
 2945TIP3    H1 8799   2.187   2.590   2.366 -0.1596 -0.9568  1.3398
 2945TIP3    H2 8800   2.083   2.567   2.473  0.1591  0.2291  1.9203
 2946TIP3   OH2 8801   4.604   5.403   2.724  0.1237  0.1914 -0.2452
 2946TIP3    H1 8802   4.557   5.321   2.737  1.0354 -0.2288  0.5664
 2946TIP3    H2 8803   4.689   5.377   2.688  1.3425  0.5135  2.1669
 2947TIP3   OH2 8804   2.592   1.261   0.537 -0.6855 -0.4399 -0.3749
 2947TIP3    H1 8805   2.588   1.336   0.478  0.6277  0.8818  1.1174
 2947TIP3    H2 8806   2.685   1.255   0.562 -1.0591 -1.4572  0.8955
 2948TIP3   OH2 8807   2.580   0.651   0.623  0.1337  0.1388  0.2930
 2948TIP3    H1 8808   2.576   0.728   0.680  1.4381 -0.6875  1.5751
 2948TIP3    H2 8809   2.636   0.679   0.550  0.2293  0.5405  0.5136
 2949TIP3   OH2 8810   4.109   4.109   1.409  0.0821 -0.0021 -0.3301
 2949TIP3    H1 8811   4.034   4.054   1.430 -0.3192  1.0623  1.1823
 2949TIP3    H2 8812   4.072   4.193   1.384  0.7452  0.3669 -0.1115
 2950TIP3   OH2 8813   1.358   5.691   1.206 -0.0119  0.0893  0.2437
 2950TIP3    H1 8814   1.350   5.786   1.203 -0.9633  0.0241 -3.7041
 2950TIP3    H2 8815   1.375   5.672   1.299  1.9927  4.1744  0.9389
 2951TIP3   OH2 8816   1.489   3.890   1.375 -0.0966  0.1983  0.2733
 2951TIP3    H1 8817   1.436   3.957   1.418 -1.4322 -0.6441 -0.0157
 2951TIP3    H2 8818   1.534   3.845   1.448  1.9155  2.2354  0.3938
 2952TIP3   OH2 8819   1.713   1.443   3.217  0.1415  0.7735 -0.3056
 2952TIP3    H1 8820   1.705   1.523   3.164 -2.7661  0.8659  0.1205
 2952TIP3    H2 8821   1.725   1.476   3.307  1.8059  0.6441 -0.4488
 2953TIP3   OH2 8822   4.470   3.912   3.951 -0.3510 -0.1421 -0.3134
 2953TIP3    H1 8823   4.434   3.825   3.934 -0.1400 -0.0352 -1.3993
 2953TIP3    H2 8824   4.415   3.948   4.020 -0.4235 -1.1434  0.1680
 2954TIP3   OH2 8825   2.656  -0.001   1.110  0.4433  0.4094 -0.1490
 2954TIP3    H1 8826   2.720  -0.072   1.109  1.3976  1.0778 -3.8979
 2954TIP3    H2 8827   2.705   0.075   1.143  0.7176  0.2492 -0.1828
 2955TIP3   OH2 8828   4.098   3.156   3.327 -0.4013 -0.0726  0.4196
 2955TIP3    H1 8829   4.141   3.238   3.303 -0.1878 -0.0399  0.8900
 2955TIP3    H2 8830   4.027   3.146   3.264  0.6122 -0.4016 -0.7184
 2956TIP3   OH2 8831   4.618   4.710   2.607  0.2336 -0.2922  0.1943
 2956TIP3    H1 8832   4.557   4.732   2.537 -0.3766  0.8789  1.0492
 2956TIP3    H2 8833   4.702   4.697   2.563 -0.0437  0.8605 -0.7273
 2957TIP3   OH2 8834   0.547   6.413   5.752  0.4791 -0.7903 -0.5015
 2957TIP3    H1 8835   0.636   6.448   5.747  0.7151 -1.2228  0.5763
 2957TIP3    H2 8836   0.497   6.468   5.692  1.2079  0.2703 -0.1646
 2958TIP3   OH2 8837   0.843   4.446   4.966  0.6797 -0.0857  0.6955
 2958TIP3    H1 8838   0.785   4.399   5.026  0.8447 -0.0979  0.8463
 2958TIP3    H2 8839   0.880   4.378   4.909 -0.0862  0.0159  0.0529
 2959TIP3   OH2 8840   3.012   6.049   3.859 -0.3516 -0.3610  0.2909
 2959TIP3    H1 8841   3.051   6.019   3.941  1.4548  0.4101 -0.2232
 2959TIP3    H2 8842   3.039   5.984   3.794  0.0916  0.1800 -0.0747
 2960TIP3   OH2 8843   3.370   6.202   2.271 -0.1635 -0.0161  0.6653
 2960TIP3    H1 8844   3.312   6.126   2.269  0.1027 -0.2143 -0.2886
 2960TIP3    H2 8845   3.313   6.276   2.290 -0.9787 -0.0242 -1.4860
 2961TIP3   OH2 8846   2.003   3.439   5.055 -0.1778 -0.3553 -0.4844
 2961TIP3    H1 8847   2.005   3.356   5.008 -0.7905  0.5398 -2.2061
 2961TIP3    H2 8848   1.962   3.500   4.993 -0.4765  1.0447  1.0208
 2962TIP3   OH2 8849   7.021   2.480   2.723 -0.2622  0.0611 -0.9029
 2962TIP3    H1 8850   7.077   2.468   2.800 -0.8001  1.4370 -0.2748
 2962TIP3    H2 8851   7.072   2.536   2.665 -0.7780  0.9228 -0.5363
 2963TIP3   OH2 8852   4.544   2.832   3.121 -0.2529  0.6057 -0.1647
 2963TIP3    H1 8853   4.633   2.865   3.128 -0.0774  0.4382 -1.3977
 2963TIP3    H2 8854   4.506   2.879   3.047 -1.6918  1.7415  1.2093
 2964TIP3   OH2 8855   6.554   5.085   2.598  0.1555 -0.0348  0.0426
 2964TIP3    H1 8856   6.625   5.059   2.539 -1.2146 -1.2648 -1.1507
 2964TIP3    H2 8857   6.549   5.014   2.662  1.5799  1.2522  1.6923
 2965TIP3   OH2 8858   1.500   4.856   3.166 -0.3195 -0.5956 -0.3070
 2965TIP3    H1 8859   1.517   4.950   3.169  3.6475 -1.1563 -0.6941
 2965TIP3    H2 8860   1.542   4.826   3.086  0.2054 -2.9778  0.7668
 2966TIP3   OH2 8861   1.444   3.467   2.966 -0.5162 -0.3201  1.2390
 2966TIP3    H1 8862   1.360   3.461   3.011 -0.6314 -1.4781  0.8931
 2966TIP3    H2 8863   1.441   3.399   2.899  0.2030  0.4590  0.3771
 2967TIP3   OH2 8864   5.480   3.220   1.573 -0.2906 -0.2889 -0.1700
 2967TIP3    H1 8865   5.405   3.203   1.516 -0.1277  0.8549 -0.7595
 2967TIP3    H2 8866   5.556   3.201   1.518 -0.1423  0.0994 -0.1046
 2968TIP3   OH2 8867   1.410   0.659   1.932 -0.7336  0.3849 -1.0213
 2968TIP3    H1 8868   1.485   0.673   1.875 -1.1570  2.6032 -1.1390
 2968TIP3    H2 8869   1.359   0.739   1.924 -2.3819 -0.4837  0.1589
 2969TIP3   OH2 8870   4.320   2.239   1.999  0.0089  0.1327 -0.2708
 2969TIP3    H1 8871   4.285   2.208   1.915  1.0133 -1.3279 -0.1970
 2969TIP3    H2 8872   4.415   2.245   1.983  0.0004  2.0471  0.1162
 2970TIP3   OH2 8873   6.261   6.421   2.054  0.5656 -0.2529 -0.8375
 2970TIP3    H1 8874   6.291   6.402   1.965  1.5892  0.8861 -0.7657
 2970TIP3    H2 8875   6.189   6.482   2.043  1.8598  1.3370 -0.8721
 2971TIP3   OH2 8876   4.001   2.734   5.874 -0.0831  0.2014  0.0010
 2971TIP3    H1 8877   4.053   2.667   5.830  2.4603  1.5610  0.7720
 2971TIP3    H2 8878   3.984   2.799   5.806 -0.4608 -0.0574 -0.1560
 2972TIP3   OH2 8879   1.757   5.335   4.115  0.4017 -0.1532 -0.2048
 2972TIP3    H1 8880   1.757   5.302   4.025  0.9130 -0.4419 -0.1014
 2972TIP3    H2 8881   1.830   5.397   4.119  0.7693 -0.6081  0.1812
 2973TIP3   OH2 8882   3.928   3.949   0.455 -0.2774  0.1161 -0.3562
 2973TIP3    H1 8883   3.917   4.026   0.511  0.0610 -1.0789  1.4207
 2973TIP3    H2 8884   3.947   3.877   0.515  0.4050 -1.1894 -2.0391
 2974TIP3   OH2 8885   0.213   1.504   5.779  0.2631  0.6698 -0.2305
 2974TIP3    H1 8886   0.282   1.496   5.845  0.3915  0.6374 -0.3676
 2974TIP3    H2 8887   0.248   1.460   5.702 -0.9427 -1.7075  0.4795
 2975TIP3   OH2 8888   1.245   1.113   3.911  0.1096 -0.0464  0.4627
 2975TIP3    H1 8889   1.195   1.187   3.946 -0.3892  0.7784 -1.7682
 2975TIP3    H2 8890   1.184   1.039   3.915 -0.6725  0.5096 -0.4654
 2976TIP3   OH2 8891   1.170   4.735   4.516  0.9612 -0.0329 -0.5688
 2976TIP3    H1 8892   1.207   4.822   4.528  1.6330 -0.3624 -0.1904
 2976TIP3    H2 8893   1.232   4.676   4.560 -0.8581 -0.4666  1.6063
 2977TIP3   OH2 8894   3.675   4.058   1.996  0.2537  0.3225  0.2761
 2977TIP3    H1 8895   3.727   4.045   2.075  2.4594  2.6501 -0.6386
 2977TIP3    H2 8896   3.584   4.051   2.025  0.9992 -1.9794  2.3446
 2978TIP3   OH2 8897   3.923   0.176   2.101  0.4399  0.0769 -0.1650
 2978TIP3    H1 8898   3.906   0.208   2.189 -0.9462 -0.3584 -0.2476
 2978TIP3    H2 8899   3.958   0.252   2.054  1.6708  0.1793  0.8605
 2979TIP3   OH2 8900   0.069   1.042   5.042  0.2978  0.5117  0.2903
 2979TIP3    H1 8901  -0.013   1.042   4.993  0.7266 -0.3086 -0.4615
 2979TIP3    H2 8902   0.043   1.059   5.133 -0.4738  2.3613 -0.2410
 2980TIP3   OH2 8903   3.130   5.102   0.591  0.5331  0.0561 -0.2814
 2980TIP3    H1 8904   3.116   5.058   0.508  0.8688  1.0663 -0.8980
 2980TIP3    H2 8905   3.076   5.181   0.586  0.6491  0.1879  0.4068
 2981TIP3   OH2 8906   0.811   5.959   2.573  0.1044 -0.1148  0.2058
 2981TIP3    H1 8907   0.770   5.925   2.652 -0.6056 -3.0527 -1.2926
 2981TIP3    H2 8908   0.760   6.037   2.551 -0.3510  0.1389  2.0366
 2982TIP3   OH2 8909   2.936   1.728   2.220 -0.0014 -0.2562  0.2599
 2982TIP3    H1 8910   3.018   1.735   2.269 -0.1596 -2.4147  0.9502
 2982TIP3    H2 8911   2.930   1.635   2.196 -1.7997  0.0236 -0.5825
 2983TIP3   OH2 8912   5.401   1.005   3.935 -0.4836  0.2787 -0.0466
 2983TIP3    H1 8913   5.450   1.087   3.936 -0.9450  0.5626 -0.1783
 2983TIP3    H2 8914   5.369   0.995   4.024 -0.0223 -0.0100  0.0888
 2984TIP3   OH2 8915   6.482   2.335   4.748 -0.1164  0.2371  0.6405
 2984TIP3    H1 8916   6.528   2.252   4.756  0.1067  0.3063  0.1329
 2984TIP3    H2 8917   6.406   2.327   4.806  0.6750  0.2271  1.6867
 2985TIP3   OH2 8918   3.510   4.435   1.599  0.1141 -0.0248  0.3720
 2985TIP3    H1 8919   3.595   4.458   1.636 -1.3558  1.8818  2.8994
 2985TIP3    H2 8920   3.530   4.375   1.527  3.5563  0.4440  0.7909
 2986TIP3   OH2 8921   1.830   1.212   1.806 -0.6948  0.3691  0.4949
 2986TIP3    H1 8922   1.898   1.145   1.811 -1.1661 -0.0844  0.9181
 2986TIP3    H2 8923   1.868   1.287   1.852 -0.2912  0.2892  0.3021
 2987TIP3   OH2 8924   1.135   3.225   3.070 -0.5880  0.2482  0.4810
 2987TIP3    H1 8925   1.061   3.171   3.097  0.0178 -0.3483  1.0134
 2987TIP3    H2 8926   1.193   3.165   3.024 -0.6194  0.7973 -0.2879
 2988TIP3   OH2 8927   0.389   2.601   3.559 -0.0776 -0.2396  0.2732
 2988TIP3    H1 8928   0.405   2.567   3.470  1.7609  1.4203 -0.1017
 2988TIP3    H2 8929   0.471   2.583   3.606 -0.2674  0.7423  1.0014
 2989TIP3   OH2 8930   0.896   2.840   5.275 -0.2190 -0.1755  0.4126
 2989TIP3    H1 8931   0.877   2.746   5.283  1.1633 -0.3984  1.3988
 2989TIP3    H2 8932   0.915   2.869   5.364  0.7085  0.7361 -0.0608
 2990TIP3   OH2 8933   5.111   4.273   5.253  0.6181  0.0052 -0.0471
 2990TIP3    H1 8934   5.073   4.243   5.336  0.8194  2.0049  0.8307
 2990TIP3    H2 8935   5.061   4.227   5.186 -0.7353 -0.3581  1.1559
 2991TIP3   OH2 8936   0.292   6.364   5.354  0.9118  0.1534  0.7582
 2991TIP3    H1 8937   0.274   6.308   5.430 -0.3896  0.0312  0.3923
 2991TIP3    H2 8938   0.293   6.453   5.389  1.7263  0.0025  1.1367
 2992TIP3   OH2 8939   5.889   3.366   0.486 -0.6286  0.0875 -0.4640
 2992TIP3    H1 8940   5.977   3.377   0.520 -0.4943 -1.1009 -0.3754
 2992TIP3    H2 8941   5.881   3.272   0.471 -2.4734 -0.0567  1.1163
 2993TIP3   OH2 8942   6.543   5.135   4.725 -0.0019 -0.0739 -0.2423
 2993TIP3    H1 8943   6.489   5.069   4.682  1.5143 -1.8606  0.4563
 2993TIP3    H2 8944   6.539   5.114   4.818  1.3423  0.1494 -0.1044
 2994TIP3   OH2 8945   7.049   3.447   5.583 -0.0260 -0.9742 -0.4723
 2994TIP3    H1 8946   7.119   3.458   5.518  1.6908  0.6155  1.4766
 2994TIP3    H2 8947   7.090   3.399   5.655 -0.8027  0.2926  0.8691
 2995TIP3   OH2 8948   6.890   4.241   2.526 -0.1407 -1.2844 -0.1458
 2995TIP3    H1 8949   6.905   4.151   2.497 -1.2904 -1.5586  0.0607
 2995TIP3    H2 8950   6.807   4.238   2.573 -0.8419  0.1151 -1.2162
 2996TIP3   OH2 8951   3.688   2.531   3.201 -0.1964  0.1038  0.2329
 2996TIP3    H1 8952   3.724   2.576   3.126  1.3426  2.0043  2.0009
 2996TIP3    H2 8953   3.764   2.498   3.249 -1.1642 -1.6722  0.6666
 2997TIP3   OH2 8954   6.161   4.479   1.457 -0.5470 -0.1719 -0.1682
 2997TIP3    H1 8955   6.114   4.396   1.457 -0.3764 -0.2700  0.0312
 2997TIP3    H2 8956   6.233   4.466   1.519 -1.2065  0.5178  0.7735
 2998TIP3   OH2 8957   1.984   4.100   3.534 -0.4079 -0.4723 -0.4998
 2998TIP3    H1 8958   2.069   4.057   3.521  0.3641  0.5349  0.9996
 2998TIP3    H2 8959   1.980   4.117   3.628 -1.2852  1.4667 -0.8482
 2999TIP3   OH2 8960   0.500   2.000   2.810  0.2235 -0.5746  0.0211
 2999TIP3    H1 8961   0.481   1.934   2.744 -1.5757 -0.0553 -0.0215
 2999TIP3    H2 8962   0.414   2.029   2.842  1.0046  0.2871  1.4916
 3000TIP3   OH2 8963   6.183   3.288   1.890 -0.7417 -0.1183 -0.0010
 3000TIP3    H1 8964   6.266   3.308   1.846 -0.5755  0.2496  0.4581
 3000TIP3    H2 8965   6.208   3.278   1.982 -1.1055 -0.7140  0.0298
 3001TIP3   OH2 8966   3.500   6.754   0.048 -0.1107 -0.2054  0.0075
 3001TIP3    H1 8967   3.427   6.720  -0.004 -0.9713  0.3959  0.7908
 3001TIP3    H2 8968   3.549   6.676   0.075 -0.3962 -0.6062 -0.6173
 3002TIP3   OH2 8969   0.919   4.840   4.005 -0.2524  0.0193 -0.4870
 3002TIP3    H1 8970   0.953   4.779   4.071  0.7942  2.2051  1.1290
 3002TIP3    H2 8971   0.980   4.832   3.932  1.5989  1.0578  0.8320
 3003TIP3   OH2 8972   1.809   2.409   0.153 -0.3264  0.2473  0.2591
 3003TIP3    H1 8973   1.749   2.431   0.082 -1.5603  1.0658  1.5187
 3003TIP3    H2 8974   1.802   2.313   0.161  0.7510 -0.0236 -1.4769
 3004TIP3   OH2 8975   4.820   4.509   1.953 -0.3881 -0.5590 -0.6403
 3004TIP3    H1 8976   4.751   4.491   2.016  0.8379 -1.6872  0.4199
 3004TIP3    H2 8977   4.844   4.424   1.918  1.8873 -0.4804  0.5642
 3005TIP3   OH2 8978   4.264   1.129   2.768 -0.4055 -0.1418  0.3728
 3005TIP3    H1 8979   4.244   1.137   2.675  0.4706 -0.0309  0.1927
 3005TIP3    H2 8980   4.359   1.137   2.774 -0.3993 -0.6673  1.2217
 3006TIP3   OH2 8981   5.532   4.076   5.362  0.5697  0.4087  0.0985
 3006TIP3    H1 8982   5.536   3.987   5.327 -0.0029 -0.2069  1.5154
 3006TIP3    H2 8983   5.621   4.109   5.353  0.7178 -0.1791 -0.7432
 3007TIP3   OH2 8984   3.757   6.207   4.027 -0.0456  0.1889  0.3774
 3007TIP3    H1 8985   3.799   6.259   4.096  0.8775  0.5585 -0.4413
 3007TIP3    H2 8986   3.755   6.266   3.952 -0.4297 -0.4496 -0.1160
 3008TIP3   OH2 8987   2.714   3.563   1.788  0.1773 -0.2995 -0.3535
 3008TIP3    H1 8988   2.685   3.641   1.740 -0.3228 -0.5006 -0.3907
 3008TIP3    H2 8989   2.731   3.498   1.720  0.4908 -0.2552 -0.3167
 3009TIP3   OH2 8990   0.600   1.158   1.742 -1.2123  0.0020  0.0167
 3009TIP3    H1 8991   0.544   1.212   1.798 -0.8886 -0.3423  0.6818
 3009TIP3    H2 8992   0.666   1.219   1.708 -2.0294  0.4318 -0.8601
 3010TIP3   OH2 8993   6.923   1.990   2.804 -0.2079 -0.2413  0.2364
 3010TIP3    H1 8994   6.975   1.910   2.797  1.3861  0.6208  1.3707
 3010TIP3    H2 8995   6.938   2.035   2.720  0.7361 -0.1238  0.4474
 3011TIP3   OH2 8996   1.056   4.160   4.601  0.2808  0.8056 -0.0781
 3011TIP3    H1 8997   1.103   4.105   4.538  0.5625  0.6823  0.2333
 3011TIP3    H2 8998   1.013   4.227   4.548 -0.2896  0.1282 -0.4844
 3012TIP3   OH2 8999   6.658   6.363   3.788 -0.1350 -0.0824  0.1647
 3012TIP3    H1 9000   6.607   6.329   3.861  0.7773  1.5641  1.6646
 3012TIP3    H2 9001   6.595   6.410   3.734 -0.3641  1.2972  1.5821
 3013TIP3   OH2 9002   6.460   0.687   0.896  0.3018 -0.4560  0.3532
 3013TIP3    H1 9003   6.410   0.754   0.849 -0.0453 -2.0034 -1.6429
 3013TIP3    H2 9004   6.549   0.723   0.902  0.2958 -0.0759 -1.3217
 3014TIP3   OH2 9005   0.241   6.620   3.220 -0.3565 -0.2421  0.0006
 3014TIP3    H1 9006   0.204   6.693   3.171 -1.3986 -0.5194  0.3616
 3014TIP3    H2 9007   0.168   6.561   3.234  0.2258 -0.8041  0.7306
 3015TIP3   OH2 9008   1.202   5.101   1.656 -0.3900 -0.0111  0.8445
 3015TIP3    H1 9009   1.147   5.032   1.620 -0.0160  0.8051 -1.5196
 3015TIP3    H2 9010   1.288   5.060   1.669 -0.3699 -0.1935  0.1615
 3016TIP3   OH2 9011   4.125   0.430   1.071 -0.1826 -0.0412 -0.3618
 3016TIP3    H1 9012   4.066   0.498   1.037  0.6729  1.0569  0.2908
 3016TIP3    H2 9013   4.106   0.427   1.165  0.3982 -0.0735 -0.2437
 3017TIP3   OH2 9014   5.098   1.794   0.560  0.1298 -0.3026 -0.3840
 3017TIP3    H1 9015   5.186   1.765   0.585  1.6175  2.6297 -1.7252
 3017TIP3    H2 9016   5.076   1.861   0.625 -0.2211  0.3485 -1.1491
 3018TIP3   OH2 9017   6.644   6.759   2.256 -0.3501 -0.5526 -0.0877
 3018TIP3    H1 9018   6.581   6.772   2.185 -1.3497 -0.2051  0.8430
 3018TIP3    H2 9019   6.728   6.786   2.218 -0.8624 -0.3853 -1.1411
 3019TIP3   OH2 9020   3.244   5.939   0.274  0.8106 -0.8013  0.2554
 3019TIP3    H1 9021   3.266   5.862   0.221  0.8288 -0.6086 -0.0173
 3019TIP3    H2 9022   3.153   5.924   0.300  0.0768  0.1329 -1.6380
 3020TIP3   OH2 9023   4.686   3.308   1.530  0.0835 -0.0825 -0.0111
 3020TIP3    H1 9024   4.698   3.388   1.580  0.9251 -0.3449  0.2203
 3020TIP3    H2 9025   4.617   3.329   1.467 -0.4528  0.4823  0.7576
 3021TIP3   OH2 9026   5.205   0.020   2.428  0.4525 -0.2266  0.1608
 3021TIP3    H1 9027   5.288  -0.011   2.464  2.1020  1.8990 -1.4894
 3021TIP3    H2 9028   5.213   0.116   2.428 -1.7155  0.0239 -0.6956
 3022TIP3   OH2 9029   0.293   3.551   0.672 -0.7710 -0.0301  0.2969
 3022TIP3    H1 9030   0.364   3.548   0.609  0.5771  2.5428  1.5508
 3022TIP3    H2 9031   0.216   3.579   0.622 -0.0688  0.5673 -0.4595
 3023TIP3   OH2 9032   0.486   1.249   4.093  0.4367  0.4350 -0.3436
 3023TIP3    H1 9033   0.440   1.333   4.098  1.5215  1.3305 -3.3738
 3023TIP3    H2 9034   0.423   1.189   4.055 -0.0803  0.0066  1.1013
 3024TIP3   OH2 9035   1.112   6.661   3.576  0.1217  0.4858 -0.0305
 3024TIP3    H1 9036   1.149   6.749   3.584  0.3215  0.4704 -0.7350
 3024TIP3    H2 9037   1.099   6.649   3.482  2.7232 -1.2990 -0.2447
 3025TIP3   OH2 9038   2.165   1.017   5.785 -0.5132 -0.1831 -0.1417
 3025TIP3    H1 9039   2.091   0.964   5.756  1.1013 -1.6331 -1.8452
 3025TIP3    H2 9040   2.207   1.047   5.705  2.4561 -1.9193  0.6103
 3026TIP3   OH2 9041   1.068   4.676   1.387 -0.1138 -0.3205 -0.1023
 3026TIP3    H1 9042   1.094   4.679   1.295  1.5124  1.9796  0.3643
 3026TIP3    H2 9043   1.143   4.637   1.432 -0.0575  0.4782  0.5029
 3027TIP3   OH2 9044   3.968   0.479   2.933 -0.3821 -0.0632  0.0744
 3027TIP3    H1 9045   3.885   0.489   2.886 -0.4876 -0.7103  0.1145
 3027TIP3    H2 9046   4.035   0.492   2.865 -0.4914  0.9900  0.1444
 3028TIP3   OH2 9047   5.209   5.902   4.350  0.0956 -0.0646 -0.5201
 3028TIP3    H1 9048   5.283   5.951   4.385  0.0280  0.4645 -1.1086
 3028TIP3    H2 9049   5.133   5.939   4.395 -0.0475  0.9743 -1.5784
 3029TIP3   OH2 9050   0.823   1.029   0.619 -0.1594  0.0303 -0.5408
 3029TIP3    H1 9051   0.898   1.017   0.561  0.1877 -0.5251  0.0087
 3029TIP3    H2 9052   0.808   1.123   0.619 -2.0167 -0.1007 -3.8011
 3030TIP3   OH2 9053   4.985   6.121   2.846 -0.0461 -0.4588 -0.1475
 3030TIP3    H1 9054   5.020   6.042   2.805  1.2188 -0.9413  1.7741
 3030TIP3    H2 9055   5.049   6.189   2.824 -0.5483 -0.1850 -0.8307
 3031TIP3   OH2 9056   1.240   4.842   2.444 -0.1204  0.1497 -0.1951
 3031TIP3    H1 9057   1.333   4.854   2.426 -0.0147  0.5644  0.5794
 3031TIP3    H2 9058   1.238   4.783   2.520 -0.4790  0.3976 -0.0116
 3032TIP3   OH2 9059   5.411   0.495   4.102  0.0569  0.2446 -0.9484
 3032TIP3    H1 9060   5.504   0.515   4.119 -0.1592  2.5911 -2.0329
 3032TIP3    H2 9061   5.399   0.519   4.010 -1.6728  0.1688 -0.7570
 3033TIP3   OH2 9062   6.260   4.878   2.989  0.7301  0.1196 -0.4062
 3033TIP3    H1 9063   6.324   4.948   2.981  0.3527  0.3241 -1.9015
 3033TIP3    H2 9064   6.311   4.797   2.985  1.0843  0.2868  0.5293
 3034TIP3   OH2 9065   5.214   6.273   5.725  0.1574 -0.3142 -0.2382
 3034TIP3    H1 9066   5.123   6.265   5.697 -0.0527 -4.3086  0.9745
 3034TIP3    H2 9067   5.262   6.213   5.668  1.1250 -2.0103  2.1897
 3035TIP3   OH2 9068   0.062   1.941   3.111 -0.2195 -1.3309 -0.2436
 3035TIP3    H1 9069   0.051   1.917   3.203  0.0154 -0.1676  0.1002
 3035TIP3    H2 9070  -0.012   1.999   3.093  1.4553  1.0110  0.1338
 3036TIP3   OH2 9071   3.266   4.190   4.178  0.5274 -0.0159 -0.0157
 3036TIP3    H1 9072   3.222   4.275   4.175  0.1849 -0.1888  0.1487
 3036TIP3    H2 9073   3.293   4.180   4.269 -0.1544 -0.4494  0.1472
 3037TIP3   OH2 9074   0.755   3.769   4.436  0.1342  0.1276  0.1682
 3037TIP3    H1 9075   0.790   3.845   4.482  0.4556  0.2932 -0.3418
 3037TIP3    H2 9076   0.774   3.786   4.344  1.3434 -1.1459  0.1443
 3038TIP3   OH2 9077   2.152   4.346   1.361 -0.3781 -0.0093  0.1450
 3038TIP3    H1 9078   2.187   4.325   1.448  1.3827 -0.0958 -0.5562
 3038TIP3    H2 9079   2.134   4.440   1.366 -0.0717  0.0327  0.5269
 3039TIP3   OH2 9080   6.918   4.503   2.817 -0.3533 -0.6104 -0.1536
 3039TIP3    H1 9081   6.830   4.482   2.846  0.0488 -0.7085  1.0475
 3039TIP3    H2 9082   6.966   4.420   2.820 -0.5273 -0.8427 -2.0970
 3040TIP3   OH2 9083   5.513   5.198   4.845  0.6082  0.0696 -0.8511
 3040TIP3    H1 9084   5.442   5.227   4.901 -0.0769 -0.2457 -1.5312
 3040TIP3    H2 9085   5.589   5.250   4.872  0.1135  0.4353 -0.1470
 3041TIP3   OH2 9086   0.930   1.214   5.834  0.0279 -0.0438  0.2693
 3041TIP3    H1 9087   0.947   1.148   5.901  0.9021 -0.8263 -0.6779
 3041TIP3    H2 9088   0.962   1.295   5.872 -1.4795 -0.0362  1.6385
 3042TIP3   OH2 9089   6.188   1.975   2.387 -0.0920 -0.1952  0.5118
 3042TIP3    H1 9090   6.114   1.955   2.443 -0.0727 -0.8934  0.2945
 3042TIP3    H2 9091   6.262   1.986   2.447 -0.3625  0.5210  0.7289
 3043TIP3   OH2 9092   1.901   0.219   1.251  0.2155  0.3175 -0.3505
 3043TIP3    H1 9093   1.886   0.199   1.344 -1.6105  0.3810 -0.5867
 3043TIP3    H2 9094   1.959   0.295   1.251  0.9938 -0.2641  0.7177
 3044TIP3   OH2 9095   5.385   3.521   5.699 -0.0050  0.1601  0.5019
 3044TIP3    H1 9096   5.327   3.545   5.627 -0.1903  1.4171  1.0429
 3044TIP3    H2 9097   5.326   3.495   5.770  0.1876 -1.6832  0.0290
 3045TIP3   OH2 9098   2.000   0.481   3.395 -0.3673 -0.0079 -0.3525
 3045TIP3    H1 9099   1.942   0.443   3.461 -0.2361  1.0107  0.3762
 3045TIP3    H2 9100   1.945   0.491   3.317 -0.4314 -1.5488 -0.5360
 3046TIP3   OH2 9101   5.741   1.673   3.099  0.4421 -0.5772 -0.6525
 3046TIP3    H1 9102   5.779   1.624   3.173  2.9032  2.4504  0.3343
 3046TIP3    H2 9103   5.812   1.676   3.034  0.1275  1.0362 -0.9558
 3047TIP3   OH2 9104   6.374   1.092   4.610  0.1229 -0.3020 -0.3863
 3047TIP3    H1 9105   6.322   1.052   4.680 -0.2957 -0.3567 -0.7207
 3047TIP3    H2 9106   6.323   1.076   4.531  1.1765 -1.2991 -0.8877
 3048TIP3   OH2 9107   0.990   1.219   2.319 -0.1636 -0.2966  0.0543
 3048TIP3    H1 9108   1.038   1.254   2.395  1.1393 -3.2091  0.6989
 3048TIP3    H2 9109   0.903   1.199   2.354  0.2145 -0.9884  0.6374
 3049TIP3   OH2 9110   3.528   0.038   5.477 -0.0217 -0.5911 -0.4755
 3049TIP3    H1 9111   3.619   0.016   5.496  0.3495  1.9737  1.1570
 3049TIP3    H2 9112   3.533   0.120   5.427 -1.4377 -0.0121  0.2732
 3050TIP3   OH2 9113   6.462   0.901   3.821 -0.6011 -0.2877 -0.5572
 3050TIP3    H1 9114   6.408   0.941   3.889  0.7530 -0.7034  0.8159
 3050TIP3    H2 9115   6.516   0.972   3.786 -1.2091 -0.0995 -1.1336
 3051TIP3   OH2 9116   7.080   5.049   3.349 -0.3071  0.0873  0.5229
 3051TIP3    H1 9117   7.129   4.976   3.311  1.6558  1.8219 -0.5105
 3051TIP3    H2 9118   7.132   5.075   3.425 -1.3737  0.0059  1.3017
 3052TIP3   OH2 9119   1.058   0.883   2.462  0.3227  0.0133 -0.2027
 3052TIP3    H1 9120   0.984   0.842   2.417 -1.2311 -0.7256  2.7695
 3052TIP3    H2 9121   1.094   0.945   2.398 -1.5856 -1.0196 -2.4342
 3053TIP3   OH2 9122   0.563   0.513   4.203  0.1627  0.3926  0.1795
 3053TIP3    H1 9123   0.560   0.585   4.267 -0.3645 -0.8108  1.5679
 3053TIP3    H2 9124   0.589   0.437   4.254  0.5254 -0.4660 -1.2307
 3054TIP3   OH2 9125   3.362   1.094   5.417 -0.3490 -0.3866  0.4855
 3054TIP3    H1 9126   3.321   1.010   5.438  1.0353 -1.0011  0.8187
 3054TIP3    H2 9127   3.347   1.148   5.494 -0.8069 -0.4848  0.4694
 3055TIP3   OH2 9128   0.006   2.119   1.259 -0.6297 -0.2770  0.2447
 3055TIP3    H1 9129   0.096   2.153   1.256 -0.6560 -0.2805 -1.2842
 3055TIP3    H2 9130   0.009   2.051   1.327  0.7435 -0.8419 -0.3340
 3056TIP3   OH2 9131   7.103   2.477   5.731 -0.5428 -0.1678  0.5910
 3056TIP3    H1 9132   7.171   2.421   5.692 -0.4832 -0.4417  1.0737
 3056TIP3    H2 9133   7.075   2.429   5.809 -0.7307  0.3216  0.8269
 3057TIP3   OH2 9134   1.511   3.454   0.954  0.3240 -0.1966  0.3459
 3057TIP3    H1 9135   1.439   3.511   0.980  1.3681  1.7216 -0.7976
 3057TIP3    H2 9136   1.469   3.387   0.899 -0.8674 -0.3744  1.4223
 3058TIP3   OH2 9137   6.511   3.430   1.803  0.0033 -0.0514 -0.1275
 3058TIP3    H1 9138   6.524   3.415   1.897 -2.6485  1.4966  0.5833
 3058TIP3    H2 9139   6.465   3.351   1.772  0.1767 -0.2248  0.0574
 3059TIP3   OH2 9140   3.886   1.816   0.487  0.7267 -0.5080 -0.8444
 3059TIP3    H1 9141   3.854   1.770   0.409 -1.1394  1.0456 -1.0577
 3059TIP3    H2 9142   3.944   1.752   0.530  0.4242 -2.0217 -2.5698
 3060TIP3   OH2 9143   2.218   6.725   4.387 -0.0859  0.2059  0.2181
 3060TIP3    H1 9144   2.205   6.759   4.475 -1.4874  1.3809 -0.3972
 3060TIP3    H2 9145   2.177   6.639   4.388  1.0436 -0.3458  1.0385
 3061TIP3   OH2 9146   0.225   4.528   2.674  0.0487  0.0627  0.3533
 3061TIP3    H1 9147   0.273   4.493   2.599 -0.0579 -1.7618  1.0848
 3061TIP3    H2 9148   0.136   4.495   2.663 -0.5899  1.7673  0.0638
 3062TIP3   OH2 9149   0.831   4.756   0.015 -0.2893  0.1876 -0.4353
 3062TIP3    H1 9150   0.865   4.844  -0.000 -1.8767  0.4715 -3.0119
 3062TIP3    H2 9151   0.736   4.767   0.012 -0.5768 -1.2962  1.5459
 3063TIP3   OH2 9152   0.268   2.722   1.869 -0.0494  0.4636 -0.0189
 3063TIP3    H1 9153   0.184   2.745   1.909 -0.0080  1.3471 -0.4112
 3063TIP3    H2 9154   0.290   2.798   1.815  0.4568 -0.2175 -0.7983
 3064TIP3   OH2 9155   5.656   3.201   2.976 -0.5294 -0.2400  0.1562
 3064TIP3    H1 9156   5.606   3.218   3.056  0.1196  2.8031  0.0503
 3064TIP3    H2 9157   5.627   3.269   2.915  0.7858 -0.9358 -1.3256
 3065TIP3   OH2 9158   5.270   1.804   4.405  0.6121  0.1404  0.3511
 3065TIP3    H1 9159   5.254   1.717   4.443  1.1647  0.5397  1.5482
 3065TIP3    H2 9160   5.364   1.819   4.417  0.9655  0.0011 -1.8649
 3066TIP3   OH2 9161   2.310   2.654   3.398  0.0647 -0.6823 -0.2364
 3066TIP3    H1 9162   2.400   2.634   3.371 -0.1774 -0.4619 -1.2737
 3066TIP3    H2 9163   2.267   2.685   3.318 -0.1356  2.1526  0.8515
 3067TIP3   OH2 9164   4.372   2.683   3.984 -0.1365 -0.2577  0.2407
 3067TIP3    H1 9165   4.418   2.652   4.062  1.4734  1.3798  0.0054
 3067TIP3    H2 9166   4.355   2.776   4.002 -0.8756 -0.1551 -0.8622
 3068TIP3   OH2 9167   3.709   3.140   5.206  0.4865 -0.2664  0.4929
 3068TIP3    H1 9168   3.619   3.110   5.197  0.6426 -0.4177 -0.6585
 3068TIP3    H2 9169   3.762   3.070   5.168  0.8500  1.4637 -2.5415
 3069TIP3   OH2 9170   1.752   2.054   0.771  0.3693  0.1307 -0.1825
 3069TIP3    H1 9171   1.723   2.095   0.853  0.5790 -0.0141 -0.0343
 3069TIP3    H2 9172   1.749   2.125   0.707 -0.3652  0.0986 -0.1809
 3070TIP3   OH2 9173   2.615   0.947   1.448  0.2978  0.1713 -0.2851
 3070TIP3    H1 9174   2.708   0.928   1.434  0.4878 -0.8751  2.0479
 3070TIP3    H2 9175   2.582   0.873   1.500 -1.5834  1.0618 -0.1192
 3071TIP3   OH2 9176   6.198   3.485   0.984 -0.1520  0.1059 -0.4770
 3071TIP3    H1 9177   6.122   3.460   1.036 -0.5239  0.5568 -0.7994
 3071TIP3    H2 9178   6.174   3.464   0.894  0.1504  0.1451 -0.5687
 3072TIP3   OH2 9179   1.631   3.337   0.110  0.4111  0.0349 -0.2546
 3072TIP3    H1 9180   1.578   3.284   0.051 -0.0645 -1.8587  1.7303
 3072TIP3    H2 9181   1.585   3.421   0.115 -1.7065 -1.0789  0.3185
 3073TIP3   OH2 9182   1.157   5.817   2.189  0.2079 -0.2348  0.0529
 3073TIP3    H1 9183   1.202   5.877   2.248 -0.2645  0.6945 -0.5043
 3073TIP3    H2 9184   1.157   5.733   2.235 -2.6824  1.0428  2.7841
 3074TIP3   OH2 9185   2.720   2.391   3.210  1.1886  0.0707  0.0695
 3074TIP3    H1 9186   2.766   2.359   3.132  1.4490 -1.3873  0.7872
 3074TIP3    H2 9187   2.781   2.376   3.282  0.7686  0.9567  0.6214
 3075TIP3   OH2 9188   3.669   0.379   1.951  0.2127 -0.4580  0.0137
 3075TIP3    H1 9189   3.632   0.302   1.994 -1.5500 -0.4678 -1.3683
 3075TIP3    H2 9190   3.720   0.345   1.878 -0.0633 -0.3601 -0.2313
 3076TIP3   OH2 9191   1.440   2.523   4.522  0.5650 -0.2594  0.5577
 3076TIP3    H1 9192   1.476   2.434   4.527 -0.7063 -0.7679  1.2103
 3076TIP3    H2 9193   1.511   2.575   4.485  0.5664 -2.0145 -2.2844
 3077TIP3   OH2 9194   3.615   2.473   4.687 -0.5282 -0.0851  0.6291
 3077TIP3    H1 9195   3.555   2.414   4.642 -1.7198  0.4244  1.4872
 3077TIP3    H2 9196   3.624   2.548   4.629 -1.1829  0.0845  0.7405
 3078TIP3   OH2 9197   5.564   6.466   3.449 -0.2563  0.0225  0.9799
 3078TIP3    H1 9198   5.607   6.514   3.521  1.4655  0.7169 -0.4379
 3078TIP3    H2 9199   5.573   6.374   3.473  3.0094  0.0557  0.3366
 3079TIP3   OH2 9200   0.699   1.634   0.022 -1.0494 -0.1869 -0.3164
 3079TIP3    H1 9201   0.790   1.609   0.039 -1.1697 -1.4535 -1.4003
 3079TIP3    H2 9202   0.692   1.723   0.058  0.0456 -0.8067  1.5737
 3080TIP3   OH2 9203   2.780   0.147   2.341 -0.4592 -0.2483  0.0655
 3080TIP3    H1 9204   2.862   0.116   2.379 -1.0127 -0.8224  0.8129
 3080TIP3    H2 9205   2.806   0.221   2.286  0.2296  1.4521  2.5178
 3081TIP3   OH2 9206   0.827   6.143   2.906 -0.2598  0.2071 -0.6270
 3081TIP3    H1 9207   0.801   6.058   2.868  2.3021  0.2840 -2.8621
 3081TIP3    H2 9208   0.746   6.193   2.908 -1.4506 -1.5527 -1.3865
 3082TIP3   OH2 9209   2.522   1.141   4.928  0.1994  0.2365  0.0088
 3082TIP3    H1 9210   2.454   1.103   4.983  1.2863 -0.4890  0.8806
 3082TIP3    H2 9211   2.510   1.236   4.937  0.4634  0.1432  1.6683
 3083TIP3   OH2 9212   5.504   5.668   1.872 -0.1048  0.1517  0.2841
 3083TIP3    H1 9213   5.499   5.578   1.905 -1.0096  0.4305  0.9628
 3083TIP3    H2 9214   5.430   5.675   1.811 -1.2327  0.9543  1.6526
 3084TIP3   OH2 9215   0.772   4.289   4.055 -0.6588 -0.2760 -0.4316
 3084TIP3    H1 9216   0.716   4.365   4.038 -1.1765 -0.1029  1.7622
 3084TIP3    H2 9217   0.860   4.324   4.061 -0.7720 -0.0088 -0.3566
 3085TIP3   OH2 9218   0.080   6.400   5.063 -0.2188 -0.0142  0.0590
 3085TIP3    H1 9219   0.166   6.362   5.079 -0.6317 -0.2078  2.1582
 3085TIP3    H2 9220   0.090   6.492   5.087 -0.2402  0.3169 -1.1432
 3086TIP3   OH2 9221   5.116   1.919   0.213 -0.5945  1.0968  0.4248
 3086TIP3    H1 9222   5.031   1.904   0.255 -0.3556 -1.8784  0.0466
 3086TIP3    H2 9223   5.179   1.873   0.268  0.6754  2.4735  0.1873
 3087TIP3   OH2 9224   6.498   3.575   0.499  0.0034 -0.2074 -0.7268
 3087TIP3    H1 9225   6.568   3.542   0.556  0.4572  0.6927 -0.7541
 3087TIP3    H2 9226   6.469   3.498   0.450 -0.7515 -1.1226  1.0605
 3088TIP3   OH2 9227   5.152   0.908   1.828  0.4357 -0.0686  0.5390
 3088TIP3    H1 9228   5.169   0.828   1.779 -0.4571  0.3038 -0.4256
 3088TIP3    H2 9229   5.215   0.971   1.793 -1.1439  0.6204 -1.2862
 3089TIP3   OH2 9230   0.593   0.439   4.697 -0.1781 -0.0359  0.4719
 3089TIP3    H1 9231   0.533   0.369   4.720  0.5824 -1.3465 -1.2329
 3089TIP3    H2 9232   0.680   0.402   4.711  0.2551  1.2221  1.2800
 3090TIP3   OH2 9233   1.598   4.785   0.280  0.7532 -0.1695 -0.3623
 3090TIP3    H1 9234   1.575   4.871   0.245 -0.3123 -0.5590 -0.6378
 3090TIP3    H2 9235   1.616   4.801   0.372 -1.3049  0.0616  0.0390
 3091TIP3   OH2 9236   2.519   4.539   1.420 -0.0762 -0.3394 -0.3344
 3091TIP3    H1 9237   2.558   4.617   1.461 -1.3569 -0.5898  1.4915
 3091TIP3    H2 9238   2.556   4.466   1.469  1.0498 -0.9319 -1.9840
 3092TIP3   OH2 9239   4.080   1.268   1.692  0.8170 -0.4912 -0.6420
 3092TIP3    H1 9240   4.052   1.314   1.771  3.9092  1.4870 -0.5363
 3092TIP3    H2 9241   4.104   1.338   1.631 -0.7919 -1.9601 -3.1695
 3093TIP3   OH2 9242   2.030   0.464   1.967 -0.0467  0.2747 -0.3365
 3093TIP3    H1 9243   1.972   0.535   1.941 -0.7385  0.6341  1.9238
 3093TIP3    H2 9244   2.112   0.482   1.922 -0.7737  1.4816 -1.2313
 3094TIP3   OH2 9245   0.508   6.560   3.592  0.0125 -0.3731  0.1057
 3094TIP3    H1 9246   0.526   6.532   3.502 -2.4897  1.7477 -1.2153
 3094TIP3    H2 9247   0.452   6.491   3.628 -0.1131 -0.5646 -0.4504
 3095TIP3   OH2 9248   6.767   5.493   2.298  0.0369 -0.3944  0.4036
 3095TIP3    H1 9249   6.849   5.524   2.258  0.4060 -1.2676  0.4656
 3095TIP3    H2 9250   6.779   5.399   2.308 -1.4694 -0.7271 -0.6982
 3096TIP3   OH2 9251   5.633   1.691   2.233 -0.3462 -0.2207  1.0324
 3096TIP3    H1 9252   5.679   1.607   2.223 -0.4074 -0.1275 -0.1519
 3096TIP3    H2 9253   5.558   1.670   2.290 -0.3230 -0.9533  0.8072
 3097TIP3   OH2 9254   5.838   4.097   5.550  0.2611  0.1694 -1.1194
 3097TIP3    H1 9255   5.815   4.111   5.458  0.0572 -0.4999 -1.1770
 3097TIP3    H2 9256   5.785   4.022   5.577  0.1629  0.4918 -0.3899
 3098TIP3   OH2 9257   1.171   3.033   0.558 -0.0510  0.1148  0.6079
 3098TIP3    H1 9258   1.108   3.080   0.612 -0.2010  0.0697  0.4731
 3098TIP3    H2 9259   1.133   2.946   0.547  0.3447 -0.1256  1.0705
 3099TIP3   OH2 9260   1.884   2.356   1.582 -0.2533 -0.3435  0.1440
 3099TIP3    H1 9261   1.949   2.327   1.517  0.0627 -0.8022  0.6580
 3099TIP3    H2 9262   1.816   2.289   1.578 -1.2310  0.6605 -1.1272
 3100TIP3   OH2 9263   4.543   6.617   1.053 -0.1179 -0.1564  0.1001
 3100TIP3    H1 9264   4.581   6.700   1.027 -0.9202  0.8775  2.0204
 3100TIP3    H2 9265   4.605   6.580   1.116  0.3432 -1.1620 -0.8996
 3101TIP3   OH2 9266   4.263   4.756   1.570 -0.3065 -0.0963  0.2224
 3101TIP3    H1 9267   4.216   4.701   1.508  1.2711 -0.8413 -0.3784
 3101TIP3    H2 9268   4.310   4.694   1.627  1.9968  0.5409 -0.8528
 3102TIP3   OH2 9269   3.932   6.385   2.496  0.2284  0.0942 -0.2618
 3102TIP3    H1 9270   3.966   6.469   2.465 -0.0212  1.1158  2.0113
 3102TIP3    H2 9271   3.840   6.385   2.471  0.5528 -0.1552 -1.5001
 3103TIP3   OH2 9272   4.453   0.392   5.125  0.0506 -0.4213 -0.7586
 3103TIP3    H1 9273   4.521   0.457   5.109  1.1806 -1.9785 -2.7644
 3103TIP3    H2 9274   4.498   0.321   5.170 -0.9981 -0.1911  0.7129
 3104TIP3   OH2 9275   4.103   2.520   2.808 -0.1804  0.0578 -0.4258
 3104TIP3    H1 9276   4.188   2.562   2.814 -0.6969  1.2290 -0.8240
 3104TIP3    H2 9277   4.105   2.472   2.725 -0.5034  1.5743 -1.3556
 3105TIP3   OH2 9278   2.922   6.296   4.743  0.7159  0.1159 -0.0854
 3105TIP3    H1 9279   2.993   6.235   4.764  1.4823  0.4057 -1.6809
 3105TIP3    H2 9280   2.855   6.277   4.808  1.3160 -1.7770  0.0598
 3106TIP3   OH2 9281   1.207   2.441   0.280  0.2223 -0.7040 -0.5384
 3106TIP3    H1 9282   1.144   2.386   0.233 -0.9966  0.9853 -0.9736
 3106TIP3    H2 9283   1.285   2.441   0.225 -0.7930  0.3397 -2.0977
 3107TIP3   OH2 9284   3.292   5.142   2.471  0.6282 -0.2423 -0.1250
 3107TIP3    H1 9285   3.291   5.067   2.410 -0.3674  0.6426 -1.2611
 3107TIP3    H2 9286   3.220   5.125   2.531 -0.8606  0.6439 -1.5491
 3108TIP3   OH2 9287   3.145   4.615   5.451 -0.5941  0.4163 -0.1303
 3108TIP3    H1 9288   3.177   4.688   5.505  0.4218  0.4900 -0.7977
 3108TIP3    H2 9289   3.141   4.541   5.512  0.1405  0.5924  0.1448
 3109TIP3   OH2 9290   6.749   5.154   0.143 -0.9834  0.1153  0.1521
 3109TIP3    H1 9291   6.792   5.190   0.220  0.1368 -0.9124  0.0479
 3109TIP3    H2 9292   6.792   5.197   0.069  0.4679 -1.4414  0.0229
 3110TIP3   OH2 9293   2.316   2.091   4.693  0.4089 -0.2565  0.3430
 3110TIP3    H1 9294   2.400   2.046   4.689  0.6702  0.2834 -0.9558
 3110TIP3    H2 9295   2.325   2.163   4.630 -0.3217  1.0381  1.6679
 3111TIP3   OH2 9296   0.674   6.723   0.194  0.1052  0.7730  0.1736
 3111TIP3    H1 9297   0.701   6.634   0.216 -3.0303 -0.6338 -1.0645
 3111TIP3    H2 9298   0.614   6.749   0.264 -0.9400  0.8548 -0.7197
 3112TIP3   OH2 9299   1.231   4.556   5.708 -0.0069  0.0559 -0.0062
 3112TIP3    H1 9300   1.271   4.642   5.717 -0.7631  0.4891 -0.5960
 3112TIP3    H2 9301   1.304   4.495   5.715  1.2559  0.9051 -3.5757
 3113TIP3   OH2 9302   5.007   3.239   5.309  0.0690  0.3481  0.0957
 3113TIP3    H1 9303   5.042   3.301   5.246 -1.2932 -0.4487 -1.5100
 3113TIP3    H2 9304   4.946   3.290   5.362  0.6790  0.8618  0.3110
 3114TIP3   OH2 9305   3.534   2.135   1.720  0.2878  0.0992  0.2545
 3114TIP3    H1 9306   3.590   2.107   1.792 -0.9937 -0.6395  0.9903
 3114TIP3    H2 9307   3.534   2.060   1.660 -0.0543  0.0285  0.3432
 3115TIP3   OH2 9308   5.910   6.364   5.260 -0.3610  0.6240  0.0760
 3115TIP3    H1 9309   5.897   6.291   5.199 -1.6105  1.4509 -0.6928
 3115TIP3    H2 9310   5.935   6.438   5.205  2.3872  0.5048  0.9790
 3116TIP3   OH2 9311   4.740   5.410   4.869 -0.2501  0.0467  0.2595
 3116TIP3    H1 9312   4.748   5.459   4.787  4.0242  0.1206  0.4826
 3116TIP3    H2 9313   4.779   5.325   4.849 -1.4586 -0.8741  1.6285
 3117TIP3   OH2 9314   1.987   0.866   1.049  0.6286 -0.3398 -0.2190
 3117TIP3    H1 9315   2.035   0.942   1.014 -1.5863  1.1958 -0.1277
 3117TIP3    H2 9316   1.946   0.898   1.129  0.4608 -1.9534  0.3661
 3118TIP3   OH2 9317   6.592   6.728   2.909  0.0256  0.1404 -0.0307
 3118TIP3    H1 9318   6.512   6.758   2.866  0.0494  0.3811  0.0870
 3118TIP3    H2 9319   6.624   6.806   2.956 -1.1134 -0.6320  2.1576
 3119TIP3   OH2 9320   1.282   2.997   3.719  0.3751  0.1084  0.1089
 3119TIP3    H1 9321   1.220   2.934   3.682  0.0150  0.4522  0.1103
 3119TIP3    H2 9322   1.257   3.002   3.812 -0.1277  0.8519 -0.0599
 3120TIP3   OH2 9323   7.178   2.774   5.228 -0.5309 -0.2524 -0.1333
 3120TIP3    H1 9324   7.201   2.724   5.307  0.3888 -0.6980 -0.6616
 3120TIP3    H2 9325   7.083   2.772   5.226 -0.6323  0.8011  1.6148
 3121TIP3   OH2 9326   2.237   2.799   4.533 -0.1595  0.0532 -0.3557
 3121TIP3    H1 9327   2.212   2.842   4.452  1.5059 -1.9269 -2.0183
 3121TIP3    H2 9328   2.196   2.713   4.529  0.0870 -0.1494  0.8590
 3122TIP3   OH2 9329   5.931   3.323   1.466 -0.1880 -0.2906  0.0371
 3122TIP3    H1 9330   5.969   3.346   1.550 -0.5399 -2.3042  0.7921
 3122TIP3    H2 9331   5.991   3.360   1.401  1.5012 -0.9099  1.1818
 3123TIP3   OH2 9332   5.978   1.623   3.299  0.3165 -0.0265  0.3242
 3123TIP3    H1 9333   5.967   1.596   3.390 -1.0163  2.7190  1.0750
 3123TIP3    H2 9334   6.042   1.694   3.302 -1.5254  1.7721 -0.4420
 3124TIP3   OH2 9335   2.260   2.004   0.478 -0.4572 -0.1706 -0.2786
 3124TIP3    H1 9336   2.178   1.955   0.487 -0.8338  0.1908 -1.5950
 3124TIP3    H2 9337   2.262   2.032   0.387 -0.0923  2.0042  0.3366
 3125TIP3   OH2 9338   0.236   2.507   0.656  0.0123 -0.3512 -0.1580
 3125TIP3    H1 9339   0.287   2.522   0.576 -0.5516 -1.1405 -0.6883
 3125TIP3    H2 9340   0.156   2.463   0.625 -1.1614  1.1512  0.6092
 3126TIP3   OH2 9341   4.802   2.680   4.575  0.4787 -0.0526  0.0358
 3126TIP3    H1 9342   4.870   2.615   4.559 -0.1565 -1.0214  1.1100
 3126TIP3    H2 9343   4.721   2.639   4.543  0.2041  0.5940 -0.1228
 3127TIP3   OH2 9344   4.178   3.408   3.615 -0.1786  0.1753 -0.2458
 3127TIP3    H1 9345   4.202   3.501   3.613 -1.2654  0.4954  0.5977
 3127TIP3    H2 9346   4.262   3.362   3.611  0.4558  1.2075  0.4895
 3128TIP3   OH2 9347   6.391   1.771   5.829 -0.6850 -0.1406 -0.4944
 3128TIP3    H1 9348   6.309   1.814   5.805 -0.6346 -0.9463 -2.2470
 3128TIP3    H2 9349   6.451   1.843   5.849 -1.5791  0.4755  0.0359
 3129TIP3   OH2 9350   3.996   1.190   1.067  0.1918  0.4106 -0.3957
 3129TIP3    H1 9351   4.027   1.279   1.049 -0.8998  0.6360 -1.3154
 3129TIP3    H2 9352   3.950   1.164   0.987 -0.3536 -0.6029  0.2260
 3130TIP3   OH2 9353   5.353   0.263   0.743  0.8046 -0.1933 -0.5597
 3130TIP3    H1 9354   5.323   0.172   0.735  1.4414 -0.2836 -2.7693
 3130TIP3    H2 9355   5.429   0.258   0.801 -0.3612 -0.7239  0.9812
 3131TIP3   OH2 9356   5.852   5.402   4.162 -0.0630  0.3280  0.1226
 3131TIP3    H1 9357   5.836   5.339   4.232 -0.6232 -0.5747 -0.7806
 3131TIP3    H2 9358   5.907   5.469   4.201  0.3932 -0.6339  1.1679
 3132TIP3   OH2 9359   2.312   0.786   1.373 -0.4475 -0.0775 -0.5350
 3132TIP3    H1 9360   2.262   0.782   1.291  1.2347 -0.8503 -1.5875
 3132TIP3    H2 9361   2.404   0.783   1.345  0.2457  1.7749  1.2730
 3133TIP3   OH2 9362   2.097   6.620   0.316 -0.3386  0.3088  0.1787
 3133TIP3    H1 9363   2.136   6.707   0.303 -0.3282 -0.0038 -2.2713
 3133TIP3    H2 9364   2.129   6.568   0.243 -2.1215 -1.1321  0.3519
 3134TIP3   OH2 9365   1.332   6.232   3.105 -0.2465 -0.0827  0.7318
 3134TIP3    H1 9366   1.346   6.158   3.045 -0.8392  0.2229  0.1999
 3134TIP3    H2 9367   1.321   6.192   3.191 -0.3376 -0.6033  0.4829
 3135TIP3   OH2 9368   6.273   0.100   3.719 -0.1135  0.0144  0.2285
 3135TIP3    H1 9369   6.333   0.174   3.732 -0.1754 -0.0362  0.7990
 3135TIP3    H2 9370   6.271   0.088   3.624 -0.7648  1.2956  0.0612
 3136TIP3   OH2 9371   2.705   3.449   0.047  0.1700  0.2662 -0.2430
 3136TIP3    H1 9372   2.663   3.402  -0.025  1.8579 -2.1124  0.2206
 3136TIP3    H2 9373   2.750   3.522   0.006  0.8092 -0.8440 -1.5722
 3137TIP3   OH2 9374   5.118   0.160   4.838  0.2302 -0.6829  0.4305
 3137TIP3    H1 9375   5.076   0.184   4.921  0.6445  1.1895  0.1407
 3137TIP3    H2 9376   5.118   0.241   4.787  2.9491 -0.9511 -0.1150
 3138TIP3   OH2 9377   2.846   2.102   4.435 -0.0016  0.2424 -0.3623
 3138TIP3    H1 9378   2.770   2.139   4.480 -0.2516  0.7929 -1.2167
 3138TIP3    H2 9379   2.856   2.155   4.356  1.8133  0.7248  0.1608
 3139TIP3   OH2 9380   4.823   6.526   4.697 -0.0582 -0.4976 -0.4557
 3139TIP3    H1 9381   4.802   6.440   4.734  0.3149 -0.0372  0.8663
 3139TIP3    H2 9382   4.799   6.518   4.605  1.5108 -2.5513 -0.7600
 3140TIP3   OH2 9383   4.470   2.911   4.799 -0.0449 -0.4765 -0.4798
 3140TIP3    H1 9384   4.502   3.000   4.807 -0.7692 -0.3579  2.0024
 3140TIP3    H2 9385   4.422   2.909   4.716  1.7217  0.8160 -1.5740
 3141TIP3   OH2 9386   6.479   4.485   5.813  0.1627  0.1294 -0.2503
 3141TIP3    H1 9387   6.460   4.416   5.876  2.2262 -1.5167 -1.3183
 3141TIP3    H2 9388   6.491   4.563   5.867 -1.7316 -0.3845  1.0269
 3142TIP3   OH2 9389   0.220   1.110   4.716  0.2286  0.1739  0.3059
 3142TIP3    H1 9390   0.304   1.115   4.670 -0.2173  0.1793 -0.5296
 3142TIP3    H2 9391   0.244   1.109   4.809  1.1205  1.0403  0.1144
 3143TIP3   OH2 9392   3.491   4.158   3.011  0.1314  0.0905 -0.5124
 3143TIP3    H1 9393   3.434   4.229   3.042 -0.6992 -0.5995 -0.4059
 3143TIP3    H2 9394   3.446   4.124   2.933  0.4295 -0.4259 -0.4652
 3144TIP3   OH2 9395   6.082   1.551   3.890  0.0249  0.2083  0.0228
 3144TIP3    H1 9396   6.050   1.549   3.980 -1.0367  0.9752 -0.3268
 3144TIP3    H2 9397   6.069   1.641   3.861 -2.5921 -0.6812 -1.9116
 3145TIP3   OH2 9398   3.425   3.643   5.687  0.3789 -0.4258 -0.5995
 3145TIP3    H1 9399   3.336   3.678   5.677 -0.8592 -2.2824  2.3948
 3145TIP3    H2 9400   3.417   3.551   5.660  0.5780 -1.3621  2.1699
 3146TIP3   OH2 9401   1.571   3.142   2.528 -0.0612 -0.6219 -0.4301
 3146TIP3    H1 9402   1.663   3.143   2.555 -0.0638  0.0501 -0.4382
 3146TIP3    H2 9403   1.572   3.099   2.443  0.5112  1.1005 -1.3308
 3147TIP3   OH2 9404   0.099   6.607   3.636 -0.2829  0.5988  0.6051
 3147TIP3    H1 9405   0.074   6.520   3.604  1.7040  0.8448 -1.9766
 3147TIP3    H2 9406   0.138   6.591   3.722  0.9698 -1.2755 -0.2387
 3148TIP3   OH2 9407   1.116   2.500   4.505 -0.3518 -0.8997 -0.5697
 3148TIP3    H1 9408   1.059   2.484   4.429 -2.0982  1.4840  0.0890
 3148TIP3    H2 9409   1.178   2.566   4.474 -2.2453  1.5191  0.4171
 3149TIP3   OH2 9410   1.220   3.888   5.864  0.5992 -0.8994 -0.6945
 3149TIP3    H1 9411   1.191   3.901   5.773  2.5655 -0.7108 -1.3385
 3149TIP3    H2 9412   1.254   3.798   5.865  0.5069 -0.9300 -0.1191
 3150TIP3   OH2 9413   5.720   2.045   2.651 -0.2647 -0.0069  0.4392
 3150TIP3    H1 9414   5.694   1.964   2.607  1.4302 -0.5347  0.3683
 3150TIP3    H2 9415   5.709   2.113   2.585  1.8350 -0.7294 -0.7252
 3151TIP3   OH2 9416   0.346   3.762   3.579  0.1872 -0.1378  0.2487
 3151TIP3    H1 9417   0.317   3.715   3.501  1.2642 -0.0268 -0.2455
 3151TIP3    H2 9418   0.375   3.693   3.639 -1.1330 -0.2548  0.7861
 3152TIP3   OH2 9419   2.214   3.871   0.746 -0.0609 -0.7110 -0.3892
 3152TIP3    H1 9420   2.191   3.789   0.789 -2.0572  0.8268  1.7315
 3152TIP3    H2 9421   2.299   3.895   0.784 -0.9255 -0.3109  1.3905
 3153TIP3   OH2 9422   4.252   0.647   0.404  0.5227  0.2798 -0.9575
 3153TIP3    H1 9423   4.185   0.588   0.371 -0.6171 -0.1363  1.8560
 3153TIP3    H2 9424   4.321   0.590   0.436 -0.4234  0.3828  1.4437
 3154TIP3   OH2 9425   4.525   0.337   3.707 -0.0151 -0.2810 -0.4041
 3154TIP3    H1 9426   4.442   0.360   3.749  1.2531 -0.4502  2.4624
 3154TIP3    H2 9427   4.529   0.242   3.712  1.3290 -0.1787  1.7543
 3155TIP3   OH2 9428   7.009   2.992   5.581  0.4448  0.0919  0.6305
 3155TIP3    H1 9429   6.934   3.024   5.631  0.6426  0.7485  0.5154
 3155TIP3    H2 9430   7.039   2.915   5.629  0.2898  0.3860  1.2067
 3156TIP3   OH2 9431   6.070   3.563   2.486 -0.5518  0.8406 -0.1095
 3156TIP3    H1 9432   6.155   3.524   2.505 -0.1761  1.4882 -0.4079
 3156TIP3    H2 9433   6.046   3.609   2.567 -2.3641 -2.2892  1.3265
 3157TIP3   OH2 9434   6.272   6.058   4.056  0.4484 -0.0168  0.1207
 3157TIP3    H1 9435   6.343   5.995   4.058 -0.3833 -0.9668  1.2064
 3157TIP3    H2 9436   6.241   6.062   4.147 -1.3047 -0.1428 -0.4412
 3158TIP3   OH2 9437   3.618   0.418   4.249 -0.2274 -0.2750 -0.4410
 3158TIP3    H1 9438   3.589   0.492   4.303  0.0244 -0.3559 -0.1907
 3158TIP3    H2 9439   3.583   0.436   4.162 -2.5347 -1.2204  0.2210
 3159TIP3   OH2 9440   4.134   6.381   2.872  0.3099  0.4996  0.5270
 3159TIP3    H1 9441   4.191   6.457   2.859 -0.3463  0.7169 -1.4195
 3159TIP3    H2 9442   4.156   6.323   2.799  0.6474 -1.1253  1.8581
 3160TIP3   OH2 9443   1.011   5.817   5.447  0.7140 -0.4534  0.1506
 3160TIP3    H1 9444   0.916   5.817   5.435  0.5293 -0.5380  1.4444
 3160TIP3    H2 9445   1.032   5.907   5.470  0.9625 -0.4252 -0.1764
 3161TIP3   OH2 9446   4.791   0.905   1.456 -0.4179  0.0777 -0.3317
 3161TIP3    H1 9447   4.720   0.855   1.497 -1.8807  2.3193 -0.0114
 3161TIP3    H2 9448   4.851   0.925   1.528 -0.1504 -0.6037 -0.3488
 3162TIP3   OH2 9449   2.044   5.442   3.213  0.1488  0.5273 -0.2739
 3162TIP3    H1 9450   2.030   5.353   3.245  0.1367  0.0609 -1.5257
 3162TIP3    H2 9451   1.991   5.447   3.133 -0.5799  1.9625  0.2564
 3163TIP3   OH2 9452   1.277   6.451   2.866 -0.1965 -0.7048  0.5581
 3163TIP3    H1 9453   1.306   6.388   2.800 -0.5556  0.7152 -1.0209
 3163TIP3    H2 9454   1.346   6.449   2.932  0.7116 -1.4110 -0.3691
 3164TIP3   OH2 9455   1.065   3.082   4.658 -0.5214 -0.6168  0.8827
 3164TIP3    H1 9456   1.044   3.175   4.671  0.2581 -0.4845  1.2357
 3164TIP3    H2 9457   1.004   3.037   4.717 -1.2156 -0.3610  0.3715
 3165TIP3   OH2 9458   0.590   3.873   1.782  0.0407 -0.2979  0.2592
 3165TIP3    H1 9459   0.679   3.840   1.795  2.0274  3.8809 -0.9553
 3165TIP3    H2 9460   0.574   3.863   1.688 -0.9246 -1.1295  0.4851
 3166TIP3   OH2 9461   3.118   5.371   5.389 -0.0876  0.3991 -0.1166
 3166TIP3    H1 9462   3.103   5.377   5.294  0.9490  3.1133 -0.2051
 3166TIP3    H2 9463   3.120   5.462   5.418 -1.7244 -0.3877  2.7911
 3167TIP3   OH2 9464   6.928   3.691   0.568 -0.3283 -0.0288 -0.2652
 3167TIP3    H1 9465   7.020   3.715   0.558 -0.5378  0.5545 -0.8890
 3167TIP3    H2 9466   6.920   3.663   0.659  0.3500  0.4602 -0.0456
 3168TIP3   OH2 9467   3.814   4.675   2.974  0.0520 -0.4368 -0.0854
 3168TIP3    H1 9468   3.837   4.583   2.961 -0.4616 -0.6021  0.1931
 3168TIP3    H2 9469   3.752   4.675   3.047 -0.8143  0.0167 -0.8059
 3169TIP3   OH2 9470   4.405   3.444   1.465  0.6261  0.1993 -0.1146
 3169TIP3    H1 9471   4.480   3.483   1.419 -0.8840  2.7064 -0.6707
 3169TIP3    H2 9472   4.362   3.389   1.400  0.4642  0.9715 -0.6772
 3170TIP3   OH2 9473   1.780   1.645   4.396 -0.4474 -0.1381 -0.9256
 3170TIP3    H1 9474   1.856   1.692   4.361 -1.5636  1.3124 -1.4972
 3170TIP3    H2 9475   1.776   1.671   4.488 -1.0208  0.9040 -1.2227
 3171TIP3   OH2 9476   4.975   6.577   0.757  0.3394  0.1451  0.1909
 3171TIP3    H1 9477   4.923   6.513   0.708  0.6288  0.2606 -0.2728
 3171TIP3    H2 9478   5.019   6.629   0.690 -0.1001  1.0123  0.5553
 3172TIP3   OH2 9479   6.700   3.167   4.732 -0.5932 -0.1067 -0.1735
 3172TIP3    H1 9480   6.631   3.220   4.692  0.0717  0.3744 -0.7018
 3172TIP3    H2 9481   6.688   3.180   4.826 -1.8841 -0.8912 -0.2071
 3173TIP3   OH2 9482   2.983   0.382   4.549  0.1708 -0.3118  0.4630
 3173TIP3    H1 9483   2.944   0.312   4.497  1.1282 -0.7048  0.2464
 3173TIP3    H2 9484   3.072   0.351   4.568  0.6451  0.8875  0.2796
 3174TIP3   OH2 9485   0.163   4.341   5.740 -0.2237 -0.0512 -0.1684
 3174TIP3    H1 9486   0.092   4.405   5.742 -0.3862 -0.2307 -0.1587
 3174TIP3    H2 9487   0.197   4.341   5.830  1.3624  1.7727 -0.7089
 3175TIP3   OH2 9488   1.607   1.606   0.551 -0.5082  0.0526  0.1935
 3175TIP3    H1 9489   1.630   1.621   0.459  0.6159 -1.7180  0.1385
 3175TIP3    H2 9490   1.626   1.689   0.594 -1.2934  0.9911 -1.2015
 3176TIP3   OH2 9491   5.379   4.021   2.428 -1.1516  0.4533  0.5896
 3176TIP3    H1 9492   5.296   4.069   2.423 -0.7049  1.4897  2.3039
 3176TIP3    H2 9493   5.403   4.006   2.336 -1.2758  3.6507 -0.0914
 3177TIP3   OH2 9494   1.329   1.341   0.962 -0.1559  1.0187  0.4776
 3177TIP3    H1 9495   1.413   1.344   0.916 -1.1584 -1.6246 -1.7467
 3177TIP3    H2 9496   1.288   1.425   0.942  0.4572  0.8844 -1.5407
 3178TIP3   OH2 9497   6.076   3.133   1.219 -0.4593  0.1265  0.3945
 3178TIP3    H1 9498   6.172   3.139   1.221 -0.3770 -1.1081  2.2857
 3178TIP3    H2 9499   6.048   3.220   1.192  1.1655  1.3294  2.2901
 3179TIP3   OH2 9500   4.869   2.654   2.070 -0.3404  0.5487  0.8991
 3179TIP3    H1 9501   4.912   2.669   1.986 -0.1549 -0.0412  0.8852
 3179TIP3    H2 9502   4.795   2.715   2.071  0.2734  1.2927  0.7605
 3180TIP3   OH2 9503   4.012   0.403   1.995  0.1458 -0.6766 -0.5537
 3180TIP3    H1 9504   3.942   0.464   2.018 -0.8604 -1.8027 -0.4964
 3180TIP3    H2 9505   4.085   0.458   1.969 -1.2745  0.5402 -2.1458
 3181TIP3   OH2 9506   6.141   0.595   5.397  0.1772 -0.5346 -0.4302
 3181TIP3    H1 9507   6.108   0.685   5.408 -1.8227 -1.3328  0.7654
 3181TIP3    H2 9508   6.126   0.575   5.305  0.4713  0.2768 -0.6693
 3182TIP3   OH2 9509   2.348   1.115   1.592  0.0946 -0.2044 -0.3909
 3182TIP3    H1 9510   2.390   1.044   1.639 -0.4722  0.3231  0.9474
 3182TIP3    H2 9511   2.264   1.078   1.562  0.2579 -0.4058 -0.6000
 3183TIP3   OH2 9512   6.079   5.291   1.086  0.1413  0.0026 -0.2602
 3183TIP3    H1 9513   6.133   5.367   1.104 -0.7380  0.6168 -0.1770
 3183TIP3    H2 9514   6.024   5.281   1.164 -1.0261  0.3997 -1.0116
 3184TIP3   OH2 9515   5.804   2.963   3.998  0.0315 -0.1671 -0.0604
 3184TIP3    H1 9516   5.889   2.984   3.959  0.7983  0.4827  1.8027
 3184TIP3    H2 9517   5.778   2.881   3.957  1.0681  0.1510 -1.4175
 3185TIP3   OH2 9518   2.842   2.606   0.753  0.0612  0.1955 -1.0294
 3185TIP3    H1 9519   2.872   2.649   0.833  0.3777 -1.5274 -0.1588
 3185TIP3    H2 9520   2.859   2.513   0.769 -0.8978 -0.2970 -2.6676
 3186TIP3   OH2 9521   5.719   5.864   4.438  0.3312 -0.0130 -0.3924
 3186TIP3    H1 9522   5.699   5.908   4.355 -0.3211  0.8069  0.1827
 3186TIP3    H2 9523   5.813   5.876   4.450  0.1342  1.4727 -0.1352
 3187TIP3   OH2 9524   2.633   2.645   4.955 -0.1573 -0.0552  0.1325
 3187TIP3    H1 9525   2.589   2.725   4.927 -0.6222  0.1133  1.2807
 3187TIP3    H2 9526   2.667   2.606   4.874 -1.2972  0.4832 -0.6253
 3188TIP3   OH2 9527   0.843   4.648   2.126  0.2340  0.0047 -0.6088
 3188TIP3    H1 9528   0.881   4.702   2.196 -0.9659  0.0194  0.0540
 3188TIP3    H2 9529   0.867   4.558   2.149 -0.3442 -0.0114 -0.0479
 3189TIP3   OH2 9530   2.600   0.781   3.994  0.0774 -0.6495 -0.0373
 3189TIP3    H1 9531   2.610   0.760   4.087  1.0954 -3.6179 -0.7114
 3189TIP3    H2 9532   2.690   0.796   3.963 -0.2462  0.2488 -0.6090
 3190TIP3   OH2 9533   4.897   6.773   4.351 -0.6633 -0.4228  0.5780
 3190TIP3    H1 9534   4.855   6.851   4.314 -1.0671  0.3696  2.6190
 3190TIP3    H2 9535   4.980   6.765   4.303  0.6117  2.7819  2.0013
 3191TIP3   OH2 9536   3.582   0.577   1.108  0.4191  0.0843  0.1249
 3191TIP3    H1 9537   3.487   0.580   1.120  0.4129 -1.2240  0.5498
 3191TIP3    H2 9538   3.615   0.649   1.161 -0.4089  1.4430 -1.1112
 3192TIP3   OH2 9539   2.787   3.614   5.897 -0.0962 -0.3229 -0.1432
 3192TIP3    H1 9540   2.732   3.671   5.950  0.1699  0.0560 -0.2686
 3192TIP3    H2 9541   2.789   3.656   5.811  0.6049 -0.1968 -0.0643
 3193TIP3   OH2 9542   2.609   6.515   2.098  0.7963  0.3231 -0.0154
 3193TIP3    H1 9543   2.682   6.564   2.134  0.7998 -0.3840  0.9932
 3193TIP3    H2 9544   2.577   6.463   2.171 -0.2838  0.1081 -0.6207
 3194TIP3   OH2 9545   6.144   4.702   4.805 -0.0962 -0.1305 -0.6596
 3194TIP3    H1 9546   6.155   4.667   4.894  0.5930 -1.8680 -1.3788
 3194TIP3    H2 9547   6.056   4.675   4.780 -0.7064  1.3001 -0.1398
 3195TIP3   OH2 9548   4.168   4.209   3.649 -0.2940 -0.4443 -0.5723
 3195TIP3    H1 9549   4.079   4.194   3.680 -0.7716  0.6829 -1.3237
 3195TIP3    H2 9550   4.196   4.290   3.691 -0.3801  0.2671 -1.8198
 3196TIP3   OH2 9551   6.680   1.351   4.424 -0.2434  0.0394 -0.5898
 3196TIP3    H1 9552   6.684   1.280   4.360 -0.2097 -0.2744 -0.2478
 3196TIP3    H2 9553   6.758   1.403   4.408 -0.6535  0.4360 -1.3409
 3197TIP3   OH2 9554   6.338   3.277   1.235 -0.1180  0.0409  0.0064
 3197TIP3    H1 9555   6.410   3.220   1.261 -0.0067  0.6153  0.9995
 3197TIP3    H2 9556   6.357   3.300   1.143  0.4528 -0.5678 -0.0321
 3198TIP3   OH2 9557   1.280   6.390   0.402 -0.4067 -0.5344 -0.2039
 3198TIP3    H1 9558   1.319   6.359   0.320  2.8425  0.1231  0.9304
 3198TIP3    H2 9559   1.258   6.481   0.386  0.2386 -0.4028 -0.3804
 3199TIP3   OH2 9560   5.496   0.473   0.612 -0.3187  0.1189  0.2949
 3199TIP3    H1 9561   5.547   0.392   0.602  0.5063  0.7990 -1.4226
 3199TIP3    H2 9562   5.419   0.446   0.662 -1.0577 -2.2147 -1.8467
 3200TIP3   OH2 9563   5.596   1.646   2.776  0.2586  0.0555 -0.1789
 3200TIP3    H1 9564   5.511   1.660   2.817  0.2451 -0.5346  0.0060
 3200TIP3    H2 9565   5.630   1.567   2.818  0.7590  0.1057 -0.4792
 3201TIP3   OH2 9566   1.551   6.014   1.401  0.1498 -0.3645  0.6117
 3201TIP3    H1 9567   1.481   5.987   1.342  0.6470 -1.0944  0.3350
 3201TIP3    H2 9568   1.570   6.104   1.377  1.6560 -1.2170 -1.6977
 3202TIP3   OH2 9569   0.822   2.760   0.170  0.2800  0.0467  0.1341
 3202TIP3    H1 9570   0.855   2.846   0.144  0.1691  0.1630  0.3704
 3202TIP3    H2 9571   0.875   2.697   0.121 -0.1032  0.2674 -0.5867
 3203TIP3   OH2 9572   2.546   5.257   4.812 -0.7252  0.0360  0.3602
 3203TIP3    H1 9573   2.579   5.214   4.733  0.1742  0.7813  0.3094
 3203TIP3    H2 9574   2.534   5.348   4.785 -0.9299  0.1795  0.9386
 3204TIP3   OH2 9575   4.063   6.044   0.133  0.2303  0.1583  0.5411
 3204TIP3    H1 9576   4.012   5.979   0.085  0.6101  0.5806 -0.4568
 3204TIP3    H2 9577   4.137   5.993   0.169  0.9890  0.1558 -0.9413
 3205TIP3   OH2 9578   4.458   5.851   5.530 -0.5890 -0.3818 -0.1324
 3205TIP3    H1 9579   4.441   5.945   5.544  0.1864  0.1855 -2.5623
 3205TIP3    H2 9580   4.544   5.837   5.570 -1.2395 -0.3955  1.3399
 3206TIP3   OH2 9581   3.045   1.800   3.354 -0.1796  0.1301 -0.2732
 3206TIP3    H1 9582   3.106   1.775   3.285 -0.2744 -1.9645  0.3568
 3206TIP3    H2 9583   2.964   1.822   3.307  0.2673  0.4408 -0.9207
 3207TIP3   OH2 9584   7.086   2.695   1.269 -0.2778  0.4159 -0.0204
 3207TIP3    H1 9585   7.027   2.709   1.343 -1.6472  0.4747 -1.0830
 3207TIP3    H2 9586   7.128   2.780   1.256 -1.1400  0.8291 -0.2155
 3208TIP3   OH2 9587   5.813   0.549   5.049  0.5379  0.0576 -0.1069
 3208TIP3    H1 9588   5.721   0.548   5.074  0.3350 -0.8365 -0.8343
 3208TIP3    H2 9589   5.818   0.612   4.977  0.3678 -0.3903 -0.5128
 3209TIP3   OH2 9590   6.250   3.594   5.632 -0.1461 -0.0462  0.1160
 3209TIP3    H1 9591   6.306   3.520   5.608  2.4022  1.8225 -0.0787
 3209TIP3    H2 9592   6.216   3.627   5.549 -1.1512 -0.8417  0.1902
 3210TIP3   OH2 9593   2.649   4.484   1.677  0.1508 -0.1440 -0.0539
 3210TIP3    H1 9594   2.688   4.501   1.763 -1.0258  0.4144  0.4035
 3210TIP3    H2 9595   2.663   4.391   1.661  0.5395 -0.2146  0.6721
 3211TIP3   OH2 9596   3.248   2.035   4.083  0.5370 -0.1544 -0.0320
 3211TIP3    H1 9597   3.302   2.114   4.089  2.3155 -1.3267  0.1448
 3211TIP3    H2 9598   3.244   2.015   3.990 -0.1696  0.2793 -0.1062
 3212TIP3   OH2 9599   3.648   4.369   2.760  0.2754 -0.0428 -0.5035
 3212TIP3    H1 9600   3.723   4.311   2.748  1.5990  1.0070  1.7709
 3212TIP3    H2 9601   3.654   4.432   2.688  1.2210 -0.3542 -0.7075
 3213TIP3   OH2 9602   3.833   5.801   4.545 -0.5827 -0.1698  0.3099
 3213TIP3    H1 9603   3.922   5.790   4.511 -0.1344  0.4594  1.2393
 3213TIP3    H2 9604   3.777   5.766   4.476  0.4037 -1.0800 -0.0621
 3214TIP3   OH2 9605   6.394   1.311   5.730  0.1861  0.5221  0.1441
 3214TIP3    H1 9606   6.462   1.316   5.663  3.1612  2.8394  2.9850
 3214TIP3    H2 9607   6.336   1.385   5.710 -0.4053 -0.2590 -1.1583
 3215TIP3   OH2 9608   0.807   1.460   0.870  0.3401 -0.4627 -0.6135
 3215TIP3    H1 9609   0.747   1.483   0.941  0.8482  1.2008 -0.6663
 3215TIP3    H2 9610   0.891   1.498   0.897  1.3004 -2.3562 -0.7445
 3216TIP3   OH2 9611   3.240   0.799   3.556  0.2634 -0.4096  0.1225
 3216TIP3    H1 9612   3.323   0.756   3.539  0.3654 -0.0470 -0.2958
 3216TIP3    H2 9613   3.248   0.832   3.646  0.0795 -1.4865  0.5589
 3217TIP3   OH2 9614   2.410   6.028   1.095  0.3576 -0.2937 -0.2896
 3217TIP3    H1 9615   2.379   5.956   1.149 -2.8500  1.9751  1.2588
 3217TIP3    H2 9616   2.367   6.016   1.011  1.1221 -1.0011 -0.5908
 3218TIP3   OH2 9617   2.884   4.547   4.881 -0.1366 -0.1380 -0.3381
 3218TIP3    H1 9618   2.917   4.487   4.948 -0.2452  0.0932 -0.0759
 3218TIP3    H2 9619   2.962   4.574   4.832  0.1795  0.9704  0.7308
 3219TIP3   OH2 9620   4.287   3.865   2.324  0.2673 -0.1818  0.5383
 3219TIP3    H1 9621   4.232   3.931   2.366  1.4971 -0.3887  2.6390
 3219TIP3    H2 9622   4.376   3.887   2.352  1.0928 -0.8787 -1.3438
 3220TIP3   OH2 9623   6.288   3.587   0.715  0.2682 -0.0780  0.2743
 3220TIP3    H1 9624   6.343   3.557   0.643 -0.8929 -0.6012 -0.4361
 3220TIP3    H2 9625   6.339   3.657   0.757  1.3842 -0.4349 -0.4363
 3221TIP3   OH2 9626   5.791   0.933   1.778 -0.3486 -0.5159 -0.4057
 3221TIP3    H1 9627   5.733   1.003   1.807 -0.2354 -1.0806  1.3043
 3221TIP3    H2 9628   5.856   0.924   1.848 -0.3949 -2.3527 -0.5383
 3222TIP3   OH2 9629   3.480   5.835   2.949 -0.0362 -0.4239 -0.5201
 3222TIP3    H1 9630   3.397   5.883   2.956  0.7060  0.6859  1.7385
 3222TIP3    H2 9631   3.544   5.902   2.925  0.5869 -0.7542  0.1786
 3223TIP3   OH2 9632   3.368   4.001   2.813 -0.0400  0.0039 -0.1112
 3223TIP3    H1 9633   3.277   4.023   2.790 -0.6612 -1.2237  1.0392
 3223TIP3    H2 9634   3.361   3.954   2.896  1.7039  0.2328  0.2051
 3224TIP3   OH2 9635   5.345   5.138   2.251 -0.4302  0.3160 -0.3562
 3224TIP3    H1 9636   5.406   5.143   2.177 -0.7221 -0.5589 -0.6694
 3224TIP3    H2 9637   5.267   5.097   2.214 -0.0845 -1.4435  0.7300
 3225TIP3   OH2 9638   3.086   4.498   5.706  0.2236  0.1344  0.2098
 3225TIP3    H1 9639   3.017   4.522   5.768  0.3914 -0.7364  0.7525
 3225TIP3    H2 9640   3.166   4.497   5.759  0.3984 -0.4238 -0.0544
 3226TIP3   OH2 9641   3.433   5.541   3.892 -0.0844  0.3529 -0.1427
 3226TIP3    H1 9642   3.432   5.538   3.797  2.1590  2.1366 -0.3248
 3226TIP3    H2 9643   3.502   5.605   3.913  0.6026 -1.1450  2.6786
 3227TIP3   OH2 9644   4.287   4.942   1.262 -0.4454 -0.2491 -0.1122
 3227TIP3    H1 9645   4.375   4.980   1.261  0.4771 -2.2626 -1.5728
 3227TIP3    H2 9646   4.290   4.877   1.332 -1.3428  0.7752  0.9340
 3228TIP3   OH2 9647   0.054   4.489   0.648  0.5208  0.4989 -0.1180
 3228TIP3    H1 9648   0.074   4.558   0.711  0.4291 -0.5312  1.0864
 3228TIP3    H2 9649  -0.038   4.503   0.624 -0.9801 -1.6450  3.4928
 3229TIP3   OH2 9650   0.044   1.593   2.587 -0.1682  0.2640  0.2448
 3229TIP3    H1 9651   0.050   1.530   2.659 -2.1748  0.9756  1.0897
 3229TIP3    H2 9652   0.095   1.553   2.517 -1.1576 -2.2180  0.8295
 3230TIP3   OH2 9653   4.714   0.779   4.221 -0.1761  0.1143 -0.0280
 3230TIP3    H1 9654   4.665   0.840   4.276 -1.5083  0.0658 -1.1155
 3230TIP3    H2 9655   4.733   0.828   4.141  1.1621 -0.0310  0.1760
 3231TIP3   OH2 9656   5.277   5.862   0.173  0.2598 -0.2888 -0.1962
 3231TIP3    H1 9657   5.357   5.815   0.151  0.9242 -0.0764  1.6553
 3231TIP3    H2 9658   5.239   5.814   0.246  0.4550  1.4341  1.1125
 3232TIP3   OH2 9659   2.644   1.825   0.927  0.7349 -0.0454 -0.0637
 3232TIP3    H1 9660   2.577   1.879   0.885  0.1209  0.2183  1.2353
 3232TIP3    H2 9661   2.726   1.853   0.886  0.1489  0.1095 -1.1736
 3233TIP3   OH2 9662   6.635   6.065   0.359  0.3647 -0.1299  0.2866
 3233TIP3    H1 9663   6.578   6.012   0.304  0.1980  0.8759 -0.5532
 3233TIP3    H2 9664   6.575   6.114   0.416  0.5717 -2.0571  2.2893
 3234TIP3   OH2 9665   3.241   3.353   0.915  0.3696 -0.2035  0.5643
 3234TIP3    H1 9666   3.190   3.384   0.840  1.4523  0.5912  0.1329
 3234TIP3    H2 9667   3.176   3.316   0.975 -0.5797 -0.2739 -0.4769
 3235TIP3   OH2 9668   5.283   4.401   0.669 -0.4402 -0.0759 -0.3354
 3235TIP3    H1 9669   5.296   4.307   0.659  1.8063  0.0848  0.5613
 3235TIP3    H2 9670   5.277   4.415   0.763 -0.2694  0.7329 -0.4367
 3236TIP3   OH2 9671   5.889   3.095   3.661 -0.0811 -0.2336  0.0629
 3236TIP3    H1 9672   5.809   3.132   3.623 -0.0923  2.2058  2.1482
 3236TIP3    H2 9673   5.944   3.172   3.679  1.7529 -1.6535  0.8259
 3237TIP3   OH2 9674   0.159   3.627   5.613 -0.2659 -0.1413  0.6581
 3237TIP3    H1 9675   0.190   3.704   5.564  0.9291  0.5523  2.4114
 3237TIP3    H2 9676   0.195   3.552   5.565  0.1066  0.4622 -0.0316
 3238TIP3   OH2 9677   5.262   1.242   2.306  0.3122 -0.3278  0.0558
 3238TIP3    H1 9678   5.336   1.241   2.366 -0.1304  0.2046  0.6237
 3238TIP3    H2 9679   5.267   1.159   2.259  0.1813 -1.1320  1.4197
 3239TIP3   OH2 9680   0.372   6.146   2.075  0.0050  0.3589  0.1946
 3239TIP3    H1 9681   0.363   6.055   2.102  1.5710  0.3167  0.6668
 3239TIP3    H2 9682   0.320   6.152   1.994 -0.5146 -0.8165  0.4160
 3240TIP3   OH2 9683   0.522   6.640   1.409  0.0580  0.3928  0.2178
 3240TIP3    H1 9684   0.569   6.724   1.409  1.3011 -0.2835  0.3548
 3240TIP3    H2 9685   0.549   6.597   1.490 -1.8139  0.5027  0.9517
 3241TIP3   OH2 9686   3.646   5.709   4.374 -0.6729  0.7101 -0.2597
 3241TIP3    H1 9687   3.673   5.638   4.316 -0.3437  0.9368 -0.3922
 3241TIP3    H2 9688   3.552   5.716   4.362 -0.6220  0.6828 -0.6937
 3242TIP3   OH2 9689   5.477   1.049   2.010 -0.3815  0.1318 -0.3491
 3242TIP3    H1 9690   5.538   1.085   1.946 -0.8810  0.2970 -0.7409
 3242TIP3    H2 9691   5.396   1.099   1.997 -0.3689  0.4328  0.6825
 3243TIP3   OH2 9692   5.483   3.802   0.089  0.1712 -0.5483 -0.0363
 3243TIP3    H1 9693   5.520   3.802   0.177 -1.4848 -0.1673  0.6966
 3243TIP3    H2 9694   5.440   3.717   0.080  2.4733 -1.6701 -1.4929
 3244TIP3   OH2 9695   2.710   0.523   2.060 -0.5895 -0.4945 -0.2163
 3244TIP3    H1 9696   2.639   0.577   2.096  1.4927  1.2622  1.5225
 3244TIP3    H2 9697   2.774   0.587   2.028  1.1266 -1.9641  0.1214
 3245TIP3   OH2 9698   3.405   1.580   4.706  0.5095 -0.1566 -0.3367
 3245TIP3    H1 9699   3.409   1.600   4.612  1.1538 -0.2742 -0.3439
 3245TIP3    H2 9700   3.328   1.525   4.716  0.2840  0.0748 -0.7558
 3246TIP3   OH2 9701   3.704   6.051   3.799  0.0280  0.1877 -0.2179
 3246TIP3    H1 9702   3.759   6.037   3.876 -0.6801 -1.7668 -0.0084
 3246TIP3    H2 9703   3.757   6.106   3.741  0.5130  1.8748  1.6818
 3247TIP3   OH2 9704   5.533   0.288   1.903 -0.3257 -0.2158 -0.2146
 3247TIP3    H1 9705   5.581   0.251   1.977 -0.7330  1.1274  0.7764
 3247TIP3    H2 9706   5.558   0.380   1.902 -2.3205  0.3770 -0.0753
 3248TIP3   OH2 9707   1.765   3.085   4.882 -0.4156  0.2840  0.3383
 3248TIP3    H1 9708   1.701   3.155   4.876 -1.6726 -0.7940  0.7092
 3248TIP3    H2 9709   1.714   3.004   4.875  1.1212 -0.6229 -1.4445
 3249TIP3   OH2 9710   1.569   0.602   2.468  0.3478  0.0157 -0.2484
 3249TIP3    H1 9711   1.503   0.563   2.411  1.0758 -1.8145  0.0920
 3249TIP3    H2 9712   1.529   0.602   2.555  0.2530  0.2783 -0.2912
 3250TIP3   OH2 9713   4.696   0.036   0.320 -0.1573 -0.5755 -0.4563
 3250TIP3    H1 9714   4.744   0.118   0.324  0.2175 -0.7942 -0.4286
 3250TIP3    H2 9715   4.747  -0.019   0.261  0.3967 -1.3066  0.6729
 3251TIP3   OH2 9716   1.474   4.050   2.454 -0.7574 -0.4755  0.7157
 3251TIP3    H1 9717   1.411   4.061   2.382  0.1855 -0.2688 -0.1016
 3251TIP3    H2 9718   1.540   3.990   2.418  1.0305  1.5136  0.4991
 3252TIP3   OH2 9719   2.431   0.333   4.569  0.4914  0.3333  0.1450
 3252TIP3    H1 9720   2.357   0.359   4.515  0.4504  0.2720  0.1725
 3252TIP3    H2 9721   2.410   0.365   4.657  0.7072  0.7261  0.0589
 3253TIP3   OH2 9722   5.123   3.820   1.453  0.1923 -0.3695 -0.4083
 3253TIP3    H1 9723   5.139   3.813   1.359  0.3011  0.1448 -0.4297
 3253TIP3    H2 9724   5.104   3.731   1.480 -0.7226 -0.3988 -1.0831
 3254TIP3   OH2 9725   5.251   4.414   4.514 -0.2321  0.0831 -0.1459
 3254TIP3    H1 9726   5.263   4.391   4.422  0.9463  0.8663 -0.2042
 3254TIP3    H2 9727   5.221   4.505   4.512  0.7080  0.4057  0.2765
 3255TIP3   OH2 9728   1.816   4.635   1.538 -0.0811  0.0434  0.3247
 3255TIP3    H1 9729   1.895   4.631   1.484 -0.0596 -0.2811  0.3785
 3255TIP3    H2 9730   1.780   4.546   1.535 -1.6243  0.6879 -1.4489
 3256TIP3   OH2 9731   5.991   3.944   3.757  0.3580 -0.2277  0.4423
 3256TIP3    H1 9732   6.026   3.856   3.742  1.6315 -0.2164  2.7847
 3256TIP3    H2 9733   6.064   4.002   3.736  0.0821  0.1515  0.5331
 3257TIP3   OH2 9734   0.627   2.617   2.241  0.0195 -0.4897 -0.0618
 3257TIP3    H1 9735   0.720   2.634   2.226  0.2259 -1.2677  0.3047
 3257TIP3    H2 9736   0.582   2.676   2.180  0.7624 -0.6594 -0.7898
 3258TIP3   OH2 9737   3.023   5.563   2.023 -0.0944 -0.9957  0.1221
 3258TIP3    H1 9738   2.944   5.569   1.969  0.2551  2.0906 -0.2145
 3258TIP3    H2 9739   3.094   5.589   1.965  0.7717 -0.9300  1.1721
 3259TIP3   OH2 9740   0.913   5.698   3.350 -0.4877 -0.8909 -0.1209
 3259TIP3    H1 9741   0.879   5.763   3.288 -0.3754 -0.6952  0.0205
 3259TIP3    H2 9742   0.891   5.613   3.311  0.3507 -0.7817 -0.8616
 3260TIP3   OH2 9743   6.256   1.071   3.061 -0.0395  0.2300  0.7639
 3260TIP3    H1 9744   6.348   1.095   3.055  0.2283 -0.9175 -0.1340
 3260TIP3    H2 9745   6.219   1.099   2.976 -0.1989 -0.5517  0.5717
 3261TIP3   OH2 9746   5.192   3.887   5.669  0.2063  0.1058  0.3897
 3261TIP3    H1 9747   5.261   3.833   5.632  0.3067 -0.7153  1.6943
 3261TIP3    H2 9748   5.160   3.836   5.744  0.0912  1.7127  1.4815
 3262TIP3   OH2 9749   6.804   4.725   0.225 -0.3421 -0.3331  0.0151
 3262TIP3    H1 9750   6.741   4.794   0.204 -1.3882 -0.4466  2.4518
 3262TIP3    H2 9751   6.889   4.768   0.220 -0.7131  0.2782 -1.5890
 3263TIP3   OH2 9752   5.681   4.916   4.414 -0.8317 -0.9487 -0.7275
 3263TIP3    H1 9753   5.754   4.958   4.369 -0.5577 -0.1657  0.3942
 3263TIP3    H2 9754   5.709   4.912   4.506 -1.4984 -2.2044 -0.5519
 3264TIP3   OH2 9755   6.904   5.770   2.961  0.6376 -0.0321  0.2769
 3264TIP3    H1 9756   6.912   5.674   2.967 -1.4407 -0.1851  2.0380
 3264TIP3    H2 9757   6.816   5.784   2.926  0.3825  1.2013  1.3463
 3265TIP3   OH2 9758   3.694   3.133   3.735 -0.3001  0.5655 -0.4915
 3265TIP3    H1 9759   3.759   3.112   3.803 -0.6000 -1.8752 -0.8706
 3265TIP3    H2 9760   3.727   3.089   3.657 -2.5505 -1.0778 -0.5986
 3266TIP3   OH2 9761   3.012   3.126   5.645 -0.4018  0.3858  0.2627
 3266TIP3    H1 9762   2.954   3.056   5.674 -0.2028  0.0216 -0.2124
 3266TIP3    H2 9763   3.087   3.081   5.608  0.9311  0.8185  2.2464
 3267TIP3   OH2 9764   6.339   4.254   0.311 -0.4028  0.2025 -0.0780
 3267TIP3    H1 9765   6.369   4.324   0.369  1.3410 -0.4259 -0.1668
 3267TIP3    H2 9766   6.392   4.178   0.335 -2.3835 -1.2003  0.1669
 3268TIP3   OH2 9767   5.409   6.573   4.979  0.1240 -0.0760 -0.2129
 3268TIP3    H1 9768   5.399   6.517   4.903 -0.8848  0.4966 -0.5250
 3268TIP3    H2 9769   5.401   6.662   4.945 -0.0108  0.2004  0.5114
 3269TIP3   OH2 9770   4.948   2.508   5.557 -0.3810  0.0814 -0.3460
 3269TIP3    H1 9771   4.942   2.580   5.494 -1.1380 -0.6991 -1.1939
 3269TIP3    H2 9772   5.041   2.490   5.564 -0.3343 -0.5931 -2.1863
 3270TIP3   OH2 9773   3.086   5.893   3.254 -0.2486  0.4204  0.4684
 3270TIP3    H1 9774   3.130   5.814   3.224  1.7176  0.9114  1.8493
 3270TIP3    H2 9775   3.156   5.948   3.289 -1.7115  2.2521  0.6955
 3271TIP3   OH2 9776   3.302   1.477   5.601  0.2523 -0.0803 -0.1324
 3271TIP3    H1 9777   3.313   1.387   5.632  0.1125  0.2285  0.8491
 3271TIP3    H2 9778   3.386   1.498   5.558  0.3311 -0.6289 -0.2493
 3272TIP3   OH2 9779   4.886   1.993   5.318 -0.1062  0.1985 -0.0033
 3272TIP3    H1 9780   4.921   1.920   5.266 -0.4808  0.4766 -0.6527
 3272TIP3    H2 9781   4.818   1.953   5.372  0.4562 -0.1385  0.4833
 3273TIP3   OH2 9782   6.450   2.231   3.518  0.0101  0.3209 -0.4577
 3273TIP3    H1 9783   6.541   2.242   3.547  0.0326  1.7681 -1.0038
 3273TIP3    H2 9784   6.411   2.173   3.584  0.5090  2.1418  1.5409
 3274TIP3   OH2 9785   0.991   4.978   3.205  0.5654  0.1072  0.2386
 3274TIP3    H1 9786   0.938   5.051   3.239  0.7111  0.6544 -0.6837
 3274TIP3    H2 9787   0.935   4.935   3.140  0.2186 -1.0540  1.2597
 3275TIP3   OH2 9788   2.552   0.367   4.002  0.2990  0.2345 -0.2302
 3275TIP3    H1 9789   2.508   0.301   4.055 -2.7655  0.0808 -2.7034
 3275TIP3    H2 9790   2.558   0.328   3.915  1.6602  1.9157 -0.9595
 3276TIP3   OH2 9791   3.470   5.474   2.117  0.5722  0.1191  0.4927
 3276TIP3    H1 9792   3.504   5.432   2.196  1.5719 -0.8519 -0.4297
 3276TIP3    H2 9793   3.381   5.440   2.108 -0.0923  1.2998  1.9214
 3277TIP3   OH2 9794   1.556   2.908   1.939 -0.3221 -0.0544  0.1072
 3277TIP3    H1 9795   1.490   2.856   1.985 -0.8355  0.2432 -0.2931
 3277TIP3    H2 9796   1.514   2.935   1.858  0.5129 -0.4099 -0.4583
 3278TIP3   OH2 9797   3.294   4.987   5.350  0.3937 -0.0598 -0.2758
 3278TIP3    H1 9798   3.327   5.076   5.363 -0.7470  0.1529  1.3498
 3278TIP3    H2 9799   3.202   4.998   5.329  0.3796 -0.8484 -0.6690
 3279TIP3   OH2 9800   0.604   0.696   1.788 -0.2678 -0.1244 -0.2296
 3279TIP3    H1 9801   0.634   0.688   1.697  1.3942  2.3059  0.0302
 3279TIP3    H2 9802   0.644   0.776   1.820 -1.1595 -0.6852  2.5658
 3280TIP3   OH2 9803   2.603   4.438   0.553  0.4229 -0.3071  0.3511
 3280TIP3    H1 9804   2.550   4.455   0.476  1.1015 -0.0487 -0.0682
 3280TIP3    H2 9805   2.665   4.371   0.525 -1.2338 -2.4585  1.5435
 3281TIP3   OH2 9806   4.330   5.799   1.913  0.7731  0.8267  0.7131
 3281TIP3    H1 9807   4.266   5.793   1.983 -0.0530  1.2745  0.0258
 3281TIP3    H2 9808   4.319   5.718   1.863 -0.1748  1.4646 -0.1453
 3282TIP3   OH2 9809   5.053   2.202   0.102  0.5512  0.3254  0.0053
 3282TIP3    H1 9810   5.037   2.143   0.028  0.6400 -1.1816  1.1527
 3282TIP3    H2 9811   5.142   2.235   0.088  0.8063 -0.4464 -0.2293
 3283TIP3   OH2 9812   0.306   1.135   4.962  0.4821 -0.1634  0.1580
 3283TIP3    H1 9813   0.235   1.078   4.991  0.3693  0.1031  0.4105
 3283TIP3    H2 9814   0.320   1.195   5.035  0.8246 -0.0787  0.0256
 3284TIP3   OH2 9815   5.367   3.452   2.063 -0.2592 -0.0352  0.0789
 3284TIP3    H1 9816   5.342   3.360   2.073 -2.4914  0.6706  1.8130
 3284TIP3    H2 9817   5.402   3.477   2.149  1.7298  0.4326 -0.7935
 3285TIP3   OH2 9818   3.814   3.985   4.784  0.0978 -0.1534  0.0499
 3285TIP3    H1 9819   3.762   3.931   4.843  0.0487 -0.0395  0.1117
 3285TIP3    H2 9820   3.749   4.025   4.725  0.1021  0.0821  0.2027
 3286TIP3   OH2 9821   3.705   6.335   0.865 -0.0163  0.4630 -0.6043
 3286TIP3    H1 9822   3.653   6.287   0.929 -0.5297 -0.4059 -1.6338
 3286TIP3    H2 9823   3.726   6.418   0.907  1.8040 -1.0288  1.6932
 3287TIP3   OH2 9824   0.593   5.168   2.790 -0.3853 -0.4041  0.1397
 3287TIP3    H1 9825   0.569   5.225   2.716 -0.0472  1.4924  1.4077
 3287TIP3    H2 9826   0.635   5.092   2.749  1.2158  1.2887 -1.5752
 3288TIP3   OH2 9827   4.052   1.919   4.023  0.0251 -0.0422  0.2334
 3288TIP3    H1 9828   3.978   1.929   3.963 -0.3529 -0.2385  0.6641
 3288TIP3    H2 9829   4.105   1.997   4.008  0.3640 -0.4852 -0.9426
 3289TIP3   OH2 9830   2.619   6.306   3.509 -0.3475 -0.6722  0.3012
 3289TIP3    H1 9831   2.602   6.331   3.419  0.8413 -0.8226  0.0226
 3289TIP3    H2 9832   2.570   6.224   3.521 -0.5858 -0.6027 -0.1811
 3290TIP3   OH2 9833   5.142   4.978   2.607  0.1629  0.4439  0.4359
 3290TIP3    H1 9834   5.221   5.022   2.640  0.6017  1.5688 -1.9001
 3290TIP3    H2 9835   5.089   5.049   2.570 -0.3889 -0.6739 -1.0107
 3291TIP3   OH2 9836   3.086   6.235   3.213 -0.0101  0.2418 -0.7241
 3291TIP3    H1 9837   3.002   6.259   3.176 -0.7495 -3.0345 -1.5000
 3291TIP3    H2 9838   3.078   6.142   3.233  2.3571  0.5106  2.2682
 3292TIP3   OH2 9839   0.205   0.499   2.716 -0.1300 -0.4034  0.1850
 3292TIP3    H1 9840   0.187   0.547   2.797  0.7688  2.2185 -1.0558
 3292TIP3    H2 9841   0.297   0.517   2.697 -1.0458  1.9429 -3.0525
 3293TIP3   OH2 9842   0.923   2.958   4.855  0.3286 -0.0589 -0.1006
 3293TIP3    H1 9843   0.869   2.983   4.930 -1.0194  1.1306 -1.4027
 3293TIP3    H2 9844   0.880   2.879   4.821  1.1941 -0.8517  0.6123
 3294TIP3   OH2 9845   6.548   6.591   0.337  0.2504 -0.3256  0.0350
 3294TIP3    H1 9846   6.633   6.628   0.312 -0.9411  2.9199  0.2847
 3294TIP3    H2 9847   6.551   6.586   0.433 -0.2715  1.1576  0.1566
 3295TIP3   OH2 9848   1.903   6.273   4.165  0.0565  0.0516  0.9112
 3295TIP3    H1 9849   1.907   6.241   4.255  1.3991 -0.7944  0.5711
 3295TIP3    H2 9850   1.889   6.195   4.112 -1.8973  0.6788  0.4391
 3296TIP3   OH2 9851   1.313   1.673   2.022 -0.1176 -0.3258 -0.4847
 3296TIP3    H1 9852   1.342   1.764   2.026 -1.6457  0.1784 -0.2781
 3296TIP3    H2 9853   1.369   1.633   1.956  0.0399  0.9624 -1.1644
 3297TIP3   OH2 9854   4.136   2.424   1.958 -0.0529 -0.0156  0.4103
 3297TIP3    H1 9855   4.209   2.372   1.991 -0.2261  0.4724  1.6123
 3297TIP3    H2 9856   4.168   2.461   1.876  2.0484  2.3035  2.1603
 3298TIP3   OH2 9857   2.781   3.917   5.383  0.0894 -0.0607  0.2533
 3298TIP3    H1 9858   2.851   3.851   5.377  0.8555  0.8204 -1.2930
 3298TIP3    H2 9859   2.827   4.001   5.385 -0.9042  0.4949  0.5929
 3299TIP3   OH2 9860   6.259   0.350   4.723  0.3475 -0.4996 -0.4057
 3299TIP3    H1 9861   6.279   0.436   4.685 -1.5512 -0.5479 -1.6344
 3299TIP3    H2 9862   6.281   0.360   4.816  0.4695  1.2085 -0.5863
 3300TIP3   OH2 9863   1.885   2.194   5.683  0.1238 -0.2962 -0.5234
 3300TIP3    H1 9864   1.936   2.269   5.713 -0.1951  0.1669 -1.1015
 3300TIP3    H2 9865   1.949   2.137   5.640  0.4954 -0.7266  0.5641
 3301TIP3   OH2 9866   5.941   6.377   5.533  0.6547 -0.1599 -0.5185
 3301TIP3    H1 9867   5.891   6.395   5.453  1.9668 -0.6107 -1.4864
 3301TIP3    H2 9868   5.965   6.284   5.525 -1.8218 -1.1323  1.9547
 3302TIP3   OH2 9869   6.914   1.495   1.015  0.2465  0.6194 -0.0339
 3302TIP3    H1 9870   6.847   1.427   1.016  0.0981  0.7591 -0.4311
 3302TIP3    H2 9871   6.902   1.541   1.098 -0.4203  0.9030 -0.2811
 3303TIP3   OH2 9872   4.600   5.680   4.955  0.1478  0.4934 -0.0489
 3303TIP3    H1 9873   4.693   5.665   4.935  0.4072  0.6221  0.9800
 3303TIP3    H2 9874   4.580   5.764   4.913  0.4699  0.4194 -0.3551
 3304TIP3   OH2 9875   1.455   2.967   4.749  0.5337  0.0925 -0.4282
 3304TIP3    H1 9876   1.498   2.966   4.834 -0.7124  0.8781  0.2434
 3304TIP3    H2 9877   1.406   2.885   4.746 -3.0456  1.9194  1.6403
 3305TIP3   OH2 9878   2.500   5.445   2.914  0.4017  0.3247 -0.0448
 3305TIP3    H1 9879   2.458   5.469   2.832 -0.1731  0.1729  0.2022
 3305TIP3    H2 9880   2.428   5.440   2.978  0.6336 -0.9851  0.1504
 3306TIP3   OH2 9881   5.225   4.947   3.877  0.4749  0.0512 -0.7974
 3306TIP3    H1 9882   5.161   5.013   3.853 -1.5707 -1.5509 -0.0843
 3306TIP3    H2 9883   5.302   4.996   3.905 -0.8637  2.0886 -0.5291
 3307TIP3   OH2 9884   2.326   1.689   1.713  0.0668 -0.3193  0.2145
 3307TIP3    H1 9885   2.241   1.733   1.704  0.8506  1.0723 -0.7441
 3307TIP3    H2 9886   2.331   1.630   1.638  0.3595  0.3575 -0.3095
 3308TIP3   OH2 9887   3.618   2.792   3.062 -0.6706  0.4912  0.0808
 3308TIP3    H1 9888   3.534   2.768   3.102 -1.1330  1.3352 -0.3334
 3308TIP3    H2 9889   3.620   2.744   2.980 -0.9326  0.7675 -0.0891
 3309TIP3   OH2 9890   0.856   3.496   4.502  0.3926  0.3594 -0.5117
 3309TIP3    H1 9891   0.863   3.461   4.413 -0.9360 -0.3199 -0.3850
 3309TIP3    H2 9892   0.850   3.591   4.489 -2.2009  0.1690 -1.4020
 3310TIP3   OH2 9893   0.885   0.765   0.179 -0.4410 -0.2425 -0.4352
 3310TIP3    H1 9894   0.909   0.682   0.138  0.4909 -0.4420  0.4474
 3310TIP3    H2 9895   0.963   0.820   0.167 -0.2575 -0.2151  0.7727
 3311TIP3   OH2 9896   1.822   5.366   0.505 -0.4089  0.7340  0.6083
 3311TIP3    H1 9897   1.887   5.419   0.550 -0.9077  0.7155  1.3766
 3311TIP3    H2 9898   1.814   5.406   0.419 -1.0352  2.1529  1.2893
 3312TIP3   OH2 9899   3.240   2.993   5.545  0.0589  0.2867  0.1601
 3312TIP3    H1 9900   3.285   2.953   5.619 -1.3089 -1.4515  0.1147
 3312TIP3    H2 9901   3.260   2.935   5.471 -0.7447  0.5096 -0.2452
 3313TIP3   OH2 9902   5.675   5.362   1.914 -0.1920 -0.5999  0.1147
 3313TIP3    H1 9903   5.729   5.436   1.886  0.9053 -1.4154 -0.0049
 3313TIP3    H2 9904   5.608   5.401   1.969 -0.8530  0.7397 -1.5378
 3314TIP3   OH2 9905   1.124   6.618   2.364 -0.1748  0.2323  0.1324
 3314TIP3    H1 9906   1.100   6.526   2.349 -2.4668  0.6455  0.9024
 3314TIP3    H2 9907   1.116   6.659   2.278 -0.4086 -0.0339  0.0252
 3315TIP3   OH2 9908   3.331   4.553   3.504 -0.6670  0.6132 -0.6232
 3315TIP3    H1 9909   3.339   4.570   3.410 -1.2723  0.2805 -0.7439
 3315TIP3    H2 9910   3.415   4.515   3.529 -0.6865  0.2131 -1.1438
 3316TIP3   OH2 9911   4.837   6.681   3.951 -0.2401 -0.1736  0.5203
 3316TIP3    H1 9912   4.760   6.734   3.973 -0.1489  0.0589  0.2837
 3316TIP3    H2 9913   4.823   6.654   3.860 -1.1370 -2.0276  1.1576
 3317TIP3   OH2 9914   0.783   1.059   2.656  0.0020  0.1362  0.2208
 3317TIP3    H1 9915   0.709   1.118   2.639 -0.7817 -0.2888  1.9816
 3317TIP3    H2 9916   0.766   1.023   2.743  1.4593 -1.2301 -0.0153
 3318TIP3   OH2 9917   7.005   4.819   0.905  0.2541 -0.3404  0.0634
 3318TIP3    H1 9918   6.945   4.779   0.967  0.2338 -0.8657 -0.2897
 3318TIP3    H2 9919   7.067   4.867   0.960  0.2668 -0.8371  0.4949
 3319TIP3   OH2 9920   0.938   4.097   4.272  0.4104 -0.0271  0.2227
 3319TIP3    H1 9921   1.029   4.126   4.264  0.0897  1.0065  0.1359
 3319TIP3    H2 9922   0.897   4.166   4.324 -0.7066  0.3888 -1.1519
 3320TIP3   OH2 9923   2.559   0.901   0.749  0.4042 -0.3891  0.7007
 3320TIP3    H1 9924   2.591   0.918   0.837  0.2141 -1.4344  0.9900
 3320TIP3    H2 9925   2.466   0.922   0.753  0.7479  1.3899  0.2134
 3321TIP3   OH2 9926   3.575   4.465   3.546 -0.3056  0.4691  0.3226
 3321TIP3    H1 9927   3.643   4.397   3.541  1.1100  1.5691  2.8986
 3321TIP3    H2 9928   3.623   4.546   3.562 -2.1350  1.6062  0.3440
 3322TIP3   OH2 9929   5.957   0.814   1.316  0.2094 -0.4477  0.5171
 3322TIP3    H1 9930   5.898   0.782   1.384 -0.0496  0.2147  0.6088
 3322TIP3    H2 9931   6.023   0.865   1.363 -0.4822  0.7582  0.1906
 3323TIP3   OH2 9932   4.876   1.451   1.556  0.2234 -0.6613  0.5657
 3323TIP3    H1 9933   4.802   1.429   1.612 -0.8842  1.3570 -0.0019
 3323TIP3    H2 9934   4.949   1.399   1.591 -1.4804 -2.9295  0.9575
 3324TIP3   OH2 9935   5.669   3.963   4.307  0.4544  0.2883 -0.6738
 3324TIP3    H1 9936   5.609   3.908   4.358  0.5001  0.5815 -0.3030
 3324TIP3    H2 9937   5.715   3.901   4.250 -0.4453  0.0961 -1.2156
 3325TIP3   OH2 9938   3.172   1.196   5.114  0.4989 -0.0569 -0.2289
 3325TIP3    H1 9939   3.182   1.105   5.141  3.2190 -0.1259 -1.2001
 3325TIP3    H2 9940   3.176   1.246   5.196 -1.4500 -0.7552  0.3598
 3326TIP3   OH2 9941   5.348   6.232   2.757  0.2306  0.3581  0.4230
 3326TIP3    H1 9942   5.437   6.249   2.787  1.3332 -3.3023 -0.2063
 3326TIP3    H2 9943   5.293   6.248   2.834  1.4838  1.8950  1.0618
 3327TIP3   OH2 9944   5.821   3.312   4.739  0.7157 -0.2163 -0.2904
 3327TIP3    H1 9945   5.849   3.236   4.688  0.1571  0.3035 -1.4172
 3327TIP3    H2 9946   5.747   3.348   4.689  0.2613  0.4123  0.8161
 3328TIP3   OH2 9947   0.068   0.361   3.462  0.4421 -0.1820  0.2479
 3328TIP3    H1 9948   0.071   0.340   3.369  2.0490 -0.9618  0.4345
 3328TIP3    H2 9949   0.010   0.295   3.500  1.4174 -1.1650  0.0765
 3329TIP3   OH2 9950   5.153   3.365   3.731  0.0548 -0.0185 -1.0246
 3329TIP3    H1 9951   5.128   3.457   3.724  0.5324  0.1921 -0.1874
 3329TIP3    H2 9952   5.248   3.365   3.723  0.1519 -0.3107 -0.0238
 3330TIP3   OH2 9953   3.781   5.695   4.115  0.1733  0.3024  0.6479
 3330TIP3    H1 9954   3.732   5.613   4.115  1.3042 -0.4320 -1.4114
 3330TIP3    H2 9955   3.832   5.693   4.196  0.0479 -0.9522  0.7062
 3331TIP3   OH2 9956   6.881   6.315   2.515 -0.0630 -0.3424  0.3162
 3331TIP3    H1 9957   6.913   6.227   2.496 -1.1344 -0.6312 -0.2424
 3331TIP3    H2 9958   6.786   6.309   2.504 -0.0234  1.3475 -1.7250
 3332TIP3   OH2 9959   6.453   4.084   0.511 -0.3190 -0.5126  0.4805
 3332TIP3    H1 9960   6.528   4.048   0.463 -0.0228 -1.0006  1.2727
 3332TIP3    H2 9961   6.395   4.009   0.525 -1.3225  0.0047 -0.7559
 3333TIP3   OH2 9962   6.312   4.833   1.026 -1.0261  0.9648 -0.4713
 3333TIP3    H1 9963   6.379   4.898   1.049 -0.1371  0.1418 -0.6899
 3333TIP3    H2 9964   6.292   4.788   1.108 -2.4835  2.2397 -0.0752
 3334TIP3   OH2 9965   5.186   2.966   4.825  0.2620  0.3069 -0.3321
 3334TIP3    H1 9966   5.178   2.882   4.780  0.5804  1.0735 -1.8816
 3334TIP3    H2 9967   5.260   2.955   4.884 -0.1204 -0.6984 -0.0158
 3335TIP3   OH2 9968   2.959   1.157   3.805  0.2369  0.0535  0.1885
 3335TIP3    H1 9969   2.889   1.146   3.741 -0.5165 -1.3702  1.2106
 3335TIP3    H2 9970   2.915   1.167   3.889  1.2419  0.0653  0.7368
 3336TIP3   OH2 9971   2.112   4.922   5.076 -0.0788  0.6433  0.4800
 3336TIP3    H1 9972   2.043   4.984   5.099 -1.3951 -0.3352 -0.6175
 3336TIP3    H2 9973   2.111   4.920   4.980  0.5954 -0.3428  0.4775
 3337TIP3   OH2 9974   0.254   3.459   1.152 -0.2756  0.5631 -0.0079
 3337TIP3    H1 9975   0.289   3.434   1.067 -1.1503  0.9690 -0.5013
 3337TIP3    H2 9976   0.251   3.378   1.202 -0.3899  0.2049 -0.5938
 3338TIP3   OH2 9977   3.543   5.921   2.399 -0.1302  0.8905 -0.1821
 3338TIP3    H1 9978   3.499   5.941   2.482  0.2720 -1.6584  0.7229
 3338TIP3    H2 9979   3.487   5.961   2.332 -1.4998  1.3734  1.1883
 3339TIP3   OH2 9980   4.744   0.742   5.509 -0.0156  0.1012  0.7247
 3339TIP3    H1 9981   4.681   0.799   5.465 -0.6402 -0.2250  1.1808
 3339TIP3    H2 9982   4.715   0.740   5.601 -0.5257 -1.6102  0.5699
 3340TIP3   OH2 9983   1.793   6.798   2.257  0.5177 -0.5186 -0.3271
 3340TIP3    H1 9984   1.789   6.720   2.313 -1.1415  0.0553  0.4183
 3340TIP3    H2 9985   1.884   6.826   2.262  0.3756 -0.2589  2.4797
 3341TIP3   OH2 9986   5.208   5.844   0.981 -0.1714  0.0138  1.2878
 3341TIP3    H1 9987   5.205   5.748   0.980 -0.8557  0.0222  1.8930
 3341TIP3    H2 9988   5.257   5.865   1.061 -0.7115  0.1784  1.5782
 3342TIP3   OH2 9989   1.247   3.402   5.272  1.0825  0.5327  0.1659
 3342TIP3    H1 9990   1.305   3.417   5.197  1.6127  1.8570  0.8136
 3342TIP3    H2 9991   1.273   3.468   5.336 -1.2763  1.3345  0.4079
 3343TIP3   OH2 9992   6.714   6.193   3.433  0.2879  0.2467 -0.2234
 3343TIP3    H1 9993   6.775   6.264   3.414  0.5390 -0.1201 -0.8140
 3343TIP3    H2 9994   6.735   6.166   3.522 -1.3277  2.4142  0.9225
 3344TIP3   OH2 9995   4.001   6.383   5.347  0.2593  0.2584 -0.4661
 3344TIP3    H1 9996   3.938   6.328   5.393  0.3934  1.1042  0.7979
 3344TIP3    H2 9997   3.965   6.393   5.259  0.7940 -2.7161 -1.1102
 3345TIP3   OH2 9998   6.400   5.683   1.683 -0.2871 -0.8286 -0.1553
 3345TIP3    H1 9999   6.306   5.699   1.683 -0.2170 -0.3551 -1.3330
 3345TIP3    H210000   6.408   5.588   1.669 -0.5825 -0.7760 -0.7025
 3346TIP3   OH210001   0.683   6.797   1.561 -0.3031 -0.8992  0.1797
 3346TIP3    H110002   0.754   6.733   1.570 -0.4268 -1.0561  0.0526
 3346TIP3    H210003   0.607   6.753   1.599 -0.6093 -1.2025 -0.7695
 3347TIP3   OH210004   3.417   3.546   1.324 -0.3789  0.3242 -0.6941
 3347TIP3    H110005   3.380   3.491   1.393  1.0068  0.5099  0.2476
 3347TIP3    H210006   3.351   3.613   1.307 -1.3725 -0.6218 -0.6465
 3348TIP3   OH210007   6.201   4.063   2.532 -0.1081 -0.1156  0.2088
 3348TIP3    H110008   6.163   3.990   2.580 -0.8160  0.9429  1.3228
 3348TIP3    H210009   6.188   4.040   2.440 -1.7585 -0.6704  0.5379
 3349TIP3   OH210010   4.410   5.622   3.591  0.0659 -0.3477  0.1650
 3349TIP3    H110011   4.443   5.688   3.530 -1.4320  0.1723 -0.1292
 3349TIP3    H210012   4.369   5.557   3.535 -0.3830 -0.4124  0.5687
 3350TIP3   OH210013   6.514   3.193   4.316 -0.4770 -0.2761  0.2358
 3350TIP3    H110014   6.600   3.224   4.288 -0.9927  0.6700 -0.3396
 3350TIP3    H210015   6.456   3.214   4.243 -1.5318  0.7076  1.3167
 3351TIP3   OH210016   1.369   4.257   1.687 -0.8113  0.2564  0.4578
 3351TIP3    H110017   1.279   4.290   1.682 -0.9496  0.1099  1.5700
 3351TIP3    H210018   1.366   4.193   1.758  0.6168  1.7480  1.9428
 3352TIP3   OH210019   1.827   3.750   4.992  0.1446  0.5578 -0.8262
 3352TIP3    H110020   1.841   3.662   4.958  0.9494  0.3166  0.0963
 3352TIP3    H210021   1.739   3.774   4.962 -0.6338 -1.0967  0.0203
 3353TIP3   OH210022   1.213   0.084   1.229 -0.0681  0.0594  0.6156
 3353TIP3    H110023   1.194   0.122   1.315  1.4895 -0.2192  1.1128
 3353TIP3    H210024   1.186   0.151   1.167  1.0623  1.3195  1.4195
 3354TIP3   OH210025   1.724   5.439   0.751  0.1901  0.6836  0.0217
 3354TIP3    H110026   1.729   5.347   0.776  2.9600  0.9238  0.6226
 3354TIP3    H210027   1.731   5.438   0.656  0.5419  0.2958  0.0489
 3355TIP3   OH210028   2.471   6.316   3.975  0.2946  0.4261  0.9171
 3355TIP3    H110029   2.481   6.411   3.972 -1.0792  0.5690 -1.3387
 3355TIP3    H210030   2.377   6.302   3.968  0.5845 -1.1265 -0.2959
 3356TIP3   OH210031   3.146   4.404   1.040 -0.0651  0.8336 -0.1046
 3356TIP3    H110032   3.186   4.473   1.093 -0.4266  3.2682 -2.7630
 3356TIP3    H210033   3.218   4.370   0.988 -0.0371 -0.3720  0.6803
 3357TIP3   OH210034   2.509   4.291   5.560  0.2811  0.4227 -0.6691
 3357TIP3    H110035   2.443   4.361   5.559  0.7575  0.8889 -0.0448
 3357TIP3    H210036   2.588   4.334   5.591  0.6094 -0.3787 -0.3909
 3358TIP3   OH210037   0.136   2.052   0.101  0.4965  0.2972  0.2933
 3358TIP3    H110038   0.162   2.070   0.011  2.4313  0.7628  0.8940
 3358TIP3    H210039   0.041   2.063   0.102  0.3764 -0.1806 -1.7716
 3359TIP3   OH210040   1.158   5.392   0.129 -0.4840  0.5365 -0.0420
 3359TIP3    H110041   1.168   5.297   0.124 -1.2186  0.1346  3.7667
 3359TIP3    H210042   1.245   5.424   0.153 -0.7396  0.5810  0.8301
 3360TIP3   OH210043   0.791   4.441   4.343 -0.2221  0.2354  0.1494
 3360TIP3    H110044   0.760   4.359   4.306  0.7276 -0.1467  0.1674
 3360TIP3    H210045   0.852   4.415   4.412  1.2957  0.9223 -0.8694
 3361TIP3   OH210046   0.073   2.503   1.389 -0.6270 -0.1478 -0.4138
 3361TIP3    H110047  -0.011   2.523   1.347 -0.3035 -0.7732 -1.3959
 3361TIP3    H210048   0.131   2.479   1.316  0.4188  0.3162  0.2429
 3362TIP3   OH210049   1.525   3.057   5.586  0.0445 -0.1341  0.1602
 3362TIP3    H110050   1.601   2.998   5.587  0.5456  0.4384  2.7356
 3362TIP3    H210051   1.479   3.038   5.668 -2.8740 -0.6936 -1.4596
 3363TIP3   OH210052   3.802   5.717   1.231 -0.1014 -0.4334  0.1674
 3363TIP3    H110053   3.840   5.765   1.304 -0.3896  1.3307 -0.7795
 3363TIP3    H210054   3.865   5.648   1.211  0.0148 -0.8845  1.9908
 3364TIP3   OH210055   5.641   3.826   5.583 -0.0462 -0.2701 -0.1297
 3364TIP3    H110056   5.626   3.759   5.650 -0.7825 -0.7847 -0.7826
 3364TIP3    H210057   5.627   3.780   5.500  0.8601  0.3500 -0.6439
 3365TIP3   OH210058   7.040   3.476   3.113  0.3181 -0.3587  0.4140
 3365TIP3    H110059   7.120   3.439   3.075  0.5874 -1.2008  1.7371
 3365TIP3    H210060   6.972   3.411   3.096 -0.2979  0.6589 -1.3139
 3366TIP3   OH210061   2.237   3.964   3.510  0.1171 -0.5510  0.8192
 3366TIP3    H110062   2.324   3.979   3.547  0.0580  1.0470  0.3822
 3366TIP3    H210063   2.249   3.890   3.451  1.7283  0.9324 -0.8582
 3367TIP3   OH210064   6.824   6.627   1.572 -0.2728  0.5511  0.3345
 3367TIP3    H110065   6.916   6.599   1.578  0.0313  0.8940 -1.7676
 3367TIP3    H210066   6.774   6.550   1.599  0.6142 -0.7623 -1.5152
 3368TIP3   OH210067   0.074   4.280   0.363 -0.1404  0.2426  0.1439
 3368TIP3    H110068   0.111   4.368   0.377  0.5668 -0.0845  0.3956
 3368TIP3    H210069  -0.000   4.276   0.423 -1.4230  1.3827 -1.2880
 3369TIP3   OH210070   3.744   4.695   2.128  0.3180  0.1413 -0.1344
 3369TIP3    H110071   3.685   4.620   2.118  2.3785 -1.7800  0.9751
 3369TIP3    H210072   3.780   4.709   2.040  0.5489 -0.7662 -0.1937
 3370TIP3   OH210073   2.991   3.365   5.780 -0.0826  0.1946 -0.2782
 3370TIP3    H110074   2.999   3.288   5.724  0.5145  0.3678 -0.4418
 3370TIP3    H210075   3.015   3.333   5.867 -0.6430  0.0119 -0.1862
 3371TIP3   OH210076   3.449   0.569   4.946  0.5724  0.0861 -0.1252
 3371TIP3    H110077   3.531   0.604   4.910  1.6677 -1.2741  0.9406
 3371TIP3    H210078   3.406   0.645   4.985  1.5494  0.7375 -0.2776
 3372TIP3   OH210079   0.903   5.258   2.797 -0.4082  0.2745 -0.0382
 3372TIP3    H110080   0.907   5.165   2.773  0.2865  0.4775 -0.7474
 3372TIP3    H210081   0.818   5.268   2.840  1.0472 -1.5498  3.7353
 3373TIP3   OH210082   4.208   0.620   5.280 -0.1747  0.3519 -0.1059
 3373TIP3    H110083   4.155   0.698   5.293  0.4883  0.6399  1.0318
 3373TIP3    H210084   4.218   0.613   5.185  0.0544  1.8731 -0.2246
 3374TIP3   OH210085   1.974   0.286   5.131 -0.7729 -0.0148  0.0131
 3374TIP3    H110086   1.978   0.336   5.213 -0.9900  2.5009 -1.4211
 3374TIP3    H210087   1.882   0.266   5.119 -1.0924  1.7518 -0.7657
 3375TIP3   OH210088   5.454   5.051   3.924 -0.5073  0.3047  0.5008
 3375TIP3    H110089   5.505   4.972   3.905  1.5402  2.1835 -3.2388
 3375TIP3    H210090   5.500   5.092   3.997  0.5976 -0.2949  0.1755
 3376TIP3   OH210091   5.512   2.258   1.780 -0.5345  0.4633  0.0152
 3376TIP3    H110092   5.594   2.300   1.805  0.8685 -2.5139  0.8567
 3376TIP3    H210093   5.446   2.298   1.836  0.9313  0.6386  1.6877
 3377TIP3   OH210094   1.882   3.446   3.611  0.2788  0.1928 -0.1850
 3377TIP3    H110095   1.942   3.481   3.544 -0.2710 -0.3005 -0.9603
 3377TIP3    H210096   1.797   3.483   3.588 -0.4000 -1.8671 -1.2530
 3378TIP3   OH210097   6.124   6.478   4.988 -0.0441  0.5526 -0.2942
 3378TIP3    H110098   6.066   6.533   5.040  1.2233 -0.4358  2.3044
 3378TIP3    H210099   6.071   6.451   4.913 -1.7317  2.5529  0.1057
 3379TIP3   OH210100   5.135   5.487   4.654 -0.2133 -0.2454  0.3193
 3379TIP3    H110101   5.194   5.558   4.627 -0.6211  0.6745  1.7428
 3379TIP3    H210102   5.047   5.526   4.649 -0.6902 -1.4204 -1.2196
 3380TIP3   OH210103   1.861   6.105   5.174  0.1491  0.2478  0.1780
 3380TIP3    H110104   1.889   6.186   5.132  0.7669  0.1901  0.4728
 3380TIP3    H210105   1.795   6.132   5.237 -0.0473  0.4513 -0.1099
 3381TIP3   OH210106   6.224   6.400   1.509  0.4754  0.4237  0.2797
 3381TIP3    H110107   6.201   6.481   1.464  1.2350  0.9037  0.7323
 3381TIP3    H210108   6.308   6.373   1.472 -1.0481 -1.7410 -1.9197
 3382TIP3   OH210109   2.653   0.174   4.626  0.9544 -0.1983 -0.8586
 3382TIP3    H110110   2.593   0.225   4.571  0.9420 -0.5778 -1.2003
 3382TIP3    H210111   2.680   0.235   4.695 -1.0920 -0.4821  0.2624
 3383TIP3   OH210112   6.130   4.433   1.795  0.1348 -0.3740 -0.6952
 3383TIP3    H110113   6.167   4.378   1.865  0.1575  0.1966 -0.2536
 3383TIP3    H210114   6.131   4.376   1.718 -0.6485 -1.2936 -0.0553
 3384TIP3   OH210115   2.328   5.883   4.047  0.0737  0.2583  0.2469
 3384TIP3    H110116   2.353   5.833   3.969  0.0071 -0.5683  0.7435
 3384TIP3    H210117   2.233   5.872   4.053  0.1478 -0.1670  0.7612
 3385TIP3   OH210118   4.562   1.339   1.347 -0.2020 -0.3582  0.1873
 3385TIP3    H110119   4.492   1.326   1.411 -0.7017 -2.8782 -0.7602
 3385TIP3    H210120   4.584   1.251   1.317  3.3652  0.2989  0.3821
 3386TIP3   OH210121   4.933   2.395   5.828 -0.0301  0.2572 -0.0343
 3386TIP3    H110122   4.839   2.407   5.815 -0.2729  0.4428  1.6527
 3386TIP3    H210123   4.971   2.410   5.742 -1.4740  0.8536 -0.6069
 3387TIP3   OH210124   3.525   1.074   2.955 -0.2596  0.9920 -0.0634
 3387TIP3    H110125   3.504   1.052   3.046 -1.3377  1.4630 -0.1832
 3387TIP3    H210126   3.567   0.995   2.921 -2.4688 -0.3199  0.0136
 3388TIP3   OH210127   3.734   3.797   2.434 -0.1015  1.0175  0.0399
 3388TIP3    H110128   3.787   3.722   2.406 -1.3914 -0.4511  1.3197
 3388TIP3    H210129   3.744   3.799   2.529 -4.1067 -0.9248  0.7350
 3389TIP3   OH210130   5.565   1.057   5.773 -0.1833  0.0443  0.1238
 3389TIP3    H110131   5.627   1.130   5.771  0.6208 -0.6330 -0.1093
 3389TIP3    H210132   5.617   0.982   5.803 -0.9401 -0.4846  0.1278
 3390TIP3   OH210133   6.227   3.890   1.708  0.0450 -0.3933 -0.1091
 3390TIP3    H110134   6.310   3.842   1.702 -1.0346 -2.2373 -1.1689
 3390TIP3    H210135   6.221   3.937   1.625 -0.4334 -1.0947 -0.4806
 3391TIP3   OH210136   2.432   0.620   3.098  0.0247  0.1504 -0.0799
 3391TIP3    H110137   2.391   0.698   3.060  0.3820  0.6420  0.5321
 3391TIP3    H210138   2.405   0.621   3.190  0.7700  0.0462  0.1407
 3392TIP3   OH210139   5.973   0.693   1.869  0.2062  0.2839 -0.0738
 3392TIP3    H110140   6.013   0.738   1.795  0.7488 -1.4333 -0.8972
 3392TIP3    H210141   6.036   0.623   1.891 -0.4586  0.0844  1.2930
 3393TIP3   OH210142   3.339   0.351   0.653  0.0479  0.8353 -0.3642
 3393TIP3    H110143   3.347   0.326   0.745 -0.4109  0.5929 -0.3872
 3393TIP3    H210144   3.374   0.440   0.649  1.4862  0.2994 -0.2358
 3394TIP3   OH210145   3.400   2.408   1.731  0.6795 -0.0471 -0.0811
 3394TIP3    H110146   3.442   2.323   1.722 -1.2415 -0.8575 -2.7059
 3394TIP3    H210147   3.440   2.462   1.663  2.3829  1.5030  1.9987
 3395TIP3   OH210148   2.966   2.163   0.036 -0.0476 -0.5913 -0.6598
 3395TIP3    H110149   2.930   2.083   0.075  1.3385 -0.2617  1.4661
 3395TIP3    H210150   3.038   2.133  -0.019  0.0835 -0.8696 -0.3415
 3396TIP3   OH210151   6.078   4.718   2.837  0.3731  0.3128 -0.3173
 3396TIP3    H110152   6.129   4.640   2.859  0.6340  0.9597  1.5879
 3396TIP3    H210153   6.133   4.791   2.866 -0.0668  1.1986 -1.6363
 3397TIP3   OH210154   0.085   1.192   4.384 -0.2681 -0.3741 -0.0948
 3397TIP3    H110155   0.156   1.152   4.334  0.7061  0.2733  0.7155
 3397TIP3    H210156   0.073   1.278   4.343  0.6273  0.2138  0.8222
 3398TIP3   OH210157   3.027   5.722   4.211  0.3994  0.3589  0.3446
 3398TIP3    H110158   3.031   5.727   4.306 -0.5413 -4.0649  0.8195
 3398TIP3    H210159   3.099   5.663   4.187  1.6418  2.6000 -1.9781
 3399TIP3   OH210160   1.307   0.201   2.631 -0.3887 -0.3881  0.1119
 3399TIP3    H110161   1.271   0.218   2.718 -0.2097  0.0722  0.1002
 3399TIP3    H210162   1.308   0.105   2.623  0.2316 -0.4592  0.8893
 3400TIP3   OH210163   2.875   3.401   1.261  0.1211 -0.5401  0.2462
 3400TIP3    H110164   2.890   3.431   1.171  0.4939 -0.5745  0.2950
 3400TIP3    H210165   2.809   3.332   1.252 -0.5267  0.0959  0.1067
 3401TIP3   OH210166   5.976   3.365   3.857 -0.4690 -0.5223  0.0851
 3401TIP3    H110167   5.962   3.398   3.768 -1.1625  1.6841  0.9505
 3401TIP3    H210168   5.889   3.343   3.888 -0.3056 -0.6322  0.4684
 3402TIP3   OH210169   0.021   5.035   2.821  0.5332  0.0026 -0.5597
 3402TIP3    H110170  -0.058   5.001   2.862  0.5734  0.1710 -0.3416
 3402TIP3    H210171   0.063   4.957   2.782  0.9812 -0.3294  0.5368
 3403TIP3   OH210172   5.769   5.610   1.287  0.2969 -0.1257  0.2451
 3403TIP3    H110173   5.763   5.633   1.195 -0.3894  0.3822  0.4142
 3403TIP3    H210174   5.750   5.516   1.290  2.6618 -0.6850 -0.3922
 3404TIP3   OH210175   5.572   3.937   3.629  0.1035  0.1432 -0.0470
 3404TIP3    H110176   5.633   3.930   3.702  0.0299 -0.5945 -0.0523
 3404TIP3    H210177   5.628   3.957   3.554  0.5242 -1.7528 -0.2944
 3405TIP3   OH210178   3.105   1.790   0.153 -0.1937 -0.5402  0.6318
 3405TIP3    H110179   3.052   1.835   0.087 -0.9415 -3.3150 -0.8271
 3405TIP3    H210180   3.193   1.787   0.116 -0.0539  0.0175  0.9087
 3406TIP3   OH210181   0.673   5.310   1.314 -0.6282 -0.5619 -0.0265
 3406TIP3    H110182   0.581   5.320   1.289 -0.8655  3.2111  1.7093
 3406TIP3    H210183   0.672   5.246   1.385 -1.6896 -1.4372 -0.7931
 3407TIP3   OH210184   6.335   5.028   3.250 -0.4370 -0.3025 -0.1672
 3407TIP3    H110185   6.288   5.077   3.317 -0.4042 -0.5913  0.0703
 3407TIP3    H210186   6.288   4.945   3.244 -0.1742 -0.4523 -0.1856
 3408TIP3   OH210187   4.365   4.200   1.974 -0.0032 -0.6757  0.9094
 3408TIP3    H110188   4.314   4.205   2.055  0.7702 -0.0580  1.3849
 3408TIP3    H210189   4.305   4.165   1.909 -0.1573 -2.9260  2.1487
 3409TIP3   OH210190   2.300   3.424   3.361  0.0262 -0.5942  0.4955
 3409TIP3    H110191   2.347   3.367   3.299  0.1969 -0.7823  0.7962
 3409TIP3    H210192   2.227   3.371   3.392 -0.4917 -0.2448 -0.0969
 3410TIP3   OH210193   0.619   5.173   1.535 -0.4889 -0.2503 -0.3965
 3410TIP3    H110194   0.526   5.163   1.558 -0.4578 -1.5695 -0.7554
 3410TIP3    H210195   0.661   5.096   1.573  0.7697  1.1057  1.1484
 3411TIP3   OH210196   7.161   1.329   2.832  0.5078  0.3102 -0.0681
 3411TIP3    H110197   7.143   1.283   2.914  0.4831  1.7429  0.7664
 3411TIP3    H210198   7.100   1.290   2.769  0.1255 -0.4233  0.7278
 3412TIP3   OH210199   4.627   3.306   2.530 -0.3462 -0.3908  0.6815
 3412TIP3    H110200   4.612   3.399   2.515 -1.2715 -0.7999 -1.3092
 3412TIP3    H210201   4.722   3.297   2.533 -0.1304  0.3087 -1.8839
 3413TIP3   OH210202   7.010   6.374   0.667 -0.4854 -0.0264 -0.0362
 3413TIP3    H110203   6.949   6.360   0.739 -0.3871  1.8814  0.4784
 3413TIP3    H210204   7.094   6.394   0.710 -0.3550  0.8265 -0.6523
 3414TIP3   OH210205   0.682   1.900   0.870  0.1559 -0.4446 -0.0190
 3414TIP3    H110206   0.661   1.941   0.954  1.0343  1.0459 -0.4929
 3414TIP3    H210207   0.770   1.865   0.881 -0.4809 -2.0308  0.2904
 3415TIP3   OH210208   0.556   2.971   1.240  0.6299 -0.0636 -0.4022
 3415TIP3    H110209   0.622   2.903   1.254  0.8814  0.3000  0.2409
 3415TIP3    H210210   0.479   2.924   1.207  0.4689 -0.8126  0.9561
 3416TIP3   OH210211   2.935   1.850   2.919 -0.0936  0.3309 -0.0332
 3416TIP3    H110212   2.846   1.817   2.930 -1.0555  2.6130 -0.5038
 3416TIP3    H210213   2.949   1.906   2.996  0.8406  0.1972 -0.1008
 3417TIP3   OH210214   7.065   4.675   5.448 -0.0794 -0.4932 -0.0374
 3417TIP3    H110215   7.020   4.590   5.446  2.5856 -2.0595  0.9704
 3417TIP3    H210216   7.032   4.719   5.526  0.7253 -2.0071  1.2095
 3418TIP3   OH210217   2.906   5.744   3.479  0.1627  0.4529 -0.1666
 3418TIP3    H110218   2.953   5.664   3.457 -2.2956 -1.1500  0.0465
 3418TIP3    H210219   2.919   5.801   3.404  1.2959 -0.4590 -0.6873
 3419TIP3   OH210220   5.792   3.726   3.483 -0.0019  0.5411 -0.0377
 3419TIP3    H110221   5.739   3.764   3.413 -0.4226 -1.2689 -0.7455
 3419TIP3    H210222   5.866   3.685   3.438  0.2956  0.2692  0.6758
 3420TIP3   OH210223   5.097   1.203   4.765 -0.6547 -0.0210  0.2030
 3420TIP3    H110224   5.039   1.135   4.729 -1.6443  0.8896  0.0289
 3420TIP3    H210225   5.153   1.228   4.692  0.6341 -1.5564  0.6125
 3421TIP3   OH210226   2.503   6.107   4.810 -0.2915  0.3098 -0.6469
 3421TIP3    H110227   2.483   6.014   4.805  2.1866 -0.2187 -1.8177
 3421TIP3    H210228   2.515   6.134   4.719  0.5808  1.4079 -0.2240
 3422TIP3   OH210229   2.650   2.188   0.043 -0.2018 -0.1365  0.0115
 3422TIP3    H110230   2.731   2.237   0.029  0.3223 -1.2335 -0.9010
 3422TIP3    H210231   2.626   2.207   0.134  0.6106  0.8665  0.0339
 3423TIP3   OH210232   3.203   6.717   5.708  0.0237 -0.4063 -0.4790
 3423TIP3    H110233   3.136   6.756   5.652 -0.9585  2.7760  2.5694
 3423TIP3    H210234   3.284   6.760   5.682  0.4787 -2.0639 -2.1152
 3424TIP3   OH210235   3.588   0.348   5.416 -0.1675  0.0212 -0.4196
 3424TIP3    H110236   3.636   0.406   5.358 -0.0421 -0.1458 -0.4837
 3424TIP3    H210237   3.580   0.398   5.498 -0.1826  0.1826 -0.5201
 3425TIP3   OH210238   1.267   4.982   3.306 -0.3696 -0.2679 -0.4229
 3425TIP3    H110239   1.178   4.949   3.310 -1.7241  3.0913  0.4339
 3425TIP3    H210240   1.293   4.973   3.214 -1.7109 -0.9860 -0.7485
 3426TIP3   OH210241   0.181   1.255   1.230  0.1272  0.0220  0.6483
 3426TIP3    H110242   0.154   1.334   1.182  0.2127  0.4662  1.3275
 3426TIP3    H210243   0.104   1.230   1.280  0.3483  0.1277  1.0400
 3427TIP3   OH210244   1.022   1.359   4.924  0.7327  0.3547 -0.2481
 3427TIP3    H110245   0.977   1.439   4.898  0.4169  0.4994  0.7114
 3427TIP3    H210246   1.042   1.371   5.017  2.4674  0.1625 -0.5515
 3428TIP3   OH210247   5.289   2.458   4.431  0.0446 -0.5665 -0.5563
 3428TIP3    H110248   5.317   2.387   4.489 -1.6768 -1.2695 -0.5409
 3428TIP3    H210249   5.361   2.467   4.369  1.8613  0.0991  1.5198
 3429TIP3   OH210250   5.947   3.951   0.416 -0.1285 -0.5573 -0.0837
 3429TIP3    H110251   6.009   4.007   0.462  0.9090 -1.4581 -0.3497
 3429TIP3    H210252   5.907   3.898   0.485 -0.4934 -0.0831  0.0713
 3430TIP3   OH210253   3.551   1.737   3.710  0.0133 -0.0766 -0.6016
 3430TIP3    H110254   3.516   1.655   3.744 -0.4952 -0.5597 -2.1805
 3430TIP3    H210255   3.568   1.790   3.787  1.3965 -2.0549  0.5383
 3431TIP3   OH210256   2.156   4.849   0.660 -0.3956  0.0532  0.1041
 3431TIP3    H110257   2.190   4.790   0.593 -0.8920 -1.0041  0.7499
 3431TIP3    H210258   2.112   4.791   0.723  0.7427  0.9190  1.7794
 3432TIP3   OH210259   2.122   4.359   0.446 -0.3496 -0.2267 -0.7373
 3432TIP3    H110260   2.113   4.445   0.405 -0.1217  0.7094  1.0956
 3432TIP3    H210261   2.107   4.375   0.539  0.1055 -2.1090 -0.3076
 3433TIP3   OH210262   4.127   4.827   4.480 -0.3921 -0.4258  0.4721
 3433TIP3    H110263   4.183   4.905   4.470 -1.9295  0.7525  0.6748
 3433TIP3    H210264   4.118   4.817   4.575 -1.7948  0.3968  0.4614
 3434TIP3   OH210265   4.370   3.417   5.048 -0.2566  0.3192 -0.4336
 3434TIP3    H110266   4.382   3.511   5.063  0.9328  0.3569 -1.4281
 3434TIP3    H210267   4.279   3.408   5.021 -0.2665  1.2557 -0.7633
 3435TIP3   OH210268   3.233   6.220   2.599  0.5426  1.0405  0.5211
 3435TIP3    H110269   3.198   6.254   2.517 -0.7105  0.4083  0.7757
 3435TIP3    H210270   3.213   6.288   2.663  1.5757  1.5616  0.3154
 3436TIP3   OH210271   6.003   6.033   0.491  0.6188  0.6001  0.2115
 3436TIP3    H110272   5.951   6.066   0.564  0.4638  2.5919 -0.7165
 3436TIP3    H210273   6.043   6.112   0.453  1.1843 -0.4388 -1.4617
 3437TIP3   OH210274   5.238   4.690   1.544 -0.6046  0.4370 -1.0184
 3437TIP3    H110275   5.216   4.741   1.621 -0.2038 -0.2643 -0.4204
 3437TIP3    H210276   5.266   4.754   1.479 -2.5280  1.1686 -1.1582
 3438TIP3   OH210277   5.285   3.169   0.283 -0.5518  0.0087 -0.1283
 3438TIP3    H110278   5.254   3.259   0.273 -1.3732 -0.4196 -1.7876
 3438TIP3    H210279   5.342   3.155   0.208  0.5309 -0.5001  0.7557
 3439TIP3   OH210280   5.556   6.350   4.533 -0.4186  0.5413 -0.1092
 3439TIP3    H110281   5.503   6.425   4.506 -2.4593 -0.6150  0.4423
 3439TIP3    H210282   5.582   6.370   4.622 -0.6243  0.7780 -0.1003
 3440TIP3   OH210283   5.670   5.679   1.573 -0.1416 -0.4536 -0.1567
 3440TIP3    H110284   5.744   5.677   1.511 -0.3665  0.8833 -0.5002
 3440TIP3    H210285   5.709   5.655   1.657  0.7628  0.4777 -0.2814
 3441TIP3   OH210286   0.321   5.919   2.912 -0.0303 -0.1312 -0.1422
 3441TIP3    H110287   0.377   5.842   2.904 -0.8089 -0.6192 -1.1722
 3441TIP3    H210288   0.286   5.914   3.001  0.6132 -0.4838  0.0957
 3442TIP3   OH210289   4.346   5.008   1.892  0.1377  0.1621  0.1756
 3442TIP3    H110290   4.359   5.049   1.978  0.6179 -2.0884  1.2284
 3442TIP3    H210291   4.433   4.981   1.865 -0.4542 -3.0612  1.0907
 3443TIP3   OH210292   7.091   2.038   4.189 -0.1502  0.1419 -0.0764
 3443TIP3    H110293   7.174   2.013   4.150 -0.2973  0.5625 -0.6634
 3443TIP3    H210294   7.094   2.133   4.195  0.1130  0.0595  1.5045
 3444TIP3   OH210295   1.310   1.178   1.958 -0.0256 -0.9461  0.6137
 3444TIP3    H110296   1.282   1.236   2.029 -0.2926 -0.9014  0.4743
 3444TIP3    H210297   1.404   1.192   1.951  0.0295 -1.0632  1.0621
 3445TIP3   OH210298   2.374   0.816   2.589 -0.5191  0.0364 -0.2474
 3445TIP3    H110299   2.396   0.737   2.540 -2.1860  0.2617 -1.4399
 3445TIP3    H210300   2.309   0.787   2.653 -1.5752  0.5253 -1.0786
 3446TIP3   OH210301   5.259   3.124   5.753  0.0339  0.5082  0.1343
 3446TIP3    H110302   5.231   3.186   5.686  0.3368  1.1129  0.5561
 3446TIP3    H210303   5.327   3.072   5.711 -0.3287  0.3559 -0.2717
 3447TIP3   OH210304   1.968   2.036   3.140 -0.1696 -0.5764  0.2326
 3447TIP3    H110305   1.931   1.952   3.167 -0.9035 -0.3622 -0.0791
 3447TIP3    H210306   1.977   2.030   3.045 -0.1905 -0.3229  0.2115
 3448TIP3   OH210307   5.163   4.353   1.565  0.7562  0.0030 -0.2334
 3448TIP3    H110308   5.253   4.332   1.539  1.9100  1.2039  2.4159
 3448TIP3    H210309   5.131   4.273   1.606  2.3157  0.7748  2.7759
 3449TIP3   OH210310   2.820   5.059   5.736  0.3092 -0.4922  0.0613
 3449TIP3    H110311   2.890   5.004   5.770  0.3770  0.2217  1.1037
 3449TIP3    H210312   2.861   5.144   5.722 -0.6631  0.3663  2.1142
 3450TIP3   OH210313   5.611   2.518   5.247  0.4616 -0.0893  0.2991
 3450TIP3    H110314   5.699   2.483   5.231  0.4941  0.0529  0.1640
 3450TIP3    H210315   5.615   2.550   5.337  0.7649  0.5556  0.0640
 3451TIP3   OH210316   3.316   0.336   0.935 -0.0883 -0.5104  0.0987
 3451TIP3    H110317   3.251   0.269   0.957  1.0340 -1.3876  0.8790
 3451TIP3    H210318   3.337   0.377   1.019 -2.0922  2.1645 -0.5804
 3452TIP3   OH210319   6.429   5.240   4.336  0.1927 -0.1144  0.2499
 3452TIP3    H110320   6.341   5.209   4.357 -0.2040  0.9940  0.3188
 3452TIP3    H210321   6.426   5.260   4.242  0.0372  0.8987  0.4547
 3453TIP3   OH210322   6.220   3.339   2.692  0.1738 -0.1664  0.1324
 3453TIP3    H110323   6.141   3.297   2.658  0.9090 -0.4534 -1.2719
 3453TIP3    H210324   6.188   3.396   2.763 -1.2516 -0.4675 -0.2384
 3454TIP3   OH210325   3.243   2.334   4.884  0.4494  0.0703  0.1530
 3454TIP3    H110326   3.150   2.356   4.872  0.6225  0.9504  0.3360
 3454TIP3    H210327   3.267   2.286   4.805  0.0012  0.4026 -0.1902
 3455TIP3   OH210328   5.476   5.015   0.002  0.6343  0.2412  0.2821
 3455TIP3    H110329   5.416   5.011   0.076  0.7610 -0.2695  0.3646
 3455TIP3    H210330   5.498   5.107  -0.007 -1.5576  0.7164 -0.8730
 3456TIP3   OH210331   3.246   6.428   0.779  0.4498  0.1722  0.1929
 3456TIP3    H110332   3.258   6.503   0.720 -0.5302  0.9841  0.9814
 3456TIP3    H210333   3.154   6.433   0.805  1.0811  0.4507  2.5944
 3457TIP3   OH210334   6.204   3.884   2.005 -0.4917 -0.1613  0.3014
 3457TIP3    H110335   6.213   3.910   1.914  0.6484  0.5543  0.5933
 3457TIP3    H210336   6.250   3.800   2.010 -0.3557 -0.0902  0.2575
 3458TIP3   OH210337   4.010   1.896   5.632 -0.0611 -0.0662  0.4705
 3458TIP3    H110338   4.025   1.991   5.633  2.5561 -0.3981  2.5174
 3458TIP3    H210339   4.002   1.872   5.724 -0.5194 -1.9014 -0.0074
 3459TIP3   OH210340   2.169   5.530   3.487  0.2978  0.2960  0.3666
 3459TIP3    H110341   2.233   5.468   3.523  2.3639  2.4215  0.5646
 3459TIP3    H210342   2.143   5.491   3.403 -0.6234 -2.1384  1.6639
 3460TIP3   OH210343   6.605   4.383   4.972 -0.0387  0.3594 -0.4460
 3460TIP3    H110344   6.695   4.395   5.002 -0.3108  0.3905  0.3952
 3460TIP3    H210345   6.613   4.358   4.880  0.8422  0.0317 -0.2871
 3461TIP3   OH210346   6.743   4.181   2.235  0.0786 -0.0839 -0.1166
 3461TIP3    H110347   6.710   4.114   2.176 -3.1108 -1.0280  2.4853
 3461TIP3    H210348   6.803   4.134   2.293  0.2304  0.0012 -0.2034
 3462TIP3   OH210349   0.870   6.645   4.729 -0.5146 -0.2343 -0.5394
 3462TIP3    H110350   0.783   6.649   4.691 -0.9816 -0.9355  0.4052
 3462TIP3    H210351   0.861   6.584   4.803  0.5609  0.3672  0.1103
 3463TIP3   OH210352   5.034   1.288   4.474  0.0192  0.0661 -0.0752
 3463TIP3    H110353   5.029   1.192   4.471 -0.1257  0.0770 -0.2311
 3463TIP3    H210354   4.947   1.315   4.504 -0.1204  0.1710 -0.5679
 3464TIP3   OH210355   5.531   0.670   2.863 -0.5230  0.0128  0.3793
 3464TIP3    H110356   5.567   0.600   2.917 -1.0665  0.3627  1.1993
 3464TIP3    H210357   5.604   0.731   2.851 -0.2360 -0.3565  0.2058
 3465TIP3   OH210358   1.017   6.212   0.810 -0.1633  0.3761 -0.0622
 3465TIP3    H110359   1.017   6.124   0.774  0.1361 -0.4202  1.7457
 3465TIP3    H210360   1.097   6.253   0.776  1.6820 -1.3470  1.8781
 3466TIP3   OH210361   2.478   6.707   0.107  0.5588  0.1689  0.4933
 3466TIP3    H110362   2.460   6.710   0.013 -0.8840  1.5244  0.7658
 3466TIP3    H210363   2.561   6.754   0.117 -0.4514  2.1632  0.0841
 3467TIP3   OH210364   0.054   5.480   2.514 -0.0457  0.1878 -0.1035
 3467TIP3    H110365   0.052   5.440   2.602  1.2136 -0.0491 -0.1564
 3467TIP3    H210366  -0.019   5.542   2.514 -3.4396 -3.4084 -0.6898
 3468TIP3   OH210367   3.789   1.089   0.253  0.2587  0.3146 -0.2095
 3468TIP3    H110368   3.791   1.184   0.255 -0.7182  0.3375  1.1331
 3468TIP3    H210369   3.812   1.062   0.342  0.4932 -0.7076 -0.5570
 3469TIP3   OH210370   1.350   1.717   0.011 -0.2750 -0.2154 -0.7281
 3469TIP3    H110371   1.399   1.698   0.091 -1.8264 -2.3829 -0.1927
 3469TIP3    H210372   1.401   1.677  -0.059  1.0998  1.7076 -0.9049
 3470TIP3   OH210373   5.240   3.923   0.217  0.4563  0.1816  0.2958
 3470TIP3    H110374   5.233   3.933   0.312 -0.3441  0.4646  0.2185
 3470TIP3    H210375   5.334   3.931   0.199  0.6418 -0.0936  1.0809
 3471TIP3   OH210376   5.731   6.168   1.691 -0.3868  0.5726  0.1856
 3471TIP3    H110377   5.775   6.184   1.607  0.3992  2.0744  0.8403
 3471TIP3    H210378   5.657   6.228   1.690 -0.9632 -0.1339  0.1557
 3472TIP3   OH210379   2.211   5.735   1.594  0.2095  0.1116 -0.4459
 3472TIP3    H110380   2.255   5.819   1.579 -0.0910  0.3526  0.0183
 3472TIP3    H210381   2.170   5.744   1.679 -0.8094 -0.0862 -0.9048
 3473TIP3   OH210382   3.617   1.553   0.113  0.5212  0.5328  0.0838
 3473TIP3    H110383   3.555   1.505   0.168  1.5565  0.8245  1.5846
 3473TIP3    H210384   3.643   1.491   0.046 -1.1685  0.3236 -0.4235
 3474TIP3   OH210385   1.119   1.729   2.577 -0.7601 -0.0831  0.4253
 3474TIP3    H110386   1.178   1.801   2.598  0.7107 -0.3078 -2.4664
 3474TIP3    H210387   1.118   1.675   2.656  1.8861  0.6241  1.0432
 3475TIP3   OH210388   6.466   6.362   5.197  0.1250 -0.2248  0.0180
 3475TIP3    H110389   6.547   6.322   5.229  0.7135 -0.4666 -1.6362
 3475TIP3    H210390   6.400   6.293   5.205  0.3126 -0.3609  0.4299
 3476TIP3   OH210391   5.351   2.347   2.931 -0.0274  0.0146  0.3582
 3476TIP3    H110392   5.443   2.318   2.925  0.0995 -0.2078  2.5727
 3476TIP3    H210393   5.302   2.276   2.890  0.6899 -0.7570  0.7746
 3477TIP3   OH210394   4.970   2.095   2.306 -0.0511  0.4465  0.2008
 3477TIP3    H110395   5.061   2.107   2.332 -0.5498  1.7299  1.4715
 3477TIP3    H210396   4.926   2.066   2.385 -0.6033 -1.0989 -0.6329
 3478TIP3   OH210397   3.710   4.547   1.381  0.1779  0.5933 -0.0209
 3478TIP3    H110398   3.720   4.549   1.285 -1.0388 -2.2080 -0.3073
 3478TIP3    H210399   3.616   4.559   1.394  0.1572 -0.2872  0.7122
 3479TIP3   OH210400   0.884   3.135   4.224 -0.1357  0.0684 -0.4611
 3479TIP3    H110401   0.804   3.091   4.254  0.0674  0.8808  1.4210
 3479TIP3    H210402   0.915   3.184   4.300  1.2911  1.0687 -1.6120
 3480TIP3   OH210403   2.010   5.583   1.455 -0.0589  0.7554  0.2817
 3480TIP3    H110404   2.038   5.582   1.364 -1.3596  2.4103 -0.1835
 3480TIP3    H210405   2.076   5.635   1.501 -1.7306  3.9825 -0.6673
 3481TIP3   OH210406   4.839   1.323   0.095 -0.4498  0.2199  0.9608
 3481TIP3    H110407   4.893   1.382   0.149 -0.1467  0.1751  0.7080
 3481TIP3    H210408   4.796   1.266   0.159  0.9535 -0.7313  1.1017
 3482TIP3   OH210409   1.784   1.881   1.871 -0.2285 -0.0018 -0.8997
 3482TIP3    H110410   1.869   1.903   1.907 -0.6432 -1.4908  1.1921
 3482TIP3    H210411   1.727   1.954   1.895 -0.3046 -0.6042  0.8513
 3483TIP3   OH210412   5.439   2.585   5.783 -0.0102 -0.5233 -0.4408
 3483TIP3    H110413   5.434   2.513   5.721  3.0075 -0.2127 -1.1835
 3483TIP3    H210414   5.476   2.547   5.863 -3.2155 -0.7718  1.0918
 3484TIP3   OH210415   7.016   0.227   5.570  0.2924 -0.3280  0.3593
 3484TIP3    H110416   7.064   0.228   5.653 -1.7348  0.9635  1.6060
 3484TIP3    H210417   7.079   0.191   5.507  2.5719  0.4751  2.0163
 3485TIP3   OH210418   5.836   2.838   5.743  0.4739  0.1250  0.2971
 3485TIP3    H110419   5.861   2.756   5.701  0.9631  0.6732 -0.5065
 3485TIP3    H210420   5.844   2.821   5.836 -0.2764 -1.0018  0.1786
 3486TIP3   OH210421   7.128   4.622   2.992 -0.1121 -0.3244 -0.2121
 3486TIP3    H110422   7.093   4.533   2.984 -0.7151 -0.3842  2.2171
 3486TIP3    H210423   7.190   4.616   3.065 -1.8617  1.6907  1.5427
 3487TIP3   OH210424   5.861   2.349   4.416  0.3641 -0.3041  0.2151
 3487TIP3    H110425   5.875   2.372   4.324 -0.5736 -1.2977 -0.1977
 3487TIP3    H210426   5.797   2.278   4.413  0.2321 -0.2643  1.6505
 3488TIP3   OH210427   1.554   5.041   0.183 -0.1279 -0.6612  0.0941
 3488TIP3    H110428   1.533   5.110   0.245  0.0607  0.7280 -1.3242
 3488TIP3    H210429   1.545   5.082   0.097  0.4455 -2.2808 -0.7923
 3489TIP3   OH210430   3.352   4.297   0.870  0.0947 -0.1297  0.1369
 3489TIP3    H110431   3.286   4.258   0.813  0.7082  0.1804 -0.8012
 3489TIP3    H210432   3.427   4.237   0.865  0.4851  0.3748 -0.1076
 3490TIP3   OH210433   6.630   1.696   4.379 -0.7073  0.4211 -0.0119
 3490TIP3    H110434   6.618   1.665   4.289 -1.1078  1.0373 -0.1817
 3490TIP3    H210435   6.603   1.623   4.434 -2.2912  0.6770 -0.3981
 3491TIP3   OH210436   4.206   5.034   3.472 -0.0633 -0.3702  0.3461
 3491TIP3    H110437   4.218   5.024   3.567 -0.3882  0.0216  0.4314
 3491TIP3    H210438   4.114   5.056   3.462  0.1602  0.4188  0.0027
 3492TIP3   OH210439   5.378   2.600   1.739  0.1563  0.0002 -0.5166
 3492TIP3    H110440   5.334   2.685   1.740 -0.9055 -0.5375 -0.2941
 3492TIP3    H210441   5.316   2.540   1.779  1.4536 -0.6250  0.6513
 3493TIP3   OH210442   7.058   6.078   4.130  0.2992 -0.5289 -0.0163
 3493TIP3    H110443   7.001   6.144   4.170  2.3105  0.7790  0.8756
 3493TIP3    H210444   7.095   6.030   4.205  1.5109 -0.3200 -0.4471
 3494TIP3   OH210445   6.934   1.485   0.241  0.2711  0.3630  0.1226
 3494TIP3    H110446   7.018   1.440   0.246 -0.0455 -0.3364 -0.7201
 3494TIP3    H210447   6.922   1.504   0.148  0.2691  1.9688  0.4132
 3495TIP3   OH210448   1.122   3.939   0.405 -0.2357  0.3110  0.0949
 3495TIP3    H110449   1.076   3.985   0.334  0.1443  0.0882 -0.2992
 3495TIP3    H210450   1.095   3.985   0.484  0.1718  1.2513 -0.2945
 3496TIP3   OH210451   2.767   0.919   3.786 -0.0726 -0.0171 -0.5266
 3496TIP3    H110452   2.761   0.896   3.693  1.9920  0.6109 -0.8635
 3496TIP3    H210453   2.775   1.015   3.786  0.4260 -0.0496  0.2471
 3497TIP3   OH210454   3.985   2.045   2.000 -0.0140 -0.2431 -0.4675
 3497TIP3    H110455   3.987   2.071   1.908  0.5682 -0.2414 -0.4559
 3497TIP3    H210456   3.994   2.128   2.048  0.4558 -0.3219 -0.4172
 3498TIP3   OH210457   4.019   1.590   5.102  0.0837  0.1352 -0.3122
 3498TIP3    H110458   3.928   1.616   5.115  0.0174  0.3936 -1.1976
 3498TIP3    H210459   4.066   1.672   5.091  0.3669 -0.0115 -0.1850
 3499TIP3   OH210460   3.925   2.879   5.195 -0.6378 -0.8180 -0.4427
 3499TIP3    H110461   3.973   2.833   5.264 -0.1555 -1.5848 -1.2631
 3499TIP3    H210462   3.984   2.950   5.168 -1.3718  0.3003  0.8065
 3500TIP3   OH210463   1.546   3.505   5.634 -0.1155  0.2689 -0.4285
 3500TIP3    H110464   1.557   3.535   5.543  0.4770 -0.5739 -0.6490
 3500TIP3    H210465   1.621   3.447   5.649 -0.2087  0.4061  0.6056
 3501TIP3   OH210466   1.053   4.292   0.391 -0.2027  0.3501  0.0856
 3501TIP3    H110467   1.103   4.313   0.312  0.8953  0.2317  0.7312
 3501TIP3    H210468   1.104   4.329   0.462  0.1375 -1.7076  0.9841
 3502TIP3   OH210469   4.298   3.676   1.170  0.5151  0.3604 -0.0670
 3502TIP3    H110470   4.340   3.704   1.251  1.7285 -0.2285 -0.4804
 3502TIP3    H210471   4.369   3.663   1.108 -0.3551  0.3411 -1.1023
 3503TIP3   OH210472   7.064   1.125   3.362  0.1060  0.2530 -0.0046
 3503TIP3    H110473   7.025   1.052   3.411 -2.7684  0.6719 -1.4626
 3503TIP3    H210474   7.020   1.203   3.397  1.1215  0.9959 -0.3568
 3504TIP3   OH210475   0.849   2.874   1.561 -0.1346 -0.2760 -0.2524
 3504TIP3    H110476   0.897   2.792   1.572  0.3542  0.0186 -0.1673
 3504TIP3    H210477   0.763   2.856   1.599 -0.6175 -1.2692 -1.7353
 3505TIP3   OH210478   0.364   2.498   0.396  0.2647 -0.1367 -0.0269
 3505TIP3    H110479   0.416   2.458   0.326 -0.6091  1.2150 -1.5398
 3505TIP3    H210480   0.277   2.458   0.388  0.1804 -0.0344  0.3399
 3506TIP3   OH210481   2.390   1.889   5.586 -0.3457  0.5735 -0.2975
 3506TIP3    H110482   2.404   1.917   5.495 -2.4787  0.5779 -0.6708
 3506TIP3    H210483   2.317   1.942   5.617  0.0955  0.2995  1.3173
 3507TIP3   OH210484   0.494   2.878   2.558 -0.4369 -0.6315 -0.2742
 3507TIP3    H110485   0.585   2.868   2.532  0.1684 -0.3370  1.5423
 3507TIP3    H210486   0.498   2.902   2.651 -2.4085 -2.0571  0.2594
 3508TIP3   OH210487   3.312   4.452   2.181  0.3563 -0.5724  0.3829
 3508TIP3    H110488   3.292   4.478   2.270  0.5707  0.6027  0.0985
 3508TIP3    H210489   3.260   4.373   2.167  0.6392 -1.0193  1.6728
 3509TIP3   OH210490   1.094   1.338   5.276 -0.2276 -0.3385  0.9853
 3509TIP3    H110491   1.094   1.243   5.289  3.3600 -0.2567  2.7315
 3509TIP3    H210492   1.042   1.371   5.349 -0.6168 -0.8882  0.9711
 3510TIP3   OH210493   3.486   3.287   1.458  0.3959 -0.1517 -0.1642
 3510TIP3    H110494   3.528   3.217   1.407 -0.0875 -0.4709 -0.1233
 3510TIP3    H210495   3.399   3.254   1.477 -0.3356  1.0255 -1.3215
 3511TIP3   OH210496   7.188   4.835   3.912  0.2973  0.4455  0.1550
 3511TIP3    H110497   7.270   4.848   3.865 -0.5368  1.9874 -0.9865
 3511TIP3    H210498   7.178   4.740   3.918  3.0979  0.1674  2.1236
 3512TIP3   OH210499   2.381   6.520   0.334 -0.7024 -0.0017  0.4281
 3512TIP3    H110500   2.294   6.539   0.369  0.0665  1.1889  1.8839
 3512TIP3    H210501   2.391   6.581   0.261 -1.1066 -0.1812  0.2201
 3513TIP3   OH210502   3.268   5.799   3.974 -0.2935  0.4569 -0.1358
 3513TIP3    H110503   3.353   5.756   3.975 -1.5095 -2.1895 -0.1344
 3513TIP3    H210504   3.282   5.884   4.015  2.8138  1.1841 -2.3464
 3514TIP3   OH210505   4.523   2.883   1.658  0.1877 -0.5062 -0.1940
 3514TIP3    H110506   4.544   2.808   1.602  0.2518 -1.0053  0.4859
 3514TIP3    H210507   4.524   2.848   1.747  2.2834  0.7149  0.3434
 3515TIP3   OH210508   6.953   4.286   4.323 -0.3911 -0.1560 -0.1227
 3515TIP3    H110509   6.968   4.235   4.244  1.0189 -0.3503  0.2349
 3515TIP3    H210510   6.960   4.223   4.395 -1.4722  0.0477  0.1886
 3516TIP3   OH210511   1.258   6.113   1.967 -0.0089  0.3303  0.1628
 3516TIP3    H110512   1.245   6.152   2.054  1.0589  2.2260 -0.4717
 3516TIP3    H210513   1.197   6.039   1.965 -1.7295  1.6050  1.6774
 3517TIP3   OH210514   4.537   3.898   0.995  0.3401  0.2126 -0.8290
 3517TIP3    H110515   4.598   3.853   1.053 -0.1309 -0.9042 -1.1882
 3517TIP3    H210516   4.592   3.931   0.924  0.6754  0.1324 -0.6097
 3518TIP3   OH210517   4.989   6.520   2.518 -0.2697  0.4454 -0.0427
 3518TIP3    H110518   4.957   6.506   2.429 -0.5536  0.2670  0.0846
 3518TIP3    H210519   4.949   6.603   2.544  0.2559  0.7769 -0.2778
 3519TIP3   OH210520   4.938   3.556   4.317  0.6908 -0.3754  0.3127
 3519TIP3    H110521   4.854   3.578   4.278  0.7706 -2.1613 -0.9996
 3519TIP3    H210522   4.941   3.607   4.398 -2.0989 -0.9913  0.9059
 3520TIP3   OH210523   3.415   0.888   0.518  0.3288  0.0127 -0.0984
 3520TIP3    H110524   3.473   0.839   0.459  1.7937  1.3556  0.1572
 3520TIP3    H210525   3.430   0.980   0.496 -1.5431  0.4280  0.1736
 3521TIP3   OH210526   6.476   4.277   1.192 -0.2209  0.2217  0.3529
 3521TIP3    H110527   6.569   4.291   1.178 -0.2501  1.8262  1.5542
 3521TIP3    H210528   6.466   4.181   1.194  0.9798 -0.0251 -2.1421
 3522TIP3   OH210529   3.382   2.800   3.203  0.0533 -0.0169 -0.2950
 3522TIP3    H110530   3.330   2.876   3.229  0.4871  1.2156 -2.6960
 3522TIP3    H210531   3.339   2.767   3.124  0.9744 -1.0570 -0.3885
 3523TIP3   OH210532   4.556   6.253   2.157 -0.2828 -0.2405  0.2497
 3523TIP3    H110533   4.502   6.203   2.218  0.9637 -1.3051  0.5251
 3523TIP3    H210534   4.537   6.214   2.072 -0.7040  0.0693  0.1993
 3524TIP3   OH210535   3.408   0.745   2.763  0.2634  0.5869  0.2242
 3524TIP3    H110536   3.355   0.814   2.803 -0.0749  0.1041  0.6331
 3524TIP3    H210537   3.383   0.666   2.812 -0.3370 -0.0647 -1.0978
 3525TIP3   OH210538   2.728   5.996   3.792 -0.0586  0.3330 -0.3242
 3525TIP3    H110539   2.817   5.979   3.820 -1.3400  0.2170  4.6660
 3525TIP3    H210540   2.727   6.090   3.773  0.8431  0.7097  1.2796
 3526TIP3   OH210541   4.636   6.486   2.042 -0.0240 -0.3998 -0.0808
 3526TIP3    H110542   4.728   6.458   2.045 -0.1155 -0.7051 -0.1260
 3526TIP3    H210543   4.587   6.410   2.073 -0.3121 -0.4657 -0.6776
 3527TIP3   OH210544   3.165   4.050   5.229 -0.3926  0.2110  0.0656
 3527TIP3    H110545   3.082   4.078   5.192 -1.0775 -0.3781  1.1090
 3527TIP3    H210546   3.232   4.094   5.176 -1.3602  0.5998 -0.8495
 3528TIP3   OH210547   5.823   0.694   5.308 -0.1485  0.1316 -1.0071
 3528TIP3    H110548   5.799   0.639   5.233 -0.1925  2.0468 -2.4413
 3528TIP3    H210549   5.818   0.783   5.276  0.8683  0.9784  1.0079
 3529TIP3   OH210550   6.981   1.521   5.630  0.6211  0.0391  0.0780
 3529TIP3    H110551   7.043   1.517   5.703  0.6584  1.1437  0.1146
 3529TIP3    H210552   6.904   1.564   5.665  1.3877  2.5077 -0.9987
 3530TIP3   OH210553   5.654   4.670   3.602  0.2176  0.1685  0.6232
 3530TIP3    H110554   5.640   4.763   3.584 -2.7002 -0.5265 -1.4987
 3530TIP3    H210555   5.643   4.627   3.517 -0.8986 -2.3051  1.9001
 3531TIP3   OH210556   5.537   4.426   2.828 -0.5160  0.1581 -0.3715
 3531TIP3    H110557   5.469   4.455   2.767 -0.4836 -0.9831 -0.9755
 3531TIP3    H210558   5.592   4.366   2.777  1.7642  2.0156 -0.2970
 3532TIP3   OH210559   3.256   3.655   5.449  0.0119 -0.2680 -1.1580
 3532TIP3    H110560   3.343   3.629   5.418  0.6221  0.1178  0.1396
 3532TIP3    H210561   3.221   3.576   5.490  0.1859 -0.1607 -0.7919
 3533TIP3   OH210562   7.199   0.117   5.372  0.7023 -0.1977 -0.4308
 3533TIP3    H110563   7.253   0.041   5.391 -0.5328 -1.1203 -0.4906
 3533TIP3    H210564   7.131   0.084   5.313 -1.1374  0.3957  1.2380
 3534TIP3   OH210565   6.337   0.853   0.731 -0.4449 -0.5523 -0.0098
 3534TIP3    H110566   6.305   0.890   0.649  1.3090  1.0468 -0.0395
 3534TIP3    H210567   6.290   0.770   0.740 -2.4016  0.3246 -1.4229
 3535TIP3   OH210568   0.977   3.186   0.719  0.4257 -0.1955  0.3011
 3535TIP3    H110569   0.919   3.204   0.646  0.7387  1.7687  0.4796
 3535TIP3    H210570   0.932   3.222   0.795  2.3426  2.6161  0.2574
 3536TIP3   OH210571   5.190   5.473   2.914  0.3932 -0.4447 -0.5764
 3536TIP3    H110572   5.272   5.495   2.957  0.4874 -0.5429 -0.7021
 3536TIP3    H210573   5.166   5.387   2.950 -0.5861  0.3632  0.7983
 3537TIP3   OH210574   2.100   3.995   0.111 -0.1586  1.0767  0.0553
 3537TIP3    H110575   2.019   3.995   0.060 -1.1931  1.1005  1.6153
 3537TIP3    H210576   2.145   4.075   0.086 -0.0796  0.5515 -1.6029
 3538TIP3   OH210577   0.717   1.931   4.851  0.0830 -0.6499 -0.1960
 3538TIP3    H110578   0.716   2.025   4.834 -0.7970 -0.1428  2.2201
 3538TIP3    H210579   0.793   1.898   4.802  0.7447  1.3873 -0.6375
 3539TIP3   OH210580   3.814   0.353   3.853  0.0425  0.1562  0.0538
 3539TIP3    H110581   3.899   0.357   3.896  0.1641  0.3005 -0.1970
 3539TIP3    H210582   3.823   0.283   3.788  0.1571  0.5531 -0.3653
 3540TIP3   OH210583   0.489   5.920   1.900  0.6272 -0.4350 -0.1262
 3540TIP3    H110584   0.536   5.865   1.836  2.8718  0.1637  0.9000
 3540TIP3    H210585   0.462   5.997   1.850 -3.0222 -2.4764 -1.7227
 3541TIP3   OH210586   4.707   1.423   5.015 -0.5416  0.2327  0.3068
 3541TIP3    H110587   4.742   1.353   5.069 -3.0281 -0.5307  1.0886
 3541TIP3    H210588   4.706   1.500   5.072 -0.9622  0.0200  0.5947
 3542TIP3   OH210589   1.040   1.091   3.364  0.0192 -0.2022  0.1127
 3542TIP3    H110590   1.008   1.163   3.417  0.7773  0.5066 -0.3643
 3542TIP3    H210591   1.033   1.122   3.274  1.0160 -0.4422 -0.0592
 3543TIP3   OH210592   0.729   2.574   4.996  0.0236  0.7701 -0.4104
 3543TIP3    H110593   0.678   2.580   5.077  0.3615  0.2609 -0.1537
 3543TIP3    H210594   0.689   2.500   4.949  0.1759  0.7157 -0.4542
 3544TIP3   OH210595   3.723   0.420   0.480 -0.0514  0.1401 -0.2207
 3544TIP3    H110596   3.789   0.490   0.481 -0.4237  0.4938  0.4595
 3544TIP3    H210597   3.759   0.355   0.420 -0.0065  1.2120 -1.4049
 3545TIP3   OH210598   4.923   4.297   2.979  0.2577  0.3585  0.1699
 3545TIP3    H110599   4.832   4.328   2.986 -0.2872 -0.8832 -0.8942
 3545TIP3    H210600   4.936   4.281   2.885  0.8894 -1.3843  0.5135
 3546TIP3   OH210601   7.186   4.128   1.666 -0.2837  0.1167 -0.1382
 3546TIP3    H110602   7.098   4.162   1.654 -0.1415 -0.1020 -2.0373
 3546TIP3    H210603   7.188   4.098   1.757 -2.0294  0.4794  0.0497
 3547TIP3   OH210604   3.572   6.200   5.045  0.1354 -0.1214  0.3543
 3547TIP3    H110605   3.527   6.117   5.027  1.2569 -1.0245  1.5040
 3547TIP3    H210606   3.619   6.184   5.126  0.3867  1.6715  0.5941
 3548TIP3   OH210607   3.383   5.339   1.101  0.0776  0.3664 -0.4207
 3548TIP3    H110608   3.324   5.347   1.026 -0.2776  1.6455 -0.0259
 3548TIP3    H210609   3.325   5.341   1.177  0.5429  0.4949 -0.0645
 3549TIP3   OH210610   4.511   3.794   1.891  0.0054  0.2879 -0.3303
 3549TIP3    H110611   4.556   3.868   1.931  2.4353 -0.5225 -1.3929
 3549TIP3    H210612   4.495   3.734   1.963  1.4866  0.2121 -0.0356
 3550TIP3   OH210613   6.729   4.758   1.800 -0.3169  0.7057 -0.0340
 3550TIP3    H110614   6.721   4.813   1.878  0.3810 -0.4820  0.8985
 3550TIP3    H210615   6.816   4.719   1.806 -0.1310  0.8280 -1.5778
 3551TIP3   OH210616   3.012   3.603   2.724  0.3854 -0.4640 -0.7174
 3551TIP3    H110617   3.077   3.670   2.744  1.0801 -0.3986 -2.9286
 3551TIP3    H210618   3.041   3.526   2.773  1.0503  0.0986 -0.2085
 3552TIP3   OH210619   6.770   0.140   0.878  0.5151 -0.5089  0.4722
 3552TIP3    H110620   6.773   0.231   0.848  0.4458 -0.4484  0.6467
 3552TIP3    H210621   6.821   0.092   0.813  0.8471 -0.2914  0.5710
 3553TIP3   OH210622   5.732   4.252   2.755 -0.8604  0.2054  0.1472
 3553TIP3    H110623   5.792   4.179   2.747 -1.6025 -0.4811  0.6783
 3553TIP3    H210624   5.646   4.215   2.736 -1.3311  0.7677  1.1003
 3554TIP3   OH210625   5.898   1.150   3.124 -0.2423 -0.2793 -0.0157
 3554TIP3    H110626   5.954   1.093   3.071 -0.4300 -0.8519  0.3971
 3554TIP3    H210627   5.819   1.099   3.139 -0.3182 -0.0017  0.5577
 3555TIP3   OH210628   5.110   3.660   5.871  0.8322  0.0293 -0.0304
 3555TIP3    H110629   5.172   3.598   5.910 -0.2573 -0.6434  0.6913
 3555TIP3    H210630   5.024   3.627   5.898  0.2031  1.4582 -0.2403
 3556TIP3   OH210631   6.242   5.311   2.574 -0.2801 -0.4596  0.4149
 3556TIP3    H110632   6.337   5.306   2.587 -0.3835 -1.2408  0.9350
 3556TIP3    H210633   6.231   5.320   2.479  0.4134  2.8254  0.5095
 3557TIP3   OH210634   6.869   4.979   0.726  0.3203 -0.1887  0.7021
 3557TIP3    H110635   6.914   4.900   0.755 -0.4736 -0.9652 -0.1061
 3557TIP3    H210636   6.877   4.976   0.630 -1.7204 -0.5486  0.5098
 3558TIP3   OH210637   0.059   6.062   5.854 -0.5195  0.3688 -0.4969
 3558TIP3    H110638   0.014   5.994   5.904 -0.4238  1.1297  0.6549
 3558TIP3    H210639   0.049   6.035   5.762 -1.2687 -0.7042 -0.1162
 3559TIP3   OH210640   2.042   1.200   2.736 -0.2092  0.2003 -0.0775
 3559TIP3    H110641   2.124   1.247   2.748 -0.5969  1.3358 -1.6095
 3559TIP3    H210642   2.042   1.173   2.645 -1.1831 -0.4756  0.1043
 3560TIP3   OH210643   3.599   5.178   0.916 -0.0666 -0.6711 -0.3850
 3560TIP3    H110644   3.571   5.217   0.999 -0.4254 -0.3045 -0.6762
 3560TIP3    H210645   3.666   5.113   0.941 -1.1689 -1.5705  0.3258
 3561TIP3   OH210646   6.336   2.475   2.646 -0.1183 -0.0089 -0.4596
 3561TIP3    H110647   6.264   2.424   2.684  2.1104 -1.2795  2.3981
 3561TIP3    H210648   6.355   2.542   2.711  1.9034 -0.3629 -0.6131
 3562TIP3   OH210649   2.437   2.981   1.392  0.3238  0.3296  0.2811
 3562TIP3    H110650   2.440   3.060   1.447 -1.2637  0.9781 -0.4904
 3562TIP3    H210651   2.521   2.982   1.345  1.1982  0.4129  1.7748
 3563TIP3   OH210652   4.565   4.259   1.788 -0.3216  0.1543 -0.0013
 3563TIP3    H110653   4.523   4.251   1.874 -0.4682  0.7180 -0.0164
 3563TIP3    H210654   4.537   4.180   1.740 -1.4886  0.5862 -0.0606
 3564TIP3   OH210655   0.720   1.689   3.616 -0.3880 -0.0587 -0.4605
 3564TIP3    H110656   0.655   1.727   3.556  1.3551 -0.7414 -2.9529
 3564TIP3    H210657   0.730   1.754   3.685 -3.3119  0.2725 -0.2154
 3565TIP3   OH210658   2.632   2.393   5.075  0.0969 -0.0059  0.2848
 3565TIP3    H110659   2.621   2.481   5.041  0.0278  0.2884  1.0472
 3565TIP3    H210660   2.718   2.365   5.044 -1.0880 -0.8614 -2.5145
 3566TIP3   OH210661   6.829   6.254   1.925 -0.0236 -0.1104  0.2314
 3566TIP3    H110662   6.885   6.177   1.912 -0.9159 -0.7823  0.2424
 3566TIP3    H210663   6.885   6.318   1.968  1.8907  0.7102 -3.1996
 3567TIP3   OH210664   7.091   5.472   0.584 -0.0219  0.0459 -0.3863
 3567TIP3    H110665   7.032   5.442   0.653  1.5389 -0.8081  0.6426
 3567TIP3    H210666   7.109   5.564   0.606 -0.1054 -0.0108 -0.0766
 3568TIP3   OH210667   6.533   0.833   3.243 -0.0590  0.0597  0.2243
 3568TIP3    H110668   6.590   0.902   3.277 -0.4009  0.2763  0.3580
 3568TIP3    H210669   6.461   0.827   3.306 -0.1143 -0.3135  0.1330
 3569TIP3   OH210670   5.531   0.769   0.587 -0.1222  0.1907  0.4110
 3569TIP3    H110671   5.510   0.789   0.678 -2.0094  1.8870 -0.3419
 3569TIP3    H210672   5.521   0.674   0.581 -1.4523  0.2114  1.6554
 3570TIP3   OH210673   5.432   6.656   0.407 -0.0270 -0.4085  0.1018
 3570TIP3    H110674   5.349   6.692   0.440 -1.5081  0.9147 -4.3021
 3570TIP3    H210675   5.498   6.687   0.469 -2.5084  0.8192  2.3478
 3571TIP3   OH210676   0.332   4.658   3.377 -0.0981  0.0522  0.0769
 3571TIP3    H110677   0.319   4.589   3.312 -1.0288 -0.7054  1.0429
 3571TIP3    H210678   0.399   4.623   3.435 -1.0365 -0.3308  0.9463
 3572TIP3   OH210679   1.097   3.992   5.330 -0.0627 -0.2608 -0.1188
 3572TIP3    H110680   1.087   4.058   5.261 -0.2810 -1.5594 -1.3970
 3572TIP3    H210681   1.143   3.919   5.287  1.3914 -0.4347  1.6006
 3573TIP3   OH210682   2.787   6.747   2.073  0.2524 -0.8344 -0.3571
 3573TIP3    H110683   2.822   6.744   1.983  0.2718 -0.2948 -0.3740
 3573TIP3    H210684   2.853   6.796   2.122  0.4071 -1.4318  0.0338
 3574TIP3   OH210685   6.477   5.762   3.653 -0.2366 -0.1797 -0.1258
 3574TIP3    H110686   6.532   5.777   3.729 -0.7539 -1.8027  0.6259
 3574TIP3    H210687   6.507   5.825   3.588  2.1890 -0.6657  0.4177
 3575TIP3   OH210688   2.156   1.625   0.684  0.3141 -0.3613 -0.0735
 3575TIP3    H110689   2.208   1.614   0.764 -0.9191 -1.0899  0.6639
 3575TIP3    H210690   2.067   1.641   0.716 -0.1473 -0.3805 -1.3123
 3576TIP3   OH210691   2.455   6.589   5.588 -0.5181  0.1230  0.1147
 3576TIP3    H110692   2.544   6.555   5.598  0.6530  3.1547  1.0023
 3576TIP3    H210693   2.463   6.658   5.522 -2.1710  0.6568  0.4199
 3577TIP3   OH210694   6.694   0.315   0.522  0.9542  0.5835  0.3068
 3577TIP3    H110695   6.612   0.269   0.542  1.1187  0.1719  0.0429
 3577TIP3    H210696   6.724   0.348   0.607  0.9342  0.0326  0.5353
 3578TIP3   OH210697   6.398   2.956   2.908  0.2603 -0.2891 -0.2328
 3578TIP3    H110698   6.402   3.046   2.876 -0.5180  0.4696  1.6559
 3578TIP3    H210699   6.490   2.928   2.913  0.6000  0.8895  0.4017
 3579TIP3   OH210700   4.049   6.082   3.398 -0.1504 -0.7339  0.3682
 3579TIP3    H110701   4.017   6.147   3.335 -0.5537 -1.0491  0.2401
 3579TIP3    H210702   4.022   5.998   3.361  3.0759 -1.2560 -1.0863
 3580TIP3   OH210703   1.131   5.655   1.735 -0.0127 -0.3594 -0.6922
 3580TIP3    H110704   1.185   5.681   1.810  0.8038 -0.5974 -1.1830
 3580TIP3    H210705   1.068   5.592   1.772  1.0294 -1.2554 -0.3722
 3581TIP3   OH210706   4.295   0.850   0.208  0.2110 -0.1386  0.2124
 3581TIP3    H110707   4.378   0.885   0.241  1.3061 -2.1184 -0.2492
 3581TIP3    H210708   4.267   0.789   0.276  0.3257 -1.1575 -0.6303
 3582TIP3   OH210709   0.379   5.225   4.465 -0.0623  0.3501  0.3591
 3582TIP3    H110710   0.398   5.132   4.477  0.5236  0.5792  1.2953
 3582TIP3    H210711   0.399   5.265   4.550  1.1090  1.5754 -0.4665
 3583TIP3   OH210712   6.151   5.841   0.673  0.0470 -0.1648 -0.5174
 3583TIP3    H110713   6.096   5.887   0.610  0.7646 -0.1577 -1.1516
 3583TIP3    H210714   6.217   5.905   0.698 -0.3029 -0.1320  0.3414
 3584TIP3   OH210715   5.035   1.293   2.182  0.2602  0.0812  0.6127
 3584TIP3    H110716   5.109   1.271   2.239  0.0205 -0.3833  0.7465
 3584TIP3    H210717   5.016   1.385   2.203  1.2701  0.4413  0.0434
 3585TIP3   OH210718   1.470   4.219   3.600 -0.1110  0.3481  0.5885
 3585TIP3    H110719   1.464   4.281   3.673  0.7895  0.9017  0.2108
 3585TIP3    H210720   1.558   4.232   3.565 -0.1666 -0.6565  0.0596
 3586TIP3   OH210721   6.670   2.781   0.800  0.4759  0.3320 -0.4183
 3586TIP3    H110722   6.703   2.691   0.806  1.5251  0.7018 -0.4773
 3586TIP3    H210723   6.576   2.770   0.786  0.7318 -0.7837 -1.5389
 3587TIP3   OH210724   0.219   2.738   1.522  0.1658  0.3732 -0.1312
 3587TIP3    H110725   0.294   2.683   1.547  0.7318  1.1079 -0.1872
 3587TIP3    H210726   0.150   2.675   1.499  0.8667 -0.3143 -0.3961
 3588TIP3   OH210727   5.804   0.924   5.820  0.3148 -0.3377 -0.2647
 3588TIP3    H110728   5.837   0.910   5.732 -0.3372 -0.6789 -0.4601
 3588TIP3    H210729   5.812   0.839   5.863  1.0510 -0.0646  0.1540
 3589TIP3   OH210730   3.735   0.524   2.786  0.0091 -0.3116 -0.2277
 3589TIP3    H110731   3.672   0.456   2.810 -2.3351  1.5686 -0.7234
 3589TIP3    H210732   3.712   0.548   2.696  0.4489  1.4288  0.0793
 3590TIP3   OH210733   5.935   6.686   2.004  0.1942  0.0658 -0.3953
 3590TIP3    H110734   5.992   6.615   1.976 -0.3034 -0.8548  0.8594
 3590TIP3    H210735   5.886   6.710   1.926 -1.8777 -3.0916 -0.2402
 3591TIP3   OH210736   1.174   4.265   5.687 -0.0372  0.1519 -0.1806
 3591TIP3    H110737   1.106   4.248   5.621 -0.2886  1.1119 -0.1907
 3591TIP3    H210738   1.253   4.224   5.651  0.0573  1.4219 -1.5391
 3592TIP3   OH210739   3.628   1.379   0.353 -0.3791 -0.0826 -0.2976
 3592TIP3    H110740   3.635   1.318   0.426 -0.6604  2.5331  2.0681
 3592TIP3    H210741   3.712   1.370   0.307 -0.2058 -1.8067  0.2555
 3593TIP3   OH210742   6.226   4.526   3.350 -0.4975 -0.7030 -0.4286
 3593TIP3    H110743   6.163   4.477   3.297 -0.3283 -0.3614 -0.9426
 3593TIP3    H210744   6.310   4.512   3.308 -0.6351  1.1068 -1.3652
 3594TIP3   OH210745   4.627   6.542   1.612  0.1003 -0.1816 -0.0233
 3594TIP3    H110746   4.566   6.480   1.572 -0.8710 -0.0729  1.2262
 3594TIP3    H210747   4.626   6.618   1.554 -1.0909 -0.1152  0.0551
 3595TIP3   OH210748   1.859   2.787   0.101 -0.0432  0.1061  0.5416
 3595TIP3    H110749   1.801   2.770   0.027  0.9866  0.2845 -0.3324
 3595TIP3    H210750   1.814   2.751   0.177 -2.4767  2.3988  0.3227
 3596TIP3   OH210751   0.974   0.774   1.998 -0.1772  0.0014  0.4958
 3596TIP3    H110752   0.894   0.725   2.020  0.0078 -0.1188  0.9100
 3596TIP3    H210753   0.963   0.798   1.907 -0.8989  0.3860  0.6793
 3597TIP3   OH210754   3.788   1.700   0.258  0.4409 -0.3488 -0.7699
 3597TIP3    H110755   3.876   1.671   0.235  0.3572 -1.8210  0.5909
 3597TIP3    H210756   3.730   1.651   0.200  0.4357 -0.9972 -0.2344
 3598TIP3   OH210757   3.315   5.732   5.362  0.7950 -0.2310 -0.2227
 3598TIP3    H110758   3.302   5.686   5.278 -0.5409  0.9963 -0.7156
 3598TIP3    H210759   3.276   5.818   5.349  2.3290  0.7079  1.0359
 3599TIP3   OH210760   1.067   1.017   0.486 -0.1981 -0.0379 -0.0086
 3599TIP3    H110761   1.136   1.064   0.438 -0.3425  0.2358  0.0510
 3599TIP3    H210762   1.104   0.931   0.502  0.8529  0.6723  1.6163
 3600TIP3   OH210763   5.924   3.123   2.917 -0.6029 -0.1353 -0.3296
 3600TIP3    H110764   5.838   3.121   2.960  0.0307  0.1972  0.9970
 3600TIP3    H210765   5.949   3.032   2.909 -1.8958 -0.3644 -2.4821
 3601TIP3   OH210766   1.715   3.920   4.300  0.4554  0.5986  0.3161
 3601TIP3    H110767   1.678   3.836   4.271  0.6848  0.5842  0.0627
 3601TIP3    H210768   1.801   3.897   4.335  0.7901  0.8099 -0.3473
 3602TIP3   OH210769   6.257   4.700   0.802 -0.0036 -0.9178  0.2057
 3602TIP3    H110770   6.265   4.610   0.835  2.0515 -0.8478  0.0320
 3602TIP3    H210771   6.276   4.755   0.878 -1.3687 -0.5932  0.3376
 3603TIP3   OH210772   2.879   2.928   1.502 -0.7006  0.7573  0.0347
 3603TIP3    H110773   2.793   2.932   1.545 -0.3099  1.1875  0.7928
 3603TIP3    H210774   2.911   2.839   1.519 -0.3051  1.1019  1.1230
 3604TIP3   OH210775   2.965   1.564   4.561  0.2462 -0.8603 -0.2196
 3604TIP3    H110776   3.043   1.508   4.563  0.4512 -0.5638  1.3138
 3604TIP3    H210777   2.894   1.504   4.539  0.8822 -1.1210 -1.7225
 3605TIP3   OH210778   5.875   1.179   4.462 -0.5897  0.0001  0.1118
 3605TIP3    H110779   5.936   1.127   4.410 -1.1039 -0.4891 -0.0112
 3605TIP3    H210780   5.925   1.256   4.488  0.1429 -0.4924  0.1809
 3606TIP3   OH210781   5.751   3.767   4.964 -0.4365 -0.2968 -0.3621
 3606TIP3    H110782   5.838   3.733   4.940  0.8382  2.3511  0.0277
 3606TIP3    H210783   5.719   3.809   4.884 -1.0999 -0.7622 -0.3436
 3607TIP3   OH210784   2.219   5.040   2.132 -0.0499 -0.3711 -0.3246
 3607TIP3    H110785   2.135   5.036   2.179  0.1122 -0.0191  0.0001
 3607TIP3    H210786   2.257   5.124   2.159  0.1921 -0.3120 -0.8380
 3608TIP3   OH210787   2.759   0.489   4.131  0.2528  0.3269 -0.3293
 3608TIP3    H110788   2.831   0.452   4.080  1.5773  0.3710  1.4283
 3608TIP3    H210789   2.680   0.451   4.091  1.4074 -2.8857  0.1124
 3609TIP3   OH210790   6.499   3.631   0.022 -0.3665 -0.1564  0.1508
 3609TIP3    H110791   6.579   3.589   0.053 -0.0216  0.4872  0.1537
 3609TIP3    H210792   6.488   3.708   0.079 -1.0599 -0.3035  0.2360
 3610TIP3   OH210793   1.326   1.462   4.225  0.2084 -0.1466 -0.1482
 3610TIP3    H110794   1.274   1.467   4.306 -2.3268  0.7071 -1.7177
 3610TIP3    H210795   1.386   1.537   4.231 -0.1986  0.1294  0.7724
 3611TIP3   OH210796   4.681   3.229   0.769  0.0944 -0.4656 -0.4161
 3611TIP3    H110797   4.667   3.134   0.772  1.3537 -0.6879 -0.8333
 3611TIP3    H210798   4.768   3.241   0.808 -0.1946  0.5593 -0.0579
 3612TIP3   OH210799   3.498   5.475   1.674  1.0613  0.5749  0.5185
 3612TIP3    H110800   3.560   5.436   1.735  1.4793 -0.7636 -0.7206
 3612TIP3    H210801   3.552   5.530   1.617  1.1319 -0.5509 -0.5299
 3613TIP3   OH210802   2.063   1.058   2.492  0.4557 -0.0072  0.4849
 3613TIP3    H110803   1.976   1.055   2.454  1.3750 -0.9750 -1.6777
 3613TIP3    H210804   2.080   0.969   2.522  0.9995 -0.0256  0.1432
 3614TIP3   OH210805   1.394   3.724   1.774  0.5303  0.5374 -0.5376
 3614TIP3    H110806   1.344   3.643   1.784  1.0661  0.0557 -1.5992
 3614TIP3    H210807   1.329   3.789   1.747 -0.1733  0.8524  1.7687
 3615TIP3   OH210808   5.792   2.827   0.625 -0.1293  0.6276 -0.1507
 3615TIP3    H110809   5.753   2.801   0.542  0.8386 -0.4013 -0.3098
 3615TIP3    H210810   5.799   2.746   0.675  3.4322  0.3023 -0.8471
 3616TIP3   OH210811   5.363   1.926   0.394  0.3169 -0.4498  0.0543
 3616TIP3    H110812   5.397   1.856   0.449 -1.4182 -1.9485 -0.6528
 3616TIP3    H210813   5.325   1.989   0.455 -0.9842 -1.7524  0.6618
 3617TIP3   OH210814   4.478   3.966   5.624  0.3169 -0.7390 -0.3203
 3617TIP3    H110815   4.415   3.982   5.695  2.2307 -2.6814  1.9671
 3617TIP3    H210816   4.541   4.038   5.632  0.7591 -1.1811  0.2624
 3618TIP3   OH210817   5.319   3.713   5.483 -0.5647 -0.0763  0.7890
 3618TIP3    H110818   5.278   3.640   5.436  0.3347 -1.1770  1.6453
 3618TIP3    H210819   5.384   3.747   5.421  1.3245 -2.1709  1.4924
 3619TIP3   OH210820   3.375   0.489   2.885  0.8955  0.3939  0.2791
 3619TIP3    H110821   3.445   0.424   2.891 -0.7417 -1.5726 -0.6371
 3619TIP3    H210822   3.305   0.454   2.940 -0.5220  0.6774 -1.2600
 3620TIP3   OH210823   1.990   1.251   4.971 -0.2461  0.1021  0.3211
 3620TIP3    H110824   2.055   1.183   4.954  0.7706  0.4373  2.5791
 3620TIP3    H210825   1.906   1.209   4.951  0.4453 -1.4061  0.4993
 3621TIP3   OH210826   2.008   0.608   4.917 -0.0434  0.2168 -0.3979
 3621TIP3    H110827   1.973   0.578   5.001 -1.0868  0.7053 -0.6531
 3621TIP3    H210828   1.935   0.601   4.856  0.6156  0.1852 -1.2047
 3622TIP3   OH210829   0.443   2.736   1.145 -0.1718 -0.2201 -0.3456
 3622TIP3    H110830   0.407   2.748   1.057  0.0667 -0.2299 -0.4454
 3622TIP3    H210831   0.367   2.734   1.202 -0.2631  1.1908 -0.3796
 3623TIP3   OH210832   3.194   5.516   4.147  0.2247  0.4327 -0.0482
 3623TIP3    H110833   3.180   5.425   4.170  1.0123  0.7489  1.9118
 3623TIP3    H210834   3.208   5.516   4.052  0.9911 -1.5801  0.0255
 3624TIP3   OH210835   6.626   1.974   5.711 -0.0856 -1.0458  0.1051
 3624TIP3    H110836   6.698   2.030   5.683 -1.6320 -0.0871 -2.2718
 3624TIP3    H210837   6.631   1.974   5.807  1.8433  0.6191  0.0647
 3625TIP3   OH210838   6.132   4.283   5.471  0.6021  0.3622  0.3171
 3625TIP3    H110839   6.040   4.300   5.493  0.5436 -0.3466  0.6481
 3625TIP3    H210840   6.181   4.321   5.544  0.5351  0.1558  0.4706
 3626TIP3   OH210841   2.414   5.943   1.581  0.1280  0.5120 -0.3223
 3626TIP3    H110842   2.392   5.990   1.661 -1.4274 -0.7595  0.0597
 3626TIP3    H210843   2.488   5.991   1.544  2.4159 -0.1266  2.9799
 3627TIP3   OH210844   2.497   6.640   4.441  0.0658  0.0618  0.5519
 3627TIP3    H110845   2.417   6.597   4.411 -0.3046  1.8380 -1.1928
 3627TIP3    H210846   2.494   6.632   4.536 -0.3567 -2.9769  0.4061
 3628TIP3   OH210847   4.452   5.155   0.284  0.3592  0.3732 -0.3026
 3628TIP3    H110848   4.485   5.066   0.273  1.2771  0.7228 -0.4734
 3628TIP3    H210849   4.418   5.157   0.374  0.5562 -0.0822 -0.2163
 3629TIP3   OH210850   4.950   1.353   3.337 -0.3159 -0.2847 -0.5180
 3629TIP3    H110851   4.958   1.319   3.248 -1.8048  0.4419 -0.9575
 3629TIP3    H210852   4.947   1.275   3.392  0.8873 -0.7363 -1.0532
 3630TIP3   OH210853   3.504   0.553   1.842 -0.3740 -0.1948 -0.0502
 3630TIP3    H110854   3.575   0.521   1.897  0.1564  0.7740 -0.1454
 3630TIP3    H210855   3.456   0.474   1.816  1.4266 -1.0159 -1.0477
 3631TIP3   OH210856   3.340   1.202   1.150  0.1067  0.4155 -0.3663
 3631TIP3    H110857   3.289   1.139   1.099  1.1796 -1.3582  0.6142
 3631TIP3    H210858   3.407   1.233   1.090  0.1769 -0.1627 -0.5954
 3632TIP3   OH210859   5.096   1.911   1.322  0.3175 -0.2643  0.5624
 3632TIP3    H110860   5.103   1.983   1.384  0.2218 -0.8456  1.2573
 3632TIP3    H210861   5.077   1.834   1.376  0.5194 -0.8309 -0.1583
 3633TIP3   OH210862   5.257   5.214   2.696  0.3581  0.2808  0.7501
 3633TIP3    H110863   5.253   5.200   2.791 -0.4192  0.9267  0.8199
 3633TIP3    H210864   5.235   5.306   2.684  1.4573  0.4631  0.0054
 3634TIP3   OH210865   3.382   1.983   3.427  0.0147 -0.0193  0.1758
 3634TIP3    H110866   3.319   2.040   3.470 -0.9298 -1.7389  1.2059
 3634TIP3    H210867   3.401   2.026   3.344 -0.8493  1.6224  0.7916
 3635TIP3   OH210868   0.927   4.746   5.747  0.2118 -0.0936 -0.0333
 3635TIP3    H110869   0.856   4.709   5.696 -1.7472 -3.0028  4.2412
 3635TIP3    H210870   0.977   4.670   5.777  1.5208  1.4260  1.8981
 3636TIP3   OH210871   6.318   1.912   0.765 -0.2664 -0.0387  0.6116
 3636TIP3    H110872   6.227   1.928   0.792 -0.0760  1.4558  0.4834
 3636TIP3    H210873   6.312   1.893   0.671 -0.4950 -0.4127  0.7022
 3637TIP3   OH210874   5.088   3.753   1.180 -0.2139 -0.1550 -0.1200
 3637TIP3    H110875   5.068   3.843   1.154 -0.5338 -0.2837 -0.3239
 3637TIP3    H210876   5.161   3.728   1.122  2.7043  1.3260  2.5898
 3638TIP3   OH210877   3.023   3.227   0.443  0.6375  0.1713  0.8753
 3638TIP3    H110878   2.990   3.137   0.449 -1.2394  0.5874 -1.7228
 3638TIP3    H210879   3.091   3.224   0.377 -0.7256  0.9145 -0.6321
 3639TIP3   OH210880   5.216   4.084   4.793 -0.3501 -0.4178  0.0489
 3639TIP3    H110881   5.257   4.038   4.866  1.3169  0.0880 -0.5268
 3639TIP3    H210882   5.208   4.174   4.823  0.9365 -0.0682 -0.5861
 3640TIP3   OH210883   2.752   1.833   3.282 -0.1647  0.0912  0.2961
 3640TIP3    H110884   2.661   1.808   3.264 -1.0322  1.7591  1.9992
 3640TIP3    H210885   2.747   1.924   3.309  2.0769  0.3003  0.2186
 3641TIP3   OH210886   3.664   1.721   1.416 -0.2659  0.2821 -0.0785
 3641TIP3    H110887   3.594   1.708   1.352  0.3312 -0.2456 -0.6418
 3641TIP3    H210888   3.709   1.636   1.420  1.5096  1.1190 -1.1370
 3642TIP3   OH210889   5.513   3.573   4.772 -0.8524  0.6778  0.0662
 3642TIP3    H110890   5.429   3.566   4.726 -0.8276 -0.9616  0.2124
 3642TIP3    H210891   5.578   3.567   4.702 -0.8280 -1.1603  0.1987
 3643TIP3   OH210892   5.419   0.896   2.794  0.3916  0.2935 -0.6306
 3643TIP3    H110893   5.489   0.890   2.729  1.3975  0.6370  0.3710
 3643TIP3    H210894   5.409   0.806   2.826 -0.0912  0.1278 -1.2389
 3644TIP3   OH210895   0.594   4.776   2.887 -0.5575 -0.4381  0.3020
 3644TIP3    H110896   0.605   4.794   2.794  0.0325 -0.0410  0.4448
 3644TIP3    H210897   0.527   4.708   2.890  0.7155 -1.7879 -0.5198
 3645TIP3   OH210898   4.599   5.720   1.993 -0.2078  0.5320 -0.1223
 3645TIP3    H110899   4.509   5.729   1.962 -0.2536 -1.4606 -0.6852
 3645TIP3    H210900   4.596   5.645   2.053  1.1926  0.0588 -0.6214
 3646TIP3   OH210901   4.325   6.504   0.451  0.0375 -0.3130  0.0380
 3646TIP3    H110902   4.258   6.485   0.384 -2.4574  1.5704  1.7872
 3646TIP3    H210903   4.336   6.422   0.498 -0.5216 -0.8495 -0.7322
 3647TIP3   OH210904   5.508   6.555   2.621  0.3080  0.4301  0.2281
 3647TIP3    H110905   5.449   6.547   2.696 -0.3658  0.8930 -0.2426
 3647TIP3    H210906   5.589   6.592   2.658 -0.4505  1.8458  0.5396
 3648TIP3   OH210907   3.320   6.057   3.161  0.6478 -0.2642  0.2618
 3648TIP3    H110908   3.281   6.144   3.171  2.5532  0.5949  0.6941
 3648TIP3    H210909   3.298   6.032   3.071 -1.3758 -0.1356  0.6578
 3649TIP3   OH210910   0.579   2.558   4.426  0.0949 -0.2462 -0.1104
 3649TIP3    H110911   0.663   2.531   4.462 -0.5892  0.1744  1.9090
 3649TIP3    H210912   0.559   2.641   4.469 -0.9339  0.1221 -1.2325
 3650TIP3   OH210913   1.451   2.181   0.775  0.2427  0.9414 -0.5676
 3650TIP3    H110914   1.462   2.239   0.850  0.8362 -0.9339  0.8702
 3650TIP3    H210915   1.514   2.214   0.711  0.7919  1.6869  0.3176
 3651TIP3   OH210916   6.896   3.900   0.268 -0.5382  0.3903  0.6165
 3651TIP3    H110917   6.881   3.966   0.336 -0.7818 -0.4334  1.3771
 3651TIP3    H210918   6.928   3.951   0.193 -1.4466  1.4671  0.9178
 3652TIP3   OH210919   0.475   2.112   0.166  0.3460 -0.1021 -0.5149
 3652TIP3    H110920   0.518   2.177   0.221  2.4571 -1.1618 -0.8264
 3652TIP3    H210921   0.392   2.094   0.210  0.5813  1.3743  0.5957
 3653TIP3   OH210922   4.689   1.711   2.130 -0.3943 -0.0689  0.5138
 3653TIP3    H110923   4.662   1.796   2.094 -1.3673  0.1801  1.7932
 3653TIP3    H210924   4.712   1.730   2.221 -0.3972 -1.1517  0.7475
 3654TIP3   OH210925   0.259   5.281   2.206 -0.6530 -0.1724 -0.4215
 3654TIP3    H110926   0.264   5.286   2.111 -2.2797  1.3912 -0.4591
 3654TIP3    H210927   0.259   5.372   2.235 -1.7376 -0.5881  0.9773
 3655TIP3   OH210928   6.892   1.194   4.694 -0.4135  0.1430 -0.1083
 3655TIP3    H110929   6.959   1.244   4.741 -0.0667  1.8346 -2.2236
 3655TIP3    H210930   6.922   1.194   4.603 -1.5185 -2.1668 -0.5268
 3656TIP3   OH210931   4.905   3.082   4.573 -0.3162 -0.4324  0.6238
 3656TIP3    H110932   4.833   3.134   4.607  0.8027  3.1796 -1.9872
 3656TIP3    H210933   4.911   3.007   4.634 -4.0040  0.8109  2.8514
 3657TIP3   OH210934   3.587   6.487   0.106 -0.1164 -0.1078  0.1517
 3657TIP3    H110935   3.569   6.463   0.015 -0.9298  0.8303  0.0428
 3657TIP3    H210936   3.519   6.443   0.156  1.3538 -2.0683  0.5521
 3658TIP3   OH210937   6.901   4.127   1.724  0.0247  0.4046 -0.2708
 3658TIP3    H110938   6.859   4.165   1.801  0.3177 -0.4657  0.3347
 3658TIP3    H210939   6.911   4.201   1.664 -3.2652  0.5011 -0.8828
 3659TIP3   OH210940   4.872   4.033   2.207 -0.0340 -0.5325  0.1072
 3659TIP3    H110941   4.948   3.988   2.168  0.1870 -0.8884  0.9304
 3659TIP3    H210942   4.909   4.086   2.277 -0.5136 -0.4817  0.3243
 3660TIP3   OH210943   5.272   5.707   0.401  0.3864 -0.3578  0.4734
 3660TIP3    H110944   5.255   5.762   0.478 -1.3795 -1.3097  0.8118
 3660TIP3    H210945   5.328   5.636   0.435  2.8224  1.2314 -0.0040
 3661TIP3   OH210946   4.745   5.673   5.254 -0.0556  0.7809  0.1038
 3661TIP3    H110947   4.833   5.653   5.284 -0.3460  0.6233  0.8606
 3661TIP3    H210948   4.758   5.723   5.173  0.7350  1.4035  0.6002
 3662TIP3   OH210949   3.484   4.896   2.556 -0.0046  0.3066 -0.6436
 3662TIP3    H110950   3.539   4.869   2.629  0.0987  3.0618  0.4024
 3662TIP3    H210951   3.527   4.859   2.478  1.8718  0.2359  0.3768
 3663TIP3   OH210952   0.039   6.748   4.433  0.1627 -0.2858 -0.2499
 3663TIP3    H110953  -0.026   6.766   4.501 -0.3965  1.5742 -1.2140
 3663TIP3    H210954   0.004   6.673   4.386 -0.7021 -0.0546 -0.0018
 3664TIP3   OH210955   2.910   4.426   1.531 -0.4166  0.3007 -0.0005
 3664TIP3    H110956   2.834   4.392   1.484 -0.4075  0.0305  0.1760
 3664TIP3    H210957   2.981   4.425   1.467 -0.1355 -1.0840  0.3041
 3665TIP3   OH210958   0.251   2.127   4.797 -0.7437  0.0925  0.3866
 3665TIP3    H110959   0.263   2.215   4.832 -2.7891  0.5104  0.1704
 3665TIP3    H210960   0.325   2.077   4.832 -0.0794  1.6493  1.3193
 3666TIP3   OH210961   4.989   4.742   0.572  0.6927  0.1088  0.2599
 3666TIP3    H110962   5.076   4.726   0.608  0.9254 -1.6830 -0.9496
 3666TIP3    H210963   4.947   4.656   0.572  0.7971 -0.1587 -3.7852
 3667TIP3   OH210964   3.661   2.695   4.546 -0.0820 -0.4088 -0.2995
 3667TIP3    H110965   3.646   2.773   4.599 -1.0112 -0.0162 -1.1167
 3667TIP3    H210966   3.623   2.716   4.461 -1.5485 -2.2368 -0.1659
 3668TIP3   OH210967   5.942   5.051   3.335  0.3434 -0.5624  0.8533
 3668TIP3    H110968   6.004   5.070   3.264  1.9766  2.7303  2.9055
 3668TIP3    H210969   5.875   5.120   3.327 -0.3059 -1.0868  1.6228
 3669TIP3   OH210970   1.147   3.923   3.402 -0.1636 -0.5239 -0.8856
 3669TIP3    H110971   1.083   3.865   3.360 -1.3193 -0.0220  0.1129
 3669TIP3    H210972   1.094   3.983   3.454  1.1258  0.0007 -0.1309
 3670TIP3   OH210973   1.545   4.460   4.997 -0.7105 -0.5449 -0.5968
 3670TIP3    H110974   1.600   4.539   4.991 -2.3855  0.7687  0.4775
 3670TIP3    H210975   1.606   4.392   5.024  0.2954  1.0642  1.5133
 3671TIP3   OH210976   1.927   0.789   1.620 -0.2997 -0.4753  0.0607
 3671TIP3    H110977   1.878   0.735   1.558 -0.6943 -0.4940  0.3814
 3671TIP3    H210978   1.908   0.750   1.706  0.4291 -0.5963  0.1729
 3672TIP3   OH210979   6.475   4.172   3.199  0.8416  0.2415 -0.8877
 3672TIP3    H110980   6.478   4.257   3.243  1.0948 -0.4387  0.4443
 3672TIP3    H210981   6.395   4.175   3.146 -1.6981 -0.3244  2.5931
 3673TIP3   OH210982   6.089   2.086   3.161  0.6474  1.0233 -0.2323
 3673TIP3    H110983   6.171   2.100   3.207  1.0896 -0.0282 -0.6693
 3673TIP3    H210984   6.047   2.014   3.209  1.2799 -0.3298 -1.6576
 3674TIP3   OH210985   2.004   1.483   4.586  0.7256 -0.3104  0.1518
 3674TIP3    H110986   2.089   1.441   4.601  0.2619 -1.1431  0.5431
 3674TIP3    H210987   2.010   1.567   4.631  1.1291 -0.6271  0.7021
 3675TIP3   OH210988   4.079   3.088   0.446  0.8768 -0.0861  0.3409
 3675TIP3    H110989   4.025   3.011   0.429  0.5359  0.0543  0.7511
 3675TIP3    H210990   4.104   3.081   0.538 -0.5404  1.1054  0.8669
 3676TIP3   OH210991   0.083   0.284   4.237  0.6190  0.0667 -0.5405
 3676TIP3    H110992   0.150   0.346   4.264  1.3648 -0.6521 -0.7198
 3676TIP3    H210993   0.105   0.262   4.146 -0.8796  1.1586 -1.2266
 3677TIP3   OH210994   4.993   5.950   0.853 -0.0748  0.0641  0.3225
 3677TIP3    H110995   4.980   5.879   0.790  0.9547 -0.6268  0.8627
 3677TIP3    H210996   5.071   5.925   0.902  0.9591  2.1157 -0.1844
 3678TIP3   OH210997   6.545   4.897   2.786  0.0207 -0.4792 -0.2765
 3678TIP3    H110998   6.533   4.814   2.832 -0.2300 -0.1243  0.3140
 3678TIP3    H210999   6.568   4.959   2.856 -4.3936  1.0358  0.0833
 3679TIP3   OH211000   4.525   4.302   4.126  0.2514 -0.2922 -0.4409
 3679TIP3    H111001   4.437   4.282   4.158  0.5426  0.2992  0.7877
 3679TIP3    H211002   4.536   4.395   4.143 -0.7340  1.0004 -5.2005
 3680TIP3   OH211003   4.792   1.679   0.141 -0.1860 -0.5698 -0.4612
 3680TIP3    H111004   4.863   1.736   0.171  1.5648 -1.7730 -2.0597
 3680TIP3    H211005   4.811   1.665   0.048 -2.2221 -1.4065 -0.7917
 3681TIP3   OH211006   0.213   6.547   3.882 -0.0300 -0.0766 -0.3497
 3681TIP3    H111007   0.300   6.527   3.916 -0.4282  0.1719  0.8576
 3681TIP3    H211008   0.192   6.633   3.919  0.3902  1.2565 -2.9616
 3682TIP3   OH211009   3.586   4.472   2.052 -0.2603 -0.3853 -0.0231
 3682TIP3    H111010   3.496   4.452   2.078 -0.4664  0.6530  0.1217
 3682TIP3    H211011   3.640   4.416   2.108 -0.7606  0.5077  1.3925
 3683TIP3   OH211012   1.290   5.740   5.693  0.7948 -0.8766  0.6593
 3683TIP3    H111013   1.237   5.760   5.616 -0.5090  2.2358  2.1809
 3683TIP3    H211014   1.359   5.683   5.660 -1.8527 -2.8520 -1.9800
 3684TIP3   OH211015   4.008   0.065   4.038 -0.2615  0.6289  0.1488
 3684TIP3    H111016   3.916   0.050   4.019  0.0763  0.5944 -1.7047
 3684TIP3    H211017   4.054  -0.005   3.990  0.7432  0.9801  0.5716
 3685TIP3   OH211018   5.412   1.663   2.388  0.9138  0.2127 -0.0925
 3685TIP3    H111019   5.324   1.697   2.410  1.0456  0.9634 -0.6952
 3685TIP3    H211020   5.420   1.584   2.441 -0.3807 -0.2180 -0.4934
 3686TIP3   OH211021   3.159   0.631   3.302  0.0685  0.0417 -0.4239
 3686TIP3    H111022   3.253   0.636   3.283  0.2695 -1.6352 -0.0637
 3686TIP3    H211023   3.117   0.639   3.216  0.6343 -0.7579 -0.7913
 3687TIP3   OH211024   6.785   0.863   0.832 -0.1600 -0.2898 -0.1688
 3687TIP3    H111025   6.826   0.812   0.902 -0.9138  0.5326  0.9193
 3687TIP3    H211026   6.798   0.811   0.753  1.9916 -0.5664  0.3085
 3688TIP3   OH211027   3.701   0.607   4.851  0.3083  0.2568 -0.2674
 3688TIP3    H111028   3.795   0.614   4.867  0.1890  0.1953  0.4629
 3688TIP3    H211029   3.690   0.524   4.805  0.3489 -0.9294  1.7676
 3689TIP3   OH211030   6.565   5.050   4.992 -0.0610 -0.6762 -0.0268
 3689TIP3    H111031   6.565   4.964   4.950 -1.6493  0.8368 -3.6789
 3689TIP3    H211032   6.657   5.073   5.000  0.3714 -1.8330 -1.2018
 3690TIP3   OH211033   3.167   1.824   1.712  0.2794 -0.4130  0.4998
 3690TIP3    H111034   3.211   1.816   1.627 -0.7390  0.7053 -0.1635
 3690TIP3    H211035   3.184   1.914   1.739 -0.8600 -0.2329  0.6417
 3691TIP3   OH211036   0.092   2.197   3.489 -0.1365  0.5304 -0.1442
 3691TIP3    H111037   0.051   2.135   3.549  1.1154 -0.3690 -0.1818
 3691TIP3    H211038   0.039   2.191   3.409 -0.7249  0.3782  0.2550
 3692TIP3   OH211039   5.943   3.905   4.023 -0.3156  0.0061 -0.3202
 3692TIP3    H111040   5.955   3.914   3.928  0.1354 -0.8421 -0.3503
 3692TIP3    H211041   5.931   3.995   4.054  0.6309  0.3974 -1.0374
 3693TIP3   OH211042   6.083   3.789   2.716  0.1692  0.2521  0.0856
 3693TIP3    H111043   6.078   3.721   2.784 -0.0216  0.1521 -0.0309
 3693TIP3    H211044   6.026   3.859   2.748 -1.0993 -0.4037 -0.6783
 3694TIP3   OH211045   4.133   0.162   0.995  0.7062  0.6766 -0.1508
 3694TIP3    H111046   4.124   0.160   0.900  1.0635 -0.5153 -0.1745
 3694TIP3    H211047   4.144   0.255   1.016  0.0710  1.0162 -1.2087
 3695TIP3   OH211048   6.864   6.008   0.618 -0.2936 -0.1364  0.2552
 3695TIP3    H111049   6.777   6.042   0.640  0.2568  2.1791 -0.8838
 3695TIP3    H211050   6.914   6.015   0.699 -0.4442  1.0738  0.2663
 3696TIP3   OH211051   1.993   6.139   5.490  0.5196 -0.2754  0.4455
 3696TIP3    H111052   1.976   6.233   5.497  0.2803 -0.3234  0.5113
 3696TIP3    H211053   1.909   6.098   5.510 -0.1285 -0.4514 -2.2767
 3697TIP3   OH211054   6.164   3.967   2.276 -0.7792  0.4804  0.3255
 3697TIP3    H111055   6.187   3.926   2.192 -2.4454  0.8221 -0.3484
 3697TIP3    H211056   6.082   3.924   2.301 -0.3894  0.5063  1.7211
 3698TIP3   OH211057   6.870   1.879   2.006 -0.3191  0.1972  0.1921
 3698TIP3    H111058   6.961   1.883   2.033 -0.6969  0.2488  1.4984
 3698TIP3    H211059   6.835   1.966   2.024 -0.7033  0.0893 -0.0153
 3699TIP3   OH211060   5.974   5.331   1.717 -0.0585  0.3867  0.1457
 3699TIP3    H111061   5.931   5.296   1.640  2.5213  0.7168 -1.5686
 3699TIP3    H211062   5.932   5.416   1.732 -2.6477 -0.9465  1.0678
 3700TIP3   OH211063   5.756   2.077   4.683 -0.4178 -0.0587 -0.0503
 3700TIP3    H111064   5.846   2.045   4.671 -0.3194  0.5865 -1.1598
 3700TIP3    H211065   5.733   2.116   4.599 -2.0019 -0.8280 -0.0044
 3701TIP3   OH211066   5.310   4.277   2.153 -0.6103  0.2546  0.4942
 3701TIP3    H111067   5.340   4.330   2.226 -0.2025  0.7976 -0.0561
 3701TIP3    H211068   5.271   4.340   2.092  0.0571 -0.0456 -0.2588
 3702TIP3   OH211069   2.243   4.608   4.893 -0.4613 -0.0599 -0.4046
 3702TIP3    H111070   2.319   4.640   4.941 -0.0202 -1.1417 -0.3445
 3702TIP3    H211071   2.201   4.686   4.857 -0.4981  0.7387  1.2903
 3703TIP3   OH211072   4.108   3.367   1.931  0.0514 -0.1348 -0.3032
 3703TIP3    H111073   4.168   3.379   1.857  0.3693 -0.2802 -0.0733
 3703TIP3    H211074   4.153   3.304   1.987 -1.3774 -2.1320 -1.2835
 3704TIP3   OH211075   3.749   0.090   3.390  0.4517 -0.2402  0.2903
 3704TIP3    H111076   3.844   0.096   3.382  0.4484  0.9326  0.8796
 3704TIP3    H211077   3.723   0.173   3.430 -0.8298 -0.5185  0.0861
 3705TIP3   OH211078   0.713   1.018   3.419 -0.3379 -0.5710  0.2677
 3705TIP3    H111079   0.751   0.952   3.476  2.2161  0.9266  0.4355
 3705TIP3    H211080   0.707   1.097   3.474  1.0172  0.5601 -1.1082
 3706TIP3   OH211081   2.380   4.633   3.876 -0.1785  0.1007 -0.4784
 3706TIP3    H111082   2.311   4.619   3.811  0.4152  0.9566 -1.3203
 3706TIP3    H211083   2.377   4.727   3.894 -0.8311 -0.2159  1.3360
 3707TIP3   OH211084   5.504   5.108   5.221  0.1014  0.1856 -0.6741
 3707TIP3    H111085   5.493   5.198   5.189 -0.8211  0.6892  0.9569
 3707TIP3    H211086   5.527   5.119   5.313  0.3797 -1.2647 -0.5573
 3708TIP3   OH211087   1.112   5.470   5.326  0.0977 -0.0268  0.1618
 3708TIP3    H111088   1.138   5.516   5.246 -1.3294 -0.1105 -0.3778
 3708TIP3    H211089   1.025   5.435   5.306  0.0714 -0.7525  1.4689
 3709TIP3   OH211090   3.536   0.125   0.944 -0.1263 -0.1716 -0.1282
 3709TIP3    H111091   3.596   0.159   0.877 -0.2592  1.8793  0.7200
 3709TIP3    H211092   3.456   0.177   0.932 -1.2921 -1.9297 -0.3530
 3710TIP3   OH211093   5.757   1.448   2.088  0.1282 -0.1532 -0.7844
 3710TIP3    H111094   5.680   1.426   2.034 -0.8265 -0.7692  0.7620
 3710TIP3    H211095   5.746   1.395   2.167  0.6896  1.8017  0.6640
 3711TIP3   OH211096   3.662   1.726   1.918 -0.4012  0.0695 -0.1876
 3711TIP3    H111097   3.627   1.680   1.994 -0.4029  0.3306 -0.0249
 3711TIP3    H211098   3.660   1.662   1.847 -2.3790  0.4172 -0.5196
 3712TIP3   OH211099   3.062   6.468   5.603  0.3051 -0.4156 -0.6675
 3712TIP3    H111100   3.107   6.549   5.625 -1.2534  0.1203  0.7956
 3712TIP3    H211101   3.099   6.403   5.662 -0.8829  0.0629  0.6588
 3713TIP3   OH211102   3.108   3.064   0.974  0.1262 -0.4344  0.1275
 3713TIP3    H111103   3.179   3.067   1.039  0.5527  0.0926 -0.3511
 3713TIP3    H211104   3.034   3.106   1.018  0.5494  0.3418  0.1261
 3714TIP3   OH211105   1.556   6.008   5.014  0.5091  0.1016 -0.1986
 3714TIP3    H111106   1.630   6.031   4.958  1.6923 -2.9998 -0.1055
 3714TIP3    H211107   1.593   5.951   5.082 -1.6906 -0.1683  0.8908
 3715TIP3   OH211108   3.532   1.549   4.211  0.5647 -0.5896 -0.1211
 3715TIP3    H111109   3.588   1.586   4.280  1.1054  0.7571 -1.2404
 3715TIP3    H211110   3.443   1.570   4.239  0.8631  1.8263 -0.8022
 3716TIP3   OH211111   6.451   5.115   1.032 -0.1435 -0.4183 -0.1925
 3716TIP3    H111112   6.409   5.201   1.023 -0.7061 -0.6647 -0.0122
 3716TIP3    H211113   6.452   5.080   0.943  2.4069  0.8042 -0.7224
 3717TIP3   OH211114   3.113   0.624   1.582 -0.2320 -0.2725  0.5922
 3717TIP3    H111115   3.081   0.582   1.503 -0.8819  0.5629  0.3961
 3717TIP3    H211116   3.114   0.555   1.648 -0.1719 -0.8530 -0.0105
 3718TIP3   OH211117   3.954   0.460   4.233  0.2988  0.2833  0.3978
 3718TIP3    H111118   3.984   0.410   4.308 -0.4393  0.9633  1.1713
 3718TIP3    H211119   3.860   0.443   4.228  0.4003 -0.0480 -0.6080
 3719TIP3   OH211120   7.151   3.539   4.752  0.1211 -0.0014 -0.1467
 3719TIP3    H111121   7.166   3.519   4.844 -0.4252  1.9373  0.4023
 3719TIP3    H211122   7.231   3.584   4.724  0.1217 -0.2298 -0.5208
 3720TIP3   OH211123   5.363   3.555   1.809 -0.4649  0.5242  0.7858
 3720TIP3    H111124   5.452   3.547   1.773 -1.0949 -1.0233 -0.5675
 3720TIP3    H211125   5.372   3.529   1.901  0.3217 -0.7304  0.3799
 3721TIP3   OH211126   5.076   0.313   0.795  0.3754 -0.0662  0.1448
 3721TIP3    H111127   5.167   0.310   0.763  0.4459  0.1931  0.3182
 3721TIP3    H211128   5.039   0.228   0.769  0.6199 -0.1097 -0.0678
 3722TIP3   OH211129   6.398   3.203   2.835 -0.1612 -0.7976  0.1945
 3722TIP3    H111130   6.372   3.272   2.774  0.8844  1.5213  2.2127
 3722TIP3    H211131   6.343   3.217   2.912  1.4923 -0.8404  1.4401
 3723TIP3   OH211132   5.929   3.504   1.035  0.1282  0.6429 -0.3088
 3723TIP3    H111133   5.906   3.586   0.991  0.2835  0.6640 -0.3534
 3723TIP3    H211134   5.908   3.519   1.127 -1.4435  0.1336 -0.5715
 3724TIP3   OH211135   3.804   6.446   3.840 -0.4405 -0.8241  0.3930
 3724TIP3    H111136   3.875   6.504   3.812 -1.4668  0.2816 -0.0097
 3724TIP3    H211137   3.738   6.505   3.877 -1.6250 -1.6990 -0.2597
 3725TIP3   OH211138   6.473   3.406   0.920  0.4907 -0.6734  0.0887
 3725TIP3    H111139   6.510   3.490   0.892  0.2467 -0.5377  0.1595
 3725TIP3    H211140   6.378   3.420   0.915  0.4213 -1.4626 -1.4632
 3726TIP3   OH211141   3.180   0.846   1.210 -0.3188 -0.2265 -0.4046
 3726TIP3    H111142   3.237   0.809   1.277 -1.1447  0.2130  0.5829
 3726TIP3    H211143   3.213   0.811   1.127  1.7932  0.5795  0.0495
 3727TIP3   OH211144   1.314   5.628   1.991 -0.5092  0.3757 -0.3679
 3727TIP3    H111145   1.273   5.556   2.039 -2.2568  0.5462 -1.4894
 3727TIP3    H211146   1.324   5.698   2.056 -1.7856  0.2175  0.0262
 3728TIP3   OH211147   1.006   0.582   2.849  0.3911 -0.1682 -0.0372
 3728TIP3    H111148   0.990   0.512   2.785 -0.1251  0.9664 -1.2038
 3728TIP3    H211149   0.992   0.662   2.799  1.7494  0.7900  1.0679
 3729TIP3   OH211150   2.088   3.770   1.759 -0.2118  0.2930  0.3533
 3729TIP3    H111151   2.015   3.709   1.771 -2.0595  2.1072 -1.0607
 3729TIP3    H211152   2.112   3.795   1.848 -2.0923  0.4838  0.8617
 3730TIP3   OH211153   2.076   2.661   1.222  0.4559 -0.8833  0.2140
 3730TIP3    H111154   2.019   2.609   1.280  0.5208  0.0994  1.1914
 3730TIP3    H211155   2.095   2.740   1.272  1.2926 -0.4250 -0.7953
 3731TIP3   OH211156   6.160   0.812   4.261 -0.1188 -0.0981  0.3366
 3731TIP3    H111157   6.155   0.717   4.251 -1.4576 -0.1029  0.8100
 3731TIP3    H211158   6.185   0.845   4.175  0.7972 -0.9015  0.2875
 3732TIP3   OH211159   4.376   6.695   2.456 -0.1983  0.0450  0.4894
 3732TIP3    H111160   4.429   6.771   2.477 -1.5665  0.7499  1.6137
 3732TIP3    H211161   4.393   6.634   2.528  0.9078 -0.7548 -0.4163
 3733TIP3   OH211162   2.317   2.709   1.641  0.2071 -0.4668 -0.8172
 3733TIP3    H111163   2.331   2.804   1.647  1.7049 -0.5930 -1.6371
 3733TIP3    H211164   2.371   2.673   1.712 -1.5361 -0.6603  0.4599
 3734TIP3   OH211165   2.071   1.816   3.322  0.1656  0.3400 -0.0906
 3734TIP3    H111166   2.059   1.893   3.378  1.0022  0.0792  0.4670
 3734TIP3    H211167   2.166   1.814   3.306  0.0421 -0.1119 -0.7715
 3735TIP3   OH211168   6.075   3.250   0.137  0.1310 -0.3895 -0.3379
 3735TIP3    H111169   6.121   3.334   0.123 -0.8526  0.4149  1.0310
 3735TIP3    H211170   6.139   3.196   0.184  0.3517  0.0184 -0.1619
 3736TIP3   OH211171   1.542   5.249   0.440  0.1016 -0.2116 -0.4727
 3736TIP3    H111172   1.487   5.321   0.471 -0.2268 -0.8901  0.5458
 3736TIP3    H211173   1.629   5.289   0.429 -0.5428  0.8576 -2.0989
 3737TIP3   OH211174   3.075   3.139   0.070 -0.0858 -0.0882  0.0542
 3737TIP3    H111175   2.986   3.163   0.044 -0.1225  0.8765  0.9997
 3737TIP3    H211176   3.065   3.059   0.122 -0.7271  1.3429  2.2524
 3738TIP3   OH211177   1.326   3.835   2.604  0.5575  0.4420 -0.2679
 3738TIP3    H111178   1.369   3.917   2.628  1.6553  0.9105 -3.4280
 3738TIP3    H211179   1.381   3.767   2.644 -0.2546  1.1176  2.2155
 3739TIP3   OH211180   0.798   5.012   0.084  0.3934 -0.6769 -0.0565
 3739TIP3    H111181   0.731   5.071   0.049  0.0888 -0.1576  1.3393
 3739TIP3    H211182   0.796   5.027   0.179  2.9603 -0.1531 -0.0153
 3740TIP3   OH211183   3.097   2.986   2.052  0.1071 -0.6949 -0.2565
 3740TIP3    H111184   3.148   3.040   2.113  0.4923  0.3706 -1.4861
 3740TIP3    H211185   3.094   2.900   2.094  0.3157  0.0119  1.2861
 3741TIP3   OH211186   4.964   3.470   3.471 -0.3349 -0.5769 -0.4140
 3741TIP3    H111187   4.995   3.517   3.548 -0.8700 -0.6819 -0.1298
 3741TIP3    H211188   4.886   3.422   3.501 -0.5653 -0.5961 -1.0220
 3742TIP3   OH211189   4.247   2.634   3.346 -0.3423 -0.0764 -0.2471
 3742TIP3    H111190   4.247   2.688   3.267  0.4906 -1.6800 -1.4227
 3742TIP3    H211191   4.259   2.545   3.313 -0.6292 -0.8677  1.6715
 3743TIP3   OH211192   0.912   3.090   1.108  0.2285  0.2486  0.1407
 3743TIP3    H111193   0.885   3.018   1.166  0.6455 -0.2855 -0.3122
 3743TIP3    H211194   0.936   3.047   1.026  0.6417  0.8898 -0.0865
 3744TIP3   OH211195   5.892   2.984   1.377  0.3690  0.5800  0.3650
 3744TIP3    H111196   5.884   2.889   1.368 -0.1676  0.5424  1.1141
 3744TIP3    H211197   5.956   3.010   1.311 -1.2223  0.0082 -1.4771
 3745TIP3   OH211198   6.028   1.978   4.675  0.2735 -0.1037  0.2683
 3745TIP3    H111199   6.082   1.950   4.602 -1.3470 -1.1400 -0.5870
 3745TIP3    H211200   6.066   2.061   4.703  2.3378 -0.8513 -0.2055
 3746TIP3   OH211201   2.700   6.749   2.786  0.5279  0.3528 -0.3896
 3746TIP3    H111202   2.604   6.743   2.789  0.5874 -0.2206  1.4760
 3746TIP3    H211203   2.728   6.721   2.873  2.3640  1.2819 -0.6501
 3747TIP3   OH211204   3.160   2.192   1.913 -0.5535  0.5395  0.1280
 3747TIP3    H111205   3.226   2.124   1.924 -0.1841  0.5093 -1.8784
 3747TIP3    H211206   3.077   2.148   1.932 -0.3229 -0.5325 -1.1736
 3748TIP3   OH211207   0.541   2.820   5.768 -0.0094  0.7126  0.2218
 3748TIP3    H111208   0.514   2.768   5.843  0.2035 -1.2892 -1.0190
 3748TIP3    H211209   0.634   2.840   5.784  0.5617 -1.3270 -0.3568
 3749TIP3   OH211210   2.658   4.351   0.859  0.1348  0.4957  0.1375
 3749TIP3    H111211   2.726   4.286   0.839 -0.1210  0.4637 -0.6644
 3749TIP3    H211212   2.582   4.323   0.808 -0.3776  0.7258  0.7610
 3750TIP3   OH211213   5.944   6.781   0.055  0.6807 -0.2088  0.4181
 3750TIP3    H111214   5.860   6.742   0.031  0.6132  0.7432 -1.0048
 3750TIP3    H211215   5.923   6.872   0.076  1.3626  0.0734 -0.0856
 3751TIP3   OH211216   6.721   3.228   5.385 -0.3375 -0.1848 -0.4462
 3751TIP3    H111217   6.687   3.140   5.367  0.0321 -0.3504 -0.3571
 3751TIP3    H211218   6.654   3.287   5.352 -1.3345 -0.5096  0.9235
 3752TIP3   OH211219   2.336   0.029   2.841  0.0261 -0.2500  0.0142
 3752TIP3    H111220   2.387   0.056   2.765  0.8575 -1.5174  0.0998
 3752TIP3    H211221   2.401  -0.004   2.903 -0.7642 -0.4698  0.7389
 3753TIP3   OH211222   5.360   1.066   1.709 -0.0720  0.6190 -0.4217
 3753TIP3    H111223   5.421   1.017   1.654 -0.2162 -0.3229  0.2382
 3753TIP3    H211224   5.340   1.145   1.658  1.6799  0.9547 -0.6615
 3754TIP3   OH211225   1.469   5.580   5.533  0.6335 -0.2431 -0.0144
 3754TIP3    H111226   1.457   5.641   5.460 -0.6698 -0.1314  0.2682
 3754TIP3    H211227   1.562   5.588   5.556  0.6233  1.1982 -0.3661
 3755TIP3   OH211228   4.092   0.703   0.665  0.0807  1.1881 -0.0014
 3755TIP3    H111229   4.162   0.646   0.632  0.2642  0.9904  0.7069
 3755TIP3    H211230   4.087   0.775   0.602 -0.7488 -0.0436 -1.3920
 3756TIP3   OH211231   4.490   5.507   0.644 -0.0859 -0.1425 -0.0591
 3756TIP3    H111232   4.585   5.517   0.634 -0.2013  0.3214 -0.8515
 3756TIP3    H211233   4.456   5.519   0.555 -1.0687  1.9373  0.5176
 3757TIP3   OH211234   0.844   2.350   5.598 -0.0085  0.3226  0.2658
 3757TIP3    H111235   0.829   2.329   5.690  1.5122 -2.2715  0.0233
 3757TIP3    H211236   0.873   2.268   5.559 -2.3621  0.8207 -3.0067
 3758TIP3   OH211237   3.154   6.001   1.524  0.7841 -0.0611 -0.5260
 3758TIP3    H111238   3.081   6.030   1.471  1.5414  1.2170 -0.9168
 3758TIP3    H211239   3.120   5.926   1.574 -0.7501  0.4797 -0.7229
 3759TIP3   OH211240   5.873   2.032   1.155 -0.6086  0.2591 -0.6926
 3759TIP3    H111241   5.858   2.116   1.110  0.8676  0.4650 -0.8391
 3759TIP3    H211242   5.929   2.054   1.229 -0.7022 -0.5109 -0.3878
 3760TIP3   OH211243   5.430   0.160   4.268 -0.1469 -0.4177 -0.1429
 3760TIP3    H111244   5.522   0.185   4.277 -0.5331  0.5023  1.8618
 3760TIP3    H211245   5.382   0.240   4.288 -1.4009 -1.2589  0.2995
 3761TIP3   OH211246   4.781   1.460   3.551  0.2436  0.7249 -0.3924
 3761TIP3    H111247   4.709   1.424   3.498 -1.2188 -0.0181  1.9251
 3761TIP3    H211248   4.859   1.415   3.520 -0.9474 -1.5987 -0.2654
 3762TIP3   OH211249   3.297   0.016   5.243  0.0187 -0.1560 -0.3476
 3762TIP3    H111250   3.314   0.098   5.197 -0.2574  0.1738  0.1410
 3762TIP3    H211251   3.244  -0.035   5.182  1.1764 -0.4572 -1.1427
 3763TIP3   OH211252   5.130   0.366   5.486  0.4461  0.1984 -0.6594
 3763TIP3    H111253   5.131   0.295   5.422 -0.6462  0.6089 -1.1621
 3763TIP3    H211254   5.076   0.334   5.558 -0.6060  0.7330 -1.1812
 3764TIP3   OH211255   0.979   2.869   2.696  0.1093  0.7585  0.1308
 3764TIP3    H111256   0.929   2.876   2.614  0.3161 -3.3915 -0.5729
 3764TIP3    H211257   0.916   2.831   2.758  0.1165  3.3464  1.8812
 3765TIP3   OH211258   1.637   2.874   0.820 -0.0668  0.2935  0.1884
 3765TIP3    H111259   1.669   2.864   0.731  0.1185 -0.5856  0.3510
 3765TIP3    H211260   1.637   2.969   0.835  2.1226  0.3593  0.0758
 3766TIP3   OH211261   4.183   0.909   0.816 -0.0681  0.4545  0.3511
 3766TIP3    H111262   4.155   0.818   0.823 -1.8258  0.9671  0.5827
 3766TIP3    H211263   4.193   0.938   0.907  0.6960  0.4468  0.2760
 3767TIP3   OH211264   5.663   1.834   0.297  0.4875  0.2808  0.6298
 3767TIP3    H111265   5.585   1.851   0.245  1.0815  1.2446  0.0397
 3767TIP3    H211266   5.736   1.843   0.236  1.1183  0.2025  1.3512
 3768TIP3   OH211267   2.997   3.915   3.740 -0.1831 -0.1827  0.0143
 3768TIP3    H111268   2.932   3.923   3.810 -3.3243  2.3755 -2.8769
 3768TIP3    H211269   3.005   3.821   3.726 -2.8027 -0.6487  1.0139
 3769TIP3   OH211270   7.094   5.418   1.521 -0.1149 -0.4209 -0.8699
 3769TIP3    H111271   7.010   5.378   1.544 -0.7086  1.7601  1.1180
 3769TIP3    H211272   7.094   5.419   1.425 -1.8809 -1.4022 -0.9246
 3770TIP3   OH211273   4.188   1.871   3.597 -0.0805 -0.4722 -0.0498
 3770TIP3    H111274   4.211   1.779   3.593 -0.0463 -0.4563 -0.2902
 3770TIP3    H211275   4.272   1.917   3.605 -0.1545 -0.5036  1.0178
 3771TIP3   OH211276   0.758   6.264   0.863  0.3532  0.2610 -0.2177
 3771TIP3    H111277   0.842   6.220   0.861 -0.3469 -1.1536  0.0856
 3771TIP3    H211278   0.774   6.350   0.825  1.5923 -0.5805 -1.6659
 3772TIP3   OH211279   2.026   2.468   0.020 -0.5580 -0.2506 -0.0089
 3772TIP3    H111280   2.042   2.555  -0.017  1.0884  0.5004  2.2724
 3772TIP3    H211281   1.942   2.476   0.065  0.0337  0.4462  0.9809
 3773TIP3   OH211282   0.410   5.897   3.343 -0.3133 -0.2282 -0.1575
 3773TIP3    H111283   0.405   5.802   3.337 -1.3259 -0.1254 -1.2442
 3773TIP3    H211284   0.357   5.929   3.270 -0.8469  1.1689  0.7929
 3774TIP3   OH211285   4.594   1.669   2.521  0.3462 -0.3178  0.4765
 3774TIP3    H111286   4.506   1.701   2.542  1.1860  0.3249  3.5506
 3774TIP3    H211287   4.650   1.746   2.527  1.5313 -1.2274  1.8244
 3775TIP3   OH211288   5.340   0.455   3.562 -0.6726 -0.1232  0.7127
 3775TIP3    H111289   5.350   0.374   3.611 -2.0966 -0.8555 -0.1365
 3775TIP3    H211290   5.290   0.430   3.484  1.5202  0.9838 -1.1487
 3776TIP3   OH211291   0.608   4.932   3.721 -0.3086  0.3983  0.4873
 3776TIP3    H111292   0.516   4.950   3.701 -0.0560  0.4013 -0.7595
 3776TIP3    H211293   0.655   5.007   3.685  0.2203  0.1985  0.7609
 3777TIP3   OH211294   1.036   1.836   5.691 -0.3731 -0.1197 -0.1317
 3777TIP3    H111295   0.999   1.757   5.730 -1.2377 -0.1230 -0.9055
 3777TIP3    H211296   1.098   1.869   5.756 -0.9251 -0.7470  0.7351
 3778TIP3   OH211297   1.630   3.674   3.005  0.6321 -0.1740 -0.3065
 3778TIP3    H111298   1.568   3.613   2.965  0.3984 -0.0543 -0.1315
 3778TIP3    H211299   1.642   3.742   2.939  1.3569 -0.7151 -0.7420
 3779TIP3   OH211300   4.712   2.246   4.614  0.8461  0.7520 -0.4277
 3779TIP3    H111301   4.648   2.297   4.664  0.1961  1.0403 -1.5276
 3779TIP3    H211302   4.792   2.250   4.666 -0.3954 -0.8687  1.7566
 3780TIP3   OH211303   6.756   3.347   1.268 -0.2634  0.5441 -0.1974
 3780TIP3    H111304   6.736   3.426   1.319  1.8586  0.2129  1.3123
 3780TIP3    H211305   6.707   3.277   1.310 -1.0518  0.8069 -0.6648
 3781TIP3   OH211306   6.777   1.301   0.579 -0.2224  0.3117 -0.8082
 3781TIP3    H111307   6.872   1.303   0.568 -0.0985  0.8399  0.1651
 3781TIP3    H211308   6.762   1.234   0.646 -0.6266 -0.4304 -1.6283
 3782TIP3   OH211309   0.578   5.739   0.380 -1.0420  0.2348 -0.2272
 3782TIP3    H111310   0.637   5.723   0.306  1.1905 -0.3163  1.5578
 3782TIP3    H211311   0.529   5.657   0.389 -1.9869  0.6135 -1.5826
 3783TIP3   OH211312   1.079   5.912   1.666 -0.4504  0.1082 -0.2236
 3783TIP3    H111313   1.109   5.904   1.575 -1.1593  0.7166 -0.5278
 3783TIP3    H211314   1.092   5.825   1.704 -0.8330 -0.3596 -1.1280
 3784TIP3   OH211315   7.151   0.597   5.700 -0.2141  0.4078  0.0214
 3784TIP3    H111316   7.175   0.533   5.768  0.9462  0.2573 -0.4957
 3784TIP3    H211317   7.059   0.580   5.682 -0.4457  0.2066  1.2932
 3785TIP3   OH211318   4.626   1.528   5.655  0.4285  0.0751 -0.6702
 3785TIP3    H111319   4.540   1.511   5.694  0.0685 -0.6585 -1.7337
 3785TIP3    H211320   4.611   1.528   5.561  1.4077  1.0837 -0.8536
 3786TIP3   OH211321   3.791   5.293   2.716 -0.2325  0.1818 -0.2994
 3786TIP3    H111322   3.733   5.235   2.667  0.6467 -0.5912 -0.4735
 3786TIP3    H211323   3.793   5.254   2.804  0.7403 -0.3756 -0.5436
 3787TIP3   OH211324   1.566   5.773   5.287 -0.4975 -0.1006  0.2090
 3787TIP3    H111325   1.575   5.726   5.204  0.1246 -0.4654  0.4748
 3787TIP3    H211326   1.472   5.780   5.300 -0.7126  2.3366 -1.8341
 3788TIP3   OH211327   0.657   1.526   4.267 -0.3594 -0.2494  0.2159
 3788TIP3    H111328   0.698   1.459   4.322 -0.2270 -0.7670 -0.4839
 3788TIP3    H211329   0.727   1.551   4.206 -0.5808  0.1206  0.1140
 3789TIP3   OH211330   0.460   5.783   0.016 -0.0393  0.0582  0.1424
 3789TIP3    H111331   0.410   5.768  -0.065  0.0901  0.4281 -0.0095
 3789TIP3    H211332   0.410   5.850   0.063 -0.0262 -0.0381  0.2944
 3790TIP3   OH211333   5.752   6.131   2.727  0.3666  0.1448  0.0979
 3790TIP3    H111334   5.771   6.045   2.763 -0.3368 -0.6397 -1.3259
 3790TIP3    H211335   5.787   6.192   2.792 -0.3862 -1.1750  1.8202
 3791TIP3   OH211336   5.727   4.825   0.360  0.1451 -0.3678 -0.3388
 3791TIP3    H111337   5.754   4.786   0.277  1.0191 -0.7951  0.1302
 3791TIP3    H211338   5.656   4.768   0.391  1.7514 -1.9377  0.5885
 3792TIP3   OH211339   3.786   4.996   4.775  0.0235  0.6280 -0.1289
 3792TIP3    H111340   3.722   4.926   4.766 -0.4384  1.1822 -1.4072
 3792TIP3    H211341   3.760   5.060   4.709 -0.0076  2.3518  1.4672
 3793TIP3   OH211342   3.979   5.261   0.895 -0.4876  0.0958 -0.3085
 3793TIP3    H111343   4.063   5.252   0.940  1.0884  1.3345 -2.8274
 3793TIP3    H211344   3.943   5.172   0.894  1.8977 -0.9295 -1.1811
 3794TIP3   OH211345   0.781   5.445   0.267  0.8256 -0.1259  0.2957
 3794TIP3    H111346   0.825   5.373   0.222  0.5977 -0.5020  0.6651
 3794TIP3    H211347   0.759   5.507   0.198 -0.3373 -1.1105 -0.2570
 3795TIP3   OH211348   5.264   5.704   3.938  0.0241  0.2391 -0.2040
 3795TIP3    H111349   5.313   5.644   3.883 -1.7753 -0.3392 -1.2581
 3795TIP3    H211350   5.235   5.773   3.879  0.2906  1.0375  0.5751
 3796TIP3   OH211351   3.535   1.715   0.559 -0.0521 -0.5463  0.4831
 3796TIP3    H111352   3.536   1.781   0.489 -0.9424 -2.2607 -1.2565
 3796TIP3    H211353   3.461   1.739   0.614  0.0877  0.3009  0.3154
 3797TIP3   OH211354   2.377   5.830   0.312 -0.9078  0.2836  0.0472
 3797TIP3    H111355   2.460   5.864   0.279  1.3862 -0.5331  4.2208
 3797TIP3    H211356   2.370   5.742   0.276  0.2504  0.2190 -0.0476
 3798TIP3   OH211357   6.711   5.604   0.890  0.2883  0.2277 -0.7763
 3798TIP3    H111358   6.620   5.628   0.871  0.1529  0.1812 -0.2097
 3798TIP3    H211359   6.757   5.687   0.894 -0.4890  0.6631  2.8050
 3799TIP3   OH211360   0.259   2.812   0.193 -0.4971  0.0857  0.4841
 3799TIP3    H111361   0.341   2.802   0.145 -0.9585  0.9666 -0.5404
 3799TIP3    H211362   0.286   2.833   0.282  0.4563  2.4429 -0.2770
 3800TIP3   OH211363   5.967   5.220   3.834  0.6215  0.1206  0.5791
 3800TIP3    H111364   5.880   5.260   3.838  0.7588  0.4144  0.6403
 3800TIP3    H211365   5.996   5.215   3.925  0.0716 -1.3136  0.7000
 3801TIP3   OH211366   2.422   5.250   3.975 -0.1415 -0.2074 -0.6302
 3801TIP3    H111367   2.481   5.212   3.910  0.3032 -1.8495  0.6679
 3801TIP3    H211368   2.345   5.277   3.924  0.2921 -1.1920 -1.8830
 3802TIP3   OH211369   6.586   6.092   2.558  0.0328  0.0737 -0.2125
 3802TIP3    H111370   6.574   6.167   2.617  1.2180 -0.3913  0.6612
 3802TIP3    H211371   6.611   6.130   2.475  0.0991  0.6731  0.0784
 3803TIP3   OH211372   4.352   4.073   3.185 -0.8411 -0.0568  0.7180
 3803TIP3    H111373   4.268   4.049   3.224 -1.4062 -0.9370 -0.9498
 3803TIP3    H211374   4.392   3.990   3.159  0.2514  0.3971  0.8557
 3804TIP3   OH211375   2.492   4.091   2.462 -0.0464 -0.3700  0.2852
 3804TIP3    H111376   2.415   4.122   2.510 -1.4245 -2.0466 -0.7398
 3804TIP3    H211377   2.480   4.125   2.373  1.7531  1.4969  0.6776
 3805TIP3   OH211378   2.820   5.799   0.840 -0.1851  0.4239  0.4843
 3805TIP3    H111379   2.815   5.743   0.918  0.2509  0.0738  0.2685
 3805TIP3    H211380   2.913   5.797   0.816 -0.0351  1.8087  0.8782
 3806TIP3   OH211381   5.246   0.966   2.480  0.6470  0.3269  0.3471
 3806TIP3    H111382   5.253   1.011   2.396 -0.5834  1.1670  0.6585
 3806TIP3    H211383   5.263   1.035   2.545 -1.5933  0.4841  0.8386
 3807TIP3   OH211384   1.891   2.053   4.986  0.2299  0.0192 -0.3582
 3807TIP3    H111385   1.822   2.102   4.942 -1.2288 -1.0482  0.6257
 3807TIP3    H211386   1.849   1.970   5.011  1.9618 -0.7907  0.0009
 3808TIP3   OH211387   3.841   6.501   3.304 -0.2426 -0.3543  0.3012
 3808TIP3    H111388   3.815   6.420   3.261  0.7613 -0.3384 -0.3574
 3808TIP3    H211389   3.758   6.540   3.334 -0.7360 -1.6362  0.6848
 3809TIP3   OH211390   0.264   4.536   3.141 -0.5819  0.3736 -0.2699
 3809TIP3    H111391   0.301   4.553   3.055 -2.3574 -0.0797 -1.1581
 3809TIP3    H211392   0.187   4.481   3.125 -0.3903 -0.5733  1.6903
 3810TIP3   OH211393   4.749   1.220   2.884 -0.2127  0.7860 -0.2765
 3810TIP3    H111394   4.702   1.303   2.880  0.9738  1.4394 -2.5316
 3810TIP3    H211395   4.680   1.153   2.888 -1.1799  1.8345  2.1102
 3811TIP3   OH211396   3.344   5.786   0.960 -0.2984 -0.3226  0.3693
 3811TIP3    H111397   3.411   5.786   1.028  1.8741  0.6896 -1.6137
 3811TIP3    H211398   3.355   5.701   0.916  0.4483  0.2456 -0.5921
 3812TIP3   OH211399   6.106   2.848   2.016 -0.0492  0.8921  0.1757
 3812TIP3    H111400   6.168   2.817   2.083 -0.8787  1.2737  1.1386
 3812TIP3    H211401   6.033   2.787   2.021  1.1242 -0.9837 -2.5409
 3813TIP3   OH211402   4.704   0.828   2.924  0.3438  0.0682 -0.0118
 3813TIP3    H111403   4.735   0.866   3.006  0.5875  2.2076 -1.0304
 3813TIP3    H211404   4.784   0.809   2.874  0.1738  1.4414 -0.8565
 3814TIP3   OH211405   4.480   3.538   5.708  0.1982 -0.2814 -0.5527
 3814TIP3    H111406   4.480   3.629   5.739  0.7005 -0.7508  0.9101
 3814TIP3    H211407   4.501   3.544   5.615  0.8395  1.0603 -0.3377
 3815TIP3   OH211408   0.805   2.404   0.118  0.4403 -0.2265  0.1271
 3815TIP3    H111409   0.783   2.460   0.043  0.4129 -0.2826  0.0940
 3815TIP3    H211410   0.722   2.386   0.160  0.4462 -0.2692  0.1198
 3816TIP3   OH211411   0.389   5.653   3.011  0.0422 -0.3228  0.2230
 3816TIP3    H111412   0.336   5.597   3.067  0.6543 -0.6399  0.4948
 3816TIP3    H211413   0.376   5.619   2.923 -1.3624  0.5184  0.0714
 3817TIP3   OH211414   5.872  -0.021   4.834 -0.0146  0.4519 -0.4356
 3817TIP3    H111415   5.950  -0.038   4.780  0.2398 -0.2877  0.1420
 3817TIP3    H211416   5.842   0.065   4.806  0.3286  0.2459 -1.4943
 3818TIP3   OH211417   0.679   5.209   0.728 -0.4084 -0.1095  0.6414
 3818TIP3    H111418   0.589   5.222   0.695 -0.1077  1.0121  0.2229
 3818TIP3    H211419   0.672   5.224   0.822 -1.1808 -2.8432  1.1012
 3819TIP3   OH211420   3.568   0.192   3.905 -0.4046  0.1956 -0.2477
 3819TIP3    H111421   3.493   0.235   3.947 -0.5507 -1.2764  1.1241
 3819TIP3    H211422   3.638   0.257   3.909 -1.4935  1.5201 -1.3376
 3820TIP3   OH211423   7.245   1.520   1.710 -0.4556 -0.1317  0.2355
 3820TIP3    H111424   7.159   1.492   1.680 -0.6498  2.0475 -1.4955
 3820TIP3    H211425   7.228   1.597   1.765  0.2655 -1.1321  1.9433
 3821TIP3   OH211426   6.094   3.482   5.829 -0.2494  0.6217  0.5765
 3821TIP3    H111427   6.129   3.496   5.741  0.6223  0.3314  0.8579
 3821TIP3    H211428   6.166   3.438   5.876 -1.3737 -0.9612  0.8977
 3822TIP3   OH211429   3.163   3.534   1.635 -0.1007 -0.2487  0.3869
 3822TIP3    H111430   3.150   3.479   1.712 -0.8502 -1.3933 -0.5215
 3822TIP3    H211431   3.147   3.476   1.560 -1.2121  1.2585 -0.6161
 3823TIP3   OH211432   2.352   4.318   1.942 -0.4192 -0.1903 -0.2631
 3823TIP3    H111433   2.441   4.343   1.965 -0.9197  1.7962 -0.2782
 3823TIP3    H211434   2.350   4.318   1.846 -1.2066  3.2543 -0.3829
 3824TIP3   OH211435   5.161   0.756   4.803 -0.1108  0.0603  0.2263
 3824TIP3    H111436   5.180   0.827   4.864 -0.9531 -0.0268  0.6032
 3824TIP3    H211437   5.133   0.683   4.858 -1.7303  0.2602 -0.2850
 3825TIP3   OH211438   6.848   1.478   2.578 -0.3428 -0.5291  0.1982
 3825TIP3    H111439   6.905   1.536   2.629  1.6141 -0.3956 -1.9457
 3825TIP3    H211440   6.814   1.533   2.507 -2.4493 -0.8577  0.8926
 3826TIP3   OH211441   6.651   4.319   0.263 -0.2116 -0.3233  0.2489
 3826TIP3    H111442   6.666   4.326   0.358 -0.3216  1.1369  0.1922
 3826TIP3    H211443   6.724   4.265   0.231  1.5233  1.5370  0.8161
 3827TIP3   OH211444   3.019   1.920   5.471  0.1611  0.0769 -0.0107
 3827TIP3    H111445   2.974   1.902   5.554  0.7305  0.3961  0.3780
 3827TIP3    H211446   2.972   1.868   5.406 -0.3445 -0.1151  0.5006
 3828TIP3   OH211447   1.908   3.505   5.286  0.1637  0.0974  0.4514
 3828TIP3    H111448   1.878   3.424   5.327 -0.3145  0.6775  1.2749
 3828TIP3    H211449   1.946   3.477   5.202  0.3211 -1.0037  0.8794
 3829TIP3   OH211450   3.568   5.850   3.508  0.1061 -0.7273 -0.2677
 3829TIP3    H111451   3.645   5.840   3.564  1.7313  0.9015 -2.0624
 3829TIP3    H211452   3.594   5.809   3.425 -1.3557 -1.0044 -0.6160
 3830TIP3   OH211453   3.546   5.685   1.115  0.2790 -0.5071  0.5343
 3830TIP3    H111454   3.632   5.703   1.152  0.3006 -1.9945  1.2863
 3830TIP3    H211455   3.559   5.608   1.060 -0.4848 -0.4997  0.3265
 3831TIP3   OH211456   7.144   3.115   1.419  0.0421 -0.3658  0.3975
 3831TIP3    H111457   7.093   3.196   1.417 -0.5471 -0.5374  3.4957
 3831TIP3    H211458   7.216   3.134   1.479  0.7320 -1.7092  0.0237
 3832TIP3   OH211459   0.937   4.727   1.872  0.0174  0.2380  0.2366
 3832TIP3    H111460   0.974   4.805   1.914  2.7796 -0.4330 -0.7692
 3832TIP3    H211461   0.877   4.691   1.937  1.3099  1.2954  2.0945
 3833TIP3   OH211462   1.528   6.490   0.838 -0.5581  0.2281  0.3459
 3833TIP3    H111463   1.449   6.543   0.827 -1.0383  0.1581  2.8551
 3833TIP3    H211464   1.539   6.445   0.754 -2.6438  0.9282 -0.3622
 3834TIP3   OH211465   0.737   5.877   2.840  0.2032 -0.2990  0.3743
 3834TIP3    H111466   0.665   5.843   2.786 -0.5622 -0.1274  1.2508
 3834TIP3    H211467   0.715   5.848   2.929  1.6316 -0.9017  0.5535
 3835TIP3   OH211468   1.353   0.824   1.532  0.0772  0.1733 -0.8727
 3835TIP3    H111469   1.406   0.903   1.539 -0.6114  0.5847  0.0371
 3835TIP3    H211470   1.332   0.817   1.439  1.9680 -0.1997 -1.3151
 3836TIP3   OH211471   3.367   2.685   0.429  0.5008 -0.0929  0.2712
 3836TIP3    H111472   3.395   2.595   0.445 -2.1136 -1.3315 -1.3723
 3836TIP3    H211473   3.422   2.714   0.356  1.2311 -0.4410  0.6764
 3837TIP3   OH211474   6.427   0.820   5.675  0.5324 -0.5433 -0.5852
 3837TIP3    H111475   6.463   0.870   5.601  1.6951  0.5562  0.6684
 3837TIP3    H211476   6.356   0.875   5.708 -0.5784 -1.4445 -1.3709
 3838TIP3   OH211477   3.741   1.292   2.833 -0.3795  0.2326 -0.2173
 3838TIP3    H111478   3.727   1.300   2.927  0.1595 -1.3195  0.0151
 3838TIP3    H211479   3.821   1.342   2.816 -0.0333 -0.1458  0.2815
 3839TIP3   OH211480   5.418   6.290   0.591  0.3449  0.1806  0.4013
 3839TIP3    H111481   5.357   6.359   0.567 -1.4265 -0.2593  3.2393
 3839TIP3    H211482   5.496   6.336   0.622  0.2625  0.8251 -0.3247
 3840TIP3   OH211483   0.398   4.070   3.276 -0.1269  0.3631  0.6052
 3840TIP3    H111484   0.463   4.120   3.226  0.0696 -0.3623  0.1165
 3840TIP3    H211485   0.450   4.009   3.328 -0.3517  0.8590  1.4176
 3841TIP3   OH211486   1.728   4.278   5.107 -0.1932 -0.6655 -0.2545
 3841TIP3    H111487   1.822   4.265   5.119 -0.1526  0.4197  0.7750
 3841TIP3    H211488   1.688   4.199   5.144  0.2816 -0.7823  0.0128
 3842TIP3   OH211489   6.510   0.970   4.178 -0.2118  0.4221 -0.2122
 3842TIP3    H111490   6.558   0.888   4.176 -1.8654 -0.5980 -1.2913
 3842TIP3    H211491   6.503   0.992   4.270  4.5179  2.0983  0.0025
 3843TIP3   OH211492   3.112   2.163   1.308 -0.4824 -0.3524 -0.6830
 3843TIP3    H111493   3.029   2.201   1.335  1.4709  2.9318  1.3511
 3843TIP3    H211494   3.129   2.202   1.222 -0.0787  0.8159 -0.1020
 3844TIP3   OH211495   1.828   4.349   4.411 -0.0471 -0.7710 -0.3360
 3844TIP3    H111496   1.900   4.361   4.349  0.5337 -0.9418  0.2798
 3844TIP3    H211497   1.771   4.425   4.398  1.5488  0.7186  0.8570
 3845TIP3   OH211498   2.989   2.935   5.071 -0.1302 -0.2025  0.0525
 3845TIP3    H111499   2.930   2.871   5.109 -0.9949 -0.1001 -1.0724
 3845TIP3    H211500   2.997   2.910   4.979 -0.1064  0.9975 -0.2990
 3846TIP3   OH211501   5.504   1.941   4.695 -0.7538 -0.0303 -0.3565
 3846TIP3    H111502   5.463   1.856   4.679  0.1989 -0.4933 -0.4051
 3846TIP3    H211503   5.594   1.931   4.664 -0.4085  0.7600  0.3465
 3847TIP3   OH211504   0.337   2.227   3.658 -0.1233 -0.2502 -0.1562
 3847TIP3    H111505   0.259   2.281   3.647  0.6888  0.9621 -0.1765
 3847TIP3    H211506   0.379   2.261   3.737  0.3395 -0.9584 -0.0851
 3848TIP3   OH211507   6.918   5.541   5.029 -0.7362  0.6213 -0.2507
 3848TIP3    H111508   6.884   5.516   4.943 -1.6276  0.0726  0.2431
 3848TIP3    H211509   6.962   5.625   5.014  0.0878  0.0089 -1.4494
 3849TIP3   OH211510   0.375   2.763   5.052 -0.8633  0.1087 -0.6472
 3849TIP3    H111511   0.363   2.724   5.138  1.0280 -0.0308 -0.4222
 3849TIP3    H211512   0.396   2.855   5.069 -1.3749  0.3008 -1.0123
 3850TIP3   OH211513   4.517   2.464   0.531 -0.5910 -0.2980  0.3831
 3850TIP3    H111514   4.596   2.409   0.527  1.2517  1.8564  3.1852
 3850TIP3    H211515   4.492   2.463   0.623 -2.7247  0.6768 -0.1205
 3851TIP3   OH211516   5.185   3.304   0.530 -0.5803  0.4921 -0.0422
 3851TIP3    H111517   5.162   3.216   0.501  0.5192  0.0646  0.3167
 3851TIP3    H211518   5.281   3.302   0.538 -0.6631  1.2299  1.4965
 3852TIP3   OH211519   1.703   3.475   2.683 -0.0943 -0.2861  0.1672
 3852TIP3    H111520   1.725   3.483   2.590  1.3154 -2.9457  0.1615
 3852TIP3    H211521   1.780   3.510   2.728 -0.0308 -0.5811  0.2903
 3853TIP3   OH211522   2.426   5.678   4.406  0.4615 -0.8702  0.0866
 3853TIP3    H111523   2.381   5.599   4.436  0.9935 -1.5410 -0.8418
 3853TIP3    H211524   2.450   5.660   4.315  0.3210  0.4885 -0.2425
 3854TIP3   OH211525   5.835   2.454   3.112 -0.0005  0.1859  0.2208
 3854TIP3    H111526   5.905   2.452   3.177 -0.1391  0.1782  0.3704
 3854TIP3    H211527   5.756   2.476   3.162 -0.1255  0.0792  0.0714
 3855TIP3   OH211528   5.497   2.239   0.721 -0.1126  0.2721 -0.4703
 3855TIP3    H111529   5.466   2.153   0.693 -1.4162  0.6778 -0.3483
 3855TIP3    H211530   5.593   2.230   0.725 -0.1710 -0.9261 -1.2226
 3856TIP3   OH211531   4.540   0.945   5.495 -0.2256 -0.1381 -0.7966
 3856TIP3    H111532   4.558   1.034   5.526 -1.4861 -0.7550  1.9787
 3856TIP3    H211533   4.524   0.956   5.401 -0.0117  2.5157 -0.6039
 3857TIP3   OH211534   1.253   0.721   3.743  0.3098  0.0827  0.4623
 3857TIP3    H111535   1.192   0.679   3.681 -0.2312  0.0609  0.9995
 3857TIP3    H211536   1.253   0.664   3.819 -2.4633  2.2446  2.3011
 3858TIP3   OH211537   0.451   4.400   2.511  0.7224  0.7503  0.0079
 3858TIP3    H111538   0.494   4.403   2.597  1.0522  0.4344 -0.1418
 3858TIP3    H211539   0.445   4.306   2.491  1.2525  0.8478 -0.6157
 3859TIP3   OH211540   7.108   2.175   3.314 -0.1163  0.6650  0.3829
 3859TIP3    H111541   7.023   2.195   3.274  0.0138 -0.4080 -0.4956
 3859TIP3    H211542   7.110   2.079   3.319  0.5988  0.7168  1.4124
 3860TIP3   OH211543   2.154   2.197   4.909  0.6915  0.0808 -0.3246
 3860TIP3    H111544   2.196   2.157   4.833 -0.8853 -0.3724 -0.9969
 3860TIP3    H211545   2.137   2.124   4.969 -1.0985 -0.1416 -1.0311
 3861TIP3   OH211546   2.717   1.408   4.510 -0.1669  0.2262 -0.2504
 3861TIP3    H111547   2.666   1.329   4.527 -0.3919  0.5380  0.5804
 3861TIP3    H211548   2.727   1.410   4.415 -0.8460 -0.3741 -0.3454
 3862TIP3   OH211549   3.030   1.560   5.611 -0.0122  0.7455 -0.1455
 3862TIP3    H111550   3.027   1.577   5.705  1.5855 -1.5617  0.4173
 3862TIP3    H211551   3.123   1.559   5.589 -0.2366 -1.0520 -1.2210
 3863TIP3   OH211552   2.876   6.481   3.008 -0.4424 -0.1197 -0.2862
 3863TIP3    H111553   2.953   6.534   2.985  1.2801 -0.7928  3.3019
 3863TIP3    H211554   2.899   6.393   2.978  2.0369 -1.1135  3.7723
 3864TIP3   OH211555   5.075   3.366   5.692  0.6735 -0.4031 -0.0877
 3864TIP3    H111556   4.982   3.348   5.703  0.8158 -0.5471  0.9837
 3864TIP3    H211557   5.117   3.328   5.769  1.3543  1.6478  0.6183
 3865TIP3   OH211558   0.922   6.006   5.225  0.5275 -0.3731  0.0934
 3865TIP3    H111559   0.966   6.065   5.286 -0.3229  0.1674  0.2002
 3865TIP3    H211560   0.837   6.048   5.207  1.8430  1.0732 -3.7941
 3866TIP3   OH211561   6.291   1.567   0.532  0.6704 -0.1874  0.2187
 3866TIP3    H111562   6.262   1.658   0.541  0.9265 -0.3026  3.2130
 3866TIP3    H211563   6.209   1.517   0.529  0.4970  0.1072 -2.4601
 3867TIP3   OH211564   5.172   4.799   5.789  0.6673  0.5966  0.4832
 3867TIP3    H111565   5.236   4.731   5.809  1.9883  1.8354  0.5505
 3867TIP3    H211566   5.119   4.805   5.868  0.6818 -0.1785  0.5631
 3868TIP3   OH211567   6.064   6.783   4.107 -0.4064  0.5392 -0.0838
 3868TIP3    H111568   6.108   6.830   4.036 -0.2550 -1.1923 -1.1937
 3868TIP3    H211569   6.131   6.772   4.175 -0.3610  1.6134  0.0577
 3869TIP3   OH211570   4.234   5.107   3.131  0.3670 -0.4452 -0.1367
 3869TIP3    H111571   4.225   5.159   3.051 -1.4977 -1.3411 -0.5803
 3869TIP3    H211572   4.320   5.064   3.122  0.3589 -0.2278 -1.4869
 3870TIP3   OH211573   2.267   5.480   5.872  0.1904  0.3866  0.2701
 3870TIP3    H111574   2.238   5.444   5.789  2.1256 -0.9058  0.1118
 3870TIP3    H211575   2.205   5.446   5.936 -0.0864 -0.3327 -0.3691
 3871TIP3   OH211576   5.983   3.698   2.997 -0.0079 -0.3350 -0.2461
 3871TIP3    H111577   5.945   3.649   3.070 -1.4738  1.4686  0.2578
 3871TIP3    H211578   5.957   3.789   3.012  1.7388  0.4721 -1.7137
 3872TIP3   OH211579   4.235   2.439   3.159 -0.5559 -0.3313  0.3636
 3872TIP3    H111580   4.312   2.456   3.104 -0.9886 -0.1549 -0.1947
 3872TIP3    H211581   4.177   2.387   3.104 -2.8004  3.1914 -0.9336
 3873TIP3   OH211582   3.264   0.578   1.973 -0.3270 -0.2632  0.0327
 3873TIP3    H111583   3.337   0.595   1.913  0.0752 -0.4731  0.4515
 3873TIP3    H211584   3.254   0.659   2.023  1.0473 -0.9169  1.4583
 3874TIP3   OH211585   2.482   6.624   4.705  0.0342 -0.1333  0.6259
 3874TIP3    H111586   2.395   6.660   4.720 -0.9103 -1.8259 -0.5174
 3874TIP3    H211587   2.470   6.529   4.709  1.7661 -0.4083  0.0862
 3875TIP3   OH211588   1.576   3.298   4.858  0.4984  0.0243  0.6858
 3875TIP3    H111589   1.565   3.315   4.952 -0.7790  1.9985  0.2260
 3875TIP3    H211590   1.487   3.287   4.825  0.8176  0.9387 -0.5484
 3876TIP3   OH211591   3.340   4.538   2.461  0.4365  0.3476  0.3500
 3876TIP3    H111592   3.342   4.467   2.524  1.7081  0.4633  0.4642
 3876TIP3    H211593   3.288   4.607   2.503 -0.6491 -0.4138  0.3091
 3877TIP3   OH211594   3.068   4.239   5.681  0.8464 -0.3707  0.5016
 3877TIP3    H111595   3.091   4.332   5.681  0.2115 -0.1814 -1.2207
 3877TIP3    H211596   3.117   4.202   5.608 -1.3575 -0.6912 -0.8928
 3878TIP3   OH211597   4.736   4.263   5.649  0.0057  0.2178 -0.2103
 3878TIP3    H111598   4.767   4.353   5.636  1.3589 -0.5251 -2.9232
 3878TIP3    H211599   4.799   4.225   5.710 -0.7043  1.1144  1.1367
 3879TIP3   OH211600   3.082   6.616   1.812 -0.2775 -0.2448 -0.0393
 3879TIP3    H111601   3.147   6.671   1.856 -1.6368  1.2515  0.1828
 3879TIP3    H211602   3.006   6.617   1.870 -0.8893 -1.0748 -0.8005
 3880TIP3   OH211603   6.800   5.854   0.941  0.2603  0.1175  0.6759
 3880TIP3    H111604   6.777   5.897   0.859 -1.7669  0.8738  1.5701
 3880TIP3    H211605   6.882   5.895   0.968  1.4601 -0.7689 -1.3464
 3881TIP3   OH211606   4.198   1.054   4.716  0.3558 -0.5817 -0.5232
 3881TIP3    H111607   4.120   1.109   4.710 -0.0783 -1.0530  0.4979
 3881TIP3    H211608   4.244   1.067   4.633 -1.9583 -1.9886 -2.1514
 3882TIP3   OH211609   4.402   3.303   3.503  0.1698  0.1331  0.4680
 3882TIP3    H111610   4.434   3.224   3.547 -0.0418 -0.8728 -1.0741
 3882TIP3    H211611   4.472   3.327   3.443 -1.0208 -0.8606 -1.4332
 3883TIP3   OH211612   4.211   3.273   0.948 -0.4017 -0.0455 -0.2396
 3883TIP3    H111613   4.120   3.258   0.922 -0.1715  1.1822 -1.9921
 3883TIP3    H211614   4.226   3.365   0.928  0.2025  0.8187  3.4776
 3884TIP3   OH211615   2.140   3.361   1.304  0.3876  0.1108 -0.3203
 3884TIP3    H111616   2.068   3.310   1.269  0.5833  0.8980 -1.9726
 3884TIP3    H211617   2.140   3.342   1.398 -0.8747 -1.2130 -0.5572
 3885TIP3   OH211618   6.458   6.330   1.352 -0.6338 -0.3968 -0.1842
 3885TIP3    H111619   6.541   6.362   1.317 -0.0942  0.3249  1.6886
 3885TIP3    H211620   6.480   6.245   1.391 -0.9938 -0.6517 -0.5251
 3886TIP3   OH211621   5.118   1.272   3.759 -0.6293  0.0635  0.0222
 3886TIP3    H111622   5.032   1.298   3.791 -0.6442  0.7629 -0.5721
 3886TIP3    H211623   5.170   1.352   3.761  0.3195 -0.5451  1.3165
 3887TIP3   OH211624   4.078   5.926   2.712 -0.1931  0.0592  0.2651
 3887TIP3    H111625   4.078   5.832   2.692  1.0376  0.0763  0.0851
 3887TIP3    H211626   3.986   5.952   2.706 -0.5196 -1.0764  0.0574
 3888TIP3   OH211627   3.487   6.768   2.697  0.0868  0.2862  0.1741
 3888TIP3    H111628   3.428   6.754   2.771  0.4836 -1.2378  0.2285
 3888TIP3    H211629   3.567   6.722   2.721  0.1901 -0.3322 -1.2509
 3889TIP3   OH211630   1.625   2.564   1.324 -0.0974 -0.3341  0.4887
 3889TIP3    H111631   1.553   2.625   1.342  1.5740  0.9709  3.3560
 3889TIP3    H211632   1.583   2.478   1.325 -2.1416  0.5250 -1.4529
 3890TIP3   OH211633   0.131   4.060   5.623  0.1320  0.0688 -0.1214
 3890TIP3    H111634   0.101   4.146   5.653 -0.9348 -0.4092  0.2496
 3890TIP3    H211635   0.217   4.049   5.662 -1.0557 -0.3899  2.6140
 3891TIP3   OH211636   3.556   5.872   4.692 -0.2311 -0.3008 -0.2544
 3891TIP3    H111637   3.593   5.796   4.646 -1.1721 -0.7402 -0.3167
 3891TIP3    H211638   3.621   5.894   4.759  0.2779 -0.8538 -0.5534
 3892TIP3   OH211639   3.159   4.886   0.784 -0.1073 -0.3646 -0.3775
 3892TIP3    H111640   3.253   4.884   0.800 -0.1846  0.0207  0.1509
 3892TIP3    H211641   3.147   4.959   0.723  0.0057 -0.8311 -0.9693
 3893TIP3   OH211642   0.805   1.167   5.387 -0.4467 -0.0076 -0.2385
 3893TIP3    H111643   0.840   1.247   5.425 -1.1620  0.5201 -0.6545
 3893TIP3    H211644   0.726   1.149   5.438 -0.2045 -0.5355 -0.0473
 3894TIP3   OH211645   6.043   4.201   1.649  0.1893  0.0969  0.4732
 3894TIP3    H111646   6.116   4.216   1.588 -0.7484  1.4725 -0.3607
 3894TIP3    H211647   6.002   4.120   1.618 -0.8676  1.2923 -1.3707
 3895TIP3   OH211648   2.351   0.158   4.912  0.1091 -0.0247 -0.2148
 3895TIP3    H111649   2.379   0.244   4.945 -0.5827 -0.0678  0.5196
 3895TIP3    H211650   2.431   0.105   4.912  0.1013 -0.0809  1.6065
 3896TIP3   OH211651   0.609   3.460   1.719  0.3459  0.3732  0.6652
 3896TIP3    H111652   0.541   3.433   1.781  0.8354 -0.9026  0.6752
 3896TIP3    H211653   0.579   3.427   1.635 -0.8959  3.0858 -0.0790
 3897TIP3   OH211654   3.987   0.802   1.560 -0.0809  0.5243 -0.3919
 3897TIP3    H111655   3.976   0.850   1.642  1.5254  1.1106 -0.4866
 3897TIP3    H211656   4.010   0.869   1.496 -1.3036  0.0681 -1.3354
 3898TIP3   OH211657   7.235   2.946   2.649 -0.5303 -0.6878  0.7606
 3898TIP3    H111658   7.184   2.908   2.721 -0.1741 -3.3483 -0.2785
 3898TIP3    H211659   7.216   2.890   2.574  0.3613  1.0356 -0.8388
 3899TIP3   OH211660   3.462   3.454   5.289 -0.3811  0.4915 -0.0378
 3899TIP3    H111661   3.473   3.416   5.376  0.9474  0.2271 -0.3001
 3899TIP3    H211662   3.398   3.398   5.245 -0.0984 -0.1231  0.3333
 3900TIP3   OH211663   4.755   2.568   5.307 -0.3733  0.1624  0.1619
 3900TIP3    H111664   4.849   2.584   5.312 -0.4654  0.4422  1.5869
 3900TIP3    H211665   4.715   2.654   5.320 -0.8359  0.2088 -1.4322
 3901TIP3   OH211666   6.597   5.607   1.372  0.1875 -0.0864 -0.0985
 3901TIP3    H111667   6.644   5.621   1.454 -0.1877 -0.8621  0.2634
 3901TIP3    H211668   6.659   5.558   1.317 -0.5346 -2.1406  0.7981
 3902TIP3   OH211669   5.174   5.802   2.770  0.0772 -0.0458 -0.4932
 3902TIP3    H111670   5.184   5.786   2.864  0.6735  4.2872  0.3792
 3902TIP3    H211671   5.079   5.805   2.757 -0.0109  0.4168  0.2098
 3903TIP3   OH211672   6.942   6.724   1.332  0.4651  0.3098 -0.4940
 3903TIP3    H111673   6.852   6.726   1.365 -0.0408  3.7612 -1.6441
 3903TIP3    H211674   6.996   6.709   1.409 -0.8754  3.9976  1.4310
 3904TIP3   OH211675   6.896   2.135   5.713 -0.4607 -0.5990 -0.2937
 3904TIP3    H111676   6.863   2.161   5.627  0.2395  0.2408 -0.3243
 3904TIP3    H211677   6.982   2.098   5.695 -0.7779 -1.4593 -0.0677
 3905TIP3   OH211678   5.092   6.819   2.831 -0.8687 -0.2954  0.5239
 3905TIP3    H111679   5.081   6.724   2.842 -1.4151 -0.3225 -0.1613
 3905TIP3    H211680   5.185   6.834   2.845 -0.6695 -1.0282  0.0539
 3906TIP3   OH211681   2.144   5.548   1.831  0.6215  0.6653 -0.1582
 3906TIP3    H111682   2.185   5.465   1.806 -0.6240 -0.0410  0.0634
 3906TIP3    H211683   2.074   5.560   1.766 -0.1657  0.7723  0.6878
 3907TIP3   OH211684   5.999   1.729   4.164  0.2247  0.0430  0.1828
 3907TIP3    H111685   5.956   1.748   4.081  0.2427 -0.4141  0.0653
 3907TIP3    H211686   5.967   1.796   4.224 -2.1131 -1.3645  0.6037
 3908TIP3   OH211687   6.790   4.719   3.053  0.4971 -0.1129 -0.2538
 3908TIP3    H111688   6.698   4.711   3.028  0.3786  2.1132 -0.7526
 3908TIP3    H211689   6.838   4.679   2.980 -0.0507 -2.5528  0.6492
 3909TIP3   OH211690   6.925   1.835   5.265  0.1466  0.6048  0.3067
 3909TIP3    H111691   6.871   1.909   5.238 -0.1132  0.1196 -0.5379
 3909TIP3    H211692   7.009   1.875   5.290  0.5714  1.0839 -1.6596
 3910TIP3   OH211693   0.408   0.713   0.051  0.3647 -0.2142 -0.1563
 3910TIP3    H111694   0.455   0.790   0.081 -0.2588 -0.3372  1.2602
 3910TIP3    H211695   0.327   0.713   0.103  0.2077 -1.6267 -0.3493
 3911TIP3   OH211696   5.817   5.260   5.393  0.2719 -0.0019  0.0030
 3911TIP3    H111697   5.784   5.334   5.343 -0.3445 -0.9858 -1.0880
 3911TIP3    H211698   5.872   5.299   5.461 -2.1518  1.6323  1.1713
 3912TIP3   OH211699   5.576   4.513   3.095 -0.3848 -0.4413  0.1542
 3912TIP3    H111700   5.543   4.498   3.007  1.5552 -1.3701 -0.4690
 3912TIP3    H211701   5.571   4.607   3.107 -0.7624 -0.3162 -0.8932
 3913TIP3   OH211702   3.937   4.355   4.347 -0.8212  0.4710  0.2515
 3913TIP3    H111703   3.846   4.326   4.340 -0.8282  0.6420 -0.4174
 3913TIP3    H211704   3.988   4.274   4.352 -0.8063  0.2886 -2.0278
 3914TIP3   OH211705   1.727   1.030   1.202 -0.4086  0.1539  0.0656
 3914TIP3    H111706   1.648   1.084   1.194  0.3363  1.5004  1.3469
 3914TIP3    H211707   1.798   1.087   1.175  0.3354 -0.3682  0.8556
 3915TIP3   OH211708   0.816   4.764   5.308  0.0102 -0.8143  0.1148
 3915TIP3    H111709   0.821   4.860   5.306 -1.1175 -0.6855  1.6734
 3915TIP3    H211710   0.844   4.737   5.221 -0.0154  0.9528 -0.4819
 3916TIP3   OH211711   1.558   4.726   1.339 -0.4304 -0.6667 -0.2702
 3916TIP3    H111712   1.592   4.811   1.365  0.6639 -1.5055  1.2286
 3916TIP3    H211713   1.496   4.745   1.268 -0.6298  1.3993  0.3921
 3917TIP3   OH211714   2.050   2.559   0.484 -0.7767  0.1667 -0.2089
 3917TIP3    H111715   2.019   2.528   0.569  1.1843 -0.6822  0.2484
 3917TIP3    H211716   2.071   2.479   0.435  0.6440  0.6651 -0.4740
 3918TIP3   OH211717   6.627   1.640   5.666  0.2929 -0.2174  0.0289
 3918TIP3    H111718   6.706   1.674   5.708  0.3602  1.5311 -1.3883
 3918TIP3    H211719   6.555   1.686   5.709  0.2493  0.2314 -0.5048
 3919TIP3   OH211720   6.323   0.978   3.449  0.4232  0.1489  0.1144
 3919TIP3    H111721   6.364   0.915   3.509 -0.8004 -0.9022 -0.1175
 3919TIP3    H211722   6.390   1.045   3.436  0.6458  0.5734  2.8611
 3920TIP3   OH211723   0.689   4.665   1.714 -0.3040 -0.4564  0.0286
 3920TIP3    H111724   0.766   4.719   1.729 -0.6960 -0.1543  1.0853
 3920TIP3    H211725   0.705   4.585   1.764  0.7049 -1.8051 -2.3015
 3921TIP3   OH211726   5.138   5.890   3.794  0.3264 -1.0580 -0.0254
 3921TIP3    H111727   5.140   5.877   3.700 -1.3625 -0.5562 -0.1624
 3921TIP3    H211728   5.163   5.981   3.806 -0.2724 -0.8847 -0.0646
 3922TIP3   OH211729   3.017   6.106   0.859 -0.1401 -0.3551 -0.0418
 3922TIP3    H111730   3.043   6.180   0.913 -2.4533  0.7495 -0.3086
 3922TIP3    H211731   3.000   6.144   0.772  0.0585 -1.4591 -0.5813
 3923TIP3   OH211732   4.146   0.922   3.292 -0.3394  0.3602  0.4922
 3923TIP3    H111733   4.088   0.847   3.284 -0.0962  0.2575 -0.5719
 3923TIP3    H211734   4.209   0.898   3.360 -0.6546 -0.1300  0.6078
 3924TIP3   OH211735   2.768   1.152   3.618  0.2847 -0.0708  0.5502
 3924TIP3    H111736   2.681   1.145   3.579 -0.4263  1.5175  1.7479
 3924TIP3    H211737   2.827   1.119   3.550 -1.1807 -0.6677 -0.4965
 3925TIP3   OH211738   2.686   3.697   5.141  0.1205  0.5445 -0.2558
 3925TIP3    H111739   2.779   3.681   5.127  0.0681  0.3713 -0.4106
 3925TIP3    H211740   2.649   3.611   5.160  0.5580  0.9767  3.2505
 3926TIP3   OH211741   6.146   1.755   3.679  0.2752  0.0330  0.2977
 3926TIP3    H111742   6.240   1.772   3.670 -0.1637  3.7181  1.1561
 3926TIP3    H211743   6.109   1.782   3.594 -0.0997 -0.3916  0.3243
 3927TIP3   OH211744   3.177   4.096   0.518  0.4007 -0.8703 -0.1802
 3927TIP3    H111745   3.091   4.062   0.491 -0.0437  0.4399 -0.4994
 3927TIP3    H211746   3.240   4.031   0.486 -0.5078 -2.3355  0.8589
 3928TIP3   OH211747   6.439   6.124   3.617  0.1277  0.5616 -0.2858
 3928TIP3    H111748   6.468   6.213   3.637 -0.8717  0.9277 -0.4018
 3928TIP3    H211749   6.517   6.079   3.586  0.9381  1.0220  1.0158
 3929TIP3   OH211750   2.244   4.723   5.650 -0.7300  0.5576  0.0912
 3929TIP3    H111751   2.178   4.681   5.594  1.0041  1.3634 -2.7533
 3929TIP3    H211752   2.232   4.817   5.634 -0.3108  0.8167  1.2550
 3930TIP3   OH211753   7.035   0.796   4.801  0.1088  0.3735  0.0381
 3930TIP3    H111754   6.979   0.729   4.840  1.2871 -0.4562  0.3400
 3930TIP3    H211755   7.017   0.790   4.707 -0.5143  0.3160  0.1544
 3931TIP3   OH211756   5.563   3.166   5.346 -0.1117 -0.4416 -0.4432
 3931TIP3    H111757   5.638   3.176   5.289  1.4291 -1.2512  1.3330
 3931TIP3    H211758   5.586   3.216   5.425 -2.5792  1.4799 -0.7945
 3932TIP3   OH211759   5.032   5.515   3.888 -0.6208 -0.5365  0.1730
 3932TIP3    H111760   5.021   5.499   3.982 -3.5944 -1.0245 -0.1457
 3932TIP3    H211761   5.126   5.527   3.877  0.4076 -4.1693  2.6717
 3933TIP3   OH211762   0.379   1.944   3.256 -0.0515  0.0446  0.5981
 3933TIP3    H111763   0.299   1.968   3.209 -0.2605  1.0580  1.4368
 3933TIP3    H211764   0.402   2.023   3.306  0.7146 -0.6781  1.4217
 3934TIP3   OH211765   4.119   1.002   0.566  0.6304  0.0872 -0.4706
 3934TIP3    H111766   4.154   0.961   0.644  0.4627  0.6187 -0.1097
 3934TIP3    H211767   4.192   1.053   0.531  0.4938  0.4375 -0.2476
 3935TIP3   OH211768   4.901   2.969   2.453  0.1484 -0.1842 -0.2502
 3935TIP3    H111769   4.828   3.012   2.410 -0.4002 -0.5386  0.3192
 3935TIP3    H211770   4.930   2.903   2.389 -0.7796 -0.8330 -0.0184
 3936TIP3   OH211771   1.807   5.720   4.089  0.0760 -0.1164  0.3394
 3936TIP3    H111772   1.768   5.652   4.035  0.9108 -1.5212  1.4284
 3936TIP3    H211773   1.898   5.693   4.101  0.6524  1.5966  0.2011
 3937TIP3   OH211774   7.253   1.722   4.054  0.6529 -0.4307 -0.4522
 3937TIP3    H111775   7.205   1.658   4.106 -0.0997  1.1882  0.9515
 3937TIP3    H211776   7.185   1.773   4.010  1.2296 -0.5464 -1.5014
 3938TIP3   OH211777   3.253   6.260   1.582  0.2378 -0.1455  0.1329
 3938TIP3    H111778   3.201   6.186   1.552 -0.2265  0.0517  0.4438
 3938TIP3    H211779   3.276   6.307   1.501 -0.1123 -0.2027 -0.0025
 3939TIP3   OH211780   4.943   0.703   4.349  0.1746 -0.2573 -0.3343
 3939TIP3    H111781   4.861   0.735   4.313  0.7232  3.4046  1.2129
 3939TIP3    H211782   4.986   0.656   4.277 -1.8629  0.4677 -2.0870
 3940TIP3   OH211783   6.359   2.658   0.586  0.3945 -0.2705  0.1617
 3940TIP3    H111784   6.389   2.719   0.654  0.7831  0.0411 -0.2755
 3940TIP3    H211785   6.350   2.574   0.631 -0.0241  0.0822  0.7476
 3941TIP3   OH211786   4.639   2.160   5.659 -0.0710 -0.2875 -0.3477
 3941TIP3    H111787   4.683   2.212   5.592 -1.7036 -2.6968 -3.5604
 3941TIP3    H211788   4.548   2.156   5.630 -1.5100  0.5542  3.4664
 3942TIP3   OH211789   2.699   0.966   4.308 -0.2897 -0.1823 -0.4545
 3942TIP3    H111790   2.655   0.953   4.393 -1.0854  1.7591 -0.5252
 3942TIP3    H211791   2.754   0.888   4.298 -1.8255 -1.5204  0.8161
 3943TIP3   OH211792   2.218   6.115   1.399 -0.0670  0.5062 -0.3810
 3943TIP3    H111793   2.189   6.083   1.314  1.3923  0.4656 -0.8979
 3943TIP3    H211794   2.312   6.096   1.401  0.2540  1.9788  0.5544
 3944TIP3   OH211795   0.663   2.012   1.116  0.0617 -0.4977 -0.3130
 3944TIP3    H111796   0.754   2.003   1.144  0.1191 -1.4302 -0.7867
 3944TIP3    H211797   0.638   2.100   1.146  0.7355 -0.6879  0.8727
 3945TIP3   OH211798   3.223   3.668   3.922 -0.2591 -0.0681 -0.1952
 3945TIP3    H111799   3.288   3.617   3.971  1.5583  1.2292 -1.1590
 3945TIP3    H211800   3.181   3.723   3.988 -0.1606 -0.6797  0.3892
 3946TIP3   OH211801   4.303   1.658   1.882 -0.1202  0.1630  0.3908
 3946TIP3    H111802   4.290   1.737   1.935 -1.4053 -0.3307  0.8400
 3946TIP3    H211803   4.345   1.596   1.941  1.8477  0.7928 -0.2448
 3947TIP3   OH211804   3.512   1.898   2.693  0.0582  0.1536  0.5547
 3947TIP3    H111805   3.488   1.814   2.730  2.3020 -0.0891  1.6328
 3947TIP3    H211806   3.593   1.881   2.645  0.5235  1.6515  0.7497
 3948TIP3   OH211807   5.373   1.894   5.434 -0.1261  0.3582 -0.0624
 3948TIP3    H111808   5.279   1.889   5.454  0.0668 -0.5475  0.6569
 3948TIP3    H211809   5.405   1.805   5.445  1.1973  0.9833  1.5460
 3949TIP3   OH211810   4.412   1.980   0.888  0.7740  0.3362 -0.6144
 3949TIP3    H111811   4.402   1.990   0.983  2.0787  0.5268 -0.4711
 3949TIP3    H211812   4.499   2.016   0.870 -0.0144  1.6226 -2.0933
 3950TIP3   OH211813   7.053   4.120   5.779 -0.2031  0.8303  0.0222
 3950TIP3    H111814   7.092   4.155   5.860 -0.0919  1.8586 -0.4588
 3950TIP3    H211815   7.079   4.028   5.778  1.2950  1.2242  0.2832
 3951TIP3   OH211816   3.253   5.332   1.352 -0.2536  0.0551  0.5397
 3951TIP3    H111817   3.269   5.305   1.443 -2.4488  1.5048  1.4352
 3951TIP3    H211818   3.291   5.419   1.346 -0.3841  0.0877  0.1784
 3952TIP3   OH211819   2.006   0.345   3.051 -0.9106 -0.1827  0.0298
 3952TIP3    H111820   1.960   0.264   3.074  0.2279 -1.3727 -1.6090
 3952TIP3    H211821   2.099   0.324   3.064 -0.4436  0.1047 -2.4148
 3953TIP3   OH211822   4.005   6.634   2.375  0.8943  0.0860 -0.0675
 3953TIP3    H111823   4.068   6.660   2.309  1.5328 -0.1705  0.4268
 3953TIP3    H211824   4.046   6.658   2.458 -0.6284  1.9992  0.2060
 3954TIP3   OH211825   4.725   1.891   2.423 -0.1210 -0.3653 -0.1558
 3954TIP3    H111826   4.781   1.956   2.463 -0.0458 -0.5305  0.0104
 3954TIP3    H211827   4.714   1.920   2.332  1.4097 -1.0879 -0.5978
 3955TIP3   OH211828   1.624   3.002   2.302  0.1302  0.4116 -0.0483
 3955TIP3    H111829   1.624   2.907   2.305 -1.8904  0.3507 -0.7246
 3955TIP3    H211830   1.658   3.023   2.215  0.4468  0.3011  0.0490
 3956TIP3   OH211831   3.063   1.263   0.458  0.2959  0.2608  0.4662
 3956TIP3    H111832   3.020   1.236   0.377 -0.7749  0.5487  0.9208
 3956TIP3    H211833   3.044   1.356   0.465 -1.5339 -0.1800  2.1465
 3957TIP3   OH211834   6.185   6.448   3.200 -0.1722  0.0085 -0.2302
 3957TIP3    H111835   6.239   6.508   3.148 -0.9207 -0.6107 -1.8010
 3957TIP3    H211836   6.165   6.496   3.280 -0.6328  1.8073 -1.3656
 3958TIP3   OH211837   4.028   3.500   0.539 -0.1790 -0.2949  0.2050
 3958TIP3    H111838   4.007   3.412   0.572 -2.2406  0.4618  1.0698
 3958TIP3    H211839   4.051   3.486   0.447  0.4218 -1.8370  0.5617
 3959TIP3   OH211840   1.507   4.591   5.350  0.4734 -0.3729 -0.8777
 3959TIP3    H111841   1.495   4.664   5.410 -1.2254 -2.6121  1.7923
 3959TIP3    H211842   1.445   4.608   5.278 -1.1273  0.0434  0.5388
 3960TIP3   OH211843   5.563   1.358   0.597  0.1678  0.6509 -0.2715
 3960TIP3    H111844   5.507   1.322   0.665  0.0376  0.5812 -0.4182
 3960TIP3    H211845   5.627   1.412   0.646  0.7316 -0.2363  0.0015
 3961TIP3   OH211846   0.895   2.285   2.307  0.0798  0.9119  0.9200
 3961TIP3    H111847   0.865   2.295   2.397 -0.7374  2.8112  0.4745
 3961TIP3    H211848   0.816   2.287   2.254  0.4268 -1.4609  0.1755
 3962TIP3   OH211849   6.586   5.790   1.152  0.4547 -0.0977 -0.3034
 3962TIP3    H111850   6.679   5.802   1.135  0.3223 -0.0457 -1.0281
 3962TIP3    H211851   6.583   5.747   1.238  1.1134  0.5074  0.0365
 3963TIP3   OH211852   2.094   6.007   3.097  0.0452 -0.2933  0.4705
 3963TIP3    H111853   2.173   6.058   3.115 -0.3783  0.1950  0.9852
 3963TIP3    H211854   2.124   5.937   3.039  0.6257  0.5519 -0.2860
 3964TIP3   OH211855   5.530   4.944   1.788  0.2815  0.2994 -0.6184
 3964TIP3    H111856   5.493   4.934   1.875 -0.8832 -0.1332 -1.1450
 3964TIP3    H211857   5.576   4.862   1.772  0.6794  0.4646 -0.3311
 3965TIP3   OH211858   2.279   6.441   0.694 -0.3229  0.3418  0.6959
 3965TIP3    H111859   2.299   6.410   0.606 -0.8011  0.4824  0.5316
 3965TIP3    H211860   2.189   6.474   0.687 -0.5405 -0.1066  1.3584
 3966TIP3   OH211861   4.194   6.733   5.598 -0.4264  0.0718  0.0244
 3966TIP3    H111862   4.219   6.703   5.686  1.4930 -0.8564 -0.7824
 3966TIP3    H211863   4.208   6.827   5.600  0.3732 -0.0486  0.4891
 3967TIP3   OH211864   5.547   6.571   1.978 -0.4216  0.0236 -0.3302
 3967TIP3    H111865   5.578   6.661   1.990 -1.2266  0.1280  1.2658
 3967TIP3    H211866   5.534   6.538   2.067 -1.3378 -1.2543 -0.9033
 3968TIP3   OH211867   2.453   2.999   5.306  0.4440 -0.5101  0.0258
 3968TIP3    H111868   2.412   2.914   5.291 -0.8583 -0.0098  0.5585
 3968TIP3    H211869   2.451   3.011   5.401 -0.9180  0.8036 -0.1300
 3969TIP3   OH211870   1.964   1.913   0.465  0.1599  0.1212 -0.5434
 3969TIP3    H111871   1.880   1.920   0.420  0.1672 -0.5903 -0.6744
 3969TIP3    H211872   2.001   1.830   0.435 -0.5878 -1.2410  1.9652
 3970TIP3   OH211873   4.924   5.028   5.839  0.1120 -0.2332 -0.0716
 3970TIP3    H111874   4.992   5.050   5.776  0.0370 -0.0685 -0.0945
 3970TIP3    H211875   4.968   4.972   5.903 -0.3706 -2.5220 -1.6028
 3971TIP3   OH211876   7.175   6.762   5.311 -0.3863 -0.0629  0.5233
 3971TIP3    H111877   7.145   6.672   5.317  2.3809 -1.0874  0.4247
 3971TIP3    H211878   7.203   6.785   5.399  1.6191 -0.3908  0.0225
 3972TIP3   OH211879   1.307   1.934   4.775  0.4775  0.1040 -0.2142
 3972TIP3    H111880   1.373   1.865   4.765  2.1309  1.2777  1.9429
 3972TIP3    H211881   1.356   2.015   4.762 -1.0976  0.9626 -1.0028
 3973TIP3   OH211882   3.553   2.000   0.882 -0.4165  0.1245 -0.0488
 3973TIP3    H111883   3.482   1.970   0.825  1.1081 -1.0067 -1.4517
 3973TIP3    H211884   3.630   2.001   0.826  1.0082 -0.2535  1.7939
 3974TIP3   OH211885   3.535   4.951   5.736  0.1489 -0.5914 -0.3288
 3974TIP3    H111886   3.600   4.897   5.780  0.9222 -0.5814 -1.4332
 3974TIP3    H211887   3.574   4.972   5.651 -0.7591  0.4776 -0.5042
 3975TIP3   OH211888   3.742   5.337   4.954  0.0182  0.1647  0.3318
 3975TIP3    H111889   3.701   5.418   4.984 -0.4741 -0.4949  1.4804
 3975TIP3    H211890   3.825   5.333   5.002  0.1633  0.1017  0.0815
 3976TIP3   OH211891   3.836   1.233   3.921  0.1344 -0.4675  0.0090
 3976TIP3    H111892   3.877   1.165   3.975  0.1493  0.3918  1.1200
 3976TIP3    H211893   3.854   1.315   3.968 -0.4916  0.2316 -0.9309
 3977TIP3   OH211894   4.272   0.458   4.930  0.1264 -0.0101  0.8332
 3977TIP3    H111895   4.344   0.418   4.977 -0.3359 -0.5117  1.1291
 3977TIP3    H211896   4.201   0.394   4.936  0.0603 -0.1076 -0.5587
 3978TIP3   OH211897   3.718   3.408   5.755  0.3665 -0.1002 -0.1100
 3978TIP3    H111898   3.679   3.416   5.842  0.5350 -1.6245  0.1325
 3978TIP3    H211899   3.651   3.440   5.695  0.5080  1.6613  0.5883
 3979TIP3   OH211900   3.696   1.818   5.412  0.4745 -0.4074 -0.0742
 3979TIP3    H111901   3.618   1.769   5.383  1.6832 -1.3674 -1.9830
 3979TIP3    H211902   3.717   1.781   5.498 -1.5912  0.4357  0.8549
 3980TIP3   OH211903   7.145   4.850   5.274  0.1496 -0.0578  0.1775
 3980TIP3    H111904   7.212   4.805   5.222  0.2653  1.2158 -0.8371
 3980TIP3    H211905   7.110   4.782   5.332  0.7319 -1.2937 -0.8625
 3981TIP3   OH211906   2.067   0.931   3.450  0.0614  0.4019  0.0053
 3981TIP3    H111907   2.026   0.862   3.503 -0.0141 -0.2048 -0.8274
 3981TIP3    H211908   2.154   0.941   3.488  0.7092 -1.3911 -0.9299
 3982TIP3   OH211909   4.393   0.639   4.760 -0.0070 -0.3547  0.4900
 3982TIP3    H111910   4.348   0.579   4.820 -2.6479  0.9033 -0.0849
 3982TIP3    H211911   4.369   0.726   4.792  1.9676  0.4065  0.0249
 3983TIP3   OH211912   6.356   1.134   4.018  0.3038  0.1319  0.5002
 3983TIP3    H111913   6.410   1.102   4.091 -0.4643 -0.5238  0.7955
 3983TIP3    H211914   6.402   1.213   3.988  1.3078 -0.2877  0.8752
 3984TIP3   OH211915   2.323   3.873   2.063 -0.6401 -0.2434 -0.2166
 3984TIP3    H111916   2.310   3.918   1.979  1.8705  0.2164 -0.4398
 3984TIP3    H211917   2.253   3.907   2.119 -1.0493  1.1184 -1.4768
 3985TIP3   OH211918   5.295   3.913   3.522 -0.4201  0.3056  0.7984
 3985TIP3    H111919   5.386   3.927   3.547  0.8815 -0.5628 -2.8240
 3985TIP3    H211920   5.283   3.818   3.529  0.2892 -0.1177 -2.1582
 3986TIP3   OH211921   2.459   3.221   0.254 -0.0842 -0.2675  0.4052
 3986TIP3    H111922   2.449   3.128   0.273 -1.9438 -0.1600  0.1179
 3986TIP3    H211923   2.436   3.230   0.162  2.1091  0.2194 -0.1539
 3987TIP3   OH211924   2.596   4.397   2.036 -0.5196  0.4906 -0.0530
 3987TIP3    H111925   2.687   4.370   2.053 -0.6237 -0.8228 -1.4357
 3987TIP3    H211926   2.579   4.463   2.103  1.1899  0.1878  0.7522
 3988TIP3   OH211927   6.064   3.613   2.035  0.1103 -0.2127 -0.1817
 3988TIP3    H111928   6.128   3.568   2.090 -0.4803 -1.8009 -0.7526
 3988TIP3    H211929   5.981   3.570   2.055 -0.1671 -0.6398 -2.1065
 3989TIP3   OH211930   6.194   0.086   1.918 -0.2380  0.7241 -0.7608
 3989TIP3    H111931   6.224  -0.002   1.940 -2.0445  0.4379  0.7680
 3989TIP3    H211932   6.273   0.133   1.890  0.9728 -0.9596 -0.2534
 3990TIP3   OH211933   7.117   4.130   5.019  0.0026  0.3740  0.3137
 3990TIP3    H111934   7.145   4.090   4.937 -0.3873 -0.7352  0.7026
 3990TIP3    H211935   7.028   4.162   5.001 -0.1925 -0.1206  0.3735
 3991TIP3   OH211936   3.293   2.300   0.765 -0.0526 -0.5164  0.3280
 3991TIP3    H111937   3.356   2.287   0.694 -1.2750 -0.9698 -0.7082
 3991TIP3    H211938   3.267   2.211   0.791 -1.3133 -0.3294 -0.2307
 3992TIP3   OH211939   4.798   2.911   3.057  0.0204 -0.5010 -0.1932
 3992TIP3    H111940   4.808   3.000   3.091  1.9927 -0.3323 -1.0680
 3992TIP3    H211941   4.792   2.923   2.962  0.6281 -1.3321 -0.3388
 3993TIP3   OH211942   3.867   6.731   4.924  0.5886 -0.1873  0.0053
 3993TIP3    H111943   3.860   6.763   4.834  1.1910 -0.1225 -0.0218
 3993TIP3    H211944   3.823   6.798   4.976  1.3475  0.4229 -0.1112
 3994TIP3   OH211945   3.447   0.590   0.636  0.1695  0.0666  0.7919
 3994TIP3    H111946   3.417   0.679   0.617 -1.1695 -0.3014  1.0494
 3994TIP3    H211947   3.486   0.559   0.555 -1.1336  0.2110  0.0839
 3995TIP3   OH211948   0.482   5.871   0.987  0.0372  0.8059 -0.3245
 3995TIP3    H111949   0.544   5.899   0.920  1.2374 -0.7515  0.0609
 3995TIP3    H211950   0.398   5.866   0.943  0.2711  2.4510 -1.0033
 3996TIP3   OH211951   4.849   4.577   2.810  0.5224 -0.6888 -0.5558
 3996TIP3    H111952   4.830   4.596   2.902  0.6580 -0.8423 -0.4952
 3996TIP3    H211953   4.911   4.644   2.784  1.2283 -1.2095 -0.2586
 3997TIP3   OH211954   3.120   4.083   1.878 -0.2293 -0.3860  0.1138
 3997TIP3    H111955   3.060   4.010   1.889  0.5103 -0.7692  1.9021
 3997TIP3    H211956   3.070   4.148   1.828 -1.7097 -1.1567  0.5349
 3998TIP3   OH211957   3.105   0.369   0.295  0.4802 -0.6944 -0.0404
 3998TIP3    H111958   3.089   0.454   0.335  0.6758 -0.3588 -0.6603
 3998TIP3    H211959   3.106   0.387   0.201  0.9888 -1.3035 -0.1540
 3999TIP3   OH211960   3.136   5.525   1.597  0.0219  0.1846  0.0653
 3999TIP3    H111961   3.210   5.475   1.631  0.5704 -0.1770 -1.5674
 3999TIP3    H211962   3.063   5.463   1.598 -0.2242  0.4537  1.3903
 4000TIP3   OH211963   5.059   4.048   5.477 -0.7490 -0.2939 -0.6443
 4000TIP3    H111964   5.136   4.012   5.523 -0.1179  0.9263 -0.7092
 4000TIP3    H211965   4.984   4.009   5.522 -0.1156 -0.4073  0.3459
 4001TIP3   OH211966   5.285   5.773   1.691 -0.4993  0.0264  0.0168
 4001TIP3    H111967   5.211   5.822   1.727  0.6210  0.4023  2.0154
 4001TIP3    H211968   5.324   5.831   1.626 -1.5014  0.1355 -0.4904
 4002TIP3   OH211969   2.625   1.989   4.203  0.2603  0.0618 -0.3317
 4002TIP3    H111970   2.623   2.045   4.281  1.5042  0.6754 -0.7198
 4002TIP3    H211971   2.576   2.038   4.137 -1.7314 -0.9323  0.3170
 4003TIP3   OH211972   6.914   0.316   4.950  0.3903  0.0611  0.4758
 4003TIP3    H111973   6.899   0.399   4.905 -1.5442 -0.0852  0.7572
 4003TIP3    H211974   6.948   0.342   5.036  0.3569  0.5313  0.3522
 4004TIP3   OH211975   3.726   2.098   5.450 -0.9271  0.1642  0.0210
 4004TIP3    H111976   3.689   2.147   5.376  0.4475 -0.0062 -0.8122
 4004TIP3    H211977   3.707   2.007   5.430  0.3477  0.0267 -0.6937
 4005TIP3   OH211978   0.397   1.491   2.661  0.0815 -0.0061 -0.9211
 4005TIP3    H111979   0.461   1.539   2.713  0.6759 -1.5119 -0.1797
 4005TIP3    H211980   0.324   1.475   2.722 -0.2726  0.2674 -1.2688
 4006TIP3   OH211981   0.582   0.168   2.185 -0.2865  0.1673 -0.1559
 4006TIP3    H111982   0.590   0.238   2.120  0.5312  0.1191 -0.1225
 4006TIP3    H211983   0.653   0.108   2.164 -0.5696 -0.3056  0.2340
 4007TIP3   OH211984   4.834   4.776   5.256  0.1805  1.0450 -0.5715
 4007TIP3    H111985   4.904   4.829   5.217  1.9810 -0.4177  0.5215
 4007TIP3    H211986   4.875   4.692   5.275 -2.0322 -0.0594 -0.3085
 4008TIP3   OH211987   0.117   5.844   1.452 -0.4535 -0.0150  0.0221
 4008TIP3    H111988   0.203   5.858   1.492  0.9700 -0.7935 -2.5368
 4008TIP3    H211989   0.076   5.777   1.506  0.4456  0.5154  1.4137
 4009TIP3   OH211990   1.330   4.703   5.170  0.3751 -0.9741  0.2880
 4009TIP3    H111991   1.346   4.639   5.100  0.5043  1.0711 -1.6810
 4009TIP3    H211992   1.379   4.781   5.143 -1.5271  0.7253  1.4204
 4010TIP3   OH211993   1.624   4.423   2.094  0.2068 -0.0962  0.4591
 4010TIP3    H111994   1.573   4.502   2.076  1.1186  0.1936 -1.0797
 4010TIP3    H211995   1.574   4.352   2.054 -1.1550 -0.5168  2.7655
 4011TIP3   OH211996   3.179   1.710   0.525  0.0056 -0.5767  0.2431
 4011TIP3    H111997   3.227   1.637   0.486 -0.8177 -1.1128  0.2083
 4011TIP3    H211998   3.246   1.778   0.540  0.4816 -0.6438 -1.3727
 4012TIP3   OH211999   3.657   3.777   1.523 -0.2206  0.5370  0.2904
 4012TIP3    H112000   3.659   3.684   1.545  0.0762 -0.0418 -1.9285
 4012TIP3    H212001   3.570   3.791   1.486  0.0363  0.9376 -0.1721
 4013TIP3   OH212002   7.223   6.555  -0.016  0.3356 -0.1183  0.0093
 4013TIP3    H112003   7.148   6.499   0.005 -0.3552  1.1687  1.1032
 4013TIP3    H212004   7.277   6.553   0.063 -0.1447  1.4232  0.4030
 4014TIP3   OH212005   6.507   1.306   1.665  0.3180  0.5077 -0.3600
 4014TIP3    H112006   6.594   1.313   1.705  0.7348 -1.0924 -0.9069
 4014TIP3    H212007   6.521   1.250   1.588 -1.5032 -1.3783  0.5837
 4015TIP3   OH212008   7.045   2.208   2.630 -0.0787 -0.3537  0.1055
 4015TIP3    H112009   6.982   2.277   2.650  0.9274  1.2442 -1.8129
 4015TIP3    H212010   7.127   2.238   2.669  0.6070  0.1017 -1.6023
 4016TIP3   OH212011   2.832   5.260   2.676 -0.3622  0.0437  0.3133
 4016TIP3    H112012   2.860   5.183   2.726  0.4085 -0.2941 -0.6081
 4016TIP3    H212013   2.803   5.224   2.592 -0.6208  0.6991  0.1234
 4017TIP3   OH212014   3.042   0.846   5.662  0.3593  0.2205  0.6626
 4017TIP3    H112015   3.015   0.843   5.754 -2.0092 -0.2047  0.0138
 4017TIP3    H212016   3.016   0.933   5.632 -1.6497 -0.6380 -0.3070
 4018TIP3   OH212017   3.279   1.057   5.888  0.2241  0.0732  0.2471
 4018TIP3    H112018   3.302   0.965   5.880  0.1290 -0.1376  1.8772
 4018TIP3    H212019   3.184   1.057   5.896  0.1870  0.3516 -0.2031
 4019TIP3   OH212020   6.913   5.089   1.725  0.2907 -0.5737 -0.1144
 4019TIP3    H112021   6.998   5.059   1.756  0.1239 -0.9108  0.0204
 4019TIP3    H212022   6.907   5.055   1.636 -0.1338 -1.4274  0.2296
 4020TIP3   OH212023   1.127   3.616   0.152  0.8273 -0.5368  0.1200
 4020TIP3    H112024   1.140   3.638   0.244  0.9988 -0.0576 -0.0124
 4020TIP3    H212025   1.202   3.655   0.107  1.7494 -2.3759 -0.0097
 4021TIP3   OH212026   2.781   6.819   0.779 -0.8233  0.2328 -0.0031
 4021TIP3    H112027   2.749   6.739   0.821 -0.6725 -0.4592 -1.1367
 4021TIP3    H212028   2.848   6.788   0.718  0.8839  1.4851  1.1671
 4022TIP3   OH212029   0.330   1.933   3.679 -0.4343 -0.4208 -0.2704
 4022TIP3    H112030   0.253   1.901   3.726 -0.3305 -0.7768 -0.3346
 4022TIP3    H212031   0.313   2.026   3.666 -0.1948 -0.1792  0.9907
 4023TIP3   OH212032   7.042   3.710   1.268 -0.0863  0.0489  0.8011
 4023TIP3    H112033   7.021   3.720   1.175  2.6831 -0.5255  0.0260
 4023TIP3    H212034   7.120   3.656   1.270  1.0482  1.5700  3.3692
 4024TIP3   OH212035   6.779   6.550   5.854 -0.0242 -0.9682 -0.0248
 4024TIP3    H112036   6.751   6.558   5.946  0.0940 -0.9131  0.0070
 4024TIP3    H212037   6.733   6.620   5.809 -0.4509 -1.2900 -0.0966
 4025TIP3   OH212038   1.065   4.791   3.438 -0.1533  0.3656  0.6173
 4025TIP3    H112039   1.047   4.781   3.345 -0.0115 -0.3758  0.6621
 4025TIP3    H212040   1.154   4.758   3.450  0.1082  1.1454  0.8995
 4026TIP3   OH212041   0.560   2.018   3.823  0.1199  0.7293 -0.5874
 4026TIP3    H112042   0.476   1.999   3.783  0.4726  0.1890 -1.0891
 4026TIP3    H212043   0.595   1.932   3.847  1.1341  0.8284 -1.6430
 4027TIP3   OH212044   7.003   5.201   5.199 -0.0350  0.1860 -0.3311
 4027TIP3    H112045   7.032   5.292   5.197  0.2646  0.0793 -1.5366
 4027TIP3    H212046   7.058   5.157   5.135  1.4537 -1.3889  1.8895
 4028TIP3   OH212047   1.926   2.565   0.949  0.1422  0.2846  0.4024
 4028TIP3    H112048   2.003   2.622   0.953 -1.0389  1.9319  2.2118
 4028TIP3    H212049   1.860   2.611   1.001 -1.8311 -1.4329 -0.4118
 4029TIP3   OH212050   1.161   5.579   3.245  0.0194 -0.5072 -0.8078
 4029TIP3    H112051   1.067   5.559   3.242  0.1689 -1.8948  1.4845
 4029TIP3    H212052   1.203   5.500   3.210  0.3576 -0.0916 -1.3498
 4030TIP3   OH212053   5.743   1.136   0.708 -0.0879  0.1740  0.2472
 4030TIP3    H112054   5.745   1.090   0.792 -0.8748  1.1172  0.8075
 4030TIP3    H212055   5.768   1.225   0.729 -2.8062  1.1070 -0.0120
 4031TIP3   OH212056   3.655   4.273   4.309 -0.0721  0.4303  0.1829
 4031TIP3    H112057   3.652   4.359   4.351 -0.5903  1.2025 -1.3419
 4031TIP3    H212058   3.569   4.235   4.328 -0.6712  1.1728 -0.8999
 4032TIP3   OH212059   1.336   0.074   3.794  0.4669  0.0515  0.5526
 4032TIP3    H112060   1.419   0.112   3.765  0.4809 -0.5091 -0.1588
 4032TIP3    H212061   1.273   0.103   3.728  0.5139 -1.3226 -0.1205
 4033TIP3   OH212062   3.851   2.180   3.972 -0.4698  0.1819  0.1460
 4033TIP3    H112063   3.786   2.137   3.916 -0.3141 -1.5754  1.2591
 4033TIP3    H212064   3.830   2.150   4.060  1.7461 -0.2844  0.5623
 4034TIP3   OH212065   4.783   4.656   0.284  0.1939 -0.2319  0.0212
 4034TIP3    H112066   4.815   4.741   0.254 -0.2226  0.2666  0.9455
 4034TIP3    H212067   4.702   4.643   0.236  0.0579  0.0841  0.1568
 4035TIP3   OH212068   3.178   2.458   1.393  0.3277 -0.7758 -0.1704
 4035TIP3    H112069   3.105   2.438   1.334 -0.5365  1.6914 -0.0661
 4035TIP3    H212070   3.156   2.415   1.475 -0.8124 -0.4565 -0.2890
 4036TIP3   OH212071   4.616   3.381   0.187 -0.1628  0.3388  0.0937
 4036TIP3    H112072   4.564   3.455   0.218 -1.3591 -0.4139 -0.0238
 4036TIP3    H212073   4.705   3.400   0.216 -0.7670  0.9565  1.6499
 4037TIP3   OH212074   3.602   6.572   3.960 -0.4475  0.6014 -0.0371
 4037TIP3    H112075   3.551   6.547   3.883  0.6546 -1.0226 -0.3002
 4037TIP3    H212076   3.543   6.628   4.011 -2.7246 -1.5432 -0.0836
 4038TIP3   OH212077   3.540   3.653   3.696 -0.3411 -0.1438  0.3000
 4038TIP3    H112078   3.498   3.624   3.776  0.4422  1.5701  1.3926
 4038TIP3    H212079   3.486   3.726   3.666  1.8500  2.3539  1.9357
 4039TIP3   OH212080   0.552   5.561   3.940  0.0378 -0.2163  0.6767
 4039TIP3    H112081   0.623   5.511   3.902 -0.1972 -0.9480  1.1816
 4039TIP3    H212082   0.591   5.607   4.014  0.1966  0.1425  0.3701
 4040TIP3   OH212083   4.997   6.001   4.466 -0.0600 -0.6055  0.5171
 4040TIP3    H112084   4.931   5.948   4.421 -1.5036 -0.2753  2.1658
 4040TIP3    H212085   4.963   6.013   4.555  1.2363  1.2955  0.8270
 4041TIP3   OH212086   1.323   2.577   5.425 -0.3276  0.5693  0.2037
 4041TIP3    H112087   1.356   2.499   5.380  2.4859  0.9531  1.4048
 4041TIP3    H212088   1.281   2.544   5.504 -0.4952  0.1899 -0.0442
 4042TIP3   OH212089   3.254   4.399   1.647  0.0673  0.0654 -0.5886
 4042TIP3    H112090   3.257   4.305   1.625 -0.5844 -0.9124  2.8720
 4042TIP3    H212091   3.346   4.426   1.644  0.3641 -0.8977 -0.8602
 4043TIP3   OH212092   3.380   3.716   4.215 -0.5938  0.2189  0.0060
 4043TIP3    H112093   3.333   3.645   4.171  2.0936 -0.7355 -1.5415
 4043TIP3    H212094   3.463   3.722   4.169  1.3714  0.9594  3.3332
 4044TIP3   OH212095   0.734   0.010   1.628 -0.0289 -1.1979 -0.9949
 4044TIP3    H112096   0.753   0.104   1.627  0.2745 -1.2399 -0.2760
 4044TIP3    H212097   0.639   0.004   1.614 -0.4832 -0.6239  1.4011
 4045TIP3   OH212098   0.936   4.841   2.313  0.5011  0.0341 -0.3616
 4045TIP3    H112099   0.867   4.903   2.290 -0.8269 -1.4707 -0.6358
 4045TIP3    H212100   0.927   4.830   2.408 -0.2588 -0.8409 -0.5246
 4046TIP3   OH212101   0.369   3.332   1.837 -0.2573 -0.2849  0.2963
 4046TIP3    H112102   0.397   3.308   1.925 -1.8904 -0.8973  0.6844
 4046TIP3    H212103   0.277   3.358   1.848 -0.5281 -0.5256 -1.2491
 4047TIP3   OH212104   5.615   5.937   4.190  0.1498 -0.7155  0.2706
 4047TIP3    H112105   5.601   5.863   4.131  0.4759 -0.1739 -0.5090
 4047TIP3    H212106   5.546   5.999   4.167  0.7431 -0.1712 -0.1092
 4048TIP3   OH212107   4.134   6.755   3.017 -0.5033 -0.1861  0.2318
 4048TIP3    H112108   4.106   6.674   3.061 -1.5772 -0.0800 -0.2401
 4048TIP3    H212109   4.134   6.821   3.087 -0.1935 -0.4562  0.4939
 4049TIP3   OH212110   4.145   0.732   5.020  0.3280  0.1843 -0.0926
 4049TIP3    H112111   4.053   0.756   5.020 -0.2880 -1.9680 -0.6678
 4049TIP3    H212112   4.191   0.810   4.987 -1.2219  1.3452  0.3720
 4050TIP3   OH212113   2.944   2.328   3.668 -0.0572 -0.0329  0.2669
 4050TIP3    H112114   2.927   2.386   3.743 -0.3244 -0.4990  0.5735
 4050TIP3    H212115   2.933   2.240   3.703 -2.0019 -0.2465 -0.7330
 4051TIP3   OH212116   2.973   4.675   1.655 -0.0400  0.0407  0.0285
 4051TIP3    H112117   3.069   4.678   1.647  0.0150 -0.1605  0.5215
 4051TIP3    H212118   2.948   4.593   1.613 -0.0026  0.1289 -0.1655
 4052TIP3   OH212119   2.166   4.302   4.991  0.4488  0.6032  0.0746
 4052TIP3    H112120   2.160   4.343   4.904  0.9106  0.2887 -0.1098
 4052TIP3    H212121   2.221   4.363   5.041  2.5979 -0.5785 -0.7044
 4053TIP3   OH212122   6.473   6.165   1.734  0.1754  0.2441 -0.5051
 4053TIP3    H112123   6.500   6.108   1.662  0.4544 -0.2845  0.0083
 4053TIP3    H212124   6.465   6.106   1.809 -2.5472  0.3282 -0.6392
 4054TIP3   OH212125   0.771   5.493   4.286  1.0512 -0.0550  0.2920
 4054TIP3    H112126   0.754   5.580   4.248  0.2056  1.1739  3.2514
 4054TIP3    H212127   0.694   5.442   4.263  0.3495  0.7943  0.6924
 4055TIP3   OH212128   2.177   6.694   5.835 -0.0126  0.0117 -0.7125
 4055TIP3    H112129   2.206   6.774   5.792 -0.2105  0.2622 -0.3867
 4055TIP3    H212130   2.240   6.681   5.906 -2.5509  2.5000  2.2770
 4056TIP3   OH212131   2.109   0.031   0.200  0.1448 -0.0691 -0.0471
 4056TIP3    H112132   2.097  -0.057   0.164 -1.4789 -0.1095  0.5142
 4056TIP3    H212133   2.200   0.032   0.229 -0.0251 -1.8844  0.7385
 4057TIP3   OH212134   3.501   5.187   2.087  0.1789  0.5457 -0.1182
 4057TIP3    H112135   3.568   5.120   2.071 -0.6299  0.2118 -2.5206
 4057TIP3    H212136   3.421   5.150   2.051  0.0744  3.4477 -3.4292
 4058TIP3   OH212137   5.615   3.704   0.588 -0.3698  0.4857 -0.0748
 4058TIP3    H112138   5.626   3.614   0.618 -0.2392  0.5641  0.1113
 4058TIP3    H212139   5.692   3.751   0.621  0.0473  0.4554 -0.9817
 4059TIP3   OH212140   0.929   3.827   0.085 -0.8498  0.2847 -0.1274
 4059TIP3    H112141   0.989   3.773   0.136 -0.3533  0.0226 -0.9887
 4059TIP3    H212142   0.966   3.829  -0.003 -3.2151 -1.7003 -1.2897
 4060TIP3   OH212143  -0.021   5.251   2.357 -0.0743  0.0952  0.2866
 4060TIP3    H112144  -0.012   5.334   2.404 -0.4119  2.3126 -3.2081
 4060TIP3    H212145   0.059   5.245   2.304 -0.6138 -1.2019 -0.4079
 4061TIP3   OH212146   3.940   6.347   4.213 -0.0768  0.0381 -0.6921
 4061TIP3    H112147   3.888   6.415   4.257  0.0765 -0.4257  0.2273
 4061TIP3    H212148   4.017   6.337   4.269  0.3538 -0.2308 -1.3318
 4062TIP3   OH212149   0.617   0.557   5.155 -0.1997  0.1011  0.2327
 4062TIP3    H112150   0.547   0.570   5.092  1.4973  0.4806 -1.6732
 4062TIP3    H212151   0.634   0.462   5.153 -0.7839 -0.0266  0.8783
 4063TIP3   OH212152   4.128   2.465   3.543 -0.0480  0.0916  0.1125
 4063TIP3    H112153   4.157   2.460   3.634 -0.4170 -0.3799  0.2088
 4063TIP3    H212154   4.173   2.541   3.507  0.8783 -0.3104  0.4088
 4064TIP3   OH212155   1.205   3.473   3.416  0.2339 -0.5084  0.5443
 4064TIP3    H112156   1.209   3.380   3.396 -1.8301 -0.3053 -1.2118
 4064TIP3    H212157   1.125   3.483   3.468 -1.2148  0.5606 -1.7205
 4065TIP3   OH212158   2.791   6.510   1.561 -0.5480  0.1934 -0.2034
 4065TIP3    H112159   2.772   6.603   1.546  0.5392  0.3445 -0.7749
 4065TIP3    H212160   2.741   6.464   1.493 -1.4402  0.3193  0.3600
 4066TIP3   OH212161   0.450   3.647   4.913  0.0630 -0.1498 -0.2720
 4066TIP3    H112162   0.364   3.626   4.876  0.2617 -0.0117 -0.8278
 4066TIP3    H212163   0.471   3.733   4.877 -0.3628  0.6450  1.3046
 4067TIP3   OH212164   4.815   5.976   4.962 -0.5533  0.0300 -0.6174
 4067TIP3    H112165   4.864   5.971   5.043  0.4871 -0.5373 -1.2568
 4067TIP3    H212166   4.749   6.044   4.977  0.8675  1.3096  0.0360
 4068TIP3   OH212167   1.600   6.311   5.641  0.1739  0.8021 -0.0371
 4068TIP3    H112168   1.660   6.287   5.571  1.3292  0.8097  0.9228
 4068TIP3    H212169   1.603   6.407   5.643  0.5613  0.7850  0.3653
 4069TIP3   OH212170   0.274   4.124   0.263 -0.0330 -0.3942 -0.0981
 4069TIP3    H112171   0.192   4.172   0.277 -0.8424 -1.3406 -1.4045
 4069TIP3    H212172   0.342   4.190   0.272 -1.1369  1.1723 -2.2778
 4070TIP3   OH212173   5.490   3.075   4.179 -0.2339  0.0322  0.7526
 4070TIP3    H112174   5.453   3.111   4.098  0.7008  1.5690  0.9649
 4070TIP3    H212175   5.419   3.081   4.242 -0.0767  1.7014  0.8138
 4071TIP3   OH212176   3.036   0.240   2.849 -0.1677 -0.2627  0.2412
 4071TIP3    H112177   3.106   0.233   2.913  0.6668 -0.3173 -0.6494
 4071TIP3    H212178   3.079   0.227   2.764 -0.6955  2.8340 -0.6139
 4072TIP3   OH212179   3.350   6.508   2.594 -0.5443 -0.0713 -0.0195
 4072TIP3    H112180   3.320   6.542   2.678  0.0742 -0.8868  0.5470
 4072TIP3    H212181   3.269   6.498   2.542 -0.7192  2.6355 -0.4082
 4073TIP3   OH212182   4.045   6.314   1.400  0.1468 -0.6524  0.2757
 4073TIP3    H112183   4.011   6.366   1.473  0.0530 -1.9113  1.1489
 4073TIP3    H212184   4.086   6.238   1.441  0.6144 -1.0933 -0.9587
 4074TIP3   OH212185   0.062   0.288   2.640  0.3472  0.5683 -0.2820
 4074TIP3    H112186   0.114   0.357   2.681 -0.8152  1.4019 -0.1418
 4074TIP3    H212187  -0.024   0.329   2.625  0.1375 -0.3392 -1.7191
 4075TIP3   OH212188   0.283   3.309   5.727 -0.3018  0.1831 -0.1102
 4075TIP3    H112189   0.329   3.232   5.761 -1.7145 -1.0047 -0.7545
 4075TIP3    H212190   0.333   3.335   5.650  1.1141  0.9539  1.0120
 4076TIP3   OH212191   4.845   4.201   1.337  0.3099 -0.1605 -0.5593
 4076TIP3    H112192   4.837   4.262   1.264  1.1287 -0.6781 -1.0986
 4076TIP3    H212193   4.757   4.199   1.376  0.2390  1.2371 -0.6118
 4077TIP3   OH212194   2.727   6.071   2.721  0.0465  0.1952  0.1005
 4077TIP3    H112195   2.727   6.022   2.639  0.4559  1.5584 -0.7650
 4077TIP3    H212196   2.640   6.112   2.724  0.1873  0.4988  0.1098
 4078TIP3   OH212197   0.173   1.605   1.005 -0.5874 -0.1031  0.4592
 4078TIP3    H112198   0.169   1.613   0.910 -0.2094 -0.6725  0.3883
 4078TIP3    H212199   0.097   1.550   1.027  1.1398 -2.8232  0.1113
 4079TIP3   OH212200   4.124   6.111   4.839  0.5806  0.6892  0.1181
 4079TIP3    H112201   4.192   6.130   4.904  1.9354 -1.1254 -0.6797
 4079TIP3    H212202   4.155   6.154   4.759  1.0605 -0.5056 -0.3619
 4080TIP3   OH212203   3.484   6.665   1.288  0.1151 -0.5062 -0.1839
 4080TIP3    H112204   3.557   6.604   1.283 -0.7566 -1.6261  0.2138
 4080TIP3    H212205   3.461   6.682   1.197  0.2975 -0.8576 -0.2977
 4081TIP3   OH212206   2.865   5.319   5.630 -0.4488  0.9203 -0.5426
 4081TIP3    H112207   2.910   5.389   5.678  0.7946 -0.4019  0.3191
 4081TIP3    H212208   2.870   5.346   5.538  1.6650  1.0883 -0.4221
 4082TIP3   OH212209   5.378   6.514   1.597 -0.5433  0.0402 -0.2951
 4082TIP3    H112210   5.338   6.598   1.623  0.0209  0.3062 -0.2584
 4082TIP3    H212211   5.340   6.495   1.511 -1.8931 -0.4847  0.3859
 4083TIP3   OH212212   5.262   6.302   4.286  0.1787  0.2927  0.3668
 4083TIP3    H112213   5.245   6.386   4.243  0.5363  0.2467  0.1376
 4083TIP3    H212214   5.176   6.260   4.290  0.3856 -0.4172 -1.8123
 4084TIP3   OH212215   3.197   0.899   2.522  0.0140  0.4004 -0.2638
 4084TIP3    H112216   3.117   0.925   2.567  0.4465 -2.2475  2.3025
 4084TIP3    H212217   3.265   0.954   2.561 -0.2659  1.7530 -1.5495
 4085TIP3   OH212218   1.137   5.013   1.234  0.0904  0.4562 -0.6467
 4085TIP3    H112219   1.178   5.029   1.319 -2.3743 -1.1200  0.9902
 4085TIP3    H212220   1.064   5.074   1.231 -0.6561 -0.4325 -0.9838
 4086TIP3   OH212221   5.336   2.617   4.080 -0.1430 -0.0415  0.7762
 4086TIP3    H112222   5.275   2.549   4.050  0.1111  0.0093  0.1376
 4086TIP3    H212223   5.281   2.695   4.090 -0.3504 -0.2217  1.0783
 4087TIP3   OH212224   3.256   5.900   1.239 -0.1941  0.3408  0.2494
 4087TIP3    H112225   3.211   5.836   1.294  1.4632 -0.4539  0.7404
 4087TIP3    H212226   3.234   5.874   1.149 -1.1411  0.3302  0.4656
 4088TIP3   OH212227   4.697   2.853   5.352 -0.1166  0.4945  0.0454
 4088TIP3    H112228   4.759   2.895   5.292  2.1887 -0.1079  1.8511
 4088TIP3    H212229   4.679   2.919   5.419 -0.9415  0.4323 -0.0995
 4089TIP3   OH212230   0.798   3.868   4.174 -0.5445 -0.3478 -0.0251
 4089TIP3    H112231   0.843   3.952   4.181 -0.4214 -0.4530  0.5044
 4089TIP3    H212232   0.713   3.889   4.136 -1.0146  0.1990  1.2685
 4090TIP3   OH212233   2.796   4.022   1.625  0.1098  0.8341 -0.3280
 4090TIP3    H112234   2.866   4.016   1.560 -0.2639  0.7651 -0.7274
 4090TIP3    H212235   2.841   4.015   1.709  0.6440  1.3220 -0.5671
 4091TIP3   OH212236   3.005   1.045   5.855  0.3154 -0.0993  0.0880
 4091TIP3    H112237   2.993   1.133   5.819 -1.5574 -0.7232 -0.9885
 4091TIP3    H212238   2.917   1.007   5.855  0.7540 -1.3017  2.3825
 4092TIP3   OH212239   4.239   5.799   4.910  0.4213  0.4378  0.1609
 4092TIP3    H112240   4.301   5.870   4.896  0.0002  0.9007  0.5818
 4092TIP3    H212241   4.293   5.721   4.922  0.8559  0.4074 -1.7408
 4093TIP3   OH212242   6.068   5.647   1.481  0.1631 -0.6557 -0.0228
 4093TIP3    H112243   6.061   5.575   1.418  2.3205 -2.1010  1.2797
 4093TIP3    H212244   6.063   5.605   1.567  2.6472  0.5289  0.7918
 4094TIP3   OH212245   5.925   6.602   5.100 -0.3489 -0.1613  0.4251
 4094TIP3    H112246   5.829   6.605   5.105 -0.3773  0.4373 -0.3385
 4094TIP3    H212247   5.949   6.683   5.055  0.3329 -1.5135 -1.8288
 4095TIP3   OH212248   2.616   1.851   5.217  0.5880  0.6927 -0.0370
 4095TIP3    H112249   2.611   1.767   5.261  1.0951 -0.3055 -1.7579
 4095TIP3    H212250   2.554   1.907   5.263 -0.3493 -0.8536  0.6558
 4096TIP3   OH212251   1.374   2.492   4.230  0.1064  0.4152  0.3513
 4096TIP3    H112252   1.338   2.581   4.233 -0.7398  0.0611  1.9746
 4096TIP3    H212253   1.393   2.471   4.321  0.4142 -1.0364 -0.0221
 4097TIP3   OH212254   1.376   1.060   5.114  0.1242 -0.4871 -0.0783
 4097TIP3    H112255   1.405   1.081   5.025  2.4265 -1.9969  0.2224
 4097TIP3    H212256   1.387   0.965   5.121  1.7658 -0.2110  2.3550
 4098TIP3   OH212257   3.044   5.147   0.937  0.0555  0.5459  0.9049
 4098TIP3    H112258   3.120   5.152   0.879 -0.1260  0.0032  0.6188
 4098TIP3    H212259   2.984   5.087   0.894 -1.6697  2.8693 -0.1685
 4099TIP3   OH212260   5.111   6.210   1.239  0.4188  0.1532 -0.3746
 4099TIP3    H112261   5.065   6.149   1.296  0.8897 -1.4808 -1.6428
 4099TIP3    H212262   5.169   6.258   1.297 -3.1107  2.6998  1.3900
 4100TIP3   OH212263   2.334   2.101   1.084 -0.1149 -0.0644 -0.5513
 4100TIP3    H112264   2.394   2.175   1.085  0.2245 -0.3206  0.7219
 4100TIP3    H212265   2.277   2.116   1.009  0.8824  0.7175 -1.1701
 4101TIP3   OH212266   0.344   1.321   5.165  0.4441  0.3711  0.2336
 4101TIP3    H112267   0.375   1.390   5.223  0.0899  0.5615  0.1966
 4101TIP3    H212268   0.260   1.294   5.203 -0.5914  1.6171 -1.0993
 4102TIP3   OH212269   3.751   5.628   3.370 -0.0418  0.0741  0.4455
 4102TIP3    H112270   3.744   5.612   3.276  2.9588  1.7435 -0.2054
 4102TIP3    H212271   3.812   5.561   3.401 -1.7211 -1.0493  1.4654
 4103TIP3   OH212272   2.838   5.514   2.267  0.1403 -0.2156  0.4595
 4103TIP3    H112273   2.878   5.536   2.183 -0.0770  1.2993  0.7314
 4103TIP3    H212274   2.900   5.455   2.308  1.7539  1.4716  0.5401
 4104TIP3   OH212275   3.692   1.101   3.502 -0.1270 -0.0966 -0.1071
 4104TIP3    H112276   3.766   1.130   3.556 -0.0458 -1.1654  0.3984
 4104TIP3    H212277   3.731   1.041   3.438 -0.4242  0.0628 -0.4415
 4105TIP3   OH212278   1.313   2.261   5.725 -0.5861  0.3764  0.0687
 4105TIP3    H112279   1.283   2.334   5.671  0.7629 -0.2496 -1.6243
 4105TIP3    H212280   1.233   2.224   5.762 -1.4239  1.6990 -0.3536
 4106TIP3   OH212281   4.972   6.193   5.645  0.4017 -0.1859 -0.0439
 4106TIP3    H112282   5.008   6.118   5.691 -0.1284 -0.4092  0.0127
 4106TIP3    H212283   4.895   6.218   5.697  0.7065  0.5340  0.0682
 4107TIP3   OH212284   2.270   4.700   0.461  0.2840 -0.0659 -0.5162
 4107TIP3    H112285   2.315   4.735   0.384 -0.3193  0.2727 -0.7228
 4107TIP3    H212286   2.179   4.690   0.433 -0.4006  2.0166  0.7739
 4108TIP3   OH212287   6.601   1.610   1.665 -0.0974 -0.1563  0.4741
 4108TIP3    H112288   6.590   1.545   1.734  1.0128  0.3833  1.1829
 4108TIP3    H212289   6.684   1.587   1.624 -0.0188  0.4224  0.3040
 4109TIP3   OH212290   3.498   4.477   4.509 -0.3117 -0.3173 -0.2642
 4109TIP3    H112291   3.449   4.548   4.550 -1.4626 -0.9412 -0.5341
 4109TIP3    H212292   3.545   4.436   4.582  2.4358  2.2245 -0.4071
 4110TIP3   OH212293   2.541   4.816   3.675  0.6284  0.0500  0.2442
 4110TIP3    H112294   2.529   4.891   3.618 -0.3565 -0.8975 -0.8400
 4110TIP3    H212295   2.634   4.794   3.667  0.6700  0.4264 -0.3428
 4111TIP3   OH212296   2.978   1.691   1.890  0.0159 -0.7737  0.6592
 4111TIP3    H112297   3.032   1.721   1.817  0.6831 -0.2422  1.3664
 4111TIP3    H212298   3.002   1.599   1.901  0.4483 -0.6602  0.6758
 4112TIP3   OH212299   1.938   4.236   2.679 -0.1500  0.8695 -0.0128
 4112TIP3    H112300   1.947   4.260   2.587  0.4005  1.5685  0.2271
 4112TIP3    H212301   1.860   4.283   2.708 -1.0614 -0.3168 -0.4311
 4113TIP3   OH212302   3.254   4.005   3.721 -0.7166  0.2329  0.3072
 4113TIP3    H112303   3.160   4.003   3.735 -0.7265 -0.6771  0.2152
 4113TIP3    H212304   3.266   3.963   3.636 -0.2856  1.0868 -0.0599
 4114TIP3   OH212305   5.238   6.302   4.578  0.7679 -0.4986  0.0046
 4114TIP3    H112306   5.295   6.240   4.622 -0.7213 -4.1822 -2.7059
 4114TIP3    H212307   5.273   6.309   4.490 -1.5937 -1.2145 -1.0978
 4115TIP3   OH212308   6.448   1.238   0.655  0.0569 -0.1786  0.1181
 4115TIP3    H112309   6.522   1.197   0.610 -0.0148 -0.4973  0.2880
 4115TIP3    H212310   6.488   1.303   0.713  0.1926 -0.2512  0.1046
 4116TIP3   OH212311   1.512   2.317   0.396 -1.3625 -0.3801 -0.0893
 4116TIP3    H112312   1.507   2.388   0.332  2.4057 -0.2653 -0.4444
 4116TIP3    H212313   1.510   2.238   0.344 -1.4146 -0.4083 -0.0452
 4117TIP3   OH212314   4.653   2.411   2.707 -0.0171  0.8020  0.9327
 4117TIP3    H112315   4.628   2.453   2.625  0.2955 -1.6234 -0.5038
 4117TIP3    H212316   4.702   2.478   2.755  0.6078  2.0066 -1.2887
 4118TIP3   OH212317   1.856   4.222   5.510 -0.4239  0.1254 -0.1837
 4118TIP3    H112318   1.842   4.204   5.603  1.3968  1.0639  0.3299
 4118TIP3    H212319   1.795   4.292   5.489 -0.2602  0.4988  0.5472
 4119TIP3   OH212320   2.100   5.716   4.101 -0.1012 -0.5400  0.2378
 4119TIP3    H112321   2.066   5.768   4.174  1.1861  0.9656 -0.1586
 4119TIP3    H212322   2.165   5.658   4.140 -2.2364 -2.6438  0.8319
 4120TIP3   OH212323   2.839   5.367   5.368  0.6416 -0.1243  0.1210
 4120TIP3    H112324   2.788   5.377   5.288 -0.4716  0.2769  0.8510
 4120TIP3    H212325   2.928   5.348   5.338  0.0764 -0.8357 -1.1867
 4121TIP3   OH212326   3.036   1.400   1.863  0.5308 -0.4130  0.0071
 4121TIP3    H112327   2.940   1.399   1.857  0.5367  0.5172 -0.3475
 4121TIP3    H212328   3.064   1.339   1.794  0.1811 -1.7707  1.0139
 4122TIP3   OH212329   7.177   1.272   1.396  0.0995 -0.1438  0.2437
 4122TIP3    H112330   7.207   1.204   1.456  0.0993  0.0854  0.5056
 4122TIP3    H212331   7.085   1.285   1.420  0.0123 -0.2803 -0.0205
 4123TIP3   OH212332   6.693   3.043   0.286  0.1891  0.1677 -0.4551
 4123TIP3    H112333   6.726   3.123   0.328 -0.7965  1.4602 -2.0693
 4123TIP3    H212334   6.752   3.029   0.212 -1.2246  1.0046 -1.7992
 4124TIP3   OH212335   4.727   1.087   1.260  0.5157 -0.5873 -0.2833
 4124TIP3    H112336   4.731   1.036   1.341 -1.6140 -0.7936 -0.2595
 4124TIP3    H212337   4.774   1.034   1.196  0.2176 -1.5320  0.2696
 4125TIP3   OH212338   3.606   4.584   4.294 -0.2558 -0.1454  0.2331
 4125TIP3    H112339   3.551   4.569   4.371 -0.0833 -0.3034  0.3278
 4125TIP3    H212340   3.547   4.617   4.227 -0.3378  0.3945  0.5676
 4126TIP3   OH212341   5.171   6.747   3.745  0.6755 -0.4068 -0.1368
 4126TIP3    H112342   5.093   6.782   3.703  0.2748  1.6681  2.0908
 4126TIP3    H212343   5.138   6.699   3.821  1.4784  1.6037  1.5998
 4127TIP3   OH212344   2.320   4.782   0.200  0.6038 -0.6023  0.1426
 4127TIP3    H112345   2.325   4.839   0.123  1.9397  1.1465  1.4401
 4127TIP3    H212346   2.347   4.696   0.168 -0.4303 -0.3206 -1.6541
 4128TIP3   OH212347   2.835   3.075   2.038  0.2173 -0.5371  0.9382
 4128TIP3    H112348   2.929   3.061   2.052  0.0713 -0.4756  2.0817
 4128TIP3    H212349   2.797   2.988   2.040  0.2992 -0.5957  0.0512
 4129TIP3   OH212350   2.334   0.444   0.712  0.4525 -0.0827 -0.0591
 4129TIP3    H112351   2.320   0.536   0.690  0.5218 -0.6319 -2.6457
 4129TIP3    H212352   2.249   0.402   0.697  0.8446 -0.7181 -0.5539
 4130TIP3   OH212353   3.768   0.947   3.873  0.5878  0.0673 -0.3586
 4130TIP3    H112354   3.795   0.936   3.782  1.7735  2.7926 -0.4264
 4130TIP3    H212355   3.691   1.004   3.868  0.5784  0.1249  0.3526
 4131TIP3   OH212356   4.350   4.511   2.257  0.2994 -0.8224  0.0415
 4131TIP3    H112357   4.325   4.418   2.258  0.7761 -1.0083 -1.8635
 4131TIP3    H212358   4.364   4.531   2.164  0.0600  1.2059  0.4018
 4132TIP3   OH212359   5.561   2.186   5.200 -0.2421  0.5173  0.7213
 4132TIP3    H112360   5.638   2.130   5.193 -0.4310  0.3774 -0.2205
 4132TIP3    H212361   5.594   2.274   5.179 -0.4862  0.3401 -0.4435
 4133TIP3   OH212362   6.642   3.681   1.893  0.0419  0.7101 -0.1764
 4133TIP3    H112363   6.633   3.616   1.823  0.5851 -0.0302  0.4241
 4133TIP3    H212364   6.726   3.660   1.934  1.1358  2.9384 -1.1142
 4134TIP3   OH212365   3.348   1.093   2.647 -0.1617 -0.0077  0.0561
 4134TIP3    H112366   3.408   1.148   2.697  0.3065  1.7974 -2.3590
 4134TIP3    H212367   3.338   1.138   2.563 -0.4933 -3.1521 -1.7250
 4135TIP3   OH212368   5.513   2.144   5.476  0.0811  0.3563  0.0999
 4135TIP3    H112369   5.449   2.074   5.460 -2.0093  2.1220  0.2936
 4135TIP3    H212370   5.546   2.166   5.390  0.3389 -0.4712 -0.0263
 4136TIP3   OH212371   6.743   3.797   3.593 -0.1103  0.2664  0.1482
 4136TIP3    H112372   6.803   3.786   3.667  0.4172 -0.4082 -0.3504
 4136TIP3    H212373   6.793   3.764   3.518 -1.2558 -0.7222 -0.2210
 4137TIP3   OH212374   1.048   4.264   4.850 -0.0425  0.1842  0.2343
 4137TIP3    H112375   1.143   4.273   4.846 -0.0196  0.0324  0.3905
 4137TIP3    H212376   1.023   4.234   4.762  0.2290 -1.2347  0.6113
 4138TIP3   OH212377   0.297   5.066   3.467  0.2323 -0.4425  0.5061
 4138TIP3    H112378   0.325   4.975   3.457 -0.8070 -0.6513 -0.7264
 4138TIP3    H212379   0.315   5.107   3.382 -0.3291  0.2065  0.6881
 4139TIP3   OH212380   3.826   2.126   1.166  0.4973  0.5050  0.4069
 4139TIP3    H112381   3.744   2.077   1.158  0.9504 -0.0172 -1.5108
 4139TIP3    H212382   3.861   2.101   1.251  0.1766 -1.7230 -0.0574
 4140TIP3   OH212383   2.928   1.422   0.293 -0.3302 -0.8450  0.1831
 4140TIP3    H112384   3.009   1.415   0.242 -0.5666 -0.4807 -0.2440
 4140TIP3    H212385   2.880   1.493   0.252 -0.2427 -0.1148  1.3092
 4141TIP3   OH212386   0.864   4.855   0.756 -0.1704  0.2184 -0.5189
 4141TIP3    H112387   0.901   4.824   0.673 -0.5141 -0.8996 -0.2709
 4141TIP3    H212388   0.938   4.896   0.801  0.0946  0.5300 -1.2285
 4142TIP3   OH212389   6.922   6.605   1.984  1.0143 -0.4193 -0.3702
 4142TIP3    H112390   6.998   6.647   2.024  1.1501  0.6068 -1.6123
 4142TIP3    H212391   6.954   6.572   1.900  0.5189 -1.6494 -0.0942
 4143TIP3   OH212392   5.167   3.482   5.452 -0.0262 -0.0255  0.1065
 4143TIP3    H112393   5.221   3.428   5.394  1.5626  0.3185  1.1880
 4143TIP3    H212394   5.145   3.423   5.524 -0.3853  0.0769  0.0782
 4144TIP3   OH212395   0.688   0.686   1.232  0.4803  0.2219  0.6700
 4144TIP3    H112396   0.741   0.720   1.159  1.4211 -0.4261  1.0270
 4144TIP3    H212397   0.628   0.757   1.253  0.8727  0.7961 -0.0837
 4145TIP3   OH212398   4.416   0.106   1.735  0.0420  0.8465  0.0766
 4145TIP3    H112399   4.330   0.075   1.763  0.1147  1.2704  0.8129
 4145TIP3    H212400   4.477   0.069   1.799  0.3099  1.1686  0.0131
 4146TIP3   OH212401   2.951   3.618   5.120  0.2277  0.9589  0.0271
 4146TIP3    H112402   2.963   3.650   5.209  0.8536 -0.5223  0.4949
 4146TIP3    H212403   3.038   3.625   5.080  0.2955  0.2181  0.0270
 4147TIP3   OH212404   6.296   6.174   3.032 -0.3070 -0.2604  0.7222
 4147TIP3    H112405   6.328   6.258   2.998 -0.4185 -0.4076  0.2504
 4147TIP3    H212406   6.288   6.118   2.955 -2.8959  0.1391  0.5832
 4148TIP3   OH212407   1.572   2.800   3.117  0.1318  0.7976  0.2736
 4148TIP3    H112408   1.583   2.890   3.147 -1.2841  0.2111  2.9496
 4148TIP3    H212409   1.545   2.752   3.196 -1.7388 -1.4549 -1.5799
 4149TIP3   OH212410   1.997   5.596   5.447  0.0453 -0.3454 -0.1088
 4149TIP3    H112411   1.937   5.668   5.428  0.3276 -0.3439 -1.0142
 4149TIP3    H212412   2.081   5.638   5.463  0.4329 -0.5180 -1.5837
 4150TIP3   OH212413   1.866   0.688   1.914 -0.5530  0.1703 -0.0784
 4150TIP3    H112414   1.868   0.768   1.966  0.5373 -1.2434  2.1740
 4150TIP3    H212415   1.775   0.657   1.922 -0.2081 -0.4753  1.7861
 4151TIP3   OH212416   0.218   0.842   0.327 -0.3124  0.1425 -0.3480
 4151TIP3    H112417   0.250   0.932   0.326  0.3918 -0.0899  0.1545
 4151TIP3    H212418   0.166   0.834   0.247 -1.4744  1.3713  0.2330
 4152TIP3   OH212419   6.727   2.116   2.089 -0.2638  0.0452  0.2059
 4152TIP3    H112420   6.698   2.204   2.110  1.0629  0.4198  0.5602
 4152TIP3    H212421   6.658   2.059   2.122 -1.4862  0.9555 -0.6583
 4153TIP3   OH212422   5.598   6.281   3.667  0.5881 -0.3366 -0.0508
 4153TIP3    H112423   5.527   6.255   3.725 -0.2987 -1.3994 -1.5451
 4153TIP3    H212424   5.677   6.243   3.707  0.2623  0.3400  1.3000
 4154TIP3   OH212425   3.156   0.334   3.543 -0.5525 -0.1408 -0.2388
 4154TIP3    H112426   3.193   0.383   3.617 -0.2961  1.7925 -1.5684
 4154TIP3    H212427   3.218   0.263   3.527 -0.1846 -0.0855  0.8663
 4155TIP3   OH212428   5.982   6.475   4.739  0.1725  0.2167 -0.0246
 4155TIP3    H112429   5.925   6.533   4.690 -0.0793  0.8951  1.0346
 4155TIP3    H212430   6.058   6.463   4.682  1.1168  3.1249  0.4387
 4156TIP3   OH212431   3.075   2.956   3.089 -0.6592  0.4328 -0.5367
 4156TIP3    H112432   3.031   2.878   3.056  1.7554 -0.4815 -1.9030
 4156TIP3    H212433   3.076   2.946   3.184  0.7329 -1.9621 -0.7276
 4157TIP3   OH212434   1.771   0.754   3.821  0.7498 -0.3893  0.0672
 4157TIP3    H112435   1.815   0.746   3.736 -0.3959  1.6632 -0.7851
 4157TIP3    H212436   1.678   0.765   3.800  0.3068 -0.7365  1.6514
 4158TIP3   OH212437   0.755   5.859   0.854 -0.0535 -0.6081  0.1341
 4158TIP3    H112438   0.745   5.839   0.761  1.6028 -1.4654  0.1087
 4158TIP3    H212439   0.850   5.864   0.868 -0.2646  1.8783  1.3065
 4159TIP3   OH212440   5.936   4.649   0.724  0.1121  0.2243 -0.0662
 4159TIP3    H112441   5.884   4.610   0.653  0.3662 -0.3560  0.0627
 4159TIP3    H212442   5.878   4.646   0.800  0.0923  0.1889 -0.0824
 4160TIP3   OH212443   1.175   4.383   5.169  0.7576  0.3785  0.5064
 4160TIP3    H112444   1.232   4.374   5.092  0.1693  1.3767 -0.0609
 4160TIP3    H212445   1.236   4.405   5.240  0.9990  3.4898 -0.4800
 4161TIP3   OH212446   5.158   1.307   1.336 -0.0923  0.3222 -0.5792
 4161TIP3    H112447   5.102   1.316   1.413  1.8627  1.7283  0.7742
 4161TIP3    H212448   5.245   1.335   1.366  1.5317 -2.3331 -2.3899
 4162TIP3   OH212449   4.099   5.349   3.773  0.0853  0.4645  0.9840
 4162TIP3    H112450   4.119   5.442   3.763  1.0337  0.1937  0.2483
 4162TIP3    H212451   4.058   5.343   3.860  0.2412  1.5211  1.1474
 4163TIP3   OH212452   5.023   3.626   2.682 -0.0294  0.3538 -0.3904
 4163TIP3    H112453   5.110   3.656   2.707  0.0077  0.5520 -0.7529
 4163TIP3    H212454   4.969   3.705   2.684  0.6486  1.1267 -4.0938
 4164TIP3   OH212455   1.492   2.145   5.186 -0.5869  0.8192 -0.0066
 4164TIP3    H112456   1.455   2.105   5.265  1.1828  0.8267  0.8554
 4164TIP3    H212457   1.489   2.239   5.203 -0.1197  0.8166  0.0830
 4165TIP3   OH212458   2.832   4.272   3.341  0.0586  0.0907  0.0213
 4165TIP3    H112459   2.815   4.195   3.287 -0.0834  0.8152 -1.0005
 4165TIP3    H212460   2.858   4.340   3.278 -0.2764  1.0062  0.8491
 4166TIP3   OH212461   6.771   0.739   0.601  0.2168  0.1436 -0.1071
 4166TIP3    H112462   6.696   0.727   0.543 -0.7226 -0.3673  1.1540
 4166TIP3    H212463   6.831   0.668   0.578 -1.6432 -2.1917  1.7350
 4167TIP3   OH212464   3.061   2.143   0.613 -0.3525 -0.0205  0.0998
 4167TIP3    H112465   3.045   2.085   0.539 -1.4157  1.9124 -1.2906
 4167TIP3    H212466   3.120   2.094   0.671 -2.1975 -2.9235 -0.3207
 4168TIP3   OH212467   4.335   5.265   3.660 -0.1097 -0.2316 -0.1950
 4168TIP3    H112468   4.413   5.275   3.715  0.0392 -1.2106 -0.2044
 4168TIP3    H212469   4.262   5.291   3.717  0.3269  2.5232 -0.7584
 4169TIP3   OH212470   0.140   2.135   0.848 -0.4307  0.7636 -0.2007
 4169TIP3    H112471   0.211   2.153   0.786 -0.8781  2.2766 -0.3215
 4169TIP3    H212472   0.084   2.212   0.843 -2.2871 -0.5363 -0.3566
 4170TIP3   OH212473   5.295   5.052   1.034 -0.4072 -0.4209 -0.7535
 4170TIP3    H112474   5.252   5.127   1.076  1.2931  0.7547 -0.9944
 4170TIP3    H212475   5.244   5.036   0.955 -0.6423  0.6783 -0.8431
 4171TIP3   OH212476   4.191   4.323   2.846 -0.2242 -0.7871  0.5847
 4171TIP3    H112477   4.150   4.237   2.853 -0.1776 -0.8185  0.4764
 4171TIP3    H212478   4.187   4.344   2.753  0.7790 -1.1784  0.4354
 4172TIP3   OH212479   4.581   0.101  -0.000  0.1897 -0.1168 -0.3858
 4172TIP3    H112480   4.650   0.164  -0.022  0.9623  0.0990  2.2660
 4172TIP3    H212481   4.519   0.151   0.053 -0.4143 -1.0280 -0.2116
 4173TIP3   OH212482   4.737   5.997   4.357 -0.6211  0.4657 -0.5427
 4173TIP3    H112483   4.715   6.021   4.267  0.4161 -0.5238 -1.0786
 4173TIP3    H212484   4.763   5.905   4.352 -0.7162  0.3463  0.8045
 4174TIP3   OH212485   2.959   5.944   5.863  0.1694 -0.3717 -0.1496
 4174TIP3    H112486   2.873   5.902   5.858 -0.0395  0.0538 -0.1532
 4174TIP3    H212487   3.014   5.893   5.803 -0.0670 -0.6696 -0.1172
 4175TIP3   OH212488   2.149   6.547   0.073 -0.3503 -0.7392  0.0424
 4175TIP3    H112489   2.131   6.455   0.055  2.3521 -1.4645  0.7009
 4175TIP3    H212490   2.112   6.594  -0.002 -0.3533 -2.4853 -1.1052
 4176TIP3   OH212491   2.960   4.740   0.580 -0.4965  0.4934  0.2139
 4176TIP3    H112492   3.034   4.728   0.640  1.0125  0.0512 -1.6465
 4176TIP3    H212493   2.882   4.727   0.635  0.8076  0.1738  2.0649
 4177TIP3   OH212494   2.469   2.216   1.345 -0.3295  0.0276 -0.0968
 4177TIP3    H112495   2.457   2.223   1.250  1.9456 -0.6045 -0.4774
 4177TIP3    H212496   2.453   2.304   1.378 -1.0990  0.2605 -1.0638
 4178TIP3   OH212497   5.286   1.207   5.457 -0.5565 -0.4304 -0.4352
 4178TIP3    H112498   5.303   1.175   5.545 -0.3179  1.9637  0.4576
 4178TIP3    H212499   5.195   1.237   5.459 -0.5100 -0.2380 -0.9626
 4179TIP3   OH212500   4.764   0.934   0.452  0.1454  0.0695  0.1978
 4179TIP3    H112501   4.736   0.931   0.544  1.0285 -1.0945  0.4584
 4179TIP3    H212502   4.856   0.961   0.456  0.1375  0.1826 -0.3539
 4180TIP3   OH212503   2.073   6.740   4.639 -0.2932 -0.5112  0.6635
 4180TIP3    H112504   2.015   6.813   4.663 -1.2931 -1.1822  0.3416
 4180TIP3    H212505   2.146   6.747   4.700  0.5170  1.7981 -0.4338
 4181TIP3   OH212506   6.767   6.024   3.969  0.4339  0.0313 -0.2552
 4181TIP3    H112507   6.799   6.114   3.976 -0.0845  0.1563  0.7290
 4181TIP3    H212508   6.740   6.001   4.058 -0.3644 -0.7487 -0.6750
 4182TIP3   OH212509   0.707   6.436   3.065 -0.2487  0.2494 -0.0328
 4182TIP3    H112510   0.735   6.361   3.116  0.4142  0.1015 -0.5954
 4182TIP3    H212511   0.676   6.500   3.130 -1.1994 -0.6482  0.4210
 4183TIP3   OH212512   6.628   4.603   4.716 -0.1153  0.2043  0.4592
 4183TIP3    H112513   6.537   4.573   4.724 -0.4260  0.9392 -0.1408
 4183TIP3    H212514   6.680   4.523   4.723 -0.7846 -0.1895  1.1340
 4184TIP3   OH212515   0.172   6.292   2.717  0.2638  0.3091 -0.4541
 4184TIP3    H112516   0.238   6.230   2.747 -0.7043  0.5007  2.3565
 4184TIP3    H212517   0.221   6.372   2.699  1.1561 -0.4268 -1.4398
 4185TIP3   OH212518   6.227   5.173   0.517  0.8243  0.6498 -0.1843
 4185TIP3    H112519   6.227   5.101   0.581  0.2129 -0.2509 -1.1671
 4185TIP3    H212520   6.154   5.228   0.544 -0.4010 -0.5379 -0.9435
 4186TIP3   OH212521   2.590   2.287   3.456  0.3653 -0.0024 -0.1465
 4186TIP3    H112522   2.652   2.360   3.450  1.0604 -0.3450  2.0740
 4186TIP3    H212523   2.517   2.322   3.508  0.8608 -0.9319  1.2364
 4187TIP3   OH212524   3.658   4.955   3.178  0.3597  0.1636 -0.2702
 4187TIP3    H112525   3.620   5.010   3.110 -1.0367 -0.6453 -0.1721
 4187TIP3    H212526   3.684   5.017   3.246  1.1864  0.9209 -1.2357
 4188TIP3   OH212527   2.780   6.491   3.910  0.2271 -0.1895  0.2139
 4188TIP3    H112528   2.849   6.556   3.895 -0.0657  0.2623  0.7584
 4188TIP3    H212529   2.809   6.443   3.988 -0.1824  0.1676  0.5951
 4189TIP3   OH212530   6.504   3.303   0.196 -0.1529 -0.0840  0.1804
 4189TIP3    H112531   6.511   3.246   0.119  1.8431  0.5528 -0.1745
 4189TIP3    H212532   6.531   3.247   0.269 -0.4206 -0.2148  0.1822
 4190TIP3   OH212533   0.106   0.755   0.090  0.3391 -0.4879 -0.0742
 4190TIP3    H112534   0.098   0.727  -0.001 -1.9945  1.4926 -0.5673
 4190TIP3    H212535   0.045   0.699   0.138 -1.5298  1.1198 -0.4632
 4191TIP3   OH212536   3.161   3.920   0.228  0.4568  0.2272 -0.2503
 4191TIP3    H112537   3.151   3.826   0.236 -0.1109  0.2571 -0.5653
 4191TIP3    H212538   3.250   3.938   0.260  1.2407 -0.6225 -1.8557
 4192TIP3   OH212539   5.511   2.252   3.262 -0.4537 -0.3820 -0.3816
 4192TIP3    H112540   5.536   2.344   3.251  0.1950 -0.6603 -1.3818
 4192TIP3    H212541   5.420   2.248   3.236 -1.4177  0.4811  2.4395
 4193TIP3   OH212542   1.271   4.709   3.030 -0.0554  0.1821  0.1852
 4193TIP3    H112543   1.283   4.803   3.019 -1.0102  0.2693 -0.1575
 4193TIP3    H212544   1.359   4.673   3.022 -0.0210  0.7064 -2.9981
 4194TIP3   OH212545   7.159   1.520   5.852  0.3395 -0.3259  0.3594
 4194TIP3    H112546   7.250   1.509   5.827  0.0534 -1.1850 -0.3810
 4194TIP3    H212547   7.146   1.614   5.859  1.1703 -0.1823  0.0485
 4195TIP3   OH212548   1.510   1.693   4.275 -0.3435 -0.4424  0.1818
 4195TIP3    H112549   1.585   1.684   4.334  1.1364 -0.6286 -1.6138
 4195TIP3    H212550   1.454   1.759   4.316  1.4870  0.7156  0.9412
 4196TIP3   OH212551   2.741   6.586   0.924  0.2763 -0.4420 -0.0099
 4196TIP3    H112552   2.692   6.516   0.881  1.7494 -0.7968 -1.1831
 4196TIP3    H212553   2.676   6.629   0.981 -1.3178 -1.0160 -1.3146
 4197TIP3   OH212554   2.510   6.251   2.729  0.5864 -0.0071 -0.5833
 4197TIP3    H112555   2.458   6.313   2.780  0.1094 -0.5468 -0.4007
 4197TIP3    H212556   2.573   6.305   2.682  2.7661  0.3873  2.4799
 4198TIP3   OH212557   1.017   4.270   1.238 -0.6191 -0.4031  0.3648
 4198TIP3    H112558   0.988   4.329   1.169 -0.3616  0.5186  1.0270
 4198TIP3    H212559   1.081   4.321   1.288 -1.5109 -0.7054  1.8724
 4199TIP3   OH212560   6.853   0.999   0.491  0.5088  0.3542  0.4757
 4199TIP3    H112561   6.833   0.906   0.499  0.7383  0.2452 -0.1644
 4199TIP3    H212562   6.768   1.042   0.486  0.3595 -0.1137 -2.3475
 4200TIP3   OH212563   6.316   3.958   1.464  0.0690 -0.2129 -0.0476
 4200TIP3    H112564   6.403   3.998   1.463 -0.1801  0.4925 -2.6788
 4200TIP3    H212565   6.273   3.994   1.386 -1.6232 -2.6068 -0.3161
 4201TIP3   OH212566   4.926   4.248   2.491 -0.2479 -0.7424 -0.0819
 4201TIP3    H112567   4.935   4.319   2.553  1.7918 -0.8320 -0.1849
 4201TIP3    H212568   4.832   4.239   2.477 -0.6307  0.7398  1.2686
 4202TIP3   OH212569   0.156   0.214   1.534  0.0436 -0.0150  0.1274
 4202TIP3    H112570   0.205   0.245   1.458  0.7497 -1.8432 -0.2094
 4202TIP3    H212571   0.141   0.293   1.587 -1.0056  1.4312 -2.1535
 4203TIP3   OH212572   4.430   4.877   3.356  0.3404  0.2528 -0.0426
 4203TIP3    H112573   4.514   4.905   3.393  0.1253  1.7380 -0.6188
 4203TIP3    H212574   4.371   4.951   3.372 -0.4819 -0.2021 -0.9015
 4204TIP3   OH212575   7.164   4.989   1.339  0.7581 -0.0944  0.3411
 4204TIP3    H112576   7.078   4.953   1.318  1.8556 -1.6627 -1.9592
 4204TIP3    H212577   7.180   5.054   1.270  1.3800  0.2365  0.7899
 4205TIP3   OH212578   5.609   6.617   0.652  0.0386 -0.0861 -0.6750
 4205TIP3    H112579   5.629   6.699   0.697  1.9559  0.6127 -2.6234
 4205TIP3    H212580   5.643   6.549   0.709 -1.2241  0.4383  0.7797
 4206TIP3   OH212581   4.456   2.897   2.880  0.4559 -0.4013  0.0583
 4206TIP3    H112582   4.507   2.966   2.838 -0.1955 -0.1227 -0.2968
 4206TIP3    H212583   4.370   2.902   2.838  0.2987 -1.2155  0.2564
 4207TIP3   OH212584   6.739   4.535   1.474  0.0340  0.0682 -0.3761
 4207TIP3    H112585   6.758   4.628   1.491  0.2560  0.4805 -2.5681
 4207TIP3    H212586   6.643   4.530   1.477 -0.0105  0.5100 -0.7923
 4208TIP3   OH212587   6.728   3.450   3.566 -0.4383  0.2641 -0.1402
 4208TIP3    H112588   6.707   3.425   3.476  1.0906  1.6140 -0.9256
 4208TIP3    H212589   6.811   3.407   3.585 -1.3389 -1.0167  1.1229
 4209TIP3   OH212590   2.997   5.982   4.127 -0.9098  0.1988 -0.1684
 4209TIP3    H112591   3.046   5.906   4.158 -1.0091  0.1758 -0.0691
 4209TIP3    H212592   2.906   5.963   4.150 -0.6179  1.6645  2.5769
 4210TIP3   OH212593   6.569   5.177   1.717 -0.6549 -0.1263  0.5948
 4210TIP3    H112594   6.536   5.099   1.762 -3.8612  0.8602  0.2294
 4210TIP3    H212595   6.591   5.238   1.788  0.0581 -0.6666  0.8511
 4211TIP3   OH212596   0.473   2.482   1.314  0.2592 -0.5688  0.3767
 4211TIP3    H112597   0.497   2.406   1.261 -1.4640 -0.6885 -0.2992
 4211TIP3    H212598   0.500   2.558   1.262  1.0095 -0.7044  0.5634
 4212TIP3   OH212599   6.508   2.644   0.298 -0.3766 -0.2708  0.0332
 4212TIP3    H112600   6.488   2.684   0.382 -0.5284 -0.2731 -0.0016
 4212TIP3    H212601   6.430   2.661   0.244 -0.1320  0.0578 -0.2239
 4213TIP3   OH212602   6.656   2.700   4.933 -0.2630  0.3250  0.6381
 4213TIP3    H112603   6.619   2.763   4.872  0.2921 -1.3122 -1.4771
 4213TIP3    H212604   6.748   2.694   4.909 -0.1517 -0.7566  1.2555
 4214TIP3   OH212605   6.331   5.959   4.907  0.2510  0.0494  0.4105
 4214TIP3    H112606   6.415   5.968   4.951 -0.2057  2.1712  0.9677
 4214TIP3    H212607   6.312   6.047   4.874 -2.1431 -0.1688  1.0621
 4215TIP3   OH212608   2.540   0.623   4.271 -0.1793 -0.0981 -0.0943
 4215TIP3    H112609   2.529   0.545   4.324 -0.6825 -1.1871 -1.7267
 4215TIP3    H212610   2.632   0.621   4.243 -0.5869 -1.0485 -1.4759
 4216TIP3   OH212611   6.606   5.214   4.083  0.4827 -0.5474  0.2116
 4216TIP3    H112612   6.665   5.232   4.009  1.2084 -0.8158  0.7133
 4216TIP3    H212613   6.567   5.299   4.103 -0.1294 -0.5660 -0.8124
 4217TIP3   OH212614   5.033   0.985   1.300 -0.5390 -0.3872 -0.4828
 4217TIP3    H112615   5.115   0.954   1.340 -0.3036  1.0896  0.2317
 4217TIP3    H212616   4.976   1.005   1.374 -0.3544  1.7092 -0.8653
 4218TIP3   OH212617   4.255   0.527   1.991  0.6538  0.1451 -0.2196
 4218TIP3    H112618   4.286   0.473   2.063 -0.7902  0.9466  1.0668
 4218TIP3    H212619   4.229   0.609   2.032 -2.9097 -0.3573 -1.1283
 4219TIP3   OH212620   0.904   5.909   3.153  0.0943 -0.3722 -0.1362
 4219TIP3    H112621   0.811   5.928   3.137  0.2710 -0.4020 -1.2489
 4219TIP3    H212622   0.928   5.845   3.086  1.2325  0.5766 -0.6768
 4220TIP3   OH212623   5.443   3.188   0.601  0.2993 -0.1473 -0.1070
 4220TIP3    H112624   5.495   3.260   0.635  0.7329 -0.2937 -0.4584
 4220TIP3    H212625   5.506   3.119   0.583  0.0644 -0.1219 -1.0824
 4221TIP3   OH212626   6.955   4.074   3.752  0.3492 -0.4070 -0.3220
 4221TIP3    H112627   6.933   3.981   3.753 -0.3536 -0.2411 -0.0041
 4221TIP3    H212628   7.037   4.080   3.800 -0.5223 -0.6455  1.2699
 4222TIP3   OH212629   0.603   4.756   0.546 -0.3262  0.6696  0.2688
 4222TIP3    H112630   0.626   4.790   0.632 -1.3165  0.9499  0.4338
 4222TIP3    H212631   0.528   4.699   0.562  0.1539 -0.1166 -0.2650
 4223TIP3   OH212632   4.623   1.483   2.885 -0.6561  0.1667 -0.0146
 4223TIP3    H112633   4.567   1.561   2.892  1.2958  1.6723 -0.3953
 4223TIP3    H212634   4.682   1.490   2.960 -0.2182 -0.7619 -0.2668
 4224TIP3   OH212635   4.972   5.519   0.019  0.1541  0.0793  0.5394
 4224TIP3    H112636   5.003   5.538   0.108  0.7746 -0.5406  0.4672
 4224TIP3    H212637   5.052   5.520  -0.034 -0.1229 -0.2252  0.1142
 4225TIP3   OH212638   5.106   5.180   5.657  0.1694 -0.1340 -0.1144
 4225TIP3    H112639   5.178   5.122   5.633 -0.9177 -1.3812 -0.5240
 4225TIP3    H212640   5.136   5.268   5.632  1.1502 -0.7463 -1.2140
 4226TIP3   OH212641   1.135   2.687   2.471  0.2159  0.3893  0.0244
 4226TIP3    H112642   1.134   2.740   2.391 -0.3919 -1.0859 -0.9958
 4226TIP3    H212643   1.061   2.627   2.460  0.2183  0.0626  1.6435
 4227TIP3   OH212644   2.243   2.303   3.443 -0.3960  0.1417  0.0583
 4227TIP3    H112645   2.172   2.361   3.414 -1.3211 -0.2593  1.4436
 4227TIP3    H212646   2.303   2.362   3.490 -0.3987  0.2937 -0.1275
 4228TIP3   OH212647   1.052   1.445   4.370 -0.1355  0.5854 -0.1441
 4228TIP3    H112648   1.005   1.489   4.299 -1.0431  0.9989  0.6989
 4228TIP3    H212649   1.062   1.512   4.438  0.4137  0.0978  0.2710
 4229TIP3   OH212650   3.332   6.386   1.362 -0.1692 -0.2580 -0.1877
 4229TIP3    H112651   3.392   6.459   1.374  0.1860 -0.6127  0.2287
 4229TIP3    H212652   3.248   6.427   1.339 -0.1017  0.2989  0.5352
 4230TIP3   OH212653   0.214   4.297   5.462 -0.3443  0.1005 -0.5163
 4230TIP3    H112654   0.292   4.242   5.460 -0.5012 -0.1065 -1.3027
 4230TIP3    H212655   0.187   4.296   5.553 -0.1986 -0.9284 -0.4668
 4231TIP3   OH212656   2.146   2.094   0.855 -0.1200  0.1299 -0.1044
 4231TIP3    H112657   2.082   2.034   0.817 -0.6864  0.3108  0.5423
 4231TIP3    H212658   2.094   2.157   0.904  0.6047 -0.6357  1.7601
 4232TIP3   OH212659   2.570   1.532   5.820  0.0703 -0.5286 -0.2872
 4232TIP3    H112660   2.596   1.445   5.791  0.7575 -0.5234  0.2841
 4232TIP3    H212661   2.490   1.551   5.771 -0.8074 -2.0002  0.5117
 4233TIP3   OH212662   3.410   4.937   1.131 -0.0401 -0.6042 -0.3566
 4233TIP3    H112663   3.479   4.980   1.182  0.3779 -2.6690  0.9602
 4233TIP3    H212664   3.458   4.891   1.061 -0.2179 -0.8889 -0.2928
 4234TIP3   OH212665   6.318   4.899   4.128 -0.5209 -0.4322  0.7871
 4234TIP3    H112666   6.411   4.879   4.136 -0.3144  0.2392  0.1398
 4234TIP3    H212667   6.274   4.826   4.172  0.2778 -1.1710  0.3966
 4235TIP3   OH212668   6.252   2.973   5.130  0.5433  0.1242 -0.0240
 4235TIP3    H112669   6.216   2.885   5.119  1.3629 -0.4181  1.3426
 4235TIP3    H212670   6.280   2.998   5.042  0.2526 -0.9757 -0.4502
 4236TIP3   OH212671   0.850   4.038   3.828  0.2429  0.8743 -0.3023
 4236TIP3    H112672   0.839   4.114   3.885 -0.7829  0.2397  0.3799
 4236TIP3    H212673   0.945   4.024   3.825  0.3894  1.6626  0.2424
 4237TIP3   OH212674   2.975   4.111   0.923 -0.0219  0.5782  0.0658
 4237TIP3    H112675   2.927   4.047   0.871  0.5902  0.7801 -0.7746
 4237TIP3    H212676   3.017   4.168   0.858  1.3325  0.4144  0.7661
 4238TIP3   OH212677   4.011   6.308   0.151 -0.2881  0.0808 -0.2538
 4238TIP3    H112678   4.090   6.357   0.173 -1.1947  1.2384  0.6089
 4238TIP3    H212679   4.039   6.217   0.146  0.7112  0.1696  2.2765
 4239TIP3   OH212680   3.668   5.832   5.800  0.4485  0.5706  0.0824
 4239TIP3    H112681   3.604   5.794   5.740 -0.2420  1.4612  0.2411
 4239TIP3    H212682   3.708   5.757   5.844 -0.5577  0.0091  0.0576
 4240TIP3   OH212683   6.494   5.262   2.815 -0.0135 -0.5311  0.3319
 4240TIP3    H112684   6.524   5.208   2.888  2.3932 -1.2570 -1.0855
 4240TIP3    H212685   6.509   5.209   2.737  0.9052  1.4940 -0.9773
 4241TIP3   OH212686   5.215   2.850   2.504 -0.1283 -0.0561  0.7158
 4241TIP3    H112687   5.231   2.832   2.412 -0.2959  0.4469  0.5865
 4241TIP3    H212688   5.259   2.778   2.551 -0.1794 -0.3971  0.2430
 4242TIP3   OH212689   2.944   6.768   5.556 -0.0222  0.0920 -0.1867
 4242TIP3    H112690   2.878   6.760   5.625 -0.4026 -0.6192 -0.6178
 4242TIP3    H212691   2.986   6.852   5.573 -0.6108  0.2671  0.4730
 4243TIP3   OH212692   1.655   5.014   1.286 -0.1225  0.8456 -0.3996
 4243TIP3    H112693   1.749   5.014   1.303  0.3216  2.4706 -2.4944
 4243TIP3    H212694   1.624   5.095   1.326 -0.6089  0.4266  0.0837
 4244TIP3   OH212695   4.320   0.732   2.738 -0.0763 -0.2730 -0.1999
 4244TIP3    H112696   4.239   0.750   2.786 -1.1807 -1.4845 -1.5224
 4244TIP3    H212697   4.353   0.819   2.714 -0.7613  0.2505  0.7001
 4245TIP3   OH212698   3.164   3.573   0.206  0.6490  0.0115 -0.2656
 4245TIP3    H112699   3.199   3.570   0.295  0.4525  3.2721  0.0339
 4245TIP3    H212700   3.070   3.589   0.218  0.7099  1.0085 -1.0332
 4246TIP3   OH212701   2.329   0.242   1.205 -0.4096  0.2889 -0.1658
 4246TIP3    H112702   2.355   0.255   1.114  4.0491 -0.4073  0.7690
 4246TIP3    H212703   2.347   0.326   1.247 -0.3333 -0.0251  0.4392
 4247TIP3   OH212704   3.581   0.067   5.807 -0.4083  0.6119  0.1430
 4247TIP3    H112705   3.655   0.123   5.783  1.4221 -2.0603 -0.9136
 4247TIP3    H212706   3.592   0.050   5.900 -0.0935  0.7841  0.1375
 4248TIP3   OH212707   0.897   2.707   0.915  0.3628  0.0732 -0.1344
 4248TIP3    H112708   0.961   2.774   0.894 -1.1611  2.2238  1.6767
 4248TIP3    H212709   0.830   2.714   0.847  0.0081  0.6750  0.2744
 4249TIP3   OH212710   3.399   0.002   0.319 -0.7032 -0.4518 -0.0605
 4249TIP3    H112711   3.330   0.057   0.356 -1.1656  0.0774 -1.6418
 4249TIP3    H212712   3.448   0.060   0.260 -0.7288 -1.5349 -1.1882
 4250TIP3   OH212713   1.437   1.325   3.189  0.1409  0.3101 -0.8554
 4250TIP3    H112714   1.441   1.231   3.202 -2.0116 -0.3175 -3.7086
 4250TIP3    H212715   1.527   1.351   3.167  0.7286 -1.0695 -0.1567
 4251TIP3   OH212716   0.226   5.994   3.158 -0.0098  0.4613 -0.2167
 4251TIP3    H112717   0.173   6.058   3.206  0.5444  1.5449 -0.9969
 4251TIP3    H212718   0.172   5.915   3.156  0.2296  0.0927  2.7868
 4252TIP3   OH212719   1.295   3.123   1.927 -0.1776  0.0736 -0.2368
 4252TIP3    H112720   1.359   3.092   1.863 -0.2410  0.9248 -0.7312
 4252TIP3    H212721   1.239   3.184   1.878 -0.4340  0.4845  0.5409
 4253TIP3   OH212722   1.814   1.779   4.973 -0.2231 -0.2769 -0.5870
 4253TIP3    H112723   1.871   1.718   5.019 -0.4580  0.8345  1.3070
 4253TIP3    H212724   1.851   1.786   4.885  1.2523 -1.2420 -0.0705
 4254TIP3   OH212725   0.561   0.048   1.297  0.3121  0.3054  0.0851
 4254TIP3    H112726   0.507   0.116   1.337  0.2584  2.0159 -2.6245
 4254TIP3    H212727   0.647   0.088   1.287 -0.0462  0.5923 -2.7293
 4255TIP3   OH212728   4.776   6.131   5.854  0.5987 -0.0972 -0.2365
 4255TIP3    H112729   4.817   6.074   5.919  0.6356  0.6650  0.4160
 4255TIP3    H212730   4.685   6.138   5.882  0.6519  0.3640 -0.1685
 4256TIP3   OH212731   6.582   6.779   5.343 -0.0199 -0.3548 -0.4054
 4256TIP3    H112732   6.650   6.735   5.291  1.7197  0.2667  1.2158
 4256TIP3    H212733   6.557   6.715   5.409 -0.4082 -0.2866 -0.4846
 4257TIP3   OH212734   4.273   1.711   1.060 -0.0672 -0.3368  0.2446
 4257TIP3    H112735   4.312   1.649   1.122  1.0301 -0.0726 -0.1522
 4257TIP3    H212736   4.322   1.697   0.979  0.4803  1.3161  0.2537
 4258TIP3   OH212737   1.627   5.289   2.090  0.1772  0.0110 -0.4724
 4258TIP3    H112738   1.559   5.280   2.157 -1.3431  1.5438 -1.7270
 4258TIP3    H212739   1.596   5.235   2.017  1.3816 -0.9461 -0.3106
 4259TIP3   OH212740   5.124   2.424   3.060  0.4347 -0.0326  0.2160
 4259TIP3    H112741   5.072   2.501   3.042  2.2970  1.4814  0.9202
 4259TIP3    H212742   5.194   2.426   2.995  1.3006 -0.3325  1.1069
 4260TIP3   OH212743   1.752   1.460   5.719 -0.1454 -0.2495  0.0670
 4260TIP3    H112744   1.686   1.408   5.673  0.4167  0.5122 -1.6806
 4260TIP3    H212745   1.834   1.415   5.701  0.1405  0.3402 -0.1338
 4261TIP3   OH212746   1.529   1.459   2.267 -0.1667 -0.1838  0.0748
 4261TIP3    H112747   1.476   1.391   2.309 -0.2022  0.4770  1.1245
 4261TIP3    H212748   1.469   1.504   2.208 -0.6182  0.1114  0.7474
 4262TIP3   OH212749   2.846   4.806   3.924  0.8500  0.3812 -0.2331
 4262TIP3    H112750   2.824   4.854   3.844 -1.6393  0.4108  0.3912
 4262TIP3    H212751   2.786   4.731   3.924  1.2586  0.0140  1.2778
 4263TIP3   OH212752   4.028   4.756   4.743  0.4016  0.4839 -0.5509
 4263TIP3    H112753   4.013   4.739   4.836 -0.3741 -1.7519 -1.0281
 4263TIP3    H212754   3.947   4.799   4.714 -0.1798 -0.5728 -0.5623
 4264TIP3   OH212755   4.503   4.261   3.268 -0.0649  0.2095 -0.1456
 4264TIP3    H112756   4.441   4.190   3.248  1.3202 -1.5044  1.3229
 4264TIP3    H212757   4.536   4.240   3.355  2.1173  1.3927 -0.6158
 4265TIP3   OH212758   4.668   4.365   5.267 -0.0161 -0.5614  0.3487
 4265TIP3    H112759   4.742   4.405   5.312  0.4473  0.7522 -1.5011
 4265TIP3    H212760   4.595   4.374   5.329  1.3734 -2.3758  2.4460
 4266TIP3   OH212761   1.561   6.233   4.498 -0.3618 -0.1718  0.3286
 4266TIP3    H112762   1.480   6.283   4.505 -2.1073 -2.5679 -1.0051
 4266TIP3    H212763   1.604   6.268   4.419 -1.1533 -0.2110 -0.1330
 4267TIP3   OH212764   1.057   3.267   4.395 -0.3643 -0.4435 -0.1410
 4267TIP3    H112765   1.151   3.288   4.395  0.0445 -2.0526 -1.0794
 4267TIP3    H212766   1.026   3.292   4.482  1.2588 -1.1618  0.6893
 4268TIP3   OH212767   2.056   3.090   1.061 -0.6830 -1.1585  0.2546
 4268TIP3    H112768   1.990   3.075   1.129 -0.5963 -1.3285  0.3002
 4268TIP3    H212769   2.025   3.169   1.016  0.5261  0.4174  2.0313
 4269TIP3   OH212770   6.818   3.627   5.345 -0.0850 -0.0597 -0.4917
 4269TIP3    H112771   6.783   3.688   5.280 -0.4904  1.7054  1.2671
 4269TIP3    H212772   6.912   3.626   5.329 -0.2541 -0.2669 -1.5683
 4270TIP3   OH212773   1.251   0.779   5.507 -0.0850  0.2639 -0.0326
 4270TIP3    H112774   1.243   0.688   5.537  0.0575 -0.2472 -1.4920
 4270TIP3    H212775   1.164   0.801   5.473  0.1732  0.2983 -0.6798
 4271TIP3   OH212776   6.852   1.226   2.503  0.7818 -0.0253 -0.0687
 4271TIP3    H112777   6.831   1.319   2.513 -0.8225 -0.5069  1.5022
 4271TIP3    H212778   6.899   1.204   2.584 -0.1930 -0.8946  0.2824
 4272TIP3   OH212779   6.792   4.521   0.671  0.2367  0.6420  0.1454
 4272TIP3    H112780   6.764   4.609   0.646  0.5026  0.4674 -0.7952
 4272TIP3    H212781   6.886   4.521   0.655  0.0545 -0.1807 -1.0188
 4273TIP3   OH212782   0.958   2.330   4.369  0.3533 -0.0918 -0.0221
 4273TIP3    H112783   0.872   2.298   4.394  0.5985 -0.0823  0.8734
 4273TIP3    H212784   1.019   2.278   4.421  0.8171  0.8794  0.4388
 4274TIP3   OH212785   3.293   0.917   1.856 -0.5987  0.6949 -0.4835
 4274TIP3    H112786   3.299   1.007   1.889 -1.4683  0.1333  1.3093
 4274TIP3    H212787   3.213   0.916   1.804 -1.5940  0.5648  0.9751
 4275TIP3   OH212788   7.080   4.104   2.082 -0.3586 -0.4416 -0.2960
 4275TIP3    H112789   7.109   4.053   2.006  2.4856  0.6335 -0.0748
 4275TIP3    H212790   7.084   4.043   2.156 -0.5682 -0.8161 -0.5914
 4276TIP3   OH212791   2.705   6.781   1.527 -0.0255  0.9041 -0.2433
 4276TIP3    H112792   2.613   6.758   1.533  0.5234 -1.0712  2.6102
 4276TIP3    H212793   2.706   6.877   1.527 -2.0644  1.0338 -2.8170
 4277TIP3   OH212794   1.672   0.293   2.190  0.3314 -0.2724 -0.7661
 4277TIP3    H112795   1.616   0.369   2.174  0.0786 -0.5340 -1.1540
 4277TIP3    H212796   1.614   0.229   2.231  1.0593  0.5194  1.6258
 4278TIP3   OH212797   4.337   1.469   2.439 -0.1578 -0.0645  0.3569
 4278TIP3    H112798   4.293   1.536   2.386  1.1719 -0.0621 -0.8213
 4278TIP3    H212799   4.412   1.442   2.385 -0.0069 -1.6677  1.3182
 4279TIP3   OH212800   2.101   5.066   3.936 -0.2701  0.2152  0.2495
 4279TIP3    H112801   2.114   5.156   3.906  0.6246  0.9890  2.7000
 4279TIP3    H212802   2.010   5.047   3.917 -0.0698  1.0398 -1.7425
 4280TIP3   OH212803   0.204   2.475   2.903 -0.6870 -0.4590  0.0014
 4280TIP3    H112804   0.255   2.415   2.957 -0.0504  0.0583 -0.0164
 4280TIP3    H212805   0.261   2.551   2.890 -1.0089 -0.3698 -1.0009
 4281TIP3   OH212806   6.533   5.789   0.200 -0.2407  0.1778  0.2693
 4281TIP3    H112807   6.462   5.756   0.256 -0.2091 -1.2516 -0.4998
 4281TIP3    H212808   6.491   5.807   0.117 -0.1558  1.6723  0.5300
 4282TIP3   OH212809   0.666   4.807   3.251  0.5376 -0.3977  0.5647
 4282TIP3    H112810   0.594   4.745   3.235 -1.0673  1.2373  1.0167
 4282TIP3    H212811   0.707   4.776   3.332 -0.0175 -1.0579  0.6017
 4283TIP3   OH212812   7.127   1.658   3.703 -0.3026 -0.5230  0.1461
 4283TIP3    H112813   7.040   1.625   3.725 -0.2360 -0.4115  0.5870
 4283TIP3    H212814   7.146   1.723   3.771 -0.0590 -0.2328 -0.1981
 4284TIP3   OH212815   1.599   0.527   0.893  0.3954  0.0686 -0.2840
 4284TIP3    H112816   1.677   0.500   0.846 -0.2902  0.1742 -1.5178
 4284TIP3    H212817   1.624   0.608   0.938  1.1789 -0.2607 -0.1217
 4285TIP3   OH212818   3.073   1.922   1.046  0.1569  0.1278 -0.5907
 4285TIP3    H112819   2.988   1.941   1.008 -0.7579 -0.9143  0.8158
 4285TIP3    H212820   3.100   1.839   1.006 -0.9558 -1.1395  1.1253
 4286TIP3   OH212821   5.406   2.567   4.675 -0.5490  0.1798  1.2403
 4286TIP3    H112822   5.496   2.574   4.709 -0.2739 -0.4538  0.6676
 4286TIP3    H212823   5.376   2.481   4.706 -0.6079 -0.0278  0.6144
 4287TIP3   OH212824   6.492   4.024   0.141  0.1100  0.3877 -0.5118
 4287TIP3    H112825   6.419   3.963   0.129 -0.5592  1.0376  0.1247
 4287TIP3    H212826   6.556   3.976   0.194 -0.7248  0.4719  0.6002
 4288TIP3   OH212827   4.074   3.918   4.786 -0.3175 -0.6644 -0.9347
 4288TIP3    H112828   4.067   3.919   4.881  1.7788  1.1200 -0.7130
 4288TIP3    H212829   3.991   3.953   4.755  0.1226  1.8313  0.4420
 4289TIP3   OH212830   4.076   1.698   0.628 -0.0287 -0.4966 -0.1942
 4289TIP3    H112831   4.150   1.758   0.636 -0.2842  0.0107 -1.4660
 4289TIP3    H212832   4.040   1.693   0.717 -0.6527  2.0759 -0.2161
 4290TIP3   OH212833   5.013   2.954   1.641 -0.1891  0.1185  0.7306
 4290TIP3    H112834   5.056   2.868   1.643 -0.3148  0.0193 -0.2367
 4290TIP3    H212835   4.925   2.938   1.673 -0.2786 -0.1654  0.3549
 4291TIP3   OH212836   1.169   1.618   3.627  0.2290 -0.1070 -0.1183
 4291TIP3    H112837   1.079   1.599   3.653  0.4697 -0.3601  0.5456
 4291TIP3    H212838   1.180   1.712   3.643  0.6937 -0.4440  1.7203
 4292TIP3   OH212839   1.323   4.721   3.551 -0.9035 -0.3422 -0.0828
 4292TIP3    H112840   1.314   4.626   3.552  1.3597 -0.6295  1.5049
 4292TIP3    H212841   1.414   4.736   3.523 -0.5135  1.1990  1.7692
 4293TIP3   OH212842   3.701   5.932   1.493  0.0459 -0.3991  0.8448
 4293TIP3    H112843   3.692   5.932   1.588  0.9677 -3.3090  1.0367
 4293TIP3    H212844   3.612   5.947   1.461 -0.5586 -0.9030  2.1951
 4294TIP3   OH212845   6.795   4.023   5.582  0.7108 -0.1258 -0.1371
 4294TIP3    H112846   6.851   3.977   5.520  0.2361 -0.9837  0.0626
 4294TIP3    H212847   6.708   4.020   5.544  0.7333  0.9791 -0.3169
 4295TIP3   OH212848   3.484   4.482   3.235 -0.1907  0.3502  0.2160
 4295TIP3    H112849   3.562   4.521   3.275 -0.5305  0.4693  0.7836
 4295TIP3    H212850   3.507   4.471   3.143  1.3778 -1.8446  0.7961
 4296TIP3   OH212851   2.641   5.019   2.526  0.2656  0.4136 -0.3876
 4296TIP3    H112852   2.657   4.964   2.449  1.0154  1.2085 -0.8233
 4296TIP3    H212853   2.547   5.014   2.539  0.1914 -0.1581 -1.0395
 4297TIP3   OH212854   1.437   6.200   5.352  0.2531 -0.7178 -0.5747
 4297TIP3    H112855   1.365   6.259   5.373  0.7116  0.0119 -0.9951
 4297TIP3    H212856   1.473   6.235   5.270  1.5459 -0.6189  0.0084
 4298TIP3   OH212857   2.403   2.957   5.590 -0.2512 -0.0432  0.1774
 4298TIP3    H112858   2.337   2.892   5.615 -1.2997  1.0742  0.3549
 4298TIP3    H212859   2.460   2.965   5.667 -0.1395 -0.7065  0.1703
 4299TIP3   OH212860   5.424   0.538   4.585 -0.0325  0.3064 -0.2356
 4299TIP3    H112861   5.396   0.490   4.663  0.5557 -0.7617 -0.6602
 4299TIP3    H212862   5.391   0.627   4.598 -1.4611 -0.2925  0.4025
 4300TIP3   OH212863   1.126   2.542   4.925 -0.1337  0.0841  0.7859
 4300TIP3    H112864   1.056   2.488   4.962 -1.0912  1.2407  0.7262
 4300TIP3    H212865   1.105   2.631   4.953  1.8985  0.3579  1.6561
 4301TIP3   OH212866   6.806   0.883   5.390  0.9376 -0.5378  0.2149
 4301TIP3    H112867   6.861   0.960   5.375  0.3617 -0.1703 -0.0150
 4301TIP3    H212868   6.865   0.808   5.376  1.7570 -0.1489  1.3950
 4302TIP3   OH212869   0.174   2.186   4.537  0.2964  0.0978 -0.5716
 4302TIP3    H112870   0.089   2.148   4.516  0.2936 -0.6820  0.7517
 4302TIP3    H212871   0.186   2.169   4.630  0.6762  2.6466 -0.0708
 4303TIP3   OH212872   0.892   5.149   1.222 -0.4314  0.3912 -0.1052
 4303TIP3    H112873   0.865   5.239   1.239  0.2507  0.3607  1.2294
 4303TIP3    H212874   0.839   5.095   1.281  0.2055  0.0609  0.1840
 4304TIP3   OH212875   1.538   1.600   1.208 -0.4827 -0.3776  0.1222
 4304TIP3    H112876   1.502   1.562   1.288  0.5913 -2.5389 -0.3431
 4304TIP3    H212877   1.582   1.527   1.165  1.1510  1.3069 -1.2032
 4305TIP3   OH212878   3.758   1.724   5.056  0.6241 -0.3812  0.1838
 4305TIP3    H112879   3.773   1.815   5.027 -1.0442 -0.2365 -0.3152
 4305TIP3    H212880   3.702   1.733   5.133  0.0818 -0.9995 -0.1357
 4306TIP3   OH212881   1.704   0.311   4.516 -0.2186  0.3180 -0.1505
 4306TIP3    H112882   1.792   0.281   4.493 -0.9296 -0.8088 -1.5722
 4306TIP3    H212883   1.670   0.243   4.574 -0.4356  0.3686 -0.2185
 4307TIP3   OH212884   6.519   1.784   2.330 -0.2107 -0.3319  0.8798
 4307TIP3    H112885   6.457   1.723   2.370  1.2341 -2.4906  0.0225
 4307TIP3    H212886   6.521   1.759   2.238  0.7414  0.7859  0.5721
 4308TIP3   OH212887   6.291   1.315   0.341 -0.2658 -0.2476  0.1684
 4308TIP3    H112888   6.330   1.394   0.379  0.4625  0.1193 -1.2644
 4308TIP3    H212889   6.363   1.252   0.338 -0.6349 -0.6971  0.5287
 4309TIP3   OH212890   4.381   5.889   4.253 -0.2161  0.2309 -0.1496
 4309TIP3    H112891   4.347   5.945   4.323  1.7977 -0.6880  1.7163
 4309TIP3    H212892   4.412   5.950   4.187 -0.5910  1.2290  0.5702
 4310TIP3   OH212893   0.930   6.603   3.075  0.4007  0.2197  0.2970
 4310TIP3    H112894   0.850   6.560   3.045 -0.0218  0.5511  0.9361
 4310TIP3    H212895   1.001   6.549   3.040 -0.0965  0.0284 -0.4284
 4311TIP3   OH212896   0.089   3.220   4.954  0.4228 -0.2032  0.8073
 4311TIP3    H112897   0.057   3.139   4.994 -0.6911 -0.5960 -0.8112
 4311TIP3    H212898   0.010   3.271   4.935  0.9185  0.0502 -0.6902
 4312TIP3   OH212899   0.837   3.942   5.508 -0.2908  0.3722 -0.4491
 4312TIP3    H112900   0.778   3.923   5.435  1.4495 -2.9405 -1.1767
 4312TIP3    H212901   0.923   3.911   5.478  0.8744  0.6586  2.2975
 4313TIP3   OH212902   1.065   1.026   2.699 -0.1420 -0.8059 -0.1583
 4313TIP3    H112903   1.061   0.992   2.609  0.2019 -0.1610 -0.4289
 4313TIP3    H212904   0.976   1.015   2.732 -0.2972 -0.9698 -0.6155
 4314TIP3   OH212905   5.166   4.669   4.701 -0.1089  0.6153 -0.1656
 4314TIP3    H112906   5.089   4.709   4.742  1.0505  0.4935  2.2312
 4314TIP3    H212907   5.240   4.697   4.754  1.1287 -2.0326 -0.3405
 4315TIP3   OH212908   0.539   3.648   5.196  0.6463 -0.3594 -0.4337
 4315TIP3    H112909   0.632   3.627   5.191  1.3475  2.4449 -0.9009
 4315TIP3    H212910   0.506   3.631   5.108  1.1930  0.3824 -0.7999
 4316TIP3   OH212911   2.819   4.834   0.860 -0.2233 -0.5750  0.1320
 4316TIP3    H112912   2.764   4.792   0.927 -0.5267 -0.8972 -0.3167
 4316TIP3    H212913   2.801   4.785   0.780  0.2010 -0.2391 -0.1703
 4317TIP3   OH212914   0.091  -0.005   0.219 -0.6147  0.0196  0.2183
 4317TIP3    H112915   0.045  -0.042   0.294 -0.3002  0.2043  0.5049
 4317TIP3    H212916   0.050   0.080   0.204  1.1779  1.2877  1.9955
 4318TIP3   OH212917   1.993   0.894   3.986  0.1440  0.5234  0.0962
 4318TIP3    H112918   1.926   0.826   3.983  0.0662  0.3802  2.8877
 4318TIP3    H212919   1.945   0.975   4.001  0.3894  0.9610 -1.3114
 4319TIP3   OH212920   4.982   3.255   1.556 -0.8658  0.3513 -0.5674
 4319TIP3    H112921   5.000   3.164   1.579  0.0384 -0.0224 -2.5164
 4319TIP3    H212922   4.891   3.255   1.527 -0.8261  0.0199 -0.6966
 4320TIP3   OH212923   4.321   3.827   1.706 -0.0076 -0.6844 -0.2063
 4320TIP3    H112924   4.246   3.773   1.730 -0.8809  1.7684  3.4166
 4320TIP3    H212925   4.392   3.798   1.762  0.0676  0.5893  0.3955
 4321TIP3   OH212926   7.020   4.124   4.110 -0.4082 -0.1728  0.0913
 4321TIP3    H112927   7.032   4.030   4.118  1.6178 -0.1255 -1.5573
 4321TIP3    H212928   7.108   4.159   4.095 -0.7522  2.2783  2.8304
 4322TIP3   OH212929   4.182   5.070   5.609  0.5377 -0.6849  0.0534
 4322TIP3    H112930   4.241   5.093   5.537  1.0175  0.0536  0.6668
 4322TIP3    H212931   4.177   4.974   5.606  1.7970 -0.7685 -0.0049
 4323TIP3   OH212932   7.208   3.755   0.852  0.3401 -0.8948  0.1607
 4323TIP3    H112933   7.138   3.756   0.917 -1.3841  1.2024 -1.5648
 4323TIP3    H212934   7.288   3.736   0.902 -1.1622 -1.3295  2.5224
 4324TIP3   OH212935   2.340   2.846   3.751 -0.1858  0.2580 -0.2090
 4324TIP3    H112936   2.382   2.930   3.770  0.8163 -0.0788 -0.8769
 4324TIP3    H212937   2.402   2.780   3.784 -1.0890 -0.2342  0.5783
 4325TIP3   OH212938   3.920   5.957   1.364  0.5823  0.2094 -0.2512
 4325TIP3    H112939   3.842   5.959   1.419  0.9320 -0.2120  0.2645
 4325TIP3    H212940   3.891   5.993   1.280  0.3919  2.2955  0.6352
 4326TIP3   OH212941   5.674   5.101   1.022  0.3626 -0.2543 -0.4361
 4326TIP3    H112942   5.670   5.045   0.944  0.6667 -1.2681  0.2577
 4326TIP3    H212943   5.722   5.049   1.086  1.3548  1.1304 -0.0165
 4327TIP3   OH212944   1.011   3.656   3.811 -0.2812  0.2231  0.1394
 4327TIP3    H112945   0.933   3.691   3.768 -1.6094 -1.1185  1.3647
 4327TIP3    H212946   0.988   3.566   3.833  0.9769  0.3259  2.0861
 4328TIP3   OH212947   0.160   0.854   1.454  0.4946  0.0896 -0.2081
 4328TIP3    H112948   0.128   0.771   1.420 -0.5234  0.2643  0.2683
 4328TIP3    H212949   0.160   0.843   1.549  0.1175  0.7012 -0.1260
 4329TIP3   OH212950   3.144   5.657   2.789  0.0337 -0.1550 -0.1235
 4329TIP3    H112951   3.213   5.668   2.724 -2.6721 -1.9728 -3.6767
 4329TIP3    H212952   3.139   5.562   2.801 -1.5548 -0.0353  0.3407
 4330TIP3   OH212953   3.058   4.889   1.449 -0.2910 -0.0991  0.6342
 4330TIP3    H112954   3.089   4.959   1.392  1.1736 -0.9440  0.3233
 4330TIP3    H212955   3.018   4.825   1.389 -0.4630 -0.1141  0.7651
 4331TIP3   OH212956   1.895   5.293   4.663  0.1255 -0.1793 -0.6461
 4331TIP3    H112957   1.906   5.285   4.758  1.8069 -0.2199 -0.8144
 4331TIP3    H212958   1.814   5.343   4.653 -0.4608 -0.7740  0.7880
 4332TIP3   OH212959   1.135   5.573   0.683  0.2616 -0.0966  0.2903
 4332TIP3    H112960   1.147   5.490   0.636  0.3656  0.1547 -0.1322
 4332TIP3    H212961   1.110   5.547   0.772 -0.0536 -0.5752  0.0661
 4333TIP3   OH212962   3.006   5.988   0.058  0.4359  0.4621  0.0352
 4333TIP3    H112963   3.064   5.913   0.041  1.4015  1.0070  0.7988
 4333TIP3    H212964   2.921   5.949   0.076  0.0118 -0.2832 -3.0750
 4334TIP3   OH212965   6.301   1.950   2.651 -0.2379 -0.0434 -0.4751
 4334TIP3    H112966   6.270   2.010   2.718 -0.7881 -1.2512  0.3801
 4334TIP3    H212967   6.284   1.863   2.686 -0.7232 -0.7236 -2.2614
 4335TIP3   OH212968   3.697   2.578   2.579  0.3975  0.0211 -0.2168
 4335TIP3    H112969   3.722   2.632   2.653  0.1996  1.3919 -1.1119
 4335TIP3    H212970   3.768   2.514   2.570  0.0413 -0.6741  1.5933
 4336TIP3   OH212971   4.083   3.410   2.522  0.1223  0.2508  0.2225
 4336TIP3    H112972   4.074   3.476   2.453 -0.0724  1.5755  1.4940
 4336TIP3    H212973   4.019   3.342   2.498  0.1307  0.6290 -0.9449
 4337TIP3   OH212974   0.715   2.371   2.100  0.1396 -0.3462  0.6944
 4337TIP3    H112975   0.645   2.426   2.134  0.6848  1.4570 -0.9039
 4337TIP3    H212976   0.674   2.321   2.029  0.3992  0.5661 -0.1132
 4338TIP3   OH212977   6.944   0.446   3.412  0.0087 -0.1476 -0.3364
 4338TIP3    H112978   6.904   0.396   3.341  1.3822 -1.0517 -0.5095
 4338TIP3    H212979   6.997   0.382   3.460 -0.7303  0.4871  1.4075
 4339TIP3   OH212980   3.272   2.387   3.196  0.2005  0.1939 -0.2511
 4339TIP3    H112981   3.217   2.449   3.244  0.5171  0.4725 -0.2428
 4339TIP3    H212982   3.223   2.369   3.116 -1.1128 -1.5434  0.8780
 4340TIP3   OH212983   5.109   3.096   3.674  0.4955 -0.1285 -0.0222
 4340TIP3    H112984   5.127   3.060   3.761 -2.1659  0.9020  1.0584
 4340TIP3    H212985   5.110   3.191   3.687  2.1481  0.1264 -1.6371
 4341TIP3   OH212986   1.370   6.184   5.731  0.2764  0.2790 -0.0754
 4341TIP3    H112987   1.441   6.241   5.702  0.0377 -0.1217 -1.4867
 4341TIP3    H212988   1.297   6.243   5.747 -0.3585  0.3196 -2.7361
 4342TIP3   OH212989   6.493   6.270   3.261 -0.0912  0.3772 -0.6926
 4342TIP3    H112990   6.547   6.248   3.185 -0.0556  0.1386 -0.5984
 4342TIP3    H212991   6.545   6.242   3.336 -0.6778 -0.5917 -0.6277
 4343TIP3   OH212992   4.343   0.107   4.304 -0.6704 -0.0269 -0.2005
 4343TIP3    H112993   4.392   0.172   4.353  1.7060 -1.5192 -0.4475
 4343TIP3    H212994   4.363   0.125   4.212 -2.0000  0.3862 -0.4301
 4344TIP3   OH212995   2.936   6.006   5.188 -0.3160  0.2728 -0.6684
 4344TIP3    H112996   2.947   6.008   5.283  0.9289  0.1209 -0.7934
 4344TIP3    H212997   2.848   5.971   5.174 -0.6838  0.7345  0.4313
 4345TIP3   OH212998   1.804   2.539   3.205 -0.7768 -0.0224  0.4672
 4345TIP3    H112999   1.777   2.452   3.175 -1.1450 -0.0594  0.8873
 4345TIP3    H213000   1.749   2.555   3.282  1.1422 -0.5573  2.0289
 4346TIP3   OH213001   1.153   2.615   2.767  0.5605  0.1388  0.3738
 4346TIP3    H113002   1.096   2.546   2.731  1.6992 -0.8105  0.3438
 4346TIP3    H213003   1.147   2.604   2.861 -0.3279  0.9115  0.4279
 4347TIP3   OH213004   6.436   5.061   0.160 -0.2074  0.5212  0.4232
 4347TIP3    H113005   6.367   5.027   0.217 -0.2556 -0.1700 -0.0324
 4347TIP3    H213006   6.502   4.991   0.158 -0.2845  0.4639 -0.4965
 4348TIP3   OH213007   5.843   5.499   4.475  0.2259  0.1623 -0.6509
 4348TIP3    H113008   5.878   5.559   4.409  0.5593  1.1175  0.3676
 4348TIP3    H213009   5.910   5.495   4.543 -0.6166  0.1662  0.2097
 4349TIP3   OH213010   1.845   5.365   1.514 -0.0858  0.1268 -0.0894
 4349TIP3    H113011   1.870   5.360   1.606  0.3814  0.3190 -0.2040
 4349TIP3    H213012   1.870   5.453   1.487 -0.9707  0.3488 -0.1874
 4350TIP3   OH213013   6.738   0.302   4.479 -0.2181 -0.5212  0.4182
 4350TIP3    H113014   6.766   0.340   4.395  2.4166  1.3902  2.0164
 4350TIP3    H213015   6.744   0.207   4.465  2.0102 -0.2372 -1.0088
 4351TIP3   OH213016   0.635   1.225   4.864  0.1432  0.0978 -0.0344
 4351TIP3    H113017   0.719   1.179   4.868  0.4095  0.5673 -0.2386
 4351TIP3    H213018   0.643   1.295   4.930  0.2754  0.7401 -0.7210
 4352TIP3   OH213019   6.627   6.585   4.304  0.7007 -0.0456 -0.0005
 4352TIP3    H113020   6.651   6.507   4.353  0.2170 -0.0053  0.3136
 4352TIP3    H213021   6.710   6.624   4.277  0.9637 -0.2338  0.5293
 4353TIP3   OH213022   4.374   5.263   3.382  0.0691 -0.4153  0.0646
 4353TIP3    H113023   4.357   5.176   3.346 -1.1951 -0.4538  0.6969
 4353TIP3    H213024   4.370   5.251   3.477 -1.8191  0.6251  0.1627
 4354TIP3   OH213025   2.147   1.818   5.427 -0.1382  0.3844 -0.4762
 4354TIP3    H113026   2.122   1.822   5.334  1.4224  0.4892 -0.9133
 4354TIP3    H213027   2.195   1.736   5.436 -0.3332  0.3440  0.2628
 4355TIP3   OH213028   4.601   4.753   1.415 -0.1667 -0.1967  0.0943
 4355TIP3    H113029   4.591   4.842   1.382  0.3123 -0.3374 -0.4487
 4355TIP3    H213030   4.695   4.745   1.435 -0.8755  1.2669  5.5429
 4356TIP3   OH213031   3.649   5.478   4.190  0.0673 -0.5350  0.5523
 4356TIP3    H113032   3.598   5.411   4.144  1.0232 -0.1098 -1.2302
 4356TIP3    H213033   3.736   5.439   4.200 -0.3194 -0.9399  2.8374
 4357TIP3   OH213034   5.426   2.398   5.580  0.1083 -0.2452  0.2766
 4357TIP3    H113035   5.464   2.318   5.543 -0.8930 -0.2666 -0.7366
 4357TIP3    H213036   5.354   2.368   5.635 -0.3179 -0.0413 -0.1662
 4358TIP3   OH213037   4.044   5.231   3.283  0.3556 -0.0100 -0.2810
 4358TIP3    H113038   4.046   5.305   3.222  1.0685 -0.1274 -0.4025
 4358TIP3    H213039   4.117   5.176   3.257  0.6061 -0.1186  0.6139
 4359TIP3   OH213040   5.342   3.607   5.129  0.1111 -0.5710  0.6406
 4359TIP3    H113041   5.417   3.556   5.099  0.7867  0.4071  0.6102
 4359TIP3    H213042   5.271   3.544   5.136 -0.1350 -0.8820 -3.0500
 4360TIP3   OH213043   0.955   2.258   0.283 -0.1107 -0.4072 -0.1431
 4360TIP3    H113044   0.954   2.171   0.243 -0.0376 -0.6201  0.3219
 4360TIP3    H213045   0.883   2.304   0.240  0.5928 -0.2985 -1.2754
 4361TIP3   OH213046   6.815   5.770   2.417 -0.3913 -0.3388  0.6213
 4361TIP3    H113047   6.721   5.787   2.425 -0.6544 -0.6488 -1.3730
 4361TIP3    H213048   6.820   5.687   2.368  0.9250 -1.5931  2.7247
 4362TIP3   OH213049   4.162   4.530   4.423 -0.1790 -0.2438 -0.2829
 4362TIP3    H113050   4.085   4.483   4.394  0.5705 -1.1740 -0.8191
 4362TIP3    H213051   4.129   4.616   4.451 -1.4389 -0.7635 -0.1264
 4363TIP3   OH213052   2.810   3.096   0.015 -0.1075  0.2109 -0.4854
 4363TIP3    H113053   2.807   3.003   0.034 -0.3217  0.1720 -0.7114
 4363TIP3    H213054   2.781   3.138   0.096 -2.0352  0.0097 -1.0231
 4364TIP3   OH213055   0.054   0.229   4.665 -0.8701 -0.2097  1.1627
 4364TIP3    H113056  -0.036   0.209   4.640  0.0777 -1.6469 -1.4927
 4364TIP3    H213057   0.046   0.303   4.726 -3.8197 -0.5164  1.2995
 4365TIP3   OH213058   3.982   5.569   4.839  0.0537 -0.2484  0.1562
 4365TIP3    H113059   4.061   5.606   4.799 -0.7734 -0.3482 -1.6866
 4365TIP3    H213060   4.014   5.508   4.904  1.4756  1.9783  1.6953
 4366TIP3   OH213061   2.609   4.915   2.839 -0.6070 -0.1379  0.0992
 4366TIP3    H113062   2.690   4.910   2.788  1.0309  0.3174  2.5080
 4366TIP3    H213063   2.569   4.998   2.812  0.0122 -0.0886 -0.6940
 4367TIP3   OH213064   2.144   2.439   1.763 -0.5227 -0.0125  0.1179
 4367TIP3    H113065   2.238   2.437   1.743 -0.2125  0.1122  1.4232
 4367TIP3    H213066   2.101   2.430   1.678  0.6679  1.0282 -0.6398
 4368TIP3   OH213067   0.443   2.124   4.459  0.2617 -0.1202 -0.3117
 4368TIP3    H113068   0.349   2.137   4.470  0.3427  1.8053 -1.3933
 4368TIP3    H213069   0.452   2.074   4.378  0.1676 -1.1419  0.2898
 4369TIP3   OH213070   6.298   5.516   0.904 -0.2142 -0.3285  0.4703
 4369TIP3    H113071   6.262   5.576   0.970 -1.8942  0.7796 -1.3253
 4369TIP3    H213072   6.341   5.573   0.841  0.2922 -1.2489 -0.0356
 4370TIP3   OH213073   6.744   1.133   0.763 -0.2632 -0.4012  0.1827
 4370TIP3    H113074   6.825   1.171   0.795 -0.0941  1.1438 -1.8786
 4370TIP3    H213075   6.750   1.040   0.785  0.2811  0.2929  3.4563
 4371TIP3   OH213076  -0.009   3.772   2.927  0.4073  0.2167  0.2021
 4371TIP3    H113077   0.036   3.734   2.851  1.6246 -2.3843  2.0682
 4371TIP3    H213078   0.044   3.848   2.949  1.8369 -0.7083  0.1589
 4372TIP3   OH213079   4.190   1.143   3.862  0.1081  0.3142 -0.0844
 4372TIP3    H113080   4.282   1.167   3.860  0.1330  0.1730 -1.0495
 4372TIP3    H213081   4.144   1.225   3.881  0.2598  0.9637 -2.3208
 4373TIP3   OH213082   4.987   3.827   4.122 -0.2331 -0.4855 -0.2275
 4373TIP3    H113083   5.052   3.843   4.053 -0.0549 -0.3398 -0.0283
 4373TIP3    H213084   5.023   3.871   4.199 -0.5807 -0.3893 -0.1205
 4374TIP3   OH213085   5.928   6.768   5.807 -0.1274  0.1528 -0.2534
 4374TIP3    H113086   5.839   6.768   5.771 -1.4282  2.4450  2.5397
 4374TIP3    H213087   5.923   6.711   5.884  0.9317  0.0622 -0.2364
 4375TIP3   OH213088   4.130   5.903   0.664  0.0925  0.1762  0.2026
 4375TIP3    H113089   4.137   5.990   0.623 -0.3205 -0.8142 -2.1204
 4375TIP3    H213090   4.089   5.848   0.598 -2.4503 -1.1595  2.6587
 4376TIP3   OH213091   4.947   6.352   1.084 -0.2041 -0.7986 -0.5483
 4376TIP3    H113092   5.011   6.297   1.130 -0.1389  0.4423  0.9380
 4376TIP3    H213093   4.947   6.320   0.994  1.8783 -1.4069 -0.3754
 4377TIP3   OH213094   5.862   4.854   1.993 -0.6771  0.1308  0.4002
 4377TIP3    H113095   5.798   4.913   2.035 -1.4727 -0.6747  0.3552
 4377TIP3    H213096   5.826   4.839   1.905 -0.3359 -0.2088  0.3174
 4378TIP3   OH213097   0.999   4.639   3.165 -0.1216 -0.3087  0.2206
 4378TIP3    H113098   1.092   4.630   3.146  0.3770  1.8240  1.2476
 4378TIP3    H213099   0.970   4.551   3.188  1.2112 -1.3217 -1.7641
 4379TIP3   OH213100   4.802   3.393   5.454 -0.1454 -0.0287 -0.4756
 4379TIP3    H113101   4.810   3.483   5.422 -1.4755  0.2485 -0.0818
 4379TIP3    H213102   4.784   3.402   5.547  0.5890 -0.7445 -0.2528
 4380TIP3   OH213103   1.135   1.197   4.459 -0.3937  0.2374 -0.7946
 4380TIP3    H113104   1.103   1.282   4.428 -1.9706  0.7952  2.0309
 4380TIP3    H213105   1.121   1.137   4.386 -3.6504  1.4603 -1.3005
 4381TIP3   OH213106   3.126   4.205   0.268  0.1129  0.1915  0.1930
 4381TIP3    H113107   3.115   4.123   0.221 -0.9184  0.2171  0.3629
 4381TIP3    H213108   3.174   4.181   0.347  1.3561  0.0593 -0.5771
 4382TIP3   OH213109   0.373   3.993   5.723 -0.1493 -0.3074  0.2242
 4382TIP3    H113110   0.411   3.905   5.722  0.4176 -0.0758 -1.4430
 4382TIP3    H213111   0.427   4.043   5.784 -1.4037 -1.4480  2.4173
 4383TIP3   OH213112   6.749   5.217   4.389  0.2396  0.4212  0.5327
 4383TIP3    H113113   6.765   5.222   4.295 -0.6600 -0.6870  0.3086
 4383TIP3    H213114   6.654   5.209   4.397  0.2784  0.7930  1.5586
 4384TIP3   OH213115   4.987   3.898   0.782  0.0857 -0.2086 -0.1725
 4384TIP3    H113116   4.899   3.933   0.799  0.2339 -0.4427  1.2485
 4384TIP3    H213117   5.046   3.967   0.813  0.3797 -0.9513  0.9705
 4385TIP3   OH213118   3.142   4.616   4.435  0.1461 -0.1814 -0.3127
 4385TIP3    H113119   3.185   4.682   4.380  2.9151 -0.8973  0.8385
 4385TIP3    H213120   3.129   4.660   4.519  1.7603 -0.9337  0.3751
 4386TIP3   OH213121   6.902   0.037   4.954  0.5334 -0.2427 -0.1344
 4386TIP3    H113122   6.808   0.040   4.937 -0.1641 -1.0737  2.8721
 4386TIP3    H213123   6.928   0.129   4.959 -0.4288  0.0241  0.2614
 4387TIP3   OH213124   1.016   6.000   1.945 -0.4833 -0.1964  0.1374
 4387TIP3    H113125   0.969   5.937   1.999  1.1954 -2.3175 -0.7179
 4387TIP3    H213126   1.017   5.961   1.857  0.8872  0.8522 -0.3589
 4388TIP3   OH213127   0.281   6.031   0.600 -0.3661  0.0033  0.4330
 4388TIP3    H113128   0.316   6.042   0.512  1.2269 -2.1665  0.7168
 4388TIP3    H213129   0.348   6.067   0.657  0.0579 -1.4004  0.8563
 4389TIP3   OH213130   1.295   1.802   2.367  0.0306 -0.2222 -0.5640
 4389TIP3    H113131   1.266   1.723   2.323 -2.1372  0.0238  0.2884
 4389TIP3    H213132   1.227   1.820   2.432  0.3350  2.4129 -0.8309
 4390TIP3   OH213133   6.879   5.513   4.209 -0.0665  0.2942  0.4441
 4390TIP3    H113134   6.791   5.546   4.190 -0.0508  0.8311  1.2555
 4390TIP3    H213135   6.885   5.432   4.160 -1.1019  0.1386  0.5503
 4391TIP3   OH213136   6.086   3.051   1.833 -0.0048 -0.0392  0.4919
 4391TIP3    H113137   6.109   2.997   1.909  0.3221 -0.4357  0.1111
 4391TIP3    H213138   6.093   3.141   1.865  0.3099 -0.2010  0.8794
 4392TIP3   OH213139   3.921   3.900   0.102 -0.4002 -0.5270 -0.1473
 4392TIP3    H113140   3.929   3.982   0.151  0.2557 -0.2079 -0.7685
 4392TIP3    H213141   3.981   3.840   0.147  1.7313  0.3354 -1.6711
 4393TIP3   OH213142  -0.010   4.665   2.510  0.4958 -0.2136  0.2234
 4393TIP3    H113143  -0.020   4.570   2.504 -0.0038 -0.1573  0.1536
 4393TIP3    H213144   0.041   4.688   2.432  0.6388 -0.4263  0.2520
 4394TIP3   OH213145   4.415   1.487   2.073  0.2503  0.2078  0.1433
 4394TIP3    H113146   4.505   1.478   2.040  0.2751  0.2510  0.1997
 4394TIP3    H213147   4.380   1.397   2.071 -0.4638  0.4675 -2.0202
 4395TIP3   OH213148   6.195   0.670   3.728 -0.2644 -0.2649 -0.1578
 4395TIP3    H113149   6.187   0.719   3.646 -1.2297  1.0098  0.6588
 4395TIP3    H213150   6.153   0.586   3.709  1.0483 -0.6674 -1.4548
 4396TIP3   OH213151   3.271   2.696   4.682  0.0285  0.3406  0.9329
 4396TIP3    H113152   3.204   2.656   4.626  0.4628  0.3275  0.4082
 4396TIP3    H213153   3.346   2.637   4.675  1.6345  2.4309 -1.9475
 4397TIP3   OH213154   7.127   3.287   4.069 -0.3887 -0.0373  0.5515
 4397TIP3    H113155   7.177   3.362   4.101  0.9012 -0.8590  0.5452
 4397TIP3    H213156   7.128   3.225   4.141 -0.3629 -0.5460  0.1241
 4398TIP3   OH213157   6.087   4.253   3.811 -0.6561 -0.9920 -0.6272
 4398TIP3    H113158   6.115   4.241   3.721 -0.5949  1.3434 -0.9797
 4398TIP3    H213159   6.160   4.220   3.863  0.3988 -0.1243 -1.4906
 4399TIP3   OH213160   1.260   2.392   2.189 -0.1036  0.5309 -0.2026
 4399TIP3    H113161   1.336   2.368   2.137 -0.4500 -0.5870 -0.2118
 4399TIP3    H213162   1.293   2.460   2.249  0.2796  1.8975 -1.8725
 4400TIP3   OH213163   2.410   3.845   0.012 -0.1047  0.3239  0.0744
 4400TIP3    H113164   2.470   3.896   0.067  1.2636 -2.2093  1.0606
 4400TIP3    H213165   2.435   3.754   0.026 -3.3807 -0.7992 -0.4641
 4401TIP3   OH213166   0.451   1.430   1.246  0.1645  1.0260  0.3002
 4401TIP3    H113167   0.538   1.397   1.267 -0.1722 -0.1243 -0.0051
 4401TIP3    H213168   0.398   1.351   1.234 -1.7418  1.6004  3.6155
 4402TIP3   OH213169   2.533   3.934   2.675  0.1706 -0.5029 -0.3448
 4402TIP3    H113170   2.446   3.944   2.715  0.9683  1.0734  1.1361
 4402TIP3    H213171   2.522   3.965   2.585 -0.7159  0.0504 -0.0596
 4403TIP3   OH213172   2.920   4.286   4.331  0.3274 -0.0340  0.1478
 4403TIP3    H113173   2.898   4.343   4.406  1.3580  1.3247 -0.5422
 4403TIP3    H213174   2.952   4.346   4.264  2.4165 -1.5068 -0.2817
 4404TIP3   OH213175   2.512   0.928   4.587  0.2684  0.1934 -0.1587
 4404TIP3    H113176   2.481   0.903   4.499  0.4943 -0.4904 -0.0483
 4404TIP3    H213177   2.510   0.846   4.637  1.0498  0.3980  0.2101
 4405TIP3   OH213178   0.135   3.988   3.241  0.1381 -0.1282 -0.5571
 4405TIP3    H113179   0.224   4.019   3.259 -0.6583  1.5189  0.7624
 4405TIP3    H213180   0.146   3.922   3.173  2.1449  1.7831 -2.2294
 4406TIP3   OH213181   2.947   4.237   3.949 -0.0859  0.8719 -0.3117
 4406TIP3    H113182   2.969   4.175   4.018 -1.4629  0.5777 -0.1034
 4406TIP3    H213183   3.029   4.283   3.930  0.8528 -0.6659 -0.1437
 4407TIP3   OH213184   4.818   2.555   2.332  0.8175 -0.2994  0.0272
 4407TIP3    H113185   4.842   2.602   2.252  1.1918 -1.1341 -0.3560
 4407TIP3    H213186   4.852   2.610   2.403 -0.5996  1.1008 -0.2957
 4408TIP3   OH213187   4.183   2.170   3.941  0.5919  0.5297 -0.0522
 4408TIP3    H113188   4.131   2.238   3.899  0.4819  0.3146 -0.2625
 4408TIP3    H213189   4.245   2.142   3.873 -0.1312 -0.4022 -0.3386
 4409TIP3   OH213190   5.877   6.150   1.462  0.7449 -0.0752  0.1819
 4409TIP3    H113191   5.794   6.109   1.438  0.2649  0.7358  0.4257
 4409TIP3    H213192   5.913   6.182   1.379  0.3616  0.3927  0.1938
 4410TIP3   OH213193   6.141   2.830   3.660 -0.3203  0.6717 -0.4056
 4410TIP3    H113194   6.115   2.817   3.751  0.8520 -1.1992 -0.2808
 4410TIP3    H213195   6.220   2.885   3.665  0.0881  0.0860 -0.2165
 4411TIP3   OH213196   1.773   2.878   1.721 -0.2687  0.0422 -0.7055
 4411TIP3    H113197   1.830   2.813   1.680  0.5549  0.7672 -0.7406
 4411TIP3    H213198   1.761   2.846   1.811  0.2493 -0.0945 -0.6799
 4412TIP3   OH213199   6.845   2.086   4.922 -0.3342  0.2856  0.6579
 4412TIP3    H113200   6.796   2.082   4.840  0.1469  1.3459  0.3014
 4412TIP3    H213201   6.936   2.071   4.897 -0.4704 -2.0329  1.3587
 4413TIP3   OH213202   5.841   0.509   1.296  0.4637  0.5243 -0.3586
 4413TIP3    H113203   5.833   0.567   1.220 -1.6610 -0.0850 -0.6559
 4413TIP3    H213204   5.861   0.423   1.258 -1.0883  0.1156 -0.3061
 4414TIP3   OH213205   6.975   4.530   4.813  0.2059 -0.0431  0.4474
 4414TIP3    H113206   7.068   4.549   4.800  0.4619 -0.2372  1.8250
 4414TIP3    H213207   6.933   4.616   4.815  0.3568  0.0487 -0.0851
 4415TIP3   OH213208   5.868   4.116   4.616  0.2486  0.1775 -0.2296
 4415TIP3    H113209   5.810   4.040   4.623  0.5918 -0.0337  0.4098
 4415TIP3    H213210   5.839   4.174   4.686  0.7606  0.1000  0.0515
 4416TIP3   OH213211   5.487   3.511   2.988  0.0360  0.4173  0.1094
 4416TIP3    H113212   5.515   3.485   2.901  3.0808 -1.0352  1.3815
 4416TIP3    H213213   5.529   3.596   3.003 -1.6629  1.3923 -0.2708
 4417TIP3   OH213214   0.144   4.433   1.844  0.1216 -0.6446  0.2107
 4417TIP3    H113215   0.212   4.374   1.876  1.1009 -1.1252 -2.5078
 4417TIP3    H213216   0.076   4.431   1.912  1.9876 -1.5743  2.1416
 4418TIP3   OH213217   5.163   2.081   1.888  0.0833  0.3453 -0.0218
 4418TIP3    H113218   5.250   2.044   1.900  0.3386  1.1889  0.8332
 4418TIP3    H213219   5.109   2.007   1.859  1.4084  0.1423 -2.1742
 4419TIP3   OH213220   0.566   3.145   5.197 -0.1281  0.1556 -0.3593
 4419TIP3    H113221   0.516   3.188   5.128 -0.9278 -0.5197 -0.2058
 4419TIP3    H213222   0.505   3.083   5.237  0.2124  0.7351  1.1630
 4420TIP3   OH213223   2.026   1.768   2.327  0.2427  0.1847  0.3362
 4420TIP3    H113224   2.059   1.717   2.402  0.7443  0.2959  0.1989
 4420TIP3    H213225   1.975   1.839   2.367 -1.4622 -1.0753  0.4986
 4421TIP3   OH213226   3.022   6.053   4.491  0.1501  0.2464 -0.0284
 4421TIP3    H113227   3.047   6.142   4.468  0.1885  0.5792  1.2229
 4421TIP3    H213228   2.933   6.044   4.458  0.4325  0.4750 -0.8589
 4422TIP3   OH213229   5.191   0.964   5.319  0.2618  0.7376  0.0603
 4422TIP3    H113230   5.113   0.960   5.374  0.7144 -0.8638  0.6560
 4422TIP3    H213231   5.242   1.036   5.354  0.5723 -0.2946  1.8372
 4423TIP3   OH213232   6.385   1.630   2.514 -0.1666  0.2123 -1.2756
 4423TIP3    H113233   6.303   1.626   2.464  0.0702 -1.1208 -1.5858
 4423TIP3    H213234   6.383   1.553   2.570 -0.7313  2.0099  1.3489
 4424TIP3   OH213235   2.077   2.942   5.510 -0.1915  0.1129 -0.5601
 4424TIP3    H113236   2.117   2.872   5.561 -1.1840 -1.8474 -2.2890
 4424TIP3    H213237   2.129   2.946   5.430 -0.5445  0.9025 -0.7629
 4425TIP3   OH213238   0.998   5.385   3.460 -0.3077  0.0956 -0.3432
 4425TIP3    H113239   1.036   5.422   3.540 -0.3237 -3.0179  1.2597
 4425TIP3    H213240   1.071   5.342   3.416 -0.7882 -0.5095 -0.5664
 4426TIP3   OH213241   4.888   2.645   2.579 -0.2120 -0.1392 -0.2955
 4426TIP3    H113242   4.873   2.737   2.600  1.7773  0.1663 -0.0336
 4426TIP3    H213243   4.972   2.624   2.621  0.4188 -1.4810 -2.1144
 4427TIP3   OH213244   2.384   2.234   0.764  0.0061  0.3647 -0.0122
 4427TIP3    H113245   2.323   2.293   0.721 -0.6220  1.4882  2.2402
 4427TIP3    H213246   2.330   2.161   0.795  0.1803  0.2843  0.1101
 4428TIP3   OH213247   5.081   3.388   4.007  0.2423  0.1361  0.4079
 4428TIP3    H113248   5.037   3.472   3.995  0.5379  0.2651  0.2212
 4428TIP3    H213249   5.104   3.360   3.919 -1.3277 -0.9516  0.2948
 4429TIP3   OH213250   3.993   0.684   3.203  0.1971 -0.2373  0.6282
 4429TIP3    H113251   3.901   0.694   3.180  0.1367 -1.4172  0.2594
 4429TIP3    H213252   4.006   0.589   3.208  1.1410 -0.0694  1.7230
 4430TIP3   OH213253   5.340   4.594   5.307  0.6059  0.1571  0.1005
 4430TIP3    H113254   5.290   4.561   5.232 -0.6046 -0.8903  1.3202
 4430TIP3    H213255   5.357   4.686   5.286  1.9775 -0.5630 -2.2942
 4431TIP3   OH213256   2.906   6.173   3.459 -0.3251  0.4897 -0.1200
 4431TIP3    H113257   2.816   6.156   3.487 -0.5985  1.7236 -0.2031
 4431TIP3    H213258   2.960   6.119   3.518 -1.0445  0.8606  0.9127
 4432TIP3   OH213259   3.607   1.973   1.501 -0.3875 -0.8154  0.2913
 4432TIP3    H113260   3.534   2.003   1.447  1.0208 -1.4433 -2.1363
 4432TIP3    H213261   3.614   1.880   1.481  0.6713 -0.8900  0.9755
 4433TIP3   OH213262   5.267   1.336   1.051  0.0060  0.1854  0.2118
 4433TIP3    H113263   5.308   1.375   1.128 -0.3184  1.7044 -0.3585
 4433TIP3    H213264   5.175   1.322   1.077  0.2341 -0.7091  0.5827
 4434TIP3   OH213265   2.210   4.016   3.112  0.1305 -0.5541 -0.5312
 4434TIP3    H113266   2.168   4.098   3.085 -1.3045 -0.8355  0.6973
 4434TIP3    H213267   2.280   4.044   3.171  0.4132 -0.1699 -1.0334
 4435TIP3   OH213268   1.888   1.643   0.792 -0.0839 -0.4251  0.3382
 4435TIP3    H113269   1.901   1.736   0.770  0.6341 -0.5863  0.0490
 4435TIP3    H213270   1.874   1.643   0.886  1.6366 -0.1746  0.6223
 4436TIP3   OH213271   4.304   2.942   1.319 -0.0130  0.1219 -0.0442
 4436TIP3    H113272   4.329   3.023   1.364 -0.6569  0.5097 -0.3571
 4436TIP3    H213273   4.225   2.913   1.364 -0.0053 -0.1172 -0.1833
 4437TIP3   OH213274   1.970   3.084   1.578 -0.7570  0.1973 -0.5247
 4437TIP3    H113275   1.950   2.991   1.565 -1.1403  0.0465  0.9270
 4437TIP3    H213276   1.979   3.093   1.673 -0.6101  1.6253 -0.6563
 4438TIP3   OH213277   6.477   2.260   4.093  0.3475 -0.1872 -0.2475
 4438TIP3    H113278   6.444   2.308   4.017  1.0056  0.6816  0.0083
 4438TIP3    H213279   6.400   2.249   4.149 -0.1402 -0.8167 -1.0158
 4439TIP3   OH213280   3.939   0.918   2.111 -0.0542 -0.5990  0.0175
 4439TIP3    H113281   3.921   1.008   2.087 -1.1566 -1.0891 -1.0863
 4439TIP3    H213282   3.873   0.897   2.178 -0.0961 -0.7218 -0.0609
 4440TIP3   OH213283   1.868   5.709   0.186  0.1066 -0.3721 -0.3673
 4440TIP3    H113284   1.840   5.706   0.095 -0.2581 -1.1110 -0.2363
 4440TIP3    H213285   1.964   5.702   0.183  0.3081  1.8861 -0.8027
 4441TIP3   OH213286   6.530   1.972   3.977 -0.2219  0.5105  0.4087
 4441TIP3    H113287   6.503   1.998   3.889  0.8611  1.4906  0.3479
 4441TIP3    H213288   6.447   1.953   4.022 -0.9005  1.5338 -0.3491
 4442TIP3   OH213289   5.344   3.631   4.576  0.3791  0.0925  0.2959
 4442TIP3    H113290   5.253   3.631   4.606 -0.2836  2.2990 -1.3847
 4442TIP3    H213291   5.351   3.552   4.523 -0.6708  0.0396  0.2046
 4443TIP3   OH213292   6.459   2.790   1.418  0.0352  0.4661 -0.1959
 4443TIP3    H113293   6.380   2.760   1.372 -1.5253  0.5527  2.2342
 4443TIP3    H213294   6.523   2.804   1.348 -1.8514 -0.2883 -2.2230
 4444TIP3   OH213295   6.601   4.058   4.215 -0.3443 -0.1877 -0.1189
 4444TIP3    H113296   6.682   4.064   4.267 -1.6292  0.4676  1.9468
 4444TIP3    H213297   6.576   4.149   4.200 -2.2291 -0.2976  1.9072
 4445TIP3   OH213298   7.011   0.537   2.522  0.3872  0.0953  0.2123
 4445TIP3    H113299   7.050   0.456   2.488  0.5598  0.0544  0.5093
 4445TIP3    H213300   6.975   0.580   2.444  0.9346  0.0871 -0.0544
 4446TIP3   OH213301   5.019   4.182   0.542 -0.0419 -0.2113  0.2353
 4446TIP3    H113302   5.029   4.091   0.513 -0.6658 -0.3141  0.3170
 4446TIP3    H213303   4.955   4.177   0.613 -1.3457  0.4751 -0.8513
 4447TIP3   OH213304   5.987   0.174   2.295 -0.4933 -0.5661 -0.2959
 4447TIP3    H113305   5.932   0.104   2.330 -1.0050  0.7430  1.7287
 4447TIP3    H213306   5.972   0.248   2.355  0.4690  1.0903 -1.9903
 4448TIP3   OH213307   3.475   2.974   3.817  0.3636 -0.1263  0.0230
 4448TIP3    H113308   3.555   3.026   3.805 -0.5636  1.3240 -0.1238
 4448TIP3    H213309   3.460   2.935   3.731  0.5722  0.1258 -0.1320
 4449TIP3   OH213310   2.880   1.103   1.693  0.1048  0.7108 -0.0949
 4449TIP3    H113311   2.807   1.137   1.642  0.7982 -1.0919 -2.4854
 4449TIP3    H213312   2.954   1.160   1.671  0.7080 -0.7916 -2.2531
 4450TIP3   OH213313   3.300   4.826   5.589 -0.0366  0.0092 -0.2308
 4450TIP3    H113314   3.299   4.863   5.501 -0.4560 -0.0075 -0.2389
 4450TIP3    H213315   3.389   4.840   5.621  0.3961 -0.8261 -1.0104
 4451TIP3   OH213316   2.080   4.219   2.911 -0.1056  0.3043 -0.0537
 4451TIP3    H113317   2.025   4.227   2.833  2.0202  0.9834 -1.5741
 4451TIP3    H213318   2.129   4.301   2.914  2.4692 -1.1440 -0.1023
 4452TIP3   OH213319   4.717   5.877   1.818 -0.3849  0.1565 -0.1244
 4452TIP3    H113320   4.768   5.840   1.747 -2.3092  0.4841 -1.7608
 4452TIP3    H213321   4.685   5.801   1.867 -0.9271 -0.2099 -1.0132
 4453TIP3   OH213322   3.369   6.461   1.027 -0.3973 -0.3402 -0.6071
 4453TIP3    H113323   3.325   6.434   0.946 -2.2713 -0.4242  0.3718
 4453TIP3    H213324   3.363   6.557   1.026 -1.4136 -0.3806 -0.0899
 4454TIP3   OH213325   6.907   1.314   1.404 -0.0052  0.2410 -0.3793
 4454TIP3    H113326   6.819   1.338   1.376 -0.2069  0.7583  0.6393
 4454TIP3    H213327   6.896   1.229   1.447  0.5505 -1.3525 -3.0927
 4455TIP3   OH213328   3.362   3.675   2.809  0.1608  0.1039 -0.6150
 4455TIP3    H113329   3.303   3.740   2.847 -0.7225 -1.0924  0.1168
 4455TIP3    H213330   3.376   3.705   2.719 -0.0720  1.3923 -0.2411
 4456TIP3   OH213331   6.277   6.138   0.719 -0.1401  0.0021  0.2087
 4456TIP3    H113332   6.250   6.229   0.732 -0.1604 -0.1350  1.1662
 4456TIP3    H213333   6.246   6.092   0.796 -0.8129 -0.9871 -0.6263
 4457TIP3   OH213334   7.185   4.202   3.333  0.2075  0.4687 -0.1690
 4457TIP3    H113335   7.231   4.120   3.316  0.0204  0.4953 -0.8182
 4457TIP3    H213336   7.103   4.175   3.374 -0.3562  0.2510 -1.4130
 4458TIP3   OH213337   4.948   3.415   0.593  0.4127  0.4628  0.4916
 4458TIP3    H113338   5.038   3.404   0.563 -0.4106 -0.5151 -1.8347
 4458TIP3    H213339   4.927   3.507   0.576 -0.1933 -0.1585 -2.7289
 4459TIP3   OH213340   0.256   4.885   3.238  0.2199 -0.2840 -0.4739
 4459TIP3    H113341   0.277   4.803   3.281 -0.5575 -0.7109 -0.8854
 4459TIP3    H213342   0.163   4.879   3.218  0.3767  0.2536 -1.4481
 4460TIP3   OH213343   1.321   4.483   0.387 -0.2636 -0.0430  0.5052
 4460TIP3    H113344   1.412   4.458   0.402 -0.8328 -4.7088 -1.8864
 4460TIP3    H213345   1.273   4.443   0.459 -0.6318  0.2632  0.4340
 4461TIP3   OH213346   4.899   5.316   1.811  0.3211 -0.1693  1.0270
 4461TIP3    H113347   4.916   5.348   1.899  1.5106  0.5393  0.5758
 4461TIP3    H213348   4.974   5.347   1.760 -0.1098 -0.9616 -0.1311
 4462TIP3   OH213349   6.635   0.530   3.988 -0.3287 -0.2612 -0.0456
 4462TIP3    H113350   6.557   0.557   3.939 -0.5113 -1.3173 -0.3704
 4462TIP3    H213351   6.633   0.434   3.985  0.9244 -0.3112  0.0272
 4463TIP3   OH213352   1.822   0.197   1.513  0.5320 -0.6122 -0.2984
 4463TIP3    H113353   1.743   0.145   1.515 -2.4058  3.3166 -1.5221
 4463TIP3    H213354   1.835   0.225   1.604 -0.0975 -0.4964 -0.2416
 4464TIP3   OH213355   0.887   5.655   3.659 -0.4418 -0.3595  0.0827
 4464TIP3    H113356   0.939   5.711   3.717 -0.0216 -2.1168  1.4823
 4464TIP3    H213357   0.937   5.653   3.577  1.2199 -1.2009  1.0725
 4465TIP3   OH213358   6.045   5.965   0.196  0.4872 -0.0788  0.3661
 4465TIP3    H113359   6.010   6.052   0.214 -0.6904 -0.5846  0.5942
 4465TIP3    H213360   6.045   5.959   0.100  0.5862  0.1610  0.3485
 4466TIP3   OH213361   5.152   1.366   5.701 -0.0875  0.5262 -0.6841
 4466TIP3    H113362   5.110   1.365   5.615 -2.2560  0.2155  0.3091
 4466TIP3    H213363   5.181   1.275   5.715 -1.6315  0.0630 -0.2677
 4467TIP3   OH213364   1.610   2.835   4.927 -0.1542  0.0888 -0.3195
 4467TIP3    H113365   1.557   2.784   4.988 -0.8641  0.2364 -0.8052
 4467TIP3    H213366   1.656   2.769   4.875  0.9862 -0.0453  0.7926
 4468TIP3   OH213367   2.095   1.237   4.070 -0.0374  0.2641 -0.5540
 4468TIP3    H113368   2.119   1.175   4.139 -0.4017  0.9935  0.2436
 4468TIP3    H213369   2.102   1.186   3.989  1.5202 -0.3045 -0.1153
 4469TIP3   OH213370   2.562   6.294   4.349 -0.1645  0.8389 -0.2292
 4469TIP3    H113371   2.546   6.221   4.290 -0.4245 -0.1654  1.0301
 4469TIP3    H213372   2.485   6.350   4.339  0.0249  0.9373 -1.1863
 4470TIP3   OH213373   4.299   6.093   1.312 -0.1122 -0.0908 -0.4226
 4470TIP3    H113374   4.243   6.020   1.337 -0.1089 -0.0053 -0.1554
 4470TIP3    H213375   4.277   6.162   1.374 -0.2336  0.1943 -0.7788
 4471TIP3   OH213376   3.390   2.880   0.077  0.9011 -0.1739  0.2398
 4471TIP3    H113377   3.412   2.963   0.034 -1.3613  1.1167  1.3824
 4471TIP3    H213378   3.344   2.830   0.010 -0.8059  0.9962  0.4599
 4472TIP3   OH213379   2.374   3.388   5.373  0.7298  0.5966 -0.0696
 4472TIP3    H113380   2.337   3.472   5.347 -0.5426 -0.2826 -1.2077
 4472TIP3    H213381   2.304   3.325   5.359  1.1345 -0.4768  2.2081
 4473TIP3   OH213382   3.490   2.968   1.740  0.0882 -0.4630  0.2366
 4473TIP3    H113383   3.415   3.006   1.693 -0.4746 -0.8378  0.8191
 4473TIP3    H213384   3.537   2.919   1.672 -0.4911 -0.6630 -0.0329
 4474TIP3   OH213385   1.777   2.973   3.636  0.3782  0.2443  0.1702
 4474TIP3    H113386   1.742   3.045   3.688  0.0022  0.2843 -0.1363
 4474TIP3    H213387   1.709   2.906   3.639  0.5773  0.0424  0.1618
 4475TIP3   OH213388   4.882   5.440   4.377  0.2177 -0.4923  0.9394
 4475TIP3    H113389   4.874   5.535   4.370  1.7790 -0.4428 -1.2705
 4475TIP3    H213390   4.969   5.426   4.415  0.4714 -1.0165  0.1810
 4476TIP3   OH213391   1.976   2.283   0.469  0.3986  0.0589  0.0068
 4476TIP3    H113392   1.957   2.248   0.381  0.9757 -0.2119 -0.0197
 4476TIP3    H213393   1.897   2.266   0.519  0.2291 -0.2047 -0.3411
 4477TIP3   OH213394   1.286   3.643   1.039 -0.2130  0.2333 -0.5868
 4477TIP3    H113395   1.296   3.663   1.132 -0.6419  1.0888 -0.7152
 4477TIP3    H213396   1.300   3.727   0.995 -0.7083 -0.0211 -1.2421
 4478TIP3   OH213397   6.031   4.943   3.817 -0.5746  0.4117 -0.3199
 4478TIP3    H113398   6.068   4.908   3.736 -1.0519  1.7436 -1.1428
 4478TIP3    H213399   6.016   5.036   3.799 -1.1130  0.6373  1.1446
 4479TIP3   OH213400   4.001   5.690   0.521 -0.2119 -0.5320  0.3973
 4479TIP3    H113401   3.987   5.595   0.514  0.1798 -0.5038 -1.0658
 4479TIP3    H213402   3.915   5.727   0.502 -0.6305 -0.5918  2.0317
 4480TIP3   OH213403   7.187   6.520   5.470 -0.0323 -0.8581  0.3772
 4480TIP3    H113404   7.230   6.566   5.542  0.7779 -0.9676 -0.0333
 4480TIP3    H213405   7.094   6.524   5.492  0.2481 -1.4276  1.7376
 4481TIP3   OH213406   6.753   5.307   3.874  0.7786  0.3293  0.2778
 4481TIP3    H113407   6.687   5.314   3.805 -0.6609 -0.1214  1.5489
 4481TIP3    H213408   6.837   5.314   3.828 -0.0976 -0.7736 -1.6020
 4482TIP3   OH213409   5.910   5.654   5.625 -0.2605  0.2402  0.2415
 4482TIP3    H113410   5.911   5.676   5.718 -1.7793  2.9617 -0.2628
 4482TIP3    H213411   5.971   5.715   5.585  0.1768 -0.7275 -0.6072
 4483TIP3   OH213412   4.662   4.031   4.272 -0.0674 -0.6819 -0.6013
 4483TIP3    H113413   4.613   4.081   4.206  1.7816 -1.2944 -2.5435
 4483TIP3    H213414   4.751   4.065   4.266 -0.1543  0.4964  2.9254
 4484TIP3   OH213415   5.950   5.312   2.641  0.9257  0.1378  0.8465
 4484TIP3    H113416   6.012   5.357   2.584 -0.9668  0.7740 -0.8514
 4484TIP3    H213417   5.887   5.380   2.666 -0.7967 -1.0558 -0.0310
 4485TIP3   OH213418   1.222   5.900   0.930 -0.1908 -0.2300  0.0822
 4485TIP3    H113419   1.129   5.911   0.948  0.0664  0.1841  1.2685
 4485TIP3    H213420   1.241   5.810   0.955 -0.1994 -0.1913  0.2324
 4486TIP3   OH213421   4.930   2.309   4.075  0.1068 -0.4096  0.1127
 4486TIP3    H113422   5.010   2.330   4.027  0.6824 -1.7229  0.4465
 4486TIP3    H213423   4.866   2.372   4.042  1.8290  2.2803  1.5481
 4487TIP3   OH213424   1.644   3.626   5.380 -0.0642  0.1498  0.2540
 4487TIP3    H113425   1.680   3.708   5.346 -1.0975  0.8773  0.8212
 4487TIP3    H213426   1.681   3.558   5.325  0.8293  1.0020 -0.2266
 4488TIP3   OH213427   0.269   5.121   0.393  0.4821  0.3097 -0.4220
 4488TIP3    H113428   0.293   5.199   0.343 -0.5915  0.3552 -0.8890
 4488TIP3    H213429   0.197   5.081   0.343 -1.4478  0.9971  1.6372
 4489TIP3   OH213430   1.543   4.796   5.543 -0.0496 -0.1744  0.0067
 4489TIP3    H113431   1.625   4.845   5.537 -0.3989  0.4196 -0.0069
 4489TIP3    H213432   1.508   4.819   5.630  0.1952 -1.0706  0.3591
 4490TIP3   OH213433   3.944   2.126   1.705 -0.0695  0.0009 -0.1164
 4490TIP3    H113434   3.941   2.031   1.696 -0.1998 -0.0026 -0.0284
 4490TIP3    H213435   3.879   2.158   1.642 -0.0509  0.0302 -0.1204
 4491TIP3   OH213436   1.936   0.957   2.002  0.2942 -0.2462  0.0008
 4491TIP3    H113437   1.939   1.028   2.067 -2.2646  0.1088 -0.1495
 4491TIP3    H213438   1.988   0.990   1.928  1.0460  0.4764  0.8338
 4492TIP3   OH213439   5.463   4.431   1.017  0.0894  0.2085  0.0339
 4492TIP3    H113440   5.401   4.504   1.027 -2.4027 -1.8824  1.0763
 4492TIP3    H213441   5.538   4.456   1.071 -1.2183  1.5024  1.3676
 4493TIP3   OH213442   4.156   0.246   1.808  0.4160  0.6512 -0.0251
 4493TIP3    H113443   4.168   0.177   1.873 -2.3477 -0.1842 -0.3090
 4493TIP3    H213444   4.105   0.314   1.854  0.6489  1.2190 -0.5855
 4494TIP3   OH213445   4.280   5.374   0.832  0.1500  0.1837 -0.0533
 4494TIP3    H113446   4.201   5.371   0.778  1.0025  0.8189 -1.3809
 4494TIP3    H213447   4.348   5.409   0.774  1.8610 -2.0430  0.4726
 4495TIP3   OH213448   3.718   2.942   2.344  0.4907 -0.4287 -0.4934
 4495TIP3    H113449   3.776   2.922   2.270  0.9081 -0.2345 -0.2181
 4495TIP3    H213450   3.639   2.890   2.327  0.9671 -1.1418 -0.5742
 4496TIP3   OH213451   1.934   1.477   1.328  0.3624 -0.0562 -0.0455
 4496TIP3    H113452   2.025   1.506   1.329  0.8092 -1.3356 -1.0852
 4496TIP3    H213453   1.930   1.407   1.393 -0.1411  0.6885  0.7428
 4497TIP3   OH213454   2.969   0.438   3.957 -0.0357  0.8323  0.3089
 4497TIP3    H113455   3.056   0.431   3.997  0.0840  1.1537  0.1040
 4497TIP3    H213456   2.973   0.379   3.882 -0.0402  0.7430  0.3779
 4498TIP3   OH213457   0.819   0.387   3.563  0.4713 -0.1695  0.0958
 4498TIP3    H113458   0.854   0.455   3.620 -1.1276 -0.3872  1.3904
 4498TIP3    H213459   0.736   0.362   3.603 -0.2079 -1.0730 -1.7694
 4499TIP3   OH213460   3.605   5.492   0.935  0.3780 -0.1431  0.0880
 4499TIP3    H113461   3.540   5.422   0.925  0.5069 -0.4156  1.0530
 4499TIP3    H213462   3.630   5.514   0.846 -1.2976  0.2136 -0.3308
 4500TIP3   OH213463   2.410   0.315   0.946 -0.1359  0.6883  0.0641
 4500TIP3    H113464   2.492   0.351   0.981  0.0976 -0.3415  0.6327
 4500TIP3    H213465   2.410   0.339   0.854  0.3017  1.6020  0.2946
 4501TIP3   OH213466   0.028   6.262   1.021  0.2325 -0.0342 -0.9631
 4501TIP3    H113467  -0.014   6.318   0.955 -2.0756 -0.8335 -0.2903
 4501TIP3    H213468   0.089   6.320   1.067  0.6520  0.9463 -2.6848
 4502TIP3   OH213469   1.006   6.223   3.383 -0.5652  0.3604  0.1643
 4502TIP3    H113470   1.085   6.278   3.383 -0.8875  0.8772  1.7114
 4502TIP3    H213471   1.033   6.143   3.428 -0.7343  0.2388  0.0500
 4503TIP3   OH213472   0.635   2.018   1.803 -0.1244 -0.6043  0.2788
 4503TIP3    H113473   0.633   1.929   1.838  2.7243 -0.5834  0.6933
 4503TIP3    H213474   0.596   2.072   1.872 -1.1700 -1.3896  0.3347
 4504TIP3   OH213475   4.643   5.029   3.434 -0.2920  0.5603  0.6610
 4504TIP3    H113476   4.709   4.985   3.487  1.1191 -0.3456 -1.6776
 4504TIP3    H213477   4.690   5.103   3.394 -0.1402 -0.9375 -2.1902
 4505TIP3   OH213478   6.694   2.066   4.701 -0.2298  0.2991  0.4934
 4505TIP3    H113479   6.725   1.980   4.673  0.6939  0.5686  0.6342
 4505TIP3    H213480   6.640   2.097   4.628 -0.7145 -0.4700  0.5192
 4506TIP3   OH213481   3.286   5.120   4.054 -0.1440  0.6121 -0.5884
 4506TIP3    H113482   3.219   5.063   4.090  0.3875  0.5509  0.3384
 4506TIP3    H213483   3.263   5.129   3.961 -1.2954  0.4213 -0.3388
 4507TIP3   OH213484   0.549   0.361   5.418  0.0025 -0.4396 -0.3726
 4507TIP3    H113485   0.643   0.357   5.399  0.3291 -2.0914  1.2634
 4507TIP3    H213486   0.544   0.400   5.505 -0.7469 -1.2384 -0.0486
 4508TIP3   OH213487   6.321   0.120   4.473  0.1188  0.2534 -0.1290
 4508TIP3    H113488   6.374   0.196   4.451  1.3250 -0.7783 -0.9174
 4508TIP3    H213489   6.317   0.069   4.392 -0.2099 -0.7930  0.5208
 4509TIP3   OH213490   1.507   0.944   4.258  0.5729 -0.2229 -0.0471
 4509TIP3    H113491   1.515   1.037   4.235 -3.3518  0.4090  0.5480
 4509TIP3    H213492   1.533   0.897   4.179 -2.8914  1.6092 -2.5261
 4510TIP3   OH213493   1.666   6.741   5.275 -0.3149 -0.6401  0.4322
 4510TIP3    H113494   1.636   6.705   5.192  2.4274  2.7418 -2.3533
 4510TIP3    H213495   1.739   6.686   5.301  0.4529 -0.2788 -0.8699
 4511TIP3   OH213496   7.010   5.665   1.153  0.4429 -0.0968 -0.3949
 4511TIP3    H113497   7.030   5.672   1.060 -1.7949  0.0660 -0.9221
 4511TIP3    H213498   6.962   5.583   1.161  0.5409 -0.0693  0.6083
 4512TIP3   OH213499   5.405   2.254   4.583 -0.0122  0.0734  0.2830
 4512TIP3    H113500   5.381   2.295   4.667 -0.4221  1.0811 -0.3066
 4512TIP3    H213501   5.356   2.171   4.583 -0.2895  0.2270  0.8808
 4513TIP3   OH213502   5.840   5.120   2.944 -0.2084 -0.0271 -0.1684
 4513TIP3    H113503   5.916   5.072   2.978  1.5191  3.2117  0.9544
 4513TIP3    H213504   5.839   5.100   2.850  1.0584 -1.3740  0.0676
 4514TIP3   OH213505   6.309   1.478   1.993 -0.0730  0.4168 -0.8405
 4514TIP3    H113506   6.214   1.467   1.985 -0.0635 -1.4417  0.6289
 4514TIP3    H213507   6.345   1.395   1.961  0.8530  0.0603  0.9547
 4515TIP3   OH213508   6.128   4.933   1.743  0.2511 -0.0719 -0.0195
 4515TIP3    H113509   6.152   4.842   1.727  0.4738 -0.2323  1.1273
 4515TIP3    H213510   6.174   4.982   1.675  2.1196 -0.5955  0.8050
 4516TIP3   OH213511   2.208   5.104   3.095  0.1921  0.4447  0.1029
 4516TIP3    H113512   2.261   5.026   3.110  3.2515  2.4196  0.2516
 4516TIP3    H213513   2.237   5.167   3.161 -1.5119  2.0662 -0.5949
 4517TIP3   OH213514   6.627   1.061   2.159  0.1358  0.1418  0.0754
 4517TIP3    H113515   6.650   1.001   2.230  1.4400  1.8937  1.2511
 4517TIP3    H213516   6.592   1.138   2.204  0.2342  0.9841 -1.2328
 4518TIP3   OH213517   6.648   6.479   0.076 -0.3087 -0.1816  0.5772
 4518TIP3    H113518   6.625   6.533   0.152  0.7771  0.6037  0.3723
 4518TIP3    H213519   6.603   6.521   0.002 -0.5383 -0.3450  0.6229
 4519TIP3   OH213520   1.460   0.938   0.327 -0.6145  0.2765  0.0684
 4519TIP3    H113521   1.516   0.871   0.365 -0.8678 -0.4494 -0.7968
 4519TIP3    H213522   1.438   0.995   0.400 -0.2170 -0.4629  0.7845
 4520TIP3   OH213523   2.520   5.765   1.774 -0.2309  0.0887 -0.6625
 4520TIP3    H113524   2.524   5.682   1.726  3.2358  0.0852 -0.6446
 4520TIP3    H213525   2.479   5.826   1.712 -2.4172 -1.4357 -0.8428
 4521TIP3   OH213526   4.276   0.953   4.951 -0.3197  0.4756 -0.4066
 4521TIP3    H113527   4.256   0.997   4.868 -0.5067  2.3943  0.5791
 4521TIP3    H213528   4.261   1.021   5.017  0.0370 -0.9347  1.1837
 4522TIP3   OH213529   1.748   0.031   1.103 -0.1148 -0.2923  0.4893
 4522TIP3    H113530   1.662   0.049   1.142 -0.5526  0.5049 -0.7645
 4522TIP3    H213531   1.808   0.087   1.152 -1.3148  4.4347 -2.7161
 4523TIP3   OH213532   2.021   3.536   2.058 -0.5348 -0.3850  0.1711
 4523TIP3    H113533   2.091   3.515   1.995 -0.8430  2.5115 -1.2891
 4523TIP3    H213534   1.940   3.529   2.008 -1.1148 -1.3065  1.1947
 4524TIP3   OH213535   0.819   2.564   2.589  0.1089 -0.3696  0.4598
 4524TIP3    H113536   0.889   2.517   2.634  0.9088 -1.1826 -1.5166
 4524TIP3    H213537   0.796   2.509   2.514 -0.4988  1.3195 -0.6753
 4525TIP3   OH213538   1.545   1.188   4.590 -0.3727  0.6358  0.2300
 4525TIP3    H113539   1.496   1.269   4.577 -3.4084 -0.6925  2.1678
 4525TIP3    H213540   1.599   1.205   4.667 -0.0951  1.1616 -0.0757
 4526TIP3   OH213541   7.152   5.447   5.206  0.1922 -0.0258 -0.0023
 4526TIP3    H113542   7.189   5.507   5.270 -0.7076 -0.2759  0.7693
 4526TIP3    H213543   7.097   5.502   5.150 -1.9680 -0.3071  1.7130
 4527TIP3   OH213544   5.150   0.401   3.356 -0.0118  0.1000  0.4498
 4527TIP3    H113545   5.208   0.426   3.284  0.2075 -0.8236  0.2916
 4527TIP3    H213546   5.076   0.358   3.314 -2.1088  3.3972  0.4400
 4528TIP3   OH213547   5.347   6.543   2.836  0.1322 -0.3093  0.2616
 4528TIP3    H113548   5.251   6.546   2.828  0.0723  0.7004  1.0964
 4528TIP3    H213549   5.363   6.466   2.891 -0.1213 -1.0850 -0.7292
 4529TIP3   OH213550   3.554   1.022   2.266 -0.0748  0.8793 -0.2957
 4529TIP3    H113551   3.587   1.053   2.182  0.6231  2.4570  0.5163
 4529TIP3    H213552   3.483   1.083   2.288 -0.6186  0.1521  0.0172
 4530TIP3   OH213553   3.253   5.382   5.715  0.5928  0.3650 -0.0538
 4530TIP3    H113554   3.346   5.371   5.694  0.4987  1.1237 -0.9522
 4530TIP3    H213555   3.246   5.471   5.749  0.1571  0.4177 -0.2676
 4531TIP3   OH213556   3.958   6.659   4.236  0.5760  0.1361  0.1521
 4531TIP3    H113557   3.956   6.666   4.141  1.0853  0.8896  0.1807
 4531TIP3    H213558   3.874   6.619   4.259  0.8591 -0.9756 -0.6679
 4532TIP3   OH213559   3.219   3.886   5.668  0.0724  0.1099 -0.2055
 4532TIP3    H113560   3.130   3.909   5.693 -0.0303  0.5562 -0.9479
 4532TIP3    H213561   3.216   3.878   5.573  0.9054  0.5200 -0.2802
 4533TIP3   OH213562   0.065   6.243   2.378 -0.1457  0.1304  0.4840
 4533TIP3    H113563   0.158   6.266   2.376 -0.2600  0.5589 -0.5006
 4533TIP3    H213564   0.019   6.326   2.366 -0.7528  0.2610  3.0944
 4534TIP3   OH213565   1.511   1.101   3.569  0.1348  0.0135 -0.3487
 4534TIP3    H113566   1.597   1.061   3.556  0.6281  0.9524 -0.0303
 4534TIP3    H213567   1.497   1.096   3.663 -0.0063  0.1859 -0.3612
 4535TIP3   OH213568   6.590   1.000   0.524  0.1498 -0.9513  0.3789
 4535TIP3    H113569   6.582   0.990   0.619 -2.3385 -1.5215  0.1942
 4535TIP3    H213570   6.554   0.918   0.489  0.6232 -0.5662 -1.0592
 4536TIP3   OH213571   3.526   2.322   3.200  0.0265 -0.2772 -0.1758
 4536TIP3    H113572   3.579   2.401   3.196  1.2691 -1.0021  1.0850
 4536TIP3    H213573   3.436   2.354   3.204  0.5575  1.2467  2.6775
 4537TIP3   OH213574   4.408   1.887   4.004 -0.7288  0.6737 -0.0309
 4537TIP3    H113575   4.347   1.857   4.071 -0.9832  0.2065 -0.4646
 4537TIP3    H213576   4.491   1.846   4.028 -0.8048  0.5578  0.0387
 4538TIP3   OH213577   0.178   6.245   5.558  0.1427  0.4862  1.1240
 4538TIP3    H113578   0.141   6.306   5.622 -1.5509  1.0637 -0.3125
 4538TIP3    H213579   0.107   6.184   5.540 -0.2970  1.7359 -1.8777
 4539TIP3   OH213580   5.531   1.420   5.617  0.0491 -0.1833 -0.2903
 4539TIP3    H113581   5.542   1.335   5.574  0.1823 -1.0120  1.3204
 4539TIP3    H213582   5.469   1.403   5.688  0.6878  0.8977  0.5394
 4540TIP3   OH213583   2.291   6.280   0.937 -0.5447  0.3445  0.1540
 4540TIP3    H113584   2.300   6.338   1.013  0.5831  0.0083  0.2852
 4540TIP3    H213585   2.230   6.326   0.879 -0.7026  1.0313  0.8528
 4541TIP3   OH213586   7.101   1.310   5.110  0.2101  0.0423  0.2922
 4541TIP3    H113587   7.101   1.231   5.056  0.6542 -1.4966  2.4387
 4541TIP3    H213588   7.019   1.354   5.088  1.0163  0.2872 -2.6600
 4542TIP3   OH213589   6.153   0.754   3.995  0.5001  0.2523 -0.0557
 4542TIP3    H113590   6.060   0.760   4.015  0.5660  0.1373  0.2938
 4542TIP3    H213591   6.156   0.722   3.904  0.2049 -0.5732  0.2149
 4543TIP3   OH213592   2.956   0.193   1.305 -0.3719  0.0450  0.0038
 4543TIP3    H113593   3.006   0.126   1.259 -1.2826 -1.3826  1.0246
 4543TIP3    H213594   2.990   0.192   1.395  0.9928  2.3959 -0.3977
 4544TIP3   OH213595   4.277   0.643   3.073 -0.1132 -0.4610  0.3727
 4544TIP3    H113596   4.201   0.663   3.018  0.7509 -0.1052 -0.7078
 4544TIP3    H213597   4.339   0.713   3.056  0.9386 -1.3671  0.3458
 4545TIP3   OH213598   4.218   5.520   3.352 -0.2152 -0.6464  0.4132
 4545TIP3    H113599   4.206   5.576   3.275  0.1873 -1.8817 -0.5961
 4545TIP3    H213600   4.267   5.445   3.319  0.6570 -0.8489  2.0661
 4546TIP3   OH213601   7.213   6.160   1.624 -0.0263  0.0168  0.0495
 4546TIP3    H113602   7.167   6.089   1.669  2.3919 -0.0455  2.7503
 4546TIP3    H213603   7.212   6.136   1.532 -2.9955 -1.2467  0.3196
 4547TIP3   OH213604   5.109   4.886   0.335  0.1315 -0.3584 -0.0436
 4547TIP3    H113605   5.044   4.883   0.264  0.5130  2.1397 -0.6086
 4547TIP3    H213606   5.057   4.871   0.414 -0.9724  0.3590 -0.5862
 4548TIP3   OH213607   3.351   2.809   2.214  0.8632 -0.3979  0.4112
 4548TIP3    H113608   3.412   2.762   2.270  0.8563 -0.7211  0.1466
 4548TIP3    H213609   3.362   2.901   2.239  1.1397 -0.5001  0.6702
 4549TIP3   OH213610   5.780   3.286   5.023  0.5942  0.1739 -0.0730
 4549TIP3    H113611   5.790   3.306   4.930  1.7287  0.9424  0.1863
 4549TIP3    H213612   5.785   3.191   5.028 -2.0708 -0.0939 -1.0482
 4550TIP3   OH213613   3.567   1.176   3.870 -0.3314 -0.2621  0.5732
 4550TIP3    H113614   3.496   1.182   3.933 -1.3801 -1.7012 -0.4192
 4550TIP3    H213615   3.644   1.209   3.917 -1.5925  1.1980  1.7072
 4551TIP3   OH213616   4.163   0.526   2.608  0.4997 -0.1005  0.0819
 4551TIP3    H113617   4.205   0.584   2.670  0.9732 -0.2616 -0.0828
 4551TIP3    H213618   4.187   0.561   2.522  0.9763 -0.6665 -0.0202
 4552TIP3   OH213619   5.430   6.420   2.205 -0.0106 -0.5690  0.1393
 4552TIP3    H113620   5.484   6.416   2.284 -0.8053 -0.6220  0.6830
 4552TIP3    H213621   5.340   6.428   2.237 -0.1973  1.5580 -0.7498
 4553TIP3   OH213622   4.808   2.472   1.430 -0.8750 -0.2678  0.4184
 4553TIP3    H113623   4.804   2.445   1.339 -0.4985 -1.5333  0.7481
 4553TIP3    H213624   4.901   2.484   1.448 -0.5755 -3.1532  1.4234
 4554TIP3   OH213625   0.138   5.163   5.762  0.3342 -0.3138  0.0723
 4554TIP3    H113626   0.228   5.172   5.791  0.7490 -0.7652 -1.0308
 4554TIP3    H213627   0.097   5.246   5.786  1.2610  0.2322 -0.1945
 4555TIP3   OH213628   6.408   2.036   3.693  0.1225 -0.3693 -0.0039
 4555TIP3    H113629   6.423   1.945   3.668  0.9951 -0.7539  1.7220
 4555TIP3    H213630   6.333   2.031   3.753  0.7239 -0.1063  0.7926
 4556TIP3   OH213631  -0.015   2.046   5.662  0.3022  0.1952 -0.3612
 4556TIP3    H113632   0.051   2.008   5.720  0.6463  0.5304 -0.5314
 4556TIP3    H213633  -0.001   2.140   5.666  0.8332  0.1903 -1.5611
 4557TIP3   OH213634   1.277   2.225   2.722 -0.0176  0.3504  0.9292
 4557TIP3    H113635   1.303   2.282   2.795  1.4502  1.5806 -0.4774
 4557TIP3    H213636   1.323   2.261   2.646 -0.4881 -1.6540 -0.3773
 4558TIP3   OH213637   0.089   5.603   5.601  0.3412  0.1791  0.2882
 4558TIP3    H113638   0.095   5.604   5.505  0.8819  1.1697  0.3214
 4558TIP3    H213639  -0.004   5.618   5.619  0.0861 -0.8318 -0.0715
 4559TIP3   OH213640   0.714   2.600   0.377 -0.2180 -0.0321  0.1360
 4559TIP3    H113641   0.807   2.580   0.362 -0.2054 -0.3348  0.6016
 4559TIP3    H213642   0.703   2.688   0.340  0.2754  0.0470  0.1606
 4560TIP3   OH213643   2.173   6.783   1.946 -0.4519  0.5707 -0.2760
 4560TIP3    H113644   2.228   6.706   1.953 -0.2830  0.7472  0.3959
 4560TIP3    H213645   2.234   6.857   1.942 -0.5691  0.6172 -2.1105
 4561TIP3   OH213646   4.022   4.976   0.082  0.1296  0.5815 -0.0710
 4561TIP3    H113647   3.937   4.936   0.063 -0.1919  1.4234 -0.4286
 4561TIP3    H213648   4.080   4.943   0.013 -0.4268  1.6497 -1.0861
 4562TIP3   OH213649   2.693   5.608   3.307 -0.1570  0.0965 -0.2144
 4562TIP3    H113650   2.740   5.612   3.224 -0.8812  1.6636 -0.5782
 4562TIP3    H213651   2.619   5.667   3.296 -0.5263 -0.0131  1.3968
 4563TIP3   OH213652   6.361   6.584   5.068  0.6236  0.2181 -0.2569
 4563TIP3    H113653   6.270   6.558   5.054  0.7004 -1.2386  1.6459
 4563TIP3    H213654   6.403   6.507   5.105  2.3296  1.2806  0.1470
 4564TIP3   OH213655   7.121   6.567   4.187  0.0633 -0.4668 -0.1287
 4564TIP3    H113656   7.210   6.543   4.160  0.8574  1.7137  0.3284
 4564TIP3    H213657   7.097   6.501   4.252  1.2900 -1.1691 -0.3631
 4565TIP3   OH213658   3.353   5.264   1.619 -0.5165  0.2336 -0.3010
 4565TIP3    H113659   3.424   5.203   1.598 -1.2478 -2.0782  3.0769
 4565TIP3    H213660   3.397   5.349   1.629  0.9836 -0.1948 -2.4412
 4566TIP3   OH213661   5.068   5.506   3.211  0.3203  0.8888 -0.0346
 4566TIP3    H113662   5.132   5.563   3.253  0.8916  1.3224 -1.4369
 4566TIP3    H213663   5.109   5.419   3.212  1.2233  1.2738 -1.4493
 4567TIP3   OH213664   0.059   0.091   3.673 -0.0616 -0.4126  0.4352
 4567TIP3    H113665   0.044  -0.001   3.655 -1.4070 -0.7922  2.9408
 4567TIP3    H213666  -0.016   0.136   3.634  0.9732 -0.2410 -1.4330
 4568TIP3   OH213667   0.800   4.201   0.305 -0.3430 -0.2755 -0.3001
 4568TIP3    H113668   0.877   4.249   0.336 -0.5576  1.2535 -1.9853
 4568TIP3    H213669   0.726   4.259   0.325 -0.8485 -0.8963 -0.3578
 4569TIP3   OH213670   5.171   3.736   3.258 -0.6896 -0.8521  0.2666
 4569TIP3    H113671   5.204   3.691   3.180 -0.1968 -0.2738  0.1404
 4569TIP3    H213672   5.230   3.707   3.328 -1.9072 -2.4049  0.7157
 4570TIP3   OH213673   2.515   0.366   3.145  0.0211  0.2098 -0.2230
 4570TIP3    H113674   2.581   0.372   3.214  0.4700  0.3863 -0.6660
 4570TIP3    H213675   2.482   0.455   3.136 -1.3678 -0.1348  1.0403
 4571TIP3   OH213676   3.612   2.357  -0.026  0.1391 -0.1777 -0.4386
 4571TIP3    H113677   3.657   2.437   0.001 -0.6360 -0.1664  0.9320
 4571TIP3    H213678   3.632   2.294   0.043 -0.1466 -0.8407 -0.9471
 4572TIP3   OH213679   0.057   0.113   2.425  0.2125 -0.1935  0.1598
 4572TIP3    H113680   0.120   0.129   2.355  1.3900 -0.1833  1.1919
 4572TIP3    H213681   0.084   0.171   2.496 -0.1356 -1.1397  1.1017
 4573TIP3   OH213682   5.221   4.234   1.256  0.3882 -0.0227 -0.0269
 4573TIP3    H113683   5.304   4.227   1.304  0.3734  0.3886  0.0587
 4573TIP3    H213684   5.170   4.298   1.305  0.6227  0.8841 -0.9250
 4574TIP3   OH213685   1.251   0.300   3.285 -1.0224 -0.0415  0.0437
 4574TIP3    H113686   1.263   0.391   3.259  0.2805 -0.4539 -0.8830
 4574TIP3    H213687   1.270   0.299   3.379 -0.1396  0.4901 -0.1227
 4575TIP3   OH213688   6.838   4.065   2.924  0.3963 -0.1271 -0.1077
 4575TIP3    H113689   6.854   4.041   3.015 -1.0586  2.0521  0.7865
 4575TIP3    H213690   6.751   4.104   2.923 -0.1759 -1.2186 -2.7008
 4576TIP3   OH213691   3.849   3.469   1.970 -0.1291  0.3705  0.2916
 4576TIP3    H113692   3.781   3.406   1.993  0.4780  0.1866  1.7005
 4576TIP3    H213693   3.923   3.414   1.942 -0.6362  0.5765 -1.5895
 4577TIP3   OH213694   1.467   1.496   1.859  0.1352  0.0641  0.1269
 4577TIP3    H113695   1.412   1.433   1.813 -0.9519  0.3540  0.9922
 4577TIP3    H213696   1.557   1.473   1.833 -0.3503 -0.7276 -0.9186
 4578TIP3   OH213697   5.603   0.861   2.573 -0.3564 -0.9252  0.3549
 4578TIP3    H113698   5.640   0.930   2.518  0.8173 -2.6228 -1.1057
 4578TIP3    H213699   5.680   0.814   2.608 -1.0988 -0.7245  2.4137
 4579TIP3   OH213700   4.928   1.614   5.426  0.6105  0.4168  0.3939
 4579TIP3    H113701   5.005   1.564   5.397  0.3934 -0.1602  0.7964
 4579TIP3    H213702   4.877   1.628   5.346 -0.2865 -1.6808  0.5456
 4580TIP3   OH213703   1.391   2.929   1.728  0.1772  0.0233  0.2534
 4580TIP3    H113704   1.411   2.850   1.679  2.4904  0.6063  0.1672
 4580TIP3    H213705   1.302   2.953   1.700 -0.1545 -1.9420 -0.4831
 4581TIP3   OH213706   1.907   0.754   2.220  0.0669  0.0223  0.6831
 4581TIP3    H113707   1.929   0.795   2.136  2.5528 -1.2130  0.6190
 4581TIP3    H213708   1.817   0.725   2.210  0.1004  0.4662 -1.3273
 4582TIP3   OH213709   2.715   6.276   1.102  0.3152  0.2150  0.3102
 4582TIP3    H113710   2.774   6.202   1.085 -0.4576 -0.4957  0.6359
 4582TIP3    H213711   2.642   6.264   1.042 -0.0365  0.4631  0.6816
 4583TIP3   OH213712   6.066   4.724   0.156 -0.1318  0.1770 -0.8142
 4583TIP3    H113713   6.098   4.804   0.114  0.1049  1.2292  1.2552
 4583TIP3    H213714   6.140   4.662   0.149  0.8012  1.1397  0.0916
 4584TIP3   OH213715   1.210   2.708   4.314 -0.3369 -0.5775  0.1895
 4584TIP3    H113716   1.131   2.758   4.332  0.3593  0.4835  0.3932
 4584TIP3    H213717   1.282   2.763   4.347  0.4556 -1.7080  0.4124
 4585TIP3   OH213718   0.714   3.091   5.560  0.4441  0.3962 -0.4179
 4585TIP3    H113719   0.714   3.081   5.656  1.1614 -0.5485 -0.5042
 4585TIP3    H213720   0.784   3.032   5.530 -1.2848 -1.1115 -1.6991
 4586TIP3   OH213721   1.944   4.776   0.838  0.0244 -0.4888  0.4625
 4586TIP3    H113722   1.940   4.804   0.930 -0.6684 -1.4343  0.7282
 4586TIP3    H213723   1.925   4.856   0.789  0.4693  0.0465  1.1235
 4587TIP3   OH213724   6.635   3.646   4.275 -0.4076  0.4279 -0.1104
 4587TIP3    H113725   6.677   3.566   4.306  0.9959  0.8707 -0.7936
 4587TIP3    H213726   6.640   3.706   4.349  2.3267  1.2566 -0.8826
 4588TIP3   OH213727   0.959   5.974   0.654  0.0533 -0.5231  0.6879
 4588TIP3    H113728   1.035   5.949   0.602  0.6069  1.1012  0.6621
 4588TIP3    H213729   0.903   6.023   0.593  0.0122  0.1308  1.2381
 4589TIP3   OH213730   4.647   2.514   0.279  0.0275  0.7538  0.6929
 4589TIP3    H113731   4.631   2.518   0.373  2.0389  0.4821  1.0788
 4589TIP3    H213732   4.707   2.586   0.262 -1.0430  1.3977 -0.5845
 4590TIP3   OH213733   4.308   6.525   4.964 -0.2176 -0.0716  0.0327
 4590TIP3    H113734   4.290   6.471   4.887  0.7174  0.7456 -0.7835
 4590TIP3    H213735   4.221   6.549   4.997 -0.6701 -2.0869  0.4679
 4591TIP3   OH213736   1.177   3.894   0.746 -0.0707 -0.7309 -0.3272
 4591TIP3    H113737   1.237   3.943   0.688 -0.8059  0.4141 -0.1554
 4591TIP3    H213738   1.231   3.871   0.822  0.3057 -0.2189 -0.4342
 4592TIP3   OH213739   2.858   6.260   0.376 -0.0134  0.3405 -0.3518
 4592TIP3    H113740   2.772   6.219   0.367  0.4063 -0.3942 -1.1853
 4592TIP3    H213741   2.853   6.339   0.322  0.1590 -0.2450 -1.2386
 4593TIP3   OH213742   0.942   2.989   3.821 -0.0930  0.0584 -0.1925
 4593TIP3    H113743   0.882   3.052   3.861 -1.5566 -0.9799 -0.7026
 4593TIP3    H213744   0.894   2.906   3.821  2.0658 -1.3073  1.1985
 4594TIP3   OH213745   6.036   0.134   1.671 -0.8664 -0.1060  0.3121
 4594TIP3    H113746   6.016   0.224   1.699  0.1078 -0.0823  0.9658
 4594TIP3    H213747   5.974   0.080   1.719 -1.0567  0.1705  0.3818
 4595TIP3   OH213748   2.056   1.401   1.878 -0.0246  0.2957 -0.4962
 4595TIP3    H113749   2.049   1.461   1.953 -0.3673  1.1128 -1.1611
 4595TIP3    H213750   2.111   1.329   1.910 -0.4916  0.4311  0.6566
 4596TIP3   OH213751   0.880   2.674   4.258  0.3719 -0.1249  0.4845
 4596TIP3    H113752   0.795   2.696   4.220 -0.1947  2.4521  2.8971
 4596TIP3    H213753   0.866   2.677   4.353  3.4481  2.2528  1.0496
 4597TIP3   OH213754   4.829   0.215   4.700  0.4885  0.0559 -0.3420
 4597TIP3    H113755   4.824   0.269   4.779  0.8923 -0.3303 -0.0515
 4597TIP3    H213756   4.918   0.225   4.669  1.0891 -1.7036  0.6328
 4598TIP3   OH213757   1.771   3.525   2.422 -0.3585  0.6574  0.3222
 4598TIP3    H113758   1.771   3.431   2.404 -1.1282  0.2768  2.1410
 4598TIP3    H213759   1.741   3.564   2.340  0.2963 -0.6323 -0.5769
 4599TIP3   OH213760   4.586   6.365   2.483  0.2422  0.1073 -0.2185
 4599TIP3    H113761   4.511   6.361   2.423  0.1245  1.4975 -0.2001
 4599TIP3    H213762   4.576   6.449   2.528  1.9475  0.4510 -0.4150
 4600TIP3   OH213763   2.023   1.013   0.501  0.9032 -0.2740  0.1944
 4600TIP3    H113764   2.016   1.011   0.405  1.6385 -1.5269  0.1486
 4600TIP3    H213765   2.061   0.929   0.524  0.3499 -0.1611  1.6363
 4601TIP3   OH213766   0.454   2.263   5.203 -0.5354  0.1374  0.8777
 4601TIP3    H113767   0.428   2.171   5.209  0.4965 -0.1542  1.2108
 4601TIP3    H213768   0.375   2.312   5.225 -1.4098 -0.6281 -0.4089
 4602TIP3   OH213769   1.275   2.715   0.334 -0.4910  0.9602 -0.3006
 4602TIP3    H113770   1.200   2.656   0.329 -0.2166  0.6699 -1.2639
 4602TIP3    H213771   1.346   2.662   0.368 -0.3455  0.8236 -0.8009
 4603TIP3   OH213772   5.599   0.641   0.316  0.6448 -0.2890  0.1222
 4603TIP3    H113773   5.653   0.603   0.385  1.1475  0.2829  0.0491
 4603TIP3    H213774   5.588   0.732   0.342 -1.9381 -0.8103  1.1816
 4604TIP3   OH213775   3.528   2.159   5.626 -0.0727 -0.6837 -0.1853
 4604TIP3    H113776   3.464   2.089   5.628 -1.8494  0.7743 -1.9111
 4604TIP3    H213777   3.582   2.141   5.549 -0.9747  0.1520 -1.0408
 4605TIP3   OH213778   7.199   5.923   5.282  0.0451  0.1878 -0.0836
 4605TIP3    H113779   7.127   5.986   5.273  0.1570  0.4482  0.7793
 4605TIP3    H213780   7.270   5.961   5.230 -0.3551  0.0412 -0.7568
 4606TIP3   OH213781   3.792   1.401   4.986  1.1237  0.0477 -0.0455
 4606TIP3    H113782   3.856   1.335   4.956  0.6923 -0.5156  0.2460
 4606TIP3    H213783   3.714   1.383   4.933  1.6379  1.6605 -1.4408
 4607TIP3   OH213784   3.533   5.228   5.823  0.3903 -0.1100 -0.0902
 4607TIP3    H113785   3.528   5.135   5.800  1.7767  0.1940 -1.8725
 4607TIP3    H213786   3.615   5.236   5.873 -0.4573 -0.0519  1.3311
 4608TIP3   OH213787   4.298   3.448   4.464 -0.7773  0.3929 -0.5095
 4608TIP3    H113788   4.274   3.524   4.411 -0.8238  0.6232 -0.1648
 4608TIP3    H213789   4.216   3.417   4.501 -0.5685  1.2034  0.6971
 4609TIP3   OH213790   1.626   0.450   3.381  0.0701 -0.0159 -0.1480
 4609TIP3    H113791   1.715   0.421   3.400 -0.7500 -2.2028  0.5814
 4609TIP3    H213792   1.624   0.461   3.286  0.7440 -1.3234 -0.3328
 4610TIP3   OH213793   1.095   1.618   1.886 -0.6121  0.8414 -0.1463
 4610TIP3    H113794   1.013   1.637   1.930  0.2519  0.0393  1.9037
 4610TIP3    H213795   1.163   1.638   1.951  0.8534  1.6589 -1.8326
 4611TIP3   OH213796   6.469   4.617   4.118  0.8364 -0.2200  0.0514
 4611TIP3    H113797   6.416   4.582   4.046 -0.6225  1.6313  0.1453
 4611TIP3    H213798   6.405   4.639   4.185  1.5267  3.1695 -0.2517
 4612TIP3   OH213799   6.720   5.940   4.260  0.1768  0.9987 -0.0159
 4612TIP3    H113800   6.735   5.995   4.336  1.2278 -0.4056  0.8328
 4612TIP3    H213801   6.796   5.882   4.256 -1.4448 -1.2623 -0.0755
 4613TIP3   OH213802   5.705   2.874   0.044 -0.1222  0.5532 -0.4567
 4613TIP3    H113803   5.688   2.923  -0.036  1.7855  2.9089  0.4651
 4613TIP3    H213804   5.800   2.874   0.054 -0.2006 -1.2218  0.9282
 4614TIP3   OH213805   0.049   5.270   1.710 -0.5293  0.0238 -0.2715
 4614TIP3    H113806   0.061   5.212   1.635 -0.2177 -0.5138  0.1809
 4614TIP3    H213807  -0.000   5.345   1.676 -0.5387 -0.2948 -0.9669
 4615TIP3   OH213808   4.347   5.739   0.762  0.4914  0.0160 -0.3467
 4615TIP3    H113809   4.261   5.781   0.763 -0.3221 -1.4150  2.1695
 4615TIP3    H213810   4.343   5.678   0.689 -0.9328 -0.4785  0.1000
 4616TIP3   OH213811   3.732   4.301   3.967 -0.0106  0.1760 -0.5783
 4616TIP3    H113812   3.732   4.256   4.051  1.5516  0.1334 -0.5727
 4616TIP3    H213813   3.662   4.259   3.917  0.6674 -1.5165 -0.1727
 4617TIP3   OH213814   1.805   0.689   2.597 -0.6386 -0.3266  0.1007
 4617TIP3    H113815   1.736   0.656   2.540  0.4980  0.1701 -1.6294
 4617TIP3    H213816   1.766   0.764   2.641 -1.9361 -1.4781  0.9917
 4618TIP3   OH213817   6.116   0.805   1.673 -0.1120 -0.1654  0.5237
 4618TIP3    H113818   6.136   0.886   1.627 -1.1855 -0.3319 -0.2797
 4618TIP3    H213819   6.140   0.735   1.612  1.3882 -0.5128  1.4420
 4619TIP3   OH213820   0.126   0.571   3.143  0.3167 -0.1883 -0.2892
 4619TIP3    H113821   0.215   0.586   3.173  0.5014  0.9652 -1.3169
 4619TIP3    H213822   0.111   0.477   3.158  0.9046  0.0131  1.8812
 4620TIP3   OH213823   6.189   6.565   3.451  0.6178  0.0517 -0.4219
 4620TIP3    H113824   6.111   6.602   3.494  0.2488  0.7906 -1.6881
 4620TIP3    H213825   6.195   6.476   3.487 -0.6650  0.0641 -0.1152
 4621TIP3   OH213826   6.250   0.028   1.329 -0.1178  0.0796 -0.0582
 4621TIP3    H113827   6.170   0.048   1.377  0.4764  2.9318 -0.0726
 4621TIP3    H213828   6.316   0.014   1.397  0.4131  2.7338  0.0625
 4622TIP3   OH213829   4.040   6.675   1.999 -0.2774  0.0160 -0.1181
 4622TIP3    H113830   4.124   6.646   2.034 -0.4015 -0.3824 -0.1470
 4622TIP3    H213831   4.056   6.764   1.969 -0.5713  1.0267  2.4619
 4623TIP3   OH213832   2.963   0.584   4.746  0.2087  0.2106  0.5311
 4623TIP3    H113833   3.028   0.556   4.810  0.7843  0.3751  0.0242
 4623TIP3    H213834   2.969   0.519   4.675 -1.1883 -0.6148  1.1149
 4624TIP3   OH213835   6.002   5.982   4.469 -0.0675  0.0761 -0.0521
 4624TIP3    H113836   6.094   5.964   4.487  0.2683  2.4737  1.0416
 4624TIP3    H213837   5.963   5.997   4.555 -0.7854  1.8794 -0.6497
 4625TIP3   OH213838   7.005   1.754   0.947  0.2459 -0.4464 -0.4977
 4625TIP3    H113839   7.065   1.767   1.021 -0.2344 -0.6030 -0.0726
 4625TIP3    H213840   6.953   1.677   0.972 -0.4109 -0.0634 -0.6740
 4626TIP3   OH213841   3.325   5.157   3.418 -0.0024  0.2368  0.2959
 4626TIP3    H113842   3.380   5.213   3.473 -0.3009  0.2121  0.6280
 4626TIP3    H213843   3.358   5.068   3.434  0.1549  0.2707  0.1489
 4627TIP3   OH213844   6.011   6.455   1.899 -0.2621 -0.1545 -0.3766
 4627TIP3    H113845   5.966   6.384   1.945 -0.3596 -0.4361 -0.9018
 4627TIP3    H213846   6.067   6.411   1.835  1.5514  0.1592  0.9533
 4628TIP3   OH213847   2.578   5.892   5.722 -0.1400  0.5687  0.4488
 4628TIP3    H113848   2.565   5.968   5.665 -0.7067  0.2354  0.1333
 4628TIP3    H213849   2.501   5.837   5.708  0.8595 -0.6940 -0.2995
 4629TIP3   OH213850   3.008   0.728   5.409  0.3060 -0.1264 -0.2294
 4629TIP3    H113851   3.050   0.770   5.485 -0.5354  1.4935 -0.6169
 4629TIP3    H213852   2.919   0.709   5.439  0.4216 -0.8392 -0.3429
 4630TIP3   OH213853   3.850   5.934   4.286  0.3130  0.0846  0.8121
 4630TIP3    H113854   3.779   5.876   4.313 -0.1648 -0.1751 -0.8531
 4630TIP3    H213855   3.806   6.017   4.264  0.2479 -0.4762 -1.5076
 4631TIP3   OH213856   6.620   6.507   1.164 -0.4506  0.5583  0.5619
 4631TIP3    H113857   6.548   6.567   1.143  0.0199  0.5184 -1.3157
 4631TIP3    H213858   6.697   6.546   1.123  0.6444  0.5835  2.5212
 4632TIP3   OH213859   1.084   1.097   1.402  0.4788 -0.5985 -0.0331
 4632TIP3    H113860   1.019   1.064   1.340  1.2785 -0.0507 -1.1960
 4632TIP3    H213861   1.047   1.077   1.488 -0.9433 -0.8427 -0.6659
 4633TIP3   OH213862   6.039   6.200   1.256  0.1497  0.0822 -0.0162
 4633TIP3    H113863   6.037   6.206   1.161  0.0655  2.2147  0.0591
 4633TIP3    H213864   6.132   6.203   1.279  0.1398  0.4618 -0.0146
 4634TIP3   OH213865   0.382   2.906   4.077 -0.1134 -0.1614  0.0990
 4634TIP3    H113866   0.379   2.811   4.083 -0.9555 -0.1528  0.0154
 4634TIP3    H213867   0.345   2.936   4.160 -0.1309  0.0847  0.0026
 4635TIP3   OH213868   5.570   2.884   2.152 -0.3881 -0.3556  0.3080
 4635TIP3    H113869   5.566   2.979   2.144 -2.0967 -0.4265  0.1147
 4635TIP3    H213870   5.660   2.862   2.128 -0.1447  1.1476 -0.2395
 4636TIP3   OH213871   5.990   3.275   5.195  0.4889 -0.1810  0.1554
 4636TIP3    H113872   5.914   3.277   5.136 -0.2030 -1.3986  0.9443
 4636TIP3    H213873   5.953   3.290   5.282  1.3686  0.6595  0.4014
 4637TIP3   OH213874   5.247   2.596   0.301  0.3465  0.0168 -0.4642
 4637TIP3    H113875   5.222   2.613   0.210  2.1272  0.1690 -0.9576
 4637TIP3    H213876   5.274   2.504   0.302  2.3086  0.5612 -0.5948
 4638TIP3   OH213877   5.370   3.932   1.514  0.3489  0.2298  0.1432
 4638TIP3    H113878   5.280   3.902   1.506  0.0203  0.8864  1.1890
 4638TIP3    H213879   5.401   3.895   1.597  0.9225  0.2997 -0.0343
 4639TIP3   OH213880   5.586   0.281   2.515 -0.5699  0.0906 -0.3826
 4639TIP3    H113881   5.545   0.323   2.439 -0.1159 -0.4569 -0.9295
 4639TIP3    H213882   5.670   0.326   2.525 -0.7141  0.2980 -0.0759
 4640TIP3   OH213883   0.224   1.770   2.308 -0.1307 -0.1871  0.7042
 4640TIP3    H113884   0.156   1.806   2.252 -0.2293  0.2751  1.1154
 4640TIP3    H213885   0.242   1.839   2.372  0.8142 -0.2492  0.5237
 4641TIP3   OH213886   4.240   5.759   2.160  0.0580  0.8080 -0.4119
 4641TIP3    H113887   4.234   5.720   2.247 -1.2746  1.9768  0.0488
 4641TIP3    H213888   4.161   5.730   2.115 -0.0823  1.5467 -0.6557
 4642TIP3   OH213889   1.611   4.104   4.115  0.5045  0.2484  0.0884
 4642TIP3    H113890   1.543   4.068   4.059  0.0886 -0.2713  0.9234
 4642TIP3    H213891   1.652   4.028   4.156  0.8418  0.6203  0.4531
 4643TIP3   OH213892   1.643   3.734   1.534 -0.5779  0.0100  0.2346
 4643TIP3    H113893   1.716   3.794   1.552 -1.3575  0.6277  1.5019
 4643TIP3    H213894   1.678   3.647   1.554 -0.5884  0.4347  2.3148
 4644TIP3   OH213895   5.910   6.248   0.233 -0.2671 -0.2649 -0.1109
 4644TIP3    H113896   5.837   6.209   0.280 -0.4126  1.8800  1.5839
 4644TIP3    H213897   5.963   6.291   0.300  2.8681 -2.0611 -1.1889
 4645TIP3   OH213898   3.745   3.642   4.538  0.5075 -0.3767  0.1698
 4645TIP3    H113899   3.811   3.680   4.480  0.0614 -2.7116 -2.0813
 4645TIP3    H213900   3.662   3.662   4.496 -0.0905  0.4925  1.6977
 4646TIP3   OH213901   1.292   2.207   0.560  0.2649 -0.2016  0.5262
 4646TIP3    H113902   1.359   2.251   0.507  1.6561 -1.7065  0.9601
 4646TIP3    H213903   1.342   2.162   0.628 -1.2512 -0.8824  1.2164
 4647TIP3   OH213904   0.050   3.414   4.363  0.4575  0.3162  0.3058
 4647TIP3    H113905   0.100   3.350   4.313  0.0113  0.1991 -0.0016
 4647TIP3    H213906  -0.012   3.362   4.414  0.4410  0.4738  0.4478
 4648TIP3   OH213907   3.956   3.013   4.376 -0.1803  0.4005 -0.1822
 4648TIP3    H113908   3.970   2.922   4.350  0.5423  0.5418 -0.2947
 4648TIP3    H213909   3.933   3.008   4.469 -0.6080  0.0702 -0.3037
 4649TIP3   OH213910   7.190   4.662   4.685 -0.2406  0.1067  0.1462
 4649TIP3    H113911   7.259   4.671   4.619 -0.5051 -1.3979 -0.3735
 4649TIP3    H213912   7.117   4.714   4.651  0.5086  1.4334  0.5346
 4650TIP3   OH213913   2.326   4.930   3.903  0.9053 -0.2074  0.2348
 4650TIP3    H113914   2.238   4.968   3.902  1.2286  0.5819  0.4663
 4650TIP3    H213915   2.373   4.977   3.834  1.1923 -0.5058  0.2266
 4651TIP3   OH213916   0.331   5.653   5.354  0.0199 -0.0481  1.0650
 4651TIP3    H113917   0.380   5.593   5.409  1.1556  0.7761  0.9947
 4651TIP3    H213918   0.394   5.722   5.332 -0.1404 -0.7182 -1.9096
 4652TIP3   OH213919   1.752   2.681   3.572  0.8209 -0.0122  0.2384
 4652TIP3    H113920   1.814   2.652   3.639  0.2440 -0.1200  0.7305
 4652TIP3    H213921   1.679   2.618   3.578 -0.7617  1.8443  1.7538
 4653TIP3   OH213922   2.811   0.539   3.341  0.4179  0.1403  0.4559
 4653TIP3    H113923   2.832   0.450   3.372 -1.2062 -0.3897  0.1382
 4653TIP3    H213924   2.858   0.597   3.401  0.4963 -0.9262  1.4547
 4654TIP3   OH213925   2.755   5.446   3.985 -0.2628 -0.1975  0.0204
 4654TIP3    H113926   2.669   5.481   4.007 -0.0913 -0.6336  1.5238
 4654TIP3    H213927   2.788   5.410   4.068  2.2647  1.8366  0.0215
 4655TIP3   OH213928   2.376   4.416   0.775  0.3273 -0.2495  0.2142
 4655TIP3    H113929   2.415   4.481   0.716  0.4654 -1.1922 -0.7566
 4655TIP3    H213930   2.421   4.430   0.859  3.0193 -1.4969 -0.9223
 4656TIP3   OH213931   6.790   0.003   3.693 -0.7066 -0.1497 -0.1514
 4656TIP3    H113932   6.719  -0.001   3.629 -2.3885  0.6135  1.5625
 4656TIP3    H213933   6.858   0.054   3.649 -1.5196 -0.2028 -1.5508
 4657TIP3   OH213934   3.449   2.588   4.044  0.0357 -0.1508  0.4010
 4657TIP3    H113935   3.367   2.631   4.070 -0.0488 -0.2299  0.2665
 4657TIP3    H213936   3.442   2.579   3.949  0.3854  0.2260  0.3353
 4658TIP3   OH213937   2.109   4.379   0.714 -1.0750  0.2386 -0.1656
 4658TIP3    H113938   2.195   4.416   0.735 -0.9205  0.4550 -1.1231
 4658TIP3    H213939   2.091   4.317   0.785  0.7406 -1.2593 -0.9198
 4659TIP3   OH213940   5.281   3.731   0.692  0.3012 -0.5119 -0.2913
 4659TIP3    H113941   5.201   3.763   0.733  0.6967 -0.4701  0.4492
 4659TIP3    H213942   5.268   3.636   0.685  0.3845 -0.5627  0.2568
 4660TIP3   OH213943   7.169   6.165   0.104 -0.1026  0.1816  0.1425
 4660TIP3    H113944   7.105   6.231   0.081 -1.2211 -1.1851 -0.8233
 4660TIP3    H213945   7.215   6.146   0.022 -1.7509 -2.2314 -0.3407
 4661TIP3   OH213946   2.633   1.164   1.604  0.1693 -0.3153  0.4794
 4661TIP3    H113947   2.561   1.218   1.636  0.5764  1.7612 -1.8220
 4661TIP3    H213948   2.592   1.099   1.547  0.0210  0.5938 -0.4850
 4662TIP3   OH213949   2.751   1.018   4.909  0.4740 -0.5622 -0.3937
 4662TIP3    H113950   2.670   1.068   4.897  0.3733 -0.5768  0.1926
 4662TIP3    H213951   2.793   1.020   4.823  1.4282  2.1881  0.0218
 4663TIP3   OH213952   1.685   0.024   4.918 -0.0112  0.4454  0.2267
 4663TIP3    H113953   1.687   0.068   5.003  1.3056 -0.0181  0.4609
 4663TIP3    H213954   1.642  -0.060   4.935  0.3547  0.3051  0.4620
 4664TIP3   OH213955   0.209   1.926   1.954  0.5562  0.0844 -0.1444
 4664TIP3    H113956   0.157   1.965   1.883 -0.7514 -0.4351  0.4848
 4664TIP3    H213957   0.149   1.923   2.029 -0.1444 -4.5422 -0.5500
 4665TIP3   OH213958   3.272   5.956   5.793 -0.1286  0.1305 -0.0529
 4665TIP3    H113959   3.207   6.026   5.797 -0.5633 -0.2402 -0.4608
 4665TIP3    H213960   3.346   5.994   5.748 -0.6330  0.1300 -0.8989
 4666TIP3   OH213961   3.379   3.479   4.060  0.0399 -0.4029  0.6237
 4666TIP3    H113962   3.447   3.458   3.996 -0.9653 -0.1583 -0.5632
 4666TIP3    H213963   3.389   3.412   4.128  0.9056 -0.8944  0.0355
 4667TIP3   OH213964   3.128   2.199   4.663 -1.0014 -0.2181  0.0096
 4667TIP3    H113965   3.165   2.133   4.721  2.9117  0.9861 -0.8392
 4667TIP3    H213966   3.102   2.150   4.584  1.7069 -0.9065 -0.5547
 4668TIP3   OH213967   4.459   5.517   5.892 -0.2879 -0.1541 -0.4169
 4668TIP3    H113968   4.459   5.613   5.887 -1.3423 -0.1361 -0.4230
 4668TIP3    H213969   4.460   5.489   5.800  2.3822 -0.2167 -0.4380
 4669TIP3   OH213970   5.234   0.161   2.670  0.2862 -0.7842 -0.3808
 4669TIP3    H113971   5.168   0.094   2.686  1.9682 -2.1316  1.3673
 4669TIP3    H213972   5.242   0.207   2.754 -0.0281  0.9073 -1.2325
 4670TIP3   OH213973   1.715   4.852   2.083 -0.1459  0.2037  0.2885
 4670TIP3    H113974   1.759   4.917   2.029  1.3698 -1.2482 -0.3012
 4670TIP3    H213975   1.695   4.898   2.164  1.2643  1.2927  0.0540
 4671TIP3   OH213976   2.746   4.791   1.505  0.1965  0.0092 -0.2977
 4671TIP3    H113977   2.823   4.772   1.452  0.6398  1.5084 -0.2320
 4671TIP3    H213978   2.757   4.737   1.583  0.2079 -1.2085 -1.1096
 4672TIP3   OH213979   0.105   0.737   2.885  0.0274  0.8139  0.6012
 4672TIP3    H113980   0.026   0.751   2.832  0.9043  0.4241 -0.8930
 4672TIP3    H213981   0.074   0.692   2.963 -0.9466 -1.9042 -1.1823
 4673TIP3   OH213982   1.557   2.913   4.497  0.3907  0.2805 -0.4884
 4673TIP3    H113983   1.509   2.931   4.578  0.3810 -1.5100 -0.0568
 4673TIP3    H213984   1.627   2.979   4.496 -0.1911  0.9449  0.4676
 4674TIP3   OH213985   5.401   0.169   4.631  0.3213 -0.2601  0.2880
 4674TIP3    H113986   5.314   0.187   4.665 -0.6694 -3.0109 -0.4602
 4674TIP3    H213987   5.411   0.229   4.557 -0.6483  0.5635  0.8098
 4675TIP3   OH213988   5.630   5.640   4.188 -0.6334  0.3797 -0.5648
 4675TIP3    H113989   5.561   5.690   4.231 -0.7831  1.2396 -1.7565
 4675TIP3    H213990   5.630   5.555   4.232 -3.0427  0.0321 -1.0977
 4676TIP3   OH213991   0.144   0.336   5.421 -0.0404 -0.2020  0.0997
 4676TIP3    H113992   0.229   0.314   5.383  0.8862 -2.6203  3.1881
 4676TIP3    H213993   0.082   0.276   5.379  0.0680  0.3110 -0.8207
 4677TIP3   OH213994   5.349   4.786   2.012 -0.0729 -0.2263 -0.1706
 4677TIP3    H113995   5.377   4.708   2.060  0.0426 -0.9934 -1.4407
 4677TIP3    H213996   5.266   4.811   2.053 -0.4873 -1.4701 -0.2189
 4678TIP3   OH213997   6.990   1.158   2.713  0.1117 -0.7687 -0.6443
 4678TIP3    H113998   6.957   1.119   2.795  1.8622  0.9897  1.0051
 4678TIP3    H213999   7.027   1.084   2.665 -1.1581 -1.8871  0.0120
 4679TIP3   OH214000   4.246   1.228   1.207  0.7582 -0.3368  0.4849
 4679TIP3    H114001   4.188   1.246   1.133  1.4995  0.0659 -0.0085
 4679TIP3    H214002   4.210   1.279   1.279 -0.7225 -1.7171  0.7829
 4680TIP3   OH214003   7.187   6.782   0.234  0.1308 -0.0645  0.1847
 4680TIP3    H114004   7.236   6.705   0.204  1.6990  0.2487  1.7793
 4680TIP3    H214005   7.220   6.799   0.322 -1.0302  1.7432  0.3255
 4681TIP3   OH214006   0.711   4.319   1.671  0.6801 -0.3368  0.6896
 4681TIP3    H114007   0.761   4.365   1.603 -0.9941  1.4771  0.5836
 4681TIP3    H214008   0.629   4.295   1.628 -0.3996  0.8251  1.9826
 4682TIP3   OH214009   4.701   6.382   3.802  0.6513  0.3330  0.6806
 4682TIP3    H114010   4.681   6.311   3.741 -0.9489  0.2572  1.2384
 4682TIP3    H214011   4.624   6.439   3.798  1.0988  1.0297  1.6326
 4683TIP3   OH214012   0.695   1.807   3.881  0.0357  0.0167 -0.0728
 4683TIP3    H114013   0.785   1.838   3.870 -0.3406  1.4331  0.6666
 4683TIP3    H214014   0.689   1.785   3.974 -0.5612  0.5302  0.0136
 4684TIP3   OH214015   0.475   3.407   2.935 -0.3081 -0.3523  0.4088
 4684TIP3    H114016   0.432   3.330   2.900 -1.1264  0.2287  0.0920
 4684TIP3    H214017   0.427   3.427   3.016  0.1795 -0.4231  0.7228
 4685TIP3   OH214018   7.154   2.390   2.944 -0.7819 -0.5684 -0.1990
 4685TIP3    H114019   7.146   2.295   2.938 -2.6769 -0.3696 -1.6202
 4685TIP3    H214020   7.244   2.404   2.974 -0.6663 -2.8070  0.6961
 4686TIP3   OH214021   5.262   2.041   4.661  0.4774  0.1010  0.2800
 4686TIP3    H114022   5.348   1.999   4.655 -0.4853 -2.5510  2.4944
 4686TIP3    H214023   5.200   1.969   4.648 -1.3830  1.4408  1.2346
 4687TIP3   OH214024   3.457   3.435   1.040  0.2234  0.7285  0.3633
 4687TIP3    H114025   3.403   3.417   0.963  2.0079  0.2551 -0.8114
 4687TIP3    H214026   3.393   3.443   1.112 -1.3228 -1.0078 -0.7368
 4688TIP3   OH214027   0.867   2.693   3.839  0.2965  0.4489  0.2680
 4688TIP3    H114028   0.908   2.665   3.921 -0.2211  0.2030  0.4527
 4688TIP3    H214029   0.884   2.621   3.778  1.6280  1.1132 -0.1767
 4689TIP3   OH214030   3.579   2.601   2.863  0.0943  0.1235  0.2755
 4689TIP3    H114031   3.537   2.515   2.871 -0.6059  0.5702  1.6827
 4689TIP3    H214032   3.673   2.582   2.864 -0.0419 -0.7258 -0.8551
 4690TIP3   OH214033   2.357   3.423   4.498 -0.3041  0.0833 -0.3261
 4690TIP3    H114034   2.403   3.429   4.414  0.4877 -0.7600  0.0194
 4690TIP3    H214035   2.274   3.380   4.477 -0.3969  0.4840 -0.7800
 4691TIP3   OH214036   4.388   2.756   5.584  0.4247  0.5282 -0.6185
 4691TIP3    H114037   4.430   2.841   5.587  0.0849  0.7400 -1.5733
 4691TIP3    H214038   4.321   2.764   5.516 -0.2378 -0.2159 -0.0850
 4692TIP3   OH214039   4.010   0.265   5.037 -0.1661 -0.4066 -0.1425
 4692TIP3    H114040   3.955   0.339   5.063  0.8459  0.2807  0.0974
 4692TIP3    H214041   3.956   0.188   5.055 -0.7717  0.2095  0.8101
 4693TIP3   OH214042   1.205   0.461   4.223 -0.1627  0.7103 -0.6462
 4693TIP3    H114043   1.198   0.378   4.177 -0.9903  1.6996 -2.4080
 4693TIP3    H214044   1.117   0.478   4.256  0.3141  0.2436  0.9665
 4694TIP3   OH214045   7.083   3.366   2.411  0.1279  0.0398 -0.0794
 4694TIP3    H114046   7.025   3.412   2.471  1.2636  0.5792  0.6391
 4694TIP3    H214047   7.113   3.289   2.460  0.3099 -0.0358 -0.3068
 4695TIP3   OH214048   2.087   1.072   4.343  0.1882 -0.2060  0.5925
 4695TIP3    H114049   2.146   1.029   4.281 -0.3156  0.1848 -0.1931
 4695TIP3    H214050   2.142   1.135   4.390  0.5240 -0.2910  0.3142
 4696TIP3   OH214051   6.129   5.789   3.845 -0.0269  0.5642  0.5435
 4696TIP3    H114052   6.198   5.732   3.812  0.1937  0.1434  1.7016
 4696TIP3    H214053   6.148   5.875   3.806  0.5992  0.2339  0.1100
 4697TIP3   OH214054   3.253   2.983   2.475 -0.2221  0.0598  0.1374
 4697TIP3    H114055   3.327   2.991   2.415 -0.6626 -0.4077 -0.4707
 4697TIP3    H214056   3.286   3.020   2.558 -0.5490  3.6919 -1.1640
 4698TIP3   OH214057   7.038   1.835   3.922 -0.7824  0.0966 -0.3797
 4698TIP3    H114058   6.946   1.808   3.916 -0.6353 -0.0902 -2.9600
 4698TIP3    H214059   7.040   1.922   3.883  0.3719 -0.6922 -2.2269
 4699TIP3   OH214060   4.564   2.032   3.077 -0.3282  0.1012 -0.0696
 4699TIP3    H114061   4.473   2.003   3.077  0.2602 -1.9503  1.6501
 4699TIP3    H214062   4.571   2.089   3.153 -0.2611  0.6534 -0.4806
 4700TIP3   OH214063   5.262   3.879   5.077 -0.1368 -0.5008 -0.3790
 4700TIP3    H114064   5.295   3.791   5.094  0.3798 -0.4408 -1.0631
 4700TIP3    H214065   5.179   3.883   5.126  0.0058 -1.2424 -0.0668
 4701TIP3   OH214066   1.343   1.407   4.557 -0.3155 -0.8839  0.4728
 4701TIP3    H114067   1.292   1.339   4.512  1.2163 -1.2313 -0.8354
 4701TIP3    H214068   1.277   1.458   4.604 -2.0435 -0.5810 -2.0461
 4702TIP3   OH214069   7.192   5.308   0.388  0.4129 -0.6281  0.9061
 4702TIP3    H114070   7.130   5.368   0.429  0.2512  0.3213 -0.6314
 4702TIP3    H214071   7.278   5.348   0.404  0.3637 -0.3507  0.5085
 4703TIP3   OH214072   7.170   3.947   1.903  0.1779 -0.4926 -0.1401
 4703TIP3    H114073   7.263   3.935   1.924  0.0639 -0.1900  0.5430
 4703TIP3    H214074   7.140   3.859   1.879  0.1973 -0.9535  1.4304
 4704TIP3   OH214075   4.387   0.259   5.743 -0.1446  0.1495 -0.0861
 4704TIP3    H114076   4.330   0.233   5.670 -2.4393  2.0197  0.8787
 4704TIP3    H214077   4.349   0.216   5.819 -0.3379  1.4581  0.5873
 4705TIP3   OH214078   0.040   5.061   2.076  0.3356 -0.0957  0.5498
 4705TIP3    H114079  -0.018   5.043   2.150 -0.8877 -1.0908 -0.6140
 4705TIP3    H214080   0.118   5.009   2.094  0.1555 -0.1312  1.2667
 4706TIP3   OH214081   3.912   4.890   3.993 -0.2820 -0.5675 -0.2543
 4706TIP3    H114082   3.840   4.929   4.043 -1.4445 -0.6907 -1.7847
 4706TIP3    H214083   3.956   4.834   4.057 -1.6383 -0.6179  0.6949
 4707TIP3   OH214084   4.748   3.233   3.814  0.6220  0.1980 -0.0996
 4707TIP3    H114085   4.816   3.204   3.875  1.6956  1.0623 -0.8463
 4707TIP3    H214086   4.667   3.199   3.851  1.3489 -0.0925  1.3044
 4708TIP3   OH214087   4.680   5.174   0.617 -0.4828  0.1651 -0.1021
 4708TIP3    H114088   4.731   5.094   0.605 -1.1334 -0.0187 -1.8094
 4708TIP3    H214089   4.686   5.191   0.711  0.3975 -1.3909  0.1661
 4709TIP3   OH214090   5.154   1.227   2.609 -0.7185 -0.1566 -0.1237
 4709TIP3    H114091   5.068   1.198   2.640 -0.2457 -0.4586  0.9708
 4709TIP3    H214092   5.142   1.320   2.587 -1.7300 -0.6144 -1.6419
 4710TIP3   OH214093   5.732   5.040   2.127  0.0305  0.1988 -1.0383
 4710TIP3    H114094   5.656   5.083   2.088 -0.3408  0.3600 -0.1617
 4710TIP3    H214095   5.797   5.110   2.137  0.4906 -0.0301 -2.2189
 4711TIP3   OH214096   6.737   4.158   5.849  0.9401  0.3317  0.1267
 4711TIP3    H114097   6.647   4.174   5.819  0.6923  0.0347  0.6805
 4711TIP3    H214098   6.747   4.216   5.925  0.8464 -0.3845  0.7061
 4712TIP3   OH214099   0.417   5.756   3.776  0.1842  0.5436 -0.0326
 4712TIP3    H114100   0.481   5.825   3.755  1.8045 -1.0679 -0.6208
 4712TIP3    H214101   0.465   5.695   3.832 -0.9691 -0.5140 -0.1588
 4713TIP3   OH214102   5.895   4.311   5.038  0.6979  0.0917  0.1449
 4713TIP3    H114103   5.910   4.218   5.059 -1.4020 -0.2295  0.3688
 4713TIP3    H214104   5.829   4.340   5.101 -0.0250  1.2361 -1.0842
 4714TIP3   OH214105   1.683   0.242   0.047 -0.1883 -0.2144  0.7570
 4714TIP3    H114106   1.618   0.250  -0.022  0.5336  0.6370  0.1639
 4714TIP3    H214107   1.723   0.156   0.033  0.8413  0.4608 -0.6994
 4715TIP3   OH214108   2.116   4.326   4.682  0.1905  0.1263  0.3919
 4715TIP3    H114109   2.092   4.239   4.652  1.3354 -0.5470  1.3141
 4715TIP3    H214110   2.037   4.361   4.723 -0.8458  0.3288 -1.6823
 4716TIP3   OH214111   0.318   4.657   4.650 -0.4256  0.7288  0.7304
 4716TIP3    H114112   0.400   4.622   4.686  0.2476  1.4411 -0.0489
 4716TIP3    H214113   0.314   4.621   4.562  0.8925  3.4055 -0.5387
 4717TIP3   OH214114   0.811   0.227   5.745  0.0218 -0.0651 -0.0909
 4717TIP3    H114115   0.858   0.276   5.812 -0.4711 -1.4470  1.3122
 4717TIP3    H214116   0.776   0.151   5.790 -2.3584  0.1605 -1.3802
 4718TIP3   OH214117   3.547   2.748   4.301  0.0051  0.1439  0.2611
 4718TIP3    H114118   3.502   2.716   4.223  2.3118  0.8774 -1.4892
 4718TIP3    H214119   3.506   2.832   4.320 -0.2581  0.1977 -0.5070
 4719TIP3   OH214120   2.695   2.547   2.010  0.0419  0.6085 -0.3558
 4719TIP3    H114121   2.642   2.481   1.966 -0.3990  0.9998 -0.4133
 4719TIP3    H214122   2.785   2.520   1.993 -0.1312 -0.1922 -0.0588
 4720TIP3   OH214123   4.681   3.510   4.903 -0.1325 -0.5572  0.5083
 4720TIP3    H114124   4.621   3.581   4.881  0.1668 -0.3677  0.2845
 4720TIP3    H214125   4.700   3.468   4.819 -0.3136 -0.9095  0.6405
 4721TIP3   OH214126   4.439   0.322   4.434  0.2560 -0.0921  0.0961
 4721TIP3    H114127   4.459   0.415   4.426  0.1974 -0.0198  0.7575
 4721TIP3    H214128   4.464   0.299   4.524  0.4110 -0.7482 -0.1073
 4722TIP3   OH214129   2.754   3.127   4.434  0.1000 -0.0955  0.0846
 4722TIP3    H114130   2.663   3.118   4.461 -0.0696 -0.6916 -0.6470
 4722TIP3    H214131   2.779   3.040   4.403  0.5143  0.3718 -0.9404
 4723TIP3   OH214132   3.396   0.373   4.055  0.2464  0.2799 -0.2157
 4723TIP3    H114133   3.393   0.452   4.001  2.3268  0.9711  0.5804
 4723TIP3    H214134   3.338   0.392   4.128 -1.2716  0.0051 -1.2995
 4724TIP3   OH214135   3.833   6.741   5.458 -0.2278 -0.1334 -0.0649
 4724TIP3    H114136   3.751   6.695   5.439 -0.5780  0.7045 -0.6458
 4724TIP3    H214137   3.812   6.798   5.532 -0.2126  0.1734 -0.2939
 4725TIP3   OH214138   5.336   1.174   4.499  0.1990  0.6542  0.6758
 4725TIP3    H114139   5.291   1.123   4.432 -1.2419 -0.9068  2.6900
 4725TIP3    H214140   5.415   1.123   4.519 -1.0332 -0.6874  2.3979
 4726TIP3   OH214141   5.128   0.478   2.293  0.3911  0.3160 -0.2289
 4726TIP3    H114142   5.182   0.431   2.357 -0.1000  0.3510  0.2111
 4726TIP3    H214143   5.061   0.522   2.345 -0.2422  0.0394 -0.7980
 4727TIP3   OH214144   1.764   1.071   2.428 -0.2023  0.5892 -0.0722
 4727TIP3    H114145   1.730   0.983   2.411  0.6257  0.0699  0.8419
 4727TIP3    H214146   1.704   1.109   2.492  1.0750 -0.4890  1.8775
 4728TIP3   OH214147   0.531   6.278   0.451 -0.1206  0.2028  0.3485
 4728TIP3    H114148   0.511   6.278   0.545  0.4614 -0.3510  0.4774
 4728TIP3    H214149   0.611   6.331   0.444 -0.2998  0.4434  0.1372
 4729TIP3   OH214150   2.923   1.351   4.789  0.2104 -0.2000 -0.7920
 4729TIP3    H114151   2.835   1.359   4.754 -0.4135 -4.0982 -0.4936
 4729TIP3    H214152   2.925   1.412   4.863 -1.2357  1.9051 -2.3568
 4730TIP3   OH214153   3.169   1.379   4.717 -0.4700 -0.2155 -0.6651
 4730TIP3    H114154   3.191   1.347   4.630  0.2851  0.0862 -0.5895
 4730TIP3    H214155   3.076   1.358   4.727 -0.7708  0.4432 -1.8476
 4731TIP3   OH214156   4.786   6.288   4.042 -0.2276  0.1990 -0.0132
 4731TIP3    H114157   4.749   6.321   3.960 -0.4526  0.5695  0.2340
 4731TIP3    H214158   4.742   6.204   4.056 -0.6745  0.4416  0.0643
 4732TIP3   OH214159   2.431  -0.011   1.323  0.4369  0.2613  0.5186
 4732TIP3    H114160   2.507   0.032   1.363  0.7653  0.5029 -0.3439
 4732TIP3    H214161   2.398   0.052   1.259  0.5290 -0.4969 -0.2980
 4733TIP3   OH214162   5.148   4.389   0.405 -0.2420 -0.3278 -0.1744
 4733TIP3    H114163   5.069   4.335   0.398 -0.3734 -0.0652 -0.8173
 4733TIP3    H214164   5.150   4.417   0.496 -1.6550  0.7974 -0.4572
 4734TIP3   OH214165   2.634   3.982   5.090 -0.4687 -0.0314  0.1842
 4734TIP3    H114166   2.623   3.892   5.057  1.1655 -0.3396  0.3720
 4734TIP3    H214167   2.650   4.034   5.012  1.0417 -0.3590  0.2375
 4735TIP3   OH214168   2.425   3.775   5.831  0.3600  0.7406 -0.1672
 4735TIP3    H114169   2.352   3.827   5.797  1.2807  0.9619 -1.9171
 4735TIP3    H214170   2.478   3.837   5.880  0.8039  1.2032 -1.2098
 4736TIP3   OH214171   0.664   1.883   3.030 -0.0298 -0.1024 -0.3726
 4736TIP3    H114172   0.677   1.788   3.036 -2.3989 -0.3735  2.3085
 4736TIP3    H214173   0.585   1.893   2.977 -0.2445  0.3329  0.0227
 4737TIP3   OH214174   3.848   6.682   0.069  0.1945 -0.4708 -0.2426
 4737TIP3    H114175   3.933   6.672   0.113  1.0120 -2.6982 -2.1106
 4737TIP3    H214176   3.784   6.685   0.140  1.4462 -3.6322  1.1853
 4738TIP3   OH214177   6.112   3.172   4.576  0.0254  0.7474  0.5771
 4738TIP3    H114178   6.106   3.267   4.586  0.0189  0.8854 -0.5904
 4738TIP3    H214179   6.023   3.145   4.552  0.5557  0.7991 -1.6176
 4739TIP3   OH214180   2.253   4.127   5.351  0.1653 -0.1565  0.5249
 4739TIP3    H114181   2.342   4.101   5.373  0.8215  1.7210  0.1996
 4739TIP3    H214182   2.263   4.198   5.288 -1.5933 -0.8993 -0.6992
 4740TIP3   OH214183   2.518   3.088   2.359  0.5100  0.0852  0.1419
 4740TIP3    H114184   2.536   3.158   2.423  0.0485  0.6330 -0.3243
 4740TIP3    H214185   2.594   3.030   2.367 -0.3981 -0.9219  2.5808
 4741TIP3   OH214186   4.385   4.062   1.384 -0.1363 -0.2420 -0.5556
 4741TIP3    H114187   4.290   4.063   1.375 -0.0131  0.7083 -1.9924
 4741TIP3    H214188   4.410   3.972   1.366 -0.6353 -0.1533 -1.7593
 4742TIP3   OH214189   3.784   6.386   2.008 -0.1819  0.2654  0.3111
 4742TIP3    H114190   3.716   6.324   1.982 -0.8427  0.8259  0.6687
 4742TIP3    H214191   3.737   6.459   2.047  0.4175  1.8750 -1.7709
 4743TIP3   OH214192   5.587   0.074   0.440  0.0167 -0.2102 -0.3835
 4743TIP3    H114193   5.583   0.020   0.361 -1.2971 -0.8453  0.0892
 4743TIP3    H214194   5.614   0.160   0.408 -1.3311 -0.2282 -1.6857
 4744TIP3   OH214195   5.659   0.311   4.196  1.1522 -0.0346 -0.3480
 4744TIP3    H114196   5.714   0.388   4.179  2.6511 -0.8746  0.5376
 4744TIP3    H214197   5.700   0.241   4.146  1.9704 -1.0779  1.6783
 4745TIP3   OH214198   1.657   3.660   0.258  0.1394 -0.5323 -0.0864
 4745TIP3    H114199   1.683   3.596   0.323 -0.6549  1.1988  2.0581
 4745TIP3    H214200   1.562   3.656   0.256  0.1560 -1.8304 -2.5966
 4746TIP3   OH214201   2.084   0.565   2.340  0.1926  0.3748  0.3243
 4746TIP3    H114202   2.037   0.491   2.302  1.5254 -0.2310 -0.1934
 4746TIP3    H214203   2.048   0.642   2.295 -0.6526 -0.0139  0.3146
 4747TIP3   OH214204   0.305   1.140   3.579  0.0810  0.6783 -0.2148
 4747TIP3    H114205   0.378   1.094   3.538  0.0536 -1.3246  1.7855
 4747TIP3    H214206   0.347   1.198   3.643  0.0006 -0.3400  0.8057
 4748TIP3   OH214207   2.757   5.457   4.476 -0.0326  0.2172 -0.1659
 4748TIP3    H114208   2.739   5.500   4.392 -1.0260  0.4025  0.1253
 4748TIP3    H214209   2.693   5.495   4.536  0.5360 -0.0608  0.6304
 4749TIP3   OH214210   6.462   0.449   1.099  0.8280 -0.0810 -0.1887
 4749TIP3    H114211   6.439   0.386   1.031  1.0101  0.4328 -0.7231
 4749TIP3    H214212   6.481   0.530   1.053  2.5922 -0.1583  0.3103
 4750TIP3   OH214213   6.093   5.296   4.087  0.5044  0.0812 -0.0029
 4750TIP3    H114214   6.028   5.322   4.153  0.4423  0.1407 -0.0878
 4750TIP3    H214215   6.107   5.202   4.103  0.3285  0.0478 -0.0451
 4751TIP3   OH214216   1.639   5.165   3.825  0.1492 -0.2289  0.4568
 4751TIP3    H114217   1.699   5.217   3.771 -1.2932  1.3056  0.2500
 4751TIP3    H214218   1.619   5.088   3.773  1.5927 -0.5596  0.3577
 4752TIP3   OH214219   3.940   1.438   0.016  0.2850  0.1340 -0.4081
 4752TIP3    H114220   3.953   1.524   0.055  1.2544 -0.8263  1.5384
 4752TIP3    H214221   4.025   1.415  -0.021  0.4550 -0.5718  0.3890
 4753TIP3   OH214222   0.838   2.834   3.239 -0.4762 -0.4918  0.6406
 4753TIP3    H114223   0.881   2.813   3.322 -1.5123  0.7543  1.5348
 4753TIP3    H214224   0.777   2.905   3.261 -0.9749 -0.3264 -1.1367
 4754TIP3   OH214225   4.069   2.499   1.264 -0.0025  0.6604  0.1623
 4754TIP3    H114226   3.999   2.564   1.276  0.3345  1.0696 -0.0646
 4754TIP3    H214227   4.108   2.521   1.180  0.2127  0.2512  0.1550
 4755TIP3   OH214228   1.322   1.507   5.904  0.3226  0.6159  0.2858
 4755TIP3    H114229   1.296   1.516   5.813 -0.6438 -0.8338  0.3887
 4755TIP3    H214230   1.240   1.510   5.953  0.4052 -2.2963  0.7721
 4756TIP3   OH214231   4.251   5.616   3.803  0.5858  0.5653  0.3005
 4756TIP3    H114232   4.304   5.617   3.723 -0.6597  1.5086 -0.5520
 4756TIP3    H214233   4.295   5.678   3.862 -0.1721  2.2943 -0.8568
 4757TIP3   OH214234   3.112   2.507   2.947  0.0774 -0.0121  0.0653
 4757TIP3    H114235   3.156   2.470   2.870 -0.7115 -0.0075 -0.3904
 4757TIP3    H214236   3.182   2.553   2.994  0.2874  1.2374 -1.4070
 4758TIP3   OH214237   2.946   6.641   3.240  0.2103 -0.0393  0.1724
 4758TIP3    H114238   2.910   6.608   3.158  1.5144 -0.0132 -0.4291
 4758TIP3    H214239   2.921   6.733   3.242 -0.0552 -0.1055 -0.0567
 4759TIP3   OH214240   5.445   3.384   4.962  0.5471  0.4901  0.2116
 4759TIP3    H114241   5.472   3.444   4.893 -0.0804  0.3593 -0.1557
 4759TIP3    H214242   5.394   3.317   4.918  0.0626  0.4524  0.8084
 4760TIP3   OH214243   0.191   0.016   4.607 -0.1904 -0.8081 -0.2740
 4760TIP3    H114244   0.147  -0.015   4.527 -0.5900  0.8923 -0.7590
 4760TIP3    H214245   0.137   0.089   4.636  2.0216  1.0220 -0.5804
 4761TIP3   OH214246   0.741   0.249   2.945  0.1412  0.0993 -0.2678
 4761TIP3    H114247   0.722   0.338   2.916  2.1842  0.6374 -0.1040
 4761TIP3    H214248   0.693   0.193   2.884  1.3605  1.2629 -2.3945
 4762TIP3   OH214249   6.968   1.320   2.104  0.3193  0.0488  0.9397
 4762TIP3    H114250   6.999   1.374   2.177 -1.6634 -0.9258  2.5773
 4762TIP3    H214251   6.876   1.344   2.094  0.3732 -0.3644 -0.8061
 4763TIP3   OH214252   2.126   0.422   0.994  0.4076 -0.1192  0.4246
 4763TIP3    H114253   2.102   0.491   0.931 -1.4886 -0.9871  0.1257
 4763TIP3    H214254   2.221   0.415   0.986  0.7820  2.8829  0.9223
 4764TIP3   OH214255   3.187   6.217   5.452 -0.3160 -0.5364 -0.1697
 4764TIP3    H114256   3.177   6.270   5.373 -1.3401  0.8163  0.8103
 4764TIP3    H214257   3.243   6.144   5.426  0.6891  0.7349 -1.7256
 4765TIP3   OH214258   1.723   0.345   5.068  0.0756 -0.2074  0.5118
 4765TIP3    H114259   1.678   0.369   4.987  0.1000  0.5001  0.7096
 4765TIP3    H214260   1.697   0.254   5.083 -1.4450  0.2487  0.7425
 4766TIP3   OH214261   2.715   0.486   2.424 -0.2821 -0.0841  0.5559
 4766TIP3    H114262   2.800   0.507   2.461  0.6369 -2.3153 -0.0867
 4766TIP3    H214263   2.733   0.415   2.362 -2.4170  0.3542 -0.6628
 4767TIP3   OH214264   2.192   5.008   1.846  0.3315  0.4044 -0.1836
 4767TIP3    H114265   2.186   5.001   1.941 -0.0131  1.5916 -0.1055
 4767TIP3    H214266   2.285   5.009   1.827  0.4085  0.8859  0.2060
 4768TIP3   OH214267   0.806   6.412   3.502 -0.4940 -0.2357 -0.4011
 4768TIP3    H114268   0.900   6.399   3.508 -0.3892  1.0115  1.5153
 4768TIP3    H214269   0.768   6.325   3.510  0.4788 -0.7598 -1.3149
 4769TIP3   OH214270   1.202   6.147   2.803  0.2971 -0.5249  0.2256
 4769TIP3    H114271   1.241   6.154   2.890 -0.5470 -0.8706  0.6436
 4769TIP3    H214272   1.151   6.066   2.806  2.3144 -1.9895 -1.4247
 4770TIP3   OH214273   1.600   4.860   0.556 -0.2259 -0.1375 -0.3567
 4770TIP3    H114274   1.583   4.847   0.649  2.3547  3.4492  0.8216
 4770TIP3    H214275   1.533   4.923   0.528 -0.5538 -0.6691 -0.8083
 4771TIP3   OH214276   5.557   4.339   5.073  0.3080  0.2036  0.4491
 4771TIP3    H114277   5.495   4.269   5.052 -0.6848  0.4840  2.1959
 4771TIP3    H214278   5.525   4.415   5.024  0.6201 -0.2374 -0.4390
 4772TIP3   OH214279   0.487   1.284   1.509 -0.3449 -0.5602 -0.5500
 4772TIP3    H114280   0.447   1.201   1.536 -1.4945 -0.0210 -0.5455
 4772TIP3    H214281   0.541   1.261   1.433 -0.1864 -1.4036 -0.1987
 4773TIP3   OH214282   5.775   5.935   5.603  0.1996  0.0814 -0.5214
 4773TIP3    H114283   5.722   5.897   5.534 -0.8892 -1.4047  1.0496
 4773TIP3    H214284   5.723   6.008   5.636  0.5039  0.4915 -0.9372
 4774TIP3   OH214285   4.368   5.537   4.917  0.9649  0.0314 -0.0670
 4774TIP3    H114286   4.353   5.508   5.007  0.2519  0.5089 -0.0238
 4774TIP3    H214287   4.463   5.548   4.911  0.9983  0.2165  0.6907
 4775TIP3   OH214288   2.430   1.789   4.281  0.4288 -0.4831 -0.3693
 4775TIP3    H114289   2.502   1.743   4.324  1.0411  1.7744  1.2766
 4775TIP3    H214290   2.472   1.863   4.238 -0.7037 -0.2561 -1.1167
 4776TIP3   OH214291   3.710   3.535   1.007  0.0022 -0.3208 -0.0771
 4776TIP3    H114292   3.625   3.504   0.977  0.4229 -2.0312  0.4007
 4776TIP3    H214293   3.693   3.572   1.094 -0.4044  0.3307 -0.4193
 4777TIP3   OH214294   1.669   0.422   0.521 -0.2004  0.4020 -0.3315
 4777TIP3    H114295   1.585   0.459   0.493 -0.0511  0.3622 -0.8384
 4777TIP3    H214296   1.669   0.334   0.485  0.1617  0.4850 -0.5346
 4778TIP3   OH214297   3.782   6.477   0.330 -0.1620 -0.2584 -0.3433
 4778TIP3    H114298   3.713   6.458   0.266 -1.0633  0.2453  0.4626
 4778TIP3    H214299   3.864   6.455   0.284 -0.6134  1.9942 -2.4351
 4779TIP3   OH214300   0.286   2.507   2.520  0.2728  0.1471 -0.0550
 4779TIP3    H114301   0.378   2.480   2.525  0.4768  1.0174  0.9272
 4779TIP3    H214302   0.271   2.523   2.426  1.0525 -0.2069 -0.2454
 4780TIP3   OH214303   4.030   0.161   0.055  0.2864  0.1500  0.3041
 4780TIP3    H114304   4.124   0.162   0.040  0.1088  3.5242 -1.6581
 4780TIP3    H214305   3.991   0.170  -0.033 -1.8591 -0.6524  1.0947
 4781TIP3   OH214306   4.227   5.857   0.237  0.1350  0.1354  0.5138
 4781TIP3    H114307   4.215   5.766   0.212  0.3870  0.4438 -0.8067
 4781TIP3    H214308   4.198   5.861   0.329  0.2848 -1.2862  0.6432
 4782TIP3   OH214309   3.981   2.060   0.337 -0.0841 -0.5145 -0.4374
 4782TIP3    H114310   3.898   2.079   0.293 -1.3993  1.4806  2.5233
 4782TIP3    H214311   3.961   1.984   0.393 -0.1927  0.3813  0.7858
 4783TIP3   OH214312   3.802   3.926   0.755  0.2402 -0.0661 -0.2983
 4783TIP3    H114313   3.766   3.871   0.685 -1.3338  0.6109 -0.0676
 4783TIP3    H214314   3.830   3.864   0.822 -1.7004 -0.6224  0.0509
 4784TIP3   OH214315   3.139   2.199   5.539 -0.1459 -0.7070 -0.1812
 4784TIP3    H114316   3.157   2.227   5.449 -1.0563 -0.8818 -0.4186
 4784TIP3    H214317   3.135   2.104   5.535 -0.1822 -0.7157  0.0459
 4785TIP3   OH214318   6.229   5.439   5.668  0.4674  0.3782  0.0996
 4785TIP3    H114319   6.314   5.479   5.684  0.6386  0.6221 -1.2559
 4785TIP3    H214320   6.185   5.441   5.753  1.2102  1.7170  0.4882
 4786TIP3   OH214321   5.038   6.624   2.010 -0.4382 -0.1917 -0.3694
 4786TIP3    H114322   5.004   6.535   1.999  0.8818 -0.9718  1.2729
 4786TIP3    H214323   5.106   6.632   1.944 -0.3520 -0.5155 -0.3227
 4787TIP3   OH214324   1.966   1.269   5.706 -0.0057 -0.2499  0.1505
 4787TIP3    H114325   1.936   1.184   5.739  0.3338 -0.7105 -0.6900
 4787TIP3    H214326   1.968   1.258   5.611 -0.4982  0.8871 -0.0135
 4788TIP3   OH214327   4.237   1.319   0.237  0.3320  0.3561 -0.8381
 4788TIP3    H114328   4.179   1.244   0.225  1.5872 -0.5169 -1.7172
 4788TIP3    H214329   4.245   1.328   0.332  0.1424 -0.6122 -0.7174
 4789TIP3   OH214330   3.335   4.330   5.437  0.5398 -0.3313 -0.5768
 4789TIP3    H114331   3.361   4.382   5.513  0.7753 -0.9125 -0.2488
 4789TIP3    H214332   3.249   4.364   5.413  0.6456  0.1431 -0.3130
 4790TIP3   OH214333   6.048   2.983   3.402  0.2045  0.1077  0.1673
 4790TIP3    H114334   5.971   2.990   3.458 -0.6463  2.1724 -1.1803
 4790TIP3    H214335   6.122   2.986   3.463 -0.7227  0.4955  1.3040
 4791TIP3   OH214336   5.639   2.615   2.934  0.3333 -0.8632 -0.0417
 4791TIP3    H114337   5.664   2.537   2.984 -0.8144 -1.2819 -0.0902
 4791TIP3    H214338   5.566   2.653   2.983 -1.0913 -1.4992 -1.5293
 4792TIP3   OH214339   3.543   0.131   3.603 -0.5049  0.1302 -0.9875
 4792TIP3    H114340   3.558   0.145   3.696 -1.1126 -1.4696 -0.6073
 4792TIP3    H214341   3.580   0.208   3.560  4.2190 -1.1684  0.1601
 4793TIP3   OH214342   4.727   3.860   3.906  0.1378  0.2694  0.2823
 4793TIP3    H114343   4.712   3.774   3.945 -0.8847 -0.0855 -0.8309
 4793TIP3    H214344   4.640   3.902   3.905  0.1174  0.2877 -1.4824
 4794TIP3   OH214345   5.662   1.961   2.135  0.7075 -0.2447  0.3227
 4794TIP3    H114346   5.651   1.872   2.171  0.1945  0.7510  2.8268
 4794TIP3    H214347   5.749   1.960   2.097  1.4215 -1.3718  1.8448
 4795TIP3   OH214348   0.096   1.179   5.302 -0.1229  0.1269 -0.0083
 4795TIP3    H114349   0.137   1.150   5.383 -1.8440 -0.4411  0.7091
 4795TIP3    H214350   0.021   1.232   5.330 -1.3595 -0.9193 -1.1857
 4796TIP3   OH214351   2.387   5.442   1.268  0.0785 -0.4292 -0.0144
 4796TIP3    H114352   2.475   5.476   1.250  0.2580 -0.8786 -0.0018
 4796TIP3    H214353   2.391   5.411   1.358 -0.1962 -0.1437  0.0992
 4797TIP3   OH214354   1.462   6.025   3.981 -0.2299 -0.7488  0.1448
 4797TIP3    H114355   1.452   5.956   3.915 -0.3396 -1.8116  1.2246
 4797TIP3    H214356   1.537   6.076   3.950  0.2144 -1.6904 -0.4182
 4798TIP3   OH214357   0.062   5.349   2.755 -0.5664 -0.2080  0.4060
 4798TIP3    H114358  -0.016   5.296   2.774  0.3289 -1.1630  1.5740
 4798TIP3    H214359   0.100   5.367   2.841  1.9796 -2.0719 -0.2292
 4799TIP3   OH214360   4.280   5.484   4.499 -0.4811 -0.0230  0.1438
 4799TIP3    H114361   4.374   5.474   4.507 -0.4298  0.4003  0.0686
 4799TIP3    H214362   4.255   5.540   4.572 -0.8599 -1.1976  0.9501
 4800TIP3   OH214363   5.829   0.500   3.519  0.0113 -0.3598  0.4988
 4800TIP3    H114364   5.837   0.596   3.527  0.3445 -0.4491  1.3111
 4800TIP3    H214365   5.752   0.488   3.463  1.2621  0.4151 -1.4798
 4801TIP3   OH214366   5.277   1.498   3.717 -0.2300 -0.4574 -0.1930
 4801TIP3    H114367   5.335   1.516   3.643 -0.9018 -0.6546 -0.7766
 4801TIP3    H214368   5.235   1.582   3.735 -0.2682 -0.4719 -0.2140
 4802TIP3   OH214369   4.952   1.254   1.873  0.2311 -0.7108  0.5352
 4802TIP3    H114370   4.968   1.237   1.965 -0.6150 -1.4520  0.5590
 4802TIP3    H214371   4.860   1.231   1.860  0.4706 -1.0857 -0.5993
 4803TIP3   OH214372   4.139   0.414   2.309  0.2450 -0.2383 -0.3755
 4803TIP3    H114373   4.084   0.339   2.331 -0.0694  0.0322 -0.2116
 4803TIP3    H214374   4.083   0.490   2.328  0.3388  0.0222 -1.1281
 4804TIP3   OH214375   3.594   2.894   5.752  0.2448 -0.1055  0.0262
 4804TIP3    H114376   3.649   2.847   5.690 -1.8592  0.7310 -2.6687
 4804TIP3    H214377   3.527   2.830   5.779  0.3233 -0.0609  0.3387
 4805TIP3   OH214378   1.395   2.408   1.662  0.0002 -0.3585 -0.4200
 4805TIP3    H114379   1.309   2.423   1.622 -0.6191 -3.2240 -0.3584
 4805TIP3    H214380   1.416   2.317   1.641  2.9916  0.1893 -0.2964
 4806TIP3   OH214381   3.662   5.952   0.029  0.6638  0.1280 -0.1409
 4806TIP3    H114382   3.748   5.971   0.066 -0.3019  0.6343  1.9994
 4806TIP3    H214383   3.654   6.012  -0.045  1.7008  0.8829  0.3420
 4807TIP3   OH214384   3.204   5.151   2.953 -0.9098  0.1832  0.0379
 4807TIP3    H114385   3.175   5.207   3.025 -1.8346 -1.8224  1.3080
 4807TIP3    H214386   3.250   5.079   2.996  1.2602  0.4693 -1.6207
 4808TIP3   OH214387   6.343   0.254   0.907 -0.3176 -0.5845  0.1424
 4808TIP3    H114388   6.360   0.165   0.939  2.4334 -0.6381 -1.1374
 4808TIP3    H214389   6.321   0.241   0.814 -3.1830 -0.0729  0.6479
 4809TIP3   OH214390   2.426   5.233   4.427 -0.0177  0.1563 -0.2599
 4809TIP3    H114391   2.398   5.319   4.459  1.9076  0.7553 -0.0795
 4809TIP3    H214392   2.363   5.172   4.466 -1.4015  1.4567 -0.3530
 4810TIP3   OH214393   0.092   3.233   5.348  0.2874  0.6242  0.5578
 4810TIP3    H114394   0.039   3.187   5.282  0.0264 -0.0492  1.2215
 4810TIP3    H214395   0.043   3.314   5.365  0.1187  0.5872  0.2622
 4811TIP3   OH214396   4.607   3.556   2.998  0.1165 -0.1242  0.3113
 4811TIP3    H114397   4.691   3.600   2.983  0.6698 -0.7399  1.5081
 4811TIP3    H214398   4.566   3.554   2.912  1.0477  0.7495 -0.1803
 4812TIP3   OH214399   2.007   1.881   3.882 -0.1833 -0.1250 -0.1351
 4812TIP3    H114400   1.950   1.941   3.834 -0.7563  0.1788  0.8960
 4812TIP3    H214401   2.086   1.933   3.900 -0.0339 -0.1883 -0.5807
 4813TIP3   OH214402   0.093   2.965   0.047 -0.3629 -0.0335 -0.3028
 4813TIP3    H114403   0.151   2.903   0.090 -1.3711 -1.4740 -0.9200
 4813TIP3    H214404   0.115   2.959  -0.046 -0.4978  0.5098 -0.3739
 4814TIP3   OH214405   5.893   3.973   3.115  0.2158  0.4325  0.0701
 4814TIP3    H114406   5.825   3.974   3.182  1.1800 -0.9253  1.1446
 4814TIP3    H214407   5.971   4.006   3.159  0.7750 -0.1257 -0.4727
 4815TIP3   OH214408   3.465   4.739   1.384  0.3563 -0.4063  0.3627
 4815TIP3    H114409   3.399   4.778   1.327 -0.6079 -2.8053 -0.2703
 4815TIP3    H214410   3.456   4.786   1.467 -1.6994 -0.2031  0.0685
 4816TIP3   OH214411   2.578   2.899   4.857 -0.4121 -0.2315  0.2357
 4816TIP3    H114412   2.661   2.931   4.822  0.1393 -0.6030  1.1658
 4816TIP3    H214413   2.574   2.934   4.946 -0.4899 -1.5045  0.7553
 4817TIP3   OH214414   1.645   5.823   4.443  0.1393 -0.4390 -0.0585
 4817TIP3    H114415   1.622   5.877   4.519  0.8844  1.0969 -0.8760
 4817TIP3    H214416   1.585   5.852   4.374  0.1449 -1.0936 -0.3428
 4818TIP3   OH214417   5.290   0.947   1.391 -0.0033 -0.0005 -0.1531
 4818TIP3    H114418   5.339   0.920   1.468 -0.5427  0.0054  0.1926
 4818TIP3    H214419   5.342   1.018   1.354  0.6352 -0.4933 -0.2141
 4819TIP3   OH214420   0.421   1.132   2.199  0.2741  0.4684 -0.3956
 4819TIP3    H114421   0.424   1.112   2.293  2.7690 -0.6800 -0.6299
 4819TIP3    H214422   0.469   1.214   2.190  0.1954  0.4865 -0.6639
 4820TIP3   OH214423   6.241   1.707   4.759 -0.1294 -0.5575 -0.0119
 4820TIP3    H114424   6.326   1.715   4.717  0.9671 -1.1790  1.9821
 4820TIP3    H214425   6.239   1.777   4.825 -3.1401  2.5673 -2.9833
 4821TIP3   OH214426   3.042   0.067   2.155 -0.2250  0.3650 -0.1266
 4821TIP3    H114427   3.091   0.119   2.218  0.6666  0.1041 -0.5969
 4821TIP3    H214428   3.104   0.047   2.085 -0.4503 -1.5755  0.1608
 4822TIP3   OH214429   5.446   4.088   5.084  0.1664 -0.1522 -0.3418
 4822TIP3    H114430   5.455   4.106   5.177  0.0841  0.2604 -0.4099
 4822TIP3    H214431   5.375   4.024   5.078  0.1218 -0.1237 -0.1276
 4823TIP3   OH214432   6.777   2.748   0.221 -0.1091 -0.4250  0.0138
 4823TIP3    H114433   6.817   2.799   0.290  0.6326 -0.3130 -0.4891
 4823TIP3    H214434   6.685   2.741   0.246  0.1416 -0.3581  0.9822
 4824TIP3   OH214435   0.041   6.167   4.791 -0.0632 -0.0259 -0.6948
 4824TIP3    H114436   0.003   6.221   4.860 -1.5484 -1.5787 -0.2450
 4824TIP3    H214437  -0.030   6.110   4.762  1.3147 -1.4661 -1.4428
 4825TIP3   OH214438   4.110   4.848   1.794 -0.6459 -0.9088  0.1876
 4825TIP3    H114439   4.169   4.915   1.829 -2.5972  0.7208  0.5014
 4825TIP3    H214440   4.162   4.805   1.725  1.4210 -0.6341  1.4913
 4826TIP3   OH214441   0.838   6.440   5.674  0.0617  0.0048  0.1254
 4826TIP3    H114442   0.816   6.530   5.647 -0.4257  0.1430  0.9608
 4826TIP3    H214443   0.802   6.386   5.604 -2.2914  0.2840  1.0307
 4827TIP3   OH214444   1.391   3.516   1.543 -0.0379 -0.2734 -0.1236
 4827TIP3    H114445   1.459   3.571   1.583  1.5873 -0.6405 -2.1640
 4827TIP3    H214446   1.331   3.578   1.503 -0.0980  0.0464  0.4529
 4828TIP3   OH214447   0.570   3.390   5.653  0.2042  0.7878  0.0636
 4828TIP3    H114448   0.549   3.479   5.625 -1.3597  0.6302  0.6631
 4828TIP3    H214449   0.534   3.334   5.585 -0.1894  0.5532  0.4652
 4829TIP3   OH214450   1.996   2.893   2.151 -0.2000  0.3207  0.5120
 4829TIP3    H114451   2.091   2.898   2.147  0.0128  0.6831  3.4139
 4829TIP3    H214452   1.967   2.984   2.149 -0.7717  0.1739 -2.8809
 4830TIP3   OH214453   6.889   3.611   0.313  0.3446  0.8473  0.1417
 4830TIP3    H114454   6.891   3.705   0.295  0.0082  1.0742  1.1866
 4830TIP3    H214455   6.880   3.605   0.408 -1.7939 -0.2081 -0.0567
 4831TIP3   OH214456   7.180   2.001   3.634 -0.1042  0.2514 -0.0856
 4831TIP3    H114457   7.104   2.050   3.667 -0.0655  0.8793 -0.8872
 4831TIP3    H214458   7.228   1.975   3.713 -3.5809 -4.4143  0.8841
 4832TIP3   OH214459   6.443   0.230   0.585 -0.5741 -0.3322 -0.1644
 4832TIP3    H114460   6.448   0.148   0.634 -0.8759 -0.6794 -0.7083
 4832TIP3    H214461   6.388   0.210   0.510  1.3286 -0.3362 -1.6490
 4833TIP3   OH214462   2.264   6.055   1.852 -0.1709  0.5108  0.7844
 4833TIP3    H114463   2.188   6.002   1.828  0.6135 -0.1540 -0.3016
 4833TIP3    H214464   2.294   6.016   1.934  0.8295 -1.2659 -0.3532
 4834TIP3   OH214465   4.070   6.717   0.240 -0.1557 -0.6380 -0.1217
 4834TIP3    H114466   4.139   6.692   0.178 -0.5390 -2.3875  0.1252
 4834TIP3    H214467   4.100   6.802   0.274  0.5537 -0.0925 -1.9312
 4835TIP3   OH214468   3.596   6.131   5.327  0.1054  0.2537 -0.2541
 4835TIP3    H114469   3.685   6.147   5.360  1.1491  0.2847 -2.8804
 4835TIP3    H214470   3.595   6.039   5.303 -0.7702  0.1209  0.2656
 4836TIP3   OH214471   6.322   6.170   2.131  0.6825 -0.0039  0.0280
 4836TIP3    H114472   6.407   6.201   2.101  0.3454  0.5220 -0.3997
 4836TIP3    H214473   6.269   6.249   2.138  0.7415 -0.0875  2.0677
 4837TIP3   OH214474   7.145   6.526   4.857 -0.5130 -0.3278  0.1531
 4837TIP3    H114475   7.059   6.490   4.880 -0.7892 -0.2016 -0.6550
 4837TIP3    H214476   7.207   6.475   4.910 -0.9244 -1.8007 -0.7319
 4838TIP3   OH214477   0.319   3.018   1.603 -0.4876  0.5185  0.0285
 4838TIP3    H114478   0.275   2.933   1.593  2.9719 -1.5173  0.1564
 4838TIP3    H214479   0.325   3.031   1.698  0.1668  0.1487  0.0480
 4839TIP3   OH214480   1.417   5.905   3.506  0.6382  0.6231 -0.0651
 4839TIP3    H114481   1.437   5.898   3.413  1.6765 -1.7267  0.2861
 4839TIP3    H214482   1.364   5.828   3.526 -0.5749  1.6883  1.0890
 4840TIP3   OH214483  -0.015   4.048   3.836  0.4177 -0.4199  0.0525
 4840TIP3    H114484   0.017   4.017   3.751  0.7232 -1.3610  0.4944
 4840TIP3    H214485   0.039   4.002   3.900 -1.0651 -1.2097  0.7929
 4841TIP3   OH214486   0.171   0.120   3.999 -0.0426 -0.2380  0.0197
 4841TIP3    H114487   0.089   0.168   3.994 -0.8464 -1.6555 -1.8122
 4841TIP3    H214488   0.147   0.029   3.981  1.7463 -0.9146  0.8246
 4842TIP3   OH214489   2.531   4.857   4.091  0.5327  0.4690 -0.0026
 4842TIP3    H114490   2.458   4.900   4.046  0.6982  1.4141  0.6159
 4842TIP3    H214491   2.606   4.915   4.077  1.4829 -1.0213 -1.5747
 4843TIP3   OH214492   6.656   4.799   3.749 -0.1102  0.5326 -0.3207
 4843TIP3    H114493   6.599   4.728   3.777 -0.5258  1.2342  0.6864
 4843TIP3    H214494   6.606   4.844   3.680 -0.3105  0.4894 -0.2050
 4844TIP3   OH214495   5.777   0.879   0.208  0.6936  0.5861 -0.8463
 4844TIP3    H114496   5.812   0.908   0.293 -0.8867 -1.1145  0.4788
 4844TIP3    H214497   5.845   0.824   0.170  0.0539 -1.7479  1.1480
 4845TIP3   OH214498   6.044   0.192   0.113 -0.4791  0.1177  0.3738
 4845TIP3    H114499   6.010   0.103   0.118  0.7379 -0.4132 -0.3193
 4845TIP3    H214500   6.137   0.183   0.132 -0.0104  0.9958 -1.3672
 4846TIP3   OH214501   1.241   6.698   1.090 -0.0622 -0.1986  0.1520
 4846TIP3    H114502   1.209   6.783   1.062  2.6066  0.6989 -0.4342
 4846TIP3    H214503   1.249   6.647   1.009 -2.1466 -1.2842  0.5465
 4847TIP3   OH214504   3.203   3.758   5.028 -0.2705 -0.3782 -0.3100
 4847TIP3    H114505   3.180   3.789   4.940 -0.5927 -0.0639 -0.1167
 4847TIP3    H214506   3.297   3.741   5.023  0.0485  1.2257 -0.2502
 4848TIP3   OH214507   2.954   4.588   5.246  0.4970  0.1163 -0.1288
 4848TIP3    H114508   3.007   4.593   5.325  2.4736  0.7113 -1.4051
 4848TIP3    H214509   2.980   4.664   5.194 -2.1220  0.8145 -0.5873
 4849TIP3   OH214510   3.453   3.889   2.135 -0.2007  0.0037  0.1898
 4849TIP3    H114511   3.403   3.960   2.096  0.6921  0.1881 -0.6581
 4849TIP3    H214512   3.388   3.822   2.156 -1.0477  1.0225  0.9515
 4850TIP3   OH214513   1.707   6.195   5.401  0.2003 -0.2491 -0.1984
 4850TIP3    H114514   1.614   6.177   5.386 -0.4119  0.9443  1.8172
 4850TIP3    H214515   1.717   6.287   5.380  1.2471 -0.6505 -1.5868
 4851TIP3   OH214516   4.873   4.808   2.158  0.1858  0.4914 -0.5743
 4851TIP3    H114517   4.835   4.724   2.185  2.3728 -0.8012 -1.2854
 4851TIP3    H214518   4.867   4.863   2.236  0.4433 -0.9699  0.5200
 4852TIP3   OH214519   0.192   2.470   3.677 -0.0993 -0.0520 -0.1671
 4852TIP3    H114520   0.129   2.542   3.669 -1.3635 -0.6290  2.8834
 4852TIP3    H214521   0.276   2.509   3.655 -1.0938  1.5880 -1.3379
 4853TIP3   OH214522   6.647   5.529   0.388  0.3520  0.3490 -0.3143
 4853TIP3    H114523   6.714   5.546   0.322 -0.9877  0.2111 -1.7615
 4853TIP3    H214524   6.565   5.529   0.340 -0.7839  1.1499  1.5179
 4854TIP3   OH214525   5.730   6.194   3.197 -0.1741 -0.7845 -0.0337
 4854TIP3    H114526   5.699   6.281   3.174 -0.3088 -0.9685 -0.5611
 4854TIP3    H214527   5.689   6.175   3.282 -0.5045 -0.5228 -0.1353
 4855TIP3   OH214528   2.790   2.461   2.705 -0.3433 -0.5532 -0.1503
 4855TIP3    H114529   2.823   2.389   2.652 -0.8887 -0.2849 -0.8859
 4855TIP3    H214530   2.781   2.534   2.642  0.3690  0.2111  0.6034
 4856TIP3   OH214531   2.000   0.317   5.633  0.4531 -0.4252 -0.4324
 4856TIP3    H114532   2.083   0.290   5.594  1.2226  1.0381  0.1176
 4856TIP3    H214533   1.985   0.255   5.704  1.5369 -0.1890  0.0182
 4857TIP3   OH214534   5.265   5.815   5.840  0.3434  0.2790 -0.1538
 4857TIP3    H114535   5.305   5.757   5.905 -0.4463 -1.2112 -0.9467
 4857TIP3    H214536   5.339   5.854   5.794  0.9648 -1.9304 -1.1593
 4858TIP3   OH214537   0.678   2.143   4.146 -0.3175 -0.1016 -0.0669
 4858TIP3    H114538   0.760   2.096   4.158  0.6499  2.1930  4.0021
 4858TIP3    H214539   0.696   2.203   4.073  1.6495  0.2806  0.6668
 4859TIP3   OH214540   6.629   4.902   0.119  0.1792  0.6255  0.4404
 4859TIP3    H114541   6.658   4.858   0.039  1.2056 -0.3416  1.2968
 4859TIP3    H214542   6.672   4.988   0.116  0.5753  0.4229  0.1610
 4860TIP3   OH214543   2.439   3.401   4.231 -0.0176 -0.0500  0.5320
 4860TIP3    H114544   2.406   3.314   4.250  1.7884 -0.5906  1.4576
 4860TIP3    H214545   2.393   3.428   4.151 -3.1921 -0.3448  2.1317
 4861TIP3   OH214546   6.196   6.269   3.478  0.1348 -0.4260  0.3551
 4861TIP3    H114547   6.126   6.220   3.521 -0.1531 -0.7898 -0.4990
 4861TIP3    H214548   6.261   6.283   3.547 -0.5523 -0.5169  1.0351
 4862TIP3   OH214549   5.969   5.961   4.789  0.2607  0.6967 -0.4985
 4862TIP3    H114550   5.886   6.007   4.785  0.0141  0.1819 -1.4428
 4862TIP3    H214551   6.012   5.996   4.868 -1.0867  0.5367  0.3305
 4863TIP3   OH214552   3.455   0.474   0.185 -0.4788 -1.0052  0.1804
 4863TIP3    H114553   3.510   0.512   0.254  2.3689 -1.1427 -1.8175
 4863TIP3    H214554   3.452   0.542   0.117 -2.3692 -1.2430 -0.0311
 4864TIP3   OH214555   1.310   3.358   5.677  0.1575  0.0777 -0.0429
 4864TIP3    H114556   1.399   3.392   5.666  0.0682  0.9300  1.6082
 4864TIP3    H214557   1.319   3.286   5.739 -0.4782  1.2828  1.5264
 4865TIP3   OH214558   3.795   1.225   2.318 -0.3959 -0.8848  0.2550
 4865TIP3    H114559   3.742   1.258   2.390 -0.0120 -0.6194  0.4222
 4865TIP3    H214560   3.861   1.169   2.361 -0.5234 -1.1900  0.0543
 4866TIP3   OH214561   0.115   4.691   1.798 -0.1918  0.0283 -0.2136
 4866TIP3    H114562   0.075   4.719   1.880 -0.2375  0.9122 -0.5277
 4866TIP3    H214563   0.120   4.596   1.805 -2.3282 -0.1201 -0.1587
 4867TIP3   OH214564   2.730   5.977   2.158 -0.0427 -0.1008 -0.4688
 4867TIP3    H114565   2.707   5.886   2.137  0.9731 -1.1819  2.5214
 4867TIP3    H214566   2.806   5.996   2.103  1.0886 -1.9016  0.3905
 4868TIP3   OH214567   0.806   3.817   5.237  0.7945  0.3374  0.2976
 4868TIP3    H114568   0.900   3.819   5.218  0.4386  0.4001 -1.6693
 4868TIP3    H214569   0.781   3.725   5.228  0.4916  0.4656 -0.2304
 4869TIP3   OH214570   1.982   6.501   2.851  0.0751  0.0495 -0.0318
 4869TIP3    H114571   1.955   6.540   2.934  2.5604  0.3569  0.7107
 4869TIP3    H214572   2.000   6.575   2.794  3.0091  0.0832  0.7846
 4870TIP3   OH214573   6.780   0.018   1.229 -0.3541 -0.3252  0.2234
 4870TIP3    H114574   6.711   0.084   1.233  0.5846  0.6475  0.7662
 4870TIP3    H214575   6.846   0.055   1.171 -0.2107 -1.1882 -0.1852
 4871TIP3   OH214576   5.320   3.190   2.066  0.5212  0.4973  0.3254
 4871TIP3    H114577   5.293   3.164   1.978 -1.8958 -1.5959  1.5673
 4871TIP3    H214578   5.404   3.146   2.079  0.1653 -0.4100 -0.3921
 4872TIP3   OH214579   4.210   6.209   5.514  0.3787  0.2297 -0.0560
 4872TIP3    H114580   4.180   6.210   5.605  0.7644 -3.2791  0.2438
 4872TIP3    H214581   4.143   6.258   5.466 -0.5254  1.0338  1.9028
 4873TIP3   OH214582   4.107   5.883   1.718  0.0225  0.7361 -0.1445
 4873TIP3    H114583   4.172   5.910   1.782  0.1132 -0.0052  0.0802
 4873TIP3    H214584   4.158   5.842   1.648  0.0926  2.9772 -1.4968
 4874TIP3   OH214585   0.375   6.343   1.516  0.3981 -0.4674  0.0879
 4874TIP3    H114586   0.420   6.399   1.580  0.3817 -2.5269  2.0151
 4874TIP3    H214587   0.343   6.404   1.450  1.6720  1.6194  1.2791
 4875TIP3   OH214588   4.874   5.173   4.767 -0.0870  0.3172 -0.1658
 4875TIP3    H114589   4.892   5.110   4.837 -0.7791 -1.7207 -1.7024
 4875TIP3    H214590   4.920   5.137   4.691  1.1777  2.8054 -0.6642
 4876TIP3   OH214591   4.923   6.008   0.154  0.3865 -0.0714  0.2339
 4876TIP3    H114592   4.991   5.958   0.108 -0.0208 -0.2511 -0.1737
 4876TIP3    H214593   4.919   6.091   0.106 -1.3839 -0.9721 -1.3011
 4877TIP3   OH214594   5.554   1.652   5.371 -0.2240  0.0531  0.3969
 4877TIP3    H114595   5.613   1.593   5.417  0.6002  1.4658  1.2172
 4877TIP3    H214596   5.608   1.692   5.303  0.3354  2.5249  2.1205
 4878TIP3   OH214597   1.340   4.575   1.489 -0.4424  0.7702  0.2453
 4878TIP3    H114598   1.337   4.560   1.584 -0.3190 -2.7593 -0.1578
 4878TIP3    H214599   1.426   4.613   1.474  0.1359  0.0312  1.4537
 4879TIP3   OH214600   4.823   3.212   3.179 -0.1890  0.0927 -0.0267
 4879TIP3    H114601   4.764   3.265   3.232  0.3564  0.7512 -0.0659
 4879TIP3    H214602   4.910   3.234   3.210  0.0687 -0.5614 -0.2515
 4880TIP3   OH214603   4.429   1.958   2.152 -0.1720 -0.3890  0.3687
 4880TIP3    H114604   4.434   1.966   2.057 -0.3774  1.1158  0.4669
 4880TIP3    H214605   4.518   1.976   2.182 -0.1245 -0.7895  0.4753
 4881TIP3   OH214606   4.799   2.936   3.912 -0.5161  0.0336  0.2995
 4881TIP3    H114607   4.854   3.005   3.950  0.3237 -0.0886 -0.6526
 4881TIP3    H214608   4.710   2.968   3.923 -0.2200  0.6317  1.1107
 4882TIP3   OH214609   1.068   2.147   5.798 -0.3760  0.2302 -0.2665
 4882TIP3    H114610   1.022   2.225   5.829 -0.5835  0.5546 -1.3429
 4882TIP3    H214611   1.037   2.135   5.709 -1.6977 -2.1436  0.4236
 4883TIP3   OH214612   7.018   4.724   1.774  0.3678  1.0382  0.3680
 4883TIP3    H114613   7.087   4.695   1.834  1.6722 -0.0704 -1.5871
 4883TIP3    H214614   7.024   4.820   1.775 -0.4855  1.1463  2.8794
 4884TIP3   OH214615   4.259   2.172   3.640  0.1204 -0.0464  0.3272
 4884TIP3    H114616   4.276   2.244   3.579 -1.2172 -0.4892 -0.6164
 4884TIP3    H214617   4.292   2.094   3.595  0.0250 -0.2425  0.5943
 4885TIP3   OH214618   2.364   3.919   4.194 -0.1748  0.4213 -0.2816
 4885TIP3    H114619   2.416   3.858   4.247  0.3305  1.2393  0.1905
 4885TIP3    H214620   2.410   4.003   4.202 -1.2799  1.0481 -0.2772
 4886TIP3   OH214621   6.625   4.785   1.546 -0.0950  0.4553 -0.7279
 4886TIP3    H114622   6.662   4.788   1.634 -0.4366 -0.1445 -0.5544
 4886TIP3    H214623   6.656   4.865   1.504 -0.1399  0.8746  0.0173
 4887TIP3   OH214624   5.023   6.616   1.051 -0.0296  0.6417 -0.3995
 4887TIP3    H114625   5.014   6.608   0.956 -2.5981 -0.1589 -0.1643
 4887TIP3    H214626   4.992   6.532   1.085  0.5033  1.0513  1.1526
 4888TIP3   OH214627   2.864   2.110   2.862  0.5433  0.1996 -0.5082
 4888TIP3    H114628   2.846   2.106   2.769  2.2072 -0.0444 -0.8538
 4888TIP3    H214629   2.889   2.021   2.886 -0.0274  0.2216  0.2156
 4889TIP3   OH214630   4.737   3.558   2.091  0.3382 -0.4503  0.2886
 4889TIP3    H114631   4.646   3.541   2.115 -0.5090  1.9268 -0.8619
 4889TIP3    H214632   4.768   3.621   2.156  1.3162 -1.5165  0.8848
 4890TIP3   OH214633   5.248   5.853   5.352 -0.4955  0.1676  0.0360
 4890TIP3    H114634   5.258   5.937   5.397  2.8910 -0.3165  0.4581
 4890TIP3    H214635   5.277   5.869   5.263 -1.6528 -0.1757 -0.4244
 4891TIP3   OH214636   4.902   6.126   3.664 -0.4873  0.2254 -0.3440
 4891TIP3    H114637   4.907   6.031   3.678 -0.9632  0.4267  1.4463
 4891TIP3    H214638   4.862   6.136   3.578 -0.5527 -1.1963 -0.5023
 4892TIP3   OH214639   5.465   1.996   0.136 -0.3810 -0.1173  0.2839
 4892TIP3    H114640   5.426   1.984   0.223 -0.9769 -1.1123 -0.1016
 4892TIP3    H214641   5.499   2.085   0.137  1.4104 -0.7417  2.2518
 4893TIP3   OH214642   4.577   6.068   4.588 -0.8065 -0.2393  0.2379
 4893TIP3    H114643   4.622   6.065   4.503  1.1151 -0.5508  1.2265
 4893TIP3    H214644   4.580   6.160   4.614 -0.7876 -0.2542  0.2886
 4894TIP3   OH214645   3.121   4.698   2.948 -0.2038 -0.0034  0.9800
 4894TIP3    H114646   3.211   4.674   2.924  0.1401  1.5519  0.5357
 4894TIP3    H214647   3.122   4.701   3.044 -0.6374 -2.8825  1.1602
 4895TIP3   OH214648   0.638   2.350   0.305  0.0537 -0.4038 -0.2087
 4895TIP3    H114649   0.661   2.434   0.346  0.6794 -0.0184 -1.2959
 4895TIP3    H214650   0.652   2.285   0.374  0.4069  0.2851  0.3898
 4896TIP3   OH214651   6.063   0.022   3.870 -0.2692 -0.2991 -0.8767
 4896TIP3    H114652   6.151   0.049   3.842  0.3903 -0.2407  1.0825
 4896TIP3    H214653   6.074  -0.068   3.899 -0.4942  0.1540  0.7247
 4897TIP3   OH214654   4.948   4.137   5.029 -0.0618 -1.1530  0.0706
 4897TIP3    H114655   4.928   4.196   4.956 -0.2810 -0.0668  0.9876
 4897TIP3    H214656   4.867   4.131   5.079 -0.2411 -2.7735 -0.3361
 4898TIP3   OH214657   1.018   4.428   0.956  0.1781 -0.2048 -0.5041
 4898TIP3    H114658   1.028   4.347   0.907 -0.7381 -0.6770  0.0664
 4898TIP3    H214659   1.012   4.496   0.889  2.5646 -0.3557 -0.9798
 4899TIP3   OH214660   1.534   3.618   2.018 -0.3386  0.0331  0.0324
 4899TIP3    H114661   1.487   3.539   2.046  0.1944 -0.2392  0.1897
 4899TIP3    H214662   1.466   3.683   2.004 -0.6715  0.0935  1.6638
 4900TIP3   OH214663   5.708   1.183   1.879  0.0251  0.7686 -0.6123
 4900TIP3    H114664   5.781   1.175   1.941  1.1317  1.6233 -1.7440
 4900TIP3    H214665   5.704   1.277   1.860 -1.7181  0.7984 -0.2104
 4901TIP3   OH214666   3.401   4.851   0.112  0.0074  0.2074 -0.5008
 4901TIP3    H114667   3.446   4.930   0.143  2.4511 -1.6196  0.9757
 4901TIP3    H214668   3.334   4.835   0.178  0.0723  0.5779 -0.3393
 4902TIP3   OH214669   4.226   4.669   3.725  0.0928 -0.0597  0.1500
 4902TIP3    H114670   4.269   4.640   3.645 -0.2382 -0.2735  0.0476
 4902TIP3    H214671   4.281   4.741   3.757 -0.0973  0.4296 -0.5954
 4903TIP3   OH214672   7.137   5.708   0.110 -0.1402 -0.4635  0.5465
 4903TIP3    H114673   7.207   5.652   0.076 -1.4430 -1.9736  0.2435
 4903TIP3    H214674   7.129   5.777   0.044  0.9526 -0.3251  0.5271
 4904TIP3   OH214675   0.733   6.448   3.856  0.0807  0.1076  0.7434
 4904TIP3    H114676   0.650   6.492   3.877  0.5578  1.4361 -0.0270
 4904TIP3    H214677   0.783   6.513   3.806  0.9969 -1.1962 -0.1055
 4905TIP3   OH214678   4.793   6.616   1.802 -0.0482 -0.0771  0.0058
 4905TIP3    H114679   4.732   6.581   1.736 -0.8145 -0.1115  0.7116
 4905TIP3    H214680   4.821   6.539   1.851 -2.5452  0.2999  2.2393
 4906TIP3   OH214681   3.581   4.554   5.229  0.7956 -0.3989  0.2542
 4906TIP3    H114682   3.520   4.628   5.224  0.0280 -1.0947 -1.0809
 4906TIP3    H214683   3.650   4.576   5.167  1.5638  0.0413  1.2279
 4907TIP3   OH214684   4.506   2.334   1.085  0.3567 -0.2442 -0.2253
 4907TIP3    H114685   4.507   2.306   1.177  0.9934 -0.5828 -0.3300
 4907TIP3    H214686   4.568   2.275   1.041  2.2656  1.7114 -0.3395
 4908TIP3   OH214687   1.989   6.186   1.916  0.3477  0.4249  0.0906
 4908TIP3    H114688   2.024   6.216   1.832 -0.3807  0.8437 -0.0691
 4908TIP3    H214689   1.922   6.121   1.892 -1.9670  2.6423  0.1742
 4909TIP3   OH214690   5.579   3.352   5.619  0.1844 -0.0866 -0.0806
 4909TIP3    H114691   5.615   3.368   5.707 -0.3672  1.6357 -0.1157
 4909TIP3    H214692   5.488   3.383   5.625 -0.3756 -1.5387 -0.8165
 4910TIP3   OH214693   5.679   4.292   3.547 -0.2725  0.0680  0.2381
 4910TIP3    H114694   5.588   4.320   3.551 -0.7037 -0.3345 -3.3172
 4910TIP3    H214695   5.715   4.312   3.634 -3.9588 -0.7381  2.1352
 4911TIP3   OH214696   3.880   3.106   3.961 -0.4694  0.3804  0.7869
 4911TIP3    H114697   3.923   3.021   3.946  2.1067  1.4680  1.4528
 4911TIP3    H214698   3.902   3.128   4.051 -1.8924  1.3593  0.9199
 4912TIP3   OH214699   1.427   6.323   2.653 -0.2921 -1.0728  0.1760
 4912TIP3    H114700   1.479   6.340   2.575 -0.7237 -2.2604 -0.3897
 4912TIP3    H214701   1.466   6.244   2.691  1.5098  0.8049  2.5872
 4913TIP3   OH214702   3.795   3.984   5.368  0.1173 -0.0876 -0.4249
 4913TIP3    H114703   3.822   4.031   5.289 -1.6522 -1.0255 -1.6746
 4913TIP3    H214704   3.763   4.052   5.426 -0.3242  0.4743 -1.2989
 4914TIP3   OH214705   0.917   5.221   3.742  0.0884  0.0342 -0.1100
 4914TIP3    H114706   0.965   5.165   3.681  0.9317 -1.6548  1.9786
 4914TIP3    H214707   0.825   5.207   3.720  0.3670 -0.4936 -1.0186
 4915TIP3   OH214708   0.503   3.458   4.277 -0.2815  0.1756 -0.0224
 4915TIP3    H114709   0.482   3.389   4.340  0.4222 -1.0498 -1.1027
 4915TIP3    H214710   0.503   3.538   4.330 -1.6048 -0.5545  1.1655
 4916TIP3   OH214711   4.970   3.378   1.993 -0.1840 -0.7541  0.1435
 4916TIP3    H114712   4.900   3.328   2.034 -0.1016 -0.6181  0.4545
 4916TIP3    H214713   5.032   3.395   2.064 -0.6559  0.5789  0.2612
 4917TIP3   OH214714   2.535   3.396   2.275  0.0980 -0.3258  0.2262
 4917TIP3    H114715   2.475   3.470   2.261  1.0719  0.5505  0.5281
 4917TIP3    H214716   2.562   3.405   2.367 -1.1199 -2.1103  0.8144
 4918TIP3   OH214717   5.911   0.304   4.422 -0.1681  0.3488  0.3800
 4918TIP3    H114718   5.947   0.351   4.347 -0.1800  0.6219  0.5448
 4918TIP3    H214719   5.839   0.359   4.453 -1.3142 -0.6115 -0.4787
 4919TIP3   OH214720   3.602   1.388   3.453 -0.0948  0.3330  0.4108
 4919TIP3    H114721   3.637   1.319   3.510  0.3906  0.6308  0.4796
 4919TIP3    H214722   3.515   1.406   3.488 -0.1293 -0.0724  0.5445
 4920TIP3   OH214723   0.349   0.789   3.673  0.3401  0.2934  0.2259
 4920TIP3    H114724   0.341   0.839   3.592 -1.7619  0.4873  0.4883
 4920TIP3    H214725   0.271   0.734   3.675  1.5554 -1.5196  0.9694
 4921TIP3   OH214726   1.249   0.532   5.595 -0.2970  0.0743 -0.2626
 4921TIP3    H114727   1.219   0.452   5.551 -0.8924 -0.0689  0.3943
 4921TIP3    H214728   1.284   0.502   5.679 -1.0334  0.5537  0.2254
 4922TIP3   OH214729   4.770   3.805   5.095 -0.0027  0.0618  0.0208
 4922TIP3    H114730   4.813   3.855   5.026  0.7670  0.1268  0.5388
 4922TIP3    H214731   4.796   3.848   5.177  0.7985 -1.2572  0.4877
 4923TIP3   OH214732   1.380   6.753   0.657  0.1104  0.1332  0.3169
 4923TIP3    H114733   1.352   6.809   0.584 -0.7460 -1.1568 -0.3875
 4923TIP3    H214734   1.459   6.709   0.624 -2.2837 -3.3145 -1.4656
 4924TIP3   OH214735   3.698   2.637   3.679  0.4799 -0.0171  0.2256
 4924TIP3    H114736   3.743   2.612   3.599 -0.7651 -3.2743  0.4129
 4924TIP3    H214737   3.634   2.702   3.650 -0.2483 -1.4344 -1.5676
 4925TIP3   OH214738   5.809   4.529   2.348 -0.1412  0.4228  0.5785
 4925TIP3    H114739   5.813   4.444   2.392  0.7137  0.6040  0.8544
 4925TIP3    H214740   5.785   4.591   2.416 -0.4842  0.4492  0.4355
 4926TIP3   OH214741   6.431   0.411   4.954  1.0779 -0.3252  0.1652
 4926TIP3    H114742   6.465   0.322   4.955  3.1772  0.4158  0.7614
 4926TIP3    H214743   6.443   0.443   5.043  0.1625  0.4996  0.0142
 4927TIP3   OH214744   2.114   1.807   1.574  0.2952  0.5669  0.4612
 4927TIP3    H114745   2.119   1.743   1.504 -0.2514  2.8000 -1.7555
 4927TIP3    H214746   2.050   1.871   1.544  1.7165  2.8333  1.9397
 4928TIP3   OH214747   1.000   6.704   3.335  0.2670  0.1483 -0.2088
 4928TIP3    H114748   1.078   6.689   3.283 -0.3739  0.3877 -1.2751
 4928TIP3    H214749   0.929   6.665   3.284 -0.7870  2.6746 -0.8756
 4929TIP3   OH214750   4.775   0.455   2.271  0.1472  0.3335  0.1485
 4929TIP3    H114751   4.855   0.446   2.219 -0.6507 -2.1142 -0.8043
 4929TIP3    H214752   4.807   0.468   2.361  1.5895  0.5937 -0.3718
 4930TIP3   OH214753   6.828   2.131   1.231 -0.5069 -0.2274 -0.1799
 4930TIP3    H114754   6.817   2.212   1.281 -0.5367 -0.9115  0.9379
 4930TIP3    H214755   6.897   2.152   1.168 -1.1932  0.9739 -0.5743
 4931TIP3   OH214756   1.499   3.146   5.119 -0.3051 -0.6697 -0.2658
 4931TIP3    H114757   1.492   3.175   5.210 -0.3021 -0.8013 -0.2235
 4931TIP3    H214758   1.412   3.113   5.097 -0.2406 -0.8661 -0.2309
 4932TIP3   OH214759   3.554   1.859   0.204  0.2685  0.2321  0.2766
 4932TIP3    H114760   3.627   1.804   0.232 -0.7934 -1.7156 -0.5119
 4932TIP3    H214761   3.594   1.929   0.152  1.5897 -0.8141 -0.1765
 4933TIP3   OH214762   4.490   0.833   2.258 -0.0996  0.0089 -0.3804
 4933TIP3    H114763   4.394   0.835   2.259 -0.0913  0.6275  1.2913
 4933TIP3    H214764   4.511   0.747   2.222 -1.3117 -0.8199  0.7762
 4934TIP3   OH214765   6.770   1.141   3.163 -0.3694 -0.1766 -0.3528
 4934TIP3    H114766   6.842   1.201   3.185  1.2690 -2.2665  0.3797
 4934TIP3    H214767   6.796   1.104   3.078 -1.3579  0.1283 -0.7964
 4935TIP3   OH214768   5.068   5.943   5.715  0.0401  0.3092 -0.1351
 4935TIP3    H114769   5.145   5.908   5.760 -0.1567  1.6406  1.3191
 4935TIP3    H214770   4.995   5.919   5.771 -0.3756  0.8516 -0.4436
 4936TIP3   OH214771   6.894   3.602   2.020 -0.2134  0.0264  0.5632
 4936TIP3    H114772   6.930   3.520   2.054  0.2763  0.1316  0.3008
 4936TIP3    H214773   6.966   3.642   1.973 -1.3639 -1.0306 -2.2958
 4937TIP3   OH214774   1.946   3.495   5.736 -0.7078 -0.1713  0.0040
 4937TIP3    H114775   1.948   3.574   5.790  1.1322 -0.0940 -0.1376
 4937TIP3    H214776   2.027   3.449   5.756 -1.7580 -2.0998  0.1335
 4938TIP3   OH214777   4.888   5.717   4.860 -0.0999 -0.6829 -0.2722
 4938TIP3    H114778   4.907   5.804   4.896  0.2608 -0.1885 -1.6121
 4938TIP3    H214779   4.934   5.657   4.919  1.2140  0.1584 -0.3782
 4939TIP3   OH214780   2.721   0.490   3.689  0.4034  0.0124  0.0311
 4939TIP3    H114781   2.784   0.531   3.630 -0.6150 -0.5394 -1.5124
 4939TIP3    H214782   2.749   0.398   3.695  0.3057 -0.0122  0.1272
 4940TIP3   OH214783   2.745   1.738   5.846 -0.3622 -0.1224  0.2743
 4940TIP3    H114784   2.716   1.720   5.936  1.1345  0.2043  0.8496
 4940TIP3    H214785   2.704   1.669   5.794 -0.9146 -0.5716  1.2711
 4941TIP3   OH214786   2.710   4.833   2.319 -0.2673  0.3831  0.2324
 4941TIP3    H114787   2.690   4.912   2.269  2.0896  0.7807 -0.2295
 4941TIP3    H214788   2.805   4.822   2.308 -0.2318 -1.4257  1.8800
 4942TIP3   OH214789   0.704   6.442   5.196  0.3728  0.1495 -0.6568
 4942TIP3    H114790   0.734   6.425   5.107 -0.0879 -1.4464 -0.5352
 4942TIP3    H214791   0.631   6.504   5.185 -0.0809 -0.5088 -1.4528
 4943TIP3   OH214792   5.195   5.263   1.942  0.1874  0.5686 -0.4341
 4943TIP3    H114793   5.137   5.221   2.006  0.2606  2.6939  1.1165
 4943TIP3    H214794   5.213   5.194   1.878  0.8845 -1.9934  2.2824
 4944TIP3   OH214795   5.434   6.664   5.264  0.3630 -0.1933 -0.5883
 4944TIP3    H114796   5.379   6.632   5.193 -0.4079  0.4885 -0.3074
 4944TIP3    H214797   5.382   6.731   5.308  0.6007 -0.9478  0.9515
 4945TIP3   OH214798   5.630   2.769   4.153 -0.1870 -0.1592 -0.9080
 4945TIP3    H114799   5.649   2.702   4.218 -0.5833 -0.7375 -1.3770
 4945TIP3    H214800   5.538   2.756   4.131 -0.3704  0.7890 -0.7236
 4946TIP3   OH214801   7.110   4.847   5.762 -0.4656 -0.0493  0.7979
 4946TIP3    H114802   7.148   4.847   5.850 -0.9276 -0.4340  1.0018
 4946TIP3    H214803   7.113   4.939   5.735  1.3728 -0.1838  0.4600
 4947TIP3   OH214804   1.728   4.180   3.723 -0.3013  0.1251  0.0666
 4947TIP3    H114805   1.816   4.141   3.727 -0.2723  0.0100 -1.2350
 4947TIP3    H214806   1.671   4.108   3.697 -0.6164  0.4500 -0.1421
 4948TIP3   OH214807   5.650   1.042   3.158 -0.4619 -0.5229  0.1363
 4948TIP3    H114808   5.654   0.953   3.122  0.9953 -0.3182 -0.2768
 4948TIP3    H214809   5.562   1.049   3.195  0.0416 -2.8615  2.0165
 4949TIP3   OH214810   7.014   5.026   3.956 -0.7118  0.0601  0.0949
 4949TIP3    H114811   7.096   4.979   3.939 -0.1653  0.9374  0.2281
 4949TIP3    H214812   6.945   4.961   3.939 -0.0009 -0.6589 -0.1292
 4950TIP3   OH214813   2.282   2.313   4.530 -0.5469  0.5150  0.4006
 4950TIP3    H114814   2.354   2.354   4.578  1.5174 -1.6268 -0.6666
 4950TIP3    H214815   2.286   2.351   4.443  0.2562 -0.6097 -0.0771
 4951TIP3   OH214816   0.826   3.980   3.100  0.2600 -0.0401 -0.2172
 4951TIP3    H114817   0.900   3.944   3.150  0.8809  2.8995  1.1911
 4951TIP3    H214818   0.770   3.905   3.083  3.1719 -2.3011 -0.7198
 4952TIP3   OH214819   6.350   2.496   1.324  0.1467  0.0973 -0.0706
 4952TIP3    H114820   6.446   2.503   1.333  0.0093  1.1485  0.7572
 4952TIP3    H214821   6.325   2.572   1.273 -0.0746 -1.1982 -2.0122
 4953TIP3   OH214822   3.350   4.006   5.426 -0.5253  0.5870 -0.4876
 4953TIP3    H114823   3.360   4.098   5.404 -0.8080  0.8806  0.5522
 4953TIP3    H214824   3.290   3.971   5.360 -0.0664  1.0285 -1.1497
 4954TIP3   OH214825   2.912   2.622   1.500  0.3106 -0.3049  0.6747
 4954TIP3    H114826   2.931   2.529   1.486 -1.8129 -0.5293 -1.3402
 4954TIP3    H214827   2.849   2.623   1.572  2.0037 -0.1666  2.2325
 4955TIP3   OH214828   2.518   4.560   3.548 -0.1172  0.7739 -0.1897
 4955TIP3    H114829   2.500   4.624   3.617 -0.1472 -0.0388  0.5819
 4955TIP3    H214830   2.433   4.519   3.531  0.4643 -1.6111  1.9699
 4956TIP3   OH214831   0.835   3.627   2.868 -0.5623 -0.1593 -0.3988
 4956TIP3    H114832   0.748   3.660   2.847 -1.5857 -0.7383  2.4522
 4956TIP3    H214833   0.821   3.536   2.895  0.7504  0.0012  1.0086
 4957TIP3   OH214834   4.077   4.784   4.207 -0.6080 -0.2033 -0.4855
 4957TIP3    H114835   4.045   4.694   4.219 -0.8550  0.0710  1.1916
 4957TIP3    H214836   4.011   4.839   4.250 -1.1364  0.9379 -2.5997
 4958TIP3   OH214837   3.121   4.023   2.743  0.5338 -0.1830  0.0744
 4958TIP3    H114838   3.124   4.116   2.764  0.4542 -0.4210  1.2279
 4958TIP3    H214839   3.054   4.016   2.675  1.2701  0.7191 -0.7651
 4959TIP3   OH214840   4.570   1.433   3.334  0.0551  0.2941 -0.1186
 4959TIP3    H114841   4.484   1.458   3.299  0.3065  1.8602  0.3277
 4959TIP3    H214842   4.631   1.452   3.262  0.0538 -0.6969 -0.3896
 4960TIP3   OH214843   2.934   0.663   2.504  0.1757 -0.4947  0.3237
 4960TIP3    H114844   2.962   0.630   2.589  0.7698  0.7659  0.6379
 4960TIP3    H214845   2.940   0.758   2.512 -1.7022 -0.2644 -0.4655
 4961TIP3   OH214846   3.244   1.458   3.140 -0.4237  0.0759  0.1151
 4961TIP3    H114847   3.159   1.415   3.145 -0.0405 -0.9254 -1.1881
 4961TIP3    H214848   3.301   1.405   3.196 -0.5665  0.5105  0.6729
 4962TIP3   OH214849   1.593   5.133   3.105 -0.1908  0.6378 -0.0461
 4962TIP3    H114850   1.598   5.169   3.016 -0.3699 -2.2437 -1.3453
 4962TIP3    H214851   1.678   5.090   3.118 -0.0460  1.2907  1.3464
 4963TIP3   OH214852   6.522   5.434   2.424 -0.0861  0.1907 -0.1455
 4963TIP3    H114853   6.512   5.343   2.397  2.0761 -0.4152  0.8942
 4963TIP3    H214854   6.614   5.455   2.406 -0.7637  2.5245 -1.3038
 4964TIP3   OH214855   6.957   0.415   1.985  0.3568  0.1685  0.2553
 4964TIP3    H114856   6.865   0.390   1.978 -0.0033  1.2286  0.9335
 4964TIP3    H214857   6.999   0.340   2.026 -0.7621  0.7424  2.6203
 4965TIP3   OH214858   5.155   5.333   1.336  0.2192 -0.3993  0.1755
 4965TIP3    H114859   5.062   5.330   1.312  0.6769 -0.4761 -1.7342
 4965TIP3    H214860   5.165   5.419   1.378 -0.3077  0.5212 -1.5032
 4966TIP3   OH214861   5.354   3.871   1.215 -0.0898 -0.2450  1.0917
 4966TIP3    H114862   5.405   3.849   1.292  0.9564 -0.1848  0.4332
 4966TIP3    H214863   5.346   3.967   1.218  3.3546  0.2620 -0.8686
 4967TIP3   OH214864   2.494   0.228   5.297  0.2711  0.7636  0.3805
 4967TIP3    H114865   2.564   0.182   5.344  0.6315 -0.1089 -0.9592
 4967TIP3    H214866   2.421   0.166   5.297  0.8725 -0.0439 -1.7386
 4968TIP3   OH214867   0.682   4.312   5.404 -0.5481  0.0557  0.5248
 4968TIP3    H114868   0.663   4.364   5.326 -0.1034 -2.1071 -1.1332
 4968TIP3    H214869   0.596   4.296   5.444 -0.9520  0.0635 -0.3133
 4969TIP3   OH214870   6.769   0.956   1.245  0.4840 -0.5201 -0.3504
 4969TIP3    H114871   6.824   0.970   1.322 -0.7257  0.8594  0.3279
 4969TIP3    H214872   6.806   1.015   1.178 -0.3592  0.7130  0.2336
 4970TIP3   OH214873   2.485   5.304   5.218 -0.4425  0.4785  0.4394
 4970TIP3    H114874   2.408   5.296   5.161 -0.0824 -1.8033  0.1865
 4970TIP3    H214875   2.449   5.301   5.307 -0.6390 -1.0790  0.3268
 4971TIP3   OH214876   5.685   3.438   0.681 -0.3994  0.3951  0.4428
 4971TIP3    H114877   5.769   3.433   0.634 -0.9771  1.1095 -0.7032
 4971TIP3    H214878   5.693   3.372   0.750  0.6138 -0.4563 -0.4422
 4972TIP3   OH214879   3.246   4.756   1.677 -0.7000 -0.7980  0.0900
 4972TIP3    H114880   3.304   4.681   1.668  2.1934  1.4671 -2.3826
 4972TIP3    H214881   3.302   4.832   1.657 -3.8029  1.8887  0.7476
 4973TIP3   OH214882   1.862   5.463   3.004 -0.3626  0.2501 -0.2124
 4973TIP3    H114883   1.861   5.423   2.917  0.4262  0.5923 -0.3832
 4973TIP3    H214884   1.895   5.551   2.990 -0.1301  0.2751  0.4514
 4974TIP3   OH214885   5.839   3.289   5.438  0.3454  0.7168  0.1934
 4974TIP3    H114886   5.822   3.359   5.500  0.8131  0.2960  0.8045
 4974TIP3    H214887   5.889   3.224   5.487  0.6462  0.3334 -0.5956
 4975TIP3   OH214888   4.962   1.555   2.279  0.2602 -0.6872  0.2165
 4975TIP3    H114889   4.868   1.554   2.296  0.4455 -0.3014  1.3567
 4975TIP3    H214890   4.977   1.632   2.224  0.0176 -0.2281  0.7837
 4976TIP3   OH214891   5.679   5.768   0.954 -0.1300 -0.1067 -0.8080
 4976TIP3    H114892   5.635   5.751   0.871  0.9297 -0.7885 -1.2497
 4976TIP3    H214893   5.614   5.815   1.006 -1.4748 -1.3284 -1.3187
 4977TIP3   OH214894   4.418   4.027  -0.013 -0.6268 -0.5294 -0.0981
 4977TIP3    H114895   4.420   4.031   0.083 -0.9848 -1.3461 -0.0561
 4977TIP3    H214896   4.505   3.995  -0.037 -1.0725 -1.8934  0.0415
 4978TIP3   OH214897   3.090   2.688   2.160  0.4539  0.5045  0.1856
 4978TIP3    H114898   3.178   2.727   2.166  0.4036  0.8515 -0.9713
 4978TIP3    H214899   3.072   2.657   2.248  1.4590  1.0486  0.6123
 4979TIP3   OH214900   4.691   2.515   5.809 -0.4491 -0.5684  0.6873
 4979TIP3    H114901   4.602   2.549   5.821  0.1403  1.2145  0.1600
 4979TIP3    H214902   4.739   2.586   5.768  1.5737 -1.0120  2.1414
 4980TIP3   OH214903   6.235   5.514   2.126 -0.3534  0.3459  0.5011
 4980TIP3    H114904   6.140   5.522   2.114 -0.3123  0.5734  0.3337
 4980TIP3    H214905   6.246   5.426   2.163 -0.6419  0.3724  0.6632
 4981TIP3   OH214906   6.879   0.185   0.093 -0.0386 -0.3883 -0.8573
 4981TIP3    H114907   6.864   0.261   0.036 -0.1026  1.7079  1.7849
 4981TIP3    H214908   6.974   0.186   0.109 -0.2950  0.4453  0.8058
 4982TIP3   OH214909   2.893   4.043   2.603 -0.1007  0.2113  0.1260
 4982TIP3    H114910   2.824   4.100   2.637 -0.0648 -0.2232  0.9457
 4982TIP3    H214911   2.864   4.021   2.514 -0.1682  1.4128 -0.1686
 4983TIP3   OH214912   3.549   3.947   3.560 -0.0793 -0.7176  0.0618
 4983TIP3    H114913   3.608   3.895   3.505  0.0493  0.3793 -0.8643
 4983TIP3    H214914   3.463   3.935   3.520 -0.1163 -0.5356  0.0888
 4984TIP3   OH214915   5.678   1.899   0.694  0.3593  0.6721 -0.1936
 4984TIP3    H114916   5.627   1.966   0.649 -0.0966  0.3573 -0.1434
 4984TIP3    H214917   5.657   1.817   0.649 -0.9140  0.1726  1.2141
 4985TIP3   OH214918   0.006   3.274   5.726  0.5893 -0.0271  0.1533
 4985TIP3    H114919   0.100   3.267   5.708  0.5039 -0.5156 -0.1403
 4985TIP3    H214920  -0.026   3.184   5.718  0.0941  0.1399  0.2355
 4986TIP3   OH214921   1.467   4.040   0.176  0.1776 -0.1447 -0.0234
 4986TIP3    H114922   1.544   3.991   0.150  0.1456 -0.0157 -0.3678
 4986TIP3    H214923   1.473   4.122   0.128  1.0825  0.8923  1.7829
 4987TIP3   OH214924   5.532   5.715   0.114  0.2825  0.6132 -0.4573
 4987TIP3    H114925   5.565   5.703   0.025  0.2629 -1.2427 -0.2534
 4987TIP3    H214926   5.608   5.740   0.166  0.5816  0.2839 -0.7359
 4988TIP3   OH214927   5.094   5.547   0.269  0.1152 -0.1427  0.8938
 4988TIP3    H114928   5.020   5.549   0.329 -0.5235  1.1962  0.1039
 4988TIP3    H214929   5.157   5.609   0.307 -0.2332  0.6042  0.2793
 4989TIP3   OH214930   1.454   0.125   0.241 -0.1780  0.3769  0.3388
 4989TIP3    H114931   1.450   0.183   0.164 -0.9671 -0.0179  0.0775
 4989TIP3    H214932   1.538   0.146   0.281 -0.9034  2.5505  0.9017
 4990TIP3   OH214933   5.832   0.291   4.856  0.2272 -0.0395 -0.4440
 4990TIP3    H114934   5.835   0.330   4.769 -1.8944  2.2147  0.3875
 4990TIP3    H214935   5.897   0.338   4.907 -0.4574  0.5958 -0.1346
 4991TIP3   OH214936   3.870   4.346   2.448 -0.0200  0.3786  0.4578
 4991TIP3    H114937   3.806   4.409   2.481  0.5440  0.6124  1.1469
 4991TIP3    H214938   3.942   4.350   2.511  1.0563  0.7600 -0.7573
 4992TIP3   OH214939   6.304   6.640   1.348 -0.2865 -0.0822 -0.2308
 4992TIP3    H114940   6.311   6.727   1.308 -0.6486  1.2759  2.4188
 4992TIP3    H214941   6.389   6.626   1.389 -0.5833 -0.5034  0.2526
 4993TIP3   OH214942   2.840   6.279   4.059 -0.9509 -0.1278 -0.2058
 4993TIP3    H114943   2.911   6.216   4.063 -1.7035 -0.9570  1.7656
 4993TIP3    H214944   2.776   6.240   3.999 -2.0065 -2.0257  1.9815
 4994TIP3   OH214945   3.571   1.021   4.604 -0.6407  0.2914 -0.8793
 4994TIP3    H114946   3.644   0.961   4.619 -1.8116 -1.0584 -0.3506
 4994TIP3    H214947   3.610   1.095   4.557  1.5684  0.8571  1.6186
 4995TIP3   OH214948   6.701   5.460   4.544 -0.1210 -0.1112 -0.0998
 4995TIP3    H114949   6.636   5.453   4.614 -0.8272  0.5677 -0.6798
 4995TIP3    H214950   6.740   5.373   4.538 -1.0814 -0.5637  0.1460
 4996TIP3   OH214951   3.579   6.386   4.849  0.6062 -0.1973  0.3823
 4996TIP3    H114952   3.673   6.378   4.834  1.0160  1.7356  1.4809
 4996TIP3    H214953   3.566   6.356   4.939  0.7012  2.0994  1.2381
 4997TIP3   OH214954   5.768   2.680   5.019 -0.6646  0.1391 -0.0345
 4997TIP3    H114955   5.726   2.724   5.093  0.6459  0.8937  0.3059
 4997TIP3    H214956   5.750   2.737   4.944 -1.8157 -0.5199 -0.2937
 4998TIP3   OH214957   0.475   5.896   5.395 -0.8778 -0.0459 -0.1209
 4998TIP3    H114958   0.395   5.945   5.378 -0.6908  1.0727  1.9586
 4998TIP3    H214959   0.473   5.877   5.489  1.1542 -0.2161 -0.0637
 4999TIP3   OH214960   1.037   6.535   4.020  0.1180 -0.4460  0.8493
 4999TIP3    H114961   0.993   6.587   3.953  1.5837 -0.3939 -0.1209
 4999TIP3    H214962   1.042   6.447   3.983  1.4133 -0.2990  0.6026
 5000TIP3   OH214963   2.480   2.162   1.688 -0.3708 -0.2690  0.1009
 5000TIP3    H114964   2.471   2.203   1.602  0.9399 -0.0855  0.0364
 5000TIP3    H214965   2.566   2.190   1.719 -0.7751 -0.4235  1.4282
 5001TIP3   OH214966   2.493   0.076   2.581  0.0976  0.0953 -0.3018
 5001TIP3    H114967   2.535   0.081   2.667 -0.5233  1.3032 -0.0432
 5001TIP3    H214968   2.562   0.101   2.520 -0.1149  1.7510  0.0917
 5002TIP3   OH214969   2.585   1.176   4.622  0.0977  0.2379 -0.2418
 5002TIP3    H114970   2.569   1.084   4.597  0.2600  0.5650 -1.6464
 5002TIP3    H214971   2.563   1.179   4.715 -0.9710 -0.9878 -0.4150
 5003TIP3   OH214972   3.871   0.874   3.634 -0.2836 -0.2617  0.6802
 5003TIP3    H114973   3.938   0.876   3.566 -0.1510  0.0660  0.8182
 5003TIP3    H214974   3.788   0.874   3.586 -0.2141  1.2744  0.5264
 5004TIP3   OH214975   1.540   3.134   3.753  0.2847 -0.7742 -0.0508
 5004TIP3    H114976   1.505   3.220   3.733  1.9762 -0.2112 -0.7188
 5004TIP3    H214977   1.470   3.073   3.727 -0.4789  0.3333 -0.6541
 5005TIP3   OH214978   1.616   3.712   4.152 -0.1901  0.3624  0.1090
 5005TIP3    H114979   1.624   3.785   4.091 -1.4982 -0.7707 -1.5119
 5005TIP3    H214980   1.642   3.635   4.101  1.9782 -0.2764  2.0200
 5006TIP3   OH214981   5.827   4.040   5.076  0.0711  0.1281 -0.2671
 5006TIP3    H114982   5.802   4.036   4.984  2.7640 -0.8291 -1.0383
 5006TIP3    H214983   5.782   3.965   5.116 -1.8772  1.0906 -0.5055
 5007TIP3   OH214984   6.194   2.446   0.299 -0.4189  0.1034  0.7758
 5007TIP3    H114985   6.277   2.401   0.285 -1.9986 -2.5634 -0.8854
 5007TIP3    H214986   6.192   2.513   0.231 -0.7668 -1.7220 -1.1197
 5008TIP3   OH214987   1.625   6.304   4.243 -0.6089 -0.8695  0.1374
 5008TIP3    H114988   1.601   6.350   4.163  1.2256 -1.1459 -0.6072
 5008TIP3    H214989   1.656   6.218   4.214 -3.6252 -2.5737  1.4618
 5009TIP3   OH214990   7.221   1.306   3.550 -0.1437  0.2149  0.6546
 5009TIP3    H114991   7.132   1.341   3.550 -0.0517  0.4484  0.6548
 5009TIP3    H214992   7.277   1.382   3.561  0.1324  0.2421 -0.8062
 5010TIP3   OH214993   6.545   2.763   5.665  0.3835 -0.2025 -0.8118
 5010TIP3    H114994   6.617   2.738   5.607  0.4561 -0.7972 -0.4769
 5010TIP3    H214995   6.471   2.709   5.636 -0.2240  1.1185 -1.8011
 5011TIP3   OH214996   2.276   3.253   1.083  0.7476  0.4341  0.0063
 5011TIP3    H114997   2.268   3.286   1.172  1.1939  2.5193 -0.6638
 5011TIP3    H214998   2.212   3.181   1.077  0.8521  0.1211  2.0220
 5012TIP3   OH214999   0.127   4.729   5.123  0.0852  0.7732 -0.5604
 5012TIP3    H115000   0.162   4.747   5.036 -0.8084  0.7345 -0.9306
 5012TIP3    H215001   0.189   4.667   5.161  0.6602  1.0423 -1.0329
 5013TIP3   OH215002   3.391   2.910   4.555  0.3015 -0.6086  0.0246
 5013TIP3    H115003   3.467   2.922   4.611 -0.7574  1.5602  1.1106
 5013TIP3    H215004   3.335   2.849   4.604 -0.1767  0.5142  0.9340
 5014TIP3   OH215005   1.802  -0.024   5.818  0.0819 -0.0829  0.1016
 5014TIP3    H115006   1.770   0.029   5.745  1.1459  1.2242  0.5316
 5014TIP3    H215007   1.866   0.033   5.863  0.7302 -1.4755  1.0293
 5015TIP3   OH215008   5.049   4.563   1.712 -0.1329 -0.9033  0.4001
 5015TIP3    H115009   5.114   4.517   1.658 -0.3523  1.2367 -1.8490
 5015TIP3    H215010   4.965   4.538   1.674 -0.2510  1.3428 -0.9937
 5016TIP3   OH215011   1.539   6.581   5.018  0.0279 -0.7540 -0.4159
 5016TIP3    H115012   1.472   6.645   4.994 -0.2643 -1.0843 -0.4737
 5016TIP3    H215013   1.621   6.622   4.991 -0.1282 -0.2412 -0.1183
 5017TIP3   OH215014   7.058   2.324   5.220 -0.4653  0.2789  0.5819
 5017TIP3    H115015   7.075   2.337   5.127  1.9225  0.1560  0.9449
 5017TIP3    H215016   7.035   2.231   5.228 -0.6469  0.2831  0.1093
 5018TIP3   OH215017   5.489   2.158   1.355 -0.2898 -0.3727  0.5618
 5018TIP3    H115018   5.492   2.223   1.286 -1.7708 -0.4900  0.3527
 5018TIP3    H215019   5.491   2.074   1.309 -1.9616 -0.4566  0.5630
 5019TIP3   OH215020   7.065   1.617   0.447 -0.0719  0.2405 -0.0950
 5019TIP3    H115021   7.034   1.576   0.527  0.6455  0.6360  0.3999
 5019TIP3    H215022   7.009   1.581   0.378 -0.9563  0.1876  0.6284
 5020TIP3   OH215023   4.096   5.463   5.304 -0.0283 -0.4297  0.3021
 5020TIP3    H115024   4.188   5.445   5.285 -0.4499 -1.4638 -0.9363
 5020TIP3    H215025   4.071   5.397   5.369 -0.2812 -1.1994 -0.5477
 5021TIP3   OH215026   5.736   3.718   0.959 -0.1032 -0.5552  0.6784
 5021TIP3    H115027   5.718   3.792   1.017 -2.2896 -1.3915  1.1832
 5021TIP3    H215028   5.778   3.757   0.883 -0.7894  1.1483  1.1206
 5022TIP3   OH215029   3.351   4.889   0.430  0.6764 -0.2063  0.1176
 5022TIP3    H115030   3.393   4.953   0.487  2.5992 -1.1323 -0.1450
 5022TIP3    H215031   3.382   4.804   0.463 -0.9853 -0.9574 -0.1621
 5023TIP3   OH215032   6.678   3.135   0.661  0.6140 -0.3926 -0.1932
 5023TIP3    H115033   6.768   3.148   0.630  0.4931 -1.2934 -0.9557
 5023TIP3    H215034   6.653   3.049   0.627 -0.3146 -0.4366  0.5610
 5024TIP3   OH215035   4.347   0.571   4.157  0.1545 -0.0663  0.6153
 5024TIP3    H115036   4.307   0.604   4.238  1.0428  2.9051 -0.0450
 5024TIP3    H215037   4.432   0.538   4.184  0.7853  1.6606  0.8490
 5025TIP3   OH215038   6.247   0.480   2.407 -0.2280 -0.1543  0.3181
 5025TIP3    H115039   6.154   0.495   2.390 -0.2373 -0.2285  0.3023
 5025TIP3    H215040   6.261   0.512   2.496 -0.2982 -0.2676  0.3706
 5026TIP3   OH215041   1.617   6.070   3.282 -0.0762  0.5301 -0.1970
 5026TIP3    H115042   1.533   6.116   3.274  1.2614  3.0664 -0.7019
 5026TIP3    H215043   1.612   5.999   3.218 -1.2908  1.5870 -1.3320
 5027TIP3   OH215044   4.383   2.206   5.507 -0.0156  0.6988 -0.1822
 5027TIP3    H115045   4.453   2.207   5.443 -0.2312  0.5259 -0.4243
 5027TIP3    H215046   4.346   2.294   5.504 -0.7088  0.3913 -1.0634
 5028TIP3   OH215047   2.935   2.360   0.746  0.1581 -0.2103 -0.3815
 5028TIP3    H115048   3.005   2.393   0.689 -0.0089  0.5440 -0.1641
 5028TIP3    H215049   2.928   2.267   0.724  0.9224 -0.1945 -0.7249
 5029TIP3   OH215050   2.474   1.944   4.986 -0.2649 -0.5190  0.1924
 5029TIP3    H115051   2.517   1.923   5.069  1.6458  0.4975 -0.4893
 5029TIP3    H215052   2.443   2.034   4.997  0.0716 -0.3482 -0.2030
 5030TIP3   OH215053   3.881   0.042   1.157  0.3915 -0.0769  0.3097
 5030TIP3    H115054   3.873   0.120   1.102  1.5956 -1.2168 -1.5964
 5030TIP3    H215055   3.795   0.001   1.153 -0.4699  1.4632  1.9145
 5031TIP3   OH215056   5.659   3.175   3.537 -0.2139  0.3208 -0.2336
 5031TIP3    H115057   5.650   3.115   3.464 -0.3638  0.3268 -0.2221
 5031TIP3    H215058   5.577   3.225   3.537 -0.4069  0.0088  0.2133
 5032TIP3   OH215059   5.935   2.571   5.737 -0.1071  0.6674 -0.5519
 5032TIP3    H115060   5.899   2.529   5.659  0.5641 -0.3356 -0.3362
 5032TIP3    H215061   5.986   2.502   5.780 -1.5381  0.7816  1.4900
 5033TIP3   OH215062   5.394   0.820   5.726 -0.1715  0.3005  0.1344
 5033TIP3    H115063   5.455   0.892   5.739 -0.0861  0.2048  0.2541
 5033TIP3    H215064   5.359   0.835   5.637  2.8005 -1.7024 -1.5483
 5034TIP3   OH215065   1.258   1.765   4.011 -0.0267  0.5296 -0.0448
 5034TIP3    H115066   1.275   1.683   3.966  0.4301  0.4995  0.1779
 5034TIP3    H215067   1.344   1.799   4.034 -0.1179  1.7799 -1.3826
 5035TIP3   OH215068   7.096   0.847   5.893 -0.1495 -0.0904  0.1004
 5035TIP3    H115069   7.129   0.799   5.817 -0.2945 -0.2634  0.1452
 5035TIP3    H215070   7.025   0.901   5.858 -0.4798 -0.4679  0.1830
 5036TIP3   OH215071   0.488   3.682   4.441  0.0342 -0.0465  0.3548
 5036TIP3    H115072   0.444   3.692   4.525 -0.3049 -1.4259  0.3494
 5036TIP3    H215073   0.576   3.717   4.456 -0.2056  0.2490  1.1052
 5037TIP3   OH215074   1.708   0.744   4.396  0.0664 -0.8397  0.6909
 5037TIP3    H115075   1.663   0.675   4.444  2.0703 -2.7123  0.0661
 5037TIP3    H215076   1.685   0.728   4.304 -0.2720  0.0068  0.6157
 5038TIP3   OH215077   5.950   1.771   0.161  0.2026 -0.1569 -0.2517
 5038TIP3    H115078   5.919   1.755   0.072  0.4108  0.9421 -0.5299
 5038TIP3    H215079   5.951   1.684   0.202 -0.5663 -0.5806 -1.0968
 5039TIP3   OH215080   6.961   0.657   0.937 -0.6036 -0.4567 -0.2489
 5039TIP3    H115081   7.032   0.718   0.959 -0.6545 -0.5865  0.2942
 5039TIP3    H215082   6.993   0.611   0.859 -0.0987 -0.4831 -0.0375
 5040TIP3   OH215083   5.878   2.856   4.351  0.5705 -0.0907  0.5027
 5040TIP3    H115084   5.941   2.828   4.286  3.1693 -1.0799  3.2041
 5040TIP3    H215085   5.821   2.780   4.364  0.3299 -0.0432 -0.2521
 5041TIP3   OH215086   6.170   2.351   2.842  0.0587  0.3789 -0.6346
 5041TIP3    H115087   6.214   2.404   2.909  0.7258 -0.5762 -0.2814
 5041TIP3    H215088   6.184   2.260   2.871 -1.2416  0.0060 -1.0953
 5042TIP3   OH215089   0.145   6.685   5.126 -0.1440  0.2889 -0.2141
 5042TIP3    H115090   0.127   6.704   5.034  0.2794 -2.8555 -1.0693
 5042TIP3    H215091   0.072   6.725   5.173 -2.1148 -0.6596 -2.2385
 5043TIP3   OH215092   5.365   1.543   0.831  0.9328 -0.2479 -0.1551
 5043TIP3    H115093   5.383   1.449   0.818  1.5414  0.0354 -1.5413
 5043TIP3    H215094   5.414   1.565   0.911  1.5598 -0.9072 -0.3373
 5044TIP3   OH215095   4.712   4.830   4.304 -0.5376 -0.3477  0.4194
 5044TIP3    H115096   4.702   4.734   4.303 -0.0467 -0.4051 -0.6366
 5044TIP3    H215097   4.805   4.844   4.283 -0.2970  0.3375  1.8665
 5045TIP3   OH215098   3.322   1.157   2.379  0.0657 -0.5467 -0.5809
 5045TIP3    H115099   3.283   1.104   2.310 -1.6454  0.8399 -0.7621
 5045TIP3    H215100   3.305   1.247   2.352  1.5927  0.0839  0.4271
 5046TIP3   OH215101   3.363   3.102   4.284  0.2297 -0.2297  0.0829
 5046TIP3    H115102   3.336   3.105   4.376 -0.5699  0.3222 -0.1599
 5046TIP3    H215103   3.359   3.009   4.261 -1.9882 -0.1510 -0.0735
 5047TIP3   OH215104   5.852   4.426   2.957 -0.1140 -0.1485 -0.0177
 5047TIP3    H115105   5.806   4.364   2.900  0.1956  1.1371 -1.7227
 5047TIP3    H215106   5.781   4.474   3.001 -0.4619  0.9114 -1.6367
 5048TIP3   OH215107   3.737   1.502   1.726  0.5300  0.1889 -0.3265
 5048TIP3    H115108   3.795   1.521   1.652  0.5675 -1.5503 -0.7869
 5048TIP3    H215109   3.662   1.458   1.687  0.4763 -0.6146  0.6562
 5049TIP3   OH215110   0.017   0.687   2.559  0.0466  0.2213  0.2060
 5049TIP3    H115111  -0.070   0.647   2.570 -0.5249  1.2587 -0.3333
 5049TIP3    H215112   0.074   0.614   2.535 -0.8600 -0.3528 -0.2829
 5050TIP3   OH215113   6.227   5.726   3.530  0.4287 -0.1556  0.2273
 5050TIP3    H115114   6.246   5.702   3.439  0.7929 -0.2647  0.3285
 5050TIP3    H215115   6.313   5.731   3.572  0.3225  0.7853  0.3463
 5051TIP3   OH215116   4.405   1.407   5.102  0.1488 -0.2546  0.6958
 5051TIP3    H115117   4.429   1.497   5.123 -0.8002 -0.4705  2.9062
 5051TIP3    H215118   4.321   1.414   5.056 -0.7986 -0.0668  2.3966
 5052TIP3   OH215119   2.056   5.135   0.962  0.1224  0.8294 -0.3141
 5052TIP3    H115120   2.026   5.215   0.920  2.6825  1.4694 -1.1228
 5052TIP3    H215121   2.152   5.142   0.960  0.3882 -1.5293  1.0202
 5053TIP3   OH215122   4.743   1.526   3.132 -0.0112 -0.0321 -0.6332
 5053TIP3    H115123   4.834   1.497   3.137 -0.3015 -1.0555 -0.9458
 5053TIP3    H215124   4.747   1.621   3.143  0.8751 -0.2870  1.6510
 5054TIP3   OH215125   1.069   2.744   0.041  0.0799 -0.5200  0.0732
 5054TIP3    H115126   1.129   2.670   0.037  1.0605  0.1795  1.0909
 5054TIP3    H215127   1.126   2.821   0.034 -0.7660  0.1506  0.3538
 5055TIP3   OH215128   5.303   5.011   4.827  0.7155 -0.0823  0.1968
 5055TIP3    H115129   5.295   5.011   4.731  2.2744 -0.4334  0.0368
 5055TIP3    H215130   5.390   5.047   4.844 -0.1701  1.5179  1.5854
 5056TIP3   OH215131   3.147   4.464   1.367  0.1203 -0.2156 -0.1577
 5056TIP3    H115132   3.223   4.445   1.311 -0.5722  0.3944 -1.3407
 5056TIP3    H215133   3.178   4.448   1.456  2.5694  2.7539 -0.3029
 5057TIP3   OH215134   0.601   1.262   2.628 -0.0260 -0.2680  0.0948
 5057TIP3    H115135   0.509   1.283   2.639  0.2757  0.1961  1.9713
 5057TIP3    H215136   0.638   1.264   2.716  1.4694 -1.9713 -0.4238
 5058TIP3   OH215137   2.209   0.339   4.401  0.5371  0.4703  0.3651
 5058TIP3    H115138   2.139   0.370   4.344  0.4235 -0.0919  0.1929
 5058TIP3    H215139   2.257   0.276   4.347 -0.5251 -1.2716  1.3983
 5059TIP3   OH215140   3.447   6.261   1.748  0.1182  0.1314  0.0707
 5059TIP3    H115141   3.399   6.299   1.821 -2.1972 -1.2545 -0.6119
 5059TIP3    H215142   3.387   6.266   1.674  0.7753 -2.1469 -0.7301
 5060TIP3   OH215143   2.830   6.277   2.145  0.1919 -0.0346 -0.6296
 5060TIP3    H115144   2.824   6.301   2.237 -0.6680 -0.4488 -0.5577
 5060TIP3    H215145   2.875   6.350   2.103  0.3039  0.3035  0.0648
 5061TIP3   OH215146   4.296   6.749   1.492  0.1513  0.4723 -0.1284
 5061TIP3    H115147   4.343   6.688   1.436 -1.5487 -0.2020 -0.8886
 5061TIP3    H215148   4.235   6.695   1.541  0.8229  1.1910  1.6119
 5062TIP3   OH215149   6.747   3.776   2.992 -0.5930  0.8462  0.4782
 5062TIP3    H115150   6.811   3.797   3.060 -1.2953 -0.7183  1.7017
 5062TIP3    H215151   6.683   3.847   2.996 -0.5506  0.8492  1.3745
 5063TIP3   OH215152   6.818   3.220   2.447  0.3717 -0.0669  0.0098
 5063TIP3    H115153   6.874   3.157   2.493  1.4209  1.2068  0.5347
 5063TIP3    H215154   6.804   3.291   2.509  0.2498  0.8048 -0.9791
 5064TIP3   OH215155   4.235   5.995   2.481  0.2461 -0.1111 -0.2842
 5064TIP3    H115156   4.167   5.964   2.422  0.1751 -1.5918  0.5298
 5064TIP3    H215157   4.194   5.996   2.567  1.6822 -2.9384  0.5762
 5065TIP3   OH215158   1.176   3.474   0.396  0.5194  0.5138  0.7889
 5065TIP3    H115159   1.166   3.542   0.462  1.8715  1.2390  0.2764
 5065TIP3    H215160   1.090   3.432   0.392 -0.6176  2.7285  0.5091
 5066TIP3   OH215161   4.156   1.086   2.218  0.2091  0.3292 -0.6433
 5066TIP3    H115162   4.117   1.033   2.287  1.0519  2.3299  1.4838
 5066TIP3    H215163   4.083   1.138   2.183  0.3331  1.9836  1.3680
 5067TIP3   OH215164   0.829   0.903   4.004  0.0388  0.5965 -0.2613
 5067TIP3    H115165   0.788   0.973   3.953  0.6905 -0.1168 -1.8312
 5067TIP3    H215166   0.910   0.884   3.957 -1.0838 -2.6161 -1.1536
 5068TIP3   OH215167   3.606   3.206   0.983  0.1341  0.5870  0.7565
 5068TIP3    H115168   3.545   3.276   1.007  0.7747  1.6894 -0.6886
 5068TIP3    H215169   3.633   3.227   0.894 -0.3733 -2.0515 -0.0993
 5069TIP3   OH215170   2.019   4.826   5.839 -0.2759  0.1765 -0.2002
 5069TIP3    H115171   2.101   4.851   5.796  0.0672 -1.6999 -0.7353
 5069TIP3    H215172   1.958   4.896   5.816  0.0116 -0.4468 -3.4276
 5070TIP3   OH215173   2.049   4.024   1.418  0.1393  0.1277 -0.6193
 5070TIP3    H115174   2.059   3.989   1.330  1.8941 -1.4293  0.1199
 5070TIP3    H215175   2.130   4.073   1.434  0.8293 -1.3518  0.7965
 5071TIP3   OH215176   6.373   0.105   2.451 -0.1194  0.7263 -0.1029
 5071TIP3    H115177   6.442   0.169   2.437 -1.5923  2.3210 -0.3102
 5071TIP3    H215178   6.418   0.030   2.490  1.9227  1.2052 -1.3981
 5072TIP3   OH215179   4.101   5.632   3.109  0.1017 -0.3763 -0.1141
 5072TIP3    H115180   4.114   5.658   3.018 -4.3589  2.3316 -0.2529
 5072TIP3    H215181   4.074   5.541   3.104 -1.4622  0.1114 -1.7661
 5073TIP3   OH215182   4.136   1.478   0.478 -0.1465  0.2101 -0.2177
 5073TIP3    H115183   4.107   1.567   0.498  0.5107  0.0945  1.3849
 5073TIP3    H215184   4.069   1.421   0.515 -0.0308  0.0240 -0.2914
 5074TIP3   OH215185   1.988   4.521   0.948 -0.4756 -0.2258  0.7886
 5074TIP3    H115186   1.910   4.503   1.001 -0.1764  1.0403  1.7024
 5074TIP3    H215187   1.967   4.602   0.900 -1.6005 -2.4069 -2.8273
 5075TIP3   OH215188   3.395   0.900   3.128  0.1191  0.2554 -0.0726
 5075TIP3    H115189   3.380   0.806   3.119  0.1997  0.3345 -1.2046
 5075TIP3    H215190   3.398   0.916   3.222  0.3992 -0.9253  0.1269
 5076TIP3   OH215191   5.575   2.565   1.548 -0.4686 -0.4965 -0.3136
 5076TIP3    H115192   5.505   2.585   1.610  1.1388  2.0274  0.8667
 5076TIP3    H215193   5.591   2.471   1.559 -1.6827 -0.5379  1.5291
 5077TIP3   OH215194   4.123   1.214   3.552 -0.9735 -0.0971 -0.2965
 5077TIP3    H115195   4.048   1.269   3.573 -0.3171  0.9667 -0.6698
 5077TIP3    H215196   4.199   1.269   3.569 -0.2894 -0.9778 -0.4328
 5078TIP3   OH215197   0.129   3.198   2.577  0.1838 -0.0485 -0.4507
 5078TIP3    H115198   0.084   3.245   2.648  1.0660  2.3237 -1.3624
 5078TIP3    H215199   0.102   3.107   2.588 -2.2919  0.7439  0.9655
 5079TIP3   OH215200   7.187   2.835   2.415  0.3152  0.5519  0.5257
 5079TIP3    H115201   7.105   2.810   2.371 -0.0679  3.4378 -0.6206
 5079TIP3    H215202   7.249   2.849   2.343  0.5409  2.4784  1.0405
 5080TIP3   OH215203   2.534   3.594   4.849 -0.4862 -0.0424 -0.2694
 5080TIP3    H115204   2.533   3.678   4.895 -0.1138  0.6010 -1.4130
 5080TIP3    H215205   2.496   3.533   4.912 -1.1667  1.0555  0.4255
 5081TIP3   OH215206   4.281   0.984   3.532 -0.5180  0.0619  0.1400
 5081TIP3    H115207   4.201   1.036   3.532  0.0917  1.0096 -0.2511
 5081TIP3    H215208   4.344   1.036   3.483 -0.2458 -1.6165 -1.3855
 5082TIP3   OH215209   0.972   0.579   0.434 -0.2999 -0.2481 -0.2634
 5082TIP3    H115210   0.878   0.597   0.445  0.0088  1.5138 -0.3002
 5082TIP3    H215211   1.006   0.575   0.523 -0.1206  0.8698 -0.2680
 5083TIP3   OH215212   4.013   1.456   2.371 -0.6722 -0.5878  0.3111
 5083TIP3    H115213   4.072   1.531   2.364 -0.2876 -0.8264  0.9586
 5083TIP3    H215214   4.021   1.426   2.461 -0.6297 -1.5605  0.0029
 5084TIP3   OH215215   7.058   3.398   5.230  0.3553 -0.5264  0.3754
 5084TIP3    H115216   7.034   3.321   5.281  0.4548  0.1719  1.5100
 5084TIP3    H215217   6.983   3.414   5.173 -0.1205 -0.8325  0.9058
 5085TIP3   OH215218   0.800   2.339   3.952 -0.4226 -0.0332  0.1213
 5085TIP3    H115219   0.886   2.344   3.995 -0.2162 -0.2413 -0.2528
 5085TIP3    H215220   0.819   2.358   3.860 -0.9209  0.8244  0.1855
 5086TIP3   OH215221   5.353   0.467   0.271 -0.1754 -0.1211 -0.2578
 5086TIP3    H115222   5.370   0.457   0.365  0.3594  0.2347 -0.3157
 5086TIP3    H215223   5.427   0.518   0.238 -0.8868  0.6499 -0.6915
 5087TIP3   OH215224   2.868   5.505   1.795 -0.0229 -0.5545 -0.7042
 5087TIP3    H115225   2.823   5.575   1.747 -0.7832 -0.7104 -0.2433
 5087TIP3    H215226   2.901   5.447   1.727 -0.5193 -0.4286 -1.0581
 5088TIP3   OH215227   1.878   6.318   2.681  0.0990 -0.0094 -0.1181
 5088TIP3    H115228   1.908   6.388   2.739 -3.0796  1.3591  0.0597
 5088TIP3    H215229   1.835   6.255   2.740  0.8579 -0.9817 -0.5603
 5089TIP3   OH215230   4.254   6.486   5.269  0.0390  0.2884  0.4341
 5089TIP3    H115231   4.272   6.468   5.177  0.1197  0.6669  0.3724
 5089TIP3    H215232   4.166   6.452   5.284  0.6387 -1.2431  0.6373
 5090TIP3   OH215233   6.376   3.449   2.473 -0.3026  0.0300  0.1682
 5090TIP3    H115234   6.325   3.388   2.525  0.6067  0.2843  1.3854
 5090TIP3    H215235   6.460   3.456   2.518  0.8536 -0.4090 -1.8066
 5091TIP3   OH215236   3.729   5.656   5.433 -0.1098  0.4491 -0.3543
 5091TIP3    H115237   3.745   5.603   5.511 -0.5394  0.7248 -0.0752
 5091TIP3    H215238   3.815   5.661   5.390 -0.1773 -0.9532 -0.7005
 5092TIP3   OH215239   4.962   0.521   0.516  0.6472 -0.4133  0.0129
 5092TIP3    H115240   5.012   0.446   0.483 -0.0408 -0.1648 -1.6705
 5092TIP3    H215241   4.904   0.545   0.445 -0.1995  0.8149  1.0662
 5093TIP3   OH215242   6.457   6.520   0.594  0.0922 -0.7219  0.0558
 5093TIP3    H115243   6.457   6.437   0.548 -1.6704 -0.5414 -0.3232
 5093TIP3    H215244   6.365   6.539   0.610  0.3575  1.6666 -0.8133
 5094TIP3   OH215245   1.818   4.268   4.011 -0.1131 -0.2334  0.3365
 5094TIP3    H115246   1.881   4.196   4.019  1.1298  0.2505 -3.1446
 5094TIP3    H215247   1.734   4.228   4.033  0.9032 -1.8949  1.4927
 5095TIP3   OH215248   0.675   3.884   4.913  0.1987  0.0729 -0.4074
 5095TIP3    H115249   0.680   3.946   4.986 -1.1176 -1.1111  0.7482
 5095TIP3    H215250   0.607   3.920   4.856  0.3227  0.3292 -0.3979
 5096TIP3   OH215251   1.525   5.699   2.313  0.1756  0.7932 -0.0686
 5096TIP3    H115252   1.492   5.775   2.360  1.4897  0.8169  0.8797
 5096TIP3    H215253   1.451   5.639   2.307 -0.6709  1.8279 -0.1755
 5097TIP3   OH215254   3.361   6.400   0.249 -0.0256 -0.1471 -0.3097
 5097TIP3    H115255   3.292   6.466   0.247 -1.1443 -1.2941 -0.4941
 5097TIP3    H215256   3.411   6.421   0.328  0.5805  1.8140 -1.1413
 5098TIP3   OH215257   5.977   3.348   0.804  0.4017 -0.4251 -0.1317
 5098TIP3    H115258   5.908   3.295   0.766  0.6891 -1.4927  0.8034
 5098TIP3    H215259   5.935   3.396   0.875  0.3221  0.0180 -0.4690
 5099TIP3   OH215260   4.394  -0.007   2.941  0.3300  0.1022 -0.1898
 5099TIP3    H115261   4.447   0.063   2.902  1.6470  0.2989  1.8140
 5099TIP3    H215262   4.344  -0.043   2.868  1.3525  1.5990 -1.6911
 5100TIP3   OH215263   1.149   3.635   0.606 -0.0638 -0.2702 -0.1315
 5100TIP3    H115264   1.147   3.571   0.676 -1.7163 -0.8928 -0.7164
 5100TIP3    H215265   1.176   3.717   0.649 -0.4152 -0.7743  1.0843
 5101TIP3   OH215266   7.117   4.922   2.263 -0.1524 -0.1092  0.2340
 5101TIP3    H115267   7.068   4.907   2.344 -0.8438  1.6995  0.2070
 5101TIP3    H215268   7.191   4.862   2.268 -2.0773 -2.6250  0.5085
 5102TIP3   OH215269   5.467   0.180   5.644 -0.2947  0.4683  0.0860
 5102TIP3    H115270   5.529   0.234   5.595  0.4208 -0.7578 -0.3907
 5102TIP3    H215271   5.445   0.234   5.720 -1.1706  2.2710 -1.3503
 5103TIP3   OH215272   0.430   3.300   3.489  0.9415 -0.3139 -0.0187
 5103TIP3    H115273   0.352   3.273   3.442  1.8793 -3.3534 -0.0892
 5103TIP3    H215274   0.482   3.349   3.425 -0.0989  0.1465 -0.5186
 5104TIP3   OH215275   1.032   2.626   4.034 -0.1857  0.0172  0.0421
 5104TIP3    H115276   0.996   2.633   4.123  1.2162 -1.2943  0.7687
 5104TIP3    H215277   1.063   2.535   4.028  1.2631  0.5533 -1.1787
 5105TIP3   OH215278   1.088   6.547   1.809 -0.1638 -0.0218 -0.0153
 5105TIP3    H115279   1.081   6.456   1.780 -1.3223  0.2996 -0.8631
 5105TIP3    H215280   1.179   6.571   1.792  0.1713 -1.0433  0.2989
 5106TIP3   OH215281   3.252   2.974   3.962  0.1344 -0.2416  0.4656
 5106TIP3    H115282   3.329   2.999   3.911  0.5616 -1.1024  0.6742
 5106TIP3    H215283   3.226   2.889   3.927 -2.2580  1.0903 -1.3167
 5107TIP3   OH215284   2.950   1.991   1.873 -0.1435 -0.7945 -0.1731
 5107TIP3    H115285   2.855   1.988   1.869 -0.1569 -0.8935  0.1840
 5107TIP3    H215286   2.976   1.905   1.907  0.0730 -0.7781 -0.2932
 5108TIP3   OH215287   4.144   3.203   1.507  0.0343  0.3433  0.2894
 5108TIP3    H115288   4.058   3.229   1.541 -0.3402 -0.4386 -0.0361
 5108TIP3    H215289   4.130   3.189   1.413  0.5615  0.4091  0.1991
 5109TIP3   OH215290   0.657   4.388   1.015  0.2773  0.2367  0.5831
 5109TIP3    H115291   0.577   4.429   1.047 -0.5017 -1.3961  0.8828
 5109TIP3    H215292   0.708   4.459   0.977 -2.3829  1.0307 -1.8105
 5110TIP3   OH215293   3.140   6.207   4.190 -0.5871  0.1192 -0.1839
 5110TIP3    H115294   3.104   6.131   4.145  0.4014 -1.1550  1.0453
 5110TIP3    H215295   3.084   6.218   4.267  0.1077 -0.2917  0.3964
 5111TIP3   OH215296   4.470   6.512   4.555 -0.6939 -0.3110  0.1502
 5111TIP3    H115297   4.537   6.473   4.499  0.0380 -1.0145  1.4696
 5111TIP3    H215298   4.387   6.490   4.512 -0.2080 -1.8116 -0.0792
 5112TIP3   OH215299   4.595   6.187   5.147  0.4987 -0.0418  0.1829
 5112TIP3    H115300   4.550   6.109   5.181 -0.0890  0.0399 -0.4034
 5112TIP3    H215301   4.647   6.218   5.221 -0.4975 -0.0620  0.9166
 5113TIP3   OH215302   3.466   2.162   5.060 -0.6332  0.1426  0.1734
 5113TIP3    H115303   3.423   2.214   4.992 -1.6633  0.4907  1.0581
 5113TIP3    H215304   3.506   2.089   5.013 -2.1082 -0.1441 -0.7190
 5114TIP3   OH215305   5.294   5.690   5.580 -0.7594 -0.2701 -0.7187
 5114TIP3    H115306   5.295   5.730   5.667 -0.9192 -1.5646 -0.0963
 5114TIP3    H215307   5.303   5.764   5.520 -1.5603  0.7391  0.3547
 5115TIP3   OH215308   0.067   5.487   4.092  0.1504  0.2197  0.7746
 5115TIP3    H115309  -0.004   5.521   4.039  2.0927 -0.1416 -2.3335
 5115TIP3    H215310   0.044   5.395   4.107 -0.7195  0.4869  1.1118
 5116TIP3   OH215311   2.709   1.342   3.277 -0.9067 -0.2191 -0.3095
 5116TIP3    H115312   2.762   1.419   3.300 -0.5674 -0.5103 -0.0886
 5116TIP3    H215313   2.721   1.282   3.351  0.4696 -1.3232 -1.3592
 5117TIP3   OH215314   6.322   5.690   1.127  0.1162  0.0141  0.4472
 5117TIP3    H115315   6.417   5.685   1.139  0.0722  0.1174  0.8639
 5117TIP3    H215316   6.301   5.782   1.141 -0.0811 -0.0561  0.6191
 5118TIP3   OH215317   3.344   0.353   1.738  0.5480  0.3422  0.3797
 5118TIP3    H115318   3.397   0.275   1.725 -0.7151 -0.2662 -1.3379
 5118TIP3    H215319   3.259   0.321   1.766 -0.4356  0.9521 -1.7195
 5119TIP3   OH215320   6.723   2.645   5.490  0.5021 -0.0760  0.0900
 5119TIP3    H115321   6.680   2.576   5.440 -1.0651 -0.2785  1.6136
 5119TIP3    H215322   6.754   2.707   5.424 -0.5795 -0.8211 -1.1717
 5120TIP3   OH215323   0.626   4.505   1.389  0.9573 -0.5489  0.3859
 5120TIP3    H115324   0.568   4.558   1.335  1.1973 -1.1709 -0.5031
 5120TIP3    H215325   0.572   4.431   1.419  0.8425 -0.2418  0.9616
 5121TIP3   OH215326   0.675   6.251   4.073 -0.0038  0.3627 -0.8712
 5121TIP3    H115327   0.680   6.309   3.996 -0.8227  0.4007 -0.8982
 5121TIP3    H215328   0.646   6.309   4.144 -2.6193 -0.3208 -1.2764
 5122TIP3   OH215329   7.109   1.556   3.179 -0.1026 -0.0624  0.2588
 5122TIP3    H115330   7.187   1.504   3.197  0.2010  0.6570  1.1055
 5122TIP3    H215331   7.092   1.604   3.261 -0.9570  0.4045 -0.1711
 5123TIP3   OH215332   7.234   3.030   2.967  0.4476 -0.5849  0.4043
 5123TIP3    H115333   7.256   3.120   2.994  0.2987 -0.6544  0.7570
 5123TIP3    H215334   7.155   3.040   2.914 -0.5946 -0.6855  1.8897
 5124TIP3   OH215335   0.802   0.739   4.444 -0.2976 -0.2092 -0.1467
 5124TIP3    H115336   0.800   0.807   4.512 -2.2301 -0.3511 -0.0087
 5124TIP3    H215337   0.716   0.699   4.448 -1.0115  0.6738 -3.5816
 5125TIP3   OH215338   6.355   1.661   3.906  0.0349 -0.0972  0.6409
 5125TIP3    H115339   6.291   1.593   3.887  0.6563 -0.2445 -1.0487
 5125TIP3    H215340   6.400   1.676   3.823 -0.5632  2.9214  0.7814
 5126TIP3   OH215341   0.381   3.281   2.649 -0.4984 -0.2731  0.5910
 5126TIP3    H115342   0.452   3.262   2.588 -0.8909  0.6790 -0.2016
 5126TIP3    H215343   0.313   3.216   2.629 -0.1661 -0.6910  0.8131
 5127TIP3   OH215344   0.862   2.638   4.539  0.1379 -0.3284  0.1497
 5127TIP3    H115345   0.912   2.566   4.578  0.5890 -0.0623  0.0684
 5127TIP3    H215346   0.842   2.696   4.613 -0.7676 -0.8424  0.3245
 5128TIP3   OH215347   4.994   1.977   1.075  0.7117 -0.0593 -0.1548
 5128TIP3    H115348   4.979   1.911   1.142 -0.2546  0.9843  0.7019
 5128TIP3    H215349   5.082   2.010   1.093 -0.0388  1.1427  1.4772
 5129TIP3   OH215350   5.875   1.486   1.521  1.0163 -0.6666 -0.0866
 5129TIP3    H115351   5.858   1.565   1.471 -0.0902 -0.9714 -0.2133
 5129TIP3    H215352   5.956   1.450   1.483  0.3999 -0.7015 -1.4220
 5130TIP3   OH215353   5.638   6.196   4.060 -0.8972  0.2453 -0.0855
 5130TIP3    H115354   5.609   6.198   4.151 -0.3918  0.0399  0.0858
 5130TIP3    H215355   5.613   6.282   4.025 -0.6220  0.5346  0.4009
 5131TIP3   OH215356   6.235   1.748   3.398 -0.3097 -0.1786 -0.3514
 5131TIP3    H115357   6.305   1.774   3.459 -1.0790 -0.5395  0.7191
 5131TIP3    H215358   6.251   1.655   3.382  1.2748  0.4066 -2.6133
 5132TIP3   OH215359   1.647   0.096   3.282 -0.3148 -0.4904  0.1729
 5132TIP3    H115360   1.584   0.086   3.353 -1.0483 -0.8239 -0.5178
 5132TIP3    H215361   1.722   0.042   3.309  0.0619  0.6041  1.4099
 5133TIP3   OH215362   3.707   4.772   5.894  0.4066  0.1320  0.2520
 5133TIP3    H115363   3.738   4.691   5.853  0.0682  1.3418 -2.6981
 5133TIP3    H215364   3.782   4.831   5.889 -0.5496  1.2957 -1.7352
 5134TIP3   OH215365   1.381   4.302   0.797 -0.5636 -0.6171 -0.1667
 5134TIP3    H115366   1.408   4.225   0.846 -0.3280  0.0108  0.7314
 5134TIP3    H215367   1.464   4.341   0.767 -0.5503  0.2178  0.8763
 5135TIP3   OH215368   1.363   1.033   0.782  0.2326 -0.3704  0.3811
 5135TIP3    H115369   1.312   1.111   0.804 -1.0099 -1.6793  2.5173
 5135TIP3    H215370   1.330   1.006   0.697  1.1164  1.7061 -0.6974
 5136TIP3   OH215371   6.990   3.372   3.576 -0.0998  0.0572  0.0703
 5136TIP3    H115372   6.989   3.332   3.663 -1.7726  0.5444  0.3189
 5136TIP3    H215373   7.065   3.432   3.578  0.2100 -0.3416  0.9753
 5137TIP3   OH215374   4.944   1.469   0.508  0.1162  0.3653  0.0931
 5137TIP3    H115375   4.942   1.505   0.596 -3.4806 -1.1968  0.8101
 5137TIP3    H215376   4.985   1.383   0.518  1.1283  0.8128 -0.0918
 5138TIP3   OH215377   1.644   4.546   2.534  0.2836  0.1111  0.1731
 5138TIP3    H115378   1.567   4.533   2.478  0.5074  0.7264 -0.2949
 5138TIP3    H215379   1.613   4.599   2.607  0.5522  1.6187 -0.7623
 5139TIP3   OH215380   6.575   2.650   3.593 -0.0479  0.1711  0.2593
 5139TIP3    H115381   6.548   2.588   3.661  1.4573 -0.7553  0.0635
 5139TIP3    H215382   6.653   2.692   3.629 -0.4535  1.2187 -0.0541
 5140TIP3   OH215383   2.514   4.077   5.351 -0.0920  0.1373 -0.5970
 5140TIP3    H115384   2.529   4.139   5.280 -0.0283  1.0755  0.1970
 5140TIP3    H215385   2.517   4.131   5.430  2.0019 -1.1718  0.3011
 5141TIP3   OH215386   5.750   3.225   4.214 -0.1292 -0.2482 -0.1452
 5141TIP3    H115387   5.674   3.251   4.266 -2.3213 -1.3285 -2.5285
 5141TIP3    H215388   5.730   3.256   4.126  1.5558 -1.7339 -1.1264
 5142TIP3   OH215389   3.803   0.934   0.905 -0.2650  0.2346  0.0492
 5142TIP3    H115390   3.778   0.875   0.834 -2.0481 -1.4984  1.9427
 5142TIP3    H215391   3.825   0.875   0.978  1.9578  1.9162  0.8483
 5143TIP3   OH215392   0.746   2.079   3.221  0.4772 -0.1017 -0.0823
 5143TIP3    H115393   0.663   2.081   3.269  0.1638  0.5354 -0.6340
 5143TIP3    H215394   0.734   2.008   3.157  0.1624  0.3182 -0.4941
 5144TIP3   OH215395   1.415   5.484   0.109  0.3912  0.1342  0.0659
 5144TIP3    H115396   1.460   5.565   0.087  0.1272 -0.3273 -2.5310
 5144TIP3    H215397   1.400   5.441   0.025 -1.4793 -1.5541  1.1542
 5145TIP3   OH215398   2.916   5.548   5.758  0.1889 -0.0307 -0.0650
 5145TIP3    H115399   2.875   5.527   5.842 -2.5530 -0.3653 -1.3846
 5145TIP3    H215400   2.882   5.635   5.736  1.8675  0.6034 -0.3054
 5146TIP3   OH215401   1.511   4.218   1.420  0.0953 -0.1308  0.0986
 5146TIP3    H115402   1.435   4.171   1.455 -1.4023  1.7061 -0.4614
 5146TIP3    H215403   1.577   4.212   1.488 -1.4046  0.2156  1.6458
 5147TIP3   OH215404   2.412   4.315   1.294  0.2254 -0.3761  0.8541
 5147TIP3    H115405   2.449   4.402   1.312  1.6027 -0.8635  0.5341
 5147TIP3    H215406   2.324   4.332   1.262 -0.0180  0.8356  2.0441
 5148TIP3   OH215407   6.394   6.326   4.428 -0.3885 -0.3920  0.2817
 5148TIP3    H115408   6.340   6.337   4.506 -1.0680  0.4332 -0.2824
 5148TIP3    H215409   6.331   6.325   4.355  0.3446  0.6558 -0.3980
 5149TIP3   OH215410   5.668   6.658   3.628 -0.0933  0.0378 -0.2260
 5149TIP3    H115411   5.589   6.699   3.594 -1.8752 -1.9797  1.2207
 5149TIP3    H215412   5.689   6.709   3.706 -1.2840 -0.6524  0.5877
 5150TIP3   OH215413   6.157   0.379   5.882  0.0121 -0.2206  0.3998
 5150TIP3    H115414   6.238   0.423   5.908 -0.1618  0.0603  0.4702
 5150TIP3    H215415   6.133   0.421   5.799  0.9978 -1.6595 -0.6771
 5151TIP3   OH215416   4.984   1.641   2.967  0.1301 -0.1929 -0.1153
 5151TIP3    H115417   4.990   1.659   3.061 -1.7568  1.3974 -0.2261
 5151TIP3    H215418   5.052   1.695   2.928  1.2195 -1.1928  0.3247
 5152TIP3   OH215419   0.141   5.766   2.162 -0.1656 -0.0566 -0.2246
 5152TIP3    H115420   0.092   5.784   2.243  0.2324 -2.5137  0.6407
 5152TIP3    H215421   0.212   5.830   2.163 -1.1740  1.1283  0.4125
 5153TIP3   OH215422   6.630   3.749   1.117 -0.0651 -0.4098  0.2169
 5153TIP3    H115423   6.538   3.725   1.117  0.2222 -1.5789 -0.4180
 5153TIP3    H215424   6.635   3.824   1.057 -0.6396 -0.1110  0.5310
 5154TIP3   OH215425   4.061   4.197   5.527 -0.4033 -0.2685  0.2415
 5154TIP3    H115426   3.988   4.258   5.516  0.5662  1.5736  3.1125
 5154TIP3    H215427   4.020   4.118   5.563 -1.3967 -0.6541 -1.6157
 5155TIP3   OH215428   5.647   3.467   1.311  0.6614  0.3151  0.4221
 5155TIP3    H115429   5.607   3.449   1.226 -0.9333  0.4130  1.1085
 5155TIP3    H215430   5.609   3.401   1.370  1.8260  0.1700  1.0486
 5156TIP3   OH215431   1.475   2.634   2.927 -0.1499  0.5420  0.3209
 5156TIP3    H115432   1.511   2.687   2.997  2.1019 -1.3044  0.7083
 5156TIP3    H215433   1.398   2.682   2.896 -0.3407  2.1349  3.0206
 5157TIP3   OH215434   0.247   1.410   5.508  0.3509 -0.0576 -0.1090
 5157TIP3    H115435   0.171   1.444   5.459  0.9706  1.2650 -0.2036
 5157TIP3    H215436   0.215   1.329   5.548 -0.9721  0.2148 -0.5458
 5158TIP3   OH215437   3.808   2.755   4.220 -0.5855 -0.0885  0.1433
 5158TIP3    H115438   3.731   2.729   4.270 -0.6340 -0.2212  0.0016
 5158TIP3    H215439   3.773   2.811   4.151 -0.4011  0.9341  0.8609
 5159TIP3   OH215440   6.017   1.735   5.148 -0.1644  0.2137  0.1398
 5159TIP3    H115441   6.026   1.743   5.243  2.2730  0.9771 -0.0779
 5159TIP3    H215442   6.052   1.817   5.113  0.4140 -0.6552 -1.4524
 5160TIP3   OH215443   2.196   5.567   4.750  0.0874 -0.2819 -0.1764
 5160TIP3    H115444   2.168   5.538   4.837 -0.2705  0.3264 -0.0859
 5160TIP3    H215445   2.240   5.650   4.766  0.1242 -0.2255 -0.5687
 5161TIP3   OH215446   5.829   2.722   1.589  0.0705  0.5135 -0.3338
 5161TIP3    H115447   5.814   2.804   1.636 -0.1489  0.4179 -0.2371
 5161TIP3    H215448   5.756   2.666   1.615  1.0171 -0.2464  0.7854
 5162TIP3   OH215449   5.090   2.691   0.772 -0.3753  0.3670 -0.4766
 5162TIP3    H115450   5.065   2.683   0.680 -0.8940 -1.0021 -0.2382
 5162TIP3    H215451   5.176   2.733   0.770  1.0410 -2.3675 -1.7706
 5163TIP3   OH215452   4.867   0.402   5.006  0.6292 -0.2400 -0.1444
 5163TIP3    H115453   4.820   0.485   5.007 -1.3978 -1.1902 -3.2236
 5163TIP3    H215454   4.830   0.352   5.079  0.5574  0.8543  0.5884
 5164TIP3   OH215455   2.687   4.580   2.646  0.4277  0.9418 -0.3377
 5164TIP3    H115456   2.649   4.641   2.582  0.4188  1.1202 -0.1653
 5164TIP3    H215457   2.773   4.617   2.666  3.1361 -2.1275 -4.6509
 5165TIP3   OH215458   2.193   3.187   3.011 -0.3444 -0.5542 -0.5868
 5165TIP3    H115459   2.158   3.132   3.081 -1.1525 -0.6457 -1.0445
 5165TIP3    H215460   2.287   3.193   3.029 -0.3462 -1.5755 -0.1933
 5166TIP3   OH215461   1.075   5.057   4.328  0.5293  0.1188  0.3297
 5166TIP3    H115462   1.138   5.125   4.301  0.6294  0.0451  0.3776
 5166TIP3    H215463   1.123   5.003   4.390  0.8354 -0.6979 -0.5956
 5167TIP3   OH215464   3.386   4.557   1.118 -0.0500 -0.3269  0.2152
 5167TIP3    H115465   3.401   4.507   1.198 -1.3886 -0.3274  0.4823
 5167TIP3    H215466   3.430   4.506   1.049 -0.4980 -1.3239  0.6493
 5168TIP3   OH215467   5.233   2.229   2.315 -0.2678  0.5321  0.1512
 5168TIP3    H115468   5.302   2.164   2.299  0.3326  0.9226  1.0610
 5168TIP3    H215469   5.256   2.268   2.400 -0.8861  1.5977 -0.1537
 5169TIP3   OH215470   5.508   2.463   2.465 -0.1598  0.2626 -0.5430
 5169TIP3    H115471   5.578   2.467   2.531 -0.7710 -1.5256  0.2748
 5169TIP3    H215472   5.554   2.471   2.381  0.8389  0.7605  0.0249
 5170TIP3   OH215473   4.952   3.692   5.399 -0.0448  0.2520  0.3907
 5170TIP3    H115474   4.914   3.709   5.485  2.2909  1.0827  1.3610
 5170TIP3    H215475   5.026   3.633   5.417 -0.9880 -1.6238 -1.4282
 5171TIP3   OH215476   0.275   1.666   0.310 -0.0731  0.0371  0.1791
 5171TIP3    H115477   0.224   1.708   0.380  0.0932  0.6399 -0.0560
 5171TIP3    H215478   0.210   1.645   0.242 -0.1457 -0.0182  0.2653
 5172TIP3   OH215479   6.506   0.744   3.561  0.3493  0.3074 -0.1040
 5172TIP3    H115480   6.589   0.782   3.531  0.3060  0.2711 -0.2656
 5172TIP3    H215481   6.507   0.759   3.656  1.9123 -2.2442  0.3840
 5173TIP3   OH215482   2.779   1.941   0.104  0.3714 -0.4860  0.5247
 5173TIP3    H115483   2.698   1.991   0.088 -0.7880 -2.5232 -0.3485
 5173TIP3    H215484   2.807   1.913   0.017  1.1427 -1.1358  0.9716
 5174TIP3   OH215485   4.590   3.092   2.740 -0.8746 -0.5609 -0.9195
 5174TIP3    H115486   4.598   3.142   2.658  0.4567 -0.5803 -0.8261
 5174TIP3    H215487   4.614   3.155   2.808 -1.0371 -0.8124 -0.6310
 5175TIP3   OH215488   6.993   1.061   2.153 -0.0376 -0.0536  0.6228
 5175TIP3    H115489   6.992   1.157   2.142  1.7272  0.0824  1.3483
 5175TIP3    H215490   7.066   1.044   2.213 -0.8871 -1.8035  1.2143
 5176TIP3   OH215491   0.208   2.580   2.262  0.5932 -0.2984 -0.2522
 5176TIP3    H115492   0.121   2.549   2.287  0.1863 -0.2233 -1.4862
 5176TIP3    H215493   0.200   2.675   2.259  0.2912 -0.3441 -1.7325
 5177TIP3   OH215494   2.449   3.408   5.033  0.0277  0.5342  0.0646
 5177TIP3    H115495   2.471   3.330   4.981  0.3521 -0.7129  1.9669
 5177TIP3    H215496   2.385   3.378   5.097  0.8706  1.5595  1.4722
 5178TIP3   OH215497   6.620   0.774   5.159  0.5304 -0.0344 -0.6709
 5178TIP3    H115498   6.671   0.806   5.233 -0.4795 -3.6139  1.8135
 5178TIP3    H215499   6.678   0.713   5.114  0.0078 -0.5420 -0.6721
 5179TIP3   OH215500   6.090   2.454   1.263 -0.1544 -0.0559  0.4103
 5179TIP3    H115501   6.064   2.367   1.233  1.9629 -0.1959 -1.3248
 5179TIP3    H215502   6.184   2.447   1.279  0.4027  2.2117 -1.2501
 5180TIP3   OH215503   6.813   4.466   5.301 -0.1339  0.3209  0.2745
 5180TIP3    H115504   6.806   4.530   5.230 -2.2426  0.6716  0.7292
 5180TIP3    H215505   6.772   4.509   5.376  0.2059 -0.8231  1.1393
 5181TIP3   OH215506   4.193   1.441   4.934 -0.3381 -0.3946  0.3171
 5181TIP3    H115507   4.117   1.491   4.964  0.6633  1.6361 -0.3334
 5181TIP3    H215508   4.162   1.394   4.857 -1.1213 -0.1693  0.4828
 5182TIP3   OH215509   4.326   6.671   0.068 -0.4914  0.4672 -0.0949
 5182TIP3    H115510   4.356   6.761   0.051  0.5786  0.4969  1.6560
 5182TIP3    H215511   4.355   6.622  -0.008  0.1519  1.3624 -0.4506
 5183TIP3   OH215512   4.648   1.859   5.601 -0.7140 -0.2040  0.2907
 5183TIP3    H115513   4.658   1.789   5.665  4.8805 -1.2433 -1.2218
 5183TIP3    H215514   4.681   1.937   5.646 -2.0965  0.4025  0.3184
 5184TIP3   OH215515   3.806   0.893   4.927 -0.2304  0.2962  0.6950
 5184TIP3    H115516   3.742   0.963   4.939 -0.5954  0.0628  0.1047
 5184TIP3    H215517   3.764   0.831   4.867  0.6470  0.2793  0.0798
 5185TIP3   OH215518   6.121   0.102   2.887 -0.0816  0.2210  0.2721
 5185TIP3    H115519   6.121   0.125   2.795 -0.5225 -0.4522  0.0970
 5185TIP3    H215520   6.057   0.161   2.927 -1.5277 -0.9305 -0.2476
 5186TIP3   OH215521   5.675   0.891   1.371 -0.0712 -0.2302 -0.1402
 5186TIP3    H115522   5.717   0.862   1.452  2.3812 -1.4033 -1.6986
 5186TIP3    H215523   5.720   0.973   1.350 -0.2326 -0.2733 -0.6587
 5187TIP3   OH215524   1.505   4.183   5.434  0.0671  0.4524 -0.3914
 5187TIP3    H115525   1.511   4.140   5.349 -0.3291  2.1953 -1.3544
 5187TIP3    H215526   1.566   4.257   5.428  0.1910  0.4900  0.9301
 5188TIP3   OH215527   5.600   3.403   2.752  0.1726 -0.5191  0.4942
 5188TIP3    H115528   5.613   3.349   2.674 -0.2226 -0.9377  0.7106
 5188TIP3    H215529   5.681   3.452   2.761 -0.1388  0.2539 -0.7336
 5189TIP3   OH215530   2.244   5.497   4.488 -0.0769 -0.1938  0.0660
 5189TIP3    H115531   2.240   5.503   4.584 -0.2273 -1.7787  0.1833
 5189TIP3    H215532   2.158   5.465   4.462 -0.8065  2.3031 -0.8339
 5190TIP3   OH215533   3.775   3.480   4.077  0.0341 -0.5453 -0.0768
 5190TIP3    H115534   3.834   3.460   4.004  0.3743  0.6852 -0.1590
 5190TIP3    H215535   3.827   3.462   4.155  0.2273 -0.3144 -0.1494
 5191TIP3   OH215536   6.296   3.591   3.766 -0.3467  0.3866 -0.5281
 5191TIP3    H115537   6.298   3.499   3.791  0.1267  0.2640 -0.9937
 5191TIP3    H215538   6.384   3.609   3.732  0.3267  1.6090  1.6598
 5192TIP3   OH215539   6.146   5.440   3.149 -0.1869  0.1568  0.4868
 5192TIP3    H115540   6.187   5.392   3.221 -0.1068 -0.8308 -0.1884
 5192TIP3    H215541   6.171   5.391   3.071 -1.6342  0.2433 -0.0598
 5193TIP3   OH215542   5.336   1.258   0.150  0.0868  0.2155  0.2528
 5193TIP3    H115543   5.381   1.175   0.138 -0.2152  0.2353 -1.1667
 5193TIP3    H215544   5.378   1.318   0.088  1.8696  1.8254  2.8107
 5194TIP3   OH215545   3.861   3.619   5.048  0.4183 -0.5818 -0.2501
 5194TIP3    H115546   3.788   3.558   5.057 -0.0962 -0.3032 -2.0575
 5194TIP3    H215547   3.820   3.706   5.053  1.0636 -0.3446  1.7213
 5195TIP3   OH215548   4.299   2.821   4.975  0.3924  0.0393  0.1940
 5195TIP3    H115549   4.350   2.812   5.056 -0.4697  1.7401  0.9707
 5195TIP3    H215550   4.365   2.839   4.908  1.0265 -0.3051  0.7096
 5196TIP3   OH215551   0.403   6.408   3.120  0.3653 -0.3410  0.3423
 5196TIP3    H115552   0.319   6.442   3.150 -0.2231 -2.1779  0.9324
 5196TIP3    H215553   0.468   6.457   3.169 -0.4962 -1.2892  2.5464
 5197TIP3   OH215554   6.312   5.668   4.935  0.0242 -0.3555  0.1398
 5197TIP3    H115555   6.218   5.655   4.922  0.1303 -1.4981  0.3503
 5197TIP3    H215556   6.328   5.759   4.910 -1.3001  0.1536  1.0501
 5198TIP3   OH215557   6.962   5.769   4.272  0.0099 -0.3379  0.1277
 5198TIP3    H115558   7.013   5.778   4.352 -0.1368  1.2718  0.0879
 5198TIP3    H215559   6.950   5.675   4.260  0.3776 -0.6127  1.7610
 5199TIP3   OH215560   0.352   6.040   5.688  0.1996  0.1510  0.2098
 5199TIP3    H115561   0.289   6.093   5.639  0.3198 -0.7687 -1.0017
 5199TIP3    H215562   0.316   5.951   5.685  0.0624  0.0950  2.0805
 5200TIP3   OH215563   2.652   2.566   5.537 -0.0597  0.0253 -0.8386
 5200TIP3    H115564   2.607   2.553   5.620  0.3229  1.5349 -0.3763
 5200TIP3    H215565   2.639   2.483   5.490 -1.4876 -0.3397  0.1334
 5201TIP3   OH215566   7.204   5.285   3.250 -0.1446 -0.3016 -0.0843
 5201TIP3    H115567   7.199   5.202   3.297 -0.7916 -0.5454 -0.5628
 5201TIP3    H215568   7.215   5.351   3.319 -0.8400 -0.6690  0.3927
 5202TIP3   OH215569   2.452   3.758   3.679 -0.0637  0.1867 -0.1508
 5202TIP3    H115570   2.469   3.838   3.728  0.0946 -0.0847  0.2410
 5202TIP3    H215571   2.445   3.689   3.745 -1.7751  0.1185 -0.3571
 5203TIP3   OH215572   4.820   6.135   2.438 -0.5701  0.3475 -0.1584
 5203TIP3    H115573   4.812   6.131   2.342 -0.7054  0.1386 -0.1391
 5203TIP3    H215574   4.904   6.176   2.453 -0.8134  0.9286 -0.3681
 5204TIP3   OH215575   1.863   5.055   3.150  0.0437  0.0942  0.2894
 5204TIP3    H115576   1.901   4.967   3.147  1.1879  0.5856 -2.6855
 5204TIP3    H215577   1.925   5.106   3.201 -0.3062 -0.6298  1.4893
 5205TIP3   OH215578   0.860   3.487   0.447 -0.3032  0.2605 -0.3687
 5205TIP3    H115579   0.860   3.517   0.538 -1.3256  0.9886 -0.5872
 5205TIP3    H215580   0.889   3.563   0.397  0.9291 -0.3490 -0.6077
 5206TIP3   OH215581   7.182   5.079   5.410 -0.2173 -0.3207 -0.9477
 5206TIP3    H115582   7.166   5.152   5.350  0.1400  0.0011 -0.6616
 5206TIP3    H215583   7.159   5.001   5.360 -0.0627 -0.0493 -1.4524
 5207TIP3   OH215584   1.144   4.513   1.893  0.7450  0.0244  0.4173
 5207TIP3    H115585   1.096   4.453   1.951  1.2305 -0.1719  0.6155
 5207TIP3    H215586   1.096   4.596   1.901 -1.3455 -0.8835 -1.6414
 5208TIP3   OH215587   6.717   2.791   1.299 -0.1041 -0.0546 -0.5835
 5208TIP3    H115588   6.734   2.827   1.212  0.5311 -0.4745 -0.6376
 5208TIP3    H215589   6.799   2.806   1.348 -0.1109 -0.7053 -0.3657
 5209TIP3   OH215590   0.882   4.485   1.480 -0.1114  0.4983  0.0683
 5209TIP3    H115591   0.943   4.542   1.435 -1.3831  1.4097 -0.5715
 5209TIP3    H215592   0.797   4.505   1.441 -0.5682 -2.1239 -0.4460
 5210TIP3   OH215593   3.684   0.373   1.463  0.4512  0.8687  0.4008
 5210TIP3    H115594   3.690   0.462   1.495 -0.3000  0.6489  1.1833
 5210TIP3    H215595   3.700   0.380   1.368  0.9389  1.7454  0.5448
 5211TIP3   OH215596   1.324   6.719   1.478 -0.0219 -0.7336  0.1575
 5211TIP3    H115597   1.279   6.663   1.414 -1.2975 -1.4906  1.6537
 5211TIP3    H215598   1.337   6.662   1.554 -1.0099  0.8846  1.5837
 5212TIP3   OH215599   1.384   5.853   3.793 -0.4526  0.2710 -0.2604
 5212TIP3    H115600   1.337   5.775   3.825  0.3952 -0.0486  0.2257
 5212TIP3    H215601   1.402   5.834   3.701 -1.0226  0.2798 -0.3811
 5213TIP3   OH215602   4.754   4.060   1.718 -0.5834 -0.3510  0.1322
 5213TIP3    H115603   4.808   4.031   1.644 -0.5485  0.4002 -0.1455
 5213TIP3    H215604   4.666   4.069   1.681 -0.6694 -0.4733  0.3072
 5214TIP3   OH215605   6.395   5.504   2.898 -0.2022  0.2663  0.8521
 5214TIP3    H115606   6.418   5.413   2.916 -1.6894  0.0661  1.9272
 5214TIP3    H215607   6.421   5.518   2.807  1.1776 -0.8449  1.0507
 5215TIP3   OH215608   3.572   0.118   1.467 -0.5495 -0.5715 -0.6146
 5215TIP3    H115609   3.633   0.047   1.485 -1.2031 -0.7914  0.8668
 5215TIP3    H215610   3.627   0.195   1.453  0.1019 -0.6454  1.2660
 5216TIP3   OH215611   0.734   5.328   4.541  0.3993 -0.1995  0.0204
 5216TIP3    H115612   0.722   5.353   4.449 -0.1841  0.1541  0.1853
 5216TIP3    H215613   0.744   5.411   4.587 -0.1167 -0.3360  0.3856
 5217TIP3   OH215614   1.425   2.057   5.450  0.4894 -0.1330 -0.1931
 5217TIP3    H115615   1.332   2.045   5.431  0.4087 -0.9309  0.6310
 5217TIP3    H215616   1.426   2.090   5.540  1.0301 -0.8906  0.0862
 5218TIP3   OH215617   1.823   6.522   3.058 -0.0929 -0.0602  0.3095
 5218TIP3    H115618   1.884   6.475   3.115 -0.3457 -1.2293 -0.3481
 5218TIP3    H215619   1.737   6.509   3.098 -0.2817 -0.9471 -0.3401
 5219TIP3   OH215620   2.361   4.488   4.119 -0.8796  0.3816 -0.2028
 5219TIP3    H115621   2.321   4.557   4.173  0.5737  1.1934 -0.0904
 5219TIP3    H215622   2.385   4.532   4.038  1.0708  0.3523  0.2899
 5220TIP3   OH215623   3.080   2.366   1.629  0.2677  1.1472  0.3738
 5220TIP3    H115624   3.027   2.287   1.614 -0.0239  1.4725 -0.3514
 5220TIP3    H215625   3.100   2.364   1.722 -0.1329  0.4558  0.4509
 5221TIP3   OH215626   6.538   6.572   2.647  0.6448 -0.1399 -0.2435
 5221TIP3    H115627   6.616   6.592   2.699  0.3650  0.9246 -0.2002
 5221TIP3    H215628   6.478   6.645   2.665  0.3013 -0.0737 -1.5763
 5222TIP3   OH215629   3.735   6.204   0.163  0.3093  0.0509  0.4572
 5222TIP3    H115630   3.700   6.215   0.074 -0.8085 -1.7291  0.6278
 5222TIP3    H215631   3.829   6.221   0.155  0.2123 -0.0379 -1.0531
 5223TIP3   OH215632   2.633   5.605   0.274  0.9838  0.0422  0.5327
 5223TIP3    H115633   2.670   5.676   0.221  2.1881  0.4160  1.8058
 5223TIP3    H215634   2.664   5.525   0.233  1.0559  0.2975  0.0805
 5224TIP3   OH215635   3.509   0.216   0.211 -0.3509 -0.2401 -0.0643
 5224TIP3    H115636   3.564   0.205   0.134 -0.3316  1.0382 -0.2591
 5224TIP3    H215637   3.468   0.302   0.199 -0.3714 -0.0299  1.3345
 5225TIP3   OH215638   3.963   1.638   4.835  0.2367  0.3408  0.6514
 5225TIP3    H115639   3.937   1.550   4.805  0.5215  0.2346  0.7148
 5225TIP3    H215640   3.966   1.631   4.930 -0.0415  0.5038  0.6714
 5226TIP3   OH215641   6.536   5.525   5.419 -0.0634 -0.5741 -0.2227
 5226TIP3    H115642   6.574   5.506   5.333  0.2284 -0.1537 -0.1921
 5226TIP3    H215643   6.471   5.456   5.433 -0.8246 -0.0855 -1.2244
 5227TIP3   OH215644   5.563   5.184   5.467 -0.3679 -0.3963  0.6453
 5227TIP3    H115645   5.656   5.198   5.451 -0.2463  0.3942  1.8480
 5227TIP3    H215646   5.529   5.271   5.488 -1.7029 -0.4208 -1.2095
 5228TIP3   OH215647   1.297   6.271   0.765  0.0341 -0.2513  0.0448
 5228TIP3    H115648   1.347   6.254   0.844 -0.4634 -0.5160  0.3047
 5228TIP3    H215649   1.360   6.312   0.705  0.8488 -1.5663 -0.0381
 5229TIP3   OH215650   0.050   5.449   4.541  0.4203 -0.1763 -0.0854
 5229TIP3    H115651   0.094   5.371   4.505 -1.5461 -1.3093 -0.2062
 5229TIP3    H215652  -0.043   5.425   4.543 -0.1197  1.7786  0.9535
 5230TIP3   OH215653   4.683   5.209   2.988  0.1784  0.2926  0.1070
 5230TIP3    H115654   4.748   5.161   2.935 -0.1612 -0.8173  0.6548
 5230TIP3    H215655   4.671   5.292   2.942  0.8635 -0.1102 -0.8395
 5231TIP3   OH215656   4.047   0.275   2.658 -0.2915 -0.2332 -0.3166
 5231TIP3    H115657   4.114   0.262   2.724 -0.3049 -0.4012 -0.3359
 5231TIP3    H215658   4.053   0.368   2.635 -1.2427  0.1829  0.9647
 5232TIP3   OH215659   3.211   1.437   4.447  0.1813  0.1018  0.1183
 5232TIP3    H115660   3.199   1.473   4.359  0.0207 -0.5338 -0.1238
 5232TIP3    H215661   3.262   1.357   4.433 -1.9061 -1.3378  0.3243
 5233TIP3   OH215662   6.563   0.311   0.022 -0.3884  0.9364  0.3380
 5233TIP3    H115663   6.554   0.407   0.019  0.9341  1.0576 -0.2099
 5233TIP3    H215664   6.648   0.296   0.062 -0.0881  0.0224 -0.5975
 5234TIP3   OH215665   1.057   1.533   3.892  0.4019  0.3227  0.1088
 5234TIP3    H115666   1.113   1.482   3.833 -1.3502 -1.8016  0.1950
 5234TIP3    H215667   0.968   1.517   3.861 -0.3940  1.1371  1.8583
 5235TIP3   OH215668   6.720   6.364   2.969 -0.4417  0.0108  0.1807
 5235TIP3    H115669   6.726   6.310   2.891  1.7458  1.7026 -0.9433
 5235TIP3    H215670   6.803   6.352   3.014 -0.8609  0.6227  1.1670
 5236TIP3   OH215671   1.260   6.045   4.985  0.5280 -0.1505  0.1266
 5236TIP3    H115672   1.350   6.030   5.014  0.1944 -0.4584  1.0641
 5236TIP3    H215673   1.227   6.113   5.045  1.1079  2.3370 -2.1953
 5237TIP3   OH215674   5.438   5.546   4.892  0.3116 -0.1311 -0.3675
 5237TIP3    H115675   5.431   5.460   4.933  2.5458 -0.4658 -0.5589
 5237TIP3    H215676   5.461   5.526   4.800 -0.0592  0.6488 -0.6303
 5238TIP3   OH215677   6.635   4.247   2.618  0.2335 -0.1324  0.2715
 5238TIP3    H115678   6.648   4.269   2.711 -2.1009 -0.0260  0.6495
 5238TIP3    H215679   6.612   4.331   2.577  0.9923 -0.2293 -0.3580
 5239TIP3   OH215680   0.225   4.750   0.519  0.0596  0.0845  0.3710
 5239TIP3    H115681   0.170   4.827   0.530 -0.8425 -0.6919  1.6171
 5239TIP3    H215682   0.284   4.752   0.595  1.7263  0.8502 -0.8912
 5240TIP3   OH215683   3.387   4.102   1.950 -0.7056 -0.1177 -0.0783
 5240TIP3    H115684   3.414   4.140   1.866 -0.2256 -1.8742 -0.7448
 5240TIP3    H215685   3.295   4.078   1.936 -0.9255  0.5226  0.2482
 5241TIP3   OH215686   3.246   3.210   2.739  0.8563  0.6634  0.0972
 5241TIP3    H115687   3.208   3.141   2.792  0.5818  0.9228  0.2450
 5241TIP3    H215688   3.310   3.252   2.796  2.9400 -1.1052 -0.8112
 5242TIP3   OH215689   0.185   1.498   2.374  0.2136 -0.5223 -0.1842
 5242TIP3    H115690   0.199   1.566   2.308 -0.9949  0.2091  0.2822
 5242TIP3    H215691   0.273   1.468   2.396  0.6799 -0.1963 -1.5125
 5243TIP3   OH215692   2.374   5.235   2.244 -0.5547  0.1927 -0.0822
 5243TIP3    H115693   2.352   5.184   2.323  2.3955  0.0349  0.7640
 5243TIP3    H215694   2.412   5.316   2.278  1.4701 -0.1966 -1.2785
 5244TIP3   OH215695   2.353   5.799   3.636 -0.5143  0.0257 -0.5764
 5244TIP3    H115696   2.278   5.792   3.578  0.5405  0.4790 -2.0560
 5244TIP3    H215697   2.423   5.836   3.581  1.2982 -1.9454  0.2736
 5245TIP3   OH215698   1.685   2.665   4.439 -0.0907  0.4191  0.1910
 5245TIP3    H115699   1.651   2.751   4.466  0.4943  0.7075  0.0291
 5245TIP3    H215700   1.703   2.675   4.346  0.6806  0.3558  0.3270
 5246TIP3   OH215701   7.015   6.130   0.333 -0.9433 -0.0137  0.1141
 5246TIP3    H115702   7.065   6.129   0.251 -2.4100 -1.8159 -0.8520
 5246TIP3    H215703   6.958   6.207   0.325  0.7107  1.3155  0.6622
 5247TIP3   OH215704   0.825   2.860   3.560 -0.5543 -0.1266  0.6248
 5247TIP3    H115705   0.733   2.850   3.535 -0.4873  0.8725 -0.1095
 5247TIP3    H215706   0.835   2.807   3.639 -0.5544 -4.3451 -1.8843
 5248TIP3   OH215707   6.728   1.801   1.122 -0.4571  0.3312 -0.4998
 5248TIP3    H115708   6.770   1.724   1.160 -1.1014 -0.1056 -0.6702
 5248TIP3    H215709   6.795   1.839   1.065 -0.4524 -0.6425 -1.1554
 5249TIP3   OH215710   4.383   1.323   1.562  0.1746  0.0078  0.5429
 5249TIP3    H115711   4.308   1.345   1.506 -0.9001 -1.3847  1.3769
 5249TIP3    H215712   4.399   1.403   1.613  1.4722  1.4849 -1.9487
 5250TIP3   OH215713   5.253   5.707   4.573 -0.5275 -0.0967  0.1051
 5250TIP3    H115714   5.248   5.752   4.489  2.7382  0.9228  0.3366
 5250TIP3    H215715   5.215   5.769   4.636 -0.0863  0.4958 -0.2037
 5251TIP3   OH215716   3.881   4.504   4.675 -0.0544 -0.1197  0.8877
 5251TIP3    H115717   3.897   4.572   4.741 -0.6363  0.1476  0.7568
 5251TIP3    H215718   3.873   4.552   4.592  0.6040 -0.4477  0.6265
 5252TIP3   OH215719   2.620   2.590   1.123 -0.6054  0.1450  0.4688
 5252TIP3    H115720   2.540   2.609   1.172  0.3500  1.5956  1.5201
 5252TIP3    H215721   2.691   2.628   1.175  0.5113  1.3349 -1.7641
 5253TIP3   OH215722   2.694   2.566   2.305 -0.3474 -0.4263 -0.1044
 5253TIP3    H115723   2.718   2.475   2.321  0.3544 -0.3588 -0.7084
 5253TIP3    H215724   2.701   2.577   2.210  2.2930  0.9558  0.1330
 5254TIP3   OH215725   1.763   2.583   2.926 -0.1635  0.0812 -0.5393
 5254TIP3    H115726   1.796   2.573   3.015 -1.1449  1.7387  0.0591
 5254TIP3    H215727   1.669   2.596   2.937 -0.4328 -0.5579 -1.8960
 5255TIP3   OH215728   1.035   4.144   5.112  0.4104 -0.5725  0.1586
 5255TIP3    H115729   1.043   4.157   5.018 -0.8173 -0.4744  0.0549
 5255TIP3    H215730   1.061   4.228   5.150  1.7675 -0.8798 -0.0222
 5256TIP3   OH215731   5.857   5.404   2.883  0.2891  0.5309  0.1817
 5256TIP3    H115732   5.888   5.315   2.899 -1.2985  0.1889  1.5998
 5256TIP3    H215733   5.930   5.460   2.911  1.2913 -0.2924 -0.6927
 5257TIP3   OH215734   4.642   5.423   0.230 -0.4062  0.0410  0.9089
 5257TIP3    H115735   4.594   5.378   0.160  0.9735  1.3223 -0.9669
 5257TIP3    H215736   4.719   5.368   0.245 -0.4018  0.0727  1.0020
 5258TIP3   OH215737   5.990   4.611   4.166  0.4098  0.5981  0.1308
 5258TIP3    H115738   5.970   4.538   4.225  1.0822 -0.5885 -1.0474
 5258TIP3    H215739   5.910   4.621   4.113  0.0983  1.1368  0.6860
 5259TIP3   OH215740   3.472   0.945   1.083  0.6512  0.4393  0.3188
 5259TIP3    H115741   3.408   1.007   1.117 -0.5047  0.0790 -1.1279
 5259TIP3    H215742   3.495   0.892   1.159 -1.2856  0.1427  0.7618
 5260TIP3   OH215743   6.968   2.303   3.603  0.2921  0.3413  0.4931
 5260TIP3    H115744   7.038   2.335   3.546 -0.0930  0.0726 -0.1409
 5260TIP3    H215745   6.971   2.361   3.679  1.9293 -0.3431  1.0056
 5261TIP3   OH215746   7.190   0.271   3.971 -0.2899 -0.2396  0.0189
 5261TIP3    H115747   7.124   0.251   3.904  1.4309 -3.4128 -0.9270
 5261TIP3    H215748   7.138   0.298   4.048 -2.3443  3.4405 -2.3208
 5262TIP3   OH215749   4.457   6.587   5.476 -0.3187 -0.4461 -0.4272
 5262TIP3    H115750   4.368   6.556   5.456 -1.6529  1.6022  1.8022
 5262TIP3    H215751   4.468   6.665   5.420 -1.5729  1.5848  1.9683
 5263TIP3   OH215752   3.900   1.351   0.272  0.1761 -0.0346  0.2868
 5263TIP3    H115753   3.951   1.363   0.191 -0.5459  0.2314 -0.1383
 5263TIP3    H215754   3.958   1.379   0.342  0.9132 -0.5266 -0.1145
 5264TIP3   OH215755   0.945   3.729   0.360  0.0465  0.5186 -0.0810
 5264TIP3    H115756   0.879   3.798   0.349  1.1917  1.1984 -4.3852
 5264TIP3    H215757   1.026   3.776   0.378  0.4712  0.1467 -1.0145
 5265TIP3   OH215758   1.727   3.139   0.594  0.3323 -0.0675 -0.1006
 5265TIP3    H115759   1.649   3.091   0.568  0.0219 -0.1080  0.8762
 5265TIP3    H215760   1.717   3.155   0.688  1.3383  0.2220 -0.0176
 5266TIP3   OH215761   6.449   3.724   2.081 -0.1710 -0.1549  0.3084
 5266TIP3    H115762   6.474   3.668   2.154 -0.2209 -1.9633 -0.9755
 5266TIP3    H215763   6.514   3.705   2.013 -1.7491 -0.7653 -1.1138
 5267TIP3   OH215764   2.979   1.746   2.680  0.2915  0.1249 -0.3408
 5267TIP3    H115765   2.964   1.766   2.773 -0.6257 -0.2230 -0.4072
 5267TIP3    H215766   2.938   1.661   2.666  0.5998  0.0768 -1.0292
 5268TIP3   OH215767   0.542   0.298   0.283  0.2069 -0.4358 -0.2861
 5268TIP3    H115768   0.475   0.233   0.265  1.0448 -1.0789 -1.1501
 5268TIP3    H215769   0.624   0.249   0.285  0.6789  0.3506  0.6495
 5269TIP3   OH215770   1.418   2.332   1.317 -0.0331  0.3928 -0.1679
 5269TIP3    H115771   1.469   2.264   1.272  0.6463  1.2624 -0.7431
 5269TIP3    H215772   1.335   2.288   1.340 -0.2201 -0.2277 -1.8541
 5270TIP3   OH215773   1.814   5.387   3.814 -0.1021  0.3448  0.7162
 5270TIP3    H115774   1.784   5.476   3.831 -0.7745  0.1961  0.3503
 5270TIP3    H215775   1.820   5.382   3.718  0.8464  0.2903  0.7734
 5271TIP3   OH215776   0.137   5.166   5.012  0.4470  0.3586 -0.2434
 5271TIP3    H115777   0.223   5.207   5.015  0.5951 -0.0143  1.7293
 5271TIP3    H215778   0.134   5.110   5.090 -0.7384 -1.3681 -1.4484
 5272TIP3   OH215779   2.437   0.694   4.689  0.4118 -0.1016  0.4028
 5272TIP3    H115780   2.462   0.708   4.781  0.7904 -1.9417  0.6377
 5272TIP3    H215781   2.355   0.645   4.694 -0.3436  1.0455 -0.2968
 5273TIP3   OH215782   1.613   5.154   3.378 -0.2189 -0.4421  0.0470
 5273TIP3    H115783   1.538   5.102   3.408  0.5757 -2.2395 -0.9163
 5273TIP3    H215784   1.596   5.169   3.285  0.8735 -1.3963 -0.3260
 5274TIP3   OH215785   3.474   5.682   5.047 -0.1313 -0.5462 -0.0157
 5274TIP3    H115786   3.500   5.653   4.960  0.7158  0.7109 -0.2193
 5274TIP3    H215787   3.408   5.619   5.076 -2.8812  0.7610 -2.8929
 5275TIP3   OH215788   2.638   6.388   3.195 -0.4086 -0.4303  0.3283
 5275TIP3    H115789   2.588   6.451   3.144 -1.2558 -1.7169 -0.4752
 5275TIP3    H215790   2.730   6.407   3.174 -0.6622  0.2873 -0.1626
 5276TIP3   OH215791   2.229   0.810   2.938 -0.4436  0.3341 -0.1239
 5276TIP3    H115792   2.186   0.810   3.024  0.1416  1.6460  0.1883
 5276TIP3    H215793   2.262   0.899   2.927 -2.5887  0.9231 -2.7857
 5277TIP3   OH215794   3.363   5.733   3.287  0.0580  0.4917  0.2268
 5277TIP3    H115795   3.353   5.710   3.379 -0.4579 -1.3666 -0.2672
 5277TIP3    H215796   3.424   5.807   3.288 -0.3173  0.8203  2.0778
 5278TIP3   OH215797   4.240   3.806   5.755  0.1700  0.3208 -0.1794
 5278TIP3    H115798   4.236   3.764   5.669  1.4844 -1.2088  0.4343
 5278TIP3    H215799   4.209   3.739   5.816 -0.5018  1.2944  0.5782
 5279TIP3   OH215800   2.960   0.628   0.664 -0.2393 -0.1956  0.0724
 5279TIP3    H115801   3.019   0.699   0.639 -0.8346 -0.2368 -1.6267
 5279TIP3    H215802   3.016   0.563   0.704  0.2276  1.5089  2.4138
 5280TIP3   OH215803   6.533   0.741   0.439  0.0009  0.0512 -0.3816
 5280TIP3    H115804   6.559   0.679   0.370  0.8252 -2.0003  1.6176
 5280TIP3    H215805   6.458   0.699   0.481 -0.5110  1.2760 -0.0366
 5281TIP3   OH215806   4.116   1.402   3.875  0.0744 -0.2350 -0.3385
 5281TIP3    H115807   4.190   1.435   3.927 -0.1612 -0.5597  0.2088
 5281TIP3    H215808   4.081   1.480   3.831 -0.2450  0.2020  0.6586
 5282TIP3   OH215809   6.372   1.459   5.423 -0.1600  0.7860 -0.0210
 5282TIP3    H115810   6.324   1.436   5.502 -0.2133 -3.2359 -1.0339
 5282TIP3    H215811   6.308   1.450   5.352  1.0850 -0.7845 -0.9923
 5283TIP3   OH215812   3.852   5.201   3.933 -0.0725 -0.0576  0.4484
 5283TIP3    H115813   3.832   5.236   3.846  0.4356  0.2067  0.4359
 5283TIP3    H215814   3.894   5.117   3.916  0.4708  0.2175  0.4235
 5284TIP3   OH215815   4.633   2.717   3.786 -0.1293  0.2543  0.0236
 5284TIP3    H115816   4.581   2.754   3.858  0.8845  2.3234 -0.2234
 5284TIP3    H215817   4.649   2.791   3.727  1.0770 -0.8498 -1.1206
 5285TIP3   OH215818   1.439   4.318   0.122  0.1899  0.4754  0.1313
 5285TIP3    H115819   1.375   4.380   0.157 -1.5030 -1.3529  0.4361
 5285TIP3    H215820   1.459   4.352   0.035  1.3329  2.8394  1.2148
 5286TIP3   OH215821   5.920   0.028   3.143  0.1449  0.6934  0.0199
 5286TIP3    H115822   5.904   0.034   3.237  0.8091  1.6895  0.0882
 5286TIP3    H215823   5.838   0.056   3.102 -0.2493 -0.0417  0.2879
 5287TIP3   OH215824   3.885   6.175   2.303  0.6675  0.9010 -0.1504
 5287TIP3    H115825   3.943   6.229   2.357 -1.0859  3.4324 -0.6060
 5287TIP3    H215826   3.797   6.199   2.330 -0.2313 -0.2157 -1.8681
 5288TIP3   OH215827   2.504   6.099   4.154  0.2890  0.2979 -0.1577
 5288TIP3    H115828   2.506   6.177   4.098  0.1166  0.6322  0.2970
 5288TIP3    H215829   2.452   6.036   4.105  2.9955 -0.6775 -2.0139
 5289TIP3   OH215830   1.980   2.112   3.677  0.1421  0.2707 -0.2518
 5289TIP3    H115831   1.977   2.167   3.756  1.4675  1.5040 -1.0037
 5289TIP3    H215832   1.924   2.158   3.615  2.3749  1.6863 -1.3650
 5290TIP3   OH215833  -0.009   0.560   0.828  0.3140  0.1881 -0.2380
 5290TIP3    H115834   0.040   0.484   0.860  0.2906  0.5374  0.6330
 5290TIP3    H215835   0.056   0.631   0.824  0.3026  0.1703 -0.9117
 5291TIP3   OH215836   6.159   6.660   1.746 -0.6852 -0.0609 -0.0419
 5291TIP3    H115837   6.100   6.588   1.770 -1.8584  1.3294  1.4660
 5291TIP3    H215838   6.133   6.682   1.656 -0.9952 -0.8492 -0.1567
 5292TIP3   OH215839   3.586   5.160   2.618 -0.5714 -0.0981  0.2989
 5292TIP3    H115840   3.519   5.222   2.646 -0.7671 -0.3780  0.4641
 5292TIP3    H215841   3.537   5.088   2.578 -0.3371 -0.0609 -0.0523
 5293TIP3   OH215842   5.238   1.798   2.735 -0.2601 -0.1051 -0.1857
 5293TIP3    H115843   5.182   1.875   2.739 -0.0515  0.0828 -0.8810
 5293TIP3    H215844   5.233   1.768   2.645  0.8523 -0.0134 -0.2867
 5294TIP3   OH215845   4.615   0.525   4.237 -0.0312  0.1916 -0.3966
 5294TIP3    H115846   4.662   0.606   4.221  0.8852 -0.2169  0.1468
 5294TIP3    H215847   4.679   0.468   4.281 -1.0521 -0.3459  0.4505
 5295TIP3   OH215848   6.008   2.188   2.592 -0.1137  0.0069  0.7915
 5295TIP3    H115849   6.090   2.198   2.640 -0.3940 -2.8285  2.0479
 5295TIP3    H215850   5.998   2.094   2.580 -2.9127  0.2927  0.1653
 5296TIP3   OH215851   2.128   0.084   1.668  0.6125 -0.2841 -0.0219
 5296TIP3    H115852   2.098   0.017   1.729 -0.4081  0.0621 -0.1293
 5296TIP3    H215853   2.128   0.041   1.582  1.1665 -0.5064  0.0887
 5297TIP3   OH215854   4.784   1.385   4.561 -0.2571  0.0149 -0.4408
 5297TIP3    H115855   4.786   1.470   4.517 -0.6980  0.9287  1.2250
 5297TIP3    H215856   4.820   1.402   4.648  0.5857 -1.7331 -0.3908
 5298TIP3   OH215857   6.328   0.165   0.040  0.0085 -0.5060 -0.8526
 5298TIP3    H115858   6.334   0.070   0.041  2.4266 -0.4089  0.6824
 5298TIP3    H215859   6.411   0.194   0.001  0.5243  0.9694  1.1979
 5299TIP3   OH215860   0.763   3.774   3.752 -0.0360 -0.5085  0.0641
 5299TIP3    H115861   0.740   3.767   3.659 -1.3745  0.6675  0.2823
 5299TIP3    H215862   0.749   3.866   3.774  0.7979 -0.6482  1.3136
 5300TIP3   OH215863   1.066   0.658   4.678 -0.0749  0.0902 -0.0396
 5300TIP3    H115864   1.098   0.748   4.680 -1.4977  0.6169  1.1432
 5300TIP3    H215865   0.988   0.660   4.733  0.2006 -2.0023  0.4896
 5301TIP3   OH215866   3.949   4.445   0.146 -0.5786  0.4495 -0.1208
 5301TIP3    H115867   3.934   4.491   0.063  0.3855  1.2518  0.1393
 5301TIP3    H215868   4.043   4.428   0.147 -0.8375 -1.1506  0.0086
 5302TIP3   OH215869   0.248   6.214   4.025 -0.1677 -0.2761 -0.4037
 5302TIP3    H115870   0.299   6.219   4.106 -1.2590 -1.4542  0.3982
 5302TIP3    H215871   0.314   6.218   3.955  0.9178 -0.6397  0.5671
 5303TIP3   OH215872   0.535   2.781   0.114  0.0196 -0.0494 -0.5180
 5303TIP3    H115873   0.525   2.731   0.033 -0.5244  0.8796 -1.0388
 5303TIP3    H215874   0.630   2.789   0.125  0.1069 -0.7679 -0.6833
 5304TIP3   OH215875   1.977   3.790   3.655 -0.1482 -0.3028  0.6759
 5304TIP3    H115876   2.039   3.845   3.704  0.7921  0.2642 -1.0485
 5304TIP3    H215877   2.001   3.803   3.563 -2.1181 -0.9738  0.0087
 5305TIP3   OH215878   5.994   2.857   2.884  0.5764  0.1224  0.6491
 5305TIP3    H115879   5.990   2.768   2.917 -1.0003 -0.2945 -0.5873
 5305TIP3    H215880   6.031   2.849   2.796  0.3972  0.6812  0.5160
 5306TIP3   OH215881   4.382   4.853   3.880  0.1806 -0.2560  0.0788
 5306TIP3    H115882   4.464   4.806   3.893  0.0087 -0.6061 -0.0977
 5306TIP3    H215883   4.338   4.849   3.964 -0.2160 -1.1516 -0.1584
 5307TIP3   OH215884   1.892   2.256   2.724  0.0520  0.1257 -0.2730
 5307TIP3    H115885   1.911   2.169   2.758 -0.1314 -0.6942 -2.1922
 5307TIP3    H215886   1.967   2.309   2.752 -0.0736 -0.4820  1.3448
 5308TIP3   OH215887   7.213   6.042   5.585 -0.5449 -0.5556  0.1492
 5308TIP3    H115888   7.121   6.043   5.613 -0.8368  0.3327 -0.7714
 5308TIP3    H215889   7.216   5.981   5.512 -0.5667 -0.0319 -0.2987
 5309TIP3   OH215890   2.021   6.187   1.639  0.1123 -0.6097  0.6775
 5309TIP3    H115891   1.946   6.151   1.591  0.0646  0.9002 -0.4581
 5309TIP3    H215892   2.097   6.145   1.598  0.1486  1.4685 -1.6183
 5310TIP3   OH215893   2.861   6.214   2.941 -0.0285 -0.2209  0.7564
 5310TIP3    H115894   2.794   6.201   2.874 -0.1186  1.7210  0.4065
 5310TIP3    H215895   2.930   6.151   2.918 -0.0441  0.3890 -1.2164
 5311TIP3   OH215896   6.701   6.184   2.340 -0.5485  0.1256  0.0218
 5311TIP3    H115897   6.714   6.242   2.265 -1.7086 -1.6436 -1.6440
 5311TIP3    H215898   6.771   6.119   2.332 -0.4667  0.1273  0.6993
 5312TIP3   OH215899   4.517   5.444   2.148  0.0982  0.0468  0.0288
 5312TIP3    H115900   4.475   5.384   2.086  1.6864 -3.3148  1.9444
 5312TIP3    H215901   4.444   5.479   2.200 -0.8881 -0.0734 -1.2163
 5313TIP3   OH215902   2.158   5.345   3.867  0.1113  0.1143  0.1909
 5313TIP3    H115903   2.098   5.368   3.938 -0.6147  1.4093 -0.8006
 5313TIP3    H215904   2.195   5.429   3.840 -1.0545 -0.0594 -2.1954
 5314TIP3   OH215905   0.535   5.620   4.429  0.8335 -0.4086 -0.4596
 5314TIP3    H115906   0.558   5.691   4.370  1.7896 -0.4500 -0.1635
 5314TIP3    H215907   0.540   5.541   4.375 -0.6048 -0.2293 -0.8814
 5315TIP3   OH215908   0.745   0.701   1.544  0.3455  0.5962 -0.1405
 5315TIP3    H115909   0.838   0.689   1.566  0.9718  2.8192 -1.3483
 5315TIP3    H215910   0.743   0.701   1.449 -0.5633  2.5079 -0.1627
 5316TIP3   OH215911   4.918   2.032   2.037  0.2135  0.2880 -0.4721
 5316TIP3    H115912   4.978   2.062   1.970  0.4220  1.6278  0.2661
 5316TIP3    H215913   4.949   2.074   2.118 -1.0027  0.0748  0.1398
 5317TIP3   OH215914   2.872   4.634   5.846 -0.1183 -0.2585  0.0048
 5317TIP3    H115915   2.933   4.697   5.808 -2.0900  0.5579 -1.9718
 5317TIP3    H215916   2.830   4.681   5.918 -0.3148  0.0696 -0.3267
 5318TIP3   OH215917   6.820   6.758   4.737  0.4086  1.0542 -0.1975
 5318TIP3    H115918   6.761   6.733   4.808 -2.4231 -0.6872 -2.9239
 5318TIP3    H215919   6.821   6.854   4.740 -1.0613  1.0735  1.0830
 5319TIP3   OH215920   7.155   3.916   2.272 -0.0896  0.1711  0.1605
 5319TIP3    H115921   7.223   3.870   2.223  0.3862  1.2769 -0.2378
 5319TIP3    H215922   7.185   3.916   2.362 -0.4712 -0.9664  0.3011
 5320TIP3   OH215923   5.157   0.642   4.554  0.3514  0.2145  0.1802
 5320TIP3    H115924   5.149   0.676   4.644  0.8739 -0.5689  0.5322
 5320TIP3    H215925   5.074   0.667   4.512  0.9698  2.5588  0.1872
 5321TIP3   OH215926   4.842   4.198   0.744  0.0635 -0.1573  0.1292
 5321TIP3    H115927   4.843   4.145   0.824 -0.0540  1.1317  1.0115
 5321TIP3    H215928   4.775   4.264   0.760 -0.7971 -0.5643 -1.5265
 5322TIP3   OH215929   0.584   4.372   5.149 -0.2342 -0.1747 -0.7245
 5322TIP3    H115930   0.519   4.305   5.129  0.3650 -0.5837 -1.3501
 5322TIP3    H215931   0.553   4.451   5.103 -0.8951 -0.0342 -0.0553
 5323TIP3   OH215932   6.313   4.515   3.924  0.6194 -0.4596 -0.4176
 5323TIP3    H115933   6.333   4.480   3.837  1.4282 -1.3384  0.0895
 5323TIP3    H215934   6.232   4.564   3.913  1.0165 -0.0798 -1.7795
 5324TIP3   OH215935   6.909   0.280   3.186 -0.1925 -0.1989  0.2326
 5324TIP3    H115936   6.968   0.205   3.180 -1.0757 -0.7843 -2.3314
 5324TIP3    H215937   6.958   0.351   3.144 -0.4619 -0.1352  0.0201
 5325TIP3   OH215938   3.280   2.438   1.985 -0.0577  0.0064  0.5079
 5325TIP3    H115939   3.220   2.366   1.966  2.2471 -2.1051  0.7704
 5325TIP3    H215940   3.337   2.443   1.908  0.2654  1.0674  0.8023
 5326TIP3   OH215941   2.902   2.341   3.017  0.3213 -0.2087 -0.3821
 5326TIP3    H115942   2.970   2.399   2.983 -0.9018  1.1453 -0.6249
 5326TIP3    H215943   2.896   2.270   2.953 -0.0311  0.8511 -1.5652
 5327TIP3   OH215944   5.260   1.394   3.389  0.5186 -0.2703 -0.1633
 5327TIP3    H115945   5.172   1.357   3.397  0.6609 -0.1929  2.6682
 5327TIP3    H215946   5.245   1.488   3.374  0.1287 -0.3374 -0.2059
 5328TIP3   OH215947   4.646   1.042   2.299 -1.0390 -0.0481  0.4545
 5328TIP3    H115948   4.597   0.960   2.292  0.1360 -0.7436 -0.0020
 5328TIP3    H215949   4.724   1.028   2.245 -0.1847  0.9055  1.3870
 5329TIP3   OH215950   0.149   5.392   1.402  0.1805  0.2874  0.0417
 5329TIP3    H115951   0.151   5.318   1.463  1.6943  0.4834  0.2662
 5329TIP3    H215952   0.071   5.377   1.348  0.1386 -1.1513  0.4717
 5330TIP3   OH215953   2.242   0.394   2.485 -0.1876  0.6275 -0.2833
 5330TIP3    H115954   2.281   0.431   2.563  0.2476  1.6783 -0.9757
 5330TIP3    H215955   2.163   0.445   2.470 -2.6223 -2.1864  1.7420
 5331TIP3   OH215956   5.769   3.627   0.187  0.0544  0.9387 -0.3118
 5331TIP3    H115957   5.813   3.681   0.121  0.1733  2.5719  1.0686
 5331TIP3    H215958   5.708   3.686   0.231  1.4479  0.4795  2.4442
 5332TIP3   OH215959   4.026   5.936   2.338  0.5016  0.2569  0.2633
 5332TIP3    H115960   3.958   6.001   2.322  0.3669 -0.2812 -1.5864
 5332TIP3    H215961   3.979   5.852   2.338  0.9362  0.0090  0.6821
 5333TIP3   OH215962   2.532   1.095   3.503  0.0057  0.5470 -0.3211
 5333TIP3    H115963   2.500   1.045   3.577 -0.6738  1.2498 -0.1307
 5333TIP3    H215964   2.455   1.139   3.467  0.5756  1.4629 -0.4699
 5334TIP3   OH215965   4.859   5.568   5.730  0.1162 -0.1476  0.2888
 5334TIP3    H115966   4.896   5.581   5.817 -0.7302  0.2268  0.6013
 5334TIP3    H215967   4.803   5.492   5.739  0.6985 -0.6384 -0.1545
 5335TIP3   OH215968   4.761   4.381   1.121  0.4310 -0.3438 -0.3755
 5335TIP3    H115969   4.799   4.457   1.078 -0.6298  0.1050 -0.5396
 5335TIP3    H215970   4.690   4.416   1.175  0.9494 -1.0285  0.8134
 5336TIP3   OH215971   3.745   3.889   5.088 -0.0553  0.2423 -0.2807
 5336TIP3    H115972   3.681   3.943   5.040  1.1101  0.5619 -1.5348
 5336TIP3    H215973   3.734   3.915   5.179 -0.4099  1.6717 -0.7016
 5337TIP3   OH215974   2.481   3.587   0.126  0.1650  0.0606  0.0968
 5337TIP3    H115975   2.567   3.555   0.099  1.1160  1.9625  0.6209
 5337TIP3    H215976   2.459   3.537   0.204  0.5684 -0.7751 -0.3194
 5338TIP3   OH215977   6.437   1.710   0.900  0.9011  0.1928  0.0050
 5338TIP3    H115978   6.354   1.745   0.931  1.4445  1.2785  0.2729
 5338TIP3    H215979   6.463   1.769   0.829  2.1199  0.7205  0.8514
 5339TIP3   OH215980   3.961   0.951   1.827 -0.3352  0.1455 -0.3094
 5339TIP3    H115981   3.904   0.900   1.885  2.2944 -1.6979  0.8513
 5339TIP3    H215982   4.000   1.017   1.884 -2.6034  2.7432 -1.5082
 5340TIP3   OH215983   2.626   0.930   2.736 -0.0709 -0.1732 -0.1243
 5340TIP3    H115984   2.600   0.947   2.827  1.1011  1.8819 -0.1344
 5340TIP3    H215985   2.548   0.890   2.696 -1.7167  1.7704  0.9736
 5341TIP3   OH215986   2.780   1.687   5.533 -0.6427  0.0903 -0.0990
 5341TIP3    H115987   2.865   1.648   5.554 -0.9420 -0.3535  0.3086
 5341TIP3    H215988   2.794   1.781   5.542 -0.0407  0.0609 -0.6164
 5342TIP3   OH215989   4.784   3.061   1.795 -0.3381 -0.5966 -0.3260
 5342TIP3    H115990   4.709   3.044   1.852 -0.8300 -1.2201 -1.1243
 5342TIP3    H215991   4.842   3.117   1.846 -0.5445 -1.5038  0.9550
 5343TIP3   OH215992   6.559   2.910   2.314  0.0396  0.0016  0.5620
 5343TIP3    H115993   6.535   2.850   2.384 -0.8385  0.3210  0.5408
 5343TIP3    H215994   6.613   2.977   2.357  0.2988 -0.3230  0.7460
 5344TIP3   OH215995   1.862   2.147   0.227 -0.4728 -0.2493 -0.2789
 5344TIP3    H115996   1.806   2.081   0.268  0.0929 -0.3590  0.3414
 5344TIP3    H215997   1.925   2.096   0.177 -0.0236 -0.1902  0.2159
 5345TIP3   OH215998   5.387   5.163   4.348  0.1400 -0.2956  0.2994
 5345TIP3    H115999   5.344   5.102   4.409 -1.2330  2.1620  1.9693
 5345TIP3    H216000   5.317   5.188   4.287  1.1478 -1.6572 -1.4897
 5346TIP3   OH216001   2.672   5.012   4.357 -0.2415  0.3880  1.1503
 5346TIP3    H116002   2.691   5.035   4.266 -0.7129  0.9360  1.1870
 5346TIP3    H216003   2.576   5.015   4.363 -0.2735 -0.7003  1.3902
 5347TIP3   OH216004   6.182   5.963   2.203 -0.2736 -0.7125  0.7001
 5347TIP3    H116005   6.218   6.050   2.186  0.7915 -0.9807  1.4357
 5347TIP3    H216006   6.194   5.916   2.120 -2.7690  0.4147 -0.3900
 5348TIP3   OH216007   5.058   1.076   3.950  0.3195 -0.5980  0.7003
 5348TIP3    H116008   5.090   1.121   3.872 -0.5890 -2.3564 -0.7239
 5348TIP3    H216009   5.114   0.999   3.958  0.7263 -0.1937  2.1074
 5349TIP3   OH216010   2.747   0.170   5.741  0.2169 -0.1211  0.1172
 5349TIP3    H116011   2.697   0.242   5.778  0.2871 -0.0208  0.0173
 5349TIP3    H216012   2.817   0.154   5.804  0.1039 -0.2132  0.2214
 5350TIP3   OH216013   3.499   2.554   0.921 -0.3195  0.2109 -0.3285
 5350TIP3    H116014   3.438   2.580   0.851 -0.3402 -0.1775 -0.4591
 5350TIP3    H216015   3.467   2.468   0.949 -0.9257  0.8086  0.8718
 5351TIP3   OH216016  -0.016   0.153   1.326  0.0178  0.0031 -0.4309
 5351TIP3    H116017   0.033   0.166   1.408  2.4196  0.0092 -1.7558
 5351TIP3    H216018   0.047   0.176   1.257 -1.5974 -0.9547 -2.3292
 5352TIP3   OH216019   6.754   2.236   0.019 -0.4892  0.0646  0.0551
 5352TIP3    H116020   6.745   2.160   0.076  1.2953 -0.0361  0.2501
 5352TIP3    H216021   6.730   2.204  -0.068 -3.4063  0.2688  0.6980
 5353TIP3   OH216022   5.045   0.943   0.114  0.2405 -0.5865 -0.1566
 5353TIP3    H116023   5.066   1.032   0.141 -0.4489 -0.3290 -0.4611
 5353TIP3    H216024   5.025   0.897   0.196 -0.0421 -0.2878 -0.0585
 5354TIP3   OH216025   2.475   0.420   4.965 -0.4068  0.2058  0.0557
 5354TIP3    H116026   2.537   0.454   5.030 -0.2237 -0.4088  0.2118
 5354TIP3    H216027   2.389   0.446   4.998 -0.2819  0.3185  0.2935
 5355TIP3   OH216028   5.603   6.751   3.032  0.5557 -0.2391  0.6251
 5355TIP3    H116029   5.550   6.830   3.041  0.5426  0.0054 -1.3000
 5355TIP3    H216030   5.565   6.690   3.097 -0.8729  0.5605  0.5922
 5356TIP3   OH216031   1.212   4.837   0.780 -0.3579 -0.5312  0.3214
 5356TIP3    H116032   1.221   4.863   0.871  1.2563 -0.1479  0.0942
 5356TIP3    H216033   1.303   4.831   0.748 -0.8564  1.8898 -1.9298
 5357TIP3   OH216034   4.593   3.339   1.949 -0.3192  0.0604 -0.2899
 5357TIP3    H116035   4.542   3.368   1.873 -1.5140 -1.3134 -0.0690
 5357TIP3    H216036   4.639   3.417   1.979 -0.9894  0.9645 -1.5301
 5358TIP3   OH216037   1.483   4.323   4.134  0.6359 -0.3254 -0.6480
 5358TIP3    H116038   1.491   4.349   4.042 -0.7450 -0.5176 -0.8467
 5358TIP3    H216039   1.526   4.238   4.139  0.6553 -0.3476 -1.1455
 5359TIP3   OH216040   4.859   0.142   5.184 -0.7265  0.0864  0.0250
 5359TIP3    H116041   4.839   0.063   5.134 -1.3023  0.8929 -1.0654
 5359TIP3    H216042   4.773   0.181   5.202 -0.3813  1.6443 -1.4536
 5360TIP3   OH216043   0.451   2.295   4.666 -0.3797  0.4668 -0.7795
 5360TIP3    H116044   0.533   2.276   4.712 -0.1951  2.2381 -0.2704
 5360TIP3    H216045   0.437   2.220   4.609  1.0225 -0.3765 -0.0775
 5361TIP3   OH216046   0.602   0.757   2.871  0.1370 -0.3506  0.1677
 5361TIP3    H116047   0.601   0.832   2.811 -0.5702 -1.4497 -1.2664
 5361TIP3    H216048   0.650   0.788   2.948  0.0022  1.5089 -0.4505
 5362TIP3   OH216049   7.029   0.882   0.311  0.5081  0.0943 -0.4000
 5362TIP3    H116050   6.971   0.938   0.363 -0.2553 -1.1643  0.1555
 5362TIP3    H216051   7.082   0.836   0.375 -0.2094 -1.2278 -0.7105
 5363TIP3   OH216052   5.907   3.987   1.540 -0.1141 -0.8977 -0.1686
 5363TIP3    H116053   5.888   3.989   1.446  2.2370 -1.2580 -0.7211
 5363TIP3    H216054   5.945   3.901   1.556  0.7073 -0.3831  0.8273
 5364TIP3   OH216055   4.668   4.209   2.425 -0.1046 -0.3541  0.1334
 5364TIP3    H116056   4.656   4.115   2.433 -3.4171 -0.0165  0.7269
 5364TIP3    H216057   4.658   4.226   2.331  0.5917 -0.5963  0.0138
 5365TIP3   OH216058   4.526   4.618   4.798 -0.3864 -0.2851  0.0135
 5365TIP3    H116059   4.439   4.632   4.762  1.1092  0.3597 -3.8535
 5365TIP3    H216060   4.516   4.544   4.858 -3.8551  1.0177  1.3024
 5366TIP3   OH216061   2.000   2.598   4.812  0.0451  0.2425 -0.1377
 5366TIP3    H116062   1.925   2.611   4.754  0.6912  0.5403 -0.9505
 5366TIP3    H216063   2.072   2.575   4.752  0.4569 -0.6519  0.6769
 5367TIP3   OH216064   4.229   6.631   4.297  0.0141  0.0695  0.1323
 5367TIP3    H116065   4.210   6.542   4.328 -1.1668 -0.1012 -1.0340
 5367TIP3    H216066   4.143   6.670   4.282  0.5004  1.5834  1.0272
 5368TIP3   OH216067   6.976   3.661   2.769  0.3446  0.2669 -0.4514
 5368TIP3    H116068   7.001   3.691   2.857 -0.3953  0.5911 -0.3410
 5368TIP3    H216069   6.965   3.741   2.719  0.7788  0.0800 -0.8508
 5369TIP3   OH216070   1.569   2.944   3.367 -0.1860 -0.4843 -0.2395
 5369TIP3    H116071   1.647   2.965   3.418 -0.2364 -1.1339  0.1201
 5369TIP3    H216072   1.527   2.874   3.417  0.2515 -1.7990 -1.6809
 5370TIP3   OH216073   0.726   4.065   0.934  0.4460 -0.2397 -0.4121
 5370TIP3    H116074   0.699   4.156   0.920  2.6446  0.3049 -1.5549
 5370TIP3    H216075   0.813   4.072   0.973  2.2065 -1.7476 -3.6574
 5371TIP3   OH216076   4.702   3.546   5.178  0.4481 -0.0960 -0.4229
 5371TIP3    H116077   4.743   3.495   5.108  3.3254  0.8840  0.4300
 5371TIP3    H216078   4.712   3.637   5.151  0.5176  0.2393  0.6771
 5372TIP3   OH216079   7.091   2.641   1.644 -0.6550 -0.2156  0.1461
 5372TIP3    H116080   7.088   2.553   1.606  0.7826 -0.4297  0.4649
 5372TIP3    H216081   7.019   2.688   1.603 -2.2100 -1.8911  0.8594
 5373TIP3   OH216082   3.603   2.892   1.497 -0.5877 -0.0571  0.3521
 5373TIP3    H116083   3.669   2.824   1.485  0.6723  0.2580  4.0989
 5373TIP3    H216084   3.520   2.847   1.481  0.2707 -2.1549  1.3340
 5374TIP3   OH216085   5.772   4.629   4.437 -0.6858 -0.5014 -0.4983
 5374TIP3    H116086   5.699   4.578   4.474 -1.1901 -0.6483 -1.6437
 5374TIP3    H216087   5.731   4.707   4.401 -0.2896 -0.6008 -1.1847
 5375TIP3   OH216088   5.691   0.297   0.304  0.2854  0.6340  0.6674
 5375TIP3    H116089   5.655   0.280   0.217 -0.1966 -0.1865  1.0178
 5375TIP3    H216090   5.752   0.369   0.290 -0.1690  0.8654 -0.2580
 5376TIP3   OH216091   7.020   0.723   1.489 -0.3916  0.2202  0.1447
 5376TIP3    H116092   6.955   0.660   1.457 -0.1295  0.0954 -0.1501
 5376TIP3    H216093   7.041   0.694   1.577  0.1831 -0.4691 -0.2098
 5377TIP3   OH216094   1.137   3.781   2.995 -0.6859 -0.7255 -0.1588
 5377TIP3    H116095   1.120   3.691   3.024 -3.4318 -0.4936 -0.7572
 5377TIP3    H216096   1.183   3.822   3.068 -0.2999 -2.3196  0.5400
 5378TIP3   OH216097   4.366   1.345   3.693  0.1924 -0.2749 -0.1923
 5378TIP3    H116098   4.411   1.342   3.778  0.2051  0.4235 -0.1674
 5378TIP3    H216099   4.421   1.294   3.634 -0.4837 -1.9149  0.5152
 5379TIP3   OH216100   1.028   2.246   0.547  0.1258  0.1695  0.4042
 5379TIP3    H116101   0.991   2.271   0.462 -0.8622  0.1903  0.8233
 5379TIP3    H216102   1.122   2.241   0.532  0.0325  0.8721 -0.5173
 5380TIP3   OH216103   6.515   1.025   4.952  0.2968  0.4275  0.8833
 5380TIP3    H116104   6.553   1.051   4.868 -1.0564 -0.6850 -0.1077
 5380TIP3    H216105   6.585   0.977   4.996  0.5224 -0.3741 -0.3039
 5381TIP3   OH216106   2.759   3.324   2.149 -0.2657  0.4821  0.0795
 5381TIP3    H116107   2.766   3.233   2.121 -0.2069  0.4849  0.0844
 5381TIP3    H216108   2.675   3.329   2.195 -0.3201  0.4568 -0.0169
 5382TIP3   OH216109   6.012   0.447   4.653 -0.2827 -0.0993  0.6581
 5382TIP3    H116110   6.094   0.418   4.693  1.4459 -0.4086 -2.7635
 5382TIP3    H216111   5.995   0.383   4.584 -2.5309  0.9291  0.1745
 5383TIP3   OH216112   4.277   5.671   0.486  0.1349 -0.3513 -0.8488
 5383TIP3    H116113   4.324   5.590   0.463  0.3644 -0.2582 -0.7090
 5383TIP3    H216114   4.185   5.650   0.470  0.0283 -1.1610  0.6329
 5384TIP3   OH216115   1.509   5.573   4.344 -0.3989 -0.2077  0.3400
 5384TIP3    H116116   1.587   5.627   4.357 -0.0863 -0.4013 -0.6350
 5384TIP3    H216117   1.451   5.628   4.291 -0.1342 -0.7630 -0.5445
 5385TIP3   OH216118   0.829   3.332   5.026  0.2237 -0.0808 -0.2419
 5385TIP3    H116119   0.785   3.305   5.107 -0.5930 -3.0064 -1.5085
 5385TIP3    H216120   0.917   3.297   5.035  0.2124 -0.1753 -0.5164
 5386TIP3   OH216121   2.105   4.080   0.466 -0.6255 -0.5339 -0.6206
 5386TIP3    H116122   2.114   4.172   0.494  0.6316 -1.4142  2.2440
 5386TIP3    H216123   2.174   4.069   0.400  0.3657  0.1857  0.2495
 5387TIP3   OH216124   5.209   5.944   1.455 -0.6581 -0.5998  0.5387
 5387TIP3    H116125   5.261   6.020   1.481 -0.8300 -0.5575  0.7717
 5387TIP3    H216126   5.121   5.963   1.490 -0.8569 -0.6168  0.0573
 5388TIP3   OH216127   4.270   2.985   3.492 -0.4503  0.5426  0.4680
 5388TIP3    H116128   4.249   3.073   3.462  1.6370  0.8985 -0.1346
 5388TIP3    H216129   4.214   2.972   3.569 -0.3826  2.6436  0.9472
 5389TIP3   OH216130   4.112   3.933   3.706 -0.1589  0.1927 -0.9781
 5389TIP3    H116131   4.163   4.014   3.704  1.2585 -0.6582 -2.9083
 5389TIP3    H216132   4.021   3.962   3.695 -0.2394  1.7450  2.4981
 5390TIP3   OH216133   3.177   1.731   3.105  0.0171  0.7884 -0.1856
 5390TIP3    H116134   3.203   1.716   3.014  0.7826  0.5584  0.0686
 5390TIP3    H216135   3.198   1.650   3.150 -0.2283  0.9514  0.2283
 5391TIP3   OH216136   0.873   0.198   3.357  0.1249 -0.0671 -0.4335
 5391TIP3    H116137   0.842   0.251   3.430 -0.4201 -1.3914  0.3420
 5391TIP3    H216138   0.802   0.136   3.341  1.2955 -1.4729 -0.3547
 5392TIP3   OH216139   4.061   3.236   5.765 -0.2308  0.2842 -0.5410
 5392TIP3    H116140   4.024   3.236   5.854 -0.4120  1.1634 -0.6071
 5392TIP3    H216141   3.993   3.195   5.711 -0.4000  0.3581 -0.3846
 5393TIP3   OH216142   3.869   4.668   5.543  0.0958  0.1580 -0.2363
 5393TIP3    H116143   3.945   4.630   5.588 -0.6587  1.8034  2.6337
 5393TIP3    H216144   3.906   4.736   5.487  0.9710 -1.2624 -1.4568
 5394TIP3   OH216145   1.752   0.460   2.855  0.4230 -0.6502  0.0271
 5394TIP3    H116146   1.692   0.527   2.885 -0.7880 -0.0745 -3.2615
 5394TIP3    H216147   1.696   0.387   2.828  1.5513 -1.9379  0.9856
 5395TIP3   OH216148   1.704   1.935   0.348  0.1578 -0.0996 -0.3279
 5395TIP3    H116149   1.641   1.880   0.302  0.2189  0.5858 -1.2595
 5395TIP3    H216150   1.678   1.930   0.440 -0.8227 -0.3875 -0.6102
 5396TIP3   OH216151   4.819   0.966   3.198 -0.6072  0.3594  0.1737
 5396TIP3    H116152   4.822   1.061   3.200  1.0038  0.3208  0.6790
 5396TIP3    H216153   4.872   0.938   3.273 -2.4981 -0.9481  1.1316
 5397TIP3   OH216154   5.442   1.855   3.507  0.0169  0.6313  0.0070
 5397TIP3    H116155   5.414   1.806   3.584  0.3234  1.5810  0.7531
 5397TIP3    H216156   5.525   1.814   3.482 -0.7165 -0.4932 -0.5975
 5398TIP3   OH216157   1.004   3.630   2.658  0.0072 -0.2454 -0.2522
 5398TIP3    H116158   0.971   3.634   2.748  0.4437  0.0714 -0.1002
 5398TIP3    H216159   1.093   3.666   2.664  0.1954 -0.6258 -0.7372
 5399TIP3   OH216160   1.434   2.721   0.067  0.1990  0.1307  0.1120
 5399TIP3    H116161   1.501   2.788   0.083  0.1976 -0.1950  1.6224
 5399TIP3    H216162   1.365   2.740   0.132 -1.0260  0.2368 -1.1660
 5400TIP3   OH216163   7.042   2.964   4.914 -0.0263  0.1206 -0.1608
 5400TIP3    H116164   6.964   2.986   4.965 -0.1121 -2.4402  0.9686
 5400TIP3    H216165   7.018   2.884   4.867  1.4034  0.1899 -1.0776
 5401TIP3   OH216166   5.142   5.890   4.729  0.0262  0.2196 -0.1246
 5401TIP3    H116167   5.140   5.890   4.825  0.3925 -0.0974 -0.1128
 5401TIP3    H216168   5.101   5.973   4.704  0.3099  0.4986  0.3151
 5402TIP3   OH216169   0.565   1.817   3.425 -0.0860 -0.3395 -0.1964
 5402TIP3    H116170   0.645   1.861   3.396  0.2225  0.3684  1.5968
 5402TIP3    H216171   0.494   1.861   3.378  0.4607 -0.1229 -0.8359
 5403TIP3   OH216172   5.521   2.843   5.900  0.4633 -0.1995 -0.6668
 5403TIP3    H116173   5.482   2.756   5.895 -0.4613 -0.0692  2.2042
 5403TIP3    H216174   5.497   2.886   5.818 -0.4794 -2.0758 -1.4260
 5404TIP3   OH216175   5.847   5.062   2.669 -0.4314  0.2593 -0.1305
 5404TIP3    H116176   5.879   5.150   2.650 -1.2714  0.3297 -1.3401
 5404TIP3    H216177   5.899   5.004   2.613 -1.2858  0.2144 -0.9009
 5405TIP3   OH216178   6.783   5.899   3.164 -0.5004  0.0587  0.2358
 5405TIP3    H116179   6.698   5.910   3.121  1.0405  2.9508 -2.5474
 5405TIP3    H216180   6.830   5.838   3.109  0.2403  0.8829 -0.0638
 5406TIP3   OH216181   1.584   0.278   2.788  0.4152 -0.7372 -0.1691
 5406TIP3    H116182   1.522   0.264   2.859  2.0741  0.6967  1.6481
 5406TIP3    H216183   1.534   0.325   2.722 -0.7363 -0.6606  0.7308
 5407TIP3   OH216184   6.605   3.974   2.609  0.4696 -0.4603  1.0714
 5407TIP3    H116185   6.560   3.948   2.529  2.8101 -1.5299  0.0069
 5407TIP3    H216186   6.622   4.068   2.597 -2.3309  0.2593  2.0180
 5408TIP3   OH216187   2.667   5.106   5.478  0.1331 -0.2984  0.5970
 5408TIP3    H116188   2.738   5.170   5.487  1.0674 -0.5015 -3.5880
 5408TIP3    H216189   2.706   5.023   5.508  1.9541 -0.4922 -2.0115
 5409TIP3   OH216190   1.610   0.766   3.321  0.0362  0.1044 -0.4795
 5409TIP3    H116191   1.633   0.812   3.241  1.4015  0.6629  0.2107
 5409TIP3    H216192   1.514   0.763   3.320  0.0401 -0.6356 -2.5076
 5410TIP3   OH216193   5.883   1.712   2.385 -0.0407  0.5380  0.2914
 5410TIP3    H116194   5.820   1.725   2.314  0.1218  5.1964  0.7430
 5410TIP3    H216195   5.968   1.712   2.342 -0.0359  1.4583  0.2883
 5411TIP3   OH216196   1.774   1.711   5.606  0.0229 -0.2965 -0.2064
 5411TIP3    H116197   1.746   1.629   5.646 -0.9982 -0.6503 -1.5820
 5411TIP3    H216198   1.706   1.732   5.542  0.5870  1.2927 -0.3446
 5412TIP3   OH216199   1.818   2.044   3.403  1.2458 -0.0592 -0.1663
 5412TIP3    H116200   1.762   1.993   3.344 -0.2852  2.2227 -0.8179
 5412TIP3    H216201   1.903   2.048   3.358  0.0338  1.8698 -2.4996
 5413TIP3   OH216202   3.000   5.227   3.490  0.4980  0.1750 -0.1330
 5413TIP3    H116203   2.917   5.200   3.449  0.5113 -0.0439 -0.0127
 5413TIP3    H216204   2.997   5.323   3.487  0.5413  0.1627 -0.7381
 5414TIP3   OH216205   1.994   5.978   3.792  0.0126 -0.3885 -0.6872
 5414TIP3    H116206   1.976   6.031   3.715 -1.8103  1.7186  1.0599
 5414TIP3    H216207   2.055   6.030   3.844 -1.8677  0.1600  1.1026
 5415TIP3   OH216208   3.942   3.387   3.885  0.4330 -0.0766 -0.2744
 5415TIP3    H116209   4.036   3.376   3.872  0.5975 -2.0532  1.7825
 5415TIP3    H216210   3.906   3.299   3.871 -1.0583  0.5482 -0.5572
 5416TIP3   OH216211   0.867   1.706   2.086  0.1147  0.0884  0.2485
 5416TIP3    H116212   0.897   1.619   2.115 -0.5814 -0.0331  0.6425
 5416TIP3    H216213   0.946   1.760   2.086  0.8639 -0.9157 -1.4831
 5417TIP3   OH216214   4.755   6.714   5.917 -0.3333  0.1712 -0.1606
 5417TIP3    H116215   4.755   6.808   5.898 -2.7458  0.2105 -0.2553
 5417TIP3    H216216   4.695   6.676   5.853  2.0230 -1.7980 -1.3769
 5418TIP3   OH216217   3.480   2.991   0.335  0.1090 -0.1324 -0.6075
 5418TIP3    H116218   3.474   3.059   0.268  1.7015 -0.7977 -1.4809
 5418TIP3    H216219   3.465   2.909   0.288 -0.0536 -0.5096  0.0922
 5419TIP3   OH216220   1.303   5.587   2.631  0.0212  0.4158 -0.0700
 5419TIP3    H116221   1.383   5.601   2.682 -0.7080 -0.2608  1.2997
 5419TIP3    H216222   1.316   5.503   2.588  0.9234  1.2947 -1.6280
 5420TIP3   OH216223   4.019   4.440   1.694  0.8639  1.1940  0.3144
 5420TIP3    H116224   4.087   4.376   1.678  1.1968  1.4636  0.6298
 5420TIP3    H216225   4.033   4.469   1.784  0.2535  1.1582  0.4294
 5421TIP3   OH216226   5.027   3.724   2.197  0.0680 -0.6428 -1.0131
 5421TIP3    H116227   5.096   3.699   2.259  1.0646  2.1644 -0.8577
 5421TIP3    H216228   5.064   3.704   2.111  0.8252  0.2537 -0.9017
 5422TIP3   OH216229   0.229   0.459   4.771  0.7472 -0.0292  0.1241
 5422TIP3    H116230   0.179   0.482   4.849 -0.1895 -1.1291 -0.1220
 5422TIP3    H216231   0.194   0.516   4.702 -0.4272 -0.9742 -0.1110
 5423TIP3   OH216232   1.454   4.527   0.991 -0.3502 -0.3221  0.1880
 5423TIP3    H116233   1.395   4.473   0.939  1.0262  0.1011 -1.9120
 5423TIP3    H216234   1.538   4.481   0.986  0.0414  0.2451  1.2683
 5424TIP3   OH216235   1.720   2.720   4.183 -0.5307  0.8185  0.1408
 5424TIP3    H116236   1.694   2.653   4.120 -1.5174  0.0532  1.3144
 5424TIP3    H216237   1.804   2.752   4.151 -0.8535  0.2235 -1.3684
 5425TIP3   OH216238   4.750   0.426   3.478  0.0544 -0.0020 -0.1095
 5425TIP3    H116239   4.689   0.375   3.424 -0.8632 -0.0247  0.9059
 5425TIP3    H216240   4.705   0.436   3.562  1.2065  0.5050  0.4760
 5426TIP3   OH216241   6.775   0.410   1.184 -0.0839 -0.2481 -0.5815
 5426TIP3    H116242   6.866   0.387   1.169 -0.0435  0.0225 -0.7545
 5426TIP3    H216243   6.777   0.501   1.212 -0.1489 -0.7489  1.1813
 5427TIP3   OH216244   2.983   1.603   3.927 -0.2255 -0.1298  0.0572
 5427TIP3    H116245   3.069   1.635   3.901  0.2464 -0.5432  1.0838
 5427TIP3    H216246   2.971   1.633   4.017  0.0350 -2.3736  0.9085
 5428TIP3   OH216247   0.452   2.761   0.369  0.7577 -0.0826 -0.1667
 5428TIP3    H116248   0.486   2.764   0.280  0.0215  0.6112 -0.4377
 5428TIP3    H216249   0.431   2.669   0.385  1.6948 -0.3478 -0.3889
 5429TIP3   OH216250   1.972   3.368   3.922 -0.2534 -0.1583  0.2173
 5429TIP3    H116251   2.035   3.327   3.862 -1.4034  0.0644 -1.1845
 5429TIP3    H216252   1.901   3.304   3.928 -0.0697 -0.2640  1.5384
 5430TIP3   OH216253   5.478   1.181   2.483  0.0654 -0.3907  0.5333
 5430TIP3    H116254   5.469   1.186   2.578 -1.9586 -0.9104  0.4194
 5430TIP3    H216255   5.571   1.166   2.468  1.0243  2.7900  2.2535
 5431TIP3   OH216256   2.665   4.546   5.267  0.0132 -0.0763  0.1854
 5431TIP3    H116257   2.639   4.463   5.228  1.8431 -0.7994  0.4042
 5431TIP3    H216258   2.761   4.542   5.271  0.1883  2.2225 -0.1898
 5432TIP3   OH216259   0.348   6.547   0.848  0.3646  0.2794  0.3386
 5432TIP3    H116260   0.416   6.515   0.908  0.0298 -0.3320  0.3942
 5432TIP3    H216261   0.280   6.582   0.905  0.8461  1.3643  0.2755
 5433TIP3   OH216262   6.755   3.941   5.218 -0.0307 -0.7101 -0.2520
 5433TIP3    H116263   6.692   3.923   5.288 -0.5772  0.0334 -0.5323
 5433TIP3    H216264   6.839   3.947   5.262 -0.6228  1.8480  0.6990
 5434TIP3   OH216265   0.869   1.094  -0.003  0.0680 -0.2257 -0.2557
 5434TIP3    H116266   0.878   1.002   0.021 -0.3752 -0.3943 -0.7138
 5434TIP3    H216267   0.870   1.141   0.080 -1.9017 -0.8244  0.1627
 5435TIP3   OH216268   1.296   0.810   0.540 -0.6719  0.5161 -0.2401
 5435TIP3    H116269   1.246   0.740   0.583 -0.3956  0.6097  0.2305
 5435TIP3    H216270   1.385   0.775   0.533 -0.6275  0.6578 -0.3822
 5436TIP3   OH216271   4.385   2.982   1.038  0.1849 -0.0012  0.3005
 5436TIP3    H116272   4.340   2.983   1.122 -0.5494 -0.0471 -0.0857
 5436TIP3    H216273   4.319   2.951   0.975  0.7401 -0.0327 -0.2818
 5437TIP3   OH216274   2.624   6.750   5.818 -0.1505 -0.3324 -0.2992
 5437TIP3    H116275   2.686   6.689   5.778 -1.1592  0.1330 -2.7674
 5437TIP3    H216276   2.581   6.793   5.744 -1.4281  1.3979  1.3358
 5438TIP3   OH216277   6.376   4.207   4.777 -0.1684  0.1824  0.0596
 5438TIP3    H116278   6.374   4.303   4.771 -0.7617  0.1429 -0.5112
 5438TIP3    H216279   6.285   4.180   4.767  0.0318 -0.4580 -0.1202
 5439TIP3   OH216280   7.103   2.388   4.964 -0.9717 -0.0745 -0.4024
 5439TIP3    H116281   7.164   2.458   4.942 -0.6370 -0.4744 -0.7766
 5439TIP3    H216282   7.044   2.382   4.889 -2.9047  1.7716  0.8460
 5440TIP3   OH216283   5.244   4.408   4.815  0.7846  0.4765  0.0467
 5440TIP3    H116284   5.297   4.374   4.743 -0.0879 -1.0885  0.1000
 5440TIP3    H216285   5.171   4.452   4.773 -0.0660 -0.9873 -0.0749
 5441TIP3   OH216286   4.709   1.136   4.568 -0.0021 -0.2154 -0.2505
 5441TIP3    H116287   4.696   1.133   4.473 -1.9136 -0.9778 -0.0036
 5441TIP3    H216288   4.730   1.227   4.586 -2.3280  0.5802 -1.1348
 5442TIP3   OH216289   7.057   5.636   2.515  0.3099 -0.6261 -0.0908
 5442TIP3    H116290   6.999   5.686   2.458  1.0311  0.8439  0.4077
 5442TIP3    H216291   7.000   5.573   2.558 -0.3239 -1.5175 -2.0981
 5443TIP3   OH216292   6.845   1.582   1.261 -0.1888 -0.0106  0.5075
 5443TIP3    H116293   6.907   1.572   1.333 -0.4945  0.1687  0.7955
 5443TIP3    H216294   6.781   1.513   1.275  0.7302 -1.1415 -0.6095
 5444TIP3   OH216295   1.043   1.927   2.029 -0.0886  0.4630 -0.4034
 5444TIP3    H116296   1.087   1.999   2.074  1.4470 -0.1072 -0.9283
 5444TIP3    H216297   0.996   1.969   1.957  0.8132  0.9554 -0.7199
 5445TIP3   OH216298   3.389   0.460   2.276  0.0435  0.1263  0.0349
 5445TIP3    H116299   3.354   0.535   2.324  0.4251 -0.6341  1.5922
 5445TIP3    H216300   3.473   0.490   2.240  0.4204  0.3293  1.0505
 5446TIP3   OH216301   4.998   1.263   3.092 -0.3332 -0.4213  0.2817
 5446TIP3    H116302   4.958   1.296   3.011  0.7269 -0.3340 -0.2241
 5446TIP3    H216303   5.041   1.182   3.065 -0.7031 -0.8453  0.9552
 5447TIP3   OH216304   1.098   6.040   2.419  0.3663  0.0303 -0.4776
 5447TIP3    H116305   1.017   6.037   2.369  0.5508  0.5163 -0.8124
 5447TIP3    H216306   1.070   6.036   2.511 -0.0975  1.0236 -0.5599
 5448TIP3   OH216307   4.496   5.818   3.928  0.0826 -0.3417  0.4514
 5448TIP3    H116308   4.544   5.850   3.851  0.0015 -0.9192  0.1527
 5448TIP3    H216309   4.446   5.894   3.958 -1.8835 -0.7253 -1.5908
 5449TIP3   OH216310   5.219   1.552   4.503  0.2601 -0.4454  0.3479
 5449TIP3    H116311   5.295   1.499   4.528 -0.5448 -1.6336  0.3509
 5449TIP3    H216312   5.149   1.489   4.491 -0.5681  0.5722 -0.3223
 5450TIP3   OH216313   4.421   3.418   2.272  0.7183 -0.5090 -0.0437
 5450TIP3    H116314   4.394   3.488   2.332  0.5112  0.4291 -1.1914
 5450TIP3    H216315   4.467   3.356   2.328  1.9179  1.0991  0.8573
 5451TIP3   OH216316   2.196   0.061   2.539  0.4823 -0.0821  0.7195
 5451TIP3    H116317   2.147   0.090   2.463  1.0463 -1.5163 -0.2324
 5451TIP3    H216318   2.275   0.115   2.539 -0.6725  1.7207  1.8384
 5452TIP3   OH216319   4.143   1.674   1.603  0.3458 -0.3323  1.4845
 5452TIP3    H116320   4.219   1.656   1.657  1.3914  0.2150  0.2562
 5452TIP3    H216321   4.122   1.590   1.562  0.6712 -0.3571  1.3640
 5453TIP3   OH216322   0.017   4.381   5.113  0.2176  0.4565 -0.0027
 5453TIP3    H116323  -0.025   4.299   5.087  1.6086 -0.0384 -0.7721
 5453TIP3    H216324   0.045   4.421   5.031  1.3352  0.7131  0.4926
 5454TIP3   OH216325   4.219   6.328   2.578 -0.1885 -0.0826  0.1163
 5454TIP3    H116326   4.127   6.334   2.553  0.2882  0.2558 -1.7311
 5454TIP3    H216327   4.264   6.386   2.517  1.5498 -2.1762 -0.7298
 5455TIP3   OH216328   5.655   3.858   4.698 -0.2013  0.0799  0.2687
 5455TIP3    H116329   5.665   3.767   4.671 -0.7850 -0.6315  2.2390
 5455TIP3    H216330   5.595   3.895   4.634 -2.1626 -1.7283  0.9286
 5456TIP3   OH216331   1.642   0.431   1.752  0.2777  0.3801 -0.2440
 5456TIP3    H116332   1.652   0.476   1.669 -0.5987  0.2968 -0.4015
 5456TIP3    H216333   1.732   0.418   1.783  0.5829  1.0707 -0.8112
 5457TIP3   OH216334   2.628   3.299   3.448 -0.5286  0.1617  0.3238
 5457TIP3    H116335   2.719   3.321   3.468 -0.5497  0.6630 -0.0993
 5457TIP3    H216336   2.615   3.330   3.358 -0.5639 -1.6394 -0.3216
 5458TIP3   OH216337   7.046   5.751   0.640  0.3891 -0.7477 -0.6402
 5458TIP3    H116338   7.129   5.772   0.598  0.7051 -1.4332 -0.3754
 5458TIP3    H216339   6.985   5.817   0.607  1.7369  1.8201  1.6072
 5459TIP3   OH216340   5.607   6.141   1.153  0.0237  0.0093  0.2937
 5459TIP3    H116341   5.629   6.143   1.059  1.3871 -0.3529  0.5903
 5459TIP3    H216342   5.514   6.121   1.155 -0.1211  0.4253 -0.9981
 5460TIP3   OH216343   0.278   5.491   0.512 -0.4805  0.4595  0.1294
 5460TIP3    H116344   0.344   5.423   0.525 -2.3078 -1.5397 -0.4595
 5460TIP3    H216345   0.275   5.537   0.595  0.7324 -0.2569  0.5974
 5461TIP3   OH216346   3.963   4.682   1.215  0.2974  0.3043 -0.0604
 5461TIP3    H116347   3.884   4.636   1.188  1.0045  0.3195 -2.4097
 5461TIP3    H216348   3.940   4.775   1.211  0.7864  0.3788 -2.2305
 5462TIP3   OH216349   7.044   5.123   5.665 -0.9440  0.4581 -0.3172
 5462TIP3    H116350   7.101   5.102   5.591 -0.9783  1.0074 -0.5048
 5462TIP3    H216351   7.086   5.198   5.707 -1.5022  0.8352 -0.4277
 5463TIP3   OH216352   5.859   6.395   4.429 -0.2366  0.3328 -0.1537
 5463TIP3    H116353   5.879   6.458   4.359  0.5200  0.4611  0.1592
 5463TIP3    H216354   5.772   6.419   4.459 -0.8929 -0.2019 -1.5554
 5464TIP3   OH216355   1.177   6.780   4.784  0.4992 -0.6356  0.0059
 5464TIP3    H116356   1.202   6.829   4.705 -3.7704 -0.7744 -1.6838
 5464TIP3    H216357   1.153   6.693   4.751 -2.3784 -0.3820  1.1817
 5465TIP3   OH216358   5.384   3.672   3.457 -0.3524  0.1812  0.7589
 5465TIP3    H116359   5.425   3.590   3.484  0.2568  0.0423 -0.5250
 5465TIP3    H216360   5.443   3.708   3.391 -1.0991  1.1716  0.6050
 5466TIP3   OH216361   1.914   4.573   2.447  0.5280 -0.3723 -0.3362
 5466TIP3    H116362   1.945   4.501   2.391 -0.9931  0.1350 -1.9002
 5466TIP3    H216363   1.820   4.558   2.455  0.5173  0.3115  1.0558
 5467TIP3   OH216364   6.273   4.492   0.143 -0.1322  0.0725 -0.0952
 5467TIP3    H116365   6.287   4.406   0.182 -0.1954 -0.2414 -0.7489
 5467TIP3    H216366   6.362   4.526   0.129 -0.1172  0.4436  0.8683
 5468TIP3   OH216367   5.809   6.770   4.164  0.1079  0.2288 -0.3520
 5468TIP3    H116368   5.896   6.736   4.140  0.0741  1.0306 -1.7396
 5468TIP3    H216369   5.826   6.827   4.239  0.5706 -0.6490  0.2294
 5469TIP3   OH216370   4.103   1.760   2.774 -0.3536  0.3739 -0.2766
 5469TIP3    H116371   4.098   1.856   2.778 -2.2218  0.4043 -1.7455
 5469TIP3    H216372   4.053   1.731   2.851  2.0509  0.4940  1.4333
 5470TIP3   OH216373   1.730   1.789   2.196 -0.6563  0.1804 -0.1666
 5470TIP3    H116374   1.773   1.865   2.235  0.2896 -0.4916  0.1392
 5470TIP3    H216375   1.699   1.738   2.271 -0.0499 -0.4247 -0.3150
 5471TIP3   OH216376   4.518   0.851   4.997 -0.0164 -0.0974 -0.1077
 5471TIP3    H116377   4.556   0.882   4.915 -1.7162  0.9520 -0.5576
 5471TIP3    H216378   4.425   0.875   4.991  0.0991  1.5662  2.8129
 5472TIP3   OH216379   6.225   1.562   4.386  0.0042  0.0578 -0.7008
 5472TIP3    H116380   6.317   1.534   4.382 -0.2365 -1.0179  0.4160
 5472TIP3    H216381   6.201   1.578   4.295  0.9474 -0.8908 -1.1479
 5473TIP3   OH216382   2.423   1.600   4.669 -0.4319  0.0562  0.2133
 5473TIP3    H116383   2.339   1.558   4.686 -0.8817  1.1923  0.9943
 5473TIP3    H216384   2.462   1.612   4.756  0.9663 -1.2572 -0.1978
 5474TIP3   OH216385   6.220   2.426   4.173  0.1530 -0.0091  0.2265
 5474TIP3    H116386   6.250   2.419   4.083 -0.2261  1.7743 -0.0829
 5474TIP3    H216387   6.217   2.336   4.205 -1.5237 -0.8833 -2.1420
 5475TIP3   OH216388   5.148   2.046   2.580  0.4182  0.5524  0.3138
 5475TIP3    H116389   5.168   2.139   2.567 -0.2728  0.4436 -2.0712
 5475TIP3    H216390   5.084   2.046   2.651 -1.7157  2.2600 -1.4310
 5476TIP3   OH216391   5.337   1.398   0.391 -0.4634  0.3694  0.4639
 5476TIP3    H116392   5.429   1.416   0.412 -0.4361 -1.2405  1.9910
 5476TIP3    H216393   5.340   1.366   0.301  0.6198 -0.3695  0.7302
 5477TIP3   OH216394   1.777   2.600   5.601  0.1655 -0.4298 -0.1347
 5477TIP3    H116395   1.808   2.673   5.548 -0.3583 -0.6911 -0.8092
 5477TIP3    H216396   1.855   2.572   5.651  0.0819  1.3744  1.0996
 5478TIP3   OH216397   6.717   3.473   0.614 -0.3070  0.7392 -0.9829
 5478TIP3    H116398   6.788   3.511   0.667  1.2529 -0.7761 -1.8594
 5478TIP3    H216399   6.706   3.384   0.649 -3.9625  1.8187  1.1198
 5479TIP3   OH216400   1.268   6.707   2.581 -0.1427  0.9236  0.8353
 5479TIP3    H116401   1.197   6.714   2.645 -1.5826  4.6515 -0.8159
 5479TIP3    H216402   1.226   6.669   2.503  0.3332  0.7581  0.6568
 5480TIP3   OH216403   1.025   0.423   2.244  0.1442 -0.5478 -0.4985
 5480TIP3    H116404   1.071   0.495   2.201  1.4826 -1.3047 -0.3665
 5480TIP3    H216405   1.072   0.410   2.326 -0.6706 -0.9667 -0.0799
 5481TIP3   OH216406   0.921   3.403   5.579 -0.0171 -0.1399  0.2141
 5481TIP3    H116407   0.996   3.416   5.521 -0.6650  0.3599 -0.5317
 5481TIP3    H216408   0.850   3.450   5.537 -0.3316  0.9015  1.8255
 5482TIP3   OH216409   3.860   3.502   1.313  0.2443  0.2851 -0.3169
 5482TIP3    H116410   3.955   3.507   1.316  0.5280 -2.4252 -1.2970
 5482TIP3    H216411   3.837   3.434   1.377 -1.1016  1.2193  0.2489
 5483TIP3   OH216412   4.055   2.139   5.395 -0.3502 -0.0153  0.6716
 5483TIP3    H116413   4.121   2.208   5.390  0.2032 -0.5944 -0.3414
 5483TIP3    H216414   4.011   2.153   5.479  0.1346  1.2117  0.7350
 5484TIP3   OH216415   3.173   3.324   1.831  0.1703  0.3849 -0.2595
 5484TIP3    H116416   3.112   3.347   1.901 -0.2294  0.7800 -0.7223
 5484TIP3    H216417   3.140   3.241   1.797 -0.4555  0.8578 -0.8636
 5485TIP3   OH216418   0.078   5.829   0.565  0.0662 -0.0006 -0.4441
 5485TIP3    H116419   0.121   5.819   0.480  2.0521  0.6697  0.3976
 5485TIP3    H216420   0.110   5.913   0.598 -1.0133 -0.0291  0.7812
 5486TIP3   OH216421   0.587   3.773   1.483  0.7040 -0.0309  0.2700
 5486TIP3    H116422   0.632   3.689   1.468 -0.3542 -0.5897  0.1221
 5486TIP3    H216423   0.640   3.837   1.434  0.2238 -0.9961 -1.6101
 5487TIP3   OH216424   2.083   5.086   4.625  0.4953 -0.0059 -0.2876
 5487TIP3    H116425   1.993   5.093   4.592  0.3690  0.8506  0.1943
 5487TIP3    H216426   2.138   5.086   4.546  0.1167  0.4112 -0.5568
 5488TIP3   OH216427   7.169   1.081   1.631  0.0141  0.1095 -0.2261
 5488TIP3    H116428   7.103   1.115   1.692 -1.3492 -0.9037 -1.0568
 5488TIP3    H216429   7.217   1.016   1.682 -1.2095 -0.8301 -0.2125
 5489TIP3   OH216430   0.592   5.697   1.756 -0.4894  0.0547  0.2956
 5489TIP3    H116431   0.550   5.657   1.680 -1.5978  0.0217  0.9075
 5489TIP3    H216432   0.667   5.745   1.719 -1.1942  0.3192 -0.8585
 5490TIP3   OH216433   0.957   3.421   3.542  0.7847  0.3276  0.3086
 5490TIP3    H116434   0.898   3.348   3.522 -0.9316  1.6378  0.3955
 5490TIP3    H216435   1.005   3.392   3.620 -2.0440  0.4017  2.1953
 5491TIP3   OH216436   2.079   5.793   4.494  0.3441  0.1708 -0.6806
 5491TIP3    H116437   2.016   5.825   4.429  0.1432  0.4745 -0.3387
 5491TIP3    H216438   2.163   5.793   4.447 -0.0527 -1.1542 -1.4370
 5492TIP3   OH216439   3.094   5.610   1.076 -0.6893 -0.3059 -0.2856
 5492TIP3    H116440   3.107   5.644   1.164  0.4958  0.1960 -0.6478
 5492TIP3    H216441   3.032   5.671   1.036 -0.6234 -0.0872 -0.0583
 5493TIP3   OH216442   4.677  -0.013   4.828 -0.4416  0.6900  1.1773
 5493TIP3    H116443   4.733   0.049   4.781  1.0942 -0.8674  0.8564
 5493TIP3    H216444   4.628   0.042   4.890  0.8731  2.2180  0.9401
 5494TIP3   OH216445   4.309   1.171   1.800  0.0157  0.1652 -0.6686
 5494TIP3    H116446   4.359   1.182   1.718 -0.2035 -0.2886 -0.8651
 5494TIP3    H216447   4.218   1.179   1.773 -0.0178  1.2652 -0.2643
 5495TIP3   OH216448   1.242   6.082   3.751 -0.2047 -0.4147 -0.0770
 5495TIP3    H116449   1.180   6.060   3.681 -2.6987 -0.7766  2.0945
 5495TIP3    H216450   1.257   5.999   3.796  0.8481 -0.0608  0.2451
 5496TIP3   OH216451   0.603   0.416   2.543 -0.0929 -0.1380 -0.1325
 5496TIP3    H116452   0.563   0.333   2.517  1.2040 -0.4791 -1.1669
 5496TIP3    H216453   0.697   0.403   2.530  0.1988  1.2841  0.3117
 5497TIP3   OH216454   4.112   4.652   0.752  0.4518  0.0569 -0.0200
 5497TIP3    H116455   4.124   4.723   0.689 -1.6012  1.6354  1.2515
 5497TIP3    H216456   4.076   4.580   0.700  0.1986  0.8043 -0.9146
 5498TIP3   OH216457   1.688   6.681   1.657  0.6080  0.3762  0.4319
 5498TIP3    H116458   1.714   6.697   1.747  2.3175  0.5850 -0.0622
 5498TIP3    H216459   1.761   6.633   1.619  0.3787  1.1600 -1.0943
 5499TIP3   OH216460   3.355   4.350   0.537  0.2058  0.0164 -0.3785
 5499TIP3    H116461   3.314   4.268   0.567 -0.5985  0.3787 -0.4630
 5499TIP3    H216462   3.420   4.322   0.473  1.1783 -0.6933  0.8718
 5500TIP3   OH216463   6.962   1.978   0.468 -0.2902 -0.7105 -0.4431
 5500TIP3    H116464   7.036   1.929   0.433 -0.0860 -0.1808 -0.7587
 5500TIP3    H216465   6.991   2.007   0.554 -0.6850 -1.7626  0.0605
 5501TIP3   OH216466   6.441   0.299   1.675 -0.0034  0.4007  0.6300
 5501TIP3    H116467   6.369   0.358   1.696 -1.3246 -1.7062  2.5576
 5501TIP3    H216468   6.400   0.228   1.625  1.6850  1.3816 -2.3698
 5502TIP3   OH216469   4.013   2.680   5.375 -0.2534 -0.4423 -0.5058
 5502TIP3    H116470   4.053   2.595   5.391 -0.5668 -0.6547 -0.8202
 5502TIP3    H216471   3.919   2.663   5.381 -0.3164 -0.1284 -0.6051
 5503TIP3   OH216472   1.316   3.013   3.258  0.2554 -0.1580 -0.3919
 5503TIP3    H116473   1.410   3.028   3.248  0.0746  0.9138 -0.6728
 5503TIP3    H216474   1.292   2.959   3.183  0.4664  0.4888 -0.9393
 5504TIP3   OH216475   4.655   1.491   4.169 -0.1887  0.3783  0.6218
 5504TIP3    H116476   4.734   1.438   4.168 -1.1144 -1.0948  1.4260
 5504TIP3    H216477   4.649   1.523   4.259 -0.2793  0.8440  0.4528
 5505TIP3   OH216478   1.135   3.573   1.682 -0.0479 -0.2640 -0.0509
 5505TIP3    H116479   1.154   3.607   1.594  1.3605 -1.8705 -0.4318
 5505TIP3    H216480   1.055   3.522   1.672  0.2678 -0.6863 -0.4990
 5506TIP3   OH216481   6.729   1.305   1.828 -0.2933  0.1031  0.0812
 5506TIP3    H116482   6.720   1.211   1.847 -1.1307 -0.4171 -2.5546
 5506TIP3    H216483   6.703   1.348   1.910 -2.5598 -1.9292  0.5592
 5507TIP3   OH216484   1.776   4.988   5.828 -0.4397 -0.2524 -0.0625
 5507TIP3    H116485   1.708   5.055   5.818  1.0836  1.4628  0.5671
 5507TIP3    H216486   1.739   4.926   5.891 -1.5032  0.5398  0.1268
 5508TIP3   OH216487   2.193   4.558   5.889  0.0741 -0.0984  0.1925
 5508TIP3    H116488   2.166   4.620   5.821 -0.9326 -0.0891  0.5859
 5508TIP3    H216489   2.276   4.594   5.922 -0.3939  0.9289  0.2817
 5509TIP3   OH216490   0.805   1.712   0.378  0.3041  0.4381 -0.5163
 5509TIP3    H116491   0.800   1.622   0.344  1.2035 -0.6341  1.9576
 5509TIP3    H216492   0.886   1.747   0.340  0.4695 -0.1456 -0.7217
 5510TIP3   OH216493   5.440   1.176   3.449  0.1629  0.8170 -0.5576
 5510TIP3    H116494   5.525   1.205   3.416  0.5548  0.8629  0.4750
 5510TIP3    H216495   5.382   1.251   3.433  0.3847  0.9012 -0.9796
 5511TIP3   OH216496   6.726   0.427   3.031 -0.2185  0.5353 -0.3576
 5511TIP3    H116497   6.726   0.332   3.034 -1.2053  0.5371  1.6879
 5511TIP3    H216498   6.711   0.448   2.939  1.1462 -1.2385 -1.0405
 5512TIP3   OH216499   6.762   4.980   2.369 -0.0380  0.3478 -0.2627
 5512TIP3    H116500   6.707   4.906   2.344 -0.8848  0.4873  1.0980
 5512TIP3    H216501   6.834   4.941   2.419 -0.2548  0.4087  0.0947
 5513TIP3   OH216502   0.142   4.987   4.681 -0.3444  0.1008  0.4489
 5513TIP3    H116503   0.236   5.005   4.671 -0.5006 -0.0451 -1.8244
 5513TIP3    H216504   0.126   4.993   4.776  2.2230 -1.2906  1.0644
 5514TIP3   OH216505   4.316   2.092   1.497  0.1416  0.5606 -0.1769
 5514TIP3    H116506   4.405   2.076   1.465  0.6437  1.0761  0.8865
 5514TIP3    H216507   4.270   2.010   1.482  1.0639 -0.0235  0.0961
 5515TIP3   OH216508   6.145   4.384   4.673 -0.2541  0.0436 -0.1866
 5515TIP3    H116509   6.068   4.441   4.670 -0.2437  0.0312 -0.8258
 5515TIP3    H216510   6.113   4.302   4.710 -0.2398  0.5011  0.8768
 5516TIP3   OH216511   4.423   6.247   4.221  0.7985 -0.2463 -0.1077
 5516TIP3    H116512   4.455   6.334   4.199  0.5620 -0.3790 -1.0125
 5516TIP3    H216513   4.341   6.263   4.268  1.0967  0.0299  0.3290
 5517TIP3   OH216514   6.838   1.627   5.828 -0.1002 -0.0216  0.1655
 5517TIP3    H116515   6.771   1.623   5.896  1.2548  0.0230  1.5629
 5517TIP3    H216516   6.899   1.694   5.859  0.6077 -0.0799 -1.0452
 5518TIP3   OH216517   5.173   3.415   4.522 -0.1903 -0.0545 -0.0953
 5518TIP3    H116518   5.191   3.325   4.549 -0.9320 -0.7554 -1.8333
 5518TIP3    H216519   5.101   3.443   4.578 -0.2868 -0.7052  0.1166
 5519TIP3   OH216520   4.105   1.653   4.576 -0.7943  0.5571 -0.1770
 5519TIP3    H116521   4.162   1.648   4.652 -0.7120 -0.0605 -0.2768
 5519TIP3    H216522   4.017   1.661   4.612 -1.1470 -3.0223  0.1029
 5520TIP3   OH216523   0.551   4.538   3.545 -0.0664 -0.0240 -0.5831
 5520TIP3    H116524   0.619   4.605   3.546 -0.0967  0.0023 -0.3478
 5520TIP3    H216525   0.589   4.466   3.494 -0.6768  0.8430 -2.3657
 5521TIP3   OH216526   2.016   3.699   2.469 -0.1682  0.5314 -0.0318
 5521TIP3    H116527   2.105   3.719   2.441  0.2130  0.4096  1.0183
 5521TIP3    H216528   2.022   3.612   2.508 -0.9039  0.2128 -0.5991
 5522TIP3   OH216529   1.309   0.848   1.277  0.7230  0.1406 -0.0202
 5522TIP3    H116530   1.219   0.838   1.248  0.1993  1.0900  1.2049
 5522TIP3    H216531   1.357   0.872   1.197 -0.2221  0.3005 -0.5611
 5523TIP3   OH216532   1.515   0.330   1.106  0.3398 -0.3713 -0.4028
 5523TIP3    H116533   1.543   0.402   1.051 -1.6871  1.5555  0.9241
 5523TIP3    H216534   1.531   0.360   1.196 -2.2336 -0.6874  0.2561
 5524TIP3   OH216535   4.991   1.657   4.693  0.2904  0.5178  0.5862
 5524TIP3    H116536   5.075   1.632   4.655 -0.1593  0.0923 -0.1728
 5524TIP3    H216537   4.959   1.578   4.736  1.3671  1.3347  3.0100
 5525TIP3   OH216538   4.110   5.937   5.799 -0.0613 -0.3739 -0.0682
 5525TIP3    H116539   4.101   5.897   5.713 -0.8907 -0.7637  0.1826
 5525TIP3    H216540   4.066   6.022   5.791 -2.0746 -1.2800  0.5038
 5526TIP3   OH216541   3.454   0.828   2.088 -0.3841 -0.0710  0.0877
 5526TIP3    H116542   3.418   0.839   2.000  0.7423  1.8388 -0.1790
 5526TIP3    H216543   3.490   0.914   2.111  1.7948 -1.2269  1.3136
 5527TIP3   OH216544   1.709   5.943   2.467 -0.0589  0.1889  0.6417
 5527TIP3    H116545   1.759   5.978   2.394 -0.9054  1.7310  0.7586
 5527TIP3    H216546   1.620   5.933   2.433 -0.8401  2.4261  1.8164
 5528TIP3   OH216547   5.766   1.823   1.610 -0.0536 -0.0617 -0.5151
 5528TIP3    H116548   5.760   1.917   1.626 -0.4541 -0.2417  0.4179
 5528TIP3    H216549   5.772   1.784   1.697 -1.1147 -0.9908 -0.8362
 5529TIP3   OH216550   7.043   3.207   3.784 -0.2306  0.0719 -0.2472
 5529TIP3    H116551   7.071   3.250   3.865  0.4590  0.4084 -0.6538
 5529TIP3    H216552   7.119   3.154   3.757 -0.2043  0.4812 -1.0207
 5530TIP3   OH216553   6.919   1.306   3.493 -0.0961 -0.8969  0.0177
 5530TIP3    H116554   6.895   1.288   3.584  0.0121 -4.2447 -0.5053
 5530TIP3    H216555   6.835   1.322   3.450 -0.0732  1.9965  0.8186
 5531TIP3   OH216556   3.394   6.133   4.218 -0.4906 -0.4133  0.0511
 5531TIP3    H116557   3.429   6.124   4.129 -0.5681 -2.5692  0.1978
 5531TIP3    H216558   3.302   6.158   4.204 -0.4060 -0.3669 -0.4619
 5532TIP3   OH216559   7.103   6.455   2.346  0.3856 -0.8688 -0.1942
 5532TIP3    H116560   7.041   6.394   2.386 -1.0059 -0.0581 -0.9919
 5532TIP3    H216561   7.062   6.541   2.356  2.6319  0.0984  1.5471
 5533TIP3   OH216562   0.601   0.389   5.678 -0.1489 -0.1754 -0.3008
 5533TIP3    H116563   0.670   0.325   5.692  1.8385  2.2681  1.9370
 5533TIP3    H216564   0.590   0.432   5.763 -1.3295  2.4808 -1.6897
 5534TIP3   OH216565   3.154   6.151   4.774 -0.6676 -0.0867  0.1939
 5534TIP3    H116566   3.213   6.195   4.835 -0.5686  0.5943 -0.3834
 5534TIP3    H216567   3.200   6.070   4.751  0.8737  1.2110 -1.5737
 5535TIP3   OH216568   3.089   3.361   1.424 -0.2636 -0.0234 -0.6221
 5535TIP3    H116569   3.014   3.398   1.377 -0.3708 -0.3358 -0.6975
 5535TIP3    H216570   3.056   3.280   1.461  0.6496 -1.3989 -2.6341
 5536TIP3   OH216571   1.179   1.882   3.683 -0.0954 -0.1327 -0.8269
 5536TIP3    H116572   1.185   1.904   3.590 -1.0475 -1.5890 -1.2721
 5536TIP3    H216573   1.233   1.948   3.727 -0.7341  1.4221 -2.2697
 5537TIP3   OH216574   7.032   4.633   0.576  0.0136  0.3877  0.1331
 5537TIP3    H116575   7.059   4.724   0.587  0.0974  0.1291  2.8231
 5537TIP3    H216576   6.989   4.630   0.491 -0.9015  3.1813  0.4150
 5538TIP3   OH216577   4.894   1.613   1.905 -0.4790  0.1537  0.1923
 5538TIP3    H116578   4.836   1.667   1.852  0.8585  0.9699 -0.4936
 5538TIP3    H216579   4.848   1.530   1.914 -1.0690  0.2382 -1.6608
 5539TIP3   OH216580   4.440   5.443   5.614  0.1601  0.1659  0.4156
 5539TIP3    H116581   4.495   5.486   5.547 -0.4720  0.9476  0.3912
 5539TIP3    H216582   4.477   5.355   5.621  0.3135  0.0977 -0.8941
 5540TIP3   OH216583   2.084   1.189   0.257  0.0000 -0.4128 -0.3502
 5540TIP3    H116584   2.108   1.281   0.243 -0.3515 -0.3483 -0.5328
 5540TIP3    H216585   1.989   1.188   0.252 -0.1037 -0.5148  1.3414
 5541TIP3   OH216586   5.105   6.490   4.753  0.4494 -0.1635  0.3148
 5541TIP3    H116587   5.013   6.506   4.731 -0.1070 -3.4264 -0.3137
 5541TIP3    H216588   5.146   6.467   4.670  1.7151  0.6485  0.6969
 5542TIP3   OH216589   1.929   3.147   1.303 -0.4173  0.1878  0.1437
 5542TIP3    H116590   1.930   3.104   1.388 -1.4145  1.6953  0.9641
 5542TIP3    H216591   1.850   3.201   1.304 -0.1793  0.6286 -1.5459
 5543TIP3   OH216592   1.959   1.663   5.214  0.6233 -0.4476 -0.4098
 5543TIP3    H116593   1.958   1.641   5.308 -0.0598 -1.4856 -0.6366
 5543TIP3    H216594   1.952   1.759   5.212  1.4448 -0.3473  0.6065
 5544TIP3   OH216595   6.379   5.407   4.922  0.2258 -0.2295  0.3485
 5544TIP3    H116596   6.311   5.364   4.869  0.0673  1.2537 -0.7311
 5544TIP3    H216597   6.358   5.500   4.915  1.4123  0.1346  1.3891
 5545TIP3   OH216598   4.456   0.049   2.195  0.2626  0.2580  0.0970
 5545TIP3    H116599   4.505   0.027   2.115  0.2459  0.0634  0.1413
 5545TIP3    H216600   4.515   0.108   2.243  0.5329 -0.1206  0.2388
 5546TIP3   OH216601   4.329   3.484   0.618 -0.1390  0.2915  0.1680
 5546TIP3    H116602   4.337   3.388   0.617  0.6137  0.3202 -1.7663
 5546TIP3    H216603   4.250   3.501   0.668 -0.0172 -1.3237  0.9703
 5547TIP3   OH216604   3.262   0.310   4.548 -0.3586 -0.6024  0.1270
 5547TIP3    H116605   3.347   0.282   4.512 -0.7512 -1.3260 -0.2571
 5547TIP3    H216606   3.274   0.305   4.643  0.4930  0.7436  0.1199
 5548TIP3   OH216607   0.072   2.616   4.203  0.3751 -0.3309 -0.4955
 5548TIP3    H116608   0.055   2.659   4.287 -0.5124  1.6732 -1.6328
 5548TIP3    H216609   0.167   2.607   4.200  0.6029  1.5168 -0.1453
 5549TIP3   OH216610   4.969   5.823   0.600 -0.5178 -0.3036  0.5043
 5549TIP3    H116611   4.924   5.775   0.531 -1.0248  0.8760 -0.0172
 5549TIP3    H216612   4.984   5.910   0.562  0.7678 -0.1795  1.2493
 5550TIP3   OH216613   6.798   2.493   1.019 -0.3503  0.1548  0.1691
 5550TIP3    H116614   6.844   2.576   1.025  0.6129 -0.2452 -1.2679
 5550TIP3    H216615   6.763   2.490   0.930 -0.7607 -0.7912  0.3427
 5551TIP3   OH216616   3.145   0.385   2.127 -0.0251  0.0158  0.3448
 5551TIP3    H116617   3.181   0.449   2.065 -0.1553 -1.2575 -1.0901
 5551TIP3    H216618   3.214   0.373   2.191 -0.0253  1.6451  0.7018
 5552TIP3   OH216619   5.206   1.770  -0.014  0.3975 -0.5950 -0.2054
 5552TIP3    H116620   5.298   1.754  -0.037  0.2036  0.2376 -1.7229
 5552TIP3    H216621   5.209   1.806   0.074  1.5125 -0.7723 -0.1493
 5553TIP3   OH216622   6.417   1.748   5.330  0.1287  0.2838 -0.3117
 5553TIP3    H116623   6.324   1.757   5.352  0.4752  0.6907  1.1236
 5553TIP3    H216624   6.435   1.655   5.341 -0.0803  0.2225 -0.4792
 5554TIP3   OH216625   1.397   5.363   4.687 -0.1986  0.3596  0.0623
 5554TIP3    H116626   1.391   5.346   4.782 -1.4421  0.4342  0.0172
 5554TIP3    H216627   1.397   5.275   4.648 -1.4919  0.3390  0.0656
 5555TIP3   OH216628   1.004   2.383   2.696  1.0206 -0.6027  0.1857
 5555TIP3    H116629   0.986   2.301   2.649 -0.8260 -1.2322  1.8539
 5555TIP3    H216630   1.077   2.362   2.753 -0.5201 -1.7214  1.8748
 5556TIP3   OH216631   1.778   4.912   5.491 -0.5911 -0.7187 -0.4211
 5556TIP3    H116632   1.856   4.858   5.485 -0.1384 -0.1878  0.5822
 5556TIP3    H216633   1.741   4.910   5.402  1.0198 -0.2749 -1.1325
 5557TIP3   OH216634   3.573   4.274   0.396  0.0961 -0.7889 -0.5042
 5557TIP3    H116635   3.668   4.281   0.400 -0.0426  2.3184 -0.2145
 5557TIP3    H216636   3.553   4.259   0.304  0.8344  0.4028 -0.8750
 5558TIP3   OH216637   2.124   1.009   5.453 -0.6592 -0.1220 -0.6581
 5558TIP3    H116638   2.155   0.977   5.368  2.3451 -0.6811  0.5055
 5558TIP3    H216639   2.116   0.930   5.507 -2.2461  0.2501 -0.3162
 5559TIP3   OH216640   1.154   1.504   0.464  0.1969  0.4791 -0.4167
 5559TIP3    H116641   1.068   1.486   0.426 -0.1126 -0.6627  0.7622
 5559TIP3    H216642   1.144   1.588   0.509 -0.2130  0.4774 -0.5077
 5560TIP3   OH216643   1.335   1.660   3.338 -0.2220  0.0766  0.5054
 5560TIP3    H116644   1.275   1.730   3.366  0.6890  0.7139  0.9064
 5560TIP3    H216645   1.369   1.690   3.254 -0.3959 -0.2467  0.3176
 5561TIP3   OH216646   1.177   4.676   2.635  0.1959 -0.3795  0.2826
 5561TIP3    H116647   1.139   4.680   2.723  1.3699  1.0387  0.7813
 5561TIP3    H216648   1.228   4.595   2.634 -1.5314 -1.5214  0.1170
 5562TIP3   OH216649   5.818   0.637   0.502 -0.8144 -0.0049 -0.4245
 5562TIP3    H116650   5.883   0.606   0.439 -0.1192  0.5353  0.0114
 5562TIP3    H216651   5.845   0.599   0.585 -0.8453  0.5085 -0.1760
 5563TIP3   OH216652   4.030   4.562   3.879  0.3859  0.6004  0.0051
 5563TIP3    H116653   4.076   4.535   3.958  0.7278 -1.4444 -0.8284
 5563TIP3    H216654   4.094   4.616   3.831  1.8859 -1.8567 -0.9352
 5564TIP3   OH216655   4.953   0.292   5.677  0.4721 -0.1036 -0.2954
 5564TIP3    H116656   4.917   0.267   5.762 -0.3618  1.2372 -0.2379
 5564TIP3    H216657   4.918   0.379   5.660  1.0759 -0.1162 -1.7663
 5565TIP3   OH216658   1.361   1.288   2.630 -0.0006  0.2229  0.2943
 5565TIP3    H116659   1.288   1.247   2.678 -0.2696  0.8335  0.4210
 5565TIP3    H216660   1.372   1.373   2.673 -0.6210  1.0309 -1.0708
 5566TIP3   OH216661   0.913   5.545   1.872 -0.2265  0.2411 -0.2679
 5566TIP3    H116662   0.864   5.608   1.924  2.5066  0.5082  2.2592
 5566TIP3    H216663   0.859   5.530   1.795 -1.6552  4.5968 -0.3641
 5567TIP3   OH216664   0.054   1.528   5.355  0.2268  0.1590 -0.1495
 5567TIP3    H116665  -0.040   1.535   5.339  0.5054  2.7457 -1.1495
 5567TIP3    H216666   0.093   1.534   5.268  1.3951  2.5856  0.4592
 5568TIP3   OH216667   1.239   3.185   0.155 -0.5732 -0.3465 -0.4859
 5568TIP3    H116668   1.163   3.230   0.192 -0.6674 -1.1800  0.3790
 5568TIP3    H216669   1.271   3.130   0.227  1.6920  1.0046 -0.3713
 5569TIP3   OH216670   3.999   4.917   5.135 -0.1762  0.1489 -0.2668
 5569TIP3    H116671   3.949   4.874   5.205 -0.7299  0.1879 -0.6327
 5569TIP3    H216672   4.062   4.850   5.107  1.2978  0.7098  1.4759
 5570TIP3   OH216673   5.203   4.963   3.117 -0.6533 -0.0393 -0.0807
 5570TIP3    H116674   5.164   4.885   3.078 -1.2888  1.1147 -1.9055
 5570TIP3    H216675   5.262   4.997   3.050 -0.3784  1.0466  0.6734
 5571TIP3   OH216676   2.827   1.819   4.403  0.0425 -0.3941  0.2865
 5571TIP3    H116677   2.816   1.914   4.398  0.2672 -0.3613  0.4086
 5571TIP3    H216678   2.738   1.786   4.416 -0.3489 -0.3638 -2.0194
 5572TIP3   OH216679   1.795   1.475   1.630  0.3613  0.3450  0.4123
 5572TIP3    H116680   1.855   1.405   1.604 -0.5647 -0.1733 -0.4253
 5572TIP3    H216681   1.851   1.542   1.668  1.4046 -0.3539  0.1519
 5573TIP3   OH216682   5.076   0.276   0.441 -1.0669  0.0650  0.3365
 5573TIP3    H116683   5.095   0.222   0.518  1.6208 -0.3584 -0.5111
 5573TIP3    H216684   5.078   0.214   0.368  2.7057  1.1824 -0.7338
 5574TIP3   OH216685   7.125   2.763   3.341 -0.3784 -0.0872  0.0186
 5574TIP3    H116686   7.032   2.783   3.330 -0.0146  1.0403 -1.2712
 5574TIP3    H216687   7.155   2.741   3.253  0.3559 -1.5673  0.6019
 5575TIP3   OH216688   6.549   2.061   2.607  0.0545  0.1471  0.1705
 5575TIP3    H116689   6.473   2.015   2.641  0.2056  0.4124  0.8749
 5575TIP3    H216690   6.615   1.993   2.594  0.6229  0.2679  2.1629
 5576TIP3   OH216691   0.750   1.298   5.653 -0.2411 -0.1866  0.2779
 5576TIP3    H116692   0.687   1.324   5.719 -0.6642 -2.3117  0.7977
 5576TIP3    H216693   0.829   1.276   5.702 -0.1339 -0.5234 -0.0371
 5577TIP3   OH216694   2.643   3.720   1.185 -0.0821 -0.1461  0.2117
 5577TIP3    H116695   2.577   3.670   1.137 -0.5160  0.2835  0.3480
 5577TIP3    H216696   2.636   3.809   1.150 -0.5823  0.2352  1.2363
 5578TIP3   OH216697   3.786   2.847   1.230  0.6106  0.3977 -0.5104
 5578TIP3    H116698   3.710   2.808   1.187  0.3753  1.0298 -0.6726
 5578TIP3    H216699   3.860   2.796   1.197  0.1871 -0.8788  0.4100
 5579TIP3   OH216700   1.979   5.043   4.207 -0.1198 -0.2435 -0.2378
 5579TIP3    H116701   1.923   5.038   4.130 -1.2222 -1.8389  0.6258
 5579TIP3    H216702   2.043   4.973   4.195  0.3193  0.1309 -0.1431
 5580TIP3   OH216703   0.278   3.274   3.271  0.1928  0.1781  0.7499
 5580TIP3    H116704   0.246   3.183   3.264 -1.2132  0.4724  2.5418
 5580TIP3    H216705   0.235   3.320   3.199  1.5862 -0.7064 -0.7081
 5581TIP3   OH216706   7.099   2.498   3.784  0.4231 -0.6862 -0.0466
 5581TIP3    H116707   7.105   2.566   3.717 -1.0858  0.2111  0.6912
 5581TIP3    H216708   7.179   2.510   3.836 -0.5591  1.6680  1.0760
 5582TIP3   OH216709   6.860   4.671   5.676 -0.4425 -0.3701  0.3912
 5582TIP3    H116710   6.872   4.742   5.740 -0.9816 -0.2235  0.3346
 5582TIP3    H216711   6.895   4.594   5.720 -0.1650 -0.1359  0.5901
 5583TIP3   OH216712   6.834   0.591   5.110 -0.6247  0.2749  0.1018
 5583TIP3    H116713   6.818   0.572   5.018  1.4876  2.3591 -0.8078
 5583TIP3    H216714   6.908   0.535   5.133  0.6972  1.7676 -0.3639
 5584TIP3   OH216715   5.327   3.249   2.977  0.1781 -0.1220 -0.2841
 5584TIP3    H116716   5.232   3.253   2.990  0.3596  0.0760  1.1155
 5584TIP3    H216717   5.358   3.336   3.003  0.8177 -0.4369  0.0276
 5585TIP3   OH216718   4.182   5.179   2.465 -0.0044  0.3821  0.0498
 5585TIP3    H116719   4.274   5.204   2.462 -0.1338  0.8855  0.2010
 5585TIP3    H216720   4.182   5.095   2.512  0.4205  0.1333 -0.3888
 5586TIP3   OH216721   1.199   3.327   3.707  0.0317 -0.3624 -0.0049
 5586TIP3    H116722   1.187   3.239   3.673  1.3614 -0.1108 -1.2223
 5586TIP3    H216723   1.291   3.347   3.689 -0.1960  1.1996  0.4264
 5587TIP3   OH216724   4.363   6.168   1.732  0.3065 -0.1142 -0.0165
 5587TIP3    H116725   4.405   6.088   1.701  1.7306  0.2725  0.8595
 5587TIP3    H216726   4.364   6.160   1.827 -0.5632  0.4542  0.0534
 5588TIP3   OH216727   6.162   3.759   4.095 -0.2141  0.0476  0.2150
 5588TIP3    H116728   6.209   3.820   4.152 -0.5708  0.0664  0.4916
 5588TIP3    H216729   6.075   3.796   4.087  0.0529  0.4740 -0.9940
 5589TIP3   OH216730   7.054   0.480   3.724  0.4056 -0.3391 -0.1510
 5589TIP3    H116731   7.063   0.398   3.675 -1.4736 -0.9858  0.4837
 5589TIP3    H216732   6.983   0.463   3.786  0.1454  1.6884  0.1777
 5590TIP3   OH216733   4.018   0.453   5.746  0.3876 -0.4716 -0.0412
 5590TIP3    H116734   4.088   0.518   5.747  0.5955 -0.6250 -1.6887
 5590TIP3    H216735   4.058   0.372   5.778  0.6228 -0.2515  0.2189
 5591TIP3   OH216736   2.093   0.337   0.632  0.2452 -0.0382  0.3073
 5591TIP3    H116737   2.124   0.247   0.617  0.1781 -0.0976  0.5133
 5591TIP3    H216738   2.004   0.326   0.666 -0.1550  0.1478 -0.6512
 5592TIP3   OH216739   5.062   5.143   1.535 -0.0929 -0.7842 -0.3926
 5592TIP3    H116740   5.085   5.217   1.479 -0.7939  0.0607  0.3961
 5592TIP3    H216741   5.113   5.157   1.615 -0.0977 -1.2533 -0.3077
 5593TIP3   OH216742   4.485   2.479   5.137  0.6487  0.6072 -0.4192
 5593TIP3    H116743   4.427   2.442   5.071 -1.1781 -0.9061  1.8563
 5593TIP3    H216744   4.454   2.569   5.148 -0.9680  0.0140  0.2991
 5594TIP3   OH216745   1.950   6.289   5.013 -0.0192  0.2263  0.6172
 5594TIP3    H116746   1.947   6.384   5.004  1.2246  0.3478  1.2175
 5594TIP3    H216747   2.042   6.267   4.999 -0.0947 -0.7621  1.5644
 5595TIP3   OH216748   7.220   0.046   0.855 -0.2207  0.0368 -0.1967
 5595TIP3    H116749   7.134   0.044   0.898 -0.7252 -2.9161 -1.0919
 5595TIP3    H216750   7.245  -0.046   0.848  2.6989  0.7613 -0.6847
 5596TIP3   OH216751   0.625   3.313   0.911  0.0001 -0.2098 -0.3737
 5596TIP3    H116752   0.560   3.269   0.967  1.4607 -0.1219  1.4907
 5596TIP3    H216753   0.630   3.257   0.833 -0.8268 -1.3354  0.3382
 5597TIP3   OH216754   1.153   0.026   4.887 -0.1609 -0.0417 -0.4370
 5597TIP3    H116755   1.133  -0.002   4.797  1.0786 -2.2207 -0.1049
 5597TIP3    H216756   1.227   0.087   4.876  0.9649 -1.4089 -0.8691
 5598TIP3   OH216757   5.604   6.202   2.079  0.7180 -0.0700  0.4218
 5598TIP3    H116758   5.533   6.267   2.083 -0.8043 -1.4943 -1.3328
 5598TIP3    H216759   5.681   6.248   2.114 -0.9470  1.6703  2.0733
 5599TIP3   OH216760   1.554   5.531   1.081  0.0717 -0.0320  0.5610
 5599TIP3    H116761   1.476   5.578   1.110  0.8745  1.1774  0.7941
 5599TIP3    H216762   1.529   5.438   1.089 -1.3040  0.3214  0.7044
 5600TIP3   OH216763   4.461   0.618   4.506  0.0312 -0.3301  0.0588
 5600TIP3    H116764   4.403   0.602   4.580 -0.3028 -1.0650 -0.3524
 5600TIP3    H216765   4.481   0.712   4.511  0.2985 -0.4284  1.2738
 5601TIP3   OH216766   3.279   2.745   2.964 -0.2385  0.1900  0.3595
 5601TIP3    H116767   3.214   2.778   2.903  0.1790 -0.0442 -0.2281
 5601TIP3    H216768   3.363   2.755   2.917  0.3287  1.7985  1.6369
 5602TIP3   OH216769   1.834   0.746   0.434 -0.0897 -0.1237 -0.4259
 5602TIP3    H116770   1.906   0.724   0.494  1.2438 -0.1244 -1.9625
 5602TIP3    H216771   1.840   0.680   0.364  0.0012  1.3420 -1.8585
 5603TIP3   OH216772   1.195   6.414   2.133 -0.4424  0.0867  0.1396
 5603TIP3    H116773   1.273   6.469   2.141 -0.3603  0.0756 -0.5321
 5603TIP3    H216774   1.218   6.333   2.177 -0.3232  0.3371  0.5456
 5604TIP3   OH216775   0.621   3.602   2.431  0.0151  0.1313  0.6985
 5604TIP3    H116776   0.691   3.576   2.371 -0.0834 -1.2464  1.1373
 5604TIP3    H216777   0.562   3.655   2.377  2.2014  2.8458  0.7277
 5605TIP3   OH216778   4.730   2.525   1.059  0.1742 -0.0523  0.1607
 5605TIP3    H116779   4.679   2.444   1.070  0.0601  0.1402  1.0944
 5605TIP3    H216780   4.767   2.518   0.971  1.7675 -2.0282  0.9144
 5606TIP3   OH216781   4.291   1.846   0.054  0.4541 -0.2830  0.4335
 5606TIP3    H116782   4.294   1.767  -0.000 -0.4609 -0.4111  0.5509
 5606TIP3    H216783   4.199   1.872   0.053  0.5611  0.1720  1.2681
 5607TIP3   OH216784   4.257   0.431   3.933 -0.3794  0.3369 -0.5814
 5607TIP3    H116785   4.225   0.516   3.904  0.0492  0.1042 -1.8147
 5607TIP3    H216786   4.299   0.447   4.017 -2.5890  0.8781  0.5003
 5608TIP3   OH216787   3.884   2.143   2.867 -0.4096 -0.3802 -0.3217
 5608TIP3    H116788   3.794   2.135   2.899 -1.0635  0.8757 -1.6933
 5608TIP3    H216789   3.894   2.071   2.805  0.1032 -1.4680  0.9719
 5609TIP3   OH216790   3.364   5.957   4.992 -0.6220 -0.0789  0.4206
 5609TIP3    H116791   3.426   5.886   5.005  0.6024  0.4383 -1.9325
 5609TIP3    H216792   3.278   5.915   4.989 -0.4900 -0.8232  3.6087
 5610TIP3   OH216793   2.217   4.006   1.054  0.0010  0.0171  0.6512
 5610TIP3    H116794   2.133   4.007   1.100 -0.9919 -2.9788 -0.8945
 5610TIP3    H216795   2.271   3.945   1.104  0.2466 -0.3236 -0.0294
 5611TIP3   OH216796   6.240   0.070   3.440 -0.1858 -0.3065  0.0786
 5611TIP3    H116797   6.253   0.129   3.366  0.7761 -2.2900 -1.4353
 5611TIP3    H216798   6.185  -0.000   3.405 -2.1742  0.1144  2.1081
 5612TIP3   OH216799   1.097   3.033   5.736 -0.4824 -0.1834 -0.3000
 5612TIP3    H116800   1.131   3.072   5.656  0.6244  0.6035  0.5187
 5612TIP3    H216801   1.026   3.090   5.763  1.2090  1.4571  0.9599
 5613TIP3   OH216802   2.563  -0.007   0.840  0.0127  0.1407  0.3049
 5613TIP3    H116803   2.612   0.058   0.789  0.1890  0.1244  0.4531
 5613TIP3    H216804   2.580   0.017   0.931 -3.0006  2.2680  0.4474
 5614TIP3   OH216805   5.706   6.448   0.015  0.2431  0.4280  0.0960
 5614TIP3    H116806   5.692   6.362  -0.024 -0.5964  0.1974  0.8780
 5614TIP3    H216807   5.659   6.445   0.098  0.3900  1.5660  0.2401
 5615TIP3   OH216808   2.083   1.762   1.006  0.5244 -0.4687  0.0495
 5615TIP3    H116809   2.146   1.778   1.077  0.5648  3.0997 -0.5682
 5615TIP3    H216810   2.111   1.822   0.936 -2.8116  0.3682 -0.7363
 5616TIP3   OH216811   6.989   1.452   1.754  0.2668  0.0744 -0.0926
 5616TIP3    H116812   7.029   1.368   1.774 -0.2873  0.0155  0.8010
 5616TIP3    H216813   6.907   1.452   1.803  0.6046  1.4305  0.5249
 5617TIP3   OH216814   2.449   6.769   2.848  0.2019  0.0022 -0.1695
 5617TIP3    H116815   2.440   6.694   2.907  0.4722 -0.6355 -0.9319
 5617TIP3    H216816   2.416   6.843   2.899 -0.6469 -0.7309  0.3669
 5618TIP3   OH216817   0.051   4.319   1.429  0.5818  0.7771 -0.5596
 5618TIP3    H116818   0.145   4.326   1.413  0.6209  1.1255 -0.1866
 5618TIP3    H216819   0.044   4.276   1.514  0.4743  3.3344  0.8278
 5619TIP3   OH216820   0.641   0.884   0.057  0.1669  0.2193  0.4016
 5619TIP3    H116821   0.734   0.872   0.078 -0.0336  0.2620  1.3676
 5619TIP3    H216822   0.636   0.871  -0.037  1.3937  1.6205  0.0971
 5620TIP3   OH216823   4.094   4.677   5.357 -0.1796  0.2949  0.3073
 5620TIP3    H116824   4.101   4.611   5.426 -1.3343  1.3085  1.4553
 5620TIP3    H216825   4.183   4.710   5.345  0.4460 -1.5363 -0.3997
 5621TIP3   OH216826   7.039   1.611   4.209 -0.1961 -0.2480 -0.3529
 5621TIP3    H116827   6.990   1.566   4.278 -0.2510  0.1144 -0.1471
 5621TIP3    H216828   6.980   1.681   4.180  0.0542 -0.0350 -0.3555
 5622TIP3   OH216829   5.957   1.802   1.409 -0.1026  0.8973 -0.2392
 5622TIP3    H116830   5.874   1.794   1.457 -0.3421 -1.4436 -0.8742
 5622TIP3    H216831   5.950   1.885   1.362 -2.4701  0.4068 -0.8802
 5623TIP3   OH216832   3.144   3.615   1.214  0.4894  0.6244 -0.1959
 5623TIP3    H116833   3.128   3.523   1.193 -1.0428  0.9323 -0.5395
 5623TIP3    H216834   3.056   3.653   1.220  0.9512  1.4174  2.9839
 5624TIP3   OH216835   2.874   5.180   3.162  0.6462 -0.3757 -0.1154
 5624TIP3    H116836   2.839   5.091   3.161  1.5112 -0.7373  0.2599
 5624TIP3    H216837   2.803   5.234   3.127 -0.8008 -0.8633  1.8978
 5625TIP3   OH216838   7.041   5.825   4.012 -0.0579  0.9311 -0.2691
 5625TIP3    H116839   7.078   5.911   4.034 -2.1484  1.7515  0.3406
 5625TIP3    H216840   7.004   5.793   4.094  0.1350 -0.2672 -0.6317
 5626TIP3   OH216841   4.480   4.791   0.132 -0.4877  0.2446  1.2937
 5626TIP3    H116842   4.508   4.820   0.219  0.1800  1.2949  0.7508
 5626TIP3    H216843   4.562   4.775   0.085 -0.8216 -2.0491  1.3782
 5627TIP3   OH216844   3.347   0.648   4.390 -0.2142  0.1712 -0.4453
 5627TIP3    H116845   3.322   0.580   4.328 -1.7576 -0.7834  1.1293
 5627TIP3    H216846   3.293   0.723   4.368  0.5315  0.4607 -1.3449
 5628TIP3   OH216847   0.826   3.745   1.761  0.1422 -0.0101 -0.2152
 5628TIP3    H116848   0.907   3.746   1.812  0.3241  0.7101 -0.5074
 5628TIP3    H216849   0.837   3.670   1.702  0.2705 -0.3678  0.2606
 5629TIP3   OH216850   0.423   1.072   2.456  0.1207 -0.2910  0.1183
 5629TIP3    H116851   0.438   1.093   2.548  1.5643 -0.2262 -0.1036
 5629TIP3    H216852   0.399   0.979   2.456 -0.3237 -0.1777  0.5949
 5630TIP3   OH216853   5.657   2.119   0.441 -0.3749  0.0448  0.3759
 5630TIP3    H116854   5.646   2.080   0.354  1.2476  3.0423 -1.3447
 5630TIP3    H216855   5.733   2.074   0.478 -0.8256 -0.9801  0.0779
 5631TIP3   OH216856   5.904   5.972   0.883 -0.0381 -0.3262 -0.2881
 5631TIP3    H116857   5.881   5.946   0.794  0.6047  1.4497 -1.0171
 5631TIP3    H216858   5.858   5.909   0.939  0.3070 -2.0586 -1.8659
 5632TIP3   OH216859   1.125   2.314   5.290 -0.4907  0.0110 -0.3272
 5632TIP3    H116860   1.169   2.277   5.214  1.0162 -0.1196  0.5677
 5632TIP3    H216861   1.069   2.383   5.253 -0.0391 -0.2574 -1.5797
 5633TIP3   OH216862   6.830   2.463   1.812 -0.2263  0.3814  0.4467
 5633TIP3    H116863   6.855   2.393   1.751 -1.9518 -0.5147  0.7124
 5633TIP3    H216864   6.842   2.544   1.762  1.7674 -0.0620  0.1235
 5634TIP3   OH216865   3.390   0.608   3.188 -0.0787  0.1097 -0.3040
 5634TIP3    H116866   3.358   0.608   3.097  0.3582  1.1720 -0.4690
 5634TIP3    H216867   3.443   0.528   3.194 -1.0081 -0.5550 -0.6437
 5635TIP3   OH216868   5.349   1.468   1.576 -0.3645 -0.3106 -0.3106
 5635TIP3    H116869   5.423   1.416   1.546 -0.5895 -2.2462  2.1298
 5635TIP3    H216870   5.371   1.559   1.553  1.4175 -1.1224 -2.0707
 5636TIP3   OH216871   3.445   3.058   2.278 -0.0979 -0.3270  0.4388
 5636TIP3    H116872   3.490   3.098   2.353  0.4934  2.7328 -1.3554
 5636TIP3    H216873   3.515   3.032   2.218 -0.5504 -3.0469  0.9682
 5637TIP3   OH216874   0.311   6.685   5.344  0.1253 -0.1700 -0.0279
 5637TIP3    H116875   0.330   6.779   5.335  0.0368 -0.2339 -1.0276
 5637TIP3    H216876   0.235   6.671   5.287  1.1209 -1.1438 -1.1963
 5638TIP3   OH216877   3.431   1.498   3.816  0.0028 -0.0631  0.3489
 5638TIP3    H116878   3.406   1.414   3.779 -0.3942  0.4600 -0.6140
 5638TIP3    H216879   3.348   1.540   3.840  0.2617 -0.6802  2.5849
 5639TIP3   OH216880   5.195   5.342   3.727  0.2084  0.8600 -0.0330
 5639TIP3    H116881   5.165   5.404   3.660 -0.4843  1.5757  0.9059
 5639TIP3    H216882   5.122   5.282   3.739  0.8653 -0.1417 -0.9120
 5640TIP3   OH216883   3.577   4.901   1.899  0.2334  0.3051  0.1602
 5640TIP3    H116884   3.517   4.959   1.945  0.5768  1.6088 -0.9850
 5640TIP3    H216885   3.664   4.938   1.914  0.8891 -1.8001  2.1597
 5641TIP3   OH216886   3.504   6.378   5.435  0.6451 -0.3827 -0.0476
 5641TIP3    H116887   3.514   6.461   5.388 -1.0305  0.5563  1.1525
 5641TIP3    H216888   3.532   6.311   5.372  0.9570  0.9971 -1.4345
 5642TIP3   OH216889   4.524   5.579   5.396 -0.2308 -0.4393 -0.2293
 5642TIP3    H116890   4.514   5.669   5.428  1.8558 -0.7321  1.4846
 5642TIP3    H216891   4.596   5.584   5.332  0.0582 -0.8980  0.0494
 5643TIP3   OH216892   5.070   2.037   5.550 -0.0115 -0.6033 -0.2471
 5643TIP3    H116893   5.117   1.954   5.541 -1.1655 -1.1824 -1.1681
 5643TIP3    H216894   5.003   2.034   5.482 -1.1475  0.3544  0.7769
 5644TIP3   OH216895   2.981   3.942   3.068 -0.2327 -0.1009 -0.4005
 5644TIP3    H116896   3.014   4.015   3.016 -0.6642  0.6986  0.4223
 5644TIP3    H216897   2.886   3.946   3.059 -0.4854  1.2428  1.9136
 5645TIP3   OH216898   4.404   2.379   2.932 -0.2230 -0.3461  0.3837
 5645TIP3    H116899   4.477   2.421   2.978  0.6964 -1.3226 -0.1427
 5645TIP3    H216900   4.375   2.445   2.869  1.4132 -0.5829 -0.6687
 5646TIP3   OH216901   4.614   0.497   3.900  0.3982  0.3500 -0.4257
 5646TIP3    H116902   4.602   0.438   3.825  1.1362  1.6106 -1.5857
 5646TIP3    H216903   4.631   0.439   3.974 -1.6868 -1.0031 -0.9240
 5647TIP3   OH216904   5.082   6.544   3.918  0.4844 -0.1223 -0.8872
 5647TIP3    H116905   5.001   6.581   3.950  0.4115 -0.0065 -1.1973
 5647TIP3    H216906   5.056   6.488   3.845  0.5500 -1.1227 -0.1652
 5648TIP3   OH216907   0.539   4.958   1.243  0.7141  0.0648  0.0972
 5648TIP3    H116908   0.528   4.868   1.214  2.3366 -0.7340  1.7433
 5648TIP3    H216909   0.628   4.961   1.280  1.2099  2.6752 -1.0369
 5649TIP3   OH216910   3.479   3.023   0.609 -0.3174  0.4131 -0.6096
 5649TIP3    H116911   3.392   2.992   0.632 -0.2451  0.8000  0.2296
 5649TIP3    H216912   3.490   3.000   0.517 -1.3273  0.4257 -0.7330
 5650TIP3   OH216913   2.794   6.126   1.763  0.2650  0.3315 -0.2384
 5650TIP3    H116914   2.724   6.129   1.827 -0.2210 -0.7140 -0.6840
 5650TIP3    H216915   2.856   6.193   1.791 -0.2816  0.3823  0.9044
 5651TIP3   OH216916   0.463   6.152   3.082  0.0324  0.3481 -0.0555
 5651TIP3    H116917   0.389   6.104   3.119  0.0783  0.1260 -0.2482
 5651TIP3    H216918   0.443   6.244   3.099 -0.1815  0.2773  0.0860
 5652TIP3   OH216919   0.146   2.273   2.099  0.3855 -0.0777  0.0262
 5652TIP3    H116920   0.100   2.269   2.015  1.1137  1.2627 -0.4697
 5652TIP3    H216921   0.081   2.309   2.160 -0.4191 -1.8495  0.2849
 5653TIP3   OH216922   1.359   6.758   2.047 -0.1800 -0.5688 -1.1712
 5653TIP3    H116923   1.386   6.682   2.098  0.1938 -0.0261 -0.5467
 5653TIP3    H216924   1.415   6.829   2.078 -2.5851  0.7417  0.5048
 5654TIP3   OH216925   2.832   2.096   3.388 -0.0575  0.3638  0.5650
 5654TIP3    H116926   2.883   2.108   3.308  3.0164  1.8711  2.5564
 5654TIP3    H216927   2.761   2.159   3.381 -0.5431 -0.3242 -1.4101
 5655TIP3   OH216928   3.316   2.078   1.483  0.3138  0.0174  0.0030
 5655TIP3    H116929   3.240   2.127   1.455  0.4790  0.6145  0.5935
 5655TIP3    H216930   3.291   1.986   1.473 -0.7616  0.1972  0.9347
 5656TIP3   OH216931   3.162   5.269   3.835  0.0265  0.6418 -0.4390
 5656TIP3    H116932   3.119   5.249   3.753 -1.5572  0.9087  0.2870
 5656TIP3    H216933   3.144   5.362   3.850  0.2624  0.5872  0.2291
 5657TIP3   OH216934   1.218   3.162   2.798  0.2365 -0.0339 -0.5075
 5657TIP3    H116935   1.152   3.157   2.728 -0.4144  1.1267 -0.0036
 5657TIP3    H216936   1.268   3.241   2.778  0.3438  0.0480  0.0843
 5658TIP3   OH216937   1.842   1.032   1.545  0.0036  0.6537 -0.2902
 5658TIP3    H116938   1.782   1.035   1.619 -1.1539  1.8294 -1.2355
 5658TIP3    H216939   1.899   0.957   1.563 -2.1985 -0.9836  0.2943
 5659TIP3   OH216940   2.121   5.669   0.073 -0.2905  0.1077 -0.5489
 5659TIP3    H116941   2.108   5.627  -0.012 -0.2781 -1.2694  0.1019
 5659TIP3    H216942   2.198   5.626   0.110 -0.8048  0.0782  0.5167
 5660TIP3   OH216943   3.830   4.784   0.603  0.4903  0.2421 -0.2087
 5660TIP3    H116944   3.789   4.864   0.572 -0.5260 -0.1461  0.0894
 5660TIP3    H216945   3.851   4.735   0.523 -2.0337 -0.7150 -0.3963
 5661TIP3   OH216946   7.015   1.131   3.789  0.1876  0.4091  0.5002
 5661TIP3    H116947   6.989   1.045   3.823 -1.1131  0.9200  0.8199
 5661TIP3    H216948   7.106   1.140   3.818  0.3414 -0.8370  0.4965
 5662TIP3   OH216949   2.362   6.603   2.655 -0.3130  0.5348  0.1475
 5662TIP3    H116950   2.426   6.598   2.584  0.2532 -1.5322  0.7388
 5662TIP3    H216951   2.395   6.672   2.712 -0.4500  1.8006 -1.2537
 5663TIP3   OH216952   7.138   4.623   3.336 -0.3292 -0.2366  0.0128
 5663TIP3    H116953   7.048   4.636   3.365 -0.4811 -0.2395 -0.4539
 5663TIP3    H216954   7.179   4.575   3.408 -0.5002  0.3963  0.5406
 5664TIP3   OH216955   0.568   0.049   3.567 -0.4232 -0.5012  0.0778
 5664TIP3    H116956   0.529   0.135   3.576  2.5564  0.9115  0.5384
 5664TIP3    H216957   0.511  -0.009   3.617 -2.4384  1.1833 -0.1582
 5665TIP3   OH216958   0.481   0.917   2.034  0.2841  0.5101  0.6495
 5665TIP3    H116959   0.461   0.989   2.094 -1.2620 -0.5607  1.5281
 5665TIP3    H216960   0.571   0.932   2.007 -0.1186  2.9894  0.4540
 5666TIP3   OH216961   3.136   1.700   4.803 -0.7735  0.2392  0.5261
 5666TIP3    H116962   3.104   1.613   4.780  0.0150  0.2547 -0.7581
 5666TIP3    H216963   3.131   1.704   4.898  1.8847 -2.3306  0.8973
 5667TIP3   OH216964   6.616   2.379   1.939 -0.8065  0.4210 -0.4713
 5667TIP3    H116965   6.689   2.428   1.901  1.0133 -2.4340 -0.9726
 5667TIP3    H216966   6.630   2.386   2.034  1.5652 -1.9084 -0.5557
 5668TIP3   OH216967   6.268   5.817   5.615  0.2046  0.5822  0.0439
 5668TIP3    H116968   6.279   5.862   5.699 -0.3422  0.8936 -0.0417
 5668TIP3    H216969   6.329   5.744   5.618 -0.9041 -0.3261  1.3516
 5669TIP3   OH216970   0.640   4.716   2.366 -0.3562  0.3154 -0.6510
 5669TIP3    H116971   0.555   4.671   2.362 -0.1305 -0.0788 -1.2810
 5669TIP3    H216972   0.655   4.747   2.276  0.7383 -0.7270 -0.8563
 5670TIP3   OH216973   2.714   3.404   1.540 -0.2972  0.2284 -0.0542
 5670TIP3    H116974   2.771   3.379   1.468 -0.0120  2.0673 -0.5129
 5670TIP3    H216975   2.685   3.493   1.518 -3.2096 -0.5688  0.2524
 5671TIP3   OH216976   3.594   2.160   5.903  0.7200  0.2518 -0.1277
 5671TIP3    H116977   3.498   2.156   5.906  0.7585 -1.8040 -0.2201
 5671TIP3    H216978   3.613   2.186   5.813  0.2718  0.2935 -0.2162
 5672TIP3   OH216979   1.654   2.401   4.210 -0.0023  0.1995 -0.1535
 5672TIP3    H116980   1.559   2.404   4.222  0.1751  0.3196  1.3740
 5672TIP3    H216981   1.666   2.385   4.116 -1.5257 -0.0918 -0.3173
 5673TIP3   OH216982   3.909   6.587   1.761 -0.0669 -0.2204 -0.0625
 5673TIP3    H116983   3.923   6.631   1.845 -0.0620  0.1802 -0.2683
 5673TIP3    H216984   3.834   6.530   1.775  0.4920 -0.8434  0.4732
 5674TIP3   OH216985   2.121   2.013   4.498 -0.3512  0.5350  0.0368
 5674TIP3    H116986   2.190   2.028   4.563 -0.7429 -0.8310  0.8251
 5674TIP3    H216987   2.055   2.079   4.518  0.3177  1.2579 -0.1219
 5675TIP3   OH216988   2.759   3.701   0.856  0.6994 -0.2460 -0.1717
 5675TIP3    H116989   2.752   3.664   0.768 -0.2777  1.1732 -0.7221
 5675TIP3    H216990   2.688   3.765   0.860  0.6599 -0.3639  1.6957
 5676TIP3   OH216991   2.682   2.944   0.804  0.5841  0.1706  0.2933
 5676TIP3    H116992   2.753   2.945   0.868 -0.1506 -1.2256  1.1833
 5676TIP3    H216993   2.700   2.867   0.749 -0.7315 -0.8363  1.1819
 5677TIP3   OH216994   4.606   5.160   1.895  0.4666  0.2434  0.0959
 5677TIP3    H116995   4.604   5.232   1.832  1.7694 -0.5504 -0.9213
 5677TIP3    H216996   4.696   5.128   1.891  0.5452  0.0716  2.2916
 5678TIP3   OH216997   0.314   0.220   5.234 -0.1519  0.0714 -0.3996
 5678TIP3    H116998   0.313   0.171   5.152 -0.0117 -1.2843  0.3692
 5678TIP3    H216999   0.401   0.258   5.239  0.5107 -1.3988 -0.0390
 5679TIP3   OH217000   6.706   0.203   5.854  0.2105 -0.2272  0.2207
 5679TIP3    H117001   6.775   0.203   5.920 -0.5701 -0.9575  1.0723
 5679TIP3    H217002   6.749   0.171   5.775  0.8986 -0.4786  0.6827
 5680TIP3   OH217003   1.865   2.915   4.589  0.4366 -0.3598 -0.6516
 5680TIP3    H117004   1.866   2.825   4.621 -0.2460 -0.7946 -1.8008
 5680TIP3    H217005   1.896   2.967   4.663 -0.0124 -1.4355  0.3176
 5681TIP3   OH217006   6.281   4.427   5.641  0.1855 -0.1950 -0.2451
 5681TIP3    H117007   6.353   4.455   5.698 -0.1112  0.2903 -0.1046
 5681TIP3    H217008   6.248   4.508   5.602 -2.5988  0.1336  2.3743
 5682TIP3   OH217009   7.112   3.076   4.251  0.2890  0.1729  0.2052
 5682TIP3    H117010   7.124   3.116   4.337  1.0957 -1.1658  0.7472
 5682TIP3    H217011   7.036   3.019   4.262  0.1736  0.2759 -0.0672
 5683TIP3   OH217012   1.871   5.553   1.773  0.1518 -0.1075  0.2646
 5683TIP3    H117013   1.777   5.565   1.791  0.6726  2.9523  1.5542
 5683TIP3    H217014   1.909   5.534   1.859  0.9353  0.4620  0.0488
 5684TIP3   OH217015   4.006   2.352   3.809 -0.3350 -0.0416 -0.3190
 5684TIP3    H117016   3.946   2.299   3.862 -2.3455  1.2580 -1.1639
 5684TIP3    H217017   3.957   2.368   3.728  1.3138  0.8201 -1.1817
 5685TIP3   OH217018   6.561   5.178   2.148 -0.2042 -0.5520 -0.3728
 5685TIP3    H117019   6.595   5.232   2.077  0.6482 -0.8483 -0.2006
 5685TIP3    H217020   6.587   5.089   2.125  1.4253 -0.4930  1.0242
 5686TIP3   OH217021   4.080   6.102   0.423  0.1702 -0.3466  0.0045
 5686TIP3    H117022   4.057   6.186   0.463  0.3298 -0.6879  0.8180
 5686TIP3    H217023   4.019   6.093   0.350 -0.1547  0.2611  0.1985
 5687TIP3   OH217024   1.571   4.186   5.885 -0.5055  0.8127  0.6658
 5687TIP3    H117025   1.566   4.269   5.932 -1.5240  2.7868 -2.6656
 5687TIP3    H217026   1.498   4.188   5.823  1.3443 -1.0785 -1.7971
 5688TIP3   OH217027   0.371   0.541   3.263 -0.5661 -0.9041  0.1007
 5688TIP3    H117028   0.431   0.584   3.323  1.3212  0.3716 -2.4997
 5688TIP3    H217029   0.408   0.454   3.250  1.3222  0.1281 -2.0730
 5689TIP3   OH217030   3.062   3.729   4.131  0.2818  0.0107  0.2057
 5689TIP3    H117031   3.074   3.719   4.226 -1.1283  0.4411  0.4544
 5689TIP3    H217032   2.985   3.676   4.111 -0.0179  0.7074 -0.5259
 5690TIP3   OH217033   1.855   2.461   3.736  0.0599  0.7125  0.1340
 5690TIP3    H117034   1.883   2.410   3.812 -0.0462  1.9439  1.0255
 5690TIP3    H217035   1.817   2.396   3.676  1.4816 -0.4913  0.4641
 5691TIP3   OH217036   0.730   1.796   2.324 -0.3034 -0.5975  0.3856
 5691TIP3    H117037   0.755   1.740   2.251 -0.2220  1.0470 -0.9111
 5691TIP3    H217038   0.807   1.850   2.342 -1.0185  0.5349  0.1930
 5692TIP3   OH217039   2.610   6.690   4.148 -0.0989 -0.6171 -0.3777
 5692TIP3    H117040   2.557   6.689   4.228 -0.4131 -1.8715 -0.5831
 5692TIP3    H217041   2.699   6.705   4.179  0.3214 -4.1813  0.6230
 5693TIP3   OH217042   6.886   2.831   3.284 -0.4342  0.1759 -0.2443
 5693TIP3    H117043   6.917   2.922   3.278  1.3601 -0.4793 -1.9213
 5693TIP3    H217044   6.806   2.837   3.335  1.0021  2.3729  2.0225
 5694TIP3   OH217045   0.055   3.783   0.581 -0.3765  0.4980 -0.4065
 5694TIP3    H117046   0.036   3.804   0.672 -3.2763  2.3232 -1.2909
 5694TIP3    H217047   0.021   3.694   0.569 -3.0112  1.4110 -0.3688
 5695TIP3   OH217048   1.251   3.741   3.916  0.4191 -0.4641  0.6166
 5695TIP3    H117049   1.236   3.670   3.978 -0.2668 -0.4565  0.4711
 5695TIP3    H217050   1.183   3.729   3.849  1.4911 -0.8207 -0.4501
 5696TIP3   OH217051   7.125   5.350   5.763 -0.5529  0.1535 -0.4745
 5696TIP3    H117052   7.092   5.421   5.708  1.4785 -0.1294 -2.1902
 5696TIP3    H217053   7.149   5.393   5.846 -0.5531  1.2232 -1.0092
 5697TIP3   OH217054   5.176   2.604   2.144  0.4983  0.0019  0.1867
 5697TIP3    H117055   5.256   2.554   2.163 -0.3101 -0.4480  2.8075
 5697TIP3    H217056   5.106   2.539   2.149 -0.1115  0.3873 -2.0898
 5698TIP3   OH217057   5.654   0.738   4.411  0.3440 -0.2052 -0.7941
 5698TIP3    H117058   5.655   0.668   4.476 -1.3959  1.9205  1.7229
 5698TIP3    H217059   5.746   0.765   4.404  0.6207 -0.6841  0.6179
 5699TIP3   OH217060   3.201   5.412   2.153  0.4332  0.1376  1.2233
 5699TIP3    H117061   3.137   5.470   2.111 -0.1366 -1.3635 -0.0703
 5699TIP3    H217062   3.156   5.382   2.233 -0.0963 -0.1117  0.8416
 5700TIP3   OH217063   5.944   0.424   0.226 -0.7694 -0.4709  0.1543
 5700TIP3    H117064   5.978   0.477   0.154  0.1950 -0.4517  0.6051
 5700TIP3    H217065   5.968   0.334   0.202 -0.3945 -0.4584  0.4650
 5701TIP3   OH217066   6.912   4.428   5.809  0.0948 -0.0589  0.2827
 5701TIP3    H117067   6.868   4.470   5.883 -1.4024 -0.7731 -0.1597
 5701TIP3    H217068   7.005   4.441   5.826 -0.2663  2.5438  0.6519
 5702TIP3   OH217069   0.290   3.549   1.554 -0.0661  0.4341  0.1554
 5702TIP3    H117070   0.380   3.516   1.562 -0.5349 -0.6576  1.3212
 5702TIP3    H217071   0.236   3.470   1.554 -1.0049  1.0531 -1.1188
 5703TIP3   OH217072   3.961   5.286   2.279 -0.2398 -0.5961  0.1047
 5703TIP3    H117073   3.996   5.241   2.202  0.5629  0.2964 -0.0600
 5703TIP3    H217074   4.037   5.307   2.332 -0.7472 -0.7755  0.9280
 5704TIP3   OH217075   6.136   0.881   5.446 -0.2328 -0.4797 -0.0956
 5704TIP3    H117076   6.211   0.908   5.393 -0.3517 -1.4895 -0.8044
 5704TIP3    H217077   6.100   0.963   5.480  1.2458  0.0195  0.3571
 5705TIP3   OH217078   7.156   3.700   5.760 -0.3060  0.3777 -0.4791
 5705TIP3    H117079   7.225   3.662   5.707  0.8699  0.9811  0.5707
 5705TIP3    H217080   7.201   3.758   5.821 -1.8358  1.7898 -0.5946
 5706TIP3   OH217081   3.299   0.107   3.503 -0.0279 -0.2635 -0.0870
 5706TIP3    H117082   3.326   0.063   3.422 -0.5146 -2.0418  0.6692
 5706TIP3    H217083   3.381   0.121   3.551  0.0522 -1.4332  0.1618
 5707TIP3   OH217084   1.737   3.219   1.676 -0.2496  0.6867  0.1091
 5707TIP3    H117085   1.699   3.153   1.618 -0.2452  3.6060 -3.6252
 5707TIP3    H217086   1.661   3.267   1.710 -0.2010  1.4583 -0.8152
 5708TIP3   OH217087   5.759   6.658   1.786  0.2285  0.1953  0.5833
 5708TIP3    H117088   5.681   6.704   1.756  0.5181  1.2207  1.3451
 5708TIP3    H217089   5.728   6.571   1.812 -0.2417 -0.2525 -1.3463
 5709TIP3   OH217090   2.149   5.107   2.807 -0.1622 -0.4222  0.3690
 5709TIP3    H117091   2.244   5.107   2.797 -0.1028 -1.6830  0.7696
 5709TIP3    H217092   2.134   5.087   2.899 -0.8088 -2.3767 -0.1077
 5710TIP3   OH217093   4.625   3.608   3.995 -0.1409  0.3547  0.0521
 5710TIP3    H117094   4.611   3.539   4.060 -0.1505 -0.8332 -1.1866
 5710TIP3    H217095   4.544   3.612   3.946  0.0506  0.8916 -0.2306
 5711TIP3   OH217096   6.829   5.238   2.380  0.1405  0.1791 -0.6036
 5711TIP3    H117097   6.803   5.146   2.374  1.1288 -0.1041 -0.7745
 5711TIP3    H217098   6.866   5.247   2.467 -1.4740  0.8514  0.0528
 5712TIP3   OH217099   3.330   2.772   5.018  0.0787  0.6051 -0.6230
 5712TIP3    H117100   3.245   2.732   4.999 -1.7136  2.3399  2.7963
 5712TIP3    H217101   3.393   2.701   5.009 -1.8472 -1.0011 -2.2993
 5713TIP3   OH217102   3.870   2.233   5.862  0.0069  0.3250 -0.1856
 5713TIP3    H117103   3.820   2.309   5.831 -3.2023 -2.0482 -1.3350
 5713TIP3    H217104   3.811   2.189   5.923  0.7079 -2.5392 -1.4246
 5714TIP3   OH217105   6.876   2.898   5.841  0.0370  0.0890  0.2004
 5714TIP3    H117106   6.971   2.893   5.851  0.4169  0.8089 -2.2851
 5714TIP3    H217107   6.849   2.808   5.827  0.4084 -0.0873  0.6084
 5715TIP3   OH217108   3.353   1.265   0.597 -0.1202  0.3246 -0.0080
 5715TIP3    H117109   3.439   1.230   0.576 -0.1785  0.2641 -0.1480
 5715TIP3    H217110   3.339   1.336   0.534 -0.0840  0.4755  0.1512
 5716TIP3   OH217111   6.401   2.729   2.474  0.1423  0.3870  0.0899
 5716TIP3    H117112   6.435   2.767   2.555  0.5222 -1.6222  0.9345
 5716TIP3    H217113   6.388   2.637   2.494 -0.3394 -0.0521 -1.9738
 5717TIP3   OH217114   6.875   6.615   2.377  0.1269  0.0826  0.4199
 5717TIP3    H117115   6.877   6.606   2.472  0.1278  0.0665  0.4182
 5717TIP3    H217116   6.864   6.709   2.362 -1.2848 -0.0446  0.4647
 5718TIP3   OH217117   2.342   3.177   2.183  0.0056  0.6792 -0.6297
 5718TIP3    H117118   2.350   3.265   2.145 -0.4897  0.5123 -1.1138
 5718TIP3    H217119   2.418   3.171   2.242  0.8585  0.8908 -1.6635
 5719TIP3   OH217120   4.578   4.844   1.941 -0.6453  0.2112 -0.0090
 5719TIP3    H117121   4.648   4.909   1.942 -1.0990  0.7124  1.5184
 5719TIP3    H217122   4.623   4.761   1.925  0.0026  0.7950 -1.3955
 5720TIP3   OH217123   1.265   3.503   1.908  0.2010  0.0353 -0.4661
 5720TIP3    H117124   1.204   3.506   1.834 -1.4584  0.6525  0.8507
 5720TIP3    H217125   1.225   3.559   1.974  2.2890  0.5532  0.4488
 5721TIP3   OH217126   0.439   4.961   0.220 -0.0440  0.1616  0.1986
 5721TIP3    H117127   0.387   4.985   0.296  0.1523  1.0132  0.0730
 5721TIP3    H217128   0.397   5.005   0.147  1.6493  2.0855  0.3006
 5722TIP3   OH217129   2.334   2.935   2.512  0.6309  0.0843 -0.1482
 5722TIP3    H117130   2.257   2.992   2.515  0.3954 -0.2575  0.7103
 5722TIP3    H217131   2.402   2.988   2.470 -0.2235  0.1921 -1.4525
 5723TIP3   OH217132   3.242   3.298   0.243  0.3063 -0.3927 -0.2170
 5723TIP3    H117133   3.226   3.232   0.175  1.9983 -0.2312 -0.8226
 5723TIP3    H217134   3.204   3.378   0.208  1.2549 -0.2862 -1.0566
 5724TIP3   OH217135   3.117   5.153   5.575  0.4505 -0.2131  0.3455
 5724TIP3    H117136   3.124   5.194   5.661  1.3953  0.1024  0.1312
 5724TIP3    H217137   3.078   5.221   5.519 -2.1579 -1.0911  0.9442
 5725TIP3   OH217138   0.637   0.835   4.915 -0.8273  0.5318 -0.2279
 5725TIP3    H117139   0.616   0.863   5.004 -0.5089 -0.4712  0.1809
 5725TIP3    H217140   0.558   0.853   4.865 -0.6046  2.2337 -0.0303
 5726TIP3   OH217141   7.122   4.784   4.927  0.5246  0.1783 -0.2922
 5726TIP3    H117142   7.204   4.777   4.878  1.4783  2.1976  0.9139
 5726TIP3    H217143   7.139   4.737   5.009 -0.0623 -0.6780 -0.6469
 5727TIP3   OH217144   2.176   0.892   1.620 -0.3208 -0.3608 -0.5419
 5727TIP3    H117145   2.234   0.837   1.568 -1.1616 -0.3987 -1.4663
 5727TIP3    H217146   2.095   0.842   1.628 -0.3407 -0.1794  0.4659
 5728TIP3   OH217147   0.443   3.225   4.425 -0.2484  0.2279  0.0049
 5728TIP3    H117148   0.505   3.155   4.445  2.1609  1.9416 -0.9179
 5728TIP3    H217149   0.397   3.241   4.507 -1.4393 -2.8821  0.0428
 5729TIP3   OH217150   0.513   1.395   4.658 -0.2334  0.6193 -0.3414
 5729TIP3    H117151   0.523   1.351   4.743  1.3840 -0.4167 -1.0185
 5729TIP3    H217152   0.566   1.474   4.665  0.1000  0.4073 -0.4676
 5730TIP3   OH217153   4.631   0.347   2.548 -0.7946  0.0169  0.0626
 5730TIP3    H117154   4.672   0.407   2.610  0.0607  0.5100 -0.9433
 5730TIP3    H217155   4.545   0.385   2.531 -0.5916  0.4946  0.0913
 5731TIP3   OH217156   2.593   1.427   2.116  0.1823 -0.0907  0.0361
 5731TIP3    H117157   2.499   1.435   2.101  0.1328  1.4382  0.8827
 5731TIP3    H217158   2.621   1.357   2.057 -1.3443 -0.0499 -0.8020
 5732TIP3   OH217159   5.887   1.887   3.266 -0.1006  0.0476 -0.6819
 5732TIP3    H117160   5.798   1.911   3.242  0.0734 -1.8005 -3.6131
 5732TIP3    H217161   5.904   1.806   3.219  2.8299 -0.1623  0.5202
 5733TIP3   OH217162   2.097   0.979   5.006 -0.4358 -0.0927  0.0428
 5733TIP3    H117163   2.051   0.912   5.055 -1.7690  0.3912 -0.5075
 5733TIP3    H217164   2.057   0.977   4.919  0.3910  0.5368 -0.3652
 5734TIP3   OH217165   4.837   4.994   1.156 -0.5267 -0.1180 -0.0354
 5734TIP3    H117166   4.914   4.947   1.123 -0.5516 -0.9706  1.0744
 5734TIP3    H217167   4.856   5.012   1.248 -0.6275  1.8734 -0.3539
 5735TIP3   OH217168   5.197   1.056   3.478  0.5891 -0.2715  0.1682
 5735TIP3    H117169   5.209   1.006   3.559  0.1994 -0.9882 -0.2153
 5735TIP3    H217170   5.280   1.103   3.467  0.2773  0.6914  1.5475
 5736TIP3   OH217171   5.065   6.327   2.668 -0.4224  0.1760 -0.2518
 5736TIP3    H117172   5.095   6.264   2.602 -1.7231 -2.2258  1.2748
 5736TIP3    H217173   5.032   6.401   2.618 -0.6956 -1.2347 -2.2807
 5737TIP3   OH217174   2.393   4.828   2.185  0.4312 -0.1190 -0.3602
 5737TIP3    H117175   2.338   4.901   2.158 -0.3237 -0.3099  0.6283
 5737TIP3    H217176   2.358   4.753   2.136  0.5171 -0.0285 -0.5613
 5738TIP3   OH217177   4.586   1.269   0.455  0.2586 -0.3559  0.5280
 5738TIP3    H117178   4.583   1.362   0.432  1.6569 -0.0988  1.3092
 5738TIP3    H217179   4.594   1.267   0.550 -0.5727 -1.3138  0.6027
 5739TIP3   OH217180   3.941   2.112   3.259 -0.0451  0.3893  0.4465
 5739TIP3    H117181   3.941   2.016   3.259 -0.0876  0.3788  1.3516
 5739TIP3    H217182   3.858   2.135   3.300  0.1625  0.8064  0.6299
 5740TIP3   OH217183   4.479   6.140   5.580 -0.3192 -0.0178  0.6622
 5740TIP3    H117184   4.500   6.190   5.659 -1.4964  0.9547  0.4019
 5740TIP3    H217185   4.404   6.186   5.542  0.6602 -0.0278 -1.4244
 5741TIP3   OH217186   6.169   0.612   5.123 -0.0559 -0.0803  0.5098
 5741TIP3    H117187   6.170   0.678   5.054 -1.5890 -1.1259 -0.5867
 5741TIP3    H217188   6.261   0.587   5.133  0.3406  0.9551 -0.2823
 5742TIP3   OH217189   0.897   3.217   5.806 -0.2262  0.3019  0.1654
 5742TIP3    H117190   0.815   3.226   5.854  0.3557  1.4391  1.0094
 5742TIP3    H217191   0.892   3.282   5.736  0.3746  1.1484  0.8832
 5743TIP3   OH217192   4.307   5.326   4.759  0.1923 -0.1759 -0.1609
 5743TIP3    H117193   4.292   5.372   4.842  0.6871 -2.1992  1.1021
 5743TIP3    H217194   4.221   5.292   4.735 -0.3003  1.7641 -1.4048
 5744TIP3   OH217195   1.330   5.720   0.267 -0.1544  0.0375  0.4274
 5744TIP3    H117196   1.384   5.712   0.346 -2.4204 -0.3093  2.0502
 5744TIP3    H217197   1.321   5.630   0.235  0.3503  0.1161  0.0573
 5745TIP3   OH217198   4.590   4.909   0.377  0.2799  0.1906  0.2111
 5745TIP3    H117199   4.667   4.881   0.427  1.1140  0.5255 -0.8379
 5745TIP3    H217200   4.515   4.884   0.431  1.1356  0.1529  1.4090
 5746TIP3   OH217201   1.713   6.799   3.103  0.3052  0.6133  0.4441
 5746TIP3    H117202   1.774   6.856   3.057  0.3809 -0.1437 -0.4138
 5746TIP3    H217203   1.758   6.715   3.109 -1.6193 -0.8159 -2.6725
 5747TIP3   OH217204   2.702   0.382   4.797 -0.2527 -0.3248 -0.2925
 5747TIP3    H117205   2.642   0.410   4.866  1.5575 -0.5562  1.4501
 5747TIP3    H217206   2.770   0.449   4.795 -0.7386  0.1689 -2.5488
 5748TIP3   OH217207   0.512   5.419   5.495  0.2483 -0.1452 -0.3378
 5748TIP3    H117208   0.561   5.438   5.576  1.1490 -1.1394 -0.6349
 5748TIP3    H217209   0.441   5.362   5.524  0.9858 -1.0932 -0.3255
 5749TIP3   OH217210   5.504   5.366   1.118  0.3025 -0.0200  0.4231
 5749TIP3    H117211   5.518   5.291   1.060 -0.7266  0.4556 -0.4685
 5749TIP3    H217212   5.580   5.365   1.177  1.8821  0.0009 -1.4921
 5750TIP3   OH217213   0.773   5.904   3.916 -0.2746  0.4586 -0.7113
 5750TIP3    H117214   0.816   5.901   3.831 -0.9283  2.4741 -1.1558
 5750TIP3    H217215   0.740   5.993   3.924 -1.4351 -0.0673  1.0666
 5751TIP3   OH217216   4.895   1.363   4.196 -0.6684 -0.2400 -0.2837
 5751TIP3    H117217   4.895   1.267   4.205  0.8266 -0.2515 -0.2509
 5751TIP3    H217218   4.985   1.389   4.216 -1.6381  1.4466  2.4568
 5752TIP3   OH217219   0.612   1.820   1.511  0.0572 -0.6596  0.2744
 5752TIP3    H117220   0.550   1.763   1.557  0.9839 -1.9364 -0.0030
 5752TIP3    H217221   0.595   1.805   1.418  1.8670 -2.3494  0.1528
 5753TIP3   OH217222   0.332   0.411   1.834 -0.0753  0.2769  0.0606
 5753TIP3    H117223   0.316   0.323   1.799 -0.3538 -0.3114  1.5881
 5753TIP3    H217224   0.348   0.397   1.927  1.4184  1.6920  0.0622
 5754TIP3   OH217225   0.095   4.163   2.893  0.3307  0.1856  0.2935
 5754TIP3    H117226   0.188   4.168   2.915  0.4180 -4.6439  2.2312
 5754TIP3    H217227   0.093   4.139   2.800  1.3572 -2.5763  0.8823
 5755TIP3   OH217228   5.984   3.351   4.331  0.2904 -0.1166 -0.1197
 5755TIP3    H117229   5.922   3.279   4.343  0.1047 -0.1600 -1.2228
 5755TIP3    H217230   5.953   3.397   4.253  2.7699 -1.3769 -2.0060
 5756TIP3   OH217231   2.035   3.896   2.690  0.4425 -0.0834 -0.4744
 5756TIP3    H117232   1.964   3.951   2.656  1.3517  1.2114 -0.3711
 5756TIP3    H217233   2.026   3.814   2.643 -0.4499  0.4413 -1.2651
 5757TIP3   OH217234   5.852   0.491   4.111 -0.2825  0.2340  0.1806
 5757TIP3    H117235   5.809   0.483   4.026  0.2680 -0.4244 -0.0375
 5757TIP3    H217236   5.901   0.573   4.105  3.3356 -1.8277 -1.8118
 5758TIP3   OH217237   4.962   3.684   0.591  0.1221  0.4391  0.2100
 5758TIP3    H117238   4.869   3.682   0.568 -0.3713  0.6678  2.0229
 5758TIP3    H217239   4.970   3.758   0.651  0.9000 -1.2672  2.3084
 5759TIP3   OH217240   0.556   3.492   0.411  0.0402  0.1952 -0.7272
 5759TIP3    H117241   0.537   3.485   0.318  0.4632  0.9589 -0.8875
 5759TIP3    H217242   0.652   3.498   0.415  0.1621 -1.5378 -0.1048
 5760TIP3   OH217243   1.910   5.299   4.945 -0.2833 -0.2767  0.1226
 5760TIP3    H117244   1.992   5.254   4.969  1.8480  3.4066  0.5848
 5760TIP3    H217245   1.901   5.368   5.011 -2.8621  0.5364 -0.9605
 5761TIP3   OH217246   6.338   3.724   1.066  0.7951  0.2956  0.1237
 5761TIP3    H117247   6.299   3.795   1.015 -0.6995  0.5620  1.5626
 5761TIP3    H217248   6.288   3.646   1.043 -0.8140  0.6753  2.1203
 5762TIP3   OH217249   2.405   0.845   4.326 -0.1377 -0.5451 -0.1844
 5762TIP3    H117250   2.319   0.826   4.289 -0.2189  0.9250 -0.8052
 5762TIP3    H217251   2.460   0.772   4.297 -0.9255 -0.9867 -0.6107
 5763TIP3   OH217252   0.813   4.490   2.373  0.3483 -0.0681  0.3776
 5763TIP3    H117253   0.867   4.446   2.438  0.5553  1.3429  1.1980
 5763TIP3    H217254   0.777   4.566   2.419  1.4252  1.6346 -1.4419
 5764TIP3   OH217255   0.796   1.587   1.586  0.5921  0.1869 -0.4838
 5764TIP3    H117256   0.723   1.629   1.541 -0.1161 -1.2839 -0.7384
 5764TIP3    H217257   0.783   1.608   1.678  0.2428  0.5130 -0.6063
 5765TIP3   OH217258   6.849   6.291   4.082 -0.1531  0.3485 -0.2246
 5765TIP3    H117259   6.866   6.283   4.176 -1.9338  0.3202  0.1238
 5765TIP3    H217260   6.813   6.379   4.071 -0.2108  0.2537 -0.8543
 5766TIP3   OH217261   5.939   4.690   1.494 -0.4331  0.1415  0.0662
 5766TIP3    H117262   6.020   4.701   1.445 -0.0180 -1.3267  0.3712
 5766TIP3    H217263   5.897   4.614   1.453 -0.6117 -0.4208  1.2493
 5767TIP3   OH217264   6.090   5.091   3.096  0.1477 -0.5799 -0.2589
 5767TIP3    H117265   6.148   5.167   3.094  0.0769 -0.4966  0.4451
 5767TIP3    H217266   6.143   5.019   3.062  0.3405 -0.3009 -0.5544
 5768TIP3   OH217267   3.089   0.457   0.825  0.0297 -0.4388 -0.1157
 5768TIP3    H117268   3.027   0.387   0.845  1.1897 -1.6467 -0.5844
 5768TIP3    H217269   3.175   0.414   0.826  0.9360  1.2911  1.0771
 5769TIP3   OH217270   1.792   1.632   3.397 -0.0161 -0.0010  0.1158
 5769TIP3    H117271   1.715   1.681   3.427  0.0103  0.7144 -0.9457
 5769TIP3    H217272   1.834   1.690   3.333  0.5576 -1.0155 -0.4466
 5770TIP3   OH217273   6.902   3.973   2.402  0.1854 -0.4857 -0.3105
 5770TIP3    H117274   6.835   3.908   2.383  1.6689 -2.1155 -0.2906
 5770TIP3    H217275   6.982   3.936   2.365  1.3854  0.6068  1.0557
 5771TIP3   OH217276   4.758   2.615   2.856  0.4045  0.2370  0.2805
 5771TIP3    H117277   4.846   2.602   2.892  1.4375  1.5211 -1.5631
 5771TIP3    H217278   4.755   2.709   2.834 -0.7004 -0.1518 -1.4230
 5772TIP3   OH217279   2.402   2.418   1.681 -0.6677  0.0004 -0.0782
 5772TIP3    H117280   2.458   2.495   1.673 -2.2202  1.0792 -0.9424
 5772TIP3    H217281   2.458   2.352   1.724  0.6157  1.6472  0.8845
 5773TIP3   OH217282   0.466   4.458   5.740  0.5143  0.2356  0.7285
 5773TIP3    H117283   0.397   4.395   5.721 -0.7760  2.0822 -1.1525
 5773TIP3    H217284   0.425   4.544   5.729  2.5799  1.4366  1.6594
 5774TIP3   OH217285   4.712   1.794   1.817 -0.1277  0.2089  0.4684
 5774TIP3    H117286   4.666   1.801   1.733  2.4097  0.5072 -1.0076
 5774TIP3    H217287   4.681   1.869   1.868 -1.1761  0.4480 -0.4846
 5775TIP3   OH217288   0.226   0.838   2.189 -0.4959 -0.5106 -0.1552
 5775TIP3    H117289   0.306   0.886   2.213 -0.4604 -1.0094  0.7875
 5775TIP3    H217290   0.192   0.884   2.113 -0.8280  1.4429  1.1052
 5776TIP3   OH217291   6.009   0.724   3.088  0.1667  0.4392 -0.3439
 5776TIP3    H117292   6.047   0.803   3.126 -0.2158  1.2519 -1.5844
 5776TIP3    H217293   6.046   0.653   3.139  1.0432  1.3772  0.3764
 5777TIP3   OH217294   0.802   3.580   5.140 -0.0741  0.2343  0.3393
 5777TIP3    H117295   0.877   3.594   5.197 -0.4624  1.1564  0.6420
 5777TIP3    H217296   0.808   3.488   5.114  0.6435  0.0618  1.0872
 5778TIP3   OH217297   4.267   1.804   5.326  0.5151  0.0330  0.3265
 5778TIP3    H117298   4.277   1.894   5.358  0.4343 -0.2887  1.3053
 5778TIP3    H217299   4.172   1.792   5.319  0.5238  0.0111  0.2451
 5779TIP3   OH217300   6.216   1.754   5.503  0.2898  0.2450  0.6745
 5779TIP3    H117301   6.224   1.810   5.580  0.1008 -0.2245  1.0428
 5779TIP3    H217302   6.134   1.781   5.461  1.3406  1.8515 -0.4845
 5780TIP3   OH217303   0.296   2.032   1.594  0.1382  0.0934  1.0231
 5780TIP3    H117304   0.348   1.963   1.637 -0.6538 -0.1485  1.6278
 5780TIP3    H217305   0.322   2.112   1.638 -0.3394 -0.0931  1.6571
 5781TIP3   OH217306   2.061   3.081   4.514  0.2233 -0.2279 -0.0324
 5781TIP3    H117307   2.086   3.066   4.423  1.2427 -0.0782  0.2093
 5781TIP3    H217308   1.986   3.023   4.528 -0.4334  0.3075 -1.1748
 5782TIP3   OH217309   4.589   0.764   1.626 -0.0929  0.1863  0.8236
 5782TIP3    H117310   4.504   0.721   1.625  1.0627 -2.3216 -1.4449
 5782TIP3    H217311   4.637   0.720   1.697  0.6294 -1.4820 -0.6174
 5783TIP3   OH217312   3.897   6.091   4.629  0.5515  0.8224 -0.1039
 5783TIP3    H117313   3.976   6.045   4.657 -0.2417  0.5467  1.9129
 5783TIP3    H217314   3.861   6.036   4.559  1.0614 -0.1706  0.3881
 5784TIP3   OH217315   2.462   6.622   5.307 -0.5616  0.0736  0.2822
 5784TIP3    H117316   2.457   6.527   5.300  0.4459  0.0887 -1.3845
 5784TIP3    H217317   2.446   6.653   5.218  2.1679  1.2373  0.0837
 5785TIP3   OH217318   2.733   4.368   4.059  0.1433 -0.1513  0.6060
 5785TIP3    H117319   2.818   4.338   4.029  0.8857  0.1998  2.2738
 5785TIP3    H217320   2.751   4.445   4.112 -1.3065  0.5014  0.2134
 5786TIP3   OH217321   6.181   3.530   2.908  0.4923  0.3560  0.1752
 5786TIP3    H117322   6.116   3.589   2.945 -0.5813 -0.8508  0.3090
 5786TIP3    H217323   6.165   3.446   2.952  0.0770 -0.7693 -1.9698
 5787TIP3   OH217324   6.470   2.999   4.498 -0.4594  0.8212 -0.0582
 5787TIP3    H117325   6.375   3.005   4.486 -0.4499  0.2926 -0.4098
 5787TIP3    H217326   6.505   3.072   4.447 -0.6564  0.8573 -0.1411
 5788TIP3   OH217327   5.667   6.530   1.264  0.2194 -0.1580 -0.6667
 5788TIP3    H117328   5.754   6.512   1.228  0.6649  0.5243  0.0243
 5788TIP3    H217329   5.673   6.621   1.295 -0.5762 -0.2747 -0.1462
 5789TIP3   OH217330   0.799   1.201   3.904 -0.0240 -0.2423 -0.2935
 5789TIP3    H117331   0.820   1.241   3.989 -1.6667 -1.5453  0.7979
 5789TIP3    H217332   0.880   1.208   3.854  0.8802  0.9339  1.2378
 5790TIP3   OH217333   3.630   4.074   3.777 -0.1557 -0.2627 -0.6307
 5790TIP3    H117334   3.616   4.009   3.709 -1.5748 -0.3515 -0.2890
 5790TIP3    H217335   3.548   4.074   3.827  1.5088 -1.6820  2.3546
 5791TIP3   OH217336   4.236   3.953   0.531 -0.7889 -0.0331 -0.1525
 5791TIP3    H117337   4.171   3.890   0.562  0.6650 -0.7728  1.5506
 5791TIP3    H217338   4.297   3.901   0.479  0.6316 -0.1770  1.5772
 5792TIP3   OH217339   2.194   5.392   5.267  0.6420 -0.1122  0.1567
 5792TIP3    H117340   2.213   5.303   5.298  1.3049  0.4073  1.2892
 5792TIP3    H217341   2.106   5.385   5.230  0.1257 -0.9698  1.4373
 5793TIP3   OH217342   2.028   1.122   3.798  0.0287 -0.3839  0.0821
 5793TIP3    H117343   2.040   1.031   3.826  0.3019 -0.2524  0.3963
 5793TIP3    H217344   2.111   1.146   3.758 -0.3518 -0.5640 -0.8450
 5794TIP3   OH217345   4.881   5.511   2.870 -0.1572 -0.0874  0.4206
 5794TIP3    H117346   4.855   5.439   2.812 -1.6166  0.2278  0.6529
 5794TIP3    H217347   4.974   5.496   2.884 -0.3142 -1.6716  0.0839
 5795TIP3   OH217348   4.615   4.246   2.153 -0.0451  0.1907 -0.4381
 5795TIP3    H117349   4.639   4.177   2.091 -1.5326 -1.2500  0.5123
 5795TIP3    H217350   4.524   4.267   2.132 -0.8388 -0.8692  1.6489
 5796TIP3   OH217351   1.369   0.213   3.033  0.2137 -0.7556 -0.0871
 5796TIP3    H117352   1.329   0.245   3.114  1.4278  1.6862 -0.3666
 5796TIP3    H217353   1.463   0.210   3.051  0.6093  0.7399 -1.6268
 5797TIP3   OH217354   3.965   1.852   3.172  0.2854 -0.3660 -0.1964
 5797TIP3    H117355   3.941   1.842   3.080 -0.0862  0.1545 -0.1588
 5797TIP3    H217356   4.021   1.777   3.191  2.8073  1.0412 -1.6508
 5798TIP3   OH217357   2.465   3.264   3.153  0.3829 -0.5268 -0.0438
 5798TIP3    H117358   2.493   3.173   3.162 -0.1497 -0.5983  1.1130
 5798TIP3    H217359   2.511   3.296   3.075 -0.7889 -2.2953 -1.5655
 5799TIP3   OH217360   2.329   4.614   2.407 -0.1226 -0.7619 -0.8876
 5799TIP3    H117361   2.269   4.563   2.352  1.5209 -2.3676 -1.3085
 5799TIP3    H217362   2.416   4.583   2.381  0.9253  1.7029 -0.5288
 5800TIP3   OH217363   2.687   5.741   2.350  0.3380  0.0093  0.1765
 5800TIP3    H117364   2.752   5.687   2.304 -0.7339  0.6411 -2.2285
 5800TIP3    H217365   2.677   5.698   2.435  1.7565 -1.7996 -0.4904
 5801TIP3   OH217366   3.121   0.207   3.258 -0.4058  0.4839  0.7607
 5801TIP3    H117367   3.052   0.156   3.301 -0.4492 -0.0520  0.0598
 5801TIP3    H217368   3.166   0.251   3.331 -1.8415  1.3170  1.1901
 5802TIP3   OH217369   5.792   4.640   0.160  0.4758 -0.4934 -0.3354
 5802TIP3    H117370   5.776   4.553   0.122  0.3680 -0.4073 -0.4881
 5802TIP3    H217371   5.883   4.660   0.135  0.2204 -0.1863 -1.0566
 5803TIP3   OH217372   0.824   6.155   3.800 -0.3408  0.1855 -0.0646
 5803TIP3    H117373   0.894   6.177   3.861 -0.8781  0.3884  0.4878
 5803TIP3    H217374   0.797   6.239   3.762 -1.0367  0.2513  0.5576
 5804TIP3   OH217375   7.151   0.082   3.194  0.4851 -0.5303  0.4981
 5804TIP3    H117376   7.124   0.053   3.281 -1.3298  1.8688  0.8459
 5804TIP3    H217377   7.111   0.019   3.134 -0.8879 -0.4698  1.3114
 5805TIP3   OH217378   1.758   0.114   1.973 -0.9379  0.0391 -0.3808
 5805TIP3    H117379   1.696   0.047   1.943 -0.8887  0.0465 -0.4992
 5805TIP3    H217380   1.708   0.168   2.034 -1.5117  1.0213 -1.6738
 5806TIP3   OH217381   3.355   6.541   2.182 -0.0394  0.0539 -0.3920
 5806TIP3    H117382   3.285   6.496   2.229  0.5073  0.5551  0.9777
 5806TIP3    H217383   3.366   6.623   2.230  0.0850  0.9199 -1.8437
 5807TIP3   OH217384   4.821   5.066   1.435 -0.3484  0.0293 -0.0152
 5807TIP3    H117385   4.894   5.106   1.483 -0.6886  0.8262 -0.1338
 5807TIP3    H217386   4.819   4.975   1.465 -0.9723  0.6553  2.0200
 5808TIP3   OH217387   1.904   5.196   1.293  0.0364 -0.2582 -0.0788
 5808TIP3    H117388   1.890   5.257   1.366  0.9222 -1.2604  0.9631
 5808TIP3    H217389   1.999   5.191   1.284 -0.0548 -0.5096 -1.0129
 5809TIP3   OH217390   5.832   1.888   4.419 -0.1622  0.5557  0.0807
 5809TIP3    H117391   5.833   1.799   4.452  0.6379  0.4182 -0.2914
 5809TIP3    H217392   5.924   1.912   4.411 -0.3312  0.8342 -1.3473
 5810TIP3   OH217393   5.497   5.803   2.882  0.8104 -0.3599 -0.2750
 5810TIP3    H117394   5.576   5.839   2.841  0.5339  0.1725 -0.3548
 5810TIP3    H217395   5.458   5.748   2.814  0.9650 -0.3947 -0.3351
 5811TIP3   OH217396   6.900   3.990   3.184 -0.9278 -0.2258 -0.0501
 5811TIP3    H117397   6.990   3.959   3.179 -1.1218 -0.7281 -0.4320
 5811TIP3    H217398   6.884   4.003   3.277  0.2784  2.0670 -0.0783
 5812TIP3   OH217399   4.870   4.239   1.892  0.5943 -0.0417 -0.2310
 5812TIP3    H117400   4.811   4.180   1.845 -0.0122 -0.1571  0.6347
 5812TIP3    H217401   4.947   4.185   1.912  1.5799  0.4586 -2.4499
 5813TIP3   OH217402   3.322   0.923   4.554  0.0917  0.0497 -0.2961
 5813TIP3    H117403   3.400   0.962   4.594 -0.7096  1.5008 -0.0840
 5813TIP3    H217404   3.275   0.883   4.628 -0.0485  0.3715 -0.2118
 5814TIP3   OH217405   5.940   3.588   5.145 -0.1810  0.2498 -0.0177
 5814TIP3    H117406   5.860   3.558   5.188  0.1907  0.2099  0.6685
 5814TIP3    H217407   5.961   3.671   5.189  1.4781 -0.9139  1.5755
 5815TIP3   OH217408   0.518   1.583   2.419 -0.0884 -0.1573  0.1824
 5815TIP3    H117409   0.566   1.665   2.430  1.0798 -0.5987 -1.2519
 5815TIP3    H217410   0.464   1.575   2.498 -1.6683  2.8986 -0.4481
 5816TIP3   OH217411   6.489   0.342   2.135 -0.2252  0.0830  0.5138
 5816TIP3    H117412   6.400   0.308   2.133 -1.2239  2.5411  0.3722
 5816TIP3    H217413   6.502   0.369   2.226 -0.1663  1.0534  0.2207
 5817TIP3   OH217414   4.733   0.303   0.237 -0.0222  0.2313  0.0023
 5817TIP3    H117415   4.776   0.389   0.230 -0.0642  0.2709  0.2138
 5817TIP3    H217416   4.642   0.319   0.214  0.2631 -0.0299 -1.3766
 5818TIP3   OH217417   6.906   2.576   4.581 -0.2795  0.3574 -0.1135
 5818TIP3    H117418   6.913   2.614   4.493 -0.3292  1.1491  0.2177
 5818TIP3    H217419   6.816   2.545   4.587 -1.0126  2.4971  0.5172
 5819TIP3   OH217420   5.907   2.633   4.016 -0.1567 -0.4919 -0.2694
 5819TIP3    H117421   5.949   2.626   3.930  0.2404  2.0075 -0.3544
 5819TIP3    H217422   5.914   2.726   4.038  1.8968 -1.3658  3.5591
 5820TIP3   OH217423   2.915   4.933   4.441  0.1796 -0.3150 -0.3988
 5820TIP3    H117424   2.898   4.853   4.491 -0.2670 -0.6067 -1.0116
 5820TIP3    H217425   2.831   4.955   4.402  0.5634 -0.1792 -1.1615
 5821TIP3   OH217426   4.936   3.516   2.997 -0.8806 -0.1050  0.0167
 5821TIP3    H117427   4.882   3.567   2.936  1.9289  1.9200 -1.0242
 5821TIP3    H217428   4.917   3.554   3.083 -0.5228  1.2109 -0.4509
 5822TIP3   OH217429   4.586   1.969   3.813  0.3343  0.3407  0.6517
 5822TIP3    H117430   4.610   2.061   3.799 -0.0723  0.1178 -2.1251
 5822TIP3    H217431   4.521   1.971   3.884  0.3331  2.1831  0.6387
 5823TIP3   OH217432   6.851   4.291   3.991 -0.3218 -0.2387  0.0551
 5823TIP3    H117433   6.931   4.264   4.037 -0.7406 -2.0930 -0.2470
 5823TIP3    H217434   6.809   4.209   3.964 -0.5522  0.7127 -2.8689
 5824TIP3   OH217435   2.198   0.556   4.731 -0.5779 -0.2910 -0.0423
 5824TIP3    H117436   2.141   0.509   4.670 -3.1952  0.7668  1.4498
 5824TIP3    H217437   2.140   0.588   4.800  1.6661  1.8309  1.0422
 5825TIP3   OH217438   2.654   4.717   4.327 -1.0505 -0.1266  0.8598
 5825TIP3    H117439   2.730   4.675   4.288  0.0447  0.3664  2.3593
 5825TIP3    H217440   2.617   4.771   4.257 -0.6078 -1.1281 -0.1641
 5826TIP3   OH217441   4.064   0.129   4.300 -0.1194  0.2246 -0.5886
 5826TIP3    H117442   4.154   0.137   4.331  0.1030 -2.7885 -0.1073
 5826TIP3    H217443   4.072   0.091   4.212 -0.9116 -0.3978 -0.4042
 5827TIP3   OH217444   7.072   0.034   1.783  0.1549  0.1639  0.4259
 5827TIP3    H117445   7.082   0.030   1.878  4.6151  0.8709  0.1949
 5827TIP3    H217446   7.118  -0.042   1.750 -3.1873 -1.3386 -1.3192
 5828TIP3   OH217447   2.886   1.031   3.072 -0.6955 -0.0101 -0.4808
 5828TIP3    H117448   2.869   0.950   3.024 -0.1385 -0.4101 -0.0144
 5828TIP3    H217449   2.956   1.074   3.023  1.5054 -1.5235  1.1908
 5829TIP3   OH217450   1.341   4.277   4.581  0.1474  0.3641 -0.1552
 5829TIP3    H117451   1.377   4.232   4.504  1.4355  1.0615  0.0046
 5829TIP3    H217452   1.252   4.299   4.557 -0.1434 -1.2599 -0.6602
 5830TIP3   OH217453   6.230   5.368   1.851 -0.0303  0.1092 -0.4780
 5830TIP3    H117454   6.220   5.386   1.944 -1.4736  0.0780 -0.6088
 5830TIP3    H217455   6.152   5.319   1.826  0.0241  0.6436 -1.8348
 5831TIP3   OH217456   7.075   4.784   0.275 -0.0688  0.1074  0.0682
 5831TIP3    H117457   7.159   4.765   0.234 -0.4088 -0.3163 -0.4387
 5831TIP3    H217458   7.053   4.872   0.245 -0.1016 -0.0252 -0.2987
 5832TIP3   OH217459   6.212   6.748   5.236  0.5948  0.0992 -0.0673
 5832TIP3    H117460   6.175   6.683   5.295  0.7738 -0.7455 -0.8714
 5832TIP3    H217461   6.293   6.709   5.204  0.9018  0.8764 -0.2713
 5833TIP3   OH217462   3.189   5.826   0.556  0.0715 -0.6427  0.4339
 5833TIP3    H117463   3.116   5.828   0.494  0.5265 -1.0014 -0.1332
 5833TIP3    H217464   3.149   5.837   0.642 -0.4433  1.2380 -0.0065
 5834TIP3   OH217465   4.484   5.912   3.143 -0.6125  0.0352  0.0093
 5834TIP3    H117466   4.514   5.959   3.065 -0.8069 -0.7031 -0.5225
 5834TIP3    H217467   4.520   5.824   3.133 -1.5755 -0.3915  0.1906
 5835TIP3   OH217468   3.208   3.318   1.185 -0.5461 -0.0886 -0.5861
 5835TIP3    H117469   3.179   3.313   1.276  1.1746  0.2039  0.0131
 5835TIP3    H217470   3.276   3.250   1.178 -0.2641  0.2763 -1.4863
 5836TIP3   OH217471   5.704   3.317   3.956 -0.4334 -0.1090 -0.2738
 5836TIP3    H117472   5.657   3.245   3.912 -0.4751 -1.5744  1.9833
 5836TIP3    H217473   5.634   3.375   3.987 -0.5817 -0.5828  0.2943
 5837TIP3   OH217474   1.060   5.429   2.292  0.3058  0.4968 -0.0875
 5837TIP3    H117475   0.968   5.454   2.299 -0.4848 -2.0610 -0.2897
 5837TIP3    H217476   1.081   5.388   2.376  1.1408  0.6090 -0.2241
 5838TIP3   OH217477   4.767   1.165   3.725 -0.1638 -0.0317 -0.2138
 5838TIP3    H117478   4.773   1.246   3.776 -1.0061 -1.8328  3.0906
 5838TIP3    H217479   4.675   1.160   3.699 -0.2472 -0.1432  0.0864
 5839TIP3   OH217480   5.428   6.344   0.063  0.1809 -0.1276 -0.7719
 5839TIP3    H117481   5.472   6.400   0.127 -0.9389  1.4917 -1.3587
 5839TIP3    H217482   5.378   6.281   0.116 -1.7336  1.9683  0.0737
 5840TIP3   OH217483   6.933   6.426   3.737 -0.5586 -0.6319 -0.1143
 5840TIP3    H117484   6.970   6.347   3.778 -0.7502 -0.5712  0.1828
 5840TIP3    H217485   6.842   6.427   3.767 -0.7640 -0.7017 -0.7232
 5841TIP3   OH217486   6.143   0.333   1.052 -0.3528  0.0848 -0.2541
 5841TIP3    H117487   6.225   0.299   1.015 -0.2274  0.1482 -0.0373
 5841TIP3    H217488   6.154   0.428   1.050 -0.6246  0.1128 -0.6806
 5842TIP3   OH217489   4.506   4.552   2.805 -0.4825 -0.1172  0.0186
 5842TIP3    H117490   4.553   4.615   2.750 -0.6968  0.4403  0.4730
 5842TIP3    H217491   4.461   4.605   2.870  0.1356 -0.8031  1.0304
 5843TIP3   OH217492   3.445   2.240   4.577  0.0575  0.1926  1.0239
 5843TIP3    H117493   3.370   2.181   4.587 -0.2202  0.3026 -0.2195
 5843TIP3    H217494   3.415   2.307   4.516  1.6050 -0.5833 -0.6798
 5844TIP3   OH217495   4.420   3.687   4.609 -0.0310  0.2473 -0.0310
 5844TIP3    H117496   4.439   3.706   4.701 -1.8020  1.1927  0.1852
 5844TIP3    H217497   4.331   3.652   4.609  0.7650 -1.9776 -1.1793
 5845TIP3   OH217498   2.854   2.431   3.431  0.3700 -0.6952  0.4388
 5845TIP3    H117499   2.832   2.517   3.467 -2.4085 -0.7891 -0.7627
 5845TIP3    H217500   2.904   2.387   3.500  1.3596  1.6387  1.2942
 5846TIP3   OH217501   1.533   6.158   2.306  0.5866 -0.0209  0.1845
 5846TIP3    H117502   1.566   6.214   2.377  0.2494  2.5937 -1.5678
 5846TIP3    H217503   1.605   6.154   2.243 -0.0209 -0.0642 -0.5257
 5847TIP3   OH217504   5.090   4.532   0.906 -0.3688  0.0399  0.5965
 5847TIP3    H117505   5.168   4.583   0.924 -1.0754  1.1108  0.6868
 5847TIP3    H217506   5.108   4.446   0.945  0.8664  0.1698  0.3521
 5848TIP3   OH217507   4.383   0.393   2.485  0.8613 -0.1482  0.3220
 5848TIP3    H117508   4.297   0.414   2.521  1.3852  0.7602  1.0876
 5848TIP3    H217509   4.378   0.423   2.394 -0.2251 -1.8068 -0.2242
 5849TIP3   OH217510   0.825   0.839   5.217  0.3535  0.4237  0.1552
 5849TIP3    H117511   0.752   0.783   5.190  0.0978  0.5417  0.5832
 5849TIP3    H217512   0.792   0.928   5.202  1.2132  0.4757 -1.7165
 5850TIP3   OH217513   6.297   1.849   1.129 -0.1960  0.4422 -0.2359
 5850TIP3    H117514   6.367   1.803   1.177 -0.2879 -0.7378 -1.1715
 5850TIP3    H217515   6.263   1.912   1.191  0.7830  0.0850  0.7055
 5851TIP3   OH217516   1.344   0.493   3.926  0.0189  0.2482 -0.1905
 5851TIP3    H117517   1.407   0.481   3.997 -0.5225  1.7259  0.5949
 5851TIP3    H217518   1.396   0.485   3.846  0.8374 -0.4255  0.3926
 5852TIP3   OH217519   2.129   4.035   2.191  0.1039  0.2720  0.1216
 5852TIP3    H117520   2.135   4.130   2.187 -3.1274  0.5857  0.4261
 5852TIP3    H217521   2.053   4.013   2.138  0.8728 -2.1840 -0.0921
 5853TIP3   OH217522   1.145   1.327   4.045 -0.1180  0.1686 -0.2334
 5853TIP3    H117523   1.099   1.402   4.009  0.2316 -0.1844 -1.4635
 5853TIP3    H217524   1.213   1.364   4.101 -2.1787  0.7009  2.0854
 5854TIP3   OH217525   6.157   1.441   4.829 -0.3755  0.3002  0.6834
 5854TIP3    H117526   6.151   1.535   4.812 -1.9553 -0.0769 -1.1571
 5854TIP3    H217527   6.149   1.434   4.925 -0.2005  2.0213  0.8575
 5855TIP3   OH217528   4.119   2.517   5.756  0.2668 -0.4972 -0.2985
 5855TIP3    H117529   4.210   2.505   5.784  0.3770  2.0936  0.6805
 5855TIP3    H217530   4.119   2.492   5.663  1.9412 -0.6514 -0.2893
 5856TIP3   OH217531   3.841   2.905   3.115 -0.3899  0.2897  0.0711
 5856TIP3    H117532   3.757   2.860   3.108 -0.0661 -0.4791  0.9556
 5856TIP3    H217533   3.864   2.928   3.025 -1.4973  0.4291 -0.1894
 5857TIP3   OH217534   3.546   6.057   0.348  0.7841 -0.2003  0.1499
 5857TIP3    H117535   3.523   6.091   0.261  2.3236 -1.5991 -0.8637
 5857TIP3    H217536   3.613   5.991   0.331  0.3370 -1.3027  2.3314
 5858TIP3   OH217537   0.973   1.843   3.069 -0.4595  0.0001 -0.0753
 5858TIP3    H117538   1.009   1.819   3.154 -3.5093  2.9083  2.2700
 5858TIP3    H217539   0.889   1.798   3.064 -0.4478  0.0798 -1.4615
 5859TIP3   OH217540   5.406   5.287   5.797  0.1259  0.1106 -0.2148
 5859TIP3    H117541   5.364   5.201   5.796  1.1959 -0.4334 -0.9975
 5859TIP3    H217542   5.439   5.298   5.707 -1.6599  2.1947 -0.7010
 5860TIP3   OH217543   5.427   4.194   3.010 -0.0195 -0.3523  0.6490
 5860TIP3    H117544   5.340   4.224   2.982  0.3708  1.3398  1.1468
 5860TIP3    H217545   5.488   4.258   2.973  1.1317 -2.0101 -0.4484
 5861TIP3   OH217546   2.866   4.413   4.553  0.3154  0.1278 -0.2059
 5861TIP3    H117547   2.917   4.401   4.633 -1.4471  2.0417  1.3444
 5861TIP3    H217548   2.777   4.387   4.578 -0.1485  0.0884 -1.7821
 5862TIP3   OH217549   6.185   0.120   5.661  0.2909 -0.1467 -0.7962
 5862TIP3    H117550   6.260   0.164   5.702  0.1804 -1.3816  0.8532
 5862TIP3    H217551   6.152   0.062   5.729 -2.3167  0.5105 -1.4076
 5863TIP3   OH217552   2.697   5.769   4.742 -0.4162  0.0226 -0.1984
 5863TIP3    H117553   2.757   5.842   4.752  1.3362 -1.2197 -1.1101
 5863TIP3    H217554   2.615   5.809   4.714  0.4485  1.6292 -0.5366
 5864TIP3   OH217555   2.448   6.019   2.134  0.2429 -0.4577 -0.0033
 5864TIP3    H117556   2.538   6.047   2.122  0.2473 -0.3823  0.2125
 5864TIP3    H217557   2.454   5.924   2.145  0.2395 -0.5322 -0.5967
 5865TIP3   OH217558   0.662   1.006   1.502  0.3204 -1.1061 -0.3911
 5865TIP3    H117559   0.699   0.922   1.526  0.0494 -1.0178  0.3754
 5865TIP3    H217560   0.624   1.040   1.584 -0.4994 -0.7234 -0.9084
 5866TIP3   OH217561   2.207   6.145   2.830 -0.4878  0.9476  0.2115
 5866TIP3    H117562   2.246   6.141   2.918  0.4316  0.9239 -0.1920
 5866TIP3    H217563   2.200   6.238   2.811 -0.9270  0.9578  0.4084
 5867TIP3   OH217564   3.468   6.197   4.504  0.2115  0.0254 -0.4986
 5867TIP3    H117565   3.391   6.169   4.455  0.8626  0.8971 -2.1237
 5867TIP3    H217566   3.488   6.124   4.562 -1.0619 -0.7546 -0.9997
 5868TIP3   OH217567   0.912   5.944   3.675  0.0175 -0.8097 -0.0435
 5868TIP3    H117568   0.870   6.022   3.711  1.6494 -0.2746  0.8324
 5868TIP3    H217569   0.956   5.976   3.595 -1.3851 -1.4120 -1.0917
 5869TIP3   OH217570   1.053   4.158   2.028  0.5694  0.0593 -0.1857
 5869TIP3    H117571   1.041   4.090   2.095  1.1122 -0.3566 -0.4978
 5869TIP3    H217572   0.973   4.156   1.976 -0.3458  1.1584  1.1178
 5870TIP3   OH217573   2.716   2.119   5.498 -0.3187 -0.1115 -0.4618
 5870TIP3    H117574   2.775   2.148   5.428  0.1881 -0.8216 -0.3329
 5870TIP3    H217575   2.763   2.049   5.542 -1.0121 -0.2786  0.0302
 5871TIP3   OH217576   2.798   3.673   4.786 -0.1204 -0.3514 -0.2601
 5871TIP3    H117577   2.831   3.587   4.811 -1.6817 -0.7714  0.4743
 5871TIP3    H217578   2.707   3.674   4.815 -1.1241  0.3573 -3.0866
 5872TIP3   OH217579   7.171   0.891   2.309  0.0736 -0.4962  0.7071
 5872TIP3    H117580   7.265   0.910   2.310  0.0505 -0.3550  2.0453
 5872TIP3    H217581   7.166   0.795   2.309  0.2183 -0.5036  0.8648
 5873TIP3   OH217582   4.712   1.557   1.345 -0.1020 -0.3219 -0.2067
 5873TIP3    H117583   4.658   1.480   1.326  1.7460 -1.6393 -0.4789
 5873TIP3    H217584   4.776   1.525   1.409  0.9094  0.9065 -0.5820
 5874TIP3   OH217585   6.983   3.993   5.354 -0.2420 -0.2525  0.2486
 5874TIP3    H117586   7.066   3.962   5.389  0.6210  1.5970 -0.0204
 5874TIP3    H217587   7.001   4.083   5.326 -2.9253  1.1122  2.3984
 5875TIP3   OH217588   6.234   6.608   3.850 -0.3704 -0.2252 -0.0810
 5875TIP3    H117589   6.310   6.609   3.909  1.6895 -0.7376 -2.5109
 5875TIP3    H217590   6.203   6.698   3.848 -0.0652 -0.0792  1.2455
 5876TIP3   OH217591   2.264   1.786   3.827 -0.0548  0.0477 -0.1340
 5876TIP3    H117592   2.189   1.793   3.885 -0.3056 -0.0995 -0.4395
 5876TIP3    H217593   2.249   1.852   3.760  0.5937  0.7173  0.3629
 5877TIP3   OH217594   7.002   0.554   0.644  0.3619 -0.2045  0.1758
 5877TIP3    H117595   7.078   0.576   0.698  0.3807 -1.4179  0.6863
 5877TIP3    H217596   7.039   0.509   0.568  0.2513  0.5203 -0.3179
 5878TIP3   OH217597   2.030   4.549   5.248 -0.4392  0.2007  0.0086
 5878TIP3    H117598   2.104   4.609   5.256 -0.7276  0.4475  0.9643
 5878TIP3    H217599   1.955   4.607   5.234 -0.5634 -0.0044 -0.1701
 5879TIP3   OH217600   4.572   4.277   1.329  0.0316 -0.2043 -0.4948
 5879TIP3    H117601   4.498   4.217   1.314  0.5144 -0.7722 -0.6309
 5879TIP3    H217602   4.539   4.362   1.300 -1.0086 -0.1901  0.6269
 5880TIP3   OH217603   0.672   1.272   1.287 -0.0531 -0.6033  0.3903
 5880TIP3    H117604   0.692   1.201   1.225  1.4196 -0.1261  0.2840
 5880TIP3    H217605   0.757   1.312   1.306 -0.7121  0.3800  1.3744
 5881TIP3   OH217606   7.196   6.324   3.540  0.4415  0.1601 -0.0472
 5881TIP3    H117607   7.119   6.269   3.527  0.3077  0.2721  0.2610
 5881TIP3    H217608   7.227   6.302   3.628 -0.2834  1.3774  0.5475
 5882TIP3   OH217609   3.923   0.786   4.234 -0.3042 -0.1124 -0.0144
 5882TIP3    H117610   3.882   0.704   4.263  0.8737 -0.4088  0.8800
 5882TIP3    H217611   3.959   0.824   4.314  1.4029  0.0020 -0.8060
 5883TIP3   OH217612   0.217   0.192   0.731 -0.1133  0.4235  0.0176
 5883TIP3    H117613   0.155   0.260   0.703  1.8178  2.3131  0.0203
 5883TIP3    H217614   0.163   0.126   0.774 -2.2397  1.3748 -1.0488
 5884TIP3   OH217615   2.304   5.567   3.785  0.0362 -0.4151 -0.6834
 5884TIP3    H117616   2.372   5.525   3.732  0.4735  0.2910 -0.6820
 5884TIP3    H217617   2.299   5.656   3.752 -0.4810 -0.2941 -0.2890
 5885TIP3   OH217618   4.544   1.025   2.813 -0.3224 -0.0760 -0.3741
 5885TIP3    H117619   4.612   0.959   2.831  0.4044  0.6595 -0.3715
 5885TIP3    H217620   4.543   1.031   2.717 -0.4336 -0.1336 -0.3764
 5886TIP3   OH217621   3.415   5.646   0.705 -0.3534  0.1579  0.6921
 5886TIP3    H117622   3.395   5.740   0.703 -1.0363  0.0101  0.6091
 5886TIP3    H217623   3.408   5.619   0.613  1.4929  0.3554  0.4384
 5887TIP3   OH217624   6.305   3.542   3.370  0.1997 -0.2406  0.1744
 5887TIP3    H117625   6.331   3.451   3.355 -0.3381 -0.1700 -1.4296
 5887TIP3    H217626   6.388   3.588   3.385  0.5368 -0.8797  0.3319
 5888TIP3   OH217627   3.778   5.084   2.401  0.2321  0.3083  0.2334
 5888TIP3    H117628   3.832   5.159   2.375  0.5753 -0.1469 -0.3909
 5888TIP3    H217629   3.711   5.122   2.459 -1.1805  1.5497 -2.0571
 5889TIP3   OH217630   3.765   4.280   2.183 -0.5232  0.0732  0.5669
 5889TIP3    H117631   3.848   4.301   2.226 -0.2324  0.1488 -0.0093
 5889TIP3    H217632   3.725   4.213   2.238  0.2043 -0.4069  0.5257
 5890TIP3   OH217633   3.644   3.661   1.220  0.0819 -0.1544  0.4619
 5890TIP3    H117634   3.566   3.629   1.266 -1.0270  2.1406  0.3086
 5890TIP3    H217635   3.714   3.603   1.249 -1.1145 -0.5019  2.9063
 5891TIP3   OH217636   4.713   2.185   3.994  0.4239 -0.0506  0.0231
 5891TIP3    H117637   4.709   2.096   4.030 -1.3734 -0.6740 -1.5354
 5891TIP3    H217638   4.796   2.221   4.027 -0.1860 -1.1862  3.1630
 5892TIP3   OH217639   4.519   6.183   5.851  0.6395 -0.4459  0.4174
 5892TIP3    H117640   4.547   6.274   5.852 -1.9023  0.4558 -0.6219
 5892TIP3    H217641   4.441   6.181   5.907  1.2985 -2.2572  1.3482
 5893TIP3   OH217642   5.327   5.316   0.609  0.2714  0.1532  0.2053
 5893TIP3    H117643   5.369   5.265   0.539  0.8077  0.0312  0.6126
 5893TIP3    H217644   5.364   5.282   0.690 -1.2765 -0.5750  0.6538
 5894TIP3   OH217645   6.679   1.769   0.640  0.4223 -0.4926 -0.1264
 5894TIP3    H117646   6.637   1.751   0.556  1.4419  1.4535 -1.1034
 5894TIP3    H217647   6.752   1.707   0.644 -0.1232 -1.1614 -0.2472
 5895TIP3   OH217648   7.035   1.775   1.472 -0.0536 -0.1442  0.0625
 5895TIP3    H117649   7.124   1.811   1.475 -0.1021  0.1036 -1.1413
 5895TIP3    H217650   6.981   1.842   1.514  0.4957 -0.9529  2.2259
 5896TIP3   OH217651   2.380   5.010   1.169  0.1849  0.7149  0.2293
 5896TIP3    H117652   2.444   4.983   1.235  1.4643 -1.2274 -1.6396
 5896TIP3    H217653   2.425   5.078   1.118  0.0032  0.7449  0.1059
 5897TIP3   OH217654   4.695   0.518   4.685 -0.4376 -0.2018  0.3997
 5897TIP3    H117655   4.632   0.525   4.614  0.8017 -2.3563 -1.0119
 5897TIP3    H217656   4.710   0.609   4.713 -1.2598  0.6682 -1.7968
 5898TIP3   OH217657   6.505   6.393   5.850 -0.1503 -0.3263  0.3081
 5898TIP3    H117658   6.586   6.373   5.897 -0.6236 -1.0195  0.8493
 5898TIP3    H217659   6.439   6.338   5.892 -0.8555  0.0535 -0.2855
 5899TIP3   OH217660   4.930   4.467   5.690  0.1235 -0.3089 -0.8138
 5899TIP3    H117661   4.995   4.398   5.681 -0.6554 -1.5436  1.9717
 5899TIP3    H217662   4.953   4.511   5.772 -0.4270  1.6555 -1.6556
 5900TIP3   OH217663   0.059   4.291   3.729 -0.0070 -0.0130 -0.5499
 5900TIP3    H117664   0.030   4.212   3.775 -1.4084  1.6616  1.6453
 5900TIP3    H217665   0.151   4.302   3.755  0.5747 -1.5074 -1.8353
 5901TIP3   OH217666   1.934   1.191   5.440  0.2395 -0.4079  0.0128
 5901TIP3    H117667   1.896   1.165   5.357  1.2579 -0.9607 -0.2995
 5901TIP3    H217668   2.011   1.135   5.449  0.1106 -0.3979  1.3563
 5902TIP3   OH217669   1.031   1.990   5.131  0.2463  0.0689 -0.0833
 5902TIP3    H117670   0.948   2.038   5.129  0.2285  0.0084 -1.2795
 5902TIP3    H217671   1.010   1.909   5.179  0.0555  0.8141  1.1321
 5903TIP3   OH217672   5.845   4.814   2.943  0.3887 -0.2213  0.0215
 5903TIP3    H117673   5.906   4.769   2.884  2.9928  2.5539  0.3056
 5903TIP3    H217674   5.860   4.773   3.028 -0.9448 -2.0088 -0.5455
 5904TIP3   OH217675   5.958   0.725   4.653  0.2368 -0.5198  0.0834
 5904TIP3    H117676   5.988   0.635   4.662  1.3539 -0.2857 -0.9852
 5904TIP3    H217677   5.862   0.720   4.657  0.1997 -1.9818 -1.6817
 5905TIP3   OH217678   6.045   5.838   3.217 -0.4273  0.5676 -0.3692
 5905TIP3    H117679   5.995   5.825   3.298 -1.0206 -0.2240 -0.8456
 5905TIP3    H217680   6.136   5.820   3.241 -0.6156  0.2292  0.0953
 5906TIP3   OH217681   4.612   2.647   1.513  0.1660 -0.2619 -0.1280
 5906TIP3    H117682   4.675   2.587   1.473  0.1194 -0.6408  0.3628
 5906TIP3    H217683   4.570   2.690   1.438  0.7314 -0.2886 -0.4627
 5907TIP3   OH217684   1.329   6.321   1.804  0.2117  0.3169  0.0778
 5907TIP3    H117685   1.393   6.370   1.856 -0.0888  0.4134  0.3594
 5907TIP3    H217686   1.293   6.257   1.866 -1.0774  1.2750  0.3375
 5908TIP3   OH217687   3.426   5.797   1.747 -0.0924  0.3100 -0.7214
 5908TIP3    H117688   3.466   5.863   1.803 -0.9122  0.9112 -0.8198
 5908TIP3    H217689   3.423   5.838   1.660  0.5309 -0.3415 -1.0526
 5909TIP3   OH217690   3.605   0.143   4.545 -0.6024 -0.1227 -0.0401
 5909TIP3    H117691   3.673   0.136   4.478  0.0948 -1.7508  0.7805
 5909TIP3    H217692   3.524   0.153   4.496  0.0053 -0.2883 -1.1100
 5910TIP3   OH217693   1.049   0.997   2.180 -0.1041 -0.0957  0.1278
 5910TIP3    H117694   0.985   0.960   2.120 -0.2735  0.4758 -0.0524
 5910TIP3    H217695   1.011   1.081   2.207 -0.5620 -0.8148  1.8955
 5911TIP3   OH217696   6.813   0.994   2.354  0.2338 -0.0143 -0.5521
 5911TIP3    H117697   6.820   1.081   2.393  1.1241  0.0937 -0.9321
 5911TIP3    H217698   6.877   0.994   2.282  0.0324 -0.8768 -0.7470
 5912TIP3   OH217699   0.727   4.887   4.363 -0.5454 -0.4221 -0.1746
 5912TIP3    H117700   0.772   4.967   4.336  0.2639 -0.5491  0.7511
 5912TIP3    H217701   0.782   4.850   4.432 -2.4760 -0.1376  1.6468
 5913TIP3   OH217702   3.469   4.909   1.643 -0.6409  0.5665  0.1114
 5913TIP3    H117703   3.511   4.923   1.728  0.1242 -0.8749 -0.0001
 5913TIP3    H217704   3.505   4.978   1.587  0.3978  0.3194  0.4469
 5914TIP3   OH217705   0.646   6.170   2.140  0.3237 -0.2288 -0.4821
 5914TIP3    H117706   0.686   6.257   2.131 -1.8931  0.8758 -0.2503
 5914TIP3    H217707   0.553   6.184   2.124  0.0388 -2.7908 -1.6076
 5915TIP3   OH217708   4.090   2.869   1.555 -0.4513  0.2084  0.1578
 5915TIP3    H117709   4.022   2.816   1.597 -1.7629  0.3098 -1.7269
 5915TIP3    H217710   4.042   2.939   1.511  1.0746  1.6210  0.6276
 5916TIP3   OH217711   5.026   1.900   1.739 -0.0778 -0.2889  0.0831
 5916TIP3    H117712   4.931   1.908   1.744 -0.0816  0.5462 -1.0396
 5916TIP3    H217713   5.043   1.851   1.659  0.4298 -0.9322  0.5686
 5917TIP3   OH217714   2.084   0.523   0.431  1.2517  0.0133  0.4823
 5917TIP3    H117715   2.068   0.491   0.342 -0.0202  1.3376  0.1885
 5917TIP3    H217716   2.090   0.444   0.484 -0.2795 -0.7815 -0.4382
 5918TIP3   OH217717   4.185   5.597   0.131  0.2569  0.3933 -0.1068
 5918TIP3    H117718   4.122   5.525   0.135  0.4199  0.2904  0.9430
 5918TIP3    H217719   4.253   5.566   0.071  0.7445 -0.6912  0.9631
 5919TIP3   OH217720   3.820   3.644   3.728  0.8787  0.0328 -0.2419
 5919TIP3    H117721   3.725   3.641   3.717  0.8198 -0.4425  0.3628
 5919TIP3    H217722   3.853   3.660   3.639  0.2149  0.8014 -0.3579
 5920TIP3   OH217723   4.267   5.124   5.341 -0.0019  0.2791 -0.6338
 5920TIP3    H117724   4.346   5.079   5.310 -0.4724 -0.1938 -1.1801
 5920TIP3    H217725   4.212   5.130   5.263 -0.3875  0.8568 -0.3164
 5921TIP3   OH217726   3.843   1.052   1.261 -0.3787 -0.0407  0.5301
 5921TIP3    H117727   3.894   0.971   1.260 -1.4911 -0.7663  0.5080
 5921TIP3    H217728   3.892   1.112   1.206  0.9920 -0.3654  1.3523
 5922TIP3   OH217729   1.009   1.549   3.143 -0.6032  0.2651 -0.3738
 5922TIP3    H117730   1.029   1.593   3.226 -0.2377  0.5404 -0.6063
 5922TIP3    H217731   1.095   1.530   3.105 -0.7681 -0.0630 -0.5828
 5923TIP3   OH217732   4.598   2.777   0.054  0.5120 -0.0667  0.1016
 5923TIP3    H117733   4.658   2.720   0.102 -0.9789 -1.1879  0.7057
 5923TIP3    H217734   4.582   2.851   0.114 -1.0927 -1.3027  1.2926
 5924TIP3   OH217735   5.480   4.937   2.692 -0.7277 -0.6049  0.3403
 5924TIP3    H117736   5.542   4.865   2.690  0.2608  0.2379 -0.3536
 5924TIP3    H217737   5.512   4.998   2.626 -1.1331  0.7925  1.3843
 5925TIP3   OH217738   0.525   2.798   4.533  0.4521 -0.4332  0.8877
 5925TIP3    H117739   0.562   2.885   4.515  0.6621 -0.4679  1.1458
 5925TIP3    H217740   0.472   2.811   4.612  1.0441 -0.6885  1.3352
 5926TIP3   OH217741   2.345   4.331   1.662  0.2843  0.2139 -0.0456
 5926TIP3    H117742   2.428   4.339   1.614  1.4112  0.8719  1.8966
 5926TIP3    H217743   2.311   4.420   1.665  1.0362  0.4788  1.6719
 5927TIP3   OH217744   3.100   5.270   4.315 -0.2376 -0.2906  0.2003
 5927TIP3    H117745   3.087   5.311   4.401 -0.5932  2.5143 -1.1079
 5927TIP3    H217746   3.013   5.271   4.275  0.3523  0.7607 -1.1347
 5928TIP3   OH217747   3.703   1.814   4.583  0.1282  0.0118  0.0755
 5928TIP3    H117748   3.690   1.901   4.546  1.8532  0.2876  0.0498
 5928TIP3    H217749   3.746   1.829   4.667 -2.7103 -0.6749  1.7900
 5929TIP3   OH217750   5.565   1.622   4.118  0.9984 -0.0120  0.0615
 5929TIP3    H117751   5.506   1.578   4.057  0.5298  2.0710 -1.1078
 5929TIP3    H217752   5.628   1.667   4.062  2.4633 -0.4915  1.2378
 5930TIP3   OH217753   2.824   2.739   1.272  0.0448  0.2528  0.1399
 5930TIP3    H117754   2.849   2.704   1.357  0.2084 -1.1428 -0.4592
 5930TIP3    H217755   2.905   2.737   1.221 -0.3268 -0.1488 -0.4477
 5931TIP3   OH217756   1.963   1.917   5.604 -0.2442  0.0901  0.1004
 5931TIP3    H117757   2.018   1.886   5.532  0.5483 -1.8334  1.4391
 5931TIP3    H217758   1.884   1.863   5.599 -0.7997  0.9143 -0.1440
 5932TIP3   OH217759   4.800   6.109   3.094 -0.6686 -0.3703 -0.3512
 5932TIP3    H117760   4.727   6.138   3.039  0.6283  2.0026 -0.9703
 5932TIP3    H217761   4.873   6.098   3.032 -0.3188 -2.0997  0.3328
 5933TIP3   OH217762   1.245   4.784   4.879  0.0646  0.1227  0.5768
 5933TIP3    H117763   1.290   4.757   4.798  1.4254 -0.4432  1.4885
 5933TIP3    H217764   1.180   4.715   4.894 -0.6162  0.5426 -0.3374
 5934TIP3   OH217765   7.124   6.219   1.932 -0.0354 -0.0249 -0.0744
 5934TIP3    H117766   7.191   6.287   1.937  1.8661 -1.6726 -1.1685
 5934TIP3    H217767   7.128   6.174   2.016 -0.5204  0.5120  0.2415
 5935TIP3   OH217768   6.638   5.740   4.813 -0.1064 -0.0334 -0.4365
 5935TIP3    H117769   6.640   5.746   4.718  1.6419  1.2484 -0.3697
 5935TIP3    H217770   6.649   5.647   4.832  0.7921 -0.1580 -1.4918
 5936TIP3   OH217771   1.903   6.334   0.832 -0.5663  0.0034  0.2523
 5936TIP3    H117772   1.946   6.311   0.750  0.5456  1.4231  0.3974
 5936TIP3    H217773   1.845   6.260   0.850  0.1813 -0.9608 -1.0976
 5937TIP3   OH217774   4.649   2.607   1.801 -0.5165  0.1382 -0.1609
 5937TIP3    H117775   4.707   2.638   1.732  0.9694 -0.0487  0.9589
 5937TIP3    H217776   4.634   2.514   1.780  1.0513 -0.2831  0.4863
 5938TIP3   OH217777   4.001   3.541   2.273 -0.1208  0.2227 -0.0865
 5938TIP3    H117778   3.991   3.590   2.192 -0.6170 -0.9704 -0.7663
 5938TIP3    H217779   3.976   3.452   2.251 -1.3032  0.0712  1.6357
 5939TIP3   OH217780   4.128   4.966   0.334 -0.2685 -0.1688 -0.1893
 5939TIP3    H117781   4.113   5.059   0.351  0.9156  0.3287 -1.6175
 5939TIP3    H217782   4.109   4.955   0.241 -3.1809 -2.0104  0.5113
 5940TIP3   OH217783   1.552   3.454   4.326 -0.2248 -0.1748  0.4394
 5940TIP3    H117784   1.571   3.546   4.341 -0.5809 -0.0569  0.1954
 5940TIP3    H217785   1.614   3.427   4.258 -0.5023  0.0451  0.0888
 5941TIP3   OH217786   6.636   3.779   1.548  0.1547  0.1216  0.0539
 5941TIP3    H117787   6.610   3.834   1.475 -0.8907  0.2842  0.5278
 5941TIP3    H217788   6.582   3.809   1.621  0.1533 -0.9726  0.5243
 5942TIP3   OH217789   2.253   5.108   2.459  0.2345 -0.3266  0.4109
 5942TIP3    H117790   2.174   5.064   2.428  0.4174 -0.7252  0.5113
 5942TIP3    H217791   2.302   5.040   2.504  0.6053 -0.0601  0.4085
 5943TIP3   OH217792   6.300   2.992   3.172 -0.0677 -0.2707  0.0249
 5943TIP3    H117793   6.385   3.036   3.173 -0.5551  0.7038 -0.3333
 5943TIP3    H217794   6.272   2.997   3.081 -0.6562 -0.2868  0.2032
 5944TIP3   OH217795   1.043   3.355   0.166 -0.2899 -0.2943 -0.0069
 5944TIP3    H117796   0.948   3.356   0.155 -0.3288  1.2340  0.3366
 5944TIP3    H217797   1.069   3.447   0.161  1.1034 -0.6419  0.4997
 5945TIP3   OH217798   3.110   5.682   1.367 -0.3021 -0.4338  0.5192
 5945TIP3    H117799   3.153   5.665   1.450 -1.0884 -0.0388  1.0159
 5945TIP3    H217800   3.025   5.719   1.391  0.1796  1.4426 -0.4635
 5946TIP3   OH217801   4.879   6.028   2.160  0.1619 -0.2754 -0.5241
 5946TIP3    H117802   4.899   5.941   2.125  0.5240  0.6131 -2.6176
 5946TIP3    H217803   4.960   6.077   2.152 -0.4989  0.7671 -0.9939
 5947TIP3   OH217804   3.522   3.928   1.013 -0.1617 -0.2171 -0.2003
 5947TIP3    H117805   3.468   3.897   0.941 -0.2810 -1.8808  0.5544
 5947TIP3    H217806   3.564   3.849   1.047 -1.0655  0.2815  2.3274
 5948TIP3   OH217807   5.894   3.798   5.781  0.3537  0.4416  0.3187
 5948TIP3    H117808   5.876   3.888   5.808  2.7203 -0.1068  4.5046
 5948TIP3    H217809   5.830   3.745   5.830  0.6951 -0.3193 -0.0437
 5949TIP3   OH217810   5.697   6.632   4.398 -0.7026 -0.2148  0.3464
 5949TIP3    H117811   5.604   6.632   4.375 -0.5655 -0.2288 -0.2117
 5949TIP3    H217812   5.743   6.640   4.315 -0.1556 -2.2520  0.3930
 5950TIP3   OH217813   6.398   1.982   4.755  0.5490 -0.5373  0.3511
 5950TIP3    H117814   6.475   1.926   4.764 -0.5472 -1.8513  2.2798
 5950TIP3    H217815   6.363   1.963   4.668  2.9658  0.9450 -1.0440
 5951TIP3   OH217816   6.870   4.767   2.734 -0.4811 -0.1140  0.4309
 5951TIP3    H117817   6.888   4.779   2.640  0.2868  0.6754  0.6602
 5951TIP3    H217818   6.908   4.682   2.755  0.6865  0.3561  0.3215
 5952TIP3   OH217819   4.573   4.963   4.992 -0.1025  0.4194 -0.2726
 5952TIP3    H117820   4.482   4.982   4.973 -0.1510 -0.3286 -0.8368
 5952TIP3    H217821   4.613   4.949   4.906  0.5075  0.5993 -0.0243
 5953TIP3   OH217822   3.180   4.733   0.260 -0.6518  0.2112  0.3680
 5953TIP3    H117823   3.183   4.640   0.281 -1.0792  0.0329 -0.3275
 5953TIP3    H217824   3.135   4.773   0.335 -1.0881 -0.2399  0.3540
 5954TIP3   OH217825   6.162   1.894   5.747  0.2439  0.0091  0.3310
 5954TIP3    H117826   6.091   1.831   5.760 -1.5667  1.3565 -2.1894
 5954TIP3    H217827   6.118   1.975   5.721  2.6611  0.4052 -3.3144
 5955TIP3   OH217828   0.432   6.478   2.219  0.0184  0.5816 -0.4274
 5955TIP3    H117829   0.519   6.451   2.189  1.3610  1.0792  2.5862
 5955TIP3    H217830   0.418   6.563   2.178  0.2880 -0.1062 -2.0341
 5956TIP3   OH217831   4.591   4.249   4.764  0.0461  0.8456 -0.0229
 5956TIP3    H117832   4.603   4.293   4.848 -3.9005  0.7854  0.7691
 5956TIP3    H217833   4.559   4.162   4.786  0.0809  0.3880 -1.6125
 5957TIP3   OH217834   6.064   1.712   1.172 -0.6339  0.2218 -0.2106
 5957TIP3    H117835   6.143   1.763   1.155 -0.5640  0.1864 -0.0060
 5957TIP3    H217836   6.047   1.726   1.265 -1.0283  0.4499 -0.3176
 5958TIP3   OH217837   0.495   1.818   5.283  0.1359  0.2850 -0.0185
 5958TIP3    H117838   0.469   1.743   5.230 -1.6543  0.3937  0.6323
 5958TIP3    H217839   0.435   1.888   5.257  0.6532  0.9790  0.6082
 5959TIP3   OH217840   4.067   4.738   2.746  0.2757  0.8474 -0.4081
 5959TIP3    H117841   4.130   4.735   2.819 -0.3826  2.7835  0.3117
 5959TIP3    H217842   4.075   4.652   2.704  0.3636 -0.5324  2.2100
 5960TIP3   OH217843   3.975   5.480   3.473  0.2010  0.1327  0.1780
 5960TIP3    H117844   3.990   5.542   3.544  1.1379 -1.7177  1.6665
 5960TIP3    H217845   4.057   5.479   3.424 -0.3935  1.2918 -0.9236
 5961TIP3   OH217846   4.062   2.161   5.688 -0.7235  0.1768 -0.2256
 5961TIP3    H117847   4.001   2.194   5.754 -0.6125  0.3017 -0.1835
 5961TIP3    H217848   4.136   2.222   5.693  0.3836 -1.1935  1.2518
 5962TIP3   OH217849   2.801   6.743   1.283 -0.0309  0.6027  0.0136
 5962TIP3    H117850   2.747   6.666   1.265 -1.3921  1.6977 -0.7439
 5962TIP3    H217851   2.778   6.767   1.373 -0.0512  0.4929  0.0386
 5963TIP3   OH217852   4.526   4.424   3.565  0.0669 -1.1385  0.0141
 5963TIP3    H117853   4.455   4.488   3.566 -0.1549 -1.3826  0.0476
 5963TIP3    H217854   4.572   4.440   3.647  0.1466 -0.8741 -0.0807
 5964TIP3   OH217855   3.152   4.157   2.396 -0.3903  1.0619 -0.1056
 5964TIP3    H117856   3.138   4.156   2.301 -0.2154  0.0883 -0.1273
 5964TIP3    H217857   3.065   4.141   2.433  0.0581 -2.4603 -0.2018
 5965TIP3   OH217858   2.035   3.008   3.699 -0.5581  0.5765  0.6233
 5965TIP3    H117859   1.941   2.999   3.679 -0.4057  1.7621 -0.7502
 5965TIP3    H217860   2.079   2.952   3.635 -0.3173 -0.2051  1.4517
 5966TIP3   OH217861   0.306   6.636   5.873 -0.2171 -0.0868 -0.0366
 5966TIP3    H117862   0.355   6.630   5.790  1.9765  1.4198  1.0567
 5966TIP3    H217863   0.312   6.549   5.911 -1.1194 -0.7570 -1.3569
 5967TIP3   OH217864   4.666   1.038   5.873  0.2144 -0.1174 -0.1964
 5967TIP3    H117865   4.601   1.107   5.857 -0.6612 -0.4238  1.7375
 5967TIP3    H217866   4.736   1.083   5.921  1.0681  0.0177 -1.5062
 5968TIP3   OH217867   0.769   4.121   5.138  0.0628 -0.0790 -0.2322
 5968TIP3    H117868   0.864   4.134   5.136 -0.1173  1.2529 -1.1343
 5968TIP3    H217869   0.741   4.167   5.218 -0.0106  1.1196 -0.9215
 5969TIP3   OH217870   2.116   2.076   3.375  0.5573 -0.0553  0.4475
 5969TIP3    H117871   2.190   2.135   3.390  0.9658 -0.4487 -0.0138
 5969TIP3    H217872   2.092   2.089   3.283  0.1772 -0.0740  0.5403
 5970TIP3   OH217873   0.516   5.937   4.856 -0.3223 -0.4715 -0.0939
 5970TIP3    H117874   0.477   5.861   4.813  0.7539 -0.0005 -2.0189
 5970TIP3    H217875   0.609   5.934   4.831 -0.4917  2.1860 -1.4354
 5971TIP3   OH217876   1.598   6.004   0.684 -0.1438  0.3356 -0.9355
 5971TIP3    H117877   1.690   5.993   0.659  0.2158  2.3484 -0.6838
 5971TIP3    H217878   1.598   5.995   0.779 -0.6034 -1.7821 -1.0873
 5972TIP3   OH217879   6.056   2.792   5.412 -0.1731  0.6261  0.1114
 5972TIP3    H117880   6.003   2.845   5.353  0.1157  1.5828  0.6768
 5972TIP3    H217881   6.100   2.856   5.468  0.9300 -0.1810  0.1995
 5973TIP3   OH217882   3.910   1.119   4.578  0.2361  0.0402 -0.3542
 5973TIP3    H117883   3.927   1.155   4.491 -1.1895  1.1390 -0.2124
 5973TIP3    H217884   3.853   1.043   4.562  0.1892  0.0834 -0.3918
 5974TIP3   OH217885   3.051   0.653   2.235 -0.3094  0.7281 -0.0904
 5974TIP3    H117886   2.991   0.657   2.309 -1.3030  2.0298 -0.9217
 5974TIP3    H217887   3.067   0.559   2.221 -1.7994  0.3785  0.4206
 5975TIP3   OH217888   4.319   5.560   1.793  0.5792  0.7378  0.3228
 5975TIP3    H117889   4.268   5.535   1.716  0.1620 -1.6032  1.2747
 5975TIP3    H217890   4.374   5.484   1.810  0.0765  0.8481  2.7819
 5976TIP3   OH217891   3.192   2.834   5.785  0.7940 -0.4820  0.5188
 5976TIP3    H117892   3.133   2.879   5.845 -0.0446  1.4620 -1.5847
 5976TIP3    H217893   3.149   2.752   5.765 -0.0639 -0.1089  0.7850
 5977TIP3   OH217894   2.261   2.895   2.207 -0.2382 -0.1411 -0.4031
 5977TIP3    H117895   2.267   2.989   2.189  0.2941  0.0679  0.7605
 5977TIP3    H217896   2.255   2.890   2.302 -1.3736 -1.2498 -0.5082
 5978TIP3   OH217897   2.277   5.518   4.174 -0.2600 -0.1499 -0.6307
 5978TIP3    H117898   2.207   5.454   4.191 -0.5920 -0.0576 -1.5982
 5978TIP3    H217899   2.348   5.466   4.136 -0.2855 -0.0369 -0.8295
 5979TIP3   OH217900   5.032   3.778   0.013 -0.0675 -0.7107  0.3813
 5979TIP3    H117901   5.117   3.806   0.046  0.2382 -1.5890  0.3766
 5979TIP3    H217902   4.980   3.761   0.092 -0.0437 -0.7345  0.3922
 5980TIP3   OH217903   2.518   5.213   0.146 -0.0938 -0.5609  0.2178
 5980TIP3    H117904   2.595   5.162   0.171  1.1479  0.9627 -0.3385
 5980TIP3    H217905   2.543   5.258   0.065 -1.4598  0.2024  0.1745
 5981TIP3   OH217906   0.856   4.495   3.360  0.2185 -0.2951 -0.2139
 5981TIP3    H117907   0.932   4.495   3.417 -0.7540  1.3476  1.1714
 5981TIP3    H217908   0.823   4.585   3.363 -4.0141 -1.6362  2.4080
 5982TIP3   OH217909   0.940   6.346   0.102  0.1472 -0.1602 -0.0578
 5982TIP3    H117910   0.920   6.406   0.174 -1.7370 -1.3812  0.5301
 5982TIP3    H217911   0.855   6.310   0.077  1.1552 -2.3799 -0.5250
 5983TIP3   OH217912   4.657   5.366   1.716 -0.4594  0.4346 -0.0221
 5983TIP3    H117913   4.660   5.456   1.683  1.6138  0.8137  1.0273
 5983TIP3    H217914   4.745   5.351   1.751 -1.2513 -1.4437  1.3084
 5984TIP3   OH217915   4.803   2.804   1.223  0.1124 -0.6541  0.3580
 5984TIP3    H117916   4.841   2.728   1.179 -0.7279 -0.3478 -0.9300
 5984TIP3    H217917   4.710   2.783   1.232  0.0092 -0.0848  0.6565
 5985TIP3   OH217918   6.647   4.295   0.536  0.4395  0.2295  0.3229
 5985TIP3    H117919   6.551   4.289   0.545  0.2172  2.3108 -0.2152
 5985TIP3    H217920   6.670   4.375   0.583  1.8122  0.2584 -0.3780
 5986TIP3   OH217921   5.257   1.224   1.957 -0.1174  0.3692  0.2452
 5986TIP3    H117922   5.252   1.203   1.863  0.9952 -0.8432  0.4137
 5986TIP3    H217923   5.166   1.239   1.983 -0.5886 -0.4993 -0.7823
 5987TIP3   OH217924   2.170   0.249   2.792 -0.0235 -0.0625  0.3268
 5987TIP3    H117925   2.140   0.191   2.722 -0.1317  0.2949  0.0770
 5987TIP3    H217926   2.225   0.193   2.847  1.4780  0.0588 -0.9726
 5988TIP3   OH217927   1.064   4.524   5.513  0.3912 -0.4062  0.6238
 5988TIP3    H117928   1.121   4.464   5.465  0.6434 -0.8220  1.4266
 5988TIP3    H217929   1.109   4.540   5.596 -1.3348 -1.9386  1.9295
 5989TIP3   OH217930   4.137   0.704   1.318 -0.3220 -0.3684  0.3693
 5989TIP3    H117931   4.101   0.617   1.333 -0.0676 -0.0198  3.7371
 5989TIP3    H217932   4.148   0.741   1.406  3.2043  1.5925 -0.7025
 5990TIP3   OH217933   6.822   0.534   4.834  0.1608 -0.4285 -0.1827
 5990TIP3    H117934   6.742   0.574   4.799  0.0013  1.8879  2.4696
 5990TIP3    H217935   6.883   0.536   4.761 -0.8254  2.0344 -1.0723
 5991TIP3   OH217936   5.733   1.720   5.163 -0.0638 -0.5738 -0.2950
 5991TIP3    H117937   5.824   1.696   5.146 -0.2525 -1.1209 -0.5292
 5991TIP3    H217938   5.688   1.707   5.079 -0.1900  0.5129 -0.4121
 5992TIP3   OH217939   7.062   1.717   2.179  0.1372  0.0483  0.4268
 5992TIP3    H117940   7.032   1.629   2.198  3.3275 -0.9360  1.6087
 5992TIP3    H217941   7.043   1.767   2.259 -1.8192  0.5297 -0.3040
 5993TIP3   OH217942   0.405   5.417   3.174  0.0050 -0.3896  0.2001
 5993TIP3    H117943   0.328   5.446   3.222 -0.4743 -2.2710  0.6774
 5993TIP3    H217944   0.429   5.334   3.216  0.6438 -1.2145 -1.6982
 5994TIP3   OH217945   1.966   0.619   0.841  0.1600 -0.7454  0.1984
 5994TIP3    H117946   1.902   0.550   0.825 -0.3092  0.0718 -1.6127
 5994TIP3    H217947   1.941   0.656   0.926  0.4659 -2.8098  1.2434
 5995TIP3   OH217948   5.705   6.176   0.379 -0.1453 -0.4502 -0.0888
 5995TIP3    H117949   5.622   6.140   0.411  0.1418 -2.3038 -1.2353
 5995TIP3    H217950   5.698   6.270   0.395 -2.4050 -0.5599  0.0055
 5996TIP3   OH217951   6.402   4.311   2.276 -0.0320  0.0214  0.5739
 5996TIP3    H117952   6.476   4.370   2.290 -0.8508  0.6804  2.5880
 5996TIP3    H217953   6.439   4.223   2.287  0.7369  0.2630 -0.0235
 5997TIP3   OH217954   2.765   1.404   1.803  0.0236  0.0192  0.2165
 5997TIP3    H117955   2.712   1.325   1.792 -0.7427  0.6201 -0.5640
 5997TIP3    H217956   2.746   1.456   1.725  1.8662  0.2060 -0.1488
 5998TIP3   OH217957   4.577   3.411   4.201 -0.1387 -0.3113 -0.3337
 5998TIP3    H117958   4.573   3.434   4.293  2.1165 -1.0334  0.0077
 5998TIP3    H217959   4.560   3.317   4.199  2.1516 -0.7764 -0.3197
 5999TIP3   OH217960   1.670   2.672   1.028 -0.0681  0.1896 -0.5859
 5999TIP3    H117961   1.640   2.729   0.957  1.1775 -0.1484 -1.4199
 5999TIP3    H217962   1.642   2.717   1.108 -1.2984  0.6952 -1.2635
 6000TIP3   OH217963   2.294   1.921   2.016 -0.4118  0.0759  0.8688
 6000TIP3    H117964   2.230   1.854   2.042  0.3877 -0.4409  1.5506
 6000TIP3    H217965   2.375   1.873   2.002 -0.3841  0.5953 -0.9265
 6001TIP3   OH217966   5.621   2.394   0.437 -0.1174  0.2379  0.1710
 6001TIP3    H117967   5.539   2.413   0.483 -0.3222  0.4742 -0.2920
 6001TIP3    H217968   5.628   2.298   0.440 -0.4806  0.2080  0.0928
 6002TIP3   OH217969   1.171   2.223   5.020 -0.1266  0.0810  0.0645
 6002TIP3    H117970   1.182   2.130   5.042 -0.2795  0.0644  0.0725
 6002TIP3    H217971   1.260   2.255   5.008  0.0545  0.3925  1.9686
 6003TIP3   OH217972   6.415   5.263   5.398 -0.0902  0.1395  0.2041
 6003TIP3    H117973   6.356   5.195   5.430  0.3562 -0.0974  0.5436
 6003TIP3    H217974   6.409   5.258   5.303 -1.4733  0.8870  0.2242
 6004TIP3   OH217975   0.186   3.033   0.420  0.7426 -0.0278 -0.4858
 6004TIP3    H117976   0.224   3.031   0.332  0.3354 -0.3746 -0.6539
 6004TIP3    H217977   0.257   3.004   0.478  0.8293 -0.3812 -0.7661
 6005TIP3   OH217978   1.245   4.157   3.091 -0.2576 -0.0263  0.3170
 6005TIP3    H117979   1.318   4.149   3.152  0.0606 -0.9072 -0.1595
 6005TIP3    H217980   1.280   4.125   3.008 -1.2940 -0.8273  0.1642
 6006TIP3   OH217981   0.613   6.192   3.481  0.0132 -0.1402  0.3809
 6006TIP3    H117982   0.635   6.127   3.415  1.7942  0.2380  0.5488
 6006TIP3    H217983   0.544   6.244   3.441  1.1042  0.1338 -1.2589
 6007TIP3   OH217984   5.092   4.067   2.992 -0.1998 -0.4425 -0.4094
 6007TIP3    H117985   5.008   4.051   2.950 -0.3734 -1.5806  0.3110
 6007TIP3    H217986   5.090   4.158   3.019 -1.4809 -0.6422  0.2004
 6008TIP3   OH217987   0.406   5.247   4.951 -0.0527 -0.7526  0.0436
 6008TIP3    H117988   0.491   5.263   4.993 -0.4394 -0.7733  0.8331
 6008TIP3    H217989   0.421   5.169   4.897  0.4884 -0.6276 -0.0004
 6009TIP3   OH217990   5.511   0.628   1.664  0.1499  0.3910 -0.1285
 6009TIP3    H117991   5.550   0.586   1.741 -0.2142 -1.5129 -0.9215
 6009TIP3    H217992   5.494   0.556   1.603 -0.2943  1.7481 -1.6903
 6010TIP3   OH217993   4.349   5.996   0.027 -0.3818 -0.0055 -0.4904
 6010TIP3    H117994   4.383   5.941  -0.044 -0.0042 -0.3462 -0.0503
 6010TIP3    H217995   4.311   5.934   0.089  0.1460  0.2221  0.0624
 6011TIP3   OH217996   1.530   3.804   4.573 -0.1693 -0.0481 -0.1950
 6011TIP3    H117997   1.452   3.785   4.625 -0.5183 -0.5206 -0.8756
 6011TIP3    H217998   1.502   3.789   4.482  1.3110 -2.4516 -0.3300
 6012TIP3   OH217999   5.572   4.457   3.940 -0.0048 -0.0445  0.4246
 6012TIP3    H118000   5.584   4.365   3.965 -0.0178  0.2417  1.5601
 6012TIP3    H218001   5.581   4.458   3.845  0.8839 -1.0867  0.4782
 6013TIP3   OH218002   1.548   0.720   0.526 -0.4858 -0.4957  0.2362
 6013TIP3    H118003   1.548   0.641   0.471 -0.5021 -0.3092 -0.0311
 6013TIP3    H218004   1.640   0.742   0.537 -0.5152  0.0086 -0.4950
 6014TIP3   OH218005   0.592   0.853   3.802 -0.5963 -0.1680 -0.0821
 6014TIP3    H118006   0.572   0.845   3.895 -1.2839 -0.7488 -0.2744
 6014TIP3    H218007   0.507   0.856   3.759 -0.2822  0.2750 -0.6823
 6015TIP3   OH218008   0.301   2.286   1.808 -0.4262  0.0218 -1.0195
 6015TIP3    H118009   0.295   2.326   1.721 -1.1442 -0.7393 -1.3390
 6015TIP3    H218010   0.210   2.269   1.832 -0.1820 -0.5264 -0.4745
 6016TIP3   OH218011   6.801   0.115   2.122  0.7693 -0.2447  0.7291
 6016TIP3    H118012   6.849   0.085   2.045  1.2299  0.3736  0.7747
 6016TIP3    H218013   6.770   0.202   2.099 -0.4195 -0.6619  0.6674
 6017TIP3   OH218014   4.852   0.894   1.096  0.2296  0.1485 -0.1687
 6017TIP3    H118015   4.807   0.813   1.117  2.6592 -1.9583 -2.3565
 6017TIP3    H218016   4.923   0.901   1.160  0.4297  0.1768 -0.3900
 6018TIP3   OH218017   0.419   5.412   3.639  0.8046  0.4364 -0.2568
 6018TIP3    H118018   0.385   5.491   3.598 -0.0499 -0.4517 -1.3330
 6018TIP3    H218019   0.359   5.394   3.712 -0.1115 -0.2123 -1.1421
 6019TIP3   OH218020   7.169   6.436   4.561 -0.0417  0.5540  0.7051
 6019TIP3    H118021   7.075   6.441   4.546  0.0785  1.7067  0.2139
 6019TIP3    H218022   7.186   6.498   4.632  0.4680  1.1046  0.1141
 6020TIP3   OH218023   5.980   0.744   0.084  0.6301  0.0820 -0.0267
 6020TIP3    H118024   5.985   0.799   0.006  2.4818  2.1685  1.4260
 6020TIP3    H218025   6.012   0.659   0.055  0.3316  0.5152 -1.7509
 6021TIP3   OH218026   1.616   5.639   3.840  1.0489  0.2580 -0.0128
 6021TIP3    H118027   1.626   5.705   3.771 -0.0505  0.5351  0.0701
 6021TIP3    H218028   1.521   5.624   3.845  0.9840  0.9789  2.1039
 6022TIP3   OH218029   6.343   3.752   2.586 -0.8315  0.1958  0.1823
 6022TIP3    H118030   6.353   3.661   2.613  0.3932  0.2902  0.0987
 6022TIP3    H218031   6.276   3.787   2.645 -1.0355 -0.6510  0.4674
 6023TIP3   OH218032   5.294   2.105   3.483  0.1826 -0.3179 -0.1881
 6023TIP3    H118033   5.336   2.020   3.491 -0.0182 -0.2507  2.2596
 6023TIP3    H218034   5.328   2.141   3.401 -0.0819 -2.8939 -1.5409
 6024TIP3   OH218035   2.797   4.150   2.041  0.1703  0.0745 -0.4520
 6024TIP3    H118036   2.800   4.141   1.946 -0.1726 -1.5224 -0.3310
 6024TIP3    H218037   2.713   4.112   2.066  0.2064  0.5931  0.4945
 6025TIP3   OH218038   5.736   2.862   5.371 -0.4859  0.5056 -0.3626
 6025TIP3    H118039   5.658   2.847   5.318 -1.0433  0.9447  0.3106
 6025TIP3    H218040   5.724   2.950   5.407 -0.0690  0.2628  0.3976
 6026TIP3   OH218041   2.948   3.997   3.488  0.0330  0.0900  0.2225
 6026TIP3    H118042   2.974   3.972   3.577  0.5284  1.7785  0.6012
 6026TIP3    H218043   3.008   4.068   3.465 -1.2555  0.9191 -0.7329
 6027TIP3   OH218044   3.058   4.832   5.753 -0.3679  0.6107  0.1810
 6027TIP3    H118045   3.136   4.816   5.700 -0.9059  1.9936 -1.1102
 6027TIP3    H218046   3.084   4.901   5.814 -0.4226  0.6855  0.1203
 6028TIP3   OH218047   0.362   4.078   1.036 -0.0872  0.7234 -0.3352
 6028TIP3    H118048   0.291   4.041   1.087  1.1669 -1.0959  0.1818
 6028TIP3    H218049   0.434   4.015   1.045  1.1450  1.8133 -1.9427
 6029TIP3   OH218050   3.864   0.001   5.680 -0.2077  0.4841 -0.6095
 6029TIP3    H118051   3.808  -0.051   5.737 -0.8561  1.3497 -0.4271
 6029TIP3    H218052   3.843   0.092   5.702  1.9878  0.8618  0.1764
 6030TIP3   OH218053   2.353   0.025   3.274 -0.5769  0.3780  0.3789
 6030TIP3    H118054   2.294   0.042   3.347  0.1196  2.8139  0.4599
 6030TIP3    H218055   2.312  -0.047   3.226 -0.8194 -1.6006  3.3559
 6031TIP3   OH218056   4.047   1.450   2.636  0.3770  0.2632  0.1154
 6031TIP3    H118057   4.138   1.477   2.624  0.8967 -1.1852  0.6119
 6031TIP3    H218058   4.039   1.435   2.730 -0.5333  0.8793  0.1464
 6032TIP3   OH218059   6.546   2.716   5.249  0.1573 -0.1391  0.3185
 6032TIP3    H118060   6.563   2.718   5.155 -1.1172 -1.6656  0.0117
 6032TIP3    H218061   6.569   2.627   5.276 -1.6911 -0.4649  0.9654
 6033TIP3   OH218062   0.315   4.678   5.716 -0.0097  0.0307  0.1807
 6033TIP3    H118063   0.299   4.749   5.778 -0.3040 -0.0603  0.2130
 6033TIP3    H218064   0.262   4.702   5.639  1.1237  0.6508 -0.4345
 6034TIP3   OH218065   1.324   2.976   2.560  0.4500 -0.0781  0.3929
 6034TIP3    H118066   1.277   3.045   2.513 -2.2612 -0.9161  1.6609
 6034TIP3    H218067   1.404   3.018   2.590  0.8321  1.3227 -2.3057
 6035TIP3   OH218068   1.262   2.092   1.933 -0.6873 -0.2572 -0.6004
 6035TIP3    H118069   1.298   2.171   1.974  1.7284 -2.1795  1.3294
 6035TIP3    H218070   1.231   2.040   2.007  0.4384 -2.3065 -1.4985
 6036TIP3   OH218071   2.436   0.401   3.480 -0.5124 -0.1297 -0.0465
 6036TIP3    H118072   2.436   0.313   3.517 -2.6166  0.3149  1.1937
 6036TIP3    H218073   2.457   0.459   3.553  1.7599  0.4003 -1.0456
 6037TIP3   OH218074   3.525   2.413   5.701 -0.1436  0.6281  0.3954
 6037TIP3    H118075   3.598   2.455   5.655 -0.4234 -0.0200 -0.6507
 6037TIP3    H218076   3.535   2.320   5.682 -1.1396  0.5181  0.4082
 6038TIP3   OH218077   1.899   0.150   2.459  0.1565  0.1926  0.0309
 6038TIP3    H118078   1.872   0.082   2.398  2.1420  0.2006 -0.9293
 6038TIP3    H218079   1.903   0.230   2.406  0.0080  0.6112  0.6332
 6039TIP3   OH218080   1.597   3.135   0.860 -0.7059  0.4120 -0.0898
 6039TIP3    H118081   1.650   3.208   0.891 -0.1976  0.9215 -2.0116
 6039TIP3    H218082   1.530   3.176   0.805  0.0463 -0.5567 -1.8365
 6040TIP3   OH218083   2.910   2.850   0.935  0.0059  0.0874  0.4928
 6040TIP3    H118084   2.964   2.790   0.986 -1.2761  0.0008  1.8277
 6040TIP3    H218085   2.953   2.935   0.944  0.2581 -0.0918  1.0395
 6041TIP3   OH218086   6.407   3.571   4.119 -0.2226 -0.6502  0.3323
 6041TIP3    H118087   6.493   3.583   4.160 -0.2424 -0.6595  0.3768
 6041TIP3    H218088   6.368   3.658   4.121 -0.6113 -0.8333  1.1977
 6042TIP3   OH218089   0.739   4.518   2.977 -0.4318  0.0678 -0.0781
 6042TIP3    H118090   0.740   4.562   2.892  0.1574  0.1709 -0.0202
 6042TIP3    H218091   0.796   4.442   2.966  0.4608  0.6328  0.5107
 6043TIP3   OH218092   1.566   0.706   1.147  0.2500  0.0075 -0.0123
 6043TIP3    H118093   1.492   0.766   1.141  1.5291  1.6385 -0.1247
 6043TIP3    H218094   1.632   0.742   1.088  0.3372 -2.6832 -1.7083
 6044TIP3   OH218095   6.328   5.766   4.364 -0.5672 -0.0146 -0.2905
 6044TIP3    H118096   6.275   5.687   4.367  0.2045 -0.5305  0.6085
 6044TIP3    H218097   6.334   5.795   4.456 -1.7579  1.7514 -0.7027
 6045TIP3   OH218098   0.783   4.726   3.507  0.2467  0.0225 -0.3245
 6045TIP3    H118099   0.872   4.736   3.541  0.5919  1.5440 -1.5124
 6045TIP3    H218100   0.732   4.792   3.555  0.1356  0.2708 -0.7749
 6046TIP3   OH218101   6.469   4.636   5.272 -0.3163  0.3550  0.2200
 6046TIP3    H118102   6.451   4.719   5.316  1.1320  0.5870  0.3941
 6046TIP3    H218103   6.550   4.604   5.311 -0.3904 -0.7228 -0.4558
 6047TIP3   OH218104   4.403   1.640   4.833  0.3011  0.4245  0.0442
 6047TIP3    H118105   4.328   1.590   4.865  1.7216 -1.1982  1.0328
 6047TIP3    H218106   4.382   1.731   4.854 -1.1393 -0.0472  0.7784
 6048TIP3   OH218107   3.217   4.492   3.129 -0.2191 -0.2527 -0.0416
 6048TIP3    H118108   3.216   4.576   3.173  0.9501  0.4691 -1.3139
 6048TIP3    H218109   3.306   4.482   3.096 -0.7758 -1.1691 -1.4169
 6049TIP3   OH218110   4.451   6.113   3.311  0.2229  0.4074  0.1546
 6049TIP3    H118111   4.487   6.048   3.251 -0.7561 -0.9922  1.0220
 6049TIP3    H218112   4.445   6.193   3.259 -0.2206 -0.6417 -1.4857
 6050TIP3   OH218113   4.517   5.957   1.641  0.1231 -0.0870 -0.2148
 6050TIP3    H118114   4.602   5.968   1.683  0.1239  0.3877 -0.3328
 6050TIP3    H218115   4.537   5.932   1.550  0.1209 -1.2209  0.0746
 6051TIP3   OH218116   5.102   2.259   1.256  0.1922  0.5084  0.2731
 6051TIP3    H118117   5.085   2.221   1.343  0.8007  0.7663  0.5097
 6051TIP3    H218118   5.170   2.204   1.218 -1.1050 -0.4935 -0.6562
 6052TIP3   OH218119   0.013   6.446   0.820 -0.2796  0.2603 -0.3503
 6052TIP3    H118120   0.098   6.409   0.797 -0.7801  0.4924 -2.8067
 6052TIP3    H218121   0.033   6.525   0.869  0.9254  0.2925 -0.8690
 6053TIP3   OH218122   3.386   4.709   4.608  0.1791  0.0820 -0.3355
 6053TIP3    H118123   3.331   4.748   4.676  1.8431  0.7960  0.6335
 6053TIP3    H218124   3.339   4.728   4.527 -0.3166  1.9016  0.3265
 6054TIP3   OH218125   5.593   3.753   3.010 -0.0095  0.2514 -0.1976
 6054TIP3    H118126   5.523   3.796   2.961 -0.2740  0.4915  0.3696
 6054TIP3    H218127   5.670   3.763   2.956 -0.3830  0.1260 -0.7600
 6055TIP3   OH218128   0.564   1.757   1.208  0.0856  0.3531 -0.3930
 6055TIP3    H118129   0.602   1.844   1.193 -0.1032  0.4181 -0.4929
 6055TIP3    H218130   0.636   1.696   1.190 -0.7123  0.2675 -4.0329
 6056TIP3   OH218131   5.576   4.728   4.624  0.5262  0.4371 -0.4647
 6056TIP3    H118132   5.574   4.632   4.622 -0.4743  0.4541 -0.6709
 6056TIP3    H218133   5.492   4.755   4.588  0.4678  1.3825  0.3362
 6057TIP3   OH218134   6.636   1.766   2.585  0.2976  0.0180  0.5528
 6057TIP3    H118135   6.543   1.767   2.560  0.2889 -0.3854  0.5526
 6057TIP3    H218136   6.682   1.749   2.503  0.3023 -0.7842  0.7068
 6058TIP3   OH218137   2.165   5.158   4.886  0.1458  0.2668 -0.0910
 6058TIP3    H118138   2.139   5.129   4.799  0.4051  0.0933 -0.1095
 6058TIP3    H218139   2.240   5.103   4.909  0.1167  0.3537  0.2154
 6059TIP3   OH218140   5.201   3.325   2.406  0.5776  0.3214  0.0248
 6059TIP3    H118141   5.215   3.252   2.345  0.5578  0.5599 -0.2682
 6059TIP3    H218142   5.289   3.346   2.438  0.6783  0.6505 -0.4561
 6060TIP3   OH218143   2.555   0.678   3.374 -0.3928 -0.3052  0.1882
 6060TIP3    H118144   2.496   0.639   3.438  0.5783 -1.1297  0.6111
 6060TIP3    H218145   2.597   0.603   3.331 -0.0804  0.2529 -0.5042
 6061TIP3   OH218146   4.857   5.286   2.732  0.6814 -0.0639 -0.2479
 6061TIP3    H118147   4.930   5.284   2.670  0.0364 -0.7225 -1.0121
 6061TIP3    H218148   4.808   5.206   2.713 -2.8549  2.4447 -2.9500
 6062TIP3   OH218149   3.624   4.562   0.274 -0.2072  0.3420 -0.2910
 6062TIP3    H118150   3.626   4.474   0.312 -0.2976  0.7642  0.7191
 6062TIP3    H218151   3.657   4.550   0.185 -0.1020 -0.6949 -0.1267
 6063TIP3   OH218152   4.297   1.500   3.270  0.6003 -0.3324 -0.4217
 6063TIP3    H118153   4.337   1.566   3.213 -1.5128  1.7040  0.2917
 6063TIP3    H218154   4.251   1.441   3.210  0.1299  0.5513 -0.9500
 6064TIP3   OH218155   6.204   3.090   4.316 -0.1660 -0.0877  0.3352
 6064TIP3    H118156   6.198   3.160   4.251  1.9383  1.8188  2.0181
 6064TIP3    H218157   6.179   3.132   4.398  0.9549 -1.3502  1.3665
 6065TIP3   OH218158   5.682   0.111   5.200 -0.3361  0.0853 -0.2558
 6065TIP3    H118159   5.664   0.026   5.161 -0.8325  0.1115 -0.0902
 6065TIP3    H218160   5.771   0.133   5.170 -0.2760 -0.4028 -0.4460
 6066TIP3   OH218161   4.574   5.740   1.166  0.7372  0.1098  0.0306
 6066TIP3    H118162   4.551   5.649   1.186  0.8176 -0.0840 -0.7277
 6066TIP3    H218163   4.658   5.734   1.121  2.2405  0.7897  2.5725
 6067TIP3   OH218164   1.667   1.124   5.663 -0.0273 -0.5413  0.5540
 6067TIP3    H118165   1.618   1.177   5.727  2.0037 -0.2089  1.9420
 6067TIP3    H218166   1.638   1.157   5.578 -0.3783  1.3708  1.3498
 6068TIP3   OH218167   5.380   2.779   1.489 -0.0934 -0.4562  0.8284
 6068TIP3    H118168   5.473   2.801   1.484 -0.6236  1.7183 -0.9943
 6068TIP3    H218169   5.360   2.741   1.404 -1.3640  1.5851  0.1377
 6069TIP3   OH218170   2.990   1.555   1.413  0.6376 -0.1072 -0.0483
 6069TIP3    H118171   3.076   1.513   1.420  1.0953  0.9862  1.3022
 6069TIP3    H218172   3.002   1.622   1.345  0.4853 -0.7900 -0.7563
 6070TIP3   OH218173   3.409   3.922   0.450  0.2369 -0.1710  0.2337
 6070TIP3    H118174   3.496   3.941   0.415  0.3582 -0.3448  0.4372
 6070TIP3    H218175   3.418   3.838   0.495 -0.4680 -1.0965 -1.2521
 6071TIP3   OH218176   2.787   0.592   1.644  0.7160  0.4367  0.2721
 6071TIP3    H118177   2.752   0.503   1.650 -0.4498  0.9310  1.2649
 6071TIP3    H218178   2.881   0.581   1.656  1.0432 -0.9605 -2.6425
 6072TIP3   OH218179   1.268   4.079   1.855  0.0787  0.4312 -0.5022
 6072TIP3    H118180   1.229   4.021   1.789  0.5525  1.4864 -1.7482
 6072TIP3    H218181   1.193   4.116   1.902 -0.2538 -0.5261 -0.2563
 6073TIP3   OH218182   5.264   2.164   3.172  0.1210 -0.3706 -0.2403
 6073TIP3    H118183   5.287   2.123   3.088 -1.4371 -2.2814  0.1912
 6073TIP3    H218184   5.201   2.231   3.149  0.8674  0.1827 -0.7299
 6074TIP3   OH218185   1.281   3.939   1.019  0.6239 -0.2806 -0.5190
 6074TIP3    H118186   1.370   3.973   1.007  0.8610 -0.5893  0.3107
 6074TIP3    H218187   1.225   4.016   1.012  1.1165  0.2371  0.8474
 6075TIP3   OH218188   0.107   3.369   3.596 -0.5169 -0.3469  0.3131
 6075TIP3    H118189   0.115   3.333   3.684  1.4891 -4.7737 -1.4013
 6075TIP3    H218190   0.178   3.433   3.590 -1.2517  0.6924  2.1107
 6076TIP3   OH218191   4.601   3.538   4.454 -0.2165  0.4167  0.2006
 6076TIP3    H118192   4.508   3.560   4.463 -0.7855 -1.3960 -0.8074
 6076TIP3    H218193   4.635   3.602   4.391 -0.9755  0.5323 -0.0957
 6077TIP3   OH218194   2.519   0.014   3.061 -0.0244  0.2735  0.7103
 6077TIP3    H118195   2.479   0.080   3.118 -0.3739  1.0176 -0.3708
 6077TIP3    H218196   2.582   0.063   3.009 -0.9334 -0.0374 -0.7520
 6078TIP3   OH218197   3.534   6.763   0.970 -0.3864 -0.4055 -0.0063
 6078TIP3    H118198   3.571   6.838   0.923  0.4214 -1.1921 -0.6608
 6078TIP3    H218199   3.439   6.773   0.960 -0.3328  0.9127  0.5483
 6079TIP3   OH218200   2.029   6.740   5.407  0.2333 -0.1375  0.0355
 6079TIP3    H118201   2.105   6.795   5.426  0.7365 -0.0233 -2.1040
 6079TIP3    H218202   2.044   6.661   5.459  2.8488 -0.9488 -1.7663
 6080TIP3   OH218203   4.000   0.185   2.392  0.0225  0.1220  0.0584
 6080TIP3    H118204   4.079   0.131   2.387 -0.8898 -1.3858  1.2590
 6080TIP3    H218205   4.003   0.223   2.480 -0.5549  0.1077  0.0851
 6081TIP3   OH218206   3.904   6.112   1.668  0.1460 -0.0330 -0.1462
 6081TIP3    H118207   3.962   6.146   1.737  1.0884 -0.6180 -0.6318
 6081TIP3    H218208   3.955   6.041   1.627 -0.5286  0.1011 -1.2394
 6082TIP3   OH218209   0.211   3.977   4.512 -0.1232  0.0654 -0.7523
 6082TIP3    H118210   0.205   4.058   4.564 -0.0115  0.6103 -1.5702
 6082TIP3    H218211   0.230   3.909   4.576 -1.7726  0.4162  0.1719
 6083TIP3   OH218212   6.837   0.850   4.305  0.5411  0.7584 -0.3924
 6083TIP3    H118213   6.820   0.770   4.255  0.7085  1.0735 -0.9738
 6083TIP3    H218214   6.753   0.871   4.346  0.0708  1.1322 -1.5097
 6084TIP3   OH218215   1.438   1.078   3.293 -0.2309 -0.6814  0.1865
 6084TIP3    H118216   1.479   1.087   3.379 -0.3646 -2.2274  0.4423
 6084TIP3    H218217   1.380   1.002   3.302 -1.4166  0.0679 -0.8245
 6085TIP3   OH218218   3.734   0.236   1.728 -0.3594  0.0832 -0.1190
 6085TIP3    H118219   3.821   0.195   1.728 -1.0097 -1.3922 -0.3825
 6085TIP3    H218220   3.718   0.256   1.636 -0.4862 -0.0782 -0.1323
 6086TIP3   OH218221   4.971   1.305   5.194  0.2098 -0.4051  0.2446
 6086TIP3    H118222   5.054   1.277   5.156 -0.7671 -1.2707 -1.3748
 6086TIP3    H218223   4.904   1.260   5.141 -1.2786 -0.0316  1.7284
 6087TIP3   OH218224   4.280   4.069   5.110  0.2850  0.2715 -0.0170
 6087TIP3    H118225   4.272   4.136   5.179  2.2278  0.6060 -0.0448
 6087TIP3    H218226   4.191   4.038   5.096 -0.4234  1.5839  1.2772
 6088TIP3   OH218227   2.899   1.163   3.375 -0.1008 -0.0763 -0.6798
 6088TIP3    H118228   2.991   1.141   3.388 -0.7055 -2.1237  0.5255
 6088TIP3    H218229   2.879   1.130   3.287  0.1061 -0.4115 -0.6027
 6089TIP3   OH218230   0.264   0.787   5.244 -0.3465  0.5456 -0.5069
 6089TIP3    H118231   0.277   0.693   5.260 -1.4222  0.6108  1.0153
 6089TIP3    H218232   0.353   0.822   5.238  0.1453 -0.2383  1.3323
 6090TIP3   OH218233   4.875   1.408   4.813 -0.4321 -0.7937 -0.5036
 6090TIP3    H118234   4.914   1.326   4.844 -0.3649 -0.1002  1.3759
 6090TIP3    H218235   4.821   1.438   4.886  0.1588  1.2316 -0.8390
 6091TIP3   OH218236   4.173   2.043   2.817 -0.2125  0.4160  0.1090
 6091TIP3    H118237   4.269   2.046   2.821 -0.0944 -1.8259  0.5513
 6091TIP3    H218238   4.144   2.104   2.884  1.0087 -0.9222  1.9684
 6092TIP3   OH218239   7.052   1.263   4.447  0.3703 -0.0019 -0.6411
 6092TIP3    H118240   7.025   1.267   4.355  3.2459  0.5182 -1.5830
 6092TIP3    H218241   7.132   1.209   4.446  0.8613  0.5937  1.4409
 6093TIP3   OH218242   2.780   2.194   1.148  0.2554  0.2457  0.2938
 6093TIP3    H118243   2.777   2.101   1.173  0.9422 -0.2551 -1.2843
 6093TIP3    H218244   2.689   2.216   1.127  0.1844 -0.2993 -0.0072
 6094TIP3   OH218245   1.768   1.218   2.805 -0.3131 -0.7379 -0.2381
 6094TIP3    H118246   1.766   1.234   2.900 -0.9030 -0.1847 -0.3370
 6094TIP3    H218247   1.858   1.237   2.780 -0.4989  0.5008 -0.0135
 6095TIP3   OH218248   1.977   0.268   4.611  0.0286 -0.3270  0.4768
 6095TIP3    H118249   1.997   0.286   4.703 -2.1760  0.3061  0.8737
 6095TIP3    H218250   1.989   0.352   4.568 -2.5830  0.3673  0.9240
 6096TIP3   OH218251   1.311   0.274   3.542  1.0068  0.2484 -0.4877
 6096TIP3    H118252   1.274   0.344   3.597  0.4341  0.0922 -0.6593
 6096TIP3    H218253   1.405   0.284   3.550  0.9348  1.2084 -0.7163
 6097TIP3   OH218254   4.969   2.123   3.339  0.7362  1.2185 -0.1848
 6097TIP3    H118255   5.044   2.102   3.284 -0.4041 -1.4004 -0.9072
 6097TIP3    H218256   4.988   2.082   3.424  0.4360  1.1241 -0.1590
 6098TIP3   OH218257   4.942   5.143   3.863 -0.6810 -0.2908 -0.1374
 6098TIP3    H118258   4.914   5.223   3.819 -1.0622  0.0120  0.6387
 6098TIP3    H218259   4.872   5.124   3.926 -0.6091 -1.2511 -0.3307
 6099TIP3   OH218260   2.401   6.248   1.742  0.0727  0.7764  0.2572
 6099TIP3    H118261   2.367   6.201   1.818  1.3495  0.8440  0.8929
 6099TIP3    H218262   2.487   6.281   1.770  0.2103  1.4983 -0.9428
 6100TIP3   OH218263   1.554   2.106   1.303  0.1905  0.0016 -0.0176
 6100TIP3    H118264   1.528   2.018   1.275  2.1055 -0.2154 -1.2763
 6100TIP3    H218265   1.649   2.107   1.296  0.4477  1.3455  2.5839
 6101TIP3   OH218266   0.367   0.417   2.127  0.2720 -0.2352  0.8918
 6101TIP3    H118267   0.442   0.360   2.143 -0.6589 -1.6196  0.4349
 6101TIP3    H218268   0.406   0.503   2.109  1.8575 -1.2612 -0.9611
 6102TIP3   OH218269   1.437   1.967   3.341  0.6582  0.3630 -0.6181
 6102TIP3    H118270   1.355   1.925   3.365  1.0786 -0.6886 -0.9124
 6102TIP3    H218271   1.440   1.960   3.245  0.0121  2.5272 -0.8371
 6103TIP3   OH218272   4.820   4.978   1.942 -0.0444  0.5819  0.3826
 6103TIP3    H118273   4.834   4.917   2.015  0.9199 -0.2626 -0.4750
 6103TIP3    H218274   4.887   4.954   1.878  1.1199  3.2774  0.4679
 6104TIP3   OH218275   4.317   3.716   0.429  0.4466  0.1346  0.1940
 6104TIP3    H118276   4.402   3.686   0.397  0.8020  0.9675  0.3219
 6104TIP3    H218277   4.291   3.651   0.494  0.9395 -0.1818  0.0774
 6105TIP3   OH218278   3.006   2.074   3.607 -0.0028 -0.0594  0.2817
 6105TIP3    H118279   3.088   2.079   3.558 -0.7204 -0.3529 -0.9943
 6105TIP3    H218280   2.938   2.079   3.541 -1.0686  1.4433  1.4102
 6106TIP3   OH218281   5.197   2.847   4.149 -0.5713  0.1951 -0.3824
 6106TIP3    H118282   5.131   2.799   4.200  1.2530 -0.0303  1.9402
 6106TIP3    H218283   5.218   2.923   4.203  0.1938  0.9097 -1.6512
 6107TIP3   OH218284   0.745   0.408   0.991 -0.2712  0.1232  0.3073
 6107TIP3    H118285   0.835   0.411   1.024 -0.5634 -0.0324  1.1430
 6107TIP3    H218286   0.754   0.375   0.902  0.2693 -3.0428  1.3942
 6108TIP3   OH218287   4.760   6.671   2.307  0.2659  0.0642  0.2301
 6108TIP3    H118288   4.670   6.675   2.337  0.9275 -1.3816  2.7221
 6108TIP3    H218289   4.808   6.731   2.364  0.9503  0.6500 -0.9118
 6109TIP3   OH218290   0.910   1.608   4.892 -0.0958 -0.0787 -0.2738
 6109TIP3    H118291   0.978   1.675   4.896  0.2096 -0.3818 -0.4115
 6109TIP3    H218292   0.844   1.637   4.955 -0.2796  0.6986 -0.8158
 6110TIP3   OH218293   1.860   4.836   2.526  0.3101  0.2754  0.4115
 6110TIP3    H118294   1.867   4.746   2.494 -2.3130  0.0860  0.1420
 6110TIP3    H218295   1.876   4.829   2.620 -1.5996 -0.8481  0.7194
 6111TIP3   OH218296   3.260   5.986   2.898  0.0706 -0.0277  0.4923
 6111TIP3    H118297   3.181   5.942   2.866  0.4220  0.1860 -0.7162
 6111TIP3    H218298   3.238   6.079   2.892  0.5648  0.0485 -0.2979
 6112TIP3   OH218299   3.317   1.497   2.655 -0.0513  0.1118  0.3981
 6112TIP3    H118300   3.264   1.430   2.611 -2.4140  0.7653  2.0493
 6112TIP3    H218301   3.355   1.451   2.731 -0.2380  0.2132  0.5544
 6113TIP3   OH218302   4.895   6.747   2.656 -0.3697 -0.6184  0.1071
 6113TIP3    H118303   4.951   6.801   2.712 -0.5732  0.5386 -0.7705
 6113TIP3    H218304   4.825   6.806   2.628 -1.8840 -1.9516  0.9250
 6114TIP3   OH218305   7.215   0.671   1.300 -0.0449  0.1135 -0.2965
 6114TIP3    H118306   7.149   0.686   1.368 -1.0824 -0.6333 -1.1096
 6114TIP3    H218307   7.182   0.719   1.224  0.1737 -0.5328 -0.8108
 6115TIP3   OH218308   3.242   6.745   0.971 -0.3758  0.7939  0.6094
 6115TIP3    H118309   3.221   6.817   0.912  0.4247 -0.0200 -0.7071
 6115TIP3    H218310   3.157   6.712   1.001 -1.0871 -1.1361 -2.9982
 6116TIP3   OH218311   6.400   5.410   1.647 -0.7580 -0.6338  0.2160
 6116TIP3    H118312   6.340   5.396   1.720 -1.4561  1.0934  0.0196
 6116TIP3    H218313   6.464   5.338   1.654 -2.5367 -2.2535  0.7109
 6117TIP3   OH218314   1.485   6.438   3.030 -0.4651 -0.6970 -0.0696
 6117TIP3    H118315   1.478   6.353   3.075 -0.0327 -0.1230  1.1378
 6117TIP3    H218316   1.492   6.501   3.101  0.6166  0.2277 -0.9715
 6118TIP3   OH218317   3.222   1.493   2.056 -0.1032  0.5415 -0.2178
 6118TIP3    H118318   3.155   1.449   2.005  0.8674 -0.8925 -0.2987
 6118TIP3    H218319   3.279   1.534   1.991  1.0604 -1.1788 -0.3508
 6119TIP3   OH218320   4.613   5.264   0.890  0.8127  0.6350  0.4348
 6119TIP3    H118321   4.535   5.223   0.928  0.5946 -0.4757 -1.1080
 6119TIP3    H218322   4.578   5.327   0.827  0.9608 -2.3858 -2.9789
 6120TIP3   OH218323   1.940   0.121   0.813  0.1346 -0.0449  0.8165
 6120TIP3    H118324   2.036   0.123   0.807  0.0954  0.8577  0.3564
 6120TIP3    H218325   1.922   0.095   0.903  0.7858 -4.0361 -0.0338
 6121TIP3   OH218326   3.150   6.309   4.527  0.2419  0.3137  0.1232
 6121TIP3    H118327   3.115   6.388   4.569 -1.3377  0.0290 -0.5930
 6121TIP3    H218328   3.144   6.241   4.595  0.1489  0.4505  0.2531
 6122TIP3   OH218329   0.850   6.788   2.418  0.0492  0.5579 -0.1835
 6122TIP3    H118330   0.875   6.696   2.429  0.0132  0.3106 -1.8541
 6122TIP3    H218331   0.925   6.829   2.375 -0.7250  0.7925 -1.3687
 6123TIP3   OH218332   0.137   2.625   1.048 -0.5108 -0.3033 -0.0269
 6123TIP3    H118333   0.070   2.686   1.017 -1.3899 -1.1199  0.2113
 6123TIP3    H218334   0.153   2.650   1.139 -0.4850 -0.0905 -0.0909
 6124TIP3   OH218335   0.902   5.480   3.179 -0.2590  0.2953 -0.2894
 6124TIP3    H118336   0.875   5.391   3.203 -0.2411  0.6669  1.1655
 6124TIP3    H218337   0.913   5.476   3.084  0.1627 -1.3837 -0.2101
 6125TIP3   OH218338   2.933   0.816   4.986 -0.0890 -0.3109  0.0284
 6125TIP3    H118339   2.945   0.770   4.903 -0.0381  0.3379 -0.3358
 6125TIP3    H218340   2.903   0.904   4.961 -0.6814 -0.3013  0.7226
 6126TIP3   OH218341   4.955   4.797   4.850  0.6741  0.6927  0.1173
 6126TIP3    H118342   4.986   4.872   4.901 -0.4225  0.9681  0.3875
 6126TIP3    H218343   4.876   4.828   4.806  0.9777  0.1179 -0.8786
 6127TIP3   OH218344   4.900   4.880   0.173 -0.2839 -0.1621 -0.1797
 6127TIP3    H118345   4.939   4.869   0.086  0.8240  0.2021  0.2540
 6127TIP3    H218346   4.833   4.947   0.160 -0.1409 -0.1180 -0.7493
 6128TIP3   OH218347   0.355   5.190   5.558 -0.2265 -0.0430  0.1336
 6128TIP3    H118348   0.318   5.130   5.622  1.1625  1.4030  2.4009
 6128TIP3    H218349   0.440   5.152   5.535  0.3152  0.6180  0.9872
 6129TIP3   OH218350   5.356   3.225   3.486 -0.1974  0.7834 -0.0567
 6129TIP3    H118351   5.279   3.238   3.431 -0.5859  1.9427  0.7319
 6129TIP3    H218352   5.346   3.287   3.558  0.7693 -0.0400  0.8317
 6130TIP3   OH218353   6.529   2.429   2.998  0.3406 -0.1761 -0.1846
 6130TIP3    H118354   6.585   2.431   3.076 -1.2912  4.5136  1.1657
 6130TIP3    H218355   6.578   2.477   2.932 -0.0476 -0.4899 -0.7059
 6131TIP3   OH218356   2.088   4.842   3.060  0.6005  0.3455  0.0808
 6131TIP3    H118357   2.178   4.854   3.028  0.6088  1.5545  0.5008
 6131TIP3    H218358   2.099   4.803   3.147  0.6682 -0.5661 -0.3288
 6132TIP3   OH218359   2.500   3.850   0.809  0.4775 -0.1082  0.1863
 6132TIP3    H118360   2.546   3.901   0.743  0.0331  0.9505  0.6680
 6132TIP3    H218361   2.480   3.767   0.766  0.7320  0.3353 -0.8073
 6133TIP3   OH218362   3.939   4.200   1.955 -0.2513  0.2210 -0.5084
 6133TIP3    H118363   3.916   4.167   1.868 -1.1367  1.5270 -0.8112
 6133TIP3    H218364   3.857   4.197   2.004  0.0289  0.3838 -0.0263
 6134TIP3   OH218365   5.195   2.986   0.497  0.0244 -0.2298  0.0022
 6134TIP3    H118366   5.250   3.057   0.464  0.5460 -0.5984  0.0766
 6134TIP3    H218367   5.252   2.909   0.496 -0.8521 -0.9013 -1.1629
 6135TIP3   OH218368   2.667   4.457   1.109  0.1926  0.5396  0.5776
 6135TIP3    H118369   2.648   4.412   1.027 -2.4150  1.4421  0.5866
 6135TIP3    H218370   2.658   4.389   1.176  0.5207  0.1807  0.2587
 6136TIP3   OH218371   7.020   3.022   1.914 -0.5341  0.4801 -0.2900
 6136TIP3    H118372   6.966   3.064   1.847 -0.1775  0.4735 -0.5866
 6136TIP3    H218373   7.061   2.948   1.869 -1.2332 -0.2622  0.2498
 6137TIP3   OH218374   3.095   4.785   4.041  0.7559 -0.6888 -0.4194
 6137TIP3    H118375   3.103   4.832   4.124 -1.3201 -2.7297  1.0816
 6137TIP3    H218376   3.020   4.825   3.998  2.4668  1.0745 -1.9125
 6138TIP3   OH218377   4.908   2.400   3.471 -0.4484 -0.1109  0.1190
 6138TIP3    H118378   4.981   2.363   3.520  0.5855 -0.4031 -1.5522
 6138TIP3    H218379   4.876   2.327   3.417 -0.9479  0.4197 -0.3183
 6139TIP3   OH218380   5.453   5.975   4.438 -0.0285 -0.0925  0.3240
 6139TIP3    H118381   5.473   6.046   4.377 -2.3925 -0.5851 -1.1457
 6139TIP3    H218382   5.539   5.935   4.457  0.9686  1.1087 -1.3726
 6140TIP3   OH218383   2.241   3.119   0.450 -0.4052  0.2066 -0.1842
 6140TIP3    H118384   2.154   3.085   0.471 -0.4065  1.4325  2.0830
 6140TIP3    H218385   2.282   3.049   0.398 -1.9014 -1.3854  0.6696
 6141TIP3   OH218386   6.875   5.061   2.653 -0.8174 -0.4813  0.2458
 6141TIP3    H118387   6.832   4.978   2.675 -1.5237  0.0433  0.8984
 6141TIP3    H218388   6.965   5.036   2.629 -0.7953 -1.3520  1.1796
 6142TIP3   OH218389   3.981   1.811   1.075 -0.2142 -0.4534  0.1422
 6142TIP3    H118390   3.949   1.780   1.159  1.1498 -1.8521  0.1954
 6142TIP3    H218391   4.076   1.813   1.084 -0.1434  2.0122 -0.5081
 6143TIP3   OH218392   3.863   2.378   2.647  0.3139  0.0199  0.1153
 6143TIP3    H118393   3.882   2.364   2.739  2.0164  1.0994 -0.0327
 6143TIP3    H218394   3.947   2.364   2.603 -0.0455  1.3042 -1.0467
 6144TIP3   OH218395   4.145   1.905   1.418  0.2098  0.2696  0.4802
 6144TIP3    H118396   4.051   1.908   1.403  0.2225  1.7119  0.5505
 6144TIP3    H218397   4.156   1.847   1.494 -0.5580 -0.2691  0.1969
 6145TIP3   OH218398   6.040   4.227   2.771  0.4530 -0.5897  0.6659
 6145TIP3    H118399   6.132   4.216   2.746 -0.0148 -2.1493 -0.5593
 6145TIP3    H218400   6.017   4.315   2.740  1.5883 -0.0476  1.2794
 6146TIP3   OH218401   2.328   3.450   2.677 -0.2025 -0.2007 -0.1561
 6146TIP3    H118402   2.330   3.484   2.767 -1.4363 -0.9989  0.2052
 6146TIP3    H218403   2.332   3.528   2.622  2.5005  0.2213  0.5126
 6147TIP3   OH218404   6.313   0.048   1.660 -0.4103 -0.2956 -0.8344
 6147TIP3    H118405   6.323  -0.044   1.684 -0.2556 -0.1626 -0.3886
 6147TIP3    H218406   6.219   0.066   1.667 -0.3262 -0.1653  0.0117
 6148TIP3   OH218407   6.871   4.501   2.528  0.4010 -0.3753 -0.2890
 6148TIP3    H118408   6.916   4.418   2.511  0.8121 -0.4327  1.0098
 6148TIP3    H218409   6.867   4.507   2.623  1.4702  1.6923 -0.3226
 6149TIP3   OH218410   4.441   4.732   0.881 -0.3686 -0.4623  0.2159
 6149TIP3    H118411   4.519   4.710   0.932  0.0858  0.6919  0.0450
 6149TIP3    H218412   4.413   4.648   0.844  2.7040 -0.5092 -2.4076
 6150TIP3   OH218413   4.018   5.046   4.893  0.7080  0.2114 -0.7248
 6150TIP3    H118414   3.934   5.032   4.849  0.4638  1.0854 -0.5559
 6150TIP3    H218415   3.997   5.040   4.986  0.4029  2.4292 -0.5901
 6151TIP3   OH218416   3.769   3.367   4.362 -0.2642  0.5710  0.7842
 6151TIP3    H118417   3.731   3.354   4.449 -1.4264  0.4318  0.2797
 6151TIP3    H218418   3.694   3.361   4.303  0.5150  0.6533 -0.2277
 6152TIP3   OH218419   3.902   1.539   2.136  0.4203  0.0354  0.5465
 6152TIP3    H118420   3.955   1.507   2.209  0.8342  0.9981  0.6913
 6152TIP3    H218421   3.889   1.632   2.155  1.1270  0.4693 -0.9353
 6153TIP3   OH218422   3.284   2.503   2.403 -0.0269  0.5300 -0.2691
 6153TIP3    H118423   3.256   2.455   2.326 -3.3698  0.1765  0.9954
 6153TIP3    H218424   3.352   2.448   2.443 -0.8028 -1.0535 -1.0652
 6154TIP3   OH218425   6.303   5.956   1.202 -0.2740 -0.4869  0.0360
 6154TIP3    H118426   6.381   5.990   1.245 -0.0854 -0.9108  0.0306
 6154TIP3    H218427   6.253   5.915   1.272 -0.7923  0.3113  0.1515
 6155TIP3   OH218428   3.275   1.706   2.854  0.2274 -0.2204  0.1725
 6155TIP3    H118429   3.247   1.786   2.811  0.0433 -0.4663 -0.1668
 6155TIP3    H218430   3.257   1.637   2.791 -1.5826 -0.7978  1.2683
 6156TIP3   OH218431   6.172   3.256   3.005  0.1241  0.1390 -0.7675
 6156TIP3    H118432   6.093   3.230   2.956 -0.0954  1.1184 -0.9478
 6156TIP3    H218433   6.140   3.277   3.092  0.1876  0.5229 -0.8360
 6157TIP3   OH218434   2.796   5.707   5.100  0.0828 -0.0881  0.5072
 6157TIP3    H118435   2.827   5.634   5.046 -1.3859 -1.4198  1.3703
 6157TIP3    H218436   2.727   5.668   5.154  1.1295  1.2915  2.9758
 6158TIP3   OH218437   0.205   0.252   2.944  0.2760  0.0850 -0.4890
 6158TIP3    H118438   0.211   0.174   2.889 -0.5074  1.1882 -2.2381
 6158TIP3    H218439   0.293   0.290   2.941  0.3104 -0.0133 -0.7426
 6159TIP3   OH218440   5.653   4.701   1.808  0.5847  0.7485  0.0007
 6159TIP3    H118441   5.738   4.657   1.817  0.6990  0.8039 -0.7226
 6159TIP3    H218442   5.595   4.654   1.868  0.7048 -0.3884 -0.7342
 6160TIP3   OH218443   2.234   2.622   2.174 -0.0699  0.1761 -0.2237
 6160TIP3    H118444   2.217   2.714   2.155 -0.3514  0.3299  0.7193
 6160TIP3    H218445   2.200   2.575   2.098 -0.9509  0.7785 -0.2248
 6161TIP3   OH218446   6.032   0.372   5.051 -0.0930  0.0115 -0.7787
 6161TIP3    H118447   6.095   0.431   5.093 -0.6664 -2.0753  3.6047
 6161TIP3    H218448   5.948   0.415   5.063 -0.3525 -0.9402  1.1882
 6162TIP3   OH218449   6.733   6.756   3.765  0.2003 -0.0338  0.1948
 6162TIP3    H118450   6.669   6.827   3.769  0.5137  0.3125 -0.6959
 6162TIP3    H218451   6.723   6.720   3.678  3.0158  1.7668 -1.0173
 6163TIP3   OH218452   2.018   5.880   1.758  0.0503  0.1292  0.1081
 6163TIP3    H118453   1.940   5.860   1.706 -0.0041  0.2390  0.1482
 6163TIP3    H218454   1.985   5.896   1.846  0.0130  1.1247 -0.0766
 6164TIP3   OH218455   2.474   5.084   0.405 -0.4060 -0.3033  0.2244
 6164TIP3    H118456   2.486   5.136   0.325  0.9473 -0.3238  0.3803
 6164TIP3    H218457   2.380   5.084   0.420 -0.4687  2.1314  0.2306
 6165TIP3   OH218458   2.130   2.540   4.557  0.3510 -0.4601 -0.1271
 6165TIP3    H118459   2.091   2.539   4.469  0.4818 -0.2367 -0.1880
 6165TIP3    H218460   2.186   2.462   4.559  0.4229 -0.4130 -0.2769
 6166TIP3   OH218461   2.235   3.833   1.273 -0.0386 -0.4252  0.0929
 6166TIP3    H118462   2.239   3.739   1.290  0.3463 -0.2266  1.1507
 6166TIP3    H218463   2.216   3.873   1.358  1.3878  0.5582  0.0007
 6167TIP3   OH218464   3.661   3.137   1.299 -0.2974  0.2583 -0.2024
 6167TIP3    H118465   3.698   3.049   1.302  0.4445  0.5290 -1.0652
 6167TIP3    H218466   3.699   3.176   1.221 -2.1180  0.6854 -0.9169
 6168TIP3   OH218467   4.950   1.901   4.867 -0.1046  0.3650  0.8703
 6168TIP3    H118468   5.041   1.911   4.895 -0.2481  1.7164  0.9479
 6168TIP3    H218469   4.950   1.824   4.810  1.5650  1.6750 -1.0097
 6169TIP3   OH218470   1.798   2.036   1.209  0.2541  0.0974 -0.2080
 6169TIP3    H118471   1.890   2.042   1.237  0.1410 -0.2863  0.2563
 6169TIP3    H218472   1.787   1.944   1.184  0.1359  0.2598 -0.7780
 6170TIP3   OH218473   3.858   6.607   0.644  0.1634  0.1479  0.4923
 6170TIP3    H118474   3.821   6.696   0.649  1.2468  0.7493 -1.3892
 6170TIP3    H218475   3.794   6.557   0.593  0.2266  0.2253  0.3371
 6171TIP3   OH218476   1.566   2.924   5.285 -0.4190  0.3056 -0.0412
 6171TIP3    H118477   1.645   2.870   5.278 -0.3902  0.1014  1.4283
 6171TIP3    H218478   1.585   3.002   5.232  0.3950 -0.1569 -0.4521
 6172TIP3   OH218479   2.765   4.128   3.104  0.0855 -0.4044 -0.5929
 6172TIP3    H118480   2.722   4.144   3.020  0.5594 -0.9716 -0.9472
 6172TIP3    H218481   2.858   4.144   3.087  0.0706  0.5154  0.0919
 6173TIP3   OH218482   2.589   0.885   0.271  0.3266  0.0341 -0.1972
 6173TIP3    H118483   2.632   0.799   0.261 -0.0625 -0.1988  0.1420
 6173TIP3    H218484   2.616   0.915   0.358  1.9353  1.0856 -0.9984
 6174TIP3   OH218485   1.307   6.012   5.520  0.2840 -0.5483  0.2353
 6174TIP3    H118486   1.333   6.053   5.602  0.5188 -0.2707  0.0216
 6174TIP3    H218487   1.356   6.059   5.452 -1.2942  0.5011 -0.2500
 6175TIP3   OH218488   1.868   3.847   2.960  0.0796  0.3953  0.3280
 6175TIP3    H118489   1.881   3.924   3.015 -0.8783  1.5911 -1.0555
 6175TIP3    H218490   1.874   3.880   2.870 -1.3170 -0.9535 -0.3129
 6176TIP3   OH218491   6.680   4.363   5.606 -0.0691  0.0670 -0.2272
 6176TIP3    H118492   6.636   4.392   5.685 -1.1488 -0.5467 -0.5816
 6176TIP3    H218493   6.647   4.420   5.537 -3.9289 -3.0649 -1.3681
 6177TIP3   OH218494   2.565   3.120   1.868 -0.6722 -0.1516 -0.4992
 6177TIP3    H118495   2.651   3.130   1.908 -0.5745 -1.8222 -0.2119
 6177TIP3    H218496   2.537   3.209   1.847  0.8222  0.4632  0.0270
 6178TIP3   OH218497   5.981   0.320   2.954 -0.6169  0.3086 -0.1033
 6178TIP3    H118498   6.031   0.372   2.890  0.0773  0.8135  0.8240
 6178TIP3    H218499   5.998   0.363   3.038  0.0980 -1.4877  0.7255
 6179TIP3   OH218500   5.705   2.305   3.491  0.0979  0.1310  0.4304
 6179TIP3    H118501   5.633   2.363   3.517 -0.5475 -0.3535 -0.2036
 6179TIP3    H218502   5.703   2.306   3.395  0.3674 -0.5664  0.4061
 6180TIP3   OH218503   5.338   3.106   2.554  0.1815 -0.5569 -0.2478
 6180TIP3    H118504   5.345   3.099   2.649 -0.3749 -0.7166 -0.2142
 6180TIP3    H218505   5.306   3.020   2.526 -2.5348  0.3756 -0.2787
 6181TIP3   OH218506   3.015   2.872   3.622  0.1229  0.3262 -0.1629
 6181TIP3    H118507   2.951   2.938   3.649  0.7277 -0.1124  2.6622
 6181TIP3    H218508   3.089   2.884   3.682  1.0799 -1.6445 -0.8607
 6182TIP3   OH218509   3.113   6.773   4.900  0.5516 -0.3925 -0.7221
 6182TIP3    H118510   3.115   6.869   4.900 -0.0547 -0.3567  0.7277
 6182TIP3    H218511   3.020   6.751   4.893  0.6213 -0.8609 -0.2290
 6183TIP3   OH218512   2.979   0.042   0.429  0.0149  0.6551 -0.6445
 6183TIP3    H118513   3.072   0.061   0.434  0.7490 -2.4143 -0.5500
 6183TIP3    H218514   2.957   0.001   0.512 -1.0528  0.0252 -1.2025
 6184TIP3   OH218515   7.182   6.285   5.302 -0.0727  0.5498  0.1717
 6184TIP3    H118516   7.244   6.300   5.231  0.7980  0.9417  0.9948
 6184TIP3    H218517   7.211   6.344   5.371 -1.0445  0.3363  0.7689
 6185TIP3   OH218518   4.720   4.957   2.366 -0.0433 -0.1156  0.1074
 6185TIP3    H118519   4.647   4.896   2.361  0.1280 -0.4156  0.9685
 6185TIP3    H218520   4.690   5.035   2.319 -0.5740 -0.5600 -0.3019
 6186TIP3   OH218521   6.201   5.417   4.371  0.0814  0.0365 -0.0286
 6186TIP3    H118522   6.160   5.439   4.454 -2.6301  0.7372 -1.4239
 6186TIP3    H218523   6.196   5.321   4.366  0.7422 -0.0536  0.7940
 6187TIP3   OH218524   6.170   3.217   3.724 -0.3970 -0.6906 -0.3533
 6187TIP3    H118525   6.119   3.273   3.783 -0.1446 -0.2108 -0.5819
 6187TIP3    H218526   6.229   3.169   3.782  0.4780  0.4365 -0.2726
 6188TIP3   OH218527   1.106   0.598   3.510  0.0525  0.2918 -0.4620
 6188TIP3    H118528   1.069   0.684   3.487 -1.3535  0.5167  2.1832
 6188TIP3    H218529   1.031   0.548   3.541  1.0319 -1.5537 -0.9661
 6189TIP3   OH218530   5.874   5.090   4.946 -0.0274 -0.4300 -0.2513
 6189TIP3    H118531   5.900   5.017   5.001  1.1754 -0.1869 -0.4720
 6189TIP3    H218532   5.903   5.168   4.993 -1.7005 -0.0404  0.2017
 6190TIP3   OH218533   0.997   1.334   3.496  0.1319  0.2102 -0.0761
 6190TIP3    H118534   1.084   1.347   3.458  0.4056 -0.6585  0.2381
 6190TIP3    H218535   0.945   1.407   3.462  0.8707  0.5024 -0.6005
 6191TIP3   OH218536   2.305   4.686   4.286  0.9454 -0.4391  0.1192
 6191TIP3    H118537   2.354   4.765   4.264  0.8493 -0.2521  0.5545
 6191TIP3    H218538   2.320   4.674   4.380 -0.6397  0.2085  0.4949
 6192TIP3   OH218539   4.843   3.353   2.302  0.2456 -0.4597  0.0276
 6192TIP3    H118540   4.824   3.447   2.295  2.5497  0.0749  0.0104
 6192TIP3    H218541   4.917   3.348   2.362 -1.0428 -2.4809  1.5635
 6193TIP3   OH218542   4.408   1.294   4.183 -0.4570  0.3215  0.1826
 6193TIP3    H118543   4.454   1.312   4.265  1.5140  0.8785 -0.9689
 6193TIP3    H218544   4.375   1.380   4.155  1.1885  0.6723 -0.8636
 6194TIP3   OH218545   2.061   6.524   3.432  0.6340 -0.7810  0.5388
 6194TIP3    H118546   2.079   6.562   3.346  0.4548 -0.8121  0.4883
 6194TIP3    H218547   2.142   6.537   3.481  0.3332  0.3191  0.7632
 6195TIP3   OH218548   3.101   0.263   1.556  0.2318 -0.3010 -0.1591
 6195TIP3    H118549   3.097   0.171   1.580  1.0004 -0.2376  0.2100
 6195TIP3    H218550   3.179   0.271   1.500  0.7835  0.3176  0.6744
 6196TIP3   OH218551   0.468   2.084   5.656  0.8999 -0.1021  0.1960
 6196TIP3    H118552   0.493   2.149   5.591 -0.1208 -2.3657 -2.6974
 6196TIP3    H218553   0.539   2.020   5.654 -0.1114 -1.2515 -0.3124
 6197TIP3   OH218554   0.007   2.581   2.033 -0.3470 -0.7574 -0.5626
 6197TIP3    H118555   0.094   2.546   2.016 -0.5071 -1.0391 -0.8229
 6197TIP3    H218556  -0.029   2.526   2.103  0.6417  0.9436  1.3766
 6198TIP3   OH218557   1.272   0.593   4.472  0.2243 -0.1527 -0.8472
 6198TIP3    H118558   1.197   0.647   4.498  1.7721  1.2910  0.8201
 6198TIP3    H218559   1.262   0.584   4.377 -0.0457  3.2616 -1.2664
 6199TIP3   OH218560   3.345   6.284   3.760 -0.2523 -0.0839  0.4824
 6199TIP3    H118561   3.258   6.304   3.796 -1.1651 -1.5827 -0.7289
 6199TIP3    H218562   3.331   6.284   3.665  0.8856 -1.1011  0.2977
 6200TIP3   OH218563   7.159   4.366   2.047 -0.0864 -0.2181 -0.6887
 6200TIP3    H118564   7.104   4.400   1.976 -0.9763 -1.8096 -0.8059
 6200TIP3    H218565   7.121   4.281   2.068 -1.3382  1.0917  3.3125
 6201TIP3   OH218566   6.959   3.511   3.997 -0.9236  0.2248  0.1883
 6201TIP3    H118567   6.969   3.418   4.020 -2.3128  0.2167  0.9410
 6201TIP3    H218568   7.040   3.552   4.027  0.7516 -1.0491 -2.2380
 6202TIP3   OH218569   4.637   3.951   2.531 -0.2924 -0.5850  0.3985
 6202TIP3    H118570   4.572   3.979   2.595 -1.0904 -0.2748 -0.5268
 6202TIP3    H218571   4.697   3.896   2.580 -0.5843  0.0755  1.5288
 6203TIP3   OH218572   0.025   2.292   1.856  0.1024 -0.7530  0.2126
 6203TIP3    H118573   0.051   2.373   1.812  0.6273  0.0513  1.8740
 6203TIP3    H218574  -0.063   2.274   1.824 -0.2963  0.8676  0.2875
 6204TIP3   OH218575   0.039   2.928   1.610  0.0018 -0.8095 -0.4628
 6204TIP3    H118576  -0.004   2.882   1.682 -0.1157 -2.6912 -1.6777
 6204TIP3    H218577   0.091   2.861   1.566  2.1767  0.8689 -0.5908
 6205TIP3   OH218578   2.465   1.655   2.523  0.0771 -0.0674 -0.3154
 6205TIP3    H118579   2.437   1.564   2.529  0.4682 -0.2418 -1.0470
 6205TIP3    H218580   2.488   1.667   2.431 -0.0550  0.7979 -0.2446
 6206TIP3   OH218581   0.198   4.599   1.066  0.1513 -0.3146  0.1757
 6206TIP3    H118582   0.131   4.613   0.999  0.9055  0.4964 -0.4354
 6206TIP3    H218583   0.167   4.647   1.142  0.4988  0.9289 -0.4341
 6207TIP3   OH218584   0.817   5.270   2.021  0.0637 -0.6451 -0.6153
 6207TIP3    H118585   0.794   5.248   1.931 -0.7017  0.1303 -0.6321
 6207TIP3    H218586   0.745   5.326   2.050  0.9870  0.2475  0.0129
 6208TIP3   OH218587   1.432   3.022   5.852 -0.1834 -0.0083  0.8311
 6208TIP3    H118588   1.406   3.102   5.898  1.5630 -0.0466  2.0085
 6208TIP3    H218589   1.484   2.974   5.917 -0.7077 -1.8254 -0.0518
 6209TIP3   OH218590   6.380   6.350   0.293 -0.3478 -0.5354  0.1452
 6209TIP3    H118591   6.452   6.396   0.249 -0.9569  0.1107 -0.1952
 6209TIP3    H218592   6.357   6.279   0.233  0.0834 -0.8167  0.3108
 6210TIP3   OH218593   6.034   5.294   3.565  0.0856 -0.3122  0.0425
 6210TIP3    H118594   6.014   5.266   3.654 -1.0606 -0.7487 -0.3437
 6210TIP3    H218595   5.954   5.279   3.515  0.3432  0.9997 -0.8199
 6211TIP3   OH218596   6.588   6.188   4.873 -0.1276 -0.2886  0.2700
 6211TIP3    H118597   6.620   6.125   4.937 -0.2905 -0.8364 -0.1845
 6211TIP3    H218598   6.618   6.154   4.788 -1.6436 -0.6594 -0.1465
 6212TIP3   OH218599   6.264   2.120   2.170 -0.0902 -0.1313  0.6776
 6212TIP3    H118600   6.356   2.095   2.176  0.1160  0.6684  0.9217
 6212TIP3    H218601   6.227   2.098   2.256  0.0460  0.2301  0.8287
 6213TIP3   OH218602   4.265   3.676   4.287  0.3415 -0.3059 -0.2616
 6213TIP3    H118603   4.232   3.621   4.217  0.1011 -1.4024  0.6832
 6213TIP3    H218604   4.215   3.758   4.278  0.4667 -0.3436 -1.4742
 6214TIP3   OH218605   5.236   4.610   3.510 -0.3700 -0.3076 -0.7552
 6214TIP3    H118606   5.160   4.581   3.460 -2.2583  3.2374 -0.3098
 6214TIP3    H218607   5.300   4.634   3.444 -0.2479 -1.7503 -1.1921
 6215TIP3   OH218608   6.363   0.986   5.329  0.3184 -0.1563 -0.2530
 6215TIP3    H118609   6.435   1.014   5.386  0.4954 -0.0186 -0.5356
 6215TIP3    H218610   6.408   0.941   5.256  0.0255 -1.5200  0.3743
 6216TIP3   OH218611   3.637   0.496   5.623 -0.2652  0.3320  0.0973
 6216TIP3    H118612   3.721   0.514   5.581 -1.1566  1.1669 -1.4096
 6216TIP3    H218613   3.619   0.575   5.675 -0.2283  0.2558  0.2254
 6217TIP3   OH218614   0.134   4.832   5.576  0.5700  0.1482  0.2015
 6217TIP3    H118615   0.050   4.807   5.616  0.1704  0.8768 -0.1615
 6217TIP3    H218616   0.114   4.912   5.527  2.0017  1.8331  2.1937
 6218TIP3   OH218617   1.885   3.797   2.243  0.4291  0.2153 -0.1589
 6218TIP3    H118618   1.814   3.845   2.286 -2.5093 -3.7723  0.0307
 6218TIP3    H218619   1.947   3.777   2.313 -1.5099 -1.4984  1.1595
 6219TIP3   OH218620   3.971   4.198   3.199 -0.2272  0.1114  0.1200
 6219TIP3    H118621   3.905   4.167   3.137  0.3066  0.5937 -0.7067
 6219TIP3    H218622   3.994   4.120   3.250  0.7753 -0.7997 -1.6264
 6220TIP3   OH218623   3.089   2.793   1.647  0.0550 -0.4854 -0.2130
 6220TIP3    H118624   3.139   2.744   1.713  0.4581  0.2978  0.0657
 6220TIP3    H218625   3.043   2.725   1.598  1.6302 -1.2517 -0.6830
 6221TIP3   OH218626   6.901   3.714   3.802 -0.4794  0.4903  0.0309
 6221TIP3    H118627   6.964   3.686   3.736 -1.2963 -1.9935  0.1995
 6221TIP3    H218628   6.882   3.636   3.853 -2.5859  1.4757  0.9204
 6222TIP3   OH218629   6.590   1.007   5.518 -0.0423 -0.6832 -0.1158
 6222TIP3    H118630   6.621   1.026   5.607  0.1788 -0.8998 -0.1465
 6222TIP3    H218631   6.663   0.962   5.476  0.7921  1.5801 -1.2118
 6223TIP3   OH218632   1.412   5.042   3.539  0.2813  0.1484  0.0979
 6223TIP3    H118633   1.468   4.980   3.585 -0.6952 -0.7784  0.0936
 6223TIP3    H218634   1.377   4.992   3.465  0.9922  1.3007 -1.0601
 6224TIP3   OH218635   3.300   1.611   1.139  0.3052 -0.4038  0.4439
 6224TIP3    H118636   3.223   1.635   1.087 -0.2056 -0.7036  1.0420
 6224TIP3    H218637   3.279   1.524   1.173  0.7141 -0.2892  0.9892
 6225TIP3   OH218638   4.341   6.215   0.856 -0.4678 -0.4400  0.1817
 6225TIP3    H118639   4.383   6.158   0.921 -0.6499 -0.5653  0.1899
 6225TIP3    H218640   4.323   6.296   0.904  0.6981  0.0029 -0.0949
 6226TIP3   OH218641   3.815   2.369   5.055  0.2201 -0.2274  0.9482
 6226TIP3    H118642   3.774   2.326   5.131 -0.9017 -1.2426 -0.1934
 6226TIP3    H218643   3.806   2.306   4.984 -0.2091  1.3589 -0.4563
 6227TIP3   OH218644   0.942   1.595   5.771  0.3493  0.4090 -0.3918
 6227TIP3    H118645   0.870   1.612   5.830  0.2871 -0.9419 -0.0404
 6227TIP3    H218646   1.009   1.553   5.826  0.1901 -1.1010 -1.2904
 6228TIP3   OH218647  -0.013   3.885   4.825  0.4252  0.2838  0.3585
 6228TIP3    H118648  -0.032   3.932   4.744  1.3407  0.0723  0.0012
 6228TIP3    H218649   0.068   3.836   4.806  0.0110 -0.6903  1.0234
 6229TIP3   OH218650   5.302   6.772   0.848 -0.4553 -0.0332 -0.0243
 6229TIP3    H118651   5.376   6.827   0.872 -0.8292  0.1106  0.8243
 6229TIP3    H218652   5.334   6.682   0.858 -0.2287  0.0237 -0.2205
 6230TIP3   OH218653   1.303   0.138   5.903  0.1343  0.0730 -0.4961
 6230TIP3    H118654   1.228   0.084   5.876  0.8879 -2.5101  2.0211
 6230TIP3    H218655   1.376   0.104   5.852  0.6298 -1.5917  1.1606
 6231TIP3   OH218656   3.676   3.799   1.907 -0.1823  0.2249 -0.2410
 6231TIP3    H118657   3.608   3.767   1.848 -0.5525  0.8997 -0.1965
 6231TIP3    H218658   3.670   3.895   1.901 -0.7765  0.3411  1.4981
 6232TIP3   OH218659   1.337   6.416   4.616 -0.1548  0.9274 -0.0909
 6232TIP3    H118660   1.261   6.461   4.653 -0.1198  0.2882  0.7917
 6232TIP3    H218661   1.318   6.323   4.631  1.7542  0.8123  2.0903
 6233TIP3   OH218662   5.644   2.175   4.427 -0.1343  0.4500 -0.1316
 6233TIP3    H118663   5.614   2.106   4.368 -0.8207  0.2059  0.4855
 6233TIP3    H218664   5.569   2.192   4.485  0.0437  1.6649 -0.2229
 6234TIP3   OH218665   2.459   4.803   0.890 -0.6112  0.2651 -0.0517
 6234TIP3    H118666   2.452   4.732   0.826 -1.7777  1.3646 -1.2100
 6234TIP3    H218667   2.518   4.770   0.957  1.3265 -0.6552 -2.0909
 6235TIP3   OH218668   2.888   6.259   4.344 -0.0174  0.0492  0.0294
 6235TIP3    H118669   2.876   6.324   4.413 -0.6616 -0.8196  0.7692
 6235TIP3    H218670   2.864   6.305   4.263 -1.9595  0.3290  0.7029
 6236TIP3   OH218671   4.380   5.234   1.055  0.4402 -0.7113 -0.5813
 6236TIP3    H118672   4.336   5.295   0.996  0.7815 -1.0994 -1.2547
 6236TIP3    H218673   4.325   5.231   1.133 -0.8015 -1.2935 -1.4549
 6237TIP3   OH218674   1.656   4.372   0.764 -0.0087  0.8758  0.0914
 6237TIP3    H118675   1.713   4.441   0.729  0.4243 -0.7869 -2.8446
 6237TIP3    H218676   1.715   4.313   0.810  0.6675 -0.3445 -2.1481
 6238TIP3   OH218677   2.891   0.461   5.059 -0.1816  0.4116 -0.0055
 6238TIP3    H118678   2.874   0.443   5.152 -1.1493  1.1862 -0.0244
 6238TIP3    H218679   2.984   0.483   5.056  0.5219 -2.0881  0.3815
 6239TIP3   OH218680   3.397   6.423   4.325 -0.2333  0.0055 -0.1637
 6239TIP3    H118681   3.363   6.359   4.388  1.1570  0.2609  0.8879
 6239TIP3    H218682   3.489   6.399   4.315  0.2114  1.5862 -0.0497
 6240TIP3   OH218683   6.506   1.147   0.308  0.0169  0.0675  0.1522
 6240TIP3    H118684   6.542   1.106   0.386  0.8367  0.0212 -0.2411
 6240TIP3    H218685   6.583   1.176   0.258 -0.4899  0.0154 -0.6765
 6241TIP3   OH218686   4.000   4.813   0.955  0.3717  0.3975  0.1816
 6241TIP3    H118687   4.041   4.771   0.879  0.3204 -0.8927  0.8347
 6241TIP3    H218688   4.006   4.747   1.024 -0.9634  0.9697  0.8678
 6242TIP3   OH218689   2.703   0.486   5.537  0.2264  0.1173 -0.1723
 6242TIP3    H118690   2.783   0.522   5.575 -0.0291 -0.4036  0.8965
 6242TIP3    H218691   2.633   0.515   5.596 -0.2089 -0.4945 -0.3744
 6243TIP3   OH218692   4.886   0.152   4.380 -0.0376 -0.0804  0.5807
 6243TIP3    H118693   4.813   0.139   4.320 -0.9458 -0.1616  1.6731
 6243TIP3    H218694   4.895   0.068   4.426 -0.0598  0.2989  1.2982
 6244TIP3   OH218695   0.415   6.001   4.470  0.2109  0.3894  0.1726
 6244TIP3    H118696   0.510   5.990   4.475  0.2815  1.2921  1.2244
 6244TIP3    H218697   0.396   6.072   4.531 -1.2741 -0.5627  0.8861
 6245TIP3   OH218698   6.756   4.230   1.955  0.1374 -0.1438  0.5158
 6245TIP3    H118699   6.666   4.204   1.935 -0.2810  1.5436  0.0115
 6245TIP3    H218700   6.758   4.239   2.050 -0.7664  1.5147  0.4121
 6246TIP3   OH218701   2.472   3.196   4.832 -0.6902 -0.3728 -0.1498
 6246TIP3    H118702   2.534   3.128   4.808 -0.0827  0.2118 -0.2805
 6246TIP3    H218703   2.396   3.182   4.775 -2.6570 -3.7728  2.8514
 6247TIP3   OH218704   4.220   3.164   2.858 -0.0479  0.2170  0.5163
 6247TIP3    H118705   4.216   3.213   2.776 -0.0983  1.7836  1.4035
 6247TIP3    H218706   4.291   3.206   2.907  0.5364 -1.2287  0.9685
 6248TIP3   OH218707   5.068   6.023   1.761 -0.0861 -0.1649 -0.2330
 6248TIP3    H118708   5.103   6.109   1.738  2.6560 -1.3432 -0.7964
 6248TIP3    H218709   5.056   6.027   1.856 -0.3235  0.9271 -0.2930
 6249TIP3   OH218710   4.797   0.826   0.706 -0.3491  0.1275 -0.2811
 6249TIP3    H118711   4.861   0.755   0.699 -0.5729 -0.2054  0.7897
 6249TIP3    H218712   4.729   0.791   0.765 -0.6921  1.0617 -0.1020
 6250TIP3   OH218713   0.377   1.100   0.276 -0.2548  0.2135 -0.2744
 6250TIP3    H118714   0.326   1.157   0.333  1.1236  1.8572 -0.5837
 6250TIP3    H218715   0.460   1.147   0.263  0.2931 -1.0917 -1.9157
 6251TIP3   OH218716   2.810   1.215   4.017  0.0745  0.5164 -0.4666
 6251TIP3    H118717   2.778   1.302   4.040  2.6468  1.0243  1.7784
 6251TIP3    H218718   2.871   1.192   4.088 -0.8368 -3.3409 -0.6906
 6252TIP3   OH218719   5.138   1.538   5.243  0.4002 -0.6633  0.3230
 6252TIP3    H118720   5.085   1.460   5.227  0.2345 -0.4236 -0.3500
 6252TIP3    H218721   5.228   1.510   5.228  0.4635 -1.0286  1.2971
 6253TIP3   OH218722   3.651   0.773   1.771 -0.3175 -0.0896  0.1430
 6253TIP3    H118723   3.576   0.715   1.783 -1.8081  1.3444 -1.5708
 6253TIP3    H218724   3.727   0.715   1.768 -1.5806 -1.7912 -0.1527
 6254TIP3   OH218725   0.222   4.673   3.626  0.1331  0.6536 -0.2817
 6254TIP3    H118726   0.243   4.664   3.533 -0.4780  0.0259 -0.3654
 6254TIP3    H218727   0.127   4.663   3.631  0.0362  1.6406  0.3059
 6255TIP3   OH218728   3.748   4.571   3.983 -0.7298 -0.7552 -0.2318
 6255TIP3    H118729   3.835   4.602   3.958 -1.7400 -0.1478 -3.4775
 6255TIP3    H218730   3.746   4.479   3.955 -1.3026 -0.5913 -0.7596
 6256TIP3   OH218731   6.640   3.782   4.029  0.3366  0.3694 -0.2592
 6256TIP3    H118732   6.584   3.750   4.100 -0.3766 -0.2037 -1.0627
 6256TIP3    H218733   6.657   3.873   4.052 -0.3255  0.3448  0.3722
 6257TIP3   OH218734   1.480   1.135   4.891  0.8697  0.3532 -0.2083
 6257TIP3    H118735   1.492   1.230   4.893  1.4356  0.3216 -1.5633
 6257TIP3    H218736   1.416   1.119   4.822  0.5363 -0.2494  0.2202
 6258TIP3   OH218737   0.099   0.301   3.188 -0.4722 -0.5230  0.0328
 6258TIP3    H118738   0.146   0.286   3.106 -0.1939  0.9313 -0.0983
 6258TIP3    H218739   0.037   0.228   3.193 -1.2253 -0.1126 -2.0065
 6259TIP3   OH218740   0.470   1.685   4.391  0.1614  0.6945  0.2739
 6259TIP3    H118741   0.540   1.641   4.343 -0.3957 -0.8891  0.8486
 6259TIP3    H218742   0.426   1.739   4.326 -0.6784 -1.5088 -1.1107
 6260TIP3   OH218743   4.230   6.724   0.960  0.0862  0.2772 -0.2099
 6260TIP3    H118744   4.277   6.797   0.920  0.4822  0.9821  1.4728
 6260TIP3    H218745   4.139   6.739   0.937  0.4198 -0.0502 -1.8927
 6261TIP3   OH218746   6.436   4.286   4.486  0.3323  0.1644 -0.0540
 6261TIP3    H118747   6.515   4.289   4.432  0.4367 -0.3344  0.0704
 6261TIP3    H218748   6.466   4.302   4.575  0.2552  0.2398 -0.0409
 6262TIP3   OH218749   3.651   5.320   1.172 -0.0046  0.5052 -0.0298
 6262TIP3    H118750   3.657   5.383   1.101  0.2919  0.4122 -0.0873
 6262TIP3    H218751   3.558   5.297   1.176 -0.1516  1.1250  0.1526
 6263TIP3   OH218752   3.056   6.323   1.771  0.3033 -0.8580  0.1734
 6263TIP3    H118753   3.094   6.309   1.685 -1.4188 -0.5378 -0.6771
 6263TIP3    H218754   3.078   6.413   1.793 -2.6329  0.4498 -1.7883
 6264TIP3   OH218755   3.443   1.799   2.135 -0.1444  0.6460  0.1250
 6264TIP3    H118756   3.513   1.830   2.192  0.2277  0.4173 -0.2011
 6264TIP3    H218757   3.367   1.789   2.193 -0.1234  1.6124  0.3401
 6265TIP3   OH218758   3.472   3.145   2.535  0.0726  0.0059 -0.5669
 6265TIP3    H118759   3.551   3.120   2.584 -0.2022  0.3989  0.0942
 6265TIP3    H218760   3.466   3.240   2.547  0.5810  0.2845 -2.2494
 6266TIP3   OH218761   6.140   6.716   2.637  0.4580 -0.1347  0.3385
 6266TIP3    H118762   6.146   6.664   2.557 -1.9244 -1.5495  0.9720
 6266TIP3    H218763   6.155   6.653   2.708 -0.3697  0.4502  1.0585
 6267TIP3   OH218764   2.814   1.483   2.637 -0.2647  0.5102  0.1505
 6267TIP3    H118765   2.887   1.422   2.642 -0.0538  0.6080 -1.2726
 6267TIP3    H218766   2.768   1.460   2.556 -0.8074  1.5517  0.1360
 6268TIP3   OH218767   5.567   3.524   1.021 -0.1885  0.8775 -0.1091
 6268TIP3    H118768   5.626   3.599   1.009  0.6468  0.2292 -0.1009
 6268TIP3    H218769   5.590   3.464   0.950 -1.3987  0.9568 -0.5994
 6269TIP3   OH218770   3.464   6.332   2.903  0.0670  0.3966  0.1590
 6269TIP3    H118771   3.484   6.370   2.817  2.4893 -2.4163 -0.6629
 6269TIP3    H218772   3.497   6.397   2.965  0.0430  1.6267 -1.0619
 6270TIP3   OH218773   5.169   3.086   2.259 -0.4727  0.1206 -0.2268
 6270TIP3    H118774   5.213   3.007   2.291 -1.3863  0.1097  1.0897
 6270TIP3    H218775   5.219   3.112   2.181  2.5746  0.7265  1.7587
 6271TIP3   OH218776   0.518   2.953   2.807 -0.1968  0.2994 -0.0492
 6271TIP3    H118777   0.433   2.979   2.843  0.6724  0.7854  1.7648
 6271TIP3    H218778   0.562   3.036   2.788 -0.0894  0.0484 -0.9641
 6272TIP3   OH218779   6.497   4.989   0.656  0.0579  0.0809  0.2750
 6272TIP3    H118780   6.445   5.060   0.694  0.5933 -0.1284  1.4403
 6272TIP3    H218781   6.529   4.940   0.731 -0.7177 -1.7259 -0.5212
 6273TIP3   OH218782   1.647   5.674   5.022 -0.4007  1.0185  0.5139
 6273TIP3    H118783   1.616   5.672   4.931 -0.7518  1.9319  0.5945
 6273TIP3    H218784   1.742   5.670   5.015 -0.3966  1.6172  0.0596
 6274TIP3   OH218785   2.731   5.588   4.238  0.2732 -0.0633  0.3342
 6274TIP3    H118786   2.785   5.665   4.221  0.2303 -0.1116 -0.0403
 6274TIP3    H218787   2.648   5.608   4.195 -0.2779  0.3258  1.5262
 6275TIP3   OH218788   1.296   1.292   0.625  0.2874 -0.5794  0.2857
 6275TIP3    H118789   1.323   1.346   0.700 -2.0609  0.0729  0.7444
 6275TIP3    H218790   1.260   1.354   0.562 -3.0242 -1.5018  1.0583
 6276TIP3   OH218791   5.192   6.772   5.105 -0.8455  0.1415 -0.2078
 6276TIP3    H118792   5.153   6.755   5.020  2.0935 -2.5175 -1.2056
 6276TIP3    H218793   5.152   6.707   5.163 -2.0996  1.2969  0.2912
 6277TIP3   OH218794   3.971   1.027   2.423  1.0994  0.0008  0.3154
 6277TIP3    H118795   3.965   1.010   2.517  0.2010  1.2631  0.5240
 6277TIP3    H218796   3.903   0.972   2.385  0.7137  0.3011  0.5503
 6278TIP3   OH218797   6.407   1.323   5.040  0.3110  0.0646 -0.1984
 6278TIP3    H118798   6.329   1.279   5.072  0.0671  0.5862 -0.0644
 6278TIP3    H218799   6.455   1.255   4.991 -1.1608  0.2102 -1.9418
 6279TIP3   OH218800   3.247   3.858   1.337 -0.2443  0.1743  0.2245
 6279TIP3    H118801   3.205   3.791   1.282  1.9461 -0.8950 -0.2281
 6279TIP3    H218802   3.265   3.812   1.420 -1.0548  0.9979  0.8826
 6280TIP3   OH218803   1.862   4.876   0.499 -0.1868  0.4437 -0.2275
 6280TIP3    H118804   1.776   4.867   0.539  1.0846 -2.7558  2.3118
 6280TIP3    H218805   1.911   4.933   0.559  0.4528 -0.7556  0.4314
 6281TIP3   OH218806   5.056   1.869   0.811  0.3339  0.0002 -0.2342
 6281TIP3    H118807   5.049   1.774   0.823  0.5505  0.1515  1.2596
 6281TIP3    H218808   5.031   1.905   0.896  1.8401  1.2152 -0.2863
 6282TIP3   OH218809   5.331   6.577   3.342  0.3467 -0.5203  0.3429
 6282TIP3    H118810   5.419   6.568   3.379  1.0356  2.0633 -0.4396
 6282TIP3    H218811   5.303   6.665   3.367 -1.2390 -0.5722 -1.0266
 6283TIP3   OH218812   5.132   0.988   0.986  0.7215  0.5963  0.1269
 6283TIP3    H118813   5.088   1.046   1.048  1.0729  0.0146  0.9304
 6283TIP3    H218814   5.189   0.933   1.040 -0.2009 -1.0571 -0.5204
 6284TIP3   OH218815   2.972   4.300   5.388  0.6773 -0.2616 -0.5041
 6284TIP3    H118816   2.913   4.331   5.457  1.1638 -0.4410  0.0009
 6284TIP3    H218817   2.921   4.235   5.340 -0.0072  0.5778 -0.9412
 6285TIP3   OH218818   2.637   1.094   0.092  0.1928 -0.0921 -0.1972
 6285TIP3    H118819   2.631   1.018   0.150  2.1553 -1.0321 -1.1066
 6285TIP3    H218820   2.728   1.094   0.063 -0.7905 -0.1631 -3.8387
 6286TIP3   OH218821   5.943   5.849   1.216  0.1375 -0.3329 -0.1588
 6286TIP3    H118822   5.853   5.878   1.231 -0.3718 -1.6849 -0.4698
 6286TIP3    H218823   5.994   5.894   1.283 -0.3113  2.4615 -1.5170
 6287TIP3   OH218824  -0.024   4.273   4.727  0.0504  0.1056  0.1684
 6287TIP3    H118825  -0.011   4.349   4.784 -0.3947  1.1379 -1.0453
 6287TIP3    H218826   0.064   4.240   4.711  0.1121 -1.0945  2.5350
 6288TIP3   OH218827   2.876   3.738   3.385  0.0065  0.1409 -0.0715
 6288TIP3    H118828   2.873   3.832   3.403 -1.4335  0.0826  0.1348
 6288TIP3    H218829   2.875   3.733   3.289  2.8957  0.3471 -0.2087
 6289TIP3   OH218830   0.200   5.257   1.937 -0.0201  0.2852  0.4613
 6289TIP3    H118831   0.151   5.264   1.855  0.2385 -3.1166 -0.1492
 6289TIP3    H218832   0.144   5.202   1.993  1.5277 -0.8065  1.0048
 6290TIP3   OH218833   7.244   1.934   2.178  0.6854  0.5312 -0.1437
 6290TIP3    H118834   7.208   2.002   2.235  1.2899 -0.0672  0.9816
 6290TIP3    H218835   7.169   1.877   2.159  0.3371  1.0997 -0.5037
 6291TIP3   OH218836   5.576   5.700   5.097  0.0722 -0.2304 -0.0639
 6291TIP3    H118837   5.531   5.645   5.033 -2.1310  0.3292  0.9384
 6291TIP3    H218838   5.603   5.777   5.047  0.6106 -0.8845 -0.8228
 6292TIP3   OH218839   5.198   6.251   4.877  0.9207  0.6450  0.0463
 6292TIP3    H118840   5.178   6.333   4.833 -0.6481  0.7485  0.8699
 6292TIP3    H218841   5.224   6.191   4.807  0.4476  1.3649 -0.7642
 6293TIP3   OH218842   1.477   1.114   0.520  0.5594 -0.1530 -0.4368
 6293TIP3    H118843   1.572   1.123   0.528  0.7021 -1.1294 -0.9410
 6293TIP3    H218844   1.443   1.200   0.544  1.3467 -0.7027  3.1923
 6294TIP3   OH218845   4.421   5.925   3.518 -0.1300  0.1560 -0.4980
 6294TIP3    H118846   4.339   5.922   3.567 -0.9156 -0.3574 -1.7988
 6294TIP3    H218847   4.414   6.003   3.463 -0.5818 -0.8580 -1.9506
 6295TIP3   OH218848   0.717   2.231   3.464 -0.1747 -0.3196  0.2986
 6295TIP3    H118849   0.786   2.166   3.450 -0.8269 -0.9814  0.0567
 6295TIP3    H218850   0.737   2.269   3.550  1.4598  0.7476 -0.4930
 6296TIP3   OH218851   5.642   0.486   3.311 -0.3214  0.8456 -0.4080
 6296TIP3    H118852   5.672   0.446   3.229 -0.9486 -0.4240 -0.0603
 6296TIP3    H218853   5.593   0.416   3.354  0.6672  1.2268  1.4345
 6297TIP3   OH218854   2.746   3.251   5.034  0.0401  0.1791  0.2832
 6297TIP3    H118855   2.704   3.285   5.113  2.9336 -0.4683  2.2209
 6297TIP3    H218856   2.699   3.170   5.015 -0.1074 -0.1589  1.9445
 6298TIP3   OH218857   6.063   2.556   1.507 -0.1915 -0.2183  0.3702
 6298TIP3    H118858   5.987   2.614   1.503  0.2992  0.4222  0.2026
 6298TIP3    H218859   6.062   2.509   1.423  1.3526  2.0644 -1.0397
 6299TIP3   OH218860   4.909   4.503   5.258  0.0096 -0.0722  0.5205
 6299TIP3    H118861   4.888   4.487   5.166  0.9503 -0.0795  0.2908
 6299TIP3    H218862   4.992   4.457   5.271  1.3807  2.2496  0.5978
 6300TIP3   OH218863   1.521   6.629   2.780 -0.7951 -0.0105  0.3004
 6300TIP3    H118864   1.429   6.600   2.787 -0.3359 -1.5993  0.2882
 6300TIP3    H218865   1.571   6.547   2.777  0.7565  0.8096  1.9944
 6301TIP3   OH218866   6.983   2.865   0.484 -0.2098 -0.5838  0.0878
 6301TIP3    H118867   7.038   2.941   0.466 -1.1580  0.2881  0.7636
 6301TIP3    H218868   7.045   2.792   0.493  0.7666  0.2277  0.1141
 6302TIP3   OH218869   6.754   3.309   4.243  0.0067  0.1844  0.4086
 6302TIP3    H118870   6.750   3.342   4.153 -1.6581 -1.0306 -0.0111
 6302TIP3    H218871   6.819   3.365   4.286  0.7860  0.8511 -1.5079
 6303TIP3   OH218872   3.375   1.266   2.037  0.0867  0.3768  0.0937
 6303TIP3    H118873   3.463   1.288   2.067  0.3795 -0.4735 -0.1020
 6303TIP3    H218874   3.325   1.347   2.047  0.9265  0.9121  0.0658
 6304TIP3   OH218875   5.364   6.096   4.713  0.6455  0.3831  0.3570
 6304TIP3    H118876   5.454   6.105   4.743  0.2168  0.1724  1.7933
 6304TIP3    H218877   5.354   6.003   4.693  1.0877  0.6112 -1.0408
 6305TIP3   OH218878   0.042   1.005   3.705 -0.0582  0.1812  0.3395
 6305TIP3    H118879  -0.013   0.927   3.695  0.9066 -0.2509 -2.5039
 6305TIP3    H218880   0.111   0.978   3.765  1.4270 -1.9888 -2.1039
 6306TIP3   OH218881   3.494   5.923   0.668 -0.2134 -0.1926 -0.0143
 6306TIP3    H118882   3.469   5.976   0.745  0.3833 -0.8105  0.6138
 6306TIP3    H218883   3.589   5.917   0.673 -0.2576 -1.1723 -0.1779
 6307TIP3   OH218884   0.532   0.328   3.989  0.2515 -0.2952 -0.1256
 6307TIP3    H118885   0.442   0.326   3.958  0.7046 -0.1919 -1.5040
 6307TIP3    H218886   0.539   0.410   4.038 -0.8005 -1.0352  1.3143
 6308TIP3   OH218887   4.709   2.667   3.416  0.6929 -0.8393 -0.4128
 6308TIP3    H118888   4.780   2.729   3.432  1.0152 -1.6299  1.4913
 6308TIP3    H218889   4.644   2.689   3.483  0.4952 -2.0832 -0.1869
 6309TIP3   OH218890   1.156   0.590   0.675 -0.5155 -0.4215  0.1037
 6309TIP3    H118891   1.150   0.495   0.683  0.1246 -0.5194 -0.4550
 6309TIP3    H218892   1.113   0.624   0.753  0.6991 -1.2013  1.1526
 6310TIP3   OH218893   2.868   2.813   2.794 -0.6193 -0.6527  0.1770
 6310TIP3    H118894   2.948   2.837   2.748 -0.1165 -2.0118  0.2941
 6310TIP3    H218895   2.798   2.834   2.732 -0.0365 -1.2285 -0.7131
 6311TIP3   OH218896   3.930   3.355   0.968 -0.3790 -0.2788  0.2994
 6311TIP3    H118897   3.900   3.289   1.031 -1.1102  0.2170  0.4872
 6311TIP3    H218898   3.891   3.436   0.999 -0.0962  0.1115 -0.3525
 6312TIP3   OH218899   4.170   3.599   2.729 -0.0574 -0.0610 -0.2216
 6312TIP3    H118900   4.185   3.544   2.806  0.8793 -1.5084 -1.4014
 6312TIP3    H218901   4.109   3.550   2.675 -0.1084  0.5954 -0.7809
 6313TIP3   OH218902   6.933   3.879   1.586 -0.2309 -0.0339  0.0079
 6313TIP3    H118903   6.848   3.836   1.595 -0.0109 -0.1022  2.2044
 6313TIP3    H218904   6.930   3.952   1.647  1.2714 -0.0029  0.0890
 6314TIP3   OH218905   4.854   3.809   3.652  0.0285 -0.4872 -0.5955
 6314TIP3    H118906   4.901   3.891   3.635 -1.6806  0.7111  0.1927
 6314TIP3    H218907   4.814   3.822   3.738 -0.4751 -2.0652 -0.5629
 6315TIP3   OH218908   4.230   2.202   1.752 -0.2382  0.3268  0.6426
 6315TIP3    H118909   4.137   2.186   1.739 -0.3482  1.2916  0.1263
 6315TIP3    H218910   4.273   2.149   1.684 -0.5547  1.6409 -0.6245
 6316TIP3   OH218911   4.127   5.555   1.999  0.1213  0.2407  0.1933
 6316TIP3    H118912   4.076   5.611   1.941 -0.3364 -0.9604 -0.6102
 6316TIP3    H218913   4.207   5.536   1.950  0.5018  0.5987  0.6690
 6317TIP3   OH218914   0.934   2.621   5.765 -0.6771 -0.4646 -0.2794
 6317TIP3    H118915   0.978   2.658   5.841  0.1769  1.8377 -1.7651
 6317TIP3    H218916   0.886   2.546   5.799  2.0318 -1.3628  1.9747
 6318TIP3   OH218917   4.555   4.551   1.257 -0.0677  0.0875 -0.1666
 6318TIP3    H118918   4.561   4.623   1.194  1.2894  0.5815  0.5111
 6318TIP3    H218919   4.583   4.588   1.340  0.1492 -1.0948  0.3109
 6319TIP3   OH218920   6.915   3.981   0.784  0.2908 -0.4018 -0.1000
 6319TIP3    H118921   6.838   4.003   0.836  0.5645 -0.4494  0.3340
 6319TIP3    H218922   6.882   3.964   0.696 -0.0519  0.8055 -0.2161
 6320TIP3   OH218923   3.199   4.774   3.775 -0.2408  0.0032  0.5623
 6320TIP3    H118924   3.240   4.690   3.754  0.7408  0.9194 -1.4250
 6320TIP3    H218925   3.163   4.761   3.863  2.2455 -1.6445  1.4613
 6321TIP3   OH218926   4.020   5.358   5.019  0.7074  0.7240  0.0438
 6321TIP3    H118927   4.063   5.393   5.097  0.2797 -0.4293  0.8179
 6321TIP3    H218928   4.069   5.278   4.999  0.7651  0.9664 -0.8357
 6322TIP3   OH218929   5.991   1.668   4.485  0.1971  0.2355 -0.4240
 6322TIP3    H118930   5.945   1.585   4.495 -1.3760  1.1097 -0.0955
 6322TIP3    H218931   6.080   1.643   4.459 -0.4827 -1.5145 -1.2594
 6323TIP3   OH218932   0.774   1.936   5.278  0.2568 -0.0848 -0.4665
 6323TIP3    H118933   0.678   1.927   5.280  0.2785 -1.6605 -2.5211
 6323TIP3    H218934   0.804   1.893   5.358 -0.7398  0.5402  0.2700
 6324TIP3   OH218935   1.098   0.039   3.374  0.4919 -0.6465 -0.6894
 6324TIP3    H118936   1.042   0.052   3.450  1.1842  0.9215 -0.4141
 6324TIP3    H218937   1.121   0.127   3.345  0.2095 -1.1841 -2.7625
 6325TIP3   OH218938   4.586   1.885   5.333  0.4565  0.1348  0.2800
 6325TIP3    H118939   4.594   1.885   5.428 -0.5210  0.6047  0.3758
 6325TIP3    H218940   4.564   1.795   5.310 -0.3551  0.2437  0.6068
 6326TIP3   OH218941   2.466   0.490   0.380  0.0269  0.2099 -0.3574
 6326TIP3    H118942   2.436   0.570   0.336 -1.9002  0.2516  0.9189
 6326TIP3    H218943   2.508   0.522   0.460  2.2825  0.0647 -1.4208
 6327TIP3   OH218944   6.546   4.801   4.896 -0.3241 -0.0098  0.2262
 6327TIP3    H118945   6.486   4.740   4.938 -0.6294 -0.8771 -1.3994
 6327TIP3    H218946   6.591   4.750   4.829 -0.1544  1.3825 -0.7851
 6328TIP3   OH218947   6.353   2.212   3.041  0.0823 -0.3565 -0.2076
 6328TIP3    H118948   6.358   2.243   3.132  2.5169 -3.6225  0.9796
 6328TIP3    H218949   6.408   2.273   2.992  2.4710 -1.0540  1.4547
 6329TIP3   OH218950   6.061   4.942   5.637  0.1388 -0.3794 -0.5776
 6329TIP3    H118951   5.992   4.944   5.571  1.1850 -0.5057 -1.7105
 6329TIP3    H218952   6.028   4.882   5.704 -1.7412  1.1658 -0.0383
 6330TIP3   OH218953   0.471   6.187   0.788  0.4388 -0.3437 -0.5403
 6330TIP3    H118954   0.449   6.184   0.882 -0.0118 -1.8444 -0.6716
 6330TIP3    H218955   0.566   6.194   0.787  0.4588 -0.4235  0.0320
 6331TIP3   OH218956   4.619   5.822   0.622  0.3375 -0.3202  0.1247
 6331TIP3    H118957   4.580   5.837   0.536 -1.5386 -0.4895  0.9022
 6331TIP3    H218958   4.545   5.803   0.679  1.4624  0.4307  1.9312
 6332TIP3   OH218959   1.865   4.369   1.421  0.3061  0.2566 -0.9175
 6332TIP3    H118960   1.821   4.298   1.376  1.0175 -1.2182  0.6118
 6332TIP3    H218961   1.954   4.368   1.385 -0.0776  1.4266 -1.9956
 6333TIP3   OH218962   4.783   0.559   2.991  0.5940  0.3566  0.3085
 6333TIP3    H118963   4.689   0.563   3.007  0.5665 -0.2938  0.3357
 6333TIP3    H218964   4.823   0.561   3.078  0.6027  0.4760  0.3025
 6334TIP3   OH218965   7.160   1.600   4.783 -0.0063 -0.1417  0.3622
 6334TIP3    H118966   7.212   1.669   4.743 -1.1501  0.6281  0.1519
 6334TIP3    H218967   7.182   1.521   4.734  1.2368  0.0868  0.5371
 6335TIP3   OH218968   1.683   1.987   5.747  0.1781 -0.7189  0.4633
 6335TIP3    H118969   1.666   1.926   5.674 -0.9787  1.3739 -1.1224
 6335TIP3    H218970   1.761   2.035   5.720 -0.1119 -0.0969  0.7247
 6336TIP3   OH218971   4.886   1.869   0.351  0.4846  0.2981 -0.6902
 6336TIP3    H118972   4.919   1.847   0.439  1.2917 -1.8493 -1.4564
 6336TIP3    H218973   4.814   1.930   0.367 -0.5107 -1.3219  1.6140
 6337TIP3   OH218974   3.135   1.131   0.673  0.1824 -0.1359 -0.5371
 6337TIP3    H118975   3.080   1.165   0.602 -0.6245 -1.8762 -0.8095
 6337TIP3    H218976   3.220   1.173   0.660  0.2023 -0.7566 -2.8428
 6338TIP3   OH218977   2.054   2.721   1.531 -0.0062 -0.1153 -0.1819
 6338TIP3    H118978   1.991   2.701   1.600 -0.3984  2.4090  0.2688
 6338TIP3    H218979   2.138   2.694   1.567 -0.2517  0.8743  1.1703
 6339TIP3   OH218980   3.430   6.510   4.672  0.5197  0.4043  0.3929
 6339TIP3    H118981   3.423   6.438   4.610  0.3291  0.2627  0.5738
 6339TIP3    H218982   3.476   6.472   4.747  1.7785  0.8872 -0.1199
 6340TIP3   OH218983   2.499   0.182   3.587  0.3711  0.3130  0.3942
 6340TIP3    H118984   2.512   0.092   3.558  2.4485  0.3299  1.0499
 6340TIP3    H218985   2.545   0.186   3.671  0.7869  2.1071  0.1122
 6341TIP3   OH218986   0.597   1.649   4.739 -0.3963 -0.2380 -0.1898
 6341TIP3    H118987   0.517   1.677   4.696 -1.0799 -2.5392 -0.5776
 6341TIP3    H218988   0.572   1.633   4.830  1.0220  4.5224  1.3371
 6342TIP3   OH218989   0.352   1.707   4.653  0.5399 -0.1539  0.1258
 6342TIP3    H118990   0.382   1.700   4.563  0.1969 -1.2365  0.0896
 6342TIP3    H218991   0.266   1.749   4.647 -0.6007 -2.3933 -0.2976
 6343TIP3   OH218992   3.681   2.142   0.369  0.1977  0.0054  0.1485
 6343TIP3    H118993   3.604   2.115   0.419  1.1602 -2.3348  0.5352
 6343TIP3    H218994   3.661   2.120   0.278  0.9293 -2.1918  0.4460
 6344TIP3   OH218995   5.484   1.128   1.294 -0.7550  0.5597  0.4882
 6344TIP3    H118996   5.544   1.055   1.311  0.4895  1.6542  0.9727
 6344TIP3    H218997   5.516   1.166   1.212 -0.6047  1.3106  0.8832
 6345TIP3   OH218998   3.724   5.574   4.739  0.0861  0.1852  0.5438
 6345TIP3    H118999   3.749   5.614   4.656  0.0452 -2.3511 -0.7588
 6345TIP3    H219000   3.804   5.577   4.792  0.3556  1.0155  0.1094
 6346TIP3   OH219001   6.525   0.095   1.861 -0.3142  0.0291 -0.0915
 6346TIP3    H119002   6.617   0.073   1.844 -0.3552  0.1813 -0.5409
 6346TIP3    H219003   6.507   0.168   1.801 -0.4013  0.7634  0.8140
 6347TIP3   OH219004   2.841   6.728   4.920 -0.2930  0.1158  0.0222
 6347TIP3    H119005   2.824   6.666   4.850 -1.7812 -0.4102  0.8051
 6347TIP3    H219006   2.780   6.800   4.904 -0.3317  0.2010  0.5141
 6348TIP3   OH219007   0.754   1.636   3.098  0.2974 -0.6227  0.4991
 6348TIP3    H119008   0.846   1.620   3.118  0.1467 -1.8378  0.3105
 6348TIP3    H219009   0.706   1.570   3.147 -0.6045  0.8062  1.6340
 6349TIP3   OH219010   4.775   1.253   2.114  0.6175  0.3465  0.1120
 6349TIP3    H119011   4.725   1.274   2.193  0.6814 -1.6022  0.7276
 6349TIP3    H219012   4.843   1.193   2.145  1.3042  0.3865 -1.2630
 6350TIP3   OH219013   1.283   6.336   1.534 -0.0178  0.0365 -0.0336
 6350TIP3    H119014   1.294   6.327   1.629  0.3723  2.6042  0.2242
 6350TIP3    H219015   1.372   6.344   1.500 -0.1833 -0.3811 -0.5813
 6351TIP3   OH219016   6.193   5.196   4.767  0.6512  0.2404  0.3502
 6351TIP3    H119017   6.260   5.177   4.701  0.9968 -1.2996  1.1028
 6351TIP3    H219018   6.206   5.129   4.834 -0.7262  0.8011  1.2119
 6352TIP3   OH219019   1.300   3.755   4.710  1.2139  0.0805 -0.0066
 6352TIP3    H119020   1.209   3.745   4.684  1.3868 -0.6024 -0.3804
 6352TIP3    H219021   1.299   3.822   4.778  0.7185  1.8277 -1.6402
 6353TIP3   OH219022   6.084   4.741   5.839 -0.2670  0.2228 -0.1918
 6353TIP3    H119023   6.041   4.656   5.850  1.0445 -0.3663  0.6737
 6353TIP3    H219024   6.172   4.728   5.873 -0.5598  2.4264  1.6980
 6354TIP3   OH219025   6.177   6.000   0.955 -0.0797 -0.0854  0.5292
 6354TIP3    H119026   6.174   5.993   1.051 -1.0869  0.3885  0.5526
 6354TIP3    H219027   6.088   5.979   0.927  0.1881 -0.1454 -0.3055
 6355TIP3   OH219028   6.879   3.456   2.596 -0.4852  0.0195 -0.6620
 6355TIP3    H119029   6.915   3.510   2.667  0.7786  1.2707 -2.1945
 6355TIP3    H219030   6.784   3.466   2.604 -0.5352 -1.4157  1.9935
 6356TIP3   OH219031   5.746   2.302   1.350  0.6603 -0.1515  0.4561
 6356TIP3    H119032   5.683   2.237   1.381 -1.6201  1.8466  0.3285
 6356TIP3    H219033   5.741   2.295   1.254 -1.2827  1.5870  0.3615
 6357TIP3   OH219034   3.346   1.124   1.481  0.4051  0.2844  0.3217
 6357TIP3    H119035   3.374   1.037   1.509 -2.6151 -1.0866 -0.5769
 6357TIP3    H219036   3.359   1.123   1.386 -1.6512 -0.0489  0.0135
 6358TIP3   OH219037   5.946   3.870   1.132 -0.1061 -0.1699  0.4863
 6358TIP3    H119038   5.876   3.928   1.161  0.7741  0.9877  0.3375
 6358TIP3    H219039   5.924   3.785   1.172 -0.9311  0.4619  1.4258
 6359TIP3   OH219040   4.534   1.330   4.426 -0.1134  0.1498  0.0551
 6359TIP3    H119041   4.627   1.352   4.433 -0.2657  0.6179  0.6728
 6359TIP3    H219042   4.490   1.392   4.484 -0.9112  0.5707 -0.9671
 6360TIP3   OH219043   5.340   3.122   1.797 -0.8493 -0.2337  0.5560
 6360TIP3    H119044   5.260   3.175   1.794 -1.0533 -0.4673  1.5482
 6360TIP3    H219045   5.389   3.149   1.719 -0.7324  1.7580  1.2462
 6361TIP3   OH219046   3.199   6.406   5.870  0.0496  0.5872 -0.5074
 6361TIP3    H119047   3.278   6.430   5.823  0.4787 -0.0001 -0.0998
 6361TIP3    H219048   3.171   6.323   5.830  0.6633 -0.1432  0.5362
 6362TIP3   OH219049   6.852   0.499   1.490 -0.4511  0.0437  0.4068
 6362TIP3    H119050   6.905   0.422   1.513  0.3884 -0.1574 -1.9377
 6362TIP3    H219051   6.772   0.462   1.453  0.3079  0.2109 -1.5168
 6363TIP3   OH219052   6.393   5.981   5.381  0.0697 -0.4119 -0.1506
 6363TIP3    H119053   6.381   5.918   5.310 -0.7475 -0.7219  0.2537
 6363TIP3    H219054   6.367   5.934   5.460  1.0190 -0.0883  0.3711
 6364TIP3   OH219055   1.793   2.279   3.531  0.0302 -0.3934  0.2009
 6364TIP3    H119056   1.710   2.318   3.504  0.6297  1.1802  0.5736
 6364TIP3    H219057   1.795   2.194   3.485 -2.1864 -0.8965  0.9212
 6365TIP3   OH219058   3.452   2.620   5.864 -0.1900 -0.3880 -0.1475
 6365TIP3    H119059   3.490   2.559   5.802 -1.9611 -0.7014 -0.9748
 6365TIP3    H219060   3.366   2.641   5.828 -1.1901 -0.4077  2.0884
 6366TIP3   OH219061   4.056   1.376   2.890  0.0976  0.4513  0.0259
 6366TIP3    H119062   4.150   1.358   2.883  0.0835 -0.2120  1.2900
 6366TIP3    H219063   4.036   1.363   2.982 -1.0851  1.4070 -0.0768
 6367TIP3   OH219064   5.352   4.545   4.099  0.3658  0.3552 -0.2908
 6367TIP3    H119065   5.265   4.505   4.089 -0.6716  2.5015 -0.4899
 6367TIP3    H219066   5.411   4.488   4.051 -1.2343 -0.2794 -1.5956
 6368TIP3   OH219067   1.065   1.938   4.659 -0.4024  0.2985 -0.1525
 6368TIP3    H119068   1.020   1.954   4.742 -0.0112  0.4423  0.0324
 6368TIP3    H219069   1.152   1.908   4.684 -0.6880 -0.8594 -0.5067
 6369TIP3   OH219070   1.182   3.483   0.834 -0.0547  0.0119  0.0672
 6369TIP3    H119071   1.218   3.534   0.907  0.1886  1.3043 -0.9206
 6369TIP3    H219072   1.101   3.445   0.869  1.2627 -1.4166  1.7428
 6370TIP3   OH219073   1.192   2.368   4.733  0.0457  0.0984  0.0081
 6370TIP3    H119074   1.186   2.421   4.813 -0.1242 -1.2236  0.9034
 6370TIP3    H219075   1.155   2.423   4.665 -0.7996  0.8640  1.0472
 6371TIP3   OH219076   4.216   3.686   3.629 -0.0397 -0.1811 -0.2541
 6371TIP3    H119077   4.237   3.695   3.536  2.1113 -0.0202  0.1963
 6371TIP3    H219078   4.177   3.770   3.653  2.0813  0.8958 -0.3952
 6372TIP3   OH219079   4.750   4.413   1.616  0.2200 -0.6070 -0.0155
 6372TIP3    H119080   4.670   4.423   1.564 -0.3212 -0.6386  0.7900
 6372TIP3    H219081   4.727   4.350   1.683  0.7326 -0.1503  0.6045
 6373TIP3   OH219082   3.893   5.883   3.915  0.2717  0.0941  0.0945
 6373TIP3    H119083   3.975   5.931   3.929 -0.9700  2.6132 -0.7761
 6373TIP3    H219084   3.870   5.850   4.002  2.2269 -0.7777  0.3362
 6374TIP3   OH219085   4.712   2.288   0.535 -0.0140  0.2481 -0.5203
 6374TIP3    H119086   4.749   2.237   0.463 -0.7376 -0.6673 -0.2595
 6374TIP3    H219087   4.725   2.233   0.612 -2.2195 -0.2966 -0.4733
 6375TIP3   OH219088   2.170   6.422   2.317  0.0008 -0.5263  0.3953
 6375TIP3    H119089   2.167   6.367   2.239 -0.0807 -0.4180  0.3217
 6375TIP3    H219090   2.203   6.506   2.286  2.1056 -1.1308  0.8619
 6376TIP3   OH219091   5.418   0.860   3.212 -1.1648 -0.4838 -0.5410
 6376TIP3    H119092   5.476   0.818   3.149 -0.6330 -1.8319  0.7697
 6376TIP3    H219093   5.411   0.797   3.284 -3.3381  0.1330 -0.1286
 6377TIP3   OH219094   0.405   5.502   1.292  0.0716  0.3525 -0.7615
 6377TIP3    H119095   0.321   5.496   1.336  0.5128  2.4687  0.4826
 6377TIP3    H219096   0.414   5.418   1.245 -1.0621 -1.4140  1.9692
 6378TIP3   OH219097   4.866   5.932   3.883 -0.1455 -0.3312  0.3105
 6378TIP3    H119098   4.958   5.954   3.899 -0.3383  0.8376 -0.1566
 6378TIP3    H219099   4.867   5.837   3.867  0.9122 -0.4093  0.7447
 6379TIP3   OH219100   5.693   0.242   2.136 -0.3631  0.0356 -0.2502
 6379TIP3    H119101   5.669   0.196   2.217 -1.1603  1.2578  0.2431
 6379TIP3    H219102   5.700   0.334   2.162  0.8083  0.2596 -1.2879
 6380TIP3   OH219103   0.095   0.967   0.700 -0.4464  0.5036 -0.7299
 6380TIP3    H119104   0.097   0.890   0.644  1.8953 -0.2841  0.3064
 6380TIP3    H219105   0.172   0.957   0.757 -2.0131  1.8573  1.7989
 6381TIP3   OH219106   0.419   5.719   4.660 -0.1551 -0.7027  1.0648
 6381TIP3    H119107   0.329   5.686   4.668 -0.4029 -0.4030 -0.3136
 6381TIP3    H219108   0.446   5.695   4.572  1.5372 -1.7529  1.8233
 6382TIP3   OH219109   1.151   6.404   3.670 -0.3002 -0.2003  0.0042
 6382TIP3    H119110   1.236   6.377   3.637 -1.2318 -1.2987 -1.6080
 6382TIP3    H219111   1.144   6.496   3.645  1.4395  0.6958  2.4573
 6383TIP3   OH219112   6.287   1.032   2.269 -0.4618  0.7711  0.4706
 6383TIP3    H119113   6.202   1.001   2.236  0.5141 -3.2422  1.2712
 6383TIP3    H219114   6.270   1.053   2.361 -0.8426  1.2495  0.2956
 6384TIP3   OH219115   2.346   2.231   5.218  0.1041 -0.1264 -0.2684
 6384TIP3    H119116   2.250   2.231   5.215  0.0685 -0.0128  0.6456
 6384TIP3    H219117   2.372   2.231   5.126 -0.7678 -1.2433 -0.5456
 6385TIP3   OH219118   6.296   3.313   5.871  0.8983  0.1439 -0.5878
 6385TIP3    H119119   6.390   3.305   5.887  0.7467 -0.3320  0.0962
 6385TIP3    H219120   6.262   3.225   5.888  0.2878  0.3821 -0.5834
 6386TIP3   OH219121   1.486   2.709   5.635  0.3301 -0.2615 -0.6191
 6386TIP3    H119122   1.452   2.662   5.560 -0.3639 -1.6400  0.5067
 6386TIP3    H219123   1.577   2.680   5.643 -0.1266 -1.5923  0.1410
 6387TIP3   OH219124   6.981   0.958   3.569  0.2586 -0.1994  0.0134
 6387TIP3    H119125   7.040   0.897   3.612  0.5712 -1.0166 -1.5147
 6387TIP3    H219126   6.983   1.037   3.624  0.0947 -1.4186  1.8482
 6388TIP3   OH219127   0.435   0.217   1.438  0.3785  0.3335 -0.4496
 6388TIP3    H119128   0.387   0.239   1.359 -0.5206 -0.0098 -0.0069
 6388TIP3    H219129   0.463   0.302   1.473 -0.4625  0.5917 -0.3748
 6389TIP3   OH219130   4.497   5.290   0.043  0.1812  0.4315  0.6637
 6389TIP3    H119131   4.458   5.233  -0.023  1.2719  0.0834  0.2995
 6389TIP3    H219132   4.490   5.240   0.125  0.9066 -0.1354  0.3901
 6390TIP3   OH219133   2.739   2.946   2.309 -0.2821 -0.0943 -0.3274
 6390TIP3    H119134   2.745   2.899   2.226  0.4556  0.8238 -0.8081
 6390TIP3    H219135   2.829   2.965   2.333 -0.5193  0.1473  0.4006
 6391TIP3   OH219136   4.133   1.048   5.457  0.0604  0.2057 -0.1717
 6391TIP3    H119137   4.141   1.085   5.545 -0.3666  0.2600 -0.1555
 6391TIP3    H219138   4.073   1.107   5.411  0.5570  0.3760 -0.6112
 6392TIP3   OH219139   3.083   0.641   0.357 -0.5285 -0.0663 -0.9990
 6392TIP3    H119140   3.074   0.731   0.325 -0.3965 -0.2351 -1.5173
 6392TIP3    H219141   3.091   0.650   0.452  0.3869  0.5304 -1.1190
 6393TIP3   OH219142   5.167   4.166   4.067 -0.9206 -0.7876 -0.3501
 6393TIP3    H119143   5.160   4.105   3.994  0.2147 -1.9122  0.4407
 6393TIP3    H219144   5.179   4.111   4.144  1.6423  0.4301  0.2162
 6394TIP3   OH219145   2.476   1.684   1.930 -0.5373 -0.0800  0.3110
 6394TIP3    H119146   2.559   1.684   1.883 -1.2411 -1.1941 -0.9807
 6394TIP3    H219147   2.409   1.680   1.861 -1.6355 -0.4790  1.3693
 6395TIP3   OH219148   6.235   3.637   5.108 -0.7343 -0.0239 -0.1933
 6395TIP3    H119149   6.163   3.574   5.110  0.0715 -0.9977  1.9633
 6395TIP3    H219150   6.291   3.608   5.037 -0.8151 -1.2654  0.2319
 6396TIP3   OH219151   0.467   6.757   2.887 -0.5680 -0.4532  0.2825
 6396TIP3    H119152   0.476   6.740   2.980 -1.4049 -0.2554  0.4038
 6396TIP3    H219153   0.548   6.801   2.862 -0.3482 -0.4996  0.9131
 6397TIP3   OH219154   4.411   4.634   0.381  0.3137  0.5914  0.5157
 6397TIP3    H119155   4.475   4.589   0.437 -0.1678 -0.7724  0.0045
 6397TIP3    H219156   4.444   4.621   0.292 -0.7134 -0.2518  0.2363
 6398TIP3   OH219157   3.279   3.688   3.655  0.5264  0.3484  0.1390
 6398TIP3    H119158   3.190   3.671   3.623 -0.1500  0.1061  1.9985
 6398TIP3    H219159   3.267   3.709   3.748  2.5176 -0.6670  0.6751
 6399TIP3   OH219160   6.542   3.353   4.572  0.7540 -0.1028 -0.2097
 6399TIP3    H119161   6.472   3.366   4.636  1.6106 -4.4161  2.0263
 6399TIP3    H219162   6.503   3.297   4.505  1.2227  0.0249 -0.5906
 6400TIP3   OH219163   3.294   0.994   3.881 -0.2267  0.4020  0.1703
 6400TIP3    H119164   3.283   1.085   3.853 -1.8852 -0.1871 -1.2778
 6400TIP3    H219165   3.237   0.986   3.958 -0.3983  0.5025  0.0559
 6401TIP3   OH219166   3.781   3.981   4.414  0.0053 -0.9084  0.4705
 6401TIP3    H119167   3.842   4.051   4.438  0.1097 -0.7690 -0.1845
 6401TIP3    H219168   3.749   4.006   4.327  0.7099 -2.1070 -0.1691
 6402TIP3   OH219169   0.322   4.421   0.900 -0.1721  0.5472  0.0016
 6402TIP3    H119170   0.257   4.362   0.939 -0.6072 -0.0454 -1.5493
 6402TIP3    H219171   0.292   4.509   0.924 -1.5302  0.2862 -0.6392
 6403TIP3   OH219172   3.962   0.621   4.578 -0.2962 -0.0248 -0.5609
 6403TIP3    H119173   3.921   0.543   4.542 -2.0112  0.4722  0.2190
 6403TIP3    H219174   4.046   0.627   4.532 -0.0839 -2.3405 -0.5695
 6404TIP3   OH219175   1.027   6.608   0.065  0.3395  0.3366 -0.2666
 6404TIP3    H119176   1.035   6.527   0.015 -0.0014  0.2744 -0.2285
 6404TIP3    H219177   1.035   6.581   0.156  0.1166  0.3292 -0.2486
 6405TIP3   OH219178   4.992   2.681   5.339  0.0499  0.3301 -0.3969
 6405TIP3    H119179   5.085   2.667   5.323  0.6440  0.9127  2.0876
 6405TIP3    H219180   4.974   2.768   5.303  1.0137  1.0832  0.8490
 6406TIP3   OH219181   1.018   2.557   0.447 -0.1511  0.0502  0.0703
 6406TIP3    H119182   0.982   2.506   0.519 -1.4823 -0.4574 -0.9083
 6406TIP3    H219183   1.080   2.497   0.405  1.2431  0.6253  1.2395
 6407TIP3   OH219184   1.265   2.094   0.233 -0.4345 -0.4438 -0.2936
 6407TIP3    H119185   1.191   2.107   0.293 -0.9195  2.2420 -1.3419
 6407TIP3    H219186   1.318   2.026   0.275 -1.6870  0.0257  2.2470
 6408TIP3   OH219187   5.622   2.600   0.064  0.0942 -0.1845  0.2477
 6408TIP3    H119188   5.630   2.576  -0.029  1.9333 -0.1181  0.3440
 6408TIP3    H219189   5.614   2.696   0.062  3.2902  0.1985  0.1838
 6409TIP3   OH219190   5.276   3.768   2.750  0.4355  0.6966 -0.4678
 6409TIP3    H119191   5.345   3.741   2.690 -0.5766  1.2510 -1.9701
 6409TIP3    H219192   5.313   3.843   2.797  1.0227  0.6714 -0.8820
 6410TIP3   OH219193   0.007   2.597   2.572 -0.2794  0.3747 -0.0207
 6410TIP3    H119194   0.076   2.539   2.541  0.8884  1.6546  0.0633
 6410TIP3    H219195  -0.001   2.664   2.504 -2.2774 -0.3594 -0.5867
 6411TIP3   OH219196   1.858   0.571   5.171 -0.0309 -0.6129  0.0367
 6411TIP3    H119197   1.907   0.553   5.252 -0.5429 -3.0861 -0.1087
 6411TIP3    H219198   1.803   0.493   5.160  1.1346 -1.0808 -3.5050
 6412TIP3   OH219199   2.618   1.266   0.977 -0.0756 -0.1892 -0.3203
 6412TIP3    H119200   2.567   1.347   0.970 -0.4953 -0.3177  0.9782
 6412TIP3    H219201   2.553   1.197   0.983  0.2325 -0.3943  0.9042
 6413TIP3   OH219202   1.346   2.373   3.260  0.3726 -0.2071 -0.3510
 6413TIP3    H119203   1.419   2.312   3.268 -0.7117 -1.5025  0.2630
 6413TIP3    H219204   1.269   2.319   3.280 -0.6571  1.3106 -0.0932
 6414TIP3   OH219205   3.410   2.416   3.575  0.2188 -0.0185  0.5167
 6414TIP3    H119206   3.342   2.477   3.604 -1.1418 -0.3873 -1.6329
 6414TIP3    H219207   3.450   2.459   3.499  2.6571  0.3127  1.8730
 6415TIP3   OH219208   5.149   3.470   0.922  0.4592 -0.0506 -0.2151
 6415TIP3    H119209   5.212   3.533   0.955  0.8486 -0.4299 -0.2202
 6415TIP3    H219210   5.193   3.385   0.929 -0.2655 -0.4008  0.3364
 6416TIP3   OH219211   3.828   1.007   0.512  0.3335 -0.3876  0.0804
 6416TIP3    H119212   3.922   1.020   0.524  0.6150 -1.1669 -1.0601
 6416TIP3    H219213   3.811   0.920   0.549 -0.3215  0.4954  1.9680
 6417TIP3   OH219214   4.894   0.119   0.687  0.3593 -0.1652 -0.4692
 6417TIP3    H119215   4.913   0.034   0.726  0.4079 -0.1627 -0.4862
 6417TIP3    H219216   4.804   0.138   0.711 -0.4787 -1.3165 -2.4750
 6418TIP3   OH219217   2.977   1.713   0.714  0.8372  0.7510 -0.3511
 6418TIP3    H119218   3.046   1.694   0.651  1.2431  0.8757  0.0523
 6418TIP3    H219219   2.897   1.712   0.662  0.8829 -1.5087 -0.4496
 6419TIP3   OH219220   0.585   5.914   2.157  0.2538 -0.0579 -0.0641
 6419TIP3    H119221   0.625   5.997   2.184 -2.1609  1.1626  0.0313
 6419TIP3    H219222   0.571   5.924   2.063 -1.1104  0.1809  0.1403
 6420TIP3   OH219223   4.682   1.461   1.989  0.0299 -0.2795  0.2823
 6420TIP3    H119224   4.714   1.386   2.040  0.4118 -1.0977 -1.1123
 6420TIP3    H219225   4.714   1.538   2.036 -0.7865 -0.9479  2.0179
 6421TIP3   OH219226   2.115   6.257   4.560  0.1800  0.1949  0.2311
 6421TIP3    H119227   2.069   6.317   4.619 -1.0357  1.2548 -1.6949
 6421TIP3    H219228   2.046   6.203   4.522  0.7852  0.2029 -0.9409
 6422TIP3   OH219229   1.061   6.028   4.800  0.1640  0.1872  0.3888
 6422TIP3    H119230   1.151   6.026   4.835  0.3414  0.7229 -0.0252
 6422TIP3    H219231   1.014   6.086   4.860  0.3951  0.8653 -0.0706
 6423TIP3   OH219232   3.509   6.235   1.079  0.4387  0.2620 -0.3252
 6423TIP3    H119233   3.530   6.247   1.171 -3.6302 -0.6314  0.9304
 6423TIP3    H219234   3.457   6.312   1.056 -1.0887 -0.9123 -0.9364
 6424TIP3   OH219235   1.805   5.849   2.701 -0.0464 -0.5538 -0.6135
 6424TIP3    H119236   1.892   5.890   2.699 -0.3634  0.1875  0.1195
 6424TIP3    H219237   1.763   5.879   2.621  0.5139 -1.2572 -1.1849
 6425TIP3   OH219238   3.989   1.899   0.055 -0.0501 -0.1189 -0.1474
 6425TIP3    H119239   3.972   1.859  -0.030  0.4601  3.1685 -1.9470
 6425TIP3    H219240   3.915   1.957   0.069  0.8523  0.8877  0.6346
 6426TIP3   OH219241   3.780   5.950   4.838 -0.3166 -0.4623 -0.4859
 6426TIP3    H119242   3.821   5.993   4.763  0.1470  0.4370  0.2791
 6426TIP3    H219243   3.797   6.007   4.912  0.8966 -2.2698  0.7121
 6427TIP3   OH219244   6.596   5.948   3.449  0.3563 -0.1274 -0.2141
 6427TIP3    H119245   6.683   5.909   3.457 -0.5392 -3.0571 -2.6627
 6427TIP3    H219246   6.606   6.017   3.383  0.6516 -1.3374 -1.4805
 6428TIP3   OH219247   6.597   1.172   2.811 -0.2507 -0.1852 -0.6141
 6428TIP3    H119248   6.671   1.118   2.783 -0.3518  0.0817 -1.4028
 6428TIP3    H219249   6.634   1.232   2.876  0.1276 -0.3510 -0.6747
 6429TIP3   OH219250   1.051   6.275   3.904 -0.1264  0.4234  0.0272
 6429TIP3    H119251   1.080   6.296   3.815 -1.5632 -2.1852 -1.1609
 6429TIP3    H219252   1.127   6.235   3.945  0.6608  1.9777  0.1392
 6430TIP3   OH219253   0.929   5.662   3.956  0.3352  0.2310 -0.0118
 6430TIP3    H119254   0.867   5.734   3.947  0.1865  0.1325  0.2415
 6430TIP3    H219255   0.880   5.585   3.929 -1.2282 -0.6634  4.6009
 6431TIP3   OH219256   6.013   2.416   3.294 -0.0955 -0.3248 -0.1991
 6431TIP3    H119257   6.047   2.479   3.357  0.2439 -0.3827 -0.3234
 6431TIP3    H219258   6.080   2.347   3.290 -0.7405 -1.0196  0.4145
 6432TIP3   OH219259   0.694   3.948   2.381  0.1267 -0.4517 -0.6821
 6432TIP3    H119260   0.722   3.891   2.452 -0.6104 -0.3097 -0.2746
 6432TIP3    H219261   0.775   3.993   2.354  0.1591  0.7027  1.1503
 6433TIP3   OH219262   2.701   1.834   2.120 -0.0838  0.6619 -0.3119
 6433TIP3    H119263   2.634   1.785   2.168 -2.2939  1.6181 -2.2259
 6433TIP3    H219264   2.779   1.779   2.126 -1.5609 -1.5183  0.3576
 6434TIP3   OH219265   3.206   0.150   2.661  0.3806  0.1500 -0.1129
 6434TIP3    H119266   3.229   0.097   2.585 -1.8891 -0.0943 -0.7212
 6434TIP3    H219267   3.249   0.234   2.646 -1.0873  0.5785 -2.4490
 6435TIP3   OH219268   6.795   6.090   3.680 -0.1168 -0.3636 -0.0010
 6435TIP3    H119269   6.770   6.176   3.712 -1.1328 -0.0517 -1.4824
 6435TIP3    H219270   6.820   6.041   3.758  1.0730  1.4331  0.8075
 6436TIP3   OH219271   2.200   6.146   3.856  0.6792 -0.2729  0.0136
 6436TIP3    H119272   2.289   6.112   3.847  0.5649 -0.5735  0.0212
 6436TIP3    H219273   2.186   6.151   3.951  1.4990  1.8987  0.0860
 6437TIP3   OH219274   7.225   0.991   3.999 -0.2144 -0.3116  0.2132
 6437TIP3    H119275   7.154   0.934   3.968  0.9262 -1.4348 -0.4740
 6437TIP3    H219276   7.196   1.023   4.084 -0.9267 -1.9364  0.6206
 6438TIP3   OH219277   1.862   4.738   4.274  0.0410  0.0243  0.5199
 6438TIP3    H119278   1.795   4.807   4.270  0.0658  0.0752  0.9332
 6438TIP3    H219279   1.825   4.665   4.225  0.2915  0.5656 -0.4997
 6439TIP3   OH219280   2.309   2.144   2.929 -0.3465 -0.2848  0.2332
 6439TIP3    H119281   2.248   2.168   2.999  0.3414 -0.9768  1.0905
 6439TIP3    H219282   2.392   2.181   2.956  0.1989 -1.5849  0.3918
 6440TIP3   OH219283   6.262   4.503   4.463  0.3341  0.0371 -0.5435
 6440TIP3    H119284   6.202   4.454   4.520 -0.1752 -0.3469 -1.3901
 6440TIP3    H219285   6.326   4.437   4.435  0.5770  0.2248 -0.4359
 6441TIP3   OH219286   2.808   4.074   4.884 -0.3632 -0.1196  0.5644
 6441TIP3    H119287   2.881   4.128   4.854 -1.5306  1.0607 -0.2744
 6441TIP3    H219288   2.804   4.002   4.822  0.1863 -0.2597  0.6965
 6442TIP3   OH219289   1.177   5.468   3.657 -0.4183  0.4460  0.6101
 6442TIP3    H119290   1.264   5.432   3.639 -0.0583  2.0648 -1.1594
 6442TIP3    H219291   1.154   5.432   3.742  1.7008 -0.5442  0.8363
 6443TIP3   OH219292   6.328   5.220   2.278 -0.0287 -0.1966  0.0708
 6443TIP3    H119293   6.342   5.141   2.331 -0.1155 -0.9137 -0.9465
 6443TIP3    H219294   6.394   5.215   2.209  1.3393  1.7108  1.1579
 6444TIP3   OH219295   5.971   1.756   4.841 -0.0231 -0.0900  0.2397
 6444TIP3    H119296   5.944   1.846   4.824  1.1173  0.1011 -0.6647
 6444TIP3    H219297   6.056   1.748   4.798  0.9981 -0.8975  2.2493
 6445TIP3   OH219298   4.041   6.215   3.116 -0.4857 -0.5893  0.3451
 6445TIP3    H119299   4.109   6.148   3.108 -0.8351 -0.7786 -1.3845
 6445TIP3    H219300   4.031   6.250   3.027 -1.1840  0.9012  0.9684
 6446TIP3   OH219301   1.808   3.634   3.217 -0.4755 -0.0040 -0.1790
 6446TIP3    H119302   1.900   3.640   3.191 -0.3532 -0.5004  0.1237
 6446TIP3    H219303   1.761   3.684   3.150 -0.3603 -2.6284 -2.3949
 6447TIP3   OH219304   2.791   0.451   0.169 -0.0059 -0.4668  0.1267
 6447TIP3    H119305   2.754   0.397   0.099 -0.3631  0.3368 -0.3322
 6447TIP3    H219306   2.861   0.501   0.126 -0.1408 -0.0624  0.3669
 6448TIP3   OH219307   0.750   4.449   1.892 -0.0744 -0.1015  0.2053
 6448TIP3    H119308   0.732   4.404   1.809 -0.9681 -1.3438  1.0436
 6448TIP3    H219309   0.666   4.486   1.917  0.8297  3.1023 -0.9939
 6449TIP3   OH219310   3.309   1.058   0.076  0.2566 -0.5621 -0.0232
 6449TIP3    H119311   3.360   1.128   0.035  0.0592  0.0299  0.7290
 6449TIP3    H219312   3.330   0.980   0.024  1.5169 -0.2257 -0.0497
 6450TIP3   OH219313   5.110   1.514   2.520  0.0408 -0.1856 -0.7358
 6450TIP3    H119314   5.053   1.547   2.590  0.5041 -2.6713  0.9919
 6450TIP3    H219315   5.054   1.510   2.443 -0.8901  1.3710 -0.1738
 6451TIP3   OH219316   5.933   2.466   2.175 -0.3006  0.1478  0.1833
 6451TIP3    H119317   5.990   2.460   2.251 -1.2153  0.0316  0.8840
 6451TIP3    H219318   5.955   2.389   2.122  1.4123  1.0483 -0.4664
 6452TIP3   OH219319   4.704   1.090   4.297  0.4081 -0.5675 -0.0568
 6452TIP3    H119320   4.637   1.071   4.231  1.1018 -1.6360 -0.4666
 6452TIP3    H219321   4.781   1.115   4.246  0.2826  0.9274  0.4156
 6453TIP3   OH219322   4.941   5.888   5.480 -0.5218  0.0046 -0.0939
 6453TIP3    H119323   4.989   5.928   5.553 -0.7836 -1.4109  0.8959
 6453TIP3    H219324   4.984   5.803   5.467 -1.2991 -0.3078 -0.7360
 6454TIP3   OH219325   3.545   3.779   5.472 -0.5607 -0.2075  0.1072
 6454TIP3    H119326   3.512   3.757   5.560 -0.2568  1.8771  0.8048
 6454TIP3    H219327   3.491   3.853   5.445  0.2222 -0.0033 -0.9170
 6455TIP3   OH219328   6.460   0.541   0.606 -0.6299 -0.2433 -0.0933
 6455TIP3    H119329   6.436   0.553   0.698 -1.3624 -0.2384 -0.2777
 6455TIP3    H219330   6.441   0.449   0.588  0.2966 -0.4577 -0.0223
 6456TIP3   OH219331   1.479   3.212   5.363  0.5154 -0.2708 -0.1666
 6456TIP3    H119332   1.489   3.153   5.438  2.6166  1.1280  0.7170
 6456TIP3    H219333   1.434   3.289   5.398  1.4802  0.3799 -0.3364
 6457TIP3   OH219334   1.970   3.129   3.310  0.5458  0.4359 -0.4179
 6457TIP3    H119335   1.934   3.180   3.237 -0.3013  0.6897  0.1652
 6457TIP3    H219336   1.898   3.120   3.371  0.7920 -1.1485 -0.3234
 6458TIP3   OH219337   3.335   4.937   3.021  0.3578  0.9922 -0.0948
 6458TIP3    H119338   3.328   4.907   3.111  1.3487  1.6249  0.1967
 6458TIP3    H219339   3.337   4.857   2.969  2.6149  0.5132  0.6444
 6459TIP3   OH219340   7.017   4.242   2.829  0.1114 -0.5039 -0.2386
 6459TIP3    H119341   7.091   4.205   2.877 -0.8862  0.6938  2.4268
 6459TIP3    H219342   6.940   4.207   2.874 -0.8786  1.3572 -0.3865
 6460TIP3   OH219343   3.349   2.146   2.659 -0.1979 -0.0628 -0.0668
 6460TIP3    H119344   3.323   2.158   2.568  0.5146 -0.6144 -0.3578
 6460TIP3    H219345   3.405   2.068   2.658 -1.5186 -1.0903  1.1082
 6461TIP3   OH219346   1.690   6.575   1.264  0.1552  0.5351  0.5289
 6461TIP3    H119347   1.737   6.528   1.194 -0.1897  0.6331  0.2302
 6461TIP3    H219348   1.598   6.553   1.250  0.1116  0.3187  1.1342
 6462TIP3   OH219349   0.216   5.583   4.777 -0.4764  0.2990  0.0596
 6462TIP3    H119350   0.182   5.621   4.858 -0.7225 -0.1985  0.1923
 6462TIP3    H219351   0.138   5.560   4.727 -0.3241  0.6022 -0.3204
 6463TIP3   OH219352   2.413   5.025   4.944  0.4341  0.0675  0.1028
 6463TIP3    H119353   2.462   4.994   5.020 -1.6314  2.1965  2.4824
 6463TIP3    H219354   2.459   5.103   4.915 -0.0921  0.6160  0.7201
 6464TIP3   OH219355   1.421   3.391   0.470 -0.7133  0.4598 -0.0453
 6464TIP3    H119356   1.411   3.296   0.466 -0.4268  0.4527 -0.9828
 6464TIP3    H219357   1.334   3.425   0.449 -0.9943  0.4124  1.0104
 6465TIP3   OH219358   1.677   3.944   3.650  0.3331  0.2567 -0.2302
 6465TIP3    H119359   1.633   3.859   3.654  0.3119  0.1631 -1.8283
 6465TIP3    H219360   1.758   3.926   3.602 -0.0161  1.2704 -1.2144
 6466TIP3   OH219361   0.218   1.387   0.434  0.4079  0.1709 -0.1012
 6466TIP3    H119362   0.156   1.427   0.496 -0.7203  2.3793 -2.4585
 6466TIP3    H219363   0.274   1.332   0.489 -0.4881  1.9490  2.8691
 6467TIP3   OH219364   1.858   5.793   3.450 -0.6491  0.6324  0.2576
 6467TIP3    H119365   1.891   5.714   3.494  0.0706  1.1769  0.7253
 6467TIP3    H219366   1.886   5.782   3.359  4.1626  2.6474  1.1936
 6468TIP3   OH219367   3.637   6.495   1.769 -0.4793 -0.1436 -0.2203
 6468TIP3    H119368   3.571   6.431   1.795 -1.3761  0.4665 -0.8850
 6468TIP3    H219369   3.591   6.579   1.776  0.4302  0.3538 -0.1053
 6469TIP3   OH219370   2.663   0.980   0.525  0.2361 -0.1628  0.3168
 6469TIP3    H119371   2.622   0.938   0.600  0.9086  1.4024  1.6342
 6469TIP3    H219372   2.624   1.068   0.523  0.4074 -0.1056 -1.0209
 6470TIP3   OH219373   0.739   3.282   1.912 -0.3309  0.0421  0.2089
 6470TIP3    H119374   0.767   3.217   1.847  0.1224 -0.2006  0.6348
 6470TIP3    H219375   0.673   3.334   1.868 -1.0637 -1.0292  0.0224
 6471TIP3   OH219376   0.121   4.163   2.381 -0.0643 -0.0041 -0.0729
 6471TIP3    H119377   0.211   4.157   2.349  0.1366 -1.3421  0.6729
 6471TIP3    H219378   0.067   4.138   2.306  0.1385  1.2570 -0.6631
 6472TIP3   OH219379   5.494   4.679   0.766 -0.4121 -0.4765  0.3626
 6472TIP3    H119380   5.544   4.625   0.828 -1.3022 -0.6540  0.9378
 6472TIP3    H219381   5.501   4.633   0.683  0.5673 -0.3836  0.3784
 6473TIP3   OH219382   4.411   0.744   3.506  0.2201  0.0077  0.0136
 6473TIP3    H119383   4.484   0.741   3.568  0.4098 -0.8352 -0.2371
 6473TIP3    H219384   4.361   0.822   3.531  1.1541  0.5417  0.2429
 6474TIP3   OH219385   0.119   2.553   3.953  0.2413  0.2852 -0.3431
 6474TIP3    H119386   0.214   2.545   3.950  0.1116 -1.5129 -1.3304
 6474TIP3    H219387   0.100   2.581   4.042  1.6644  0.2306  0.0022
 6475TIP3   OH219388   5.335   6.403   5.299 -0.1279 -0.0779  0.0529
 6475TIP3    H119389   5.421   6.435   5.272 -0.4628  0.2265 -0.6628
 6475TIP3    H219390   5.303   6.468   5.361  1.2351 -1.4571  2.3851
 6476TIP3   OH219391   6.130   5.017   0.304  0.9406 -0.3730  0.3064
 6476TIP3    H119392   6.150   5.069   0.381 -0.5016  0.1070  0.3957
 6476TIP3    H219393   6.066   4.953   0.334  0.0419  0.0900 -0.5554
 6477TIP3   OH219394   1.884   6.621   1.471 -0.0880 -0.0142  0.4833
 6477TIP3    H119395   1.827   6.585   1.403 -1.3431 -0.0684  1.5058
 6477TIP3    H219396   1.945   6.677   1.425  0.2786 -1.4728 -0.8786
 6478TIP3   OH219397   0.272   3.593   3.381 -0.1515  0.2958  0.3488
 6478TIP3    H119398   0.280   3.499   3.366 -0.3532  0.2623  0.4465
 6478TIP3    H219399   0.201   3.621   3.323 -0.6210  0.2469  0.8936
 6479TIP3   OH219400   5.727   6.450   0.480 -0.3812  0.2758  0.2137
 6479TIP3    H119401   5.812   6.455   0.522  0.1093  0.8592 -0.8121
 6479TIP3    H219402   5.671   6.510   0.529  0.8130  2.8066 -1.3357
 6480TIP3   OH219403   2.815   1.419   4.257  0.3129 -0.0899  0.5319
 6480TIP3    H119404   2.769   1.445   4.177 -0.0707  0.4192  0.9143
 6480TIP3    H219405   2.891   1.477   4.260 -0.8206  1.3978  1.6609
 6481TIP3   OH219406   3.883   1.966   5.223  0.5639 -0.3004 -0.3041
 6481TIP3    H119407   3.859   1.895   5.283  1.3530 -0.5839 -0.3161
 6481TIP3    H219408   3.926   2.030   5.279  1.0641 -0.4445 -0.5230
 6482TIP3   OH219409   5.103   3.590   0.279  0.1050  0.0425  0.1516
 6482TIP3    H119410   5.066   3.678   0.292 -1.2049 -0.6902  1.6562
 6482TIP3    H219411   5.148   3.570   0.361 -1.3160 -1.4388  0.6356
 6483TIP3   OH219412   5.137   5.307   4.456  0.5510  0.2724  0.3418
 6483TIP3    H119413   5.229   5.292   4.433  0.3651 -2.1937  0.9590
 6483TIP3    H219414   5.141   5.368   4.530  1.6488  0.6863 -0.0346
 6484TIP3   OH219415   6.100   0.578   0.403  0.1937  0.0331  0.1176
 6484TIP3    H119416   6.189   0.544   0.416  0.1951 -0.9505 -2.1009
 6484TIP3    H219417   6.055   0.510   0.353 -1.0037  1.6277 -1.0669
 6485TIP3   OH219418   2.028   3.200   4.911 -0.2502 -0.4459 -0.0165
 6485TIP3    H119419   1.946   3.151   4.901  0.0787 -0.7005 -1.7494
 6485TIP3    H219420   2.095   3.132   4.921 -0.1003 -0.2648  0.2165
 6486TIP3   OH219421   6.325   2.231   1.329  0.2071  0.1400 -0.1019
 6486TIP3    H119422   6.411   2.203   1.298  0.1590  0.2422 -0.3281
 6486TIP3    H219423   6.322   2.325   1.311 -0.2945 -0.0178 -0.9079
 6487TIP3   OH219424   3.103   1.790   2.423 -0.0415 -0.2040  0.1042
 6487TIP3    H119425   3.198   1.794   2.418 -0.1256  0.7204 -1.1581
 6487TIP3    H219426   3.085   1.775   2.516  1.3498 -1.9157  0.1471
 6488TIP3   OH219427   6.225   3.150   5.617  0.0610 -0.4419 -0.8524
 6488TIP3    H119428   6.250   3.165   5.526 -2.3323 -0.1844 -1.5355
 6488TIP3    H219429   6.275   3.214   5.667 -0.2523  0.9682 -2.2620
 6489TIP3   OH219430   1.138   1.558   1.279  0.0980 -0.4247  0.1880
 6489TIP3    H119431   1.107   1.574   1.189 -0.6400 -0.1076  0.4928
 6489TIP3    H219432   1.154   1.645   1.315  0.1566 -0.5408  0.4450
 6490TIP3   OH219433   5.681   0.589   3.906 -0.0511  0.3533 -0.8722
 6490TIP3    H119434   5.629   0.665   3.880  0.5735  1.2821  0.5336
 6490TIP3    H219435   5.662   0.524   3.838 -1.5776  1.3078 -1.4258
 6491TIP3   OH219436   3.090   5.839   0.837 -0.2603  0.4255 -0.1116
 6491TIP3    H119437   3.074   5.933   0.841 -0.2734  0.4253 -0.1671
 6491TIP3    H219438   3.171   5.826   0.887 -1.1047  0.2733  1.2899
 6492TIP3   OH219439   2.018   6.468   4.709  0.2518  0.0434  0.0387
 6492TIP3    H119440   1.999   6.511   4.792  2.4814  0.3060  0.4609
 6492TIP3    H219441   2.034   6.539   4.648  2.9772 -0.0705  0.5049
 6493TIP3   OH219442   3.388   0.743   1.368 -0.8072 -0.1791  0.0456
 6493TIP3    H119443   3.418   0.791   1.446  2.6880  1.1400 -1.8598
 6493TIP3    H219444   3.388   0.651   1.395  1.3101  0.1357  1.4130
 6494TIP3   OH219445   0.600   4.050   4.057  0.1332  0.5432  0.0408
 6494TIP3    H119446   0.665   4.111   4.023 -0.4473  0.8201 -0.6132
 6494TIP3    H219447   0.516   4.093   4.040 -0.2749 -0.3221 -0.2124
 6495TIP3   OH219448   6.268   2.342   4.936  0.5449 -0.2439  0.3725
 6495TIP3    H119449   6.208   2.359   5.008  0.4207  0.7889  0.0321
 6495TIP3    H219450   6.327   2.418   4.935  0.9612 -0.5659 -0.2013
 6496TIP3   OH219451   4.509   0.936   4.457 -0.2967  0.2161  0.1731
 6496TIP3    H119452   4.439   1.001   4.455 -0.6891 -0.1920  0.4114
 6496TIP3    H219453   4.589   0.988   4.466 -0.6321  0.6497  0.7728
 6497TIP3   OH219454   0.127   5.906   3.782  1.1314  0.1091 -0.3585
 6497TIP3    H119455   0.211   5.926   3.742  1.0748  0.1894 -0.4384
 6497TIP3    H219456   0.142   5.913   3.876  1.1472  0.3918 -0.3810
 6498TIP3   OH219457   0.619   6.342   2.823  0.3692  0.1206 -0.0319
 6498TIP3    H119458   0.542   6.372   2.776  1.1970 -0.4143 -1.8084
 6498TIP3    H219459   0.627   6.402   2.897 -0.8472  1.1439 -0.7007
 6499TIP3   OH219460   4.861   3.766   0.243  0.1189 -0.3597 -0.8968
 6499TIP3    H119461   4.853   3.822   0.320  1.6164 -0.8840 -0.3282
 6499TIP3    H219462   4.773   3.728   0.232 -0.4807  0.8187 -0.3220
 6500TIP3   OH219463   4.653   3.100   2.338  0.3589 -0.0585  0.0636
 6500TIP3    H119464   4.647   3.169   2.404 -1.0921 -1.3685  1.3903
 6500TIP3    H219465   4.670   3.146   2.256  2.4415  1.6101  1.3419
 6501TIP3   OH219466   5.501   2.518   3.881  0.1185  0.3332 -0.1003
 6501TIP3    H119467   5.455   2.557   3.955 -0.5872 -0.7849  0.0774
 6501TIP3    H219468   5.504   2.587   3.815  0.2657  1.1628  0.7640
 6502TIP3   OH219469   5.780   0.660   2.675  0.2000  0.2134  0.0004
 6502TIP3    H119470   5.854   0.642   2.733  0.0115  0.3398  0.2760
 6502TIP3    H219471   5.798   0.605   2.598  1.1595  1.0714 -0.4194
 6503TIP3   OH219472   5.415   4.001   4.166  0.4950  0.3222  0.3318
 6503TIP3    H119473   5.438   3.940   4.096  2.4178  0.5818  0.6698
 6503TIP3    H219474   5.495   4.008   4.218 -0.8485  0.1835  2.5384
 6504TIP3   OH219475   1.661   1.457   4.157  0.2953 -0.0902  0.0721
 6504TIP3    H119476   1.748   1.422   4.139  1.3682  2.7060 -0.8330
 6504TIP3    H219477   1.674   1.520   4.228 -0.9174  0.5271 -0.2100
 6505TIP3   OH219478   4.244   6.424   0.995 -0.2628 -0.2120  0.4441
 6505TIP3    H119479   4.172   6.382   1.041 -0.3322  0.4674  0.9588
 6505TIP3    H219480   4.201   6.478   0.928 -0.1736 -0.9342 -0.2108
 6506TIP3   OH219481   5.719   1.476   4.321 -0.1514 -0.0440 -0.5338
 6506TIP3    H119482   5.703   1.515   4.407 -0.6681  0.9613 -1.0663
 6506TIP3    H219483   5.672   1.533   4.260  0.3925 -0.6143 -1.5093
 6507TIP3   OH219484   5.120   1.782   5.527  0.4193  0.5003 -0.6591
 6507TIP3    H119485   5.059   1.720   5.487  0.3985  0.8948 -1.2456
 6507TIP3    H219486   5.171   1.728   5.588 -2.4810  0.6622  2.1640
 6508TIP3   OH219487   2.560   4.070   5.736 -0.2275  0.0816  0.4725
 6508TIP3    H119488   2.523   4.139   5.681  0.6176  0.3282  0.2089
 6508TIP3    H219489   2.633   4.035   5.685  1.9512  1.7230  2.2719
 6509TIP3   OH219490   0.372   1.692   3.566  0.7544 -0.0226  0.0995
 6509TIP3    H119491   0.448   1.708   3.510  0.6954 -0.5654 -0.1408
 6509TIP3    H219492   0.344   1.780   3.593  2.1142  0.1460  1.0757
 6510TIP3   OH219493   5.549   4.865   2.344 -0.0033 -0.1833  0.1238
 6510TIP3    H119494   5.594   4.904   2.268  0.9839 -0.3091  0.6258
 6510TIP3    H219495   5.533   4.939   2.402  1.1255 -0.3706  0.7065
 6511TIP3   OH219496   0.554   5.653   2.221  0.0040 -0.0211 -0.6820
 6511TIP3    H119497   0.503   5.618   2.148 -0.5994 -1.1724  0.2638
 6511TIP3    H219498   0.541   5.748   2.215 -1.8965 -0.2389 -0.7443
 6512TIP3   OH219499   2.615   5.490   5.744 -0.2192 -0.0324  0.1349
 6512TIP3    H119500   2.705   5.468   5.719 -0.3017 -2.6594  1.6856
 6512TIP3    H219501   2.583   5.545   5.673  1.5228 -1.8452 -2.2529
 6513TIP3   OH219502   5.197   5.305   1.066  0.5438  0.4566 -0.4215
 6513TIP3    H119503   5.102   5.311   1.052  0.7192  0.8099 -1.6098
 6513TIP3    H219504   5.210   5.332   1.157 -0.5356 -0.0471 -0.1027
 6514TIP3   OH219505   0.769   2.132   5.109 -0.0861 -0.3492  0.7105
 6514TIP3    H119506   0.735   2.191   5.176 -0.1068 -0.7419  1.0573
 6514TIP3    H219507   0.750   2.044   5.143 -0.3614 -0.5555  0.0449
 6515TIP3   OH219508   0.813   2.902   5.810  0.1925 -0.0099  0.3338
 6515TIP3    H119509   0.836   2.899   5.903 -0.4869 -0.1230  0.5020
 6515TIP3    H219510   0.852   2.822   5.774 -2.5338 -1.9153  1.2432
 6516TIP3   OH219511   6.321   1.362   2.960 -0.2107  0.1572  0.0750
 6516TIP3    H119512   6.383   1.357   3.033 -2.1177 -0.9988  1.7058
 6516TIP3    H219513   6.318   1.455   2.938  3.2765  0.0934 -1.2132
 6517TIP3   OH219514   1.241   4.038   4.419  0.2893 -0.0557 -0.0376
 6517TIP3    H119515   1.253   4.090   4.339  0.6996 -0.5333 -0.2902
 6517TIP3    H219516   1.295   3.961   4.406 -1.0087 -1.0008 -0.0629
 6518TIP3   OH219517   3.615   5.360   0.666 -0.4295 -0.1364 -0.1785
 6518TIP3    H119518   3.646   5.301   0.734 -0.5557  0.7639  0.6847
 6518TIP3    H219519   3.694   5.388   0.619 -0.4707 -1.8246 -1.3238
 6519TIP3   OH219520   7.046   3.214   4.785 -0.1421 -0.6020 -0.0232
 6519TIP3    H119521   6.974   3.276   4.789 -0.1928 -0.5128 -1.7204
 6519TIP3    H219522   7.016   3.139   4.837 -0.5758  0.2640  1.0082
 6520TIP3   OH219523   4.201   4.926   2.556 -0.0445  0.0210 -0.3064
 6520TIP3    H119524   4.188   4.859   2.488  0.0285  0.1754 -0.4744
 6520TIP3    H219525   4.189   4.879   2.638  2.0003 -0.6743 -0.3464
 6521TIP3   OH219526   0.986   5.722   0.477  0.1295  0.2996  0.1185
 6521TIP3    H119527   0.933   5.643   0.466  3.1250 -1.6663 -1.5585
 6521TIP3    H219528   1.045   5.701   0.550  1.3089  0.7508 -0.6879
 6522TIP3   OH219529   6.571   3.165   4.028  0.3708  0.0373 -0.4366
 6522TIP3    H119530   6.623   3.096   3.987  0.3381  0.9137 -2.0517
 6522TIP3    H219531   6.632   3.238   4.037  0.6288 -0.4082  2.0090
 6523TIP3   OH219532   4.380   3.795   3.140  0.6956 -0.0720 -0.6638
 6523TIP3    H119533   4.374   3.811   3.046  1.2295 -1.1290 -0.8873
 6523TIP3    H219534   4.455   3.736   3.150  0.4622 -0.2060  0.3922
 6524TIP3   OH219535   3.085   6.330   3.851  0.4009  0.0162 -0.5649
 6524TIP3    H119536   3.000   6.372   3.865 -0.6881 -1.3576 -2.5989
 6524TIP3    H219537   3.065   6.237   3.845  2.2279 -0.4497 -0.0298
 6525TIP3   OH219538   5.870   2.118   3.039  0.4311  0.3130  0.0095
 6525TIP3    H119539   5.958   2.128   3.074 -0.5635  1.4352  2.4324
 6525TIP3    H219540   5.819   2.186   3.083 -1.6457 -0.2864 -1.3325
 6526TIP3   OH219541   4.315   2.575   3.722  0.1632 -0.0336  0.2887
 6526TIP3    H119542   4.373   2.602   3.652 -0.6902  0.9780 -0.0651
 6526TIP3    H219543   4.347   2.620   3.800  0.8788 -0.8550  0.4880
 6527TIP3   OH219544   4.346   3.206   0.668  0.5627  0.1015 -0.9083
 6527TIP3    H119545   4.402   3.139   0.627 -0.5331 -0.4739 -1.4921
 6527TIP3    H219546   4.276   3.156   0.710  0.5377  0.8116 -0.0883
 6528TIP3   OH219547   2.268   5.377   2.520  0.5665 -0.0056  0.2191
 6528TIP3    H119548   2.284   5.288   2.488 -1.3316 -1.6841  3.3722
 6528TIP3    H219549   2.175   5.392   2.502  0.7409  1.1140  0.2139
 6529TIP3   OH219550   6.009   1.101   5.549 -0.0531 -0.2631 -0.2305
 6529TIP3    H119551   6.045   1.176   5.503 -0.0954  0.0918  0.3073
 6529TIP3    H219552   5.917   1.097   5.522  0.1396 -0.5839 -0.8482
 6530TIP3   OH219553   6.186   6.229   0.112  0.4252 -0.6901  0.4973
 6530TIP3    H119554   6.124   6.241   0.040 -0.8801  2.3065  1.9283
 6530TIP3    H219555   6.257   6.176   0.074 -0.5754  0.0332 -2.7153
 6531TIP3   OH219556   3.199   1.081   0.944 -0.1136 -0.1729  0.0690
 6531TIP3    H119557   3.139   1.118   0.880 -0.8108  1.9258  1.8049
 6531TIP3    H219558   3.278   1.059   0.894 -0.7798  0.9693 -1.5466
 6532TIP3   OH219559   4.079   6.258   5.792  0.2835 -0.3330  0.4082
 6532TIP3    H119560   4.038   6.319   5.731  1.8231  0.0664 -0.2998
 6532TIP3    H219561   4.099   6.311   5.869  0.6623 -0.1910  0.2161
 6533TIP3   OH219562   6.935   2.710   1.031  0.3454 -0.0126  0.3975
 6533TIP3    H119563   6.987   2.758   0.967 -1.2183  3.7044  1.6262
 6533TIP3    H219564   6.998   2.680   1.097  1.6116 -1.6006 -1.4132
 6534TIP3   OH219565   4.645   4.415   4.979 -0.3346  0.6541 -0.0327
 6534TIP3    H119566   4.723   4.471   4.976  0.1301  0.0072 -0.5723
 6534TIP3    H219567   4.636   4.390   5.070  1.0911 -0.5972 -0.1973
 6535TIP3   OH219568   6.575   2.604   1.593  0.1527 -0.3705  0.0869
 6535TIP3    H119569   6.519   2.535   1.630 -1.0178  0.0710 -0.8031
 6535TIP3    H219570   6.518   2.651   1.533  1.4127  0.3058 -0.6111
 6536TIP3   OH219571   6.888   3.509   4.805 -0.1054 -0.0867 -0.3292
 6536TIP3    H119572   6.983   3.507   4.794  0.1227 -0.5770  1.4540
 6536TIP3    H219573   6.854   3.523   4.716  1.6615  1.4621 -0.8329
 6537TIP3   OH219574   2.180   2.373   0.254  0.6133 -0.3911  0.1120
 6537TIP3    H119575   2.143   2.400   0.170  1.8830 -2.6721 -1.2863
 6537TIP3    H219576   2.258   2.427   0.264  0.2331  0.1814  0.0654
 6538TIP3   OH219577   3.933   5.556   4.304  0.0486  0.6234 -0.1331
 6538TIP3    H119578   3.936   5.502   4.383 -0.3415 -0.0228 -0.5571
 6538TIP3    H219579   4.022   5.554   4.270  0.0253  0.1976 -0.1750
 6539TIP3   OH219580   6.607   3.482   2.617 -0.3901  0.5820 -0.0634
 6539TIP3    H119581   6.655   3.564   2.630  3.8219 -1.6008  0.1134
 6539TIP3    H219582   6.570   3.462   2.703 -0.9391  1.9484  0.0368
 6540TIP3   OH219583   4.709   3.658   0.501 -0.3667 -0.6110 -0.0613
 6540TIP3    H119584   4.672   3.688   0.417  3.0645 -1.0192 -1.8664
 6540TIP3    H219585   4.687   3.565   0.505 -0.9369 -0.4921 -0.2400
 6541TIP3   OH219586   2.795   5.084   1.592 -0.1190  0.0724  0.3434
 6541TIP3    H119587   2.883   5.051   1.611  0.2424  1.7862  1.9561
 6541TIP3    H219588   2.743   5.005   1.575  1.1954 -1.1535  1.7057
 6542TIP3   OH219589   6.246   4.135   4.003  0.0388  0.1784  0.6106
 6542TIP3    H119590   6.172   4.113   4.059  0.4744  0.6774  1.4050
 6542TIP3    H219591   6.260   4.057   3.949 -0.6630 -0.1429  0.8819
 6543TIP3   OH219592   0.424   5.214   1.235 -0.7792 -0.5806  0.1257
 6543TIP3    H119593   0.429   5.130   1.281  1.5509 -0.5190  0.0825
 6543TIP3    H219594   0.369   5.195   1.158  0.8052 -2.4968 -0.6373
 6544TIP3   OH219595   1.634   6.562   5.574 -0.1796  0.3904  0.4608
 6544TIP3    H119596   1.622   6.601   5.488 -0.4699  1.1616  0.8420
 6544TIP3    H219597   1.652   6.636   5.632  1.2448 -0.2149  0.8569
 6545TIP3   OH219598   3.066   6.682   4.392 -0.2372  0.3291 -0.0901
 6545TIP3    H119599   3.055   6.773   4.365 -1.5220  0.0036 -0.7484
 6545TIP3    H219600   3.042   6.631   4.314 -1.3667 -0.5894  0.8153
 6546TIP3   OH219601   5.570   1.218   3.928  0.0748 -0.1892 -0.2672
 6546TIP3    H119602   5.654   1.234   3.884 -0.7541  1.1122 -1.4358
 6546TIP3    H219603   5.594   1.209   4.020  1.6018 -0.7932 -0.6750
 6547TIP3   OH219604   1.528   4.680   3.364 -0.8231  0.6569  0.2951
 6547TIP3    H119605   1.520   4.757   3.307 -0.9810  1.5114  1.4257
 6547TIP3    H219606   1.608   4.697   3.415 -0.5270 -0.2300  0.1377
 6548TIP3   OH219607   4.553   5.679   2.847  0.3109 -0.2252  0.2236
 6548TIP3    H119608   4.546   5.597   2.798 -1.9633 -0.7141  1.2398
 6548TIP3    H219609   4.608   5.658   2.922 -1.6805 -1.3830  1.4329
 6549TIP3   OH219610   4.516   0.606   3.247  0.3067  0.3752 -0.4540
 6549TIP3    H119611   4.517   0.687   3.194 -2.2174 -0.0725 -1.3063
 6549TIP3    H219612   4.457   0.626   3.319 -1.4856 -1.0843 -1.4391
 6550TIP3   OH219613   5.213   4.036   0.850 -0.1353  0.4943  0.1543
 6550TIP3    H119614   5.232   4.062   0.760  1.3114 -2.1297 -0.3987
 6550TIP3    H219615   5.292   3.990   0.878 -2.2822 -2.9857  1.0282
 6551TIP3   OH219616   4.847   0.849   1.847 -0.2326  0.1618  0.2711
 6551TIP3    H119617   4.861   0.766   1.891  0.3305 -0.2268 -0.6004
 6551TIP3    H219618   4.936   0.878   1.824 -0.4756  0.6434 -0.0723
 6552TIP3   OH219619   2.086   1.734   2.606 -0.1006  0.2787  0.2051
 6552TIP3    H119620   2.082   1.647   2.644 -0.2176 -0.8639 -2.2307
 6552TIP3    H219621   2.003   1.775   2.630  0.0201 -0.1938  1.4977
 6553TIP3   OH219622   2.552   2.789   2.703 -0.7386  0.0192 -0.7818
 6553TIP3    H119623   2.566   2.883   2.710  0.9075 -0.2614  0.0582
 6553TIP3    H219624   2.610   2.750   2.768 -2.6611 -1.5241  0.1350
 6554TIP3   OH219625   3.061   4.375   3.559  0.1889  0.3186 -0.1991
 6554TIP3    H119626   3.148   4.401   3.529  0.3117 -0.1874 -0.3003
 6554TIP3    H219627   3.038   4.301   3.502  0.0990 -0.1607  0.4443
 6555TIP3   OH219628   7.023   1.658   2.686 -0.3032  0.4290  0.0197
 6555TIP3    H119629   7.101   1.631   2.638 -1.8531 -3.2508 -0.7855
 6555TIP3    H219630   7.056   1.689   2.770  2.0542 -1.0240 -0.2833
 6556TIP3   OH219631   5.594   5.442   5.204  0.2847 -0.5686 -0.0146
 6556TIP3    H119632   5.626   5.526   5.170  0.7994 -0.4263  0.7749
 6556TIP3    H219633   5.514   5.464   5.252  0.2920 -0.5643 -0.0046
 6557TIP3   OH219634   7.208   3.057   5.138 -0.9132  0.6283 -0.3566
 6557TIP3    H119635   7.147   3.023   5.072 -0.2668  0.9778 -1.1523
 6557TIP3    H219636   7.210   2.989   5.206 -1.0079 -0.0998 -1.0660
 6558TIP3   OH219637   5.076   4.284   3.605  0.1485 -0.5334  0.2483
 6558TIP3    H119638   5.114   4.353   3.659  0.4732  0.3213 -1.0470
 6558TIP3    H219639   5.001   4.325   3.562  0.5485 -0.8801 -0.7971
 6559TIP3   OH219640   5.422   0.964   0.410 -0.2719  0.7732 -0.1690
 6559TIP3    H119641   5.386   1.052   0.422 -0.8883  0.4037  0.7590
 6559TIP3    H219642   5.463   0.942   0.494 -1.8568 -0.5931  0.3085
 6560TIP3   OH219643   3.471   5.279   2.338  0.3755  0.2515  0.6655
 6560TIP3    H119644   3.434   5.213   2.397  1.9859 -0.5075  0.9058
 6560TIP3    H219645   3.467   5.238   2.251  1.5888 -0.3106  0.8473
 6561TIP3   OH219646   1.257   6.564   0.849 -0.3672 -0.1112 -0.2336
 6561TIP3    H119647   1.197   6.491   0.833  0.5002 -1.1399  0.9536
 6561TIP3    H219648   1.257   6.613   0.767 -3.7732  0.6966  0.0953
 6562TIP3   OH219649   0.401   4.737   4.316  0.1857  1.0828 -0.1077
 6562TIP3    H119650   0.435   4.735   4.226  0.9065  1.2186  0.1586
 6562TIP3    H219651   0.444   4.663   4.359 -1.3186  0.0558 -0.2682
 6563TIP3   OH219652   5.951   5.525   2.119 -0.2178  0.2178  0.2360
 6563TIP3    H119653   5.886   5.551   2.185 -0.4531 -1.8939  0.8901
 6563TIP3    H219654   5.916   5.560   2.037 -1.5875  0.1292  0.7545
 6564TIP3   OH219655   5.604   2.887   2.868  0.2347  0.2704  0.0281
 6564TIP3    H119656   5.599   2.899   2.963  0.3414  0.2191  0.0408
 6564TIP3    H219657   5.631   2.795   2.857 -0.4535  0.0791 -0.0627
 6565TIP3   OH219658   5.929   5.806   3.478 -0.4932  0.2287  0.1644
 6565TIP3    H119659   5.891   5.839   3.560  1.6000 -0.4473  1.4708
 6565TIP3    H219660   6.013   5.769   3.503  0.8027  1.0935 -2.4903
 6566TIP3   OH219661   4.039   5.404   0.672 -0.3972  0.0931  0.6205
 6566TIP3    H119662   3.996   5.371   0.751 -0.2153  0.6454  0.9592
 6566TIP3    H219663   4.021   5.338   0.605  0.2118 -0.8320  1.3455
 6567TIP3   OH219664   0.590   3.421   3.294  0.2919 -0.0771  0.2664
 6567TIP3    H119665   0.676   3.384   3.277 -0.0581 -0.7269 -0.1441
 6567TIP3    H219666   0.589   3.504   3.247  0.5226 -0.2989 -0.1304
 6568TIP3   OH219667   6.906   4.580   2.134  0.4340  0.3529  0.2427
 6568TIP3    H119668   6.926   4.535   2.052  0.7761 -0.0447  0.5370
 6568TIP3    H219669   6.964   4.539   2.199  0.5325  1.0014  0.5828
 6569TIP3   OH219670   0.168   6.778   4.035 -0.6991 -0.2945 -0.0632
 6569TIP3    H119671   0.103   6.827   4.086 -0.6053 -0.5503  0.3049
 6569TIP3    H219672   0.227   6.741   4.100 -0.4685 -0.4722 -0.3690
 6570TIP3   OH219673   6.914   2.856   5.257 -0.1313 -0.4661 -0.4238
 6570TIP3    H119674   6.861   2.933   5.237  0.0942 -0.6228 -1.6971
 6570TIP3    H219675   6.930   2.862   5.351 -1.2590  0.3032 -0.2589
 6571TIP3   OH219676   3.861   6.391   2.943  0.3911  0.3415 -0.4557
 6571TIP3    H119677   3.821   6.353   2.865  0.6567 -0.2339 -0.3223
 6571TIP3    H219678   3.949   6.417   2.916 -0.3192  2.3314 -0.9521
 6572TIP3   OH219679   3.694   5.638   1.560  0.3734 -0.0175  0.3802
 6572TIP3    H119680   3.679   5.723   1.519  1.4561 -0.1448 -0.3242
 6572TIP3    H219681   3.717   5.658   1.651  0.0466  0.4076  0.3690
 6573TIP3   OH219682   0.397   1.529   4.106  0.1962  0.4606  0.4538
 6573TIP3    H119683   0.490   1.521   4.126  0.7592 -0.4967 -2.1532
 6573TIP3    H219684   0.381   1.624   4.106  0.8836  0.6099  1.8646
 6574TIP3   OH219685   1.184   6.241   0.174  0.2968 -0.3691  0.1535
 6574TIP3    H119686   1.241   6.260   0.100  0.2669 -0.2679  0.1562
 6574TIP3    H219687   1.099   6.279   0.150  0.3936  0.0251  0.4111
 6575TIP3   OH219688   5.997   1.974   0.329  0.5256  0.9314 -0.8953
 6575TIP3    H119689   5.988   1.885   0.296 -0.3886  0.4848  0.4594
 6575TIP3    H219690   5.929   2.024   0.283 -1.4299  0.0922  0.9146
 6576TIP3   OH219691   5.967   2.127   3.813 -0.1739 -0.2220  0.2545
 6576TIP3    H119692   6.045   2.087   3.852  0.9464  1.6063  0.0270
 6576TIP3    H219693   5.894   2.083   3.855  0.8775 -3.4870 -1.0038
 6577TIP3   OH219694   2.658   2.235   0.628  0.4922 -0.0386  0.1153
 6577TIP3    H119695   2.576   2.230   0.677  0.0232  0.7976 -0.5436
 6577TIP3    H219696   2.718   2.280   0.687  0.4130 -0.4476  0.5137
 6578TIP3   OH219697   4.937   4.113   4.331  0.5762 -0.1814  0.2154
 6578TIP3    H119698   4.929   4.197   4.378  1.0709 -0.6331  1.1323
 6578TIP3    H219699   5.031   4.100   4.322  0.4899 -0.4005 -0.3732
 6579TIP3   OH219700   3.284   6.588   2.844  0.3442 -0.3979  0.0257
 6579TIP3    H119701   3.197   6.627   2.853  1.6667  2.4895  1.5123
 6579TIP3    H219702   3.299   6.544   2.928  1.5510  2.0169  1.1534
 6580TIP3   OH219703   3.362   1.719   2.462  0.4357  0.1468  0.2253
 6580TIP3    H119704   3.409   1.729   2.544 -1.5859  2.7583  1.2320
 6580TIP3    H219705   3.315   1.636   2.470  1.7898 -0.5943  0.7967
 6581TIP3   OH219706   0.330   4.104   2.214 -0.6741 -0.4789 -0.2084
 6581TIP3    H119707   0.288   4.020   2.235  0.5266 -1.1473 -0.3628
 6581TIP3    H219708   0.390   4.083   2.142  1.8149 -0.1860  1.6368
 6582TIP3   OH219709   2.076   5.261   0.726  0.1408  0.0119  0.5015
 6582TIP3    H119710   2.167   5.287   0.710  0.1669  0.3084  1.0992
 6582TIP3    H219711   2.030   5.284   0.646  0.6327 -0.3389  0.1119
 6583TIP3   OH219712   2.938   0.956   1.026 -0.1521 -0.4123 -0.0297
 6583TIP3    H119713   2.940   0.949   1.122  0.0763  0.9080  0.0772
 6583TIP3    H219714   3.029   0.978   1.003 -0.4862  0.6263 -0.4143
 6584TIP3   OH219715   3.361   3.716   2.524 -0.2697 -0.0941 -0.8345
 6584TIP3    H119716   3.410   3.793   2.497 -0.9112  0.7504  0.3605
 6584TIP3    H219717   3.269   3.738   2.505 -0.5329 -0.2424  0.1960
 6585TIP3   OH219718   1.908   6.020   0.393  0.1907  0.1955 -0.2674
 6585TIP3    H119719   1.996   6.052   0.372 -0.5732  1.9440 -0.9684
 6585TIP3    H219720   1.893   5.949   0.331  0.7060  0.6119 -0.8781
 6586TIP3   OH219721   3.892   6.163   5.022  0.1379 -0.0482  0.3886
 6586TIP3    H119722   3.918   6.249   5.056 -2.5608  1.2643 -0.5737
 6586TIP3    H219723   3.954   6.146   4.951 -0.9211  2.5558 -1.3210
 6587TIP3   OH219724   6.123   2.989   1.556 -0.2269  0.1890  0.0057
 6587TIP3    H119725   6.076   2.987   1.639 -0.8571  0.5332 -0.3280
 6587TIP3    H219726   6.056   3.015   1.492  0.8580  2.7774 -0.1878
 6588TIP3   OH219727   3.905   3.729   2.031 -0.3397 -0.4853  0.0593
 6588TIP3    H119728   3.887   3.635   2.038 -0.6790 -0.4670 -0.4637
 6588TIP3    H219729   3.842   3.760   1.966  0.3670 -0.0675 -0.4462
 6589TIP3   OH219730   2.489   1.490   3.356  0.3226  0.4910 -0.0915
 6589TIP3    H119731   2.568   1.436   3.344 -0.2993 -0.5384  0.2802
 6589TIP3    H219732   2.455   1.503   3.267 -1.0457 -2.1407 -0.0607
 6590TIP3   OH219733   0.429   5.032   4.773  0.4008 -0.5725 -0.1798
 6590TIP3    H119734   0.473   5.009   4.691 -1.5407 -0.5724 -1.2736
 6590TIP3    H219735   0.430   4.950   4.823  1.3129 -0.6631 -0.3264
 6591TIP3   OH219736   1.783   1.218   3.098 -0.1500  0.4541  0.0920
 6591TIP3    H119737   1.863   1.193   3.145  0.5144 -0.5701 -1.5137
 6591TIP3    H219738   1.752   1.297   3.143 -0.5222 -1.3612  3.3403
 6592TIP3   OH219739   2.115   5.996   4.815 -0.0203  0.2696  0.5522
 6592TIP3    H119740   2.164   5.915   4.833 -2.5562 -1.4009  0.4611
 6592TIP3    H219741   2.027   5.966   4.794 -0.3979  2.9364 -2.3141
 6593TIP3   OH219742   6.764   1.759   3.956 -0.3462  0.3321  0.1085
 6593TIP3    H119743   6.699   1.821   3.924 -1.9267 -1.6664 -0.7499
 6593TIP3    H219744   6.782   1.702   3.881  1.8552  0.3361  0.5485
 6594TIP3   OH219745   4.770   2.115   0.089 -0.1561  0.3214  0.0598
 6594TIP3    H119746   4.746   2.092   0.179 -0.1123  0.4130  0.0944
 6594TIP3    H219747   4.864   2.130   0.092 -0.1689  0.4119  0.0165
 6595TIP3   OH219748   6.826   6.315   0.434  0.0877 -0.1700  0.1873
 6595TIP3    H119749   6.760   6.266   0.484  0.5780 -0.3049  0.7199
 6595TIP3    H219750   6.900   6.324   0.495  0.5874 -0.0800 -0.4181
 6596TIP3   OH219751   0.488   1.294   3.781 -0.6439  0.8838  0.2292
 6596TIP3    H119752   0.524   1.257   3.861 -0.1686 -0.1735 -0.4386
 6596TIP3    H219753   0.522   1.383   3.778  1.0986  0.2624  0.1580
 6597TIP3   OH219754   2.942   2.334   5.688 -0.2790  0.2529 -0.0710
 6597TIP3    H119755   2.862   2.357   5.641  0.0562 -0.3490 -0.9579
 6597TIP3    H219756   2.992   2.282   5.625  0.4690 -0.0137  0.7368
 6598TIP3   OH219757   4.089   5.852   4.424  0.2106 -0.7319  0.1438
 6598TIP3    H119758   4.025   5.888   4.363  0.3898 -1.3017 -0.3869
 6598TIP3    H219759   4.164   5.911   4.416  0.4391 -1.1082 -0.5977
 6599TIP3   OH219760   5.405   0.123   2.164  0.0812 -0.5002  0.5962
 6599TIP3    H119761   5.407   0.219   2.158 -2.6172 -0.2888  1.9117
 6599TIP3    H219762   5.462   0.103   2.238  1.1983 -0.0121 -0.0994
 6600TIP3   OH219763   6.433   2.322   0.264  0.3933 -0.6224  0.1381
 6600TIP3    H119764   6.527   2.337   0.276  0.4246  0.6563 -1.3261
 6600TIP3    H219765   6.427   2.273   0.182 -0.2399  0.4428 -0.4876
 6601TIP3   OH219766   7.194   2.972   3.963  0.1347  0.2804 -0.6659
 6601TIP3    H119767   7.137   2.940   3.893 -1.4908 -1.3732  1.2839
 6601TIP3    H219768   7.136   2.984   4.038  2.3101 -1.7569  1.5226
 6602TIP3   OH219769   2.003   1.505   2.795 -0.2734  0.2846 -0.2107
 6602TIP3    H119770   2.004   1.585   2.847 -0.6865  0.8722 -1.0918
 6602TIP3    H219771   2.090   1.467   2.808 -0.3521  0.4440  0.8598
 6603TIP3   OH219772   3.284   4.828   4.856  0.0635  0.0418 -0.1171
 6603TIP3    H119773   3.368   4.872   4.844  0.1038 -0.0431 -0.1451
 6603TIP3    H219774   3.243   4.875   4.929 -0.0833  0.4064 -0.4312
 6604TIP3   OH219775   2.479   5.759   1.340  0.3850 -0.3933 -0.8069
 6604TIP3    H119776   2.395   5.759   1.294  0.6883 -2.1152 -1.4554
 6604TIP3    H219777   2.493   5.850   1.365 -2.9152 -0.3805  1.6834
 6605TIP3   OH219778   3.318   0.003   5.854  0.0735  0.0591  0.1979
 6605TIP3    H119779   3.315   0.084   5.904 -0.7351 -0.3516  0.8388
 6605TIP3    H219780   3.387   0.017   5.789  0.0647  1.1819  0.4199
 6606TIP3   OH219781   6.546   4.527   2.628  0.5162  0.2079 -0.1219
 6606TIP3    H119782   6.573   4.491   2.713  1.7076 -1.0463 -0.9777
 6606TIP3    H219783   6.455   4.553   2.641  0.3166 -1.0112  1.2198
 6607TIP3   OH219784   4.826   3.611   3.238 -0.3952 -0.1768  0.2981
 6607TIP3    H119785   4.786   3.691   3.272  1.3371  1.2499 -0.9018
 6607TIP3    H219786   4.875   3.576   3.313 -1.8372 -0.6500  1.0758
 6608TIP3   OH219787   6.689   2.213   2.859 -0.6078  0.0361  0.7561
 6608TIP3    H119788   6.673   2.161   2.780  0.1107 -0.2944  0.8222
 6608TIP3    H219789   6.618   2.188   2.918 -0.9558  0.0305  0.3400
 6609TIP3   OH219790   2.260   5.197   0.026 -0.2262 -0.2612  0.1392
 6609TIP3    H119791   2.353   5.208   0.044 -0.4385 -0.5005  1.5142
 6609TIP3    H219792   2.220   5.276   0.063 -0.7189 -0.9107  1.0381
 6610TIP3   OH219793   5.235   1.881   3.223 -1.0856  0.7889 -0.3877
 6610TIP3    H119794   5.262   1.973   3.216  2.5495 -0.2234 -1.7933
 6610TIP3    H219795   5.312   1.831   3.197 -2.0400 -2.8048  2.8174
 6611TIP3   OH219796   4.437   0.346   3.415 -0.1663 -0.0894 -0.2073
 6611TIP3    H119797   4.476   0.430   3.388  1.9881 -1.4332 -1.6251
 6611TIP3    H219798   4.422   0.355   3.509  2.1372  1.1443  0.1121
 6612TIP3   OH219799   7.078   5.388   1.255 -0.0423  0.4271  0.2584
 6612TIP3    H119800   7.098   5.364   1.164  0.8385 -0.5182  0.6828
 6612TIP3    H219801   6.985   5.369   1.265  0.0956 -0.4904 -0.1391
 6613TIP3   OH219802   0.275   3.656   5.858 -0.1142 -0.8555  0.0197
 6613TIP3    H119803   0.316   3.726   5.806 -1.3056  0.2959  0.5679
 6613TIP3    H219804   0.234   3.600   5.793 -3.4597  1.7392 -0.4157
 6614TIP3   OH219805   2.239   2.762   5.672  0.0815 -0.6817  0.0868
 6614TIP3    H119806   2.232   2.840   5.727 -0.6874  0.1834 -1.1949
 6614TIP3    H219807   2.296   2.703   5.722  1.5561  1.0982  0.6168
 6615TIP3   OH219808   4.531   2.681   4.256  0.3526  0.1470  0.0622
 6615TIP3    H119809   4.519   2.639   4.341 -0.4962  2.1100  0.9921
 6615TIP3    H219810   4.465   2.751   4.254  1.5048  1.2873 -1.4580
 6616TIP3   OH219811   0.996   1.179   3.737 -0.6884 -0.3111  0.1059
 6616TIP3    H119812   1.062   1.110   3.739  0.0497  0.3396 -1.1329
 6616TIP3    H219813   1.021   1.235   3.665  0.0837  2.5923  2.4363
 6617TIP3   OH219814   1.049   4.677   2.872 -0.2299  1.0150  0.3795
 6617TIP3    H119815   0.978   4.696   2.932 -1.1992  1.3987 -0.8595
 6617TIP3    H219816   1.129   4.698   2.922 -0.6497 -2.8740  3.1473
 6618TIP3   OH219817   6.080   4.036   5.638  0.5072 -0.3711  0.0661
 6618TIP3    H119818   6.098   3.948   5.605 -0.1444 -0.1428 -0.9589
 6618TIP3    H219819   5.996   4.060   5.598  0.4200  0.5160  0.7386
 6619TIP3   OH219820   4.060   6.513   3.144  0.4774  0.0278  0.1317
 6619TIP3    H119821   4.081   6.422   3.123  1.7028  0.3829 -0.2164
 6619TIP3    H219822   3.973   6.508   3.184 -0.8587 -0.9513 -2.6811
 6620TIP3   OH219823   4.073   0.962   4.409  0.0048 -0.1592  0.3197
 6620TIP3    H119824   4.121   1.024   4.354  0.6138 -0.2468  0.7392
 6620TIP3    H219825   4.047   1.012   4.486  1.1112 -0.5687  0.9924
 6621TIP3   OH219826   0.480   1.423   2.192 -0.1989 -0.3985  0.0121
 6621TIP3    H119827   0.444   1.498   2.144  0.6298  0.0432  0.0671
 6621TIP3    H219828   0.496   1.458   2.280  3.0441  0.2754 -0.7434
 6622TIP3   OH219829   4.731   4.448   4.651 -0.3857 -0.1391  0.2933
 6622TIP3    H119830   4.683   4.516   4.699  1.3739  0.3599  1.4491
 6622TIP3    H219831   4.673   4.372   4.653 -1.6123  0.7704  0.6228
 6623TIP3   OH219832   6.708   1.903   3.722 -0.2254  0.0407 -0.2188
 6623TIP3    H119833   6.737   1.939   3.638  1.0895 -2.0748 -0.7758
 6623TIP3    H219834   6.636   1.844   3.699  0.1799 -0.5933  0.1097
 6624TIP3   OH219835   6.731   2.958   1.017  0.4221  0.1929  0.1274
 6624TIP3    H119836   6.685   3.041   1.006  0.9912  0.4039 -0.7821
 6624TIP3    H219837   6.714   2.911   0.935  0.8874 -0.1856  0.2467
 6625TIP3   OH219838   6.659   4.427   2.857 -0.0231  0.1822  0.2961
 6625TIP3    H119839   6.604   4.496   2.895 -0.0425  0.2050  0.2259
 6625TIP3    H219840   6.691   4.378   2.932  0.1245  0.3705  0.3555
 6626TIP3   OH219841   0.508   1.539   4.971 -0.0186 -0.4769 -0.7393
 6626TIP3    H119842   0.554   1.477   5.028 -2.3709 -2.0817 -0.4269
 6626TIP3    H219843   0.419   1.504   4.964 -1.2236  2.3747 -1.3544
 6627TIP3   OH219844   5.050   4.281   3.292 -0.2057 -0.1055  0.1318
 6627TIP3    H119845   4.963   4.264   3.257 -0.5517 -0.7300  1.2289
 6627TIP3    H219846   5.095   4.197   3.288  0.4989  0.2994 -0.7936
 6628TIP3   OH219847   4.680   2.012   5.887 -0.1021  0.2359 -0.0472
 6628TIP3    H119848   4.665   2.085   5.827  0.5499  0.3895 -0.0247
 6628TIP3    H219849   4.775   2.010   5.899 -0.1428 -0.4465  0.1633
 6629TIP3   OH219850   1.836   5.012   3.449 -0.2997  0.4113  0.1204
 6629TIP3    H119851   1.791   4.972   3.524 -0.9642  1.1904  0.1581
 6629TIP3    H219852   1.765   5.046   3.395  0.0807 -1.3902 -1.6384
 6630TIP3   OH219853   4.670   1.563   1.056 -0.1417  0.8800 -0.2413
 6630TIP3    H119854   4.691   1.483   1.008  0.9701  1.9641 -1.6509
 6630TIP3    H219855   4.690   1.543   1.147 -0.0122 -0.4816 -0.5585
 6631TIP3   OH219856   3.720   2.037   0.635 -0.3483  0.1786  0.2494
 6631TIP3    H119857   3.753   2.078   0.554 -0.7605  0.6176  0.3016
 6631TIP3    H219858   3.783   1.967   0.653 -1.1346 -1.0099 -1.3591
 6632TIP3   OH219859   4.758   1.945   4.095  0.1943  0.3492  0.1549
 6632TIP3    H119860   4.691   1.963   4.161  2.0599 -0.1451  2.2964
 6632TIP3    H219861   4.758   1.850   4.086  0.3650  0.3728 -0.1046
 6633TIP3   OH219862   5.960   1.362   2.469  0.2676 -0.4286 -0.1952
 6633TIP3    H119863   5.914   1.321   2.543  0.0104  0.0245 -0.0997
 6633TIP3    H219864   5.890   1.385   2.408  0.4815 -0.8228 -0.5966
 6634TIP3   OH219865   3.814   5.028   0.894  0.4294  0.0019  0.2099
 6634TIP3    H119866   3.858   4.947   0.920 -0.1875 -0.1276  0.8691
 6634TIP3    H219867   3.769   5.005   0.812  1.3600  0.0681 -0.3388
 6635TIP3   OH219868   2.008   4.790   3.331 -0.5373 -0.7848 -0.4031
 6635TIP3    H119869   1.989   4.874   3.374  0.0375 -1.0949  0.4872
 6635TIP3    H219870   2.093   4.764   3.366 -1.6684 -2.8146  1.0803
 6636TIP3   OH219871   0.918   2.284   0.961 -0.2007  0.3375 -0.3129
 6636TIP3    H119872   1.010   2.264   0.943  0.6212  1.8177  1.8752
 6636TIP3    H219873   0.888   2.330   0.883  0.5485 -1.1066 -1.5177
 6637TIP3   OH219874   2.895   4.947   1.917 -0.6350  0.5653 -0.1716
 6637TIP3    H119875   2.922   5.033   1.886 -1.5558  1.2413  0.8573
 6637TIP3    H219876   2.958   4.887   1.877 -0.3756  1.6269 -1.4366
 6638TIP3   OH219877   2.871   3.108   2.536 -0.3028  0.2095  0.2173
 6638TIP3    H119878   2.907   3.181   2.486 -0.5473  1.0542  1.2499
 6638TIP3    H219879   2.910   3.030   2.495  1.1228  0.9809  0.0246
 6639TIP3   OH219880   4.989   0.363   2.091 -0.1382  0.1384  0.1471
 6639TIP3    H119881   5.052   0.410   2.145 -0.4179  0.5924  0.0790
 6639TIP3    H219882   5.043   0.305   2.037  0.3287  1.3998 -0.7935
 6640TIP3   OH219883   3.738   4.695   3.621 -0.0049  0.6753 -0.2549
 6640TIP3    H119884   3.686   4.769   3.653 -0.6532  0.1594 -0.0795
 6640TIP3    H219885   3.811   4.736   3.574 -1.4117  1.4564 -1.8996
 6641TIP3   OH219886   0.761   1.244   4.157 -0.1516  1.0772  0.1949
 6641TIP3    H119887   0.676   1.221   4.122 -1.3580  2.3045  2.0881
 6641TIP3    H219888   0.745   1.261   4.250  2.6082 -0.9558  1.1734
 6642TIP3   OH219889   4.368   2.164   2.541  0.4140 -0.5172  0.0666
 6642TIP3    H119890   4.399   2.147   2.630  1.7712 -0.5663 -0.3987
 6642TIP3    H219891   4.386   2.083   2.494  0.7107 -0.1054 -0.5264
 6643TIP3   OH219892   4.081   5.337   2.646 -0.2097  0.2956 -0.1023
 6643TIP3    H119893   3.993   5.309   2.673  0.3279 -0.4409  0.9152
 6643TIP3    H219894   4.100   5.286   2.567  0.0672 -0.9856  0.7643
 6644TIP3   OH219895   3.004   0.296   5.496  0.8894  0.2350  0.0207
 6644TIP3    H119896   3.064   0.226   5.523 -0.1823 -0.7787 -0.1259
 6644TIP3    H219897   2.979   0.339   5.578 -1.1448 -1.8398  0.6124
 6645TIP3   OH219898   3.095   1.166   2.951  1.1122 -0.0887  0.3677
 6645TIP3    H119899   3.122   1.154   3.042  0.9029  0.8695  0.5681
 6645TIP3    H219900   3.141   1.097   2.903  0.4343 -1.2538  1.3344
 6646TIP3   OH219901   2.345   3.475   1.598  0.1549  0.2557  0.0641
 6646TIP3    H119902   2.254   3.451   1.617  0.5639  1.1572  4.0639
 6646TIP3    H219903   2.345   3.571   1.600  0.9620  0.3052 -1.4232
 6647TIP3   OH219904   6.786   5.495   1.132  0.3191 -0.0750  0.1693
 6647TIP3    H119905   6.767   5.401   1.131 -0.0561 -0.0097  0.6169
 6647TIP3    H219906   6.750   5.528   1.050  3.8654 -0.9370 -1.9221
 6648TIP3   OH219907   6.208   1.981   3.875 -0.6652  0.0397 -0.6239
 6648TIP3    H119908   6.230   1.951   3.963 -1.7359  1.3979  0.1512
 6648TIP3    H219909   6.165   1.906   3.834  1.2558 -1.1584 -0.6204
 6649TIP3   OH219910   0.067   5.914   2.746 -0.2228 -0.2262  0.4762
 6649TIP3    H119911   0.045   5.825   2.772 -0.3657 -0.4553 -0.4165
 6649TIP3    H219912   0.150   5.932   2.791 -0.8265 -0.3400  1.6679
 6650TIP3   OH219913   3.285   2.805   4.241  0.1813  0.1433 -0.1975
 6650TIP3    H119914   3.276   2.736   4.307  1.2914  0.9327  0.8367
 6650TIP3    H219915   3.196   2.820   4.210 -0.3251 -0.5175  0.8557
 6651TIP3   OH219916   1.101   5.198   5.188 -0.7423  0.1098  0.2442
 6651TIP3    H119917   1.077   5.133   5.254 -0.4765  0.1323  0.3644
 6651TIP3    H219918   1.023   5.253   5.178 -1.3494 -0.8813 -0.6469
 6652TIP3   OH219919   0.255   2.358   1.191 -0.0184 -0.3869  0.4459
 6652TIP3    H119920   0.276   2.351   1.098 -0.5799  1.5098  0.1230
 6652TIP3    H219921   0.314   2.297   1.234  1.6857  0.1800 -0.9787
 6653TIP3   OH219922   0.086   1.166   0.953 -0.2477  0.3317  0.5505
 6653TIP3    H119923   0.130   1.215   0.883  0.6356 -1.5679 -0.3126
 6653TIP3    H219924   0.158   1.125   1.002 -0.9629 -1.6217  0.0442
 6654TIP3   OH219925   1.277   0.511   2.929 -0.3839 -0.3976 -0.0454
 6654TIP3    H119926   1.196   0.529   2.881 -0.3741  0.5935  0.2851
 6654TIP3    H219927   1.248   0.463   3.007 -0.5633 -0.6855 -0.2835
 6655TIP3   OH219928   6.276   6.317   2.464 -0.7363  0.3308  0.2506
 6655TIP3    H119929   6.285   6.354   2.552 -0.4383  0.1236  0.3075
 6655TIP3    H219930   6.246   6.227   2.478 -0.5858  0.2641  0.1433
 6656TIP3   OH219931   2.948   3.181   1.558  0.1094 -0.0033  0.0574
 6656TIP3    H119932   2.929   3.170   1.651  1.1918 -1.5474  0.1393
 6656TIP3    H219933   2.907   3.105   1.516 -0.5753  0.8053 -0.7687
 6657TIP3   OH219934   2.098   0.065   2.233  0.2226 -0.4575 -0.0053
 6657TIP3    H119935   2.070   0.156   2.242 -2.4499 -1.0331 -1.4134
 6657TIP3    H219936   2.185   0.070   2.193 -0.3850  1.5083 -1.2003
 6658TIP3   OH219937   1.399   3.525   5.069 -0.0828  1.0325 -0.1976
 6658TIP3    H119938   1.438   3.537   4.983 -0.6587  1.3368 -0.4223
 6658TIP3    H219939   1.405   3.612   5.110  1.3010  0.6122  0.5535
 6659TIP3   OH219940   7.174   5.133   1.078 -0.1314 -0.0634 -0.0303
 6659TIP3    H119941   7.249   5.180   1.042  0.0219 -0.2545  0.0372
 6659TIP3    H219942   7.116   5.120   1.004  0.8988 -1.8671 -0.5863
 6660TIP3   OH219943   3.448   0.877   1.604  0.4502 -0.2934 -0.0782
 6660TIP3    H119944   3.400   0.870   1.686 -0.0314  0.9203 -0.2335
 6660TIP3    H219945   3.540   0.867   1.630  0.2745 -0.3435  0.5504
 6661TIP3   OH219946   4.720   5.235   4.437 -0.0971 -0.0711  0.0193
 6661TIP3    H119947   4.650   5.270   4.492 -0.4951 -0.7108 -0.0632
 6661TIP3    H219948   4.758   5.312   4.395 -0.5021  0.3208  0.3497
 6662TIP3   OH219949   3.100   1.388   4.002 -0.1451  0.5715 -0.2303
 6662TIP3    H119950   3.063   1.302   3.980 -0.2911  0.6977 -0.4899
 6662TIP3    H219951   3.039   1.450   3.963  1.1558  0.7822 -2.1092
 6663TIP3   OH219952   3.399   2.465   4.451 -0.0624  0.3017  0.3214
 6663TIP3    H119953   3.475   2.472   4.394 -0.5107 -1.7953 -0.5993
 6663TIP3    H219954   3.344   2.539   4.427  1.6404  1.9097  1.0529
 6664TIP3   OH219955   3.498   0.415   5.882 -0.1321 -0.5221  0.2025
 6664TIP3    H119956   3.430   0.391   5.818  0.0013  2.1614 -1.0967
 6664TIP3    H219957   3.564   0.461   5.830  1.9449 -1.6412  1.7095
 6665TIP3   OH219958   0.832   3.532   0.728 -0.7724  0.4408  0.3040
 6665TIP3    H119959   0.752   3.553   0.775 -1.6451  1.4250 -1.4977
 6665TIP3    H219960   0.883   3.613   0.729 -0.6127  0.3497 -0.0539
 6666TIP3   OH219961   2.571   3.092   5.769  0.3010 -0.2847 -0.0953
 6666TIP3    H119962   2.635   3.034   5.810 -0.0983 -0.8818 -0.2961
 6666TIP3    H219963   2.623   3.163   5.732  0.7266 -0.1207  0.8109
 6667TIP3   OH219964   7.052   5.811   4.905 -0.1221 -0.6224  0.8938
 6667TIP3    H119965   7.144   5.784   4.910  0.3018  0.7197  0.6531
 6667TIP3    H219966   7.034   5.850   4.990 -0.5546 -1.1174  1.0315
 6668TIP3   OH219967   2.051   6.561   5.036 -0.1564 -0.4251  0.0559
 6668TIP3    H119968   2.091   6.648   5.047  2.4156 -1.5515  0.4592
 6668TIP3    H219969   2.048   6.525   5.124 -0.3991 -1.0611 -0.2069
 6669TIP3   OH219970   4.644   4.103   3.083 -0.5291 -0.2186 -0.4073
 6669TIP3    H119971   4.576   4.066   3.027  0.6365 -1.0709 -1.3061
 6669TIP3    H219972   4.622   4.073   3.171 -1.8593  0.3585 -0.5165
 6670TIP3   OH219973   0.758   6.810   1.192 -0.4695 -0.3122 -0.7012
 6670TIP3    H119974   0.773   6.720   1.221 -0.7568 -0.0928  0.1707
 6670TIP3    H219975   0.805   6.864   1.256 -1.0761  0.1866 -0.6658
 6671TIP3   OH219976   0.060   5.171   3.526  0.0723 -0.0276 -0.0214
 6671TIP3    H119977   0.077   5.215   3.610  0.7633 -0.6525  0.1759
 6671TIP3    H219978   0.145   5.135   3.500 -0.0712  0.4108 -1.1418
 6672TIP3   OH219979   6.036   3.614   0.293  0.1928  0.1012 -0.0240
 6672TIP3    H119980   5.946   3.584   0.286 -0.1504  1.3342 -1.1549
 6672TIP3    H219981   6.079   3.547   0.346 -1.6933  0.2160  1.7710
 6673TIP3   OH219982   1.909   2.024   2.264 -0.2665  0.1468  0.2801
 6673TIP3    H119983   1.924   2.055   2.175 -1.6254  1.9210  0.6204
 6673TIP3    H219984   1.889   2.103   2.314 -0.6845 -0.9438  1.9151
 6674TIP3   OH219985   5.804   6.684   4.646  0.7929  0.1857  0.1804
 6674TIP3    H119986   5.761   6.694   4.561  0.4504  1.2134  0.4679
 6674TIP3    H219987   5.736   6.706   4.710  1.8715  2.4754  0.6372
 6675TIP3   OH219988   1.205   1.483   4.773  0.1961  0.7414 -0.0588
 6675TIP3    H119989   1.295   1.457   4.792  0.4012  2.3546  1.4191
 6675TIP3    H219990   1.154   1.447   4.846  0.2801  3.0414  1.2378
 6676TIP3   OH219991   3.993   1.770   5.380 -0.5254 -0.3386  0.0807
 6676TIP3    H119992   3.968   1.684   5.414  0.3865 -0.6552 -0.0112
 6676TIP3    H219993   4.001   1.825   5.457  0.7686 -0.8496  0.3341
 6677TIP3   OH219994   4.116   6.455   4.019  0.5278 -0.1135 -0.3090
 6677TIP3    H119995   4.055   6.403   4.071  1.2610 -0.6160  0.0740
 6677TIP3    H219996   4.144   6.525   4.078  0.9952 -0.4070 -0.1743
 6678TIP3   OH219997   4.619   1.000   1.899  0.1209 -0.2346  0.5135
 6678TIP3    H119998   4.650   1.070   1.956 -0.1382 -0.9240  1.5305
 6678TIP3    H219999   4.696   0.944   1.886 -0.0679 -0.6090  1.0004
 6679TIP3   OH220000   1.652   2.566   1.933  0.3922  0.0759  0.1965
 6679TIP3    H120001   1.701   2.641   1.965 -1.0620  0.7847  0.8661
 6679TIP3    H220002   1.623   2.592   1.845  1.0966 -0.3028 -0.1588
 6680TIP3   OH220003   3.376   1.775   0.844  0.4348 -0.4924 -0.0189
 6680TIP3    H120004   3.453   1.730   0.879  0.7678  0.1695  0.1114
 6680TIP3    H220005   3.311   1.706   0.833  1.2025 -1.1507 -0.5842
 6681TIP3   OH220006   5.700   6.784   3.915  0.7914 -0.1490  0.0589
 6681TIP3    H120007   5.734   6.773   4.004  0.4199  0.6003  0.2965
 6681TIP3    H220008   5.626   6.843   3.924 -0.4628 -1.5579 -0.4792
 6682TIP3   OH220009   5.284   4.615   3.820 -0.0776 -0.1087 -0.2932
 6682TIP3    H120010   5.359   4.560   3.795 -0.1257 -0.5042  0.4175
 6682TIP3    H220011   5.234   4.561   3.881  0.5518  1.1860  1.4415
 6683TIP3   OH220012   4.553   6.606   5.079 -0.1318 -0.5349  0.3379
 6683TIP3    H120013   4.576   6.678   5.021 -0.5585  0.9487  1.9224
 6683TIP3    H220014   4.462   6.586   5.059 -1.1758  1.8365  2.2503
 6684TIP3   OH220015   2.895   3.416   3.658  0.0083 -0.0972  0.6403
 6684TIP3    H120016   2.841   3.407   3.737 -0.7562 -0.5627  0.0849
 6684TIP3    H220017   2.940   3.333   3.650  0.3628  0.0808  0.7827
 6685TIP3   OH220018   5.101   1.511   0.799 -0.0112  0.2450 -0.2642
 6685TIP3    H120019   5.120   1.436   0.741 -0.0233  0.3144 -0.3580
 6685TIP3    H220020   5.186   1.552   0.813  0.3649 -0.9998  1.4844
 6686TIP3   OH220021   4.502   5.783   2.266 -0.1054  0.0414  0.2880
 6686TIP3    H120022   4.554   5.825   2.198 -0.7365  2.0148  0.9743
 6686TIP3    H220023   4.414   5.777   2.229  0.2564 -2.2052 -0.4032
 6687TIP3   OH220024   2.934   2.058   3.130 -0.3550  0.0246  0.2783
 6687TIP3    H120025   2.880   2.110   3.071 -1.8826  1.8155  3.0523
 6687TIP3    H220026   3.020   2.099   3.128 -0.6762  0.6882  0.0431
 6688TIP3   OH220027   4.655   0.262   1.275 -0.3319  0.0685  0.0852
 6688TIP3    H120028   4.734   0.308   1.302  0.0276 -0.4308 -0.1118
 6688TIP3    H220029   4.599   0.263   1.353  0.6218 -1.2061  0.8074
 6689TIP3   OH220030   6.456   2.298   2.470  0.0047 -0.2946 -0.3641
 6689TIP3    H120031   6.485   2.225   2.524  1.9303  0.8894  0.2990
 6689TIP3    H220032   6.423   2.363   2.532  2.0215  0.9862 -0.5362
 6690TIP3   OH220033   1.528   2.523   3.548  0.2539 -0.0453  0.1332
 6690TIP3    H120034   1.491   2.566   3.471 -2.2066 -0.9051  0.7516
 6690TIP3    H220035   1.476   2.556   3.621  1.6953 -0.2260  1.2942
 6691TIP3   OH220036   0.498   0.824   4.079 -0.0186 -0.4139  0.1971
 6691TIP3    H120037   0.581   0.833   4.125 -0.0186  1.1227 -0.0517
 6691TIP3    H220038   0.435   0.871   4.134 -0.2728  0.3230 -0.6991
 6692TIP3   OH220039   1.504   6.611   2.435 -0.0544  0.2388 -0.3516
 6692TIP3    H120040   1.510   6.534   2.492 -0.2578  0.8591  0.5297
 6692TIP3    H220041   1.432   6.662   2.472 -0.2096  0.6465 -1.1932
 6693TIP3   OH220042   0.846   0.929   3.653  0.0594 -0.3849  0.1835
 6693TIP3    H120043   0.899   0.961   3.726  0.0282 -0.4036  0.2147
 6693TIP3    H220044   0.756   0.934   3.685  0.0807 -0.8606  0.3262
 6694TIP3   OH220045   1.390   5.441   0.522 -0.0591  0.0777 -0.6510
 6694TIP3    H120046   1.298   5.419   0.506 -0.9781  2.3968  0.9439
 6694TIP3    H220047   1.402   5.527   0.481  0.7390  0.8172  1.0386
 6695TIP3   OH220048   3.674   3.947   4.110  0.0507  0.3150 -0.0113
 6695TIP3    H120049   3.663   3.855   4.087 -0.1287  0.6389 -1.3496
 6695TIP3    H220050   3.602   3.992   4.065 -0.1416  1.0561  1.0099
 6696TIP3   OH220051   7.021   5.141   3.047 -0.1728 -0.0612  0.1361
 6696TIP3    H120052   7.049   5.166   3.135 -0.7442 -3.3111  1.3620
 6696TIP3    H220053   7.046   5.050   3.038  1.1661  0.4914 -3.7141
 6697TIP3   OH220054   0.869   1.755   4.561 -0.3767  0.7604  0.1454
 6697TIP3    H120055   0.814   1.740   4.637 -0.5234  0.3149 -0.0464
 6697TIP3    H220056   0.831   1.832   4.518 -1.1957  0.1269 -0.2945
 6698TIP3   OH220057   4.125   2.356   2.572 -0.5158  0.4821  0.0973
 6698TIP3    H120058   4.122   2.394   2.484 -0.8927  0.2018 -0.0134
 6698TIP3    H220059   4.196   2.293   2.569 -0.5800  0.4148 -0.0333
 6699TIP3   OH220060   3.752  -0.000   3.957  0.3503  0.3247 -0.6553
 6699TIP3    H120061   3.698   0.068   3.917  0.0577  2.5294  2.9782
 6699TIP3    H220062   3.689  -0.062   3.994  0.4907  0.1104 -0.7735
 6700TIP3   OH220063   5.703   0.110   3.792  0.2455 -0.2917  0.2694
 6700TIP3    H120064   5.730   0.119   3.884 -0.1264 -1.3339  0.4966
 6700TIP3    H220065   5.714   0.017   3.773 -0.7450 -0.2830 -0.4094
 6701TIP3   OH220066   2.414   0.103   4.202 -0.2254  0.1016 -0.4417
 6701TIP3    H120067   2.429   0.065   4.289 -0.5155 -0.4085 -0.6121
 6701TIP3    H220068   2.321   0.123   4.200 -0.2429  0.0046 -0.6728
 6702TIP3   OH220069   2.168   2.819   3.552 -0.4456 -0.3882  0.3708
 6702TIP3    H120070   2.238   2.840   3.613 -0.0516 -1.0891  0.1695
 6702TIP3    H220071   2.208   2.760   3.488 -1.4377 -1.5614  0.7904
 6703TIP3   OH220072   5.142   0.727   5.152 -0.2399 -0.6427 -0.1885
 6703TIP3    H120073   5.115   0.650   5.202  1.0955  0.0919  1.7606
 6703TIP3    H220074   5.146   0.798   5.216  1.0751  0.4497 -1.4165
 6704TIP3   OH220075   0.502   6.692   3.178 -0.2125 -0.2017  0.5371
 6704TIP3    H120076   0.559   6.694   3.255 -0.0844 -1.5798  0.5029
 6704TIP3    H220077   0.419   6.658   3.211 -1.0715  1.8050  0.5898
 6705TIP3   OH220078   0.793   0.616   2.120  0.8065  0.1026  0.0612
 6705TIP3    H120079   0.723   0.608   2.056  0.1461 -0.0567  0.7920
 6705TIP3    H220080   0.793   0.533   2.167  1.9448 -0.1685 -0.3778
 6706TIP3   OH220081   1.063   6.530   4.604 -0.0524 -0.0532 -0.6657
 6706TIP3    H120082   0.981   6.580   4.616  0.1641 -0.0201  0.8985
 6706TIP3    H220083   1.096   6.558   4.519 -0.7872  1.2592 -0.5457
 6707TIP3   OH220084   4.188   0.458   3.321  0.0553  0.2686 -0.0151
 6707TIP3    H120085   4.266   0.402   3.324 -0.7301 -1.0197 -1.7689
 6707TIP3    H220086   4.210   0.525   3.256 -0.1160  0.1967 -0.1469
 6708TIP3   OH220087   4.002   5.551   1.077  0.2533 -0.2592 -0.7455
 6708TIP3    H120088   3.959   5.467   1.061  0.1132 -0.1495 -0.9629
 6708TIP3    H220089   3.980   5.604   1.000 -2.4757  1.1361  0.8437
 6709TIP3   OH220090   1.418   3.830   3.134  0.4052  0.7229 -0.3182
 6709TIP3    H120091   1.468   3.760   3.092 -0.0202  0.0019  0.3478
 6709TIP3    H220092   1.483   3.878   3.185  0.4387 -0.2158  0.5525
 6710TIP3   OH220093   0.085   3.662   2.410 -0.9259 -0.0579  0.0063
 6710TIP3    H120094   0.011   3.715   2.438 -2.1920 -1.8233  0.1666
 6710TIP3    H220095   0.100   3.601   2.483  0.8699  0.4049  0.0841
 6711TIP3   OH220096   5.765   3.219   0.141 -0.2258  0.3583  0.0139
 6711TIP3    H120097   5.759   3.267   0.058  0.8108 -1.0459 -0.9193
 6711TIP3    H220098   5.859   3.215   0.160 -0.2176 -1.7361 -0.2356
 6712TIP3   OH220099   0.078   0.941   4.582 -0.4195  0.0170 -0.1094
 6712TIP3    H120100   0.136   1.008   4.619 -0.3883  0.1495 -0.3954
 6712TIP3    H220101  -0.008   0.982   4.582 -0.5358 -0.2227  0.4244
 6713TIP3   OH220102   4.327   0.224   3.168  0.3219 -0.1220  0.1779
 6713TIP3    H120103   4.363   0.267   3.246  0.4147 -0.1216  0.1343
 6713TIP3    H220104   4.248   0.181   3.200  0.7150 -0.6728  0.4114
 6714TIP3   OH220105   0.269   2.372   4.885  0.1408  0.0682  0.1180
 6714TIP3    H120106   0.344   2.405   4.836 -1.3145  1.2256 -1.5060
 6714TIP3    H220107   0.194   2.420   4.848 -1.6881 -2.5491  0.1144
 6715TIP3   OH220108   2.770   4.297   2.840  0.4348  0.1439 -0.3885
 6715TIP3    H120109   2.798   4.385   2.865 -0.5914  0.3819 -0.0477
 6715TIP3    H220110   2.734   4.307   2.752  0.1487  0.1065 -0.2774
 6716TIP3   OH220111   1.251   4.190   2.293  0.0743  0.4729  0.7296
 6716TIP3    H120112   1.204   4.129   2.237  0.1673 -0.4000  1.5777
 6716TIP3    H220113   1.190   4.264   2.303 -0.5005  0.0309  0.5908
 6717TIP3   OH220114   0.567   1.918   2.531 -0.0397 -0.5080 -0.4172
 6717TIP3    H120115   0.614   1.852   2.580 -0.3585  0.0746  0.7072
 6717TIP3    H220116   0.614   1.925   2.448  2.8280  1.1145  1.1948
 6718TIP3   OH220117   2.886   1.143   5.344 -0.2175  0.1866 -0.1377
 6718TIP3    H120118   2.970   1.187   5.360 -0.5781  1.8245 -2.2692
 6718TIP3    H220119   2.846   1.194   5.274 -3.5579  0.1717  1.5610
 6719TIP3   OH220120   0.036   0.138   4.941  0.2922  0.0540  0.2589
 6719TIP3    H120121  -0.009   0.058   4.968  1.8229 -0.2223  2.1911
 6719TIP3    H220122   0.125   0.109   4.919  0.3332  0.9735 -0.8665
 6720TIP3   OH220123   1.865   4.078   1.909  0.2844  0.2669 -0.2277
 6720TIP3    H120124   1.896   4.164   1.879 -0.1257  0.1019 -1.1671
 6720TIP3    H220125   1.794   4.056   1.848  0.3080 -0.6853  0.0817
 6721TIP3   OH220126   5.844   2.238   5.354  0.1249 -0.2087 -0.6561
 6721TIP3    H120127   5.854   2.281   5.269  1.5731 -0.4391 -0.6157
 6721TIP3    H220128   5.865   2.147   5.337 -0.0707 -0.3518 -0.1355
 6722TIP3   OH220129   6.807   3.184   4.993 -0.2293  0.6333  0.1796
 6722TIP3    H120130   6.763   3.132   5.060  0.4997 -0.1831  0.0573
 6722TIP3    H220131   6.834   3.264   5.038 -2.2520  1.3918  0.1262
 6723TIP3   OH220132   4.498   5.478   1.255 -0.2532  0.1725  0.5513
 6723TIP3    H120133   4.553   5.422   1.310 -0.3701 -1.1874 -0.6876
 6723TIP3    H220134   4.415   5.431   1.247  0.2705 -0.4443 -2.0120
 6724TIP3   OH220135   4.958   5.064   3.376 -0.2702 -0.1019 -0.1282
 6724TIP3    H120136   5.044   5.102   3.393 -0.3672  0.7237 -1.3493
 6724TIP3    H220137   4.898   5.139   3.373 -0.6672 -0.4436 -1.3583
 6725TIP3   OH220138   6.111   0.974   1.901 -0.2118 -0.0596  0.5160
 6725TIP3    H120139   6.197   0.963   1.942  0.8421  0.6883 -1.3498
 6725TIP3    H220140   6.118   0.926   1.819 -2.4516 -2.0215  1.3704
 6726TIP3   OH220141   0.788   2.951   1.909  0.7324  0.1839  0.1108
 6726TIP3    H120142   0.871   2.902   1.906  0.6884  0.1205 -0.0479
 6726TIP3    H220143   0.733   2.910   1.843  0.2542 -0.3618  0.8250
 6727TIP3   OH220144   5.486   6.314   1.756 -0.0505 -0.3838 -0.2578
 6727TIP3    H120145   5.467   6.368   1.679 -0.2853 -0.5691 -0.3301
 6727TIP3    H220146   5.460   6.369   1.830  0.5149 -0.0626 -0.2924
 6728TIP3   OH220147   0.562   4.554   3.173  0.1873  0.5495 -0.1630
 6728TIP3    H120148   0.638   4.551   3.116  0.2488 -0.5774 -0.0550
 6728TIP3    H220149   0.490   4.519   3.120 -0.2348  1.4945 -0.2295
 6729TIP3   OH220150   6.696   4.346   4.369  1.3995 -0.1932  0.0306
 6729TIP3    H120151   6.781   4.301   4.369  2.0738  0.9926  1.3232
 6729TIP3    H220152   6.713   4.428   4.322  1.7176  1.2066  2.3798
 6730TIP3   OH220153   4.668   4.378   3.069 -0.1354 -0.1050 -0.4688
 6730TIP3    H120154   4.620   4.329   3.136 -2.8665  0.9719 -1.4683
 6730TIP3    H220155   4.639   4.341   2.986  0.6048  0.7327 -1.1201
 6731TIP3   OH220156   4.393   4.542   5.145 -0.3583 -0.3263  0.1993
 6731TIP3    H120157   4.400   4.505   5.233  0.8619 -1.3568 -0.3037
 6731TIP3    H220158   4.477   4.585   5.129 -0.5473 -0.1933 -0.4851
 6732TIP3   OH220159   0.428   4.046   1.954  0.0743  0.3114 -0.2320
 6732TIP3    H120160   0.439   4.141   1.941  0.0659  0.6933  2.0793
 6732TIP3    H220161   0.504   4.007   1.911  1.4574  1.5918  0.9537
 6733TIP3   OH220162   6.497   0.299   2.689 -0.3755  0.2811 -0.2764
 6733TIP3    H120163   6.464   0.220   2.730 -0.5591  1.1226  1.2715
 6733TIP3    H220164   6.463   0.371   2.743  0.7868  1.3591 -0.9111
 6734TIP3   OH220165   2.151   2.934   3.963 -0.1278  0.7146  0.2050
 6734TIP3    H120166   2.088   2.965   3.899 -0.8485  2.5213  1.7012
 6734TIP3    H220167   2.220   2.892   3.911 -1.9255 -0.2315 -1.5366
 6735TIP3   OH220168   2.344   1.489   2.079 -0.2934  0.3724 -0.3991
 6735TIP3    H120169   2.281   1.518   2.145 -0.1508 -0.0944 -0.0465
 6735TIP3    H220170   2.388   1.568   2.051  1.0017  0.3814  1.4831
 6736TIP3   OH220171   4.664   2.189   3.666  0.7093  0.1685 -0.0774
 6736TIP3    H120172   4.653   2.267   3.722  2.0739  1.0073 -0.9175
 6736TIP3    H220173   4.610   2.206   3.590  2.0616  0.9689 -0.8960
 6737TIP3   OH220174   3.551   3.137   0.095  0.0924  0.0873 -0.6904
 6737TIP3    H120175   3.615   3.180   0.152 -0.0166 -0.7832  0.0949
 6737TIP3    H220176   3.604   3.081   0.038  0.1480  0.4967 -1.0477
 6738TIP3   OH220177   4.505   5.012   5.261 -0.0633 -0.3405  0.4343
 6738TIP3    H120178   4.565   5.086   5.275 -0.4555  0.1649 -0.4730
 6738TIP3    H220179   4.521   4.985   5.171  0.2477 -1.5444  0.8286
 6739TIP3   OH220180   5.040   0.042   3.285  0.5074 -0.1205  0.3203
 6739TIP3    H120181   4.959   0.073   3.244  1.1246  0.6599 -0.3408
 6739TIP3    H220182   5.013   0.013   3.372 -0.6853 -0.9849 -0.3017
 6740TIP3   OH220183   5.411   2.502   0.678  0.4877 -0.2574  0.7570
 6740TIP3    H120184   5.422   2.414   0.713  1.5557 -0.3823  0.1636
 6740TIP3    H220185   5.318   2.510   0.659  0.3324 -1.1396  1.1154
 6741TIP3   OH220186   5.527   5.954   2.219 -0.0738 -0.1326 -1.0732
 6741TIP3    H120187   5.549   6.014   2.148  0.9281 -0.1526 -0.7972
 6741TIP3    H220188   5.520   6.010   2.297  0.0449 -0.2632 -0.9680
 6742TIP3   OH220189   3.725   3.563   0.312 -0.3190  0.7002  0.5360
 6742TIP3    H120190   3.646   3.511   0.327 -0.3456  0.9711  1.4321
 6742TIP3    H220191   3.731   3.573   0.217 -0.9711  0.0801  0.4258
 6743TIP3   OH220192   2.767   5.755   5.854 -0.0778 -0.3687 -0.3385
 6743TIP3    H120193   2.747   5.735   5.945 -1.2564 -1.5025 -0.7967
 6743TIP3    H220194   2.691   5.804   5.823  0.0869 -0.4229 -0.8405
 6744TIP3   OH220195   6.908   5.430   2.609 -0.1184  0.0103  0.8468
 6744TIP3    H120196   6.835   5.456   2.665 -0.0656  1.5478  0.2520
 6744TIP3    H220197   6.944   5.352   2.651 -3.1078 -1.8927  0.2752
 6745TIP3   OH220198   2.288   6.022   4.597  0.3403  0.1018 -0.6574
 6745TIP3    H120199   2.229   6.097   4.595 -0.2203 -0.3169  0.1588
 6745TIP3    H220200   2.273   5.980   4.681 -0.1786 -1.5985 -1.5462
 6746TIP3   OH220201   0.903   2.569   2.922 -0.4456  0.1018  0.1404
 6746TIP3    H120202   0.854   2.650   2.908 -0.9749  0.3538  2.8802
 6746TIP3    H220203   0.851   2.501   2.879 -1.1073  0.9351 -0.3833
 6747TIP3   OH220204   6.991   0.490   3.003  0.0611 -0.1333  0.2155
 6747TIP3    H120205   7.007   0.561   2.941 -1.3186 -1.1370 -1.3590
 6747TIP3    H220206   6.902   0.504   3.034  0.5423  0.0310  1.5833
 6748TIP3   OH220207   0.442   2.846   4.810 -0.2737 -0.0268  0.4351
 6748TIP3    H120208   0.459   2.935   4.841  0.8226 -0.0172 -0.1450
 6748TIP3    H220209   0.429   2.795   4.890  1.9158  0.1168  0.9493
 6749TIP3   OH220210   3.864   0.530   2.263  0.1117 -0.1240 -0.3906
 6749TIP3    H120211   3.788   0.540   2.206  0.4226 -0.2793 -0.8358
 6749TIP3    H220212   3.827   0.506   2.348 -0.3942  0.7240 -0.3519
 6750TIP3   OH220213   6.823   6.618   0.978  0.3449  0.9530 -0.6430
 6750TIP3    H120214   6.867   6.700   1.001  0.5839  0.5370  0.4456
 6750TIP3    H220215   6.813   6.622   0.883  0.2260  2.3020 -0.5905
 6751TIP3   OH220216   5.329   0.502   3.156  0.0025 -0.0366 -0.3648
 6751TIP3    H120217   5.264   0.572   3.163  0.0462  0.0609 -0.9192
 6751TIP3    H220218   5.409   0.546   3.126  0.0341 -0.3236 -0.6960
 6752TIP3   OH220219   1.453   1.228   5.810 -0.3252 -0.4037  0.9928
 6752TIP3    H120220   1.398   1.306   5.820  1.6726  1.3570 -0.6320
 6752TIP3    H220221   1.395   1.162   5.773 -1.5252  1.1695 -0.0489
 6753TIP3   OH220222   4.064   2.771   4.197  0.3968  0.6236 -0.5387
 6753TIP3    H120223   4.084   2.696   4.141  0.7553  0.0328  0.3625
 6753TIP3    H220224   3.969   2.768   4.209  0.3574  0.5796 -0.8682
 6754TIP3   OH220225   6.801   0.680   1.172  0.1211  0.1614 -0.0256
 6754TIP3    H120226   6.848   0.693   1.089  0.8002  0.2414  0.3684
 6754TIP3    H220227   6.781   0.769   1.202  0.5025  0.1526  0.2528
 6755TIP3   OH220228   3.139   0.282   5.078  0.7210  0.2931  0.4807
 6755TIP3    H120229   3.141   0.192   5.110  2.5352 -0.1563 -0.7805
 6755TIP3    H220230   3.144   0.336   5.157  4.7027 -0.7731  1.1685
 6756TIP3   OH220231   6.527   1.571   4.969 -0.0290 -0.5293  0.0883
 6756TIP3    H120232   6.465   1.506   5.004  0.2294 -0.0672  1.4614
 6756TIP3    H220233   6.609   1.523   4.960  0.0263 -0.5364  0.5942
 6757TIP3   OH220234   0.095   5.065   0.204  0.3503 -0.4337 -0.0324
 6757TIP3    H120235   0.113   5.052   0.111  0.7370 -1.3094  0.1542
 6757TIP3    H220236   0.008   5.103   0.207  0.6434  0.3330 -0.7881
 6758TIP3   OH220237   0.890   2.059   2.922 -0.0868 -0.0495 -0.0984
 6758TIP3    H120238   0.900   1.976   2.970 -0.6412  0.8536  1.6673
 6758TIP3    H220239   0.830   2.110   2.976  2.4342  2.6265  0.4506
 6759TIP3   OH220240   4.813   3.543   1.819  0.2448 -0.1707  0.3195
 6759TIP3    H120241   4.861   3.480   1.874  0.4756 -0.5531 -0.3093
 6759TIP3    H220242   4.838   3.628   1.853 -1.2107 -0.4156  2.1495
 6760TIP3   OH220243   5.742   4.294   4.799 -0.0420  0.4226  0.1874
 6760TIP3    H120244   5.700   4.222   4.847 -0.8572  0.2199 -0.8040
 6760TIP3    H220245   5.785   4.345   4.867 -1.7960  0.5673  1.2521
 6761TIP3   OH220246   2.044   5.788   0.625 -0.1201 -0.0816  0.2493
 6761TIP3    H120247   2.132   5.780   0.661  0.6357  1.8336 -1.0414
 6761TIP3    H220248   2.053   5.850   0.553 -2.7036  0.8591  0.6381
 6762TIP3   OH220249   4.959   0.924   5.468 -0.1680 -0.3272 -0.3282
 6762TIP3    H120250   4.902   0.850   5.487 -2.5293  0.9950 -1.7897
 6762TIP3    H220251   4.948   0.984   5.542 -1.6842  0.4612 -1.1604
 6763TIP3   OH220252   6.185   2.820   5.869  0.0039 -0.3612 -0.3852
 6763TIP3    H120253   6.174   2.728   5.891  1.5870 -0.8387 -1.3676
 6763TIP3    H220254   6.189   2.821   5.773 -0.7457  0.8312 -0.4151
 6764TIP3   OH220255   1.834   5.747   1.582  0.1144  0.1542  0.6579
 6764TIP3    H120256   1.858   5.691   1.656  0.4620  0.7176  0.9845
 6764TIP3    H220257   1.860   5.697   1.505  2.7927  0.8733  0.9955
 6765TIP3   OH220258   3.930   2.439   4.674 -0.3164  0.4934  0.4061
 6765TIP3    H120259   3.836   2.420   4.680 -0.1549 -0.0596  1.3616
 6765TIP3    H220260   3.949   2.489   4.754  0.0058  1.5118 -0.2824
 6766TIP3   OH220261   4.019   2.225   0.978 -0.0920  0.1433 -0.0780
 6766TIP3    H120262   3.969   2.296   0.937 -2.1319 -1.4363 -0.4982
 6766TIP3    H220263   3.959   2.186   1.040  1.4330 -0.4374  1.0993
 6767TIP3   OH220264   4.772   6.025   0.999 -0.1007 -0.1788  0.1326
 6767TIP3    H120265   4.839   5.979   0.950  0.6254  0.4922  0.4771
 6767TIP3    H220266   4.690   5.984   0.971  0.3025 -0.0076 -1.4327
 6768TIP3   OH220267   7.028   6.243   3.899  0.3752 -0.0412 -0.0169
 6768TIP3    H120268   7.061   6.167   3.947 -0.1826  0.5970  1.4612
 6768TIP3    H220269   6.952   6.273   3.951 -1.0996 -0.0886 -2.0321
 6769TIP3   OH220270   4.059   1.680   0.206 -0.2040  0.2618  0.0183
 6769TIP3    H120271   4.037   1.763   0.163  1.1214  0.3912 -0.4456
 6769TIP3    H220272   4.136   1.699   0.259  0.4875 -0.8041 -0.5687
 6770TIP3   OH220273   5.467   1.461   0.027 -0.2347 -0.4074  0.2639
 6770TIP3    H120274   5.473   1.469  -0.068 -1.6533 -1.0099  0.0877
 6770TIP3    H220275   5.495   1.546   0.060  0.1226 -0.1330 -0.6928
 6771TIP3   OH220276   2.756   3.911   3.878 -0.3319  0.6147 -0.3672
 6771TIP3    H120277   2.719   3.997   3.899  0.1122  0.8360 -0.4826
 6771TIP3    H220278   2.721   3.853   3.945  0.4712  1.1658  0.5474
 6772TIP3   OH220279   6.314   0.585   4.149 -0.0793 -0.2160 -0.0017
 6772TIP3    H120280   6.292   0.613   4.060 -0.4446 -0.3037  0.0571
 6772TIP3    H220281   6.406   0.608   4.160  0.1604 -0.8222 -0.6441
 6773TIP3   OH220282   6.156   5.631   2.630  0.0995  0.1193  0.3413
 6773TIP3    H120283   6.244   5.593   2.622  0.6763  0.7848  2.5260
 6773TIP3    H220284   6.111   5.608   2.549  2.5481  0.4157 -1.2079
 6774TIP3   OH220285   4.418   1.584   4.565 -0.1019 -0.1440  0.2589
 6774TIP3    H120286   4.366   1.659   4.536  0.5075  0.6265  1.1321
 6774TIP3    H220287   4.434   1.600   4.658  1.2539 -0.6242  0.1275
 6775TIP3   OH220288   7.139   1.417   0.856 -0.4328  0.1157  0.0634
 6775TIP3    H120289   7.205   1.359   0.895  1.2224  1.4628 -0.5725
 6775TIP3    H220290   7.083   1.442   0.928 -0.3795 -1.1972  0.5998
 6776TIP3   OH220291   2.647   5.141   0.925 -0.2529  0.8473  0.3177
 6776TIP3    H120292   2.585   5.091   0.872  1.0566  0.6301 -1.0419
 6776TIP3    H220293   2.638   5.104   1.013 -0.9524 -0.2120 -0.1767
 6777TIP3   OH220294   2.139   3.568   0.393 -0.1258 -0.1393 -0.2736
 6777TIP3    H120295   2.230   3.585   0.415  0.5446 -1.6881 -1.5967
 6777TIP3    H220296   2.094   3.650   0.411  1.0528  0.0060  2.6090
 6778TIP3   OH220297   5.392   0.646   5.163  0.3600 -0.1308  0.8315
 6778TIP3    H120298   5.381   0.592   5.242 -1.5107 -0.7699  0.1847
 6778TIP3    H220299   5.305   0.649   5.124  1.0200  1.1017 -0.6377
 6779TIP3   OH220300   2.959   2.710   3.034  0.5502 -0.2984  0.2377
 6779TIP3    H120301   2.891   2.729   2.969 -0.5578 -0.4028  1.3309
 6779TIP3    H220302   3.009   2.638   2.997  0.6604  0.3949 -1.0084
 6780TIP3   OH220303   2.700   6.219   4.590 -0.1784  0.1436  0.6417
 6780TIP3    H120304   2.667   6.254   4.507  0.4018 -1.8849 -0.5050
 6780TIP3    H220305   2.773   6.276   4.613 -0.0962  0.5058 -0.4530
 6781TIP3   OH220306   5.580   5.829   5.386  0.5443 -0.2062  0.2344
 6781TIP3    H120307   5.642   5.756   5.382 -1.2115 -1.7523 -1.2586
 6781TIP3    H220308   5.590   5.874   5.302 -1.1399 -1.2498 -0.5833
 6782TIP3   OH220309   2.692   0.733   5.373  0.5269  0.6070  0.0957
 6782TIP3    H120310   2.685   0.702   5.283  0.0006 -0.6052  0.5313
 6782TIP3    H220311   2.693   0.653   5.425 -2.8184  1.2724  1.4357
 6783TIP3   OH220312   0.923   4.832   4.554  0.1266 -0.2317 -0.4404
 6783TIP3    H120313   0.902   4.772   4.625 -0.1091  0.7488  0.3470
 6783TIP3    H220314   1.006   4.800   4.519 -0.0775 -1.1069 -0.1568
 6784TIP3   OH220315   2.402   5.997   3.416 -0.9944  0.2362  0.3020
 6784TIP3    H120316   2.310   5.969   3.417 -1.3858  1.2604 -1.5754
 6784TIP3    H220317   2.399   6.087   3.384  0.7974 -0.5206 -2.3583
 6785TIP3   OH220318   6.658   0.199   1.425 -0.2496 -0.3412 -0.3030
 6785TIP3    H120319   6.685   0.109   1.445  1.4398  0.5461  1.7882
 6785TIP3    H220320   6.629   0.235   1.509 -0.2353  1.2771 -0.9568
 6786TIP3   OH220321   0.820   0.773   2.349 -0.1343  0.2870 -0.5434
 6786TIP3    H120322   0.730   0.750   2.372  0.6931 -1.0913  1.6425
 6786TIP3    H220323   0.838   0.721   2.271 -1.1074  0.3041 -0.7983
 6787TIP3   OH220324   1.420   2.489   0.742 -0.0138  0.1460 -0.2368
 6787TIP3    H120325   1.398   2.421   0.678 -2.8139 -1.6121  2.3373
 6787TIP3    H220326   1.337   2.534   0.759  1.4101  3.1018 -0.4943
 6788TIP3   OH220327   1.374   1.641   1.619 -0.3116  0.0300 -0.0543
 6788TIP3    H120328   1.445   1.604   1.566 -1.6907 -0.2511 -1.7986
 6788TIP3    H220329   1.415   1.709   1.671  0.8595  1.5444 -2.7803
 6789TIP3   OH220330   1.492   0.743   5.348 -0.3167 -0.4258 -0.2753
 6789TIP3    H120331   1.400   0.744   5.371  0.2635 -2.2034  2.7248
 6789TIP3    H220332   1.537   0.723   5.430  2.9017  1.9248 -1.2573
 6790TIP3   OH220333   0.574   6.017   3.672  0.1791  1.1368  0.1563
 6790TIP3    H120334   0.621   5.942   3.635 -0.4751  1.0573 -0.5292
 6790TIP3    H220335   0.609   6.093   3.625 -0.4506  1.0663 -0.4289
 6791TIP3   OH220336   6.145   1.273   0.640 -0.2811  0.0646  0.3607
 6791TIP3    H120337   6.083   1.204   0.617 -0.0024 -0.5713  1.4247
 6791TIP3    H220338   6.221   1.258   0.584  1.0509 -2.4401  2.6395
 6792TIP3   OH220339   1.104   5.985   4.176  0.5149 -0.2803 -0.1982
 6792TIP3    H120340   1.159   6.057   4.146 -0.4099  0.0151 -1.2644
 6792TIP3    H220341   1.045   6.024   4.240  0.0082 -0.0728 -0.7820
 6793TIP3   OH220342   4.380   1.340   2.945 -0.3132 -0.0472 -0.0340
 6793TIP3    H120343   4.469   1.361   2.972 -0.8886  1.1345  1.0274
 6793TIP3    H220344   4.367   1.389   2.864  0.1613 -0.6648 -0.5003
 6794TIP3   OH220345   6.503  -0.020   3.487  0.4320 -0.1940 -0.5481
 6794TIP3    H120346   6.556   0.056   3.461 -0.0914  0.0796 -0.8224
 6794TIP3    H220347   6.413   0.011   3.482  0.2751  0.4887  3.3513
 6795TIP3   OH220348   1.890   0.765   3.037 -0.0490  0.3470 -0.2526
 6795TIP3    H120349   1.981   0.762   3.066  0.1212  2.1031 -0.5095
 6795TIP3    H220350   1.891   0.823   2.962 -1.1553 -0.8863 -1.2740
 6796TIP3   OH220351   4.087   3.057   0.726  0.9717 -0.4436  0.3321
 6796TIP3    H120352   4.010   3.114   0.725  1.7288  0.6145 -0.2951
 6796TIP3    H220353   4.066   2.988   0.789 -0.4116 -0.0817  0.2882
 6797TIP3   OH220354   2.451   2.228   4.954  0.0717 -0.0018 -0.3022
 6797TIP3    H120355   2.516   2.281   5.001  0.4283 -1.4740  0.9384
 6797TIP3    H220356   2.442   2.271   4.869  1.0846  1.4567  0.2927
 6798TIP3   OH220357   1.885   4.340   4.845  0.2233 -0.0984  0.2782
 6798TIP3    H120358   1.856   4.289   4.769  0.6480  0.6535 -0.3946
 6798TIP3    H220359   1.807   4.344   4.902 -0.1575 -0.4787 -0.2017
 6799TIP3   OH220360   5.208   1.860   4.938 -0.5367  0.3268 -0.7929
 6799TIP3    H120361   5.271   1.827   4.874  0.3587 -0.4989  0.4661
 6799TIP3    H220362   5.261   1.897   5.008 -1.4870  0.8899 -0.3464
 6800TIP3   OH220363   4.808   0.271   3.991  0.1609 -0.1262 -0.6247
 6800TIP3    H120364   4.888   0.323   3.993 -1.5521  2.7492 -0.3786
 6800TIP3    H220365   4.785   0.258   4.083 -0.8024  1.1477 -0.6450
 6801TIP3   OH220366   1.011   5.819   0.191  0.3449 -0.3745 -0.3998
 6801TIP3    H120367   1.045   5.828   0.280  2.2793 -1.0341 -1.0278
 6801TIP3    H220368   0.997   5.725   0.180 -1.7505 -0.1355 -0.1882
 6802TIP3   OH220369  -0.016   3.501   5.019  0.8510 -0.2048 -0.0336
 6802TIP3    H120370   0.079   3.509   5.029  0.8870  0.1636 -0.6198
 6802TIP3    H220371  -0.043   3.446   5.093  1.4936 -0.1627  0.2430
 6803TIP3   OH220372   5.039   2.250   2.803 -0.2827  0.6615 -0.0572
 6803TIP3    H120373   5.043   2.310   2.877 -0.6214  1.2313 -0.4969
 6803TIP3    H220374   4.954   2.266   2.763 -0.3529 -0.0641 -0.2214
 6804TIP3   OH220375   3.080   6.196   5.718 -0.1758 -0.1209 -0.2007
 6804TIP3    H120376   3.111   6.215   5.629 -0.3297  1.9013  0.1302
 6804TIP3    H220377   2.989   6.168   5.706  0.2045 -1.2103 -0.7566
 6805TIP3   OH220378   3.785   6.009   3.062  0.1562  0.7143  0.5053
 6805TIP3    H120379   3.797   5.955   2.984 -0.6806  1.1201  0.0772
 6805TIP3    H220380   3.860   5.988   3.117  0.4433 -0.0337 -0.1411
 6806TIP3   OH220381   4.397   1.901   4.858 -0.2029  0.2063 -0.3134
 6806TIP3    H120382   4.459   1.913   4.786  0.1991 -1.1871 -0.2230
 6806TIP3    H220383   4.336   1.975   4.850 -0.4034 -0.1318 -2.3185
 6807TIP3   OH220384   5.798   0.937   4.205  0.0763 -0.2616 -0.0601
 6807TIP3    H120385   5.731   1.001   4.231  0.4756 -0.3648  1.3454
 6807TIP3    H220386   5.831   0.904   4.289  0.1359 -2.0384 -0.7591
 6808TIP3   OH220387   7.023   2.301   4.404 -0.0746 -0.0848 -0.2072
 6808TIP3    H120388   7.100   2.248   4.382  0.4744  0.3134  0.7176
 6808TIP3    H220389   7.023   2.306   4.500 -1.9629 -1.1259 -0.0834
 6809TIP3   OH220390   0.512   1.287   0.890 -0.6318  0.1611 -0.4080
 6809TIP3    H120391   0.603   1.317   0.884 -0.5459 -0.1743 -0.8115
 6809TIP3    H220392   0.517   1.209   0.946 -0.4804 -0.6036 -1.4557
 6810TIP3   OH220393   5.471   4.647   5.835  0.7040 -0.1706 -0.3008
 6810TIP3    H120394   5.494   4.554   5.829 -0.5129 -0.5335  0.2300
 6810TIP3    H220395   5.517   4.678   5.913  0.6760 -0.4741 -0.1609
 6811TIP3   OH220396   6.579   6.201   2.056  0.7705  0.4789 -0.0233
 6811TIP3    H120397   6.627   6.150   1.990  0.3181  1.1751 -0.9159
 6811TIP3    H220398   6.618   6.289   2.052  0.1629  0.7607  0.0132
 6812TIP3   OH220399   4.807   5.834   1.412 -0.3797  0.0050 -0.3938
 6812TIP3    H120400   4.829   5.872   1.327  0.1131 -2.1549 -1.2988
 6812TIP3    H220401   4.713   5.849   1.421 -0.1522  1.6589 -0.5616
 6813TIP3   OH220402   0.110   3.816   4.033 -0.1496 -0.4057  0.1538
 6813TIP3    H120403   0.144   3.763   3.961  0.7507  2.1374 -1.4298
 6813TIP3    H220404   0.179   3.814   4.099 -0.2793 -1.4425  0.2697
 6814TIP3   OH220405   4.506   5.944   5.224 -0.2735  0.7549 -0.5482
 6814TIP3    H120406   4.528   5.865   5.273 -0.0228  0.8817 -0.4515
 6814TIP3    H220407   4.410   5.948   5.225 -0.2917  1.9077  1.8436
 6815TIP3   OH220408   1.982   4.040   4.077 -0.3400 -0.6800 -0.0820
 6815TIP3    H120409   2.073   4.021   4.051 -0.3079 -1.8760  0.8171
 6815TIP3    H220410   1.933   3.964   4.047 -0.9916 -0.2029 -0.2327
 6816TIP3   OH220411   3.807   5.473   2.054  0.8340  0.1050  0.0402
 6816TIP3    H120412   3.873   5.540   2.070  1.1566 -0.2369  0.1693
 6816TIP3    H220413   3.843   5.394   2.095  0.6103 -0.2217 -0.3845
 6817TIP3   OH220414   0.238   4.028   0.701  0.0626 -0.4522 -0.4378
 6817TIP3    H120415   0.249   3.964   0.630 -1.0150 -0.6783 -0.4053
 6817TIP3    H220416   0.144   4.032   0.716  0.1996  0.3865  0.2675
 6818TIP3   OH220417   3.668   4.760   1.178  0.6173 -0.4416 -0.0921
 6818TIP3    H120418   3.589   4.761   1.232 -0.7946  0.0144 -2.0432
 6818TIP3    H220419   3.719   4.834   1.209  0.0548 -0.4543  0.9020
 6819TIP3   OH220420   3.786   2.211   1.498  0.7177  0.1346 -0.3617
 6819TIP3    H120421   3.753   2.129   1.462 -0.5255  0.6352 -0.3962
 6819TIP3    H220422   3.858   2.236   1.439  0.6311 -0.5569 -0.7631
 6820TIP3   OH220423   0.150   4.719   2.245  0.1709 -0.9224 -0.0720
 6820TIP3    H120424   0.219   4.679   2.298 -0.1317 -0.4728  0.6698
 6820TIP3    H220425   0.198   4.769   2.179  0.5964  0.2758  1.1032
 6821TIP3   OH220426   0.386   5.886   1.499  0.0370  0.2714 -0.3737
 6821TIP3    H120427   0.435   5.818   1.545 -0.9775 -0.4702 -0.3659
 6821TIP3    H220428   0.394   5.864   1.407 -0.0543  0.3081 -0.3906
 6822TIP3   OH220429   3.637   6.364   5.891 -0.4871  0.1376 -0.1568
 6822TIP3    H120430   3.711   6.365   5.830 -0.8100  3.1732 -0.6298
 6822TIP3    H220431   3.633   6.452   5.927 -2.8796 -0.4006  1.1450
 6823TIP3   OH220432   1.663   4.941   4.850 -0.0470  0.2416 -0.2837
 6823TIP3    H120433   1.679   5.031   4.875 -2.1602  0.7368 -0.5442
 6823TIP3    H220434   1.639   4.945   4.757 -1.4572 -0.3818  0.0181
 6824TIP3   OH220435   2.521   6.166   0.846 -0.0714 -0.1533 -0.1040
 6824TIP3    H120436   2.545   6.108   0.918  0.7059 -0.0527 -0.2688
 6824TIP3    H220437   2.450   6.220   0.880  1.2792  0.9393  1.1037
 6825TIP3   OH220438   0.924   4.821   2.571  0.5770 -0.1751  0.5396
 6825TIP3    H120439   0.902   4.746   2.626  1.9830 -0.9099  0.1660
 6825TIP3    H220440   1.018   4.812   2.556  0.5452  0.9946 -0.5253
 6826TIP3   OH220441   3.787   1.528   3.289 -0.0955  0.2350 -0.1359
 6826TIP3    H120442   3.806   1.593   3.357  0.6152 -1.4080  1.3152
 6826TIP3    H220443   3.714   1.477   3.324 -0.2327 -0.1681 -0.9794
 6827TIP3   OH220444   2.670   1.993   1.870  0.1275  0.4924 -0.0050
 6827TIP3    H120445   2.587   1.969   1.829 -0.2432  0.4869  0.7408
 6827TIP3    H220446   2.678   1.934   1.945  0.4655  0.9685  0.3398
 6828TIP3   OH220447   2.976   1.852   1.310 -0.3401 -0.0863  0.1891
 6828TIP3    H120448   2.885   1.870   1.287 -0.6192 -1.7166 -0.1411
 6828TIP3    H220449   3.027   1.895   1.242 -0.9807 -0.9104 -0.8536
 6829TIP3   OH220450   5.357   2.828   4.471  0.0007  0.4010 -0.3435
 6829TIP3    H120451   5.281   2.816   4.414 -0.7557 -0.5025  0.7961
 6829TIP3    H220452   5.372   2.741   4.509 -0.1459  1.1571  1.5742
 6830TIP3   OH220453   2.388   2.730   4.782  0.3919 -0.3202 -0.8273
 6830TIP3    H120454   2.319   2.761   4.723  0.4037  0.9546 -0.2180
 6830TIP3    H220455   2.455   2.798   4.778 -0.1615  0.4904  1.5788
 6831TIP3   OH220456   7.219   2.237   3.862  0.2511  0.5427  0.5174
 6831TIP3    H120457   7.226   2.289   3.782 -2.4678  0.0980 -0.0978
 6831TIP3    H220458   7.131   2.200   3.859  0.6987 -0.9057  2.8841
 6832TIP3   OH220459   1.177   1.032   3.598  0.2383 -0.3472  0.0542
 6832TIP3    H120460   1.268   1.002   3.589  1.3295  2.2566  1.1904
 6832TIP3    H220461   1.151   1.056   3.510  1.4079  0.6903 -0.0435
 6833TIP3   OH220462   1.555   1.401   3.543  0.8754 -0.3776  0.6199
 6833TIP3    H120463   1.643   1.425   3.571  1.8167 -0.6915 -1.8754
 6833TIP3    H220464   1.542   1.313   3.578  1.0354  0.1071  1.9851
 6834TIP3   OH220465   4.154   4.357   2.583  0.5523  0.2549  0.0261
 6834TIP3    H120466   4.155   4.385   2.492  0.0279  1.1386  0.2803
 6834TIP3    H220467   4.245   4.333   2.602  0.8938  1.1739 -0.3920
 6835TIP3   OH220468   7.080   1.164   3.084  0.2178  0.1265 -0.5183
 6835TIP3    H120469   7.056   1.131   3.171 -1.1798  0.2013 -0.8451
 6835TIP3    H220470   7.037   1.105   3.023 -1.0106  1.5777 -1.1282
 6836TIP3   OH220471   7.108   5.742   0.902 -0.2496  0.2526  0.1763
 6836TIP3    H120472   7.099   5.761   0.808  0.6919 -0.8304 -0.1621
 6836TIP3    H220473   7.162   5.814   0.936 -0.4008  0.5286 -0.1601
 6837TIP3   OH220474   6.954   5.968   1.856 -0.4821  0.1343 -0.5163
 6837TIP3    H120475   6.972   5.944   1.947 -0.2097  0.6688 -0.4281
 6837TIP3    H220476   6.870   5.926   1.836 -1.0776  0.9032  0.3223
 6838TIP3   OH220477   1.232   4.331   3.410 -1.1372  0.1024 -0.5251
 6838TIP3    H120478   1.317   4.294   3.387 -1.5233 -1.1842  0.0317
 6838TIP3    H220479   1.189   4.347   3.326  0.0807  1.8824 -0.8659
 6839TIP3   OH220480   3.064   6.462   1.312  0.0394  0.1411 -0.9164
 6839TIP3    H120481   3.051   6.504   1.398  1.2257 -0.6159 -0.3369
 6839TIP3    H220482   3.052   6.533   1.249 -1.6793  0.5393 -0.1953
 6840TIP3   OH220483   5.202   4.490   1.938 -0.1527 -0.4986 -0.1431
 6840TIP3    H120484   5.156   4.539   1.870  0.5568  0.4888  0.0588
 6840TIP3    H220485   5.262   4.554   1.976  0.8139 -1.5416  0.1274
 6841TIP3   OH220486   5.874   0.999   3.561  0.3771 -0.2829  0.0635
 6841TIP3    H120487   5.953   1.039   3.526 -0.0970 -0.4206 -1.2323
 6841TIP3    H220488   5.802   1.050   3.522 -0.2505 -2.3527 -1.6785
 6842TIP3   OH220489   4.570   1.027   4.038 -0.2194  0.5872  0.1743
 6842TIP3    H120490   4.508   0.956   4.017 -0.5378  1.1634 -0.8992
 6842TIP3    H220491   4.656   0.986   4.033 -0.3812  0.3467 -0.7877
 6843TIP3   OH220492   2.093   5.373   5.613 -0.2158  0.2339 -0.0741
 6843TIP3    H120493   2.047   5.448   5.576  0.3697  0.6749  0.0729
 6843TIP3    H220494   2.033   5.300   5.601 -1.5617  1.0357  1.3511
 6844TIP3   OH220495   2.376   4.608   3.166 -0.2226 -0.4758  0.1288
 6844TIP3    H120496   2.313   4.636   3.233  0.8875  1.2901  0.5026
 6844TIP3    H220497   2.371   4.677   3.099  0.1015 -1.2079 -0.6694
 6845TIP3   OH220498   0.316   6.336   3.631  0.0096 -0.3652 -0.0384
 6845TIP3    H120499   0.389   6.304   3.684 -0.2966 -0.7202  0.1733
 6845TIP3    H220500   0.248   6.357   3.695  0.1782  0.6491 -0.1727
 6846TIP3   OH220501   1.289   5.946   1.220 -0.1380  0.1991  0.2461
 6846TIP3    H120502   1.213   5.941   1.278  0.2882 -2.9281  0.6966
 6846TIP3    H220503   1.256   5.990   1.142 -1.6154  1.4871  1.5178
 6847TIP3   OH220504   5.025   4.407   2.713 -0.0718  0.0958 -0.0506
 6847TIP3    H120505   4.970   4.463   2.767  2.4689  1.5208  1.2450
 6847TIP3    H220506   5.037   4.455   2.632  1.0271  0.8692  0.5455
 6848TIP3   OH220507   5.750   3.756   4.134  0.1114 -0.6145  0.5888
 6848TIP3    H120508   5.823   3.800   4.089 -0.5964  1.4863  1.3652
 6848TIP3    H220509   5.782   3.667   4.150  1.0949 -0.9014 -2.3203
 6849TIP3   OH220510   4.473   0.894   0.404 -0.2233 -0.5802  0.6453
 6849TIP3    H120511   4.564   0.864   0.398  0.7722  1.7789  2.5006
 6849TIP3    H220512   4.438   0.849   0.480  0.5811  1.0791  2.0798
 6850TIP3   OH220513   5.986   0.488   3.261  0.5144 -0.1925  0.4955
 6850TIP3    H120514   5.999   0.397   3.288 -2.1932 -0.1967  2.1931
 6850TIP3    H220515   5.932   0.526   3.331 -0.8026  1.9270 -1.5297
 6851TIP3   OH220516   4.017   4.972   1.527  0.2536  0.7164  0.8381
 6851TIP3    H120517   4.094   4.921   1.501 -0.7261 -0.5052  0.1994
 6851TIP3    H220518   4.048   5.062   1.528  1.5333  0.3309 -0.0808
 6852TIP3   OH220519   7.061   6.597   3.126  0.3085 -0.0358  0.4999
 6852TIP3    H120520   7.038   6.512   3.087  0.4957  0.4253 -0.6490
 6852TIP3    H220521   6.996   6.657   3.091 -1.0644 -0.0214  2.8657
 6853TIP3   OH220522   4.972   3.397   4.714  0.1290  0.3625  0.7427
 6853TIP3    H120523   4.879   3.400   4.691  0.6059  1.3397 -1.2807
 6853TIP3    H220524   4.976   3.439   4.800 -1.4597 -1.1858  1.6574
 6854TIP3   OH220525   2.478   4.665   1.821 -0.1978 -0.1356 -0.3850
 6854TIP3    H120526   2.538   4.616   1.764 -0.9910 -1.2246 -0.3203
 6854TIP3    H220527   2.534   4.698   1.891  0.1995 -2.0324  0.2508
 6855TIP3   OH220528   6.614   6.139   5.307  0.2635 -0.4093  0.0064
 6855TIP3    H120529   6.696   6.109   5.346  0.1589 -0.7726 -0.0442
 6855TIP3    H220530   6.551   6.070   5.327 -0.0679 -0.0648  0.1717
 6856TIP3   OH220531   4.696   0.637   1.145  0.5160 -0.2524 -0.3939
 6856TIP3    H120532   4.749   0.568   1.106  1.5335 -0.2338  0.8792
 6856TIP3    H220533   4.633   0.591   1.200  0.1925 -0.2210 -0.7380
 6857TIP3   OH220534   2.154   2.060   2.705 -0.3053 -0.3060  0.5411
 6857TIP3    H120535   2.176   2.101   2.789 -0.5604 -1.5129  1.2231
 6857TIP3    H220536   2.224   1.995   2.692 -1.5799 -1.8663  1.0920
 6858TIP3   OH220537   3.543   1.971   1.155 -0.4545 -0.2282  0.0769
 6858TIP3    H120538   3.522   1.989   1.063  0.0296  0.4629  0.0966
 6858TIP3    H220539   3.465   1.997   1.203 -0.0868  1.0741  0.0203
 6859TIP3   OH220540   4.530   1.538   1.744  0.3067  0.5326 -0.0673
 6859TIP3    H120541   4.574   1.536   1.829  0.6023  0.4449 -0.2196
 6859TIP3    H220542   4.475   1.616   1.747  1.0939  1.1074 -0.1761
 6860TIP3   OH220543   6.803   3.743   2.262 -0.3298  0.2744 -0.3510
 6860TIP3    H120544   6.857   3.701   2.195 -2.7782  1.2371 -3.1146
 6860TIP3    H220545   6.750   3.672   2.298  0.9762 -0.2433  0.6346
 6861TIP3   OH220546   4.778   6.523   2.802 -0.9471 -0.3403  0.9949
 6861TIP3    H120547   4.736   6.575   2.871 -2.6068 -0.2445 -0.0284
 6861TIP3    H220548   4.838   6.584   2.759 -0.4384 -0.2053  1.8613
 6862TIP3   OH220549   3.341   3.421   2.912  0.5973  0.0991  0.0032
 6862TIP3    H120550   3.250   3.427   2.882  0.1292  0.0017  1.3577
 6862TIP3    H220551   3.378   3.506   2.892  0.1223  0.2466 -0.2752
 6863TIP3   OH220552   3.481   6.680   4.214 -0.8342  0.0584 -0.0902
 6863TIP3    H120553   3.440   6.596   4.237 -1.4453  0.1030 -0.9615
 6863TIP3    H220554   3.539   6.699   4.287  1.5041 -2.5199 -1.0465
 6864TIP3   OH220555   1.878   1.147   2.179 -0.5503 -0.0541  0.2600
 6864TIP3    H120556   1.833   1.110   2.254 -1.2077 -0.3391 -0.2658
 6864TIP3    H220557   1.827   1.224   2.154 -0.1402  0.2398  0.3191
 6865TIP3   OH220558   7.178   3.736   0.004  0.2505 -0.0354  0.4673
 6865TIP3    H120559   7.201   3.825   0.030 -0.3087  0.4850 -0.7734
 6865TIP3    H220560   7.183   3.686   0.085  2.4212  0.7182  0.8854
 6866TIP3   OH220561   4.705   3.386   4.650  0.2369  0.1407 -0.5691
 6866TIP3    H120562   4.647   3.310   4.650  0.4255 -0.0375  0.8306
 6866TIP3    H220563   4.684   3.432   4.569  0.1171 -1.3867 -1.4517
 6867TIP3   OH220564   1.759   2.667   4.730 -0.3525 -0.1421  0.2865
 6867TIP3    H120565   1.726   2.588   4.772 -0.2527 -1.2531 -1.6078
 6867TIP3    H220566   1.714   2.669   4.645  0.2882  1.3762 -0.0414
 6868TIP3   OH220567   5.301   2.334   0.024  0.5764  0.0072  0.7039
 6868TIP3    H120568   5.248   2.413   0.031  0.0155 -0.2354 -0.5008
 6868TIP3    H220569   5.388   2.361   0.051 -0.0343  0.5410  2.2417
 6869TIP3   OH220570   1.701   1.856   3.726  0.4295 -0.1403 -0.5298
 6869TIP3    H120571   1.663   1.837   3.640  0.6747  0.7981 -0.8612
 6869TIP3    H220572   1.788   1.816   3.723  0.8119  0.6912 -1.0935
 6870TIP3   OH220573   0.409   0.270   4.821 -0.6276  0.3046  0.0172
 6870TIP3    H120574   0.420   0.280   4.915  1.1039  0.2362 -0.1531
 6870TIP3    H220575   0.334   0.325   4.800 -0.2763  1.3007  1.2467
 6871TIP3   OH220576   4.619   3.499   1.306  0.1311  0.0594  0.1637
 6871TIP3    H120577   4.587   3.552   1.233 -1.4977 -0.8305  0.1798
 6871TIP3    H220578   4.711   3.482   1.286  0.2998  1.6654 -0.5495
 6872TIP3   OH220579   4.211   2.100   0.511 -0.2333  0.0808 -0.1473
 6872TIP3    H120580   4.166   2.083   0.594  0.3483 -0.5139  0.0584
 6872TIP3    H220581   4.186   2.026   0.455  0.2380 -0.0946 -0.1297
 6873TIP3   OH220582   5.979   6.498   0.593  0.2919  0.3679  0.6606
 6873TIP3    H120583   6.012   6.436   0.659  0.9458 -3.1601 -2.6015
 6873TIP3    H220584   6.057   6.526   0.546 -0.3527  0.7977 -0.1735
 6874TIP3   OH220585   2.230   1.372   3.128 -0.4412  0.1758 -0.0535
 6874TIP3    H120586   2.260   1.449   3.175 -1.4290  0.2338  0.5077
 6874TIP3    H220587   2.137   1.386   3.115 -0.4970 -0.5970 -0.5883
 6875TIP3   OH220588   0.088   2.293   5.654  0.0922  0.2662 -0.9361
 6875TIP3    H120589   0.116   2.269   5.566 -2.3733  0.1631 -1.7652
 6875TIP3    H220590   0.170   2.315   5.700  1.5072 -0.3584 -3.0015
 6876TIP3   OH220591   2.050   6.320   0.563  0.1817 -0.1551  0.3945
 6876TIP3    H120592   2.097   6.313   0.479 -1.4377  2.2454 -0.8091
 6876TIP3    H220593   1.958   6.330   0.538 -0.1165  3.0878  2.2636
 6877TIP3   OH220594   3.359   4.670   2.803 -0.2946 -0.4178  0.2359
 6877TIP3    H120595   3.424   4.738   2.785 -0.2296 -0.9226 -1.6524
 6877TIP3    H220596   3.313   4.657   2.720 -0.5117 -2.4440  0.6070
 6878TIP3   OH220597   4.171   1.869   2.069  0.0040  0.2634 -0.3377
 6878TIP3    H120598   4.106   1.933   2.039  1.0099  0.7108 -1.6395
 6878TIP3    H220599   4.250   1.921   2.087  1.5137 -0.7269 -3.3676
 6879TIP3   OH220600   0.259   2.675   3.269  0.1516  0.4777  0.4778
 6879TIP3    H120601   0.328   2.694   3.205 -1.0779 -1.9225 -1.7765
 6879TIP3    H220602   0.186   2.731   3.243 -0.3465 -0.4949 -0.3274
 6880TIP3   OH220603   6.903   6.399   4.893 -0.1657 -0.7517 -0.4284
 6880TIP3    H120604   6.871   6.332   4.952  2.0953 -0.3475  1.4246
 6880TIP3    H220605   6.860   6.480   4.923  0.5156 -0.6521  0.3199
 6881TIP3   OH220606   5.629   6.777   4.830  0.2789  0.2617  0.1440
 6881TIP3    H120607   5.538   6.804   4.826  0.7724  2.4986  1.9669
 6881TIP3    H220608   5.640   6.741   4.918  0.6579 -2.2566 -0.8462
 6882TIP3   OH220609   0.821   5.203   5.476  0.5333  0.5254  0.6341
 6882TIP3    H120610   0.727   5.192   5.489  0.5685  0.0595  0.4974
 6882TIP3    H220611   0.854   5.114   5.462  0.6939  0.8428 -1.2489
 6883TIP3   OH220612   3.819   0.978   5.742 -0.0792 -0.2203 -0.2267
 6883TIP3    H120613   3.845   1.004   5.830 -0.4873 -0.5749  0.0052
 6883TIP3    H220614   3.892   0.925   5.710  0.6144  0.9214 -0.5838
 6884TIP3   OH220615   0.028   5.957   4.304 -0.6477 -0.0950 -0.1784
 6884TIP3    H120616   0.073   5.945   4.221 -0.1078  0.6422 -0.0103
 6884TIP3    H220617   0.027   5.870   4.344  2.0651  0.1095  0.5181
 6885TIP3   OH220618   2.573   4.869   0.527 -0.0667 -0.2627 -0.1921
 6885TIP3    H120619   2.637   4.918   0.579 -0.5718  0.8053 -0.5565
 6885TIP3    H220620   2.517   4.936   0.488 -1.5207 -1.1692  0.2405
 6886TIP3   OH220621   0.714   1.313   4.425 -0.0934 -0.3694 -0.0608
 6886TIP3    H120622   0.635   1.289   4.475 -0.2945 -0.0873 -0.2446
 6886TIP3    H220623   0.785   1.301   4.488 -0.5320  2.0784  1.0100
 6887TIP3   OH220624   1.422   5.427   0.821  0.2511  0.3889 -0.4297
 6887TIP3    H120625   1.410   5.438   0.726  0.2398  1.0068 -0.3619
 6887TIP3    H220626   1.418   5.333   0.835 -1.8195  0.3793 -0.7740
 6888TIP3   OH220627   1.205   1.028   5.818  0.3994  0.1262  0.0263
 6888TIP3    H120628   1.122   1.051   5.775 -0.5937 -1.2906  1.1386
 6888TIP3    H220629   1.260   0.996   5.746  0.2961  1.7818 -0.8507
 6889TIP3   OH220630   3.837   0.781   0.184  0.1417  1.0394 -0.7081
 6889TIP3    H120631   3.857   0.768   0.091 -1.1055 -0.0146 -0.8569
 6889TIP3    H220632   3.829   0.876   0.193  1.1099  1.2171 -1.4800
 6890TIP3   OH220633   1.115   6.095   0.453  0.1520  0.2636 -0.1491
 6890TIP3    H120634   1.192   6.074   0.504 -0.2508  0.8470  0.7190
 6890TIP3    H220635   1.148   6.149   0.380  0.5390  0.7017  0.3423
 6891TIP3   OH220636   5.596   0.699   2.118 -0.6348 -0.7712  1.0089
 6891TIP3    H120637   5.505   0.678   2.100 -0.5930 -0.3874  0.3085
 6891TIP3    H220638   5.593   0.775   2.176 -0.7593 -0.1799  0.2363
 6892TIP3   OH220639   1.589   0.682   5.608  0.7080  0.0142 -0.2165
 6892TIP3    H120640   1.515   0.625   5.627  2.4703 -2.3376  0.0496
 6892TIP3    H220641   1.618   0.715   5.694  1.3451 -0.9280 -0.0583
 6893TIP3   OH220642   6.738   3.512   2.919 -0.3797 -0.4889 -0.5892
 6893TIP3    H120643   6.655   3.549   2.887 -1.0219 -1.0614  0.3699
 6893TIP3    H220644   6.798   3.586   2.919 -1.6312  0.6077  1.2624
 6894TIP3   OH220645   0.861   1.473   2.582  0.2364 -0.1688 -0.2533
 6894TIP3    H120646   0.795   1.529   2.542  0.9990 -0.0545 -1.4104
 6894TIP3    H220647   0.845   1.479   2.676 -1.9431 -0.8431 -0.5245
 6895TIP3   OH220648   4.037   3.263   0.100 -0.1322  0.2931  0.3201
 6895TIP3    H120649   4.062   3.179   0.063 -0.3902  0.5201 -0.3902
 6895TIP3    H220650   4.070   3.328   0.038 -0.5605  0.6847  0.4868
 6896TIP3   OH220651   6.350   1.969   1.598  0.5150 -0.1624  0.5735
 6896TIP3    H120652   6.294   1.894   1.617  1.5302 -1.6146 -1.6820
 6896TIP3    H220653   6.298   2.045   1.622 -1.9585 -1.4803 -0.2770
 6897TIP3   OH220654   2.649   0.660   1.140  0.1728  0.1003  0.5090
 6897TIP3    H120655   2.657   0.598   1.068 -2.2226  0.4754 -0.1776
 6897TIP3    H220656   2.690   0.616   1.214 -0.9984 -2.1291 -0.0736
 6898TIP3   OH220657   0.119   6.618   1.783 -0.4924 -0.5607  0.2996
 6898TIP3    H120658   0.105   6.573   1.866  1.3806 -0.4867  0.6943
 6898TIP3    H220659   0.081   6.560   1.717  0.3691 -1.9194  0.9602
 6899TIP3   OH220660   3.124   4.796   1.921 -0.1490 -0.0659 -0.0079
 6899TIP3    H120661   3.162   4.719   1.964 -2.2417 -0.3788  1.4031
 6899TIP3    H220662   3.141   4.781   1.828  1.2480 -1.2169  0.3883
 6900TIP3   OH220663   1.360   6.766   4.984 -0.1205  0.2224 -0.5819
 6900TIP3    H120664   1.296   6.760   4.913 -1.9923  0.8528  0.9780
 6900TIP3    H220665   1.340   6.849   5.028  2.3891  0.9012 -0.5532
 6901TIP3   OH220666   3.771   5.917   0.899 -0.3064  0.0616 -0.0659
 6901TIP3    H120667   3.780   5.925   0.804  0.3971  0.1010  0.0001
 6901TIP3    H220668   3.827   5.843   0.922 -0.4710  0.0559  0.3215
 6902TIP3   OH220669   3.203   5.374   0.864 -0.2685 -0.2445 -0.3805
 6902TIP3    H120670   3.204   5.446   0.927  2.7375  0.0638 -0.6456
 6902TIP3    H220671   3.208   5.416   0.778 -0.2616 -0.7416 -0.6317
 6903TIP3   OH220672   1.222   6.683   4.197 -0.1969  0.4400 -0.1371
 6903TIP3    H120673   1.230   6.671   4.292 -1.0965  0.4794 -0.0397
 6903TIP3    H220674   1.161   6.614   4.170 -1.4478  1.5913 -0.3715
 6904TIP3   OH220675   4.419   5.456   0.385  0.0041  0.1983 -0.1999
 6904TIP3    H120676   4.393   5.366   0.405 -1.7336  0.7968  0.4213
 6904TIP3    H220677   4.492   5.446   0.325 -1.0327 -1.6519 -1.2743
 6905TIP3   OH220678   6.029   3.088   0.907  0.7765 -0.0785  0.5363
 6905TIP3    H120679   5.960   3.044   0.957  0.7813  1.1354  1.6653
 6905TIP3    H220680   5.984   3.161   0.864  0.6157 -1.5087 -1.9244
 6906TIP3   OH220681   0.358   2.159   0.690 -0.1888 -0.4111 -0.0400
 6906TIP3    H120682   0.435   2.105   0.674 -0.8379 -1.8333  1.4282
 6906TIP3    H220683   0.329   2.186   0.602 -0.7402 -3.7295 -0.9940
 6907TIP3   OH220684   5.564   1.215   5.401  0.7583 -0.0736  0.3388
 6907TIP3    H120685   5.590   1.127   5.425  1.0747  0.2539  1.2245
 6907TIP3    H220686   5.468   1.213   5.404  0.7453 -0.5404 -0.2345
 6908TIP3   OH220687   4.523   5.899   0.931 -0.3192  0.2282  0.0138
 6908TIP3    H120688   4.513   5.849   1.012 -0.6435 -1.7515 -1.1758
 6908TIP3    H220689   4.461   5.858   0.870  0.3827  1.2447 -1.4376
 6909TIP3   OH220690   3.304   4.072   1.170  0.1748 -0.2635  0.0824
 6909TIP3    H120691   3.298   4.001   1.234  0.4058 -0.7484 -0.4239
 6909TIP3    H220692   3.340   4.030   1.091  0.2890  0.4091 -0.2294
 6910TIP3   OH220693   3.485   2.896   2.817 -0.1020  0.0650 -0.4614
 6910TIP3    H120694   3.483   2.806   2.783 -0.8347 -0.5799  1.1990
 6910TIP3    H220695   3.567   2.932   2.782 -0.4230 -0.7956 -2.2183
 6911TIP3   OH220696   6.128   4.974   0.019  0.4546  0.0529  0.3703
 6911TIP3    H120697   6.075   5.048  -0.011  1.3730  0.1972 -0.9549
 6911TIP3    H220698   6.172   5.007   0.097  1.9306  1.4311 -0.9810
 6912TIP3   OH220699   5.428   1.264   0.830 -0.5773 -0.1398  0.2642
 6912TIP3    H120700   5.364   1.251   0.900  0.4587  0.4611  1.3576
 6912TIP3    H220701   5.512   1.264   0.874  0.2221 -1.1284 -1.1737
 6913TIP3   OH220702   1.851   3.305   3.139 -0.3052 -0.8250  0.7099
 6913TIP3    H120703   1.902   3.341   3.067  1.6347 -1.9952  1.4330
 6913TIP3    H220704   1.787   3.374   3.160  1.6211  1.1727  0.4294
 6914TIP3   OH220705   4.445   4.411   5.400  0.7603  0.4355 -0.1203
 6914TIP3    H120706   4.425   4.317   5.400 -0.6607  0.7260 -1.0833
 6914TIP3    H220707   4.410   4.442   5.484  0.2835  0.2970 -0.2651
 6915TIP3   OH220708   1.184   3.220   2.431 -0.7000 -0.2911  0.4070
 6915TIP3    H120709   1.107   3.272   2.455 -2.1887 -1.5342 -1.4800
 6915TIP3    H220710   1.182   3.215   2.336  1.0886 -1.3583  0.3765
 6916TIP3   OH220711   0.219   5.521   3.317 -0.1986 -0.0223  0.1924
 6916TIP3    H120712   0.137   5.500   3.361  0.5795 -1.5348  0.9754
 6916TIP3    H220713   0.269   5.570   3.382 -0.0051 -0.1300  0.1234
 6917TIP3   OH220714   5.658   6.400   5.049  0.4848  0.4992 -0.3413
 6917TIP3    H120715   5.577   6.449   5.059  0.0531 -0.0463 -1.0882
 6917TIP3    H220716   5.642   6.317   5.093  0.3628  0.0943 -1.1341
 6918TIP3   OH220717   0.610   2.814   5.460  0.3752 -0.0614  0.5728
 6918TIP3    H120718   0.675   2.745   5.471  1.5911  0.9338 -0.0965
 6918TIP3    H220719   0.552   2.805   5.536  1.7358 -0.5114  1.5958
 6919TIP3   OH220720   5.391   5.498   4.320 -0.1643 -0.9568 -0.5983
 6919TIP3    H120721   5.388   5.434   4.249  2.0877 -0.0152 -1.6643
 6919TIP3    H220722   5.376   5.582   4.276  1.3301 -0.3520 -0.0238
 6920TIP3   OH220723   4.366   5.317   1.940 -0.4427  0.2217 -0.1771
 6920TIP3    H120724   4.276   5.290   1.958 -1.1733  2.0130 -0.8576
 6920TIP3    H220725   4.411   5.237   1.916 -1.8077 -0.7416  0.3312
 6921TIP3   OH220726   4.604   6.742   1.383  0.4875  0.4696 -0.0038
 6921TIP3    H120727   4.684   6.784   1.350  1.3941 -1.5239 -0.5062
 6921TIP3    H220728   4.534   6.782   1.332  1.5082  0.0878 -1.8244
 6922TIP3   OH220729   6.618   2.122   5.304  0.4596 -0.2534  0.0292
 6922TIP3    H120730   6.589   2.089   5.219 -1.1312 -1.5380  1.0127
 6922TIP3    H220731   6.565   2.074   5.368  1.3062  0.9806  1.7411
 6923TIP3   OH220732   3.235   6.273   3.515  0.5798  0.4137  0.3460
 6923TIP3    H120733   3.173   6.334   3.555 -1.4056 -0.7273 -0.8202
 6923TIP3    H220734   3.206   6.267   3.424  0.8224 -2.0803  0.3631
 6924TIP3   OH220735   3.907  -0.015   4.569 -0.1908 -0.2342  0.5231
 6924TIP3    H120736   3.989   0.003   4.522 -1.1901  0.5864 -0.9891
 6924TIP3    H220737   3.890   0.065   4.618 -0.1585 -0.3512  0.7244
 6925TIP3   OH220738   4.122   3.061   2.308  0.1539  0.2246 -0.3404
 6925TIP3    H120739   4.135   2.966   2.311  0.5718  0.2957  0.2054
 6925TIP3    H220740   4.036   3.072   2.267 -0.0262 -0.3967 -0.1365
 6926TIP3   OH220741   5.590   1.779   1.405  0.6306 -0.1731  0.0488
 6926TIP3    H120742   5.631   1.747   1.486 -1.1750 -2.1549  0.2544
 6926TIP3    H220743   5.502   1.804   1.431  0.8444  1.6746 -0.8562
 6927TIP3   OH220744   6.361   0.549   3.411  0.3155 -0.7151 -0.6198
 6927TIP3    H120745   6.430   0.541   3.345  0.0904 -0.5227 -0.8812
 6927TIP3    H220746   6.393   0.614   3.472 -0.5274  0.9749 -1.8945
 6928TIP3   OH220747   3.297   3.053   1.167  0.0087 -0.1206  0.0669
 6928TIP3    H120748   3.316   2.967   1.129  0.6035  0.1676 -0.2941
 6928TIP3    H220749   3.291   3.038   1.261 -0.2563 -0.6220 -0.0287
 6929TIP3   OH220750   2.323   6.239   0.054  0.5571 -0.6697  0.6387
 6929TIP3    H120751   2.337   6.149   0.084  0.3723 -1.1795 -0.7346
 6929TIP3    H220752   2.408   6.281   0.062  1.0168 -1.4306 -0.1867
 6930TIP3   OH220753   1.749   0.181   3.907  0.3605 -0.5856 -0.4119
 6930TIP3    H120754   1.795   0.263   3.894  0.8602 -0.7607  0.1753
 6930TIP3    H220755   1.759   0.163   4.001 -1.8004 -0.1074 -0.0455
 6931TIP3   OH220756   6.083   4.199   0.471 -0.4227  0.3613 -0.2147
 6931TIP3    H120757   6.033   4.280   0.460  1.1306  1.4361  0.1943
 6931TIP3    H220758   6.156   4.208   0.409 -0.3475 -0.8407 -0.3224
 6932TIP3   OH220759   3.745   0.385   1.183 -0.0633 -0.5913  0.0698
 6932TIP3    H120760   3.788   0.337   1.112  2.5985  0.2466  0.9743
 6932TIP3    H220761   3.676   0.436   1.140 -1.2992 -3.2100 -1.2522
 6933TIP3   OH220762   0.470   5.572   1.557  0.2262  0.6071 -0.5469
 6933TIP3    H120763   0.465   5.505   1.625  2.7373  0.3905 -0.4880
 6933TIP3    H220764   0.436   5.528   1.478 -0.6864  0.1802  0.0595
 6934TIP3   OH220765   0.467   1.011   4.796  0.5257 -0.5143 -0.0879
 6934TIP3    H120766   0.540   1.074   4.796 -0.2650  0.4420 -0.6975
 6934TIP3    H220767   0.411   1.039   4.869  0.1890 -0.5331 -0.3356
 6935TIP3   OH220768   2.278   0.299   0.330  0.3377  0.1581 -0.1485
 6935TIP3    H120769   2.334   0.376   0.342  0.8441 -0.1037 -0.7253
 6935TIP3    H220770   2.316   0.233   0.388  0.3646  0.1191 -0.2095
 6936TIP3   OH220771   4.496   2.139   5.018  0.8061 -0.1566 -0.2501
 6936TIP3    H120772   4.571   2.092   4.981  0.4521 -0.2498 -0.8515
 6936TIP3    H220773   4.485   2.215   4.961 -1.0135 -1.3550 -1.6260
 6937TIP3   OH220774   5.409   4.679   3.326 -0.1093 -0.2758  0.0945
 6937TIP3    H120775   5.492   4.632   3.334 -0.1825 -0.5660 -0.7955
 6937TIP3    H220776   5.423   4.743   3.256 -1.2044 -1.6373 -1.4385
 6938TIP3   OH220777   1.067   1.689   0.615  0.6785  0.5087 -0.4154
 6938TIP3    H120778   1.058   1.784   0.620 -0.8694  0.4361 -1.4106
 6938TIP3    H220779   1.053   1.659   0.705  0.5693  1.1745 -0.2046
 6939TIP3   OH220780   0.557   2.512   1.830  0.0047  0.1636  0.0859
 6939TIP3    H120781   0.497   2.508   1.905 -3.8988  1.2754 -2.6692
 6939TIP3    H220782   0.583   2.421   1.815 -3.3578 -0.8835 -0.1776
 6940TIP3   OH220783   1.156   0.147   2.880  0.3858  0.3994  0.4486
 6940TIP3    H120784   1.241   0.166   2.919  0.1681  4.4886 -0.6442
 6940TIP3    H220785   1.094   0.162   2.950  0.3123  2.9187 -0.0740
 6941TIP3   OH220786   6.660   2.652   2.841 -0.6180  0.0510 -0.0888
 6941TIP3    H120787   6.661   2.729   2.899  0.6309 -1.5438  2.1795
 6941TIP3    H220788   6.747   2.652   2.801 -1.1846  0.6665 -1.3981
 6942TIP3   OH220789   0.110   5.180   4.452 -0.5387 -0.0194 -0.6358
 6942TIP3    H120790   0.204   5.187   4.435 -0.5113 -2.3298 -1.9609
 6942TIP3    H220791   0.102   5.104   4.509 -1.4981  1.5082  1.3735
 6943TIP3   OH220792   3.248   6.523   4.966 -0.7795 -0.1172  0.5536
 6943TIP3    H120793   3.268   6.437   5.003 -1.6415 -0.6913 -0.2667
 6943TIP3    H220794   3.223   6.576   5.042  4.9021  1.1682  2.0114
 6944TIP3   OH220795   2.947   5.335   1.584  0.2836  0.6143  0.5201
 6944TIP3    H120796   2.900   5.372   1.509 -1.4351  1.6402  2.0373
 6944TIP3    H220797   2.901   5.253   1.603  0.9474  0.1720  0.2455
 6945TIP3   OH220798   4.568   2.336   4.150 -0.8619  0.5106  0.1521
 6945TIP3    H120799   4.605   2.274   4.088 -0.0526 -0.3941  1.5054
 6945TIP3    H220800   4.609   2.420   4.127  1.0580 -0.2121  0.7585
 6946TIP3   OH220801   1.210   3.578   4.333  0.0088  0.0834  0.4541
 6946TIP3    H120802   1.253   3.493   4.340  0.2233 -0.1237 -2.2071
 6946TIP3    H220803   1.133   3.571   4.389 -1.2214 -2.7639 -1.3433
 6947TIP3   OH220804   3.107   2.909   3.369  0.1575 -0.3320 -0.0119
 6947TIP3    H120805   3.074   2.866   3.448 -2.5855 -0.4465 -1.0903
 6947TIP3    H220806   3.140   2.993   3.400  0.8328 -1.1115  1.4671
 6948TIP3   OH220807   2.046   4.312   4.184 -0.4319 -0.2643 -0.0792
 6948TIP3    H120808   2.085   4.354   4.107  2.1547 -0.4782  1.0093
 6948TIP3    H220809   2.026   4.223   4.155 -2.4483  0.5153 -1.3264
 6949TIP3   OH220810   5.582   1.216   1.056  0.7897 -0.8936  0.1270
 6949TIP3    H120811   5.615   1.135   1.018  1.2707 -0.3550 -0.6285
 6949TIP3    H220812   5.656   1.276   1.055  0.7821 -0.8091  1.8210
 6950TIP3   OH220813   6.217   5.993   3.665  0.2099  0.7590  0.2793
 6950TIP3    H120814   6.292   6.046   3.641 -1.1085  2.1302 -1.0853
 6950TIP3    H220815   6.234   5.907   3.625  2.2272  0.1399  2.2652
 6951TIP3   OH220816   5.559   4.793   3.889  0.4210 -0.1957 -0.4348
 6951TIP3    H120817   5.640   4.774   3.841  0.2986 -2.9253  0.2610
 6951TIP3    H220818   5.503   4.717   3.873 -0.0744 -0.7204  2.9648
 6952TIP3   OH220819   6.050   5.440   4.675  0.0838  0.6570 -0.4552
 6952TIP3    H120820   5.988   5.481   4.735 -0.5495  1.2141 -1.4729
 6952TIP3    H220821   6.076   5.359   4.719 -0.6012  0.9089  0.4269
 6953TIP3   OH220822   5.583   5.187   1.696 -0.1982  0.2369 -0.3750
 6953TIP3    H120823   5.584   5.095   1.722  0.7880  0.6593  1.1504
 6953TIP3    H220824   5.660   5.226   1.737 -1.1969  1.9993 -0.0345
 6954TIP3   OH220825   2.378   0.504   1.278 -0.0987 -0.2184 -0.0381
 6954TIP3    H120826   2.362   0.578   1.220  0.2078  0.2220  0.4285
 6954TIP3    H220827   2.308   0.509   1.343 -0.0283 -0.2867  0.0438
 6955TIP3   OH220828   5.242   2.470   3.609  0.1861  0.0631  0.0038
 6955TIP3    H120829   5.216   2.538   3.671 -1.2991  0.8038 -1.3503
 6955TIP3    H220830   5.226   2.388   3.655 -3.3559  0.5030 -0.1533
 6956TIP3   OH220831   2.293   3.836   5.571 -0.2487  0.4831  0.0680
 6956TIP3    H120832   2.262   3.906   5.628 -0.1142  0.1331  0.5744
 6956TIP3    H220833   2.231   3.835   5.498 -1.4072 -0.1705  1.0345
 6957TIP3   OH220834   4.375   6.364   1.539 -0.2286 -0.1340 -0.0995
 6957TIP3    H120835   4.310   6.420   1.582 -0.2889 -0.3014  0.0291
 6957TIP3    H220836   4.396   6.297   1.604  0.4645  0.2178  0.0481
 6958TIP3   OH220837   1.568   5.282   2.881 -0.2789 -0.2128 -0.2641
 6958TIP3    H120838   1.505   5.255   2.814 -1.5059  2.3088 -0.2301
 6958TIP3    H220839   1.627   5.341   2.835  1.5743 -1.8102 -0.0633
 6959TIP3   OH220840   2.460   5.103   5.648  0.0269 -0.0722  0.3343
 6959TIP3    H120841   2.532   5.086   5.588 -0.6582  0.2287 -0.5922
 6959TIP3    H220842   2.499   5.154   5.719  0.6914  0.2228 -0.2294
 6960TIP3   OH220843   4.771   4.848   3.582 -0.1838  0.6913 -0.3350
 6960TIP3    H120844   4.835   4.807   3.524 -0.0257 -0.1372  0.3861
 6960TIP3    H220845   4.725   4.774   3.622  0.1743  1.2075  1.0931
 6961TIP3   OH220846   5.903   4.551   3.641 -0.1950  0.1156 -0.1659
 6961TIP3    H120847   5.863   4.483   3.695  0.3301 -0.7170 -0.7974
 6961TIP3    H220848   5.832   4.611   3.622 -0.6862 -0.2831  0.3626
 6962TIP3   OH220849   5.069   0.264   1.508  0.0506  0.5111 -0.0390
 6962TIP3    H120850   5.021   0.313   1.442  0.7120  0.3914 -0.6206
 6962TIP3    H220851   5.161   0.282   1.490  0.2985 -0.6931 -0.0878
 6963TIP3   OH220852   5.779   5.240   4.367 -0.1035 -0.1814  0.2174
 6963TIP3    H120853   5.860   5.246   4.417 -0.4574 -2.5041  1.2263
 6963TIP3    H220854   5.712   5.277   4.426 -0.0163  0.2928  0.0222
 6964TIP3   OH220855   5.979   1.071   4.038 -0.4598  0.0380 -0.3755
 6964TIP3    H120856   5.909   1.030   4.090  1.4772 -1.2451  1.3773
 6964TIP3    H220857   5.966   1.037   3.949 -1.1024 -1.4500  0.2617
 6965TIP3   OH220858   2.542   4.178   0.122  0.5857 -0.3382  0.0269
 6965TIP3    H120859   2.624   4.192   0.073  0.7144 -0.9501  0.0500
 6965TIP3    H220860   2.474   4.209   0.063  0.8611  0.6100  0.1939
 6966TIP3   OH220861   4.801   0.165   3.077 -0.9315  0.3807 -0.1433
 6966TIP3    H120862   4.775   0.091   3.132 -1.1389  0.4306 -0.1713
 6966TIP3    H220863   4.718   0.205   3.051 -0.8900 -0.1971 -1.2552
 6967TIP3   OH220864   4.883   4.613   1.046 -0.2521 -0.6225 -0.4846
 6967TIP3    H120865   4.907   4.623   1.138 -0.6783  1.4057 -0.5422
 6967TIP3    H220866   4.964   4.587   1.002 -0.1774 -2.1941  0.5198
 6968TIP3   OH220867   1.100   0.229   4.110  0.8130 -0.1981 -0.9167
 6968TIP3    H120868   1.090   0.134   4.102  1.5802 -0.1233 -3.7126
 6968TIP3    H220869   1.075   0.263   4.024  1.4294  2.0549 -0.2612
 6969TIP3   OH220870   0.232   3.404   4.569  0.1551  1.2737  0.2729
 6969TIP3    H120871   0.231   3.490   4.611 -0.7757  2.0707 -1.2726
 6969TIP3    H220872   0.218   3.423   4.476 -0.4551 -0.5787 -0.0510
 6970TIP3   OH220873   6.625   0.518   1.694  0.1230 -0.4280  0.1696
 6970TIP3    H120874   6.567   0.442   1.707 -0.9004  0.5653  1.6517
 6970TIP3    H220875   6.699   0.502   1.751  0.9842 -1.3165 -1.1379
 6971TIP3   OH220876   4.948   3.858   3.338 -0.6955  0.2249  0.2218
 6971TIP3    H120877   5.001   3.898   3.407 -2.0867  2.2784  0.1994
 6971TIP3    H220878   5.011   3.810   3.284  0.5707 -0.5852  2.2991
 6972TIP3   OH220879   2.561   6.423   0.103 -0.1911  0.8018  0.0529
 6972TIP3    H120880   2.635   6.451   0.158 -0.6382  0.0646  1.0557
 6972TIP3    H220881   2.498   6.494   0.110 -0.1098  0.8569  0.2279
 6973TIP3   OH220882   1.813   6.463   4.415 -0.0085  0.1661 -0.4425
 6973TIP3    H120883   1.793   6.415   4.334 -0.0366 -0.6362  0.0304
 6973TIP3    H220884   1.727   6.484   4.451 -0.0669  2.8020 -1.8971
 6974TIP3   OH220885   5.448   6.770   0.141  0.5574 -0.0662  0.0766
 6974TIP3    H120886   5.464   6.734   0.229  0.7870 -1.3947 -0.4932
 6974TIP3    H220887   5.373   6.828   0.152  0.9386  0.2418  1.2608
 6975TIP3   OH220888   3.564   4.000   3.228  0.3681  0.1384  0.2708
 6975TIP3    H120889   3.546   4.065   3.160  0.2556  1.1909  1.2795
 6975TIP3    H220890   3.560   4.049   3.310 -1.5114 -1.4867  1.2263
 6976TIP3   OH220891   2.117   4.319   5.527 -0.0628 -0.0043  0.8191
 6976TIP3    H120892   2.153   4.248   5.473  0.1328 -0.5124  1.6116
 6976TIP3    H220893   2.027   4.292   5.544 -0.0447  0.0303  0.9670
 6977TIP3   OH220894   1.041   3.701   5.001 -0.3211  0.6708 -0.0638
 6977TIP3    H120895   1.076   3.625   4.954 -0.0055  1.5472 -1.2847
 6977TIP3    H220896   0.951   3.676   5.022 -0.9786  0.7911 -2.4757
 6978TIP3   OH220897   3.374   5.282   2.756  0.4414  0.0917 -0.1990
 6978TIP3    H120898   3.312   5.324   2.696  0.9502  0.0204 -0.7938
 6978TIP3    H220899   3.324   5.265   2.835  0.2287  1.9010  0.1099
 6979TIP3   OH220900   4.250   3.183   4.351  0.3469 -0.2836  0.1053
 6979TIP3    H120901   4.268   3.168   4.258 -1.4601  1.5790 -0.6108
 6979TIP3    H220902   4.296   3.265   4.371 -0.2462 -0.0550  0.5438
 6980TIP3   OH220903   5.153   4.282   0.990  0.0531 -0.0538  0.2697
 6980TIP3    H120904   5.153   4.199   0.942  0.7556  0.4693 -0.6679
 6980TIP3    H220905   5.199   4.262   1.072  0.7216 -0.4759 -0.1901
 6981TIP3   OH220906   1.792   5.181   1.033  0.2138  0.0997 -0.4863
 6981TIP3    H120907   1.865   5.160   0.974 -0.0872  1.0747 -1.2353
 6981TIP3    H220908   1.820   5.150   1.118  1.2740 -0.0512 -0.8774
 6982TIP3   OH220909   6.670   2.930   2.939  0.2525 -0.0576  0.0113
 6982TIP3    H120910   6.674   3.019   2.905 -0.2832  0.4524  1.2604
 6982TIP3    H220911   6.751   2.919   2.988  0.2225 -0.1962  0.0298
 6983TIP3   OH220912   7.104   1.083   5.664  0.0683 -0.7573 -0.1235
 6983TIP3    H120913   7.029   1.024   5.668 -0.3055 -0.2211  1.5029
 6983TIP3    H220914   7.143   1.078   5.751  1.4425 -0.4009 -0.6996
 6984TIP3   OH220915   2.513   5.871   4.575 -0.5069  0.5877  0.0297
 6984TIP3    H120916   2.489   5.791   4.529  0.4937  0.8649 -1.0190
 6984TIP3    H220917   2.435   5.927   4.568 -1.2727 -0.3332  0.9188
 6985TIP3   OH220918   4.839   2.460   4.313 -0.0448  0.3120  0.2054
 6985TIP3    H120919   4.866   2.396   4.246 -2.2649 -1.2444  0.6580
 6985TIP3    H220920   4.812   2.537   4.262 -0.8051 -0.4944 -0.6672
 6986TIP3   OH220921   3.644   1.002   1.994  0.6343 -0.2151 -0.3735
 6986TIP3    H120922   3.682   1.069   1.936  0.5043 -0.1230 -0.3511
 6986TIP3    H220923   3.621   0.931   1.935 -0.1176  0.1487 -0.5265
 6987TIP3   OH220924   2.897   3.453   0.967 -0.0338  0.6335 -0.0614
 6987TIP3    H120925   2.853   3.390   0.910 -0.4295  1.3655 -0.5830
 6987TIP3    H220926   2.864   3.538   0.938  1.7343  1.2078 -0.4779
 6988TIP3   OH220927   5.877   1.290   3.642 -1.0068 -0.4825 -0.5197
 6988TIP3    H120928   5.860   1.273   3.735  3.3331  1.5495  0.9338
 6988TIP3    H220929   5.918   1.210   3.610 -0.4019 -0.4059  0.0314
 6989TIP3   OH220930   5.590   5.781   4.665  0.1208  0.5808 -0.8161
 6989TIP3    H120931   5.634   5.818   4.588  1.5458 -0.1301 -0.3850
 6989TIP3    H220932   5.550   5.700   4.633 -0.7928  1.1665 -1.1844
 6990TIP3   OH220933   1.758   6.642   3.969  0.4291  0.0575 -0.1999
 6990TIP3    H120934   1.783   6.551   3.957  0.3925  0.1402 -1.0093
 6990TIP3    H220935   1.834   6.683   4.010 -0.0070 -0.5758  1.3245
 6991TIP3   OH220936   1.508   1.077   3.820 -0.5841  0.0779 -0.7998
 6991TIP3    H120937   1.553   1.119   3.894  0.4123  0.8085 -1.7943
 6991TIP3    H220938   1.415   1.089   3.839 -0.3645 -0.0444  0.4986
 6992TIP3   OH220939   0.589   0.656   3.404  0.5893  0.2912  0.0674
 6992TIP3    H120940   0.679   0.665   3.372  0.3917  0.6984 -0.3897
 6992TIP3    H220941   0.599   0.623   3.493  1.2190  0.8226  0.2056
 6993TIP3   OH220942   2.961   3.990   5.757 -0.1834  0.7721  0.2556
 6993TIP3    H120943   2.984   4.079   5.732 -2.0771  1.3178  0.3625
 6993TIP3    H220944   2.911   4.000   5.838  0.7531 -0.5125  1.0373
 6994TIP3   OH220945   6.931   1.718   0.076  0.1991 -0.0401  0.4590
 6994TIP3    H120946   6.922   1.813   0.087 -0.9118 -0.2607  1.7398
 6994TIP3    H220947   7.019   1.698   0.107  0.4860  0.5901  0.0545
 6995TIP3   OH220948   4.299   1.932   2.383  0.5656  0.1963 -0.2991
 6995TIP3    H120949   4.210   1.963   2.397  0.6644  0.0666  0.7636
 6995TIP3    H220950   4.320   1.958   2.293  0.2351  2.2087  0.1375
 6996TIP3   OH220951   3.655   2.915   4.688 -0.0688  0.1748 -0.6265
 6996TIP3    H120952   3.651   2.926   4.783  0.5289  0.4717 -0.6268
 6996TIP3    H220953   3.720   2.980   4.660 -0.4973  0.3275 -1.2776
 6997TIP3   OH220954   4.472   0.494   2.808 -0.3775  0.2075 -0.1318
 6997TIP3    H120955   4.557   0.502   2.765 -0.8288  0.1570 -1.0613
 6997TIP3    H220956   4.419   0.565   2.771 -1.0333 -0.3505 -0.2878
 6998TIP3   OH220957   4.933   4.351   4.462 -0.0397  0.1120 -0.7138
 6998TIP3    H120958   4.877   4.391   4.528 -0.3468 -0.7320 -0.4599
 6998TIP3    H220959   4.947   4.421   4.397 -0.0437  0.8251  0.0389
 6999TIP3   OH220960   4.345   1.244   2.084 -0.9521  0.5970 -0.0816
 6999TIP3    H120961   4.319   1.230   1.993  0.8821  0.8804 -0.6962
 6999TIP3    H220962   4.299   1.177   2.133 -0.3809 -0.9228 -1.5227
 7000TIP3   OH220963   3.831   4.675   4.437  0.1010  0.3639 -0.5032
 7000TIP3    H120964   3.839   4.764   4.404 -1.4698 -0.0573 -2.2083
 7000TIP3    H220965   3.807   4.623   4.360  2.8303 -1.9178  0.0012
 7001TIP3   OH220966   5.253   6.237   0.873  0.5026  0.1149 -0.2066
 7001TIP3    H120967   5.310   6.314   0.869 -0.4301  0.9878  1.9687
 7001TIP3    H220968   5.171   6.267   0.834  0.3772  0.0066 -0.0261
 7002TIP3   OH220969   3.402   2.743   5.554  0.0117  0.4726  0.0366
 7002TIP3    H120970   3.472   2.694   5.511  0.0057  0.4582  0.0430
 7002TIP3    H220971   3.323   2.691   5.538 -0.2851  1.3384 -1.4105
 7003TIP3   OH220972   1.925   4.545   2.835 -0.4608  0.3244  0.7636
 7003TIP3    H120973   1.919   4.557   2.929 -0.0830  0.3578  0.7856
 7003TIP3    H220974   1.851   4.488   2.813 -0.8716  0.7711  0.9959
 7004TIP3   OH220975   4.092   3.241   1.257 -0.0987  0.3299  0.3587
 7004TIP3    H120976   4.095   3.228   1.162  0.9535 -0.4629  0.4677
 7004TIP3    H220977   4.105   3.335   1.270 -0.0806  0.4150 -0.2773
 7005TIP3   OH220978   1.870   3.844   3.905 -0.2038  0.2477 -0.0654
 7005TIP3    H120979   1.893   3.830   3.813 -0.4434 -0.4623 -0.0251
 7005TIP3    H220980   1.776   3.823   3.909  0.3061 -2.1826  0.8117
 7006TIP3   OH220981   2.207   2.980   5.837 -0.3001  0.0604  0.0378
 7006TIP3    H120982   2.266   3.056   5.840  0.8662 -0.8369  1.3201
 7006TIP3    H220983   2.142   2.997   5.906  0.0138 -0.1216  0.3858
 7007TIP3   OH220984   3.527   4.017   4.959 -0.0597 -0.2306  0.0301
 7007TIP3    H120985   3.492   3.929   4.967 -0.6070 -0.1926 -1.5736
 7007TIP3    H220986   3.452   4.075   4.972  0.3875  0.0626  1.6000
 7008TIP3   OH220987   4.706   6.499   0.596  0.1205  0.1073  0.4844
 7008TIP3    H120988   4.655   6.477   0.674 -0.8479  0.6716  0.0351
 7008TIP3    H220989   4.743   6.416   0.567 -1.6099 -0.5922  0.1091
 7009TIP3   OH220990   6.379   1.228   1.889 -0.5052  0.2033 -0.4445
 7009TIP3    H120991   6.434   1.275   1.827 -2.6916  0.6274 -2.2209
 7009TIP3    H220992   6.364   1.143   1.849  1.7061 -1.3729  1.7631
 7010TIP3   OH220993   3.943   4.552   4.181  0.0806 -0.2722  0.0785
 7010TIP3    H120994   3.856   4.552   4.140  0.0254  0.4714  0.1829
 7010TIP3    H220995   3.943   4.475   4.237 -0.2007 -0.7582 -0.5786
 7011TIP3   OH220996   3.059   5.331   5.118  0.1053  0.4628 -0.4409
 7011TIP3    H120997   3.129   5.296   5.062 -0.9736  0.5622 -1.9001
 7011TIP3    H220998   2.979   5.316   5.068 -1.1759 -1.3057  1.9576
 7012TIP3   OH220999   1.589   0.988   5.405  0.2681 -0.2102 -0.1522
 7012TIP3    H121000   1.551   0.905   5.374  1.3039 -0.7999  0.0834
 7012TIP3    H221001   1.680   0.965   5.427  0.5869  1.0067 -0.1344
 7013TIP3   OH221002   5.160   3.326   4.274  0.4389 -0.7525  0.4123
 7013TIP3    H121003   5.157   3.378   4.355 -0.3052  0.4159 -0.3241
 7013TIP3    H221004   5.125   3.385   4.207 -0.2727 -2.1575 -0.5078
 7014TIP3   OH221005   0.728   0.754   0.394 -0.3425 -0.0646 -0.1250
 7014TIP3    H121006   0.777   0.752   0.312 -2.1369 -2.2202 -1.2722
 7014TIP3    H221007   0.682   0.838   0.392  0.2127  0.2332 -0.9771
 7015TIP3   OH221008   3.572   4.761   5.005  0.4072  1.3798  0.8750
 7015TIP3    H121009   3.478   4.747   4.993  0.7006 -0.0165  0.0241
 7015TIP3    H221010   3.580   4.855   5.023 -1.0584  1.7017  0.0056
 7016TIP3   OH221011   2.448   4.776   4.508 -0.1108 -0.0130  0.5962
 7016TIP3    H121012   2.475   4.779   4.600  0.7995 -1.4300  0.3992
 7016TIP3    H221013   2.525   4.744   4.461 -0.5352  0.7716 -0.6845
 7017TIP3   OH221014   4.372   0.295   0.824 -0.3034  0.1377  0.3485
 7017TIP3    H121015   4.383   0.296   0.919  2.0290  1.7267  0.1545
 7017TIP3    H221016   4.324   0.215   0.806 -0.0057 -0.6722  2.7813
 7018TIP3   OH221017   5.808   3.224   1.704  0.2670 -0.2017 -0.1172
 7018TIP3    H121018   5.775   3.218   1.615 -1.6166 -0.4805  0.5604
 7018TIP3    H221019   5.899   3.251   1.694  0.4308 -1.3278 -2.1550
 7019TIP3   OH221020   0.146   2.670   4.455  0.9259  0.2286 -0.5580
 7019TIP3    H121021   0.187   2.583   4.462 -0.6180 -0.4441  0.8147
 7019TIP3    H221022   0.162   2.711   4.540 -2.2203 -0.5843  0.5676
 7020TIP3   OH221023   6.513   3.390   2.067  0.4169  0.3603 -0.4023
 7020TIP3    H121024   6.551   3.334   2.135  0.6735  0.4374 -0.4826
 7020TIP3    H221025   6.438   3.432   2.110 -0.2035 -0.5749 -0.5449
 7021TIP3   OH221026   3.599   2.015   4.832 -0.0282 -0.0679  0.0114
 7021TIP3    H121027   3.562   2.068   4.761  0.2599 -0.4850 -0.4584
 7021TIP3    H221028   3.682   1.982   4.797  1.7431  2.2858  1.6692
 7022TIP3   OH221029   5.780   6.019   5.139  0.4755  0.2723  0.0307
 7022TIP3    H121030   5.868   5.989   5.120  0.6757  0.1168  1.1406
 7022TIP3    H221031   5.723   5.967   5.081  0.9056 -1.4165  1.0788
 7023TIP3   OH221032   4.568   5.272   5.061 -0.7527  0.1370  0.2021
 7023TIP3    H121033   4.612   5.333   5.001 -1.3477 -0.3240 -0.7149
 7023TIP3    H221034   4.635   5.206   5.081  0.0704  1.3424  1.6289
 7024TIP3   OH221035   1.547   0.609   3.007 -0.4704 -0.7347 -0.6073
 7024TIP3    H121036   1.455   0.606   2.980 -0.7245  0.4308  0.0529
 7024TIP3    H221037   1.546   0.663   3.086  0.4557 -2.6403  0.7858
 7025TIP3   OH221038   6.870   5.567   1.790  0.0787  1.0786 -0.5116
 7025TIP3    H121039   6.893   5.482   1.827  0.1689  0.6009 -1.6248
 7025TIP3    H221040   6.789   5.592   1.835 -0.5203 -0.0957 -0.9023
 7026TIP3   OH221041   7.157   0.383   0.446  0.1054  0.3839 -0.4826
 7026TIP3    H121042   7.133   0.308   0.499  0.4285 -0.1334 -1.0530
 7026TIP3    H221043   7.248   0.401   0.468  0.3581 -0.0722 -1.1326
 7027TIP3   OH221044   2.815   0.296   0.434  0.0282  0.0251  0.7459
 7027TIP3    H121045   2.756   0.289   0.359  1.4444 -0.1700 -0.3838
 7027TIP3    H221046   2.885   0.234   0.416  0.3284 -0.1477  2.3278
 7028TIP3   OH221047   0.616   0.373   2.009  0.0153 -0.2070  0.4485
 7028TIP3    H121048   0.568   0.454   1.993 -0.0361 -0.4902 -0.9688
 7028TIP3    H221049   0.701   0.387   1.965 -0.3879 -1.2933 -0.7304
 7029TIP3   OH221050   1.765   3.269   5.338 -0.1442  0.2724  0.1765
 7029TIP3    H121051   1.672   3.257   5.317 -0.4092  0.7097  1.0408
 7029TIP3    H221052   1.767   3.276   5.433  0.8744 -0.5189  0.2289
 7030TIP3   OH221053   0.479   1.537   2.945 -0.3507 -0.1595  0.5608
 7030TIP3    H121054   0.445   1.573   3.026 -0.5438 -0.3713  0.5741
 7030TIP3    H221055   0.527   1.458   2.972 -0.2355 -0.1123  0.4936
 7031TIP3   OH221056   2.484   4.506   2.788 -0.0628  0.1528  0.4928
 7031TIP3    H121057   2.559   4.528   2.733 -0.1252  2.4525  1.1934
 7031TIP3    H221058   2.409   4.514   2.730  0.0820 -0.2077  0.2550
 7032TIP3   OH221059   0.612   5.213   3.632  0.1811  0.9182 -0.1783
 7032TIP3    H121060   0.607   5.181   3.541  0.9894  0.3976 -0.0509
 7032TIP3    H221061   0.562   5.294   3.632 -0.0722  0.7713 -1.0274
 7033TIP3   OH221062   6.112   4.179   4.871  0.2178 -0.1668 -0.4726
 7033TIP3    H121063   6.045   4.116   4.898 -1.1965  1.0861 -0.9137
 7033TIP3    H221064   6.158   4.203   4.951 -0.7967 -0.0145  0.0705
 7034TIP3   OH221065   4.448   1.887   5.836 -0.5750 -0.3621  0.1596
 7034TIP3    H121066   4.415   1.927   5.755 -1.5117  0.1666  0.7882
 7034TIP3    H221067   4.518   1.945   5.864  0.6283 -1.2224 -0.9155
 7035TIP3   OH221068   4.361   2.391   2.401 -0.6610 -0.4379  0.5814
 7035TIP3    H121069   4.375   2.315   2.458  0.1592 -0.2779  0.5998
 7035TIP3    H221070   4.435   2.448   2.418 -0.6637 -0.1618 -0.2975
 7036TIP3   OH221071   2.535   2.314   1.059  0.2923 -0.2219  0.2572
 7036TIP3    H121072   2.512   2.324   0.967  1.8394 -1.9096 -0.3702
 7036TIP3    H221073   2.566   2.401   1.086 -2.8102  1.0667  0.0688
 7037TIP3   OH221074   6.919   6.724   2.935 -0.6719 -0.0102  0.2057
 7037TIP3    H121075   7.000   6.760   2.897 -0.5523  0.3457  0.7837
 7037TIP3    H221076   6.891   6.657   2.873 -0.4046  0.4668 -0.4426
 7038TIP3   OH221077   3.268   6.138   0.590  0.4837  0.0777 -0.1994
 7038TIP3    H121078   3.339   6.202   0.595  0.7729 -0.1555 -1.0478
 7038TIP3    H221079   3.253   6.111   0.681 -0.5021  2.2414  0.3481
 7039TIP3   OH221080   4.050   3.715   3.920  0.1161 -0.9531 -0.6720
 7039TIP3    H121081   4.059   3.790   3.861  0.6960 -0.6848 -0.2486
 7039TIP3    H221082   3.998   3.652   3.870 -2.1467  0.4991 -0.2937
 7040TIP3   OH221083   7.124   3.448   0.870  0.2256  0.0071 -0.1636
 7040TIP3    H121084   7.175   3.391   0.927  0.8938 -0.8636 -1.5732
 7040TIP3    H221085   7.184   3.521   0.850  0.6532 -0.5925 -1.1479
 7041TIP3   OH221086   0.572   3.635   2.817  0.0341 -0.5945 -0.0594
 7041TIP3    H121087   0.532   3.552   2.843 -0.2830 -0.7247 -0.9405
 7041TIP3    H221088   0.538   3.698   2.881 -0.6879 -0.9141 -0.1129
 7042TIP3   OH221089   2.164   6.333   4.129  0.1558  1.1421  0.6587
 7042TIP3    H121090   2.075   6.303   4.147 -0.2815  3.0498  1.9681
 7042TIP3    H221091   2.154   6.395   4.056  0.6859  0.0670 -0.3556
 7043TIP3   OH221092   4.145   0.124   0.741  0.0897  0.0508  0.3435
 7043TIP3    H121093   4.214   0.072   0.698  0.0930  0.4714 -0.1662
 7043TIP3    H221094   4.087   0.151   0.670 -0.6927 -0.4217  0.7875
 7044TIP3   OH221095   5.955   5.341   5.107  0.0210 -0.2119 -0.3733
 7044TIP3    H121096   6.030   5.293   5.142  0.2411 -0.3198 -0.9875
 7044TIP3    H221097   5.963   5.428   5.147  0.2314 -0.3505 -0.1029
 7045TIP3   OH221098   6.305   2.497   2.227 -0.4747  0.4169  0.0866
 7045TIP3    H121099   6.275   2.460   2.310  1.4867  1.1486  1.1649
 7045TIP3    H221100   6.345   2.423   2.181  0.2403  0.4124  0.6937
 7046TIP3   OH221101   2.520   1.851   1.569  0.4966  0.0447 -0.2264
 7046TIP3    H121102   2.431   1.828   1.545  0.4994  0.6786 -0.8466
 7046TIP3    H221103   2.538   1.797   1.646 -0.7396  0.5722  0.4658
 7047TIP3   OH221104   6.091   4.537   5.317  0.3369 -0.4754 -0.1446
 7047TIP3    H121105   6.052   4.454   5.345 -0.6553 -0.0275 -0.1316
 7047TIP3    H221106   6.096   4.589   5.397  2.5893 -1.1111  0.1921
 7048TIP3   OH221107   4.788   5.502   3.117  0.0638  0.1475 -0.8420
 7048TIP3    H121108   4.821   5.515   3.029  0.9950  1.8696 -0.2723
 7048TIP3    H221109   4.866   5.504   3.173 -0.6594  0.7135  0.1793
 7049TIP3   OH221110   3.944   4.566   0.433  0.2171 -0.0764  0.0752
 7049TIP3    H121111   4.022   4.615   0.459  1.2510 -0.6813 -1.7130
 7049TIP3    H221112   3.941   4.573   0.338 -0.2752 -2.4187 -0.1601
 7050TIP3   OH221113   5.401   5.856   3.365 -0.1246 -0.9362  0.3284
 7050TIP3    H121114   5.495   5.862   3.379 -0.1900  1.1935  0.1959
 7050TIP3    H221115   5.388   5.886   3.275 -1.0848  1.3567  1.1385
 7051TIP3   OH221116   4.161   6.553   1.688  0.7371 -0.1776 -0.2144
 7051TIP3    H121117   4.069   6.548   1.717  0.7670 -1.8874 -0.3146
 7051TIP3    H221118   4.210   6.569   1.769  0.4218 -0.1161 -0.0299
 7052TIP3   OH221119   1.769   0.758   5.847 -0.5588  0.0095  0.4093
 7052TIP3    H121120   1.861   0.734   5.858 -0.9312 -0.9990  1.4515
 7052TIP3    H221121   1.745   0.799   5.930 -1.7866 -2.2280  1.2226
 7053TIP3   OH221122   1.674   2.442   4.860 -0.1319 -0.2922  0.0951
 7053TIP3    H121123   1.746   2.389   4.894 -0.2901 -1.1922 -0.9322
 7053TIP3    H221124   1.600   2.383   4.856 -0.7678  0.4569  0.5078
 7054TIP3   OH221125   6.214   5.553   5.383 -0.3359  0.1598 -0.2342
 7054TIP3    H121126   6.143   5.608   5.417 -0.0335 -0.1426  0.9141
 7054TIP3    H221127   6.239   5.497   5.456 -0.1787 -1.0576 -1.1827
 7055TIP3   OH221128   3.855   3.420   3.257  0.3754 -0.2097 -0.0331
 7055TIP3    H121129   3.917   3.379   3.197 -0.5799 -0.5825 -0.7953
 7055TIP3    H221130   3.787   3.354   3.271 -0.0212  0.3052  0.5278
 7056TIP3   OH221131   3.472   1.883   5.827 -0.4172  0.3586 -0.7538
 7056TIP3    H121132   3.513   1.873   5.913  3.0822 -1.6326 -2.4546
 7056TIP3    H221133   3.544   1.908   5.769 -1.6682 -2.5594 -3.8675
 7057TIP3   OH221134  -0.023   4.268   5.354  0.2403 -0.2587 -0.2603
 7057TIP3    H121135  -0.019   4.329   5.280  0.4547 -1.0240 -0.8949
 7057TIP3    H221136   0.063   4.273   5.395  1.1676 -1.9708 -1.8436
 7058TIP3   OH221137   1.359   1.867   0.355  0.4888 -0.1037  0.2992
 7058TIP3    H121138   1.403   1.785   0.336 -1.0964 -1.0013  0.3221
 7058TIP3    H221139   1.351   1.869   0.450  1.4388  0.5908  0.3750
 7059TIP3   OH221140   1.684   4.043   1.635  0.5334 -0.0945 -0.0247
 7059TIP3    H121141   1.642   3.974   1.686 -0.1553 -0.1704 -0.6758
 7059TIP3    H221142   1.774   4.013   1.623  0.5562 -0.3212  0.6851
 7060TIP3   OH221143   0.452   4.539   0.132  0.2450  0.1985  0.3413
 7060TIP3    H121144   0.372   4.592   0.139 -0.4179 -0.7104 -0.1709
 7060TIP3    H221145   0.514   4.595   0.084  0.2454  1.2601  1.5159
 7061TIP3   OH221146   2.288   1.139   3.684 -0.0847 -0.3500  0.3427
 7061TIP3    H121147   2.266   1.179   3.600  0.0160 -0.1038  0.4341
 7061TIP3    H221148   2.358   1.193   3.719  0.1881 -0.7223  0.3767
 7062TIP3   OH221149   2.189   0.827   3.784  0.3039  0.3364  0.2986
 7062TIP3    H121150   2.126   0.822   3.856 -0.3740  0.4545 -0.2738
 7062TIP3    H221151   2.143   0.790   3.709  1.6215 -1.4555  0.3120
 7063TIP3   OH221152   2.068   0.457   1.604 -0.4591 -0.1934 -0.2513
 7063TIP3    H121153   2.018   0.475   1.524 -0.5340 -0.3078 -0.2306
 7063TIP3    H221154   2.057   0.363   1.618 -0.0518 -0.2579 -0.3693
 7064TIP3   OH221155   0.095   1.825   4.651  0.2064 -0.0780  0.3103
 7064TIP3    H121156   0.082   1.886   4.724  1.4015  0.2108  0.2982
 7064TIP3    H221157   0.019   1.837   4.595  0.4824  1.5027  0.2461
 7065TIP3   OH221158   5.882   5.423   3.246  0.0301 -0.3024  0.0169
 7065TIP3    H121159   5.911   5.507   3.282 -2.9959  0.0260  1.9991
 7065TIP3    H221160   5.963   5.380   3.219  2.2295  1.1172  3.6190
 7066TIP3   OH221161   6.065   4.101   3.266 -0.1214 -0.0275 -0.1705
 7066TIP3    H121162   6.024   4.107   3.352  1.1369 -2.7242  0.7378
 7066TIP3    H221163   6.127   4.174   3.264 -0.4805  0.3381  1.0241
 7067TIP3   OH221164   3.915   1.392   1.895  1.0255 -0.3103 -0.0051
 7067TIP3    H121165   3.850   1.440   1.843 -0.0556 -2.3928 -0.7170
 7067TIP3    H221166   3.937   1.451   1.967  2.0454  2.4154 -2.3540
 7068TIP3   OH221167   1.841   2.861   5.821  0.2620  0.2032 -0.3376
 7068TIP3    H121168   1.777   2.887   5.887 -1.9389 -1.0516 -1.8350
 7068TIP3    H221169   1.876   2.778   5.853 -0.0088  0.1302 -0.2240
 7069TIP3   OH221170   1.522   4.522   3.595  0.1461  0.2571  0.1619
 7069TIP3    H121171   1.537   4.476   3.512 -2.7502  0.7358 -0.7325
 7069TIP3    H221172   1.573   4.602   3.588 -1.3356  1.1073 -1.9893
 7070TIP3   OH221173   3.444   0.954   3.397  0.0135  0.2052 -0.2543
 7070TIP3    H121174   3.528   0.995   3.377  1.1154 -1.3331  0.8564
 7070TIP3    H221175   3.446   0.942   3.492 -1.0111 -0.7484 -0.3289
 7071TIP3   OH221176   1.164   6.571   1.308  0.2473 -0.2602  0.2983
 7071TIP3    H121177   1.150   6.612   1.223 -0.6663 -0.7961  0.1774
 7071TIP3    H221178   1.182   6.480   1.288 -0.0110 -0.3969  0.6719
 7072TIP3   OH221179   6.844   4.879   3.319  0.3034 -0.8014 -0.0674
 7072TIP3    H121180   6.772   4.892   3.257 -0.4243  0.7704  1.0460
 7072TIP3    H221181   6.885   4.965   3.327  1.3306 -1.3308  0.5068
 7073TIP3   OH221182   7.201   3.318   2.137  0.4432 -0.0562 -0.6489
 7073TIP3    H121183   7.160   3.327   2.224  1.3367  1.2467 -0.3248
 7073TIP3    H221184   7.274   3.380   2.139 -1.0658  2.0073 -3.2386
 7074TIP3   OH221185   2.722   3.372   4.202 -0.2892 -0.3261  0.0542
 7074TIP3    H121186   2.628   3.382   4.214 -0.2021 -0.0496  0.5196
 7074TIP3    H221187   2.753   3.340   4.287  0.1923  0.6418  0.2560
 7075TIP3   OH221188   4.652   5.855   3.370  0.2638 -0.4070 -0.0977
 7075TIP3    H121189   4.606   5.791   3.316 -0.5473  0.2892 -0.2573
 7075TIP3    H221190   4.582   5.904   3.414  0.8881 -0.2764  0.7840
 7076TIP3   OH221191   5.738   5.120   0.286 -0.4462  0.0585 -0.1337
 7076TIP3    H121192   5.736   5.028   0.315  2.7015 -0.4732 -1.2020
 7076TIP3    H221193   5.704   5.117   0.196  0.0784 -0.1679 -0.3300
 7077TIP3   OH221194   3.653   4.796   0.924  0.3203  0.4882  0.3938
 7077TIP3    H121195   3.656   4.767   1.015 -3.9689 -2.2233 -0.0179
 7077TIP3    H221196   3.706   4.732   0.877 -0.9158 -0.7503  0.6162
 7078TIP3   OH221197   3.148   5.054   3.642 -0.1308  0.0735 -0.2369
 7078TIP3    H121198   3.092   5.118   3.600 -0.4358  0.8359  1.2441
 7078TIP3    H221199   3.236   5.091   3.637 -0.1683  0.1655 -0.2053
 7079TIP3   OH221200   4.703   4.983   0.848 -0.1835 -0.1741  0.4214
 7079TIP3    H121201   4.687   5.031   0.929  0.4030  1.2805 -0.2890
 7079TIP3    H221202   4.796   4.960   0.851 -0.7395 -2.6522  1.4272
 7080TIP3   OH221203   0.615   0.072   3.305 -0.4510  0.3991  0.2669
 7080TIP3    H121204   0.545   0.130   3.273 -0.5505  1.3488  2.1166
 7080TIP3    H221205   0.611   0.079   3.400  2.1846  0.4893  0.4429
 7081TIP3   OH221206   3.716   1.939   5.702 -0.5965 -0.4711 -0.4093
 7081TIP3    H121207   3.725   1.997   5.626 -0.7222  1.4568  0.9543
 7081TIP3    H221208   3.804   1.907   5.718 -0.3483  0.0522 -0.6870
 7082TIP3   OH221209   3.978   0.580   4.870 -0.4148 -0.0684  0.5099
 7082TIP3    H121210   4.072   0.570   4.886 -0.5517 -0.4832  1.0926
 7082TIP3    H221211   3.971   0.586   4.774  0.0648 -1.7295  0.3331
 7083TIP3   OH221212   4.974   1.700   3.253  0.0538 -0.4973  0.3672
 7083TIP3    H121213   5.057   1.747   3.249 -0.8756  1.2836  1.0545
 7083TIP3    H221214   4.972   1.663   3.341  0.7642 -1.8960 -0.1583
 7084TIP3   OH221215   6.127   5.775   1.743  0.1473 -0.1458  0.3927
 7084TIP3    H121216   6.123   5.866   1.713 -0.1680 -0.2502  0.1105
 7084TIP3    H221217   6.036   5.744   1.737  0.4960 -0.9652 -1.0400
 7085TIP3   OH221218   0.212   3.485   2.754  0.3743 -0.1881 -0.0540
 7085TIP3    H121219   0.165   3.440   2.824  1.6006 -1.3118  0.0786
 7085TIP3    H221220   0.277   3.421   2.723  2.9310  1.7758  0.8634
 7086TIP3   OH221221   3.590   4.664   5.520  0.6587  0.1238 -0.1124
 7086TIP3    H121222   3.581   4.630   5.431  0.8429 -0.2098 -0.0021
 7086TIP3    H221223   3.675   4.709   5.519  0.2418  0.9261 -0.3688
 7087TIP3   OH221224   5.414   3.363   3.736 -0.1796 -0.1254  0.0150
 7087TIP3    H121225   5.451   3.285   3.778  0.1854 -0.2785 -0.5796
 7087TIP3    H221226   5.490   3.416   3.712 -0.4377  0.5314  0.6327
 7088TIP3   OH221227   5.008   0.357   3.090  1.0471  0.0799 -0.0191
 7088TIP3    H121228   4.964   0.425   3.141  0.0779 -0.4769 -0.1069
 7088TIP3    H221229   4.939   0.296   3.065  1.6895 -0.2217 -1.1085
 7089TIP3   OH221230   5.713   5.959   2.999  0.4774  0.3738 -1.0724
 7089TIP3    H121231   5.702   6.048   3.031  4.1264 -0.1150  2.3888
 7089TIP3    H221232   5.635   5.913   3.031  0.2417  1.6258  0.2619
 7090TIP3   OH221233   5.128   1.581   1.767 -0.0150  0.1671  0.6456
 7090TIP3    H121234   5.066   1.614   1.832  1.1548  1.1742  1.2905
 7090TIP3    H221235   5.215   1.598   1.806  0.7002  0.2951 -0.9299
 7091TIP3   OH221236   1.812   1.595   2.010 -0.2999  0.2961  0.2654
 7091TIP3    H121237   1.824   1.620   1.918 -1.0988 -0.3275 -0.0226
 7091TIP3    H221238   1.796   1.677   2.055  0.0449  0.6042 -0.1660
 7092TIP3   OH221239   0.709   3.267   4.588 -0.2083 -0.4119  0.1954
 7092TIP3    H121240   0.655   3.268   4.667  0.1715 -0.8638  0.4667
 7092TIP3    H221241   0.741   3.357   4.580  1.1998 -0.7225  1.5856
 7093TIP3   OH221242   4.461   0.813   1.235  0.9038  0.2457  0.0533
 7093TIP3    H121243   4.542   0.860   1.214  0.7683  0.6472  0.4313
 7093TIP3    H221244   4.425   0.859   1.310  0.8674 -0.5745  0.5598
 7094TIP3   OH221245   0.649   0.374   4.429  0.6658 -0.5485  0.2239
 7094TIP3    H121246   0.630   0.422   4.510 -0.6158  1.4398 -1.1879
 7094TIP3    H221247   0.743   0.359   4.432  1.7649  4.5069 -0.4349
 7095TIP3   OH221248   0.874   6.569   0.343  0.0984 -0.4610  0.0139
 7095TIP3    H121249   0.812   6.566   0.415 -1.5617 -0.8212 -1.3616
 7095TIP3    H221250   0.907   6.659   0.343 -0.4384 -0.2560  0.7480
 7096TIP3   OH221251   1.859   2.920   3.087 -0.2353  0.4442  0.0038
 7096TIP3    H121252   1.789   2.859   3.064  0.7440 -0.9467  0.5719
 7096TIP3    H221253   1.883   2.898   3.177  0.7923  1.0216 -0.1004
 7097TIP3   OH221254   4.677   2.046   0.686  0.4520  0.0830 -0.1754
 7097TIP3    H121255   4.586   2.071   0.676  0.6354  0.7945 -0.0889
 7097TIP3    H221256   4.680   1.955   0.656 -0.3580 -0.0797  0.2128
 7098TIP3   OH221257   3.468   5.227   5.188  0.2779  0.0107  0.5659
 7098TIP3    H121258   3.544   5.282   5.171  1.3611 -1.4965  0.4228
 7098TIP3    H221259   3.465   5.219   5.284  1.6811 -1.7726  0.4947
 7099TIP3   OH221260   2.150   4.850   4.754  0.2349 -0.2713  0.1938
 7099TIP3    H121261   2.119   4.798   4.680 -0.9279  0.4251  0.1611
 7099TIP3    H221262   2.158   4.939   4.720  1.3273 -0.2456  0.4798
 7100TIP3   OH221263   6.928   1.979   3.212 -0.4950  0.0507  0.6186
 7100TIP3    H121264   6.928   1.951   3.304  0.0577 -0.9932  0.3114
 7100TIP3    H221265   6.847   1.943   3.176 -1.3201  1.4736  0.9719
 7101TIP3   OH221266   2.076   4.751   0.003  1.1521  0.2846  0.2029
 7101TIP3    H121267   2.103   4.779   0.090 -1.1674  1.2406  0.6812
 7101TIP3    H221268   2.047   4.831  -0.040  0.3697 -0.4746 -0.7237
 7102TIP3   OH221269   6.653   5.460   4.866 -0.6573  0.6887  0.6173
 7102TIP3    H121270   6.560   5.441   4.879 -0.8846  0.8708 -0.5563
 7102TIP3    H221271   6.697   5.378   4.884 -0.8969  0.9108  2.3945
 7103TIP3   OH221272   5.356   4.145   0.612 -0.0193 -0.0170 -0.0119
 7103TIP3    H121273   5.316   4.119   0.528  1.7744  1.7155 -1.4959
 7103TIP3    H221274   5.448   4.120   0.602  0.6064  1.9073  0.6701
 7104TIP3   OH221275   7.221   5.655   1.630  0.0404 -0.4295  0.4019
 7104TIP3    H121276   7.149   5.675   1.689 -0.9275  1.2121 -1.2249
 7104TIP3    H221277   7.188   5.583   1.576 -0.3016  0.1403 -0.1623
 7105TIP3   OH221278   3.959   1.296   5.604  0.1413  0.7336  0.2480
 7105TIP3    H121279   4.025   1.356   5.638 -1.5173  1.3728  2.6247
 7105TIP3    H221280   3.993   1.209   5.624  0.5710  1.0287  0.8220
 7106TIP3   OH221281   4.854   4.968   0.543  0.2170  0.4374  0.2061
 7106TIP3    H121282   4.934   5.016   0.523  1.7089 -2.1293 -0.4794
 7106TIP3    H221283   4.884   4.886   0.582 -2.2094  0.3041  2.0364
 7107TIP3   OH221284   5.253   0.434   1.759  0.2887  0.1854  0.0438
 7107TIP3    H121285   5.223   0.345   1.778 -1.4428  0.9325  1.0230
 7107TIP3    H221286   5.303   0.425   1.678  3.1632 -2.2447  1.8350
 7108TIP3   OH221287   6.021   6.120   5.537  0.1423 -0.0853 -0.4561
 7108TIP3    H121288   6.083   6.084   5.600  0.9098  0.3318 -0.9633
 7108TIP3    H221289   5.955   6.052   5.527  0.9029 -0.8375 -0.4593
 7109TIP3   OH221290   1.066   4.599   0.737  0.6208 -0.4020  0.2275
 7109TIP3    H121291   1.114   4.680   0.754 -2.5263  1.1835  2.5727
 7109TIP3    H221292   1.017   4.617   0.656  0.3622 -0.1881  0.4314
 7110TIP3   OH221293   5.850   6.729   0.512  0.5066  0.0740 -0.1802
 7110TIP3    H121294   5.913   6.751   0.443  1.5400  0.0098  0.7153
 7110TIP3    H221295   5.884   6.648   0.550  0.5704  0.6982  1.1340
 7111TIP3   OH221296   5.259   5.811   0.640  0.0158  0.1575 -0.0377
 7111TIP3    H121297   5.164   5.803   0.654  0.1919 -0.0803  1.1574
 7111TIP3    H221298   5.285   5.884   0.696  0.8738 -1.2092  1.4235
 7112TIP3   OH221299   3.495   3.356   4.280  0.0868  0.4787 -0.0863
 7112TIP3    H121300   3.448   3.352   4.363  0.7679  1.8421  0.3899
 7112TIP3    H221301   3.484   3.269   4.243  0.4769 -0.4296  1.8123
 7113TIP3   OH221302   2.215   3.584   5.230  0.2832 -0.2455  0.3805
 7113TIP3    H121303   2.145   3.627   5.280  1.1729 -1.5980  2.9829
 7113TIP3    H221304   2.169   3.534   5.163 -0.9784  1.6768 -0.2564
 7114TIP3   OH221305   6.759   5.486   5.612 -0.0571 -0.4002 -0.6912
 7114TIP3    H121306   6.698   5.527   5.551 -0.2524 -0.9804 -0.8996
 7114TIP3    H221307   6.799   5.415   5.561  1.7323  0.7377 -0.9593
 7115TIP3   OH221308   4.506   2.478   0.801  0.1979 -0.7769 -0.2826
 7115TIP3    H121309   4.508   2.561   0.849  0.5394 -1.1399  0.3304
 7115TIP3    H221310   4.413   2.464   0.782  0.1908  0.0479 -0.9316
 7116TIP3   OH221311   3.881   0.364   3.164 -0.1019 -0.1372  0.1800
 7116TIP3    H121312   3.836   0.287   3.129  1.1284 -0.3976 -0.9180
 7116TIP3    H221313   3.930   0.399   3.089  0.7213  0.7050  1.0878
 7117TIP3   OH221314   1.435   5.418   3.263  0.8085 -0.2602 -0.9973
 7117TIP3    H121315   1.509   5.453   3.213  0.6172  2.2812  0.3598
 7117TIP3    H221316   1.470   5.399   3.349  0.7120 -2.9081 -1.4504
 7118TIP3   OH221317   6.891   6.653   3.531 -0.1139  0.5669 -0.4981
 7118TIP3    H121318   6.935   6.594   3.592  0.2489 -0.6930 -1.8911
 7118TIP3    H221319   6.914   6.741   3.561 -1.5914  0.0985  2.3211
 7119TIP3   OH221320   4.537   1.223   3.522 -0.0441  0.1657  0.6145
 7119TIP3    H121321   4.532   1.295   3.459  1.6280  0.9110  1.2711
 7119TIP3    H221322   4.534   1.143   3.468  1.7874  0.7815 -0.4965
 7120TIP3   OH221323   4.871   4.106   4.027 -0.5619 -0.8178  0.1776
 7120TIP3    H121324   4.828   4.034   3.982  0.7304 -2.6680  1.7276
 7120TIP3    H221325   4.925   4.064   4.094  0.5455  1.5823  0.9205
 7121TIP3   OH221326   6.988   6.435   1.704 -0.0847 -0.4861  0.3531
 7121TIP3    H121327   6.973   6.340   1.697  0.9393 -0.5639 -1.8473
 7121TIP3    H221328   7.081   6.446   1.683 -0.5881  1.1013 -1.3690
 7122TIP3   OH221329   5.767   5.126   0.682  0.1738  0.2990  0.1196
 7122TIP3    H121330   5.829   5.088   0.619 -0.1460  0.2735 -0.1826
 7122TIP3    H221331   5.822   5.152   0.756  0.6595  1.0011 -0.4716
 7123TIP3   OH221332   1.609   0.045   1.606 -0.6081 -0.1499 -0.1543
 7123TIP3    H121333   1.607   0.014   1.696  3.7304 -0.6714 -0.0251
 7123TIP3    H221334   1.645  -0.029   1.556 -2.0210  0.4536 -2.2372
 7124TIP3   OH221335   4.926   3.600   3.952  0.1406 -0.2824  0.1440
 7124TIP3    H121336   4.943   3.665   4.021 -0.6838 -0.9790  1.0273
 7124TIP3    H221337   4.832   3.583   3.958  0.3206 -1.4731 -0.1357
 7125TIP3   OH221338   4.418   3.662   3.817  0.1117  0.4148 -0.3040
 7125TIP3    H121339   4.493   3.672   3.758  0.4829  1.9385  0.3779
 7125TIP3    H221340   4.342   3.674   3.760  0.3905 -0.4395 -0.8764
 7126TIP3   OH221341   1.685   4.382   5.379 -0.1175 -0.0613  0.5760
 7126TIP3    H121342   1.712   4.360   5.290 -0.3125 -0.0639  0.5182
 7126TIP3    H221343   1.643   4.467   5.371  0.4041  0.2198  0.7606
 7127TIP3   OH221344   4.711   3.808   1.440 -0.4295 -0.2275  0.2190
 7127TIP3    H121345   4.685   3.740   1.504 -1.2111 -0.9276 -0.8113
 7127TIP3    H221346   4.777   3.860   1.487  0.0202 -1.5438  1.1362
 7128TIP3   OH221347   4.382   2.521   4.663  0.0173  0.0825 -0.0649
 7128TIP3    H121348   4.305   2.558   4.706 -0.2072  1.3468 -1.4910
 7128TIP3    H221349   4.364   2.527   4.570  1.4112 -0.5815 -0.4130
 7129TIP3   OH221350   0.238   1.806   1.224 -0.5041 -0.5262  0.0426
 7129TIP3    H121351   0.231   1.834   1.315  0.5214 -1.3726  0.3976
 7129TIP3    H221352   0.248   1.888   1.175  0.5926 -0.1412  0.8687
 7130TIP3   OH221353   4.911   1.089   5.680  0.0135  0.4471  0.2181
 7130TIP3    H121354   4.885   1.175   5.647  0.5137  0.5498  0.0823
 7130TIP3    H221355   4.832   1.053   5.719 -0.3606  0.7060 -0.2918
 7131TIP3   OH221356   5.393   0.809   4.680 -0.6716 -0.8017  0.4371
 7131TIP3    H121357   5.319   0.812   4.741  0.9281  2.9861  2.5818
 7131TIP3    H221358   5.362   0.855   4.602 -0.6677  0.8112  1.3434
 7132TIP3   OH221359   4.166   5.956   3.634 -0.1567  0.4447 -0.6600
 7132TIP3    H121360   4.171   6.030   3.696 -4.3885 -0.8223  1.5980
 7132TIP3    H221361   4.124   5.992   3.557 -0.0894  0.8567 -0.5068
 7133TIP3   OH221362   6.184   4.933   2.248  0.4551 -0.9663 -0.3046
 7133TIP3    H121363   6.130   4.860   2.277 -0.5940 -0.4838 -0.9321
 7133TIP3    H221364   6.203   4.982   2.328 -0.2676 -1.0109 -0.0930
 7134TIP3   OH221365   4.536   2.777   1.279  0.2128 -0.0902  0.6502
 7134TIP3    H121366   4.487   2.718   1.221 -0.0635  1.2105 -0.4878
 7134TIP3    H221367   4.472   2.844   1.303  0.0989 -0.9517  3.1060
 7135TIP3   OH221368   1.908   1.690   1.750 -0.1793  0.2322 -0.6283
 7135TIP3    H121369   1.975   1.726   1.692  1.0706  0.0859  0.6756
 7135TIP3    H221370   1.847   1.763   1.765  1.3524  1.3230  0.5727
 7136TIP3   OH221371   0.637   6.729   4.608 -0.6107 -0.0779  0.3603
 7136TIP3    H121372   0.617   6.782   4.531 -1.8208  0.7437  1.1870
 7136TIP3    H221373   0.581   6.652   4.599  0.0079 -0.4876 -0.0732
 7137TIP3   OH221374   2.618   5.291   1.532  0.2866  0.4366 -0.4041
 7137TIP3    H121375   2.673   5.325   1.461  2.2173  0.5729  1.1015
 7137TIP3    H221376   2.658   5.208   1.556 -0.4151  0.3321  0.4546
 7138TIP3   OH221377   7.182   0.805   1.032  0.0619 -0.2003 -0.0183
 7138TIP3    H121378   7.268   0.819   0.992  0.0380 -0.4067 -0.1482
 7138TIP3    H221379   7.167   0.883   1.085 -0.2839  0.4902 -1.0864
 7139TIP3   OH221380   5.652   4.578   1.172  0.1315 -0.7074 -0.0813
 7139TIP3    H121381   5.686   4.667   1.166 -1.9329  0.1812  0.7107
 7139TIP3    H221382   5.659   4.555   1.264 -1.5745 -0.4105  0.1436
 7140TIP3   OH221383   6.101   0.778   4.892 -0.2844  0.2956  0.1563
 7140TIP3    H121384   6.043   0.752   4.820  0.3857 -1.7739  0.3139
 7140TIP3    H221385   6.068   0.864   4.919 -1.0501  0.7655 -2.0721
 7141TIP3   OH221386   2.882   0.363   2.220  0.5199 -0.1685 -0.4016
 7141TIP3    H121387   2.829   0.424   2.168 -0.0813  0.3623  0.7957
 7141TIP3    H221388   2.962   0.351   2.168 -0.0491  0.3412 -1.4426
 7142TIP3   OH221389   4.893   4.549   4.988  0.3815  0.0790 -0.1413
 7142TIP3    H121390   4.887   4.641   4.960 -1.2134  0.4351  1.2037
 7142TIP3    H221391   4.934   4.504   4.915  0.2858  1.6971 -1.2368
 7143TIP3   OH221392   3.504   2.408   0.332 -0.2637 -0.7630  0.0627
 7143TIP3    H121393   3.587   2.377   0.297 -0.8863 -2.1963 -0.2243
 7143TIP3    H221394   3.468   2.464   0.263  0.9569  0.8125  0.6579
 7144TIP3   OH221395   2.535   3.729   5.485  0.0561 -0.0544  0.3764
 7144TIP3    H121396   2.525   3.648   5.534 -0.3105 -0.5985 -0.5723
 7144TIP3    H221397   2.468   3.787   5.521  1.1066  0.2627  1.8861
 7145TIP3   OH221398   4.025   2.307   0.454 -0.6480 -0.0115 -0.0927
 7145TIP3    H121399   3.965   2.256   0.400  0.7667  0.5429 -2.2851
 7145TIP3    H221400   4.106   2.257   0.453 -0.6156 -0.0737  1.7363
 7146TIP3   OH221401   4.772   6.323   1.472 -0.5301 -0.7239  0.5476
 7146TIP3    H121402   4.718   6.311   1.394 -0.8916 -0.3663  0.7445
 7146TIP3    H221403   4.711   6.315   1.545 -0.6413  1.3023  0.7364
 7147TIP3   OH221404   6.252   4.188   3.025  0.2179  0.5843 -0.3070
 7147TIP3    H121405   6.201   4.257   2.982 -0.5147  0.4546  0.3337
 7147TIP3    H221406   6.299   4.145   2.953  0.3399  1.4520 -0.7699
 7148TIP3   OH221407   6.593   4.126   5.055 -0.4050 -0.0106 -0.2015
 7148TIP3    H121408   6.663   4.089   5.110 -1.3127 -0.7620  0.4752
 7148TIP3    H221409   6.624   4.214   5.033  2.1279 -1.2782 -2.3677
 7149TIP3   OH221410   5.395   2.683   2.614 -0.4607  0.3893  0.8963
 7149TIP3    H121411   5.455   2.614   2.584 -0.4221  0.2061  1.3881
 7149TIP3    H221412   5.440   2.764   2.593 -0.3533  0.2617  0.6237
 7150TIP3   OH221413   1.159   2.070   5.394  0.2900 -0.4022 -0.2581
 7150TIP3    H121414   1.142   2.157   5.357  1.6621 -0.8363 -2.0524
 7150TIP3    H221415   1.128   2.009   5.326 -0.6782 -1.3348  0.9845
 7151TIP3   OH221416   4.878   0.430   1.311 -0.0017  0.5394 -0.2238
 7151TIP3    H121417   4.905   0.522   1.306  0.1274  0.5076 -0.1156
 7151TIP3    H221418   4.931   0.386   1.245  0.5869  0.3881  0.3401
 7152TIP3   OH221419   0.385   4.977   2.548  0.4382  0.4395 -0.4135
 7152TIP3    H121420   0.306   4.925   2.564  0.3854  0.3705 -0.8793
 7152TIP3    H221421   0.357   5.067   2.564  0.0983  0.4744 -1.1486
 7153TIP3   OH221422   3.211   2.944   5.211 -0.2547 -0.3895 -0.2169
 7153TIP3    H121423   3.256   2.879   5.158  0.2141 -0.0481 -0.2403
 7153TIP3    H221424   3.130   2.962   5.163 -1.3107 -2.3265  0.7198
 7154TIP3   OH221425   5.799   2.965   0.992  0.4729  0.2465 -0.5814
 7154TIP3    H121426   5.815   2.872   0.973  0.0373  0.0373  0.0346
 7154TIP3    H221427   5.763   2.965   1.081  2.1448  1.1521  0.1264
 7155TIP3   OH221428   5.539   1.829   4.355  0.1393 -0.0511 -0.0346
 7155TIP3    H121429   5.541   1.765   4.283 -0.3841 -0.4195  0.2762
 7155TIP3    H221430   5.631   1.854   4.367  0.1909  0.3233 -1.1091
 7156TIP3   OH221431   2.544   4.844   4.771  0.2902 -0.1680  0.2121
 7156TIP3    H121432   2.465   4.881   4.811  0.1544 -0.6876  0.4352
 7156TIP3    H221433   2.609   4.844   4.841  0.4667  0.1895  0.0501
 7157TIP3   OH221434   2.708   4.821   4.996 -0.0981 -0.0359 -0.3378
 7157TIP3    H121435   2.775   4.753   4.998 -2.2974 -2.4036 -0.7843
 7157TIP3    H221436   2.756   4.904   5.002  2.9025 -1.5033 -2.0453
 7158TIP3   OH221437   3.892   4.726   1.897  0.2480 -0.0941  0.3525
 7158TIP3    H121438   3.963   4.774   1.855  0.7825  0.7401  2.1257
 7158TIP3    H221439   3.929   4.639   1.915 -0.0982 -0.5773 -1.1410
 7159TIP3   OH221440   6.195   1.131   3.770  0.4495  0.4598 -0.1504
 7159TIP3    H121441   6.148   1.048   3.774 -0.7489  1.1425  0.9365
 7159TIP3    H221442   6.244   1.134   3.852  1.0835  0.4908 -0.5294
 7160TIP3   OH221443   2.174   1.606   1.332 -0.0339 -0.7032 -0.0777
 7160TIP3    H121444   2.259   1.567   1.352  0.4847  0.6255  0.4352
 7160TIP3    H221445   2.196   1.682   1.278 -0.8261  0.1124  0.7328
 7161TIP3   OH221446   4.958   6.067   0.420  0.1459 -0.3530  0.3283
 7161TIP3    H121447   4.950   6.052   0.326 -0.5442  2.2551 -0.1261
 7161TIP3    H221448   5.038   6.119   0.429 -0.5932  0.7185  0.9456
 7162TIP3   OH221449   2.474   5.940   2.872 -0.5896  0.3324  0.1116
 7162TIP3    H121450   2.475   5.920   2.778  1.5347  0.7713 -0.0269
 7162TIP3    H221451   2.441   6.030   2.877  0.4980  0.7756 -0.3675
 7163TIP3   OH221452   7.009   0.002   3.976 -0.0352 -0.8330 -0.1190
 7163TIP3    H121453   6.966   0.071   3.926  0.4753 -0.9298 -0.7152
 7163TIP3    H221454   6.939  -0.043   4.023 -0.1965  1.2285  1.7498
 7164TIP3   OH221455   4.461   0.120   4.918  0.4652  0.5962  0.8061
 7164TIP3    H121456   4.419   0.128   5.004  0.1827 -1.2591  0.8912
 7164TIP3    H221457   4.391   0.091   4.859  0.7026  1.6505 -0.0262
 7165TIP3   OH221458   5.662   0.407   4.457  0.4661 -0.6227 -0.2825
 7165TIP3    H121459   5.571   0.438   4.459  0.5766 -0.3305  0.2054
 7165TIP3    H221460   5.673   0.373   4.368 -0.6295 -2.2428  0.1558
 7166TIP3   OH221461   5.953   2.203   2.048  0.2125  0.3738  0.4344
 7166TIP3    H121462   5.998   2.120   2.033 -0.9417 -0.5065  1.6547
 7166TIP3    H221463   5.873   2.179   2.094  0.0190  2.2150  1.1308
 7167TIP3   OH221464   1.319   4.402   5.414 -0.1915  0.5411 -0.6694
 7167TIP3    H121465   1.388   4.468   5.418  0.8048 -0.4407 -1.0522
 7167TIP3    H221466   1.362   4.321   5.442 -1.2047 -0.0834 -0.8635
 7168TIP3   OH221467   4.277   2.368   4.950 -0.5170  0.2231  0.0364
 7168TIP3    H121468   4.255   2.455   4.915  1.8424  1.4056  1.2596
 7168TIP3    H221469   4.211   2.352   5.017 -0.0256  1.8884  0.9768
 7169TIP3   OH221470   0.509   0.899   5.303  0.6609  0.9050  0.0733
 7169TIP3    H121471   0.571   0.972   5.296  0.2473  1.2916  0.4266
 7169TIP3    H221472   0.541   0.847   5.377  1.7041 -0.0062 -0.9603
 7170TIP3   OH221473   4.209   4.683   2.409  0.2251 -0.1181  0.6364
 7170TIP3    H121474   4.266   4.632   2.351  1.7270  1.0213  1.0300
 7170TIP3    H221475   4.133   4.705   2.355  0.4752 -1.0505 -0.1401
 7171TIP3   OH221476   3.638   1.838   3.187 -0.1583  0.1011  0.1110
 7171TIP3    H121477   3.604   1.749   3.197  1.5592 -0.6955 -0.6196
 7171TIP3    H221478   3.728   1.834   3.220  0.1533  1.4077 -0.4809
 7172TIP3   OH221479   5.974   4.495   2.667  0.2250  0.3654 -0.1472
 7172TIP3    H121480   5.998   4.475   2.758  2.9082  0.0796 -0.8370
 7172TIP3    H221481   5.938   4.583   2.671 -0.2551  0.1415  1.2670
 7173TIP3   OH221482   5.211   3.734   1.998  0.4064  0.0721  0.2164
 7173TIP3    H121483   5.254   3.689   1.926  0.4486  2.3885 -1.2889
 7173TIP3    H221484   5.279   3.745   2.064  1.0335  0.1778 -0.4467
 7174TIP3   OH221485   2.315   5.234   3.328  0.0442 -0.3710  0.9978
 7174TIP3    H121486   2.409   5.225   3.311 -0.1968 -1.1146 -0.0506
 7174TIP3    H221487   2.299   5.180   3.406  0.4662 -0.3297  1.1129
 7175TIP3   OH221488   1.379   3.970   0.566  0.0517  0.7628 -0.1178
 7175TIP3    H121489   1.414   4.051   0.528  0.0780  1.2820  0.9576
 7175TIP3    H221490   1.364   3.913   0.491 -0.5904  2.0042 -0.9750
 7176TIP3   OH221491   2.682   3.223   1.195 -0.0604  1.2052  0.5383
 7176TIP3    H121492   2.636   3.271   1.127 -0.7300  1.4212  1.1253
 7176TIP3    H221493   2.641   3.136   1.195  1.9713  0.1734 -1.3514
 7177TIP3   OH221494   1.135   0.288   5.451 -0.0374  0.5580 -0.1543
 7177TIP3    H121495   1.178   0.243   5.524 -0.0992  1.5857  0.5361
 7177TIP3    H221496   1.134   0.223   5.380 -0.4406 -0.6473  0.9060
 7178TIP3   OH221497   1.483   4.770   0.802  0.2463  0.1666  0.3165
 7178TIP3    H121498   1.536   4.822   0.862  1.2653  0.3629 -0.7154
 7178TIP3    H221499   1.495   4.680   0.830  0.8899  0.2370  0.2766
 7179TIP3   OH221500   4.361   5.793   2.682 -0.0187  0.3005 -0.1151
 7179TIP3    H121501   4.429   5.759   2.740  0.2057 -0.3525 -0.7364
 7179TIP3    H221502   4.348   5.883   2.710 -0.2277 -0.1286  1.2140
 7180TIP3   OH221503   4.147   3.507   1.307 -0.3042 -0.0777  0.0104
 7180TIP3    H121504   4.196   3.556   1.241 -1.7955  1.1450 -0.2597
 7180TIP3    H221505   4.154   3.560   1.387 -0.9506 -0.0060  0.0284
 7181TIP3   OH221506   4.458   6.231   0.189  0.4094 -0.2900 -0.3085
 7181TIP3    H121507   4.408   6.178   0.252 -0.7127 -0.7642 -1.5348
 7181TIP3    H221508   4.474   6.171   0.116  1.9417  0.1631 -0.3730
 7182TIP3   OH221509   4.541   2.240  -0.006  0.3743 -0.7369 -0.1054
 7182TIP3    H121510   4.507   2.242   0.084 -0.1794  1.1793 -0.2913
 7182TIP3    H221511   4.634   2.222   0.004  0.5807  0.7151  1.0007
 7183TIP3   OH221512   7.086   3.385   1.888 -0.1833  0.1979 -0.2952
 7183TIP3    H121513   7.171   3.429   1.880 -0.3047  0.8203  1.3694
 7183TIP3    H221514   7.090   3.340   1.972 -0.7964 -1.4033 -1.0917
 7184TIP3   OH221515   3.148   1.051   3.451  0.2024  0.2641 -0.2074
 7184TIP3    H121516   3.165   1.080   3.541  1.0439  0.1650 -0.3332
 7184TIP3    H221517   3.148   0.956   3.456  0.0624  0.2589 -0.2854
 7185TIP3   OH221518   6.005   2.105   1.383 -0.2257  0.0186 -0.1050
 7185TIP3    H121519   6.098   2.082   1.385 -0.0268  0.7449 -0.6153
 7185TIP3    H221520   5.988   2.143   1.469 -0.2456 -0.8163  0.2720
 7186TIP3   OH221521   0.823   1.640   1.152 -0.2630 -0.0755  0.3416
 7186TIP3    H121522   0.851   1.589   1.227  1.0137 -1.4881 -1.0269
 7186TIP3    H221523   0.904   1.661   1.106 -1.0861 -0.1867 -1.2190
 7187TIP3   OH221524   1.432   0.315   0.796 -0.1282  0.1706 -0.2131
 7187TIP3    H121525   1.466   0.404   0.810 -2.2502  0.7330  2.4099
 7187TIP3    H221526   1.444   0.272   0.880 -2.2433 -0.8342 -0.3640
 7188TIP3   OH221527   5.431   0.226   3.723  0.0953  0.4850  0.0291
 7188TIP3    H121528   5.517   0.189   3.742  0.0944 -0.6907 -2.0425
 7188TIP3    H221529   5.386   0.159   3.671 -1.8701  1.3121  0.5548
 7189TIP3   OH221530   1.635   5.543   4.723 -0.2719 -0.4366  0.2379
 7189TIP3    H121531   1.605   5.632   4.740 -0.2511 -0.5871  1.0980
 7189TIP3    H221532   1.560   5.500   4.682 -0.3918 -0.1157  0.1217
 7190TIP3   OH221533   5.314   0.156   1.705 -0.7107 -0.3297  0.0929
 7190TIP3    H121534   5.364   0.106   1.640 -1.7828 -2.5384  0.8454
 7190TIP3    H221535   5.380   0.207   1.752  0.3837 -0.6184 -1.0654
 7191TIP3   OH221536   3.429   3.345   4.572  0.1047  0.2364 -0.8325
 7191TIP3    H121537   3.360   3.280   4.563  0.0043  0.3205 -0.6716
 7191TIP3    H221538   3.400   3.402   4.643  0.9533 -0.5004  0.1272
 7192TIP3   OH221539   6.049   4.876   2.592 -0.0426  0.0841 -0.2625
 7192TIP3    H121540   6.019   4.834   2.512  0.9327 -1.4041  0.1158
 7192TIP3    H221541   6.067   4.804   2.652 -1.1500  1.1719  1.4775
 7193TIP3   OH221542   4.423   0.154   2.652  0.0998 -0.5117 -0.6240
 7193TIP3    H121543   4.438   0.220   2.584  1.9177 -0.3161 -0.0849
 7193TIP3    H221544   4.378   0.201   2.722  0.4168 -0.1067 -0.6901
 7194TIP3   OH221545   2.260   1.391   2.811  0.6474 -0.3997  1.0998
 7194TIP3    H121546   2.287   1.403   2.902  3.7171 -1.6171  0.4740
 7194TIP3    H221547   2.333   1.426   2.759 -0.0471 -1.6515 -0.8464
 7195TIP3   OH221548   6.133   3.242   3.272  0.1496  0.4067 -0.0391
 7195TIP3    H121549   6.177   3.270   3.352  0.5586 -0.3520  0.0124
 7195TIP3    H221550   6.113   3.150   3.287 -0.6512  0.5121 -0.4282
 7196TIP3   OH221551   5.708   4.610   2.103  0.0130  0.1736  1.0383
 7196TIP3    H121552   5.769   4.682   2.087  1.3202 -1.1610 -0.2598
 7196TIP3    H221553   5.742   4.568   2.182 -0.0762  0.2855  1.1369
 7197TIP3   OH221554   4.021   3.351   4.473 -0.4087 -0.0742  0.2673
 7197TIP3    H121555   4.058   3.290   4.410 -2.1299 -1.8706  0.8747
 7197TIP3    H221556   3.940   3.382   4.432 -1.7905 -1.6278  1.7014
 7198TIP3   OH221557   0.849   6.421   4.922 -0.7841 -0.3764  0.1736
 7198TIP3    H121558   0.770   6.390   4.878  0.6840 -2.7348 -1.0245
 7198TIP3    H221559   0.898   6.341   4.942  2.1861  1.0183 -0.9232
 7199TIP3   OH221560   4.351   0.329   2.136  0.4207 -0.2282 -0.3829
 7199TIP3    H121561   4.366   0.236   2.124 -0.3676 -0.6383  1.4844
 7199TIP3    H221562   4.259   0.336   2.162  0.4907  1.0647 -0.4043
 7200TIP3   OH221563   0.284   0.939   4.216  0.4660 -0.3294 -0.0540
 7200TIP3    H121564   0.312   1.003   4.281 -1.2912 -1.0552  1.5043
 7200TIP3    H221565   0.226   0.879   4.264  0.3126 -1.7973 -1.9497
 7201TIP3   OH221566   3.274   3.834   1.628  0.4178 -0.0384  0.6310
 7201TIP3    H121567   3.201   3.781   1.657  0.8325  0.2595  2.3604
 7201TIP3    H221568   3.344   3.815   1.691  2.7870 -2.2544 -2.3496
 7202TIP3   OH221569   5.037   2.385   2.200 -0.4009 -0.3947 -0.1108
 7202TIP3    H121570   5.092   2.327   2.252 -0.4066 -1.1784 -0.9575
 7202TIP3    H221571   4.963   2.406   2.257 -0.2516 -0.9800  0.3049
 7203TIP3   OH221572   2.921   3.976   2.308  0.2715  0.0784 -0.5567
 7203TIP3    H121573   2.944   4.036   2.238 -0.1868  1.9928  0.8635
 7203TIP3    H221574   2.872   3.906   2.265 -2.4451  2.5818 -1.8228
 7204TIP3   OH221575   0.878   5.446   0.547 -0.0662  0.7025  0.5125
 7204TIP3    H121576   0.829   5.454   0.628 -0.4727 -3.0451  0.8305
 7204TIP3    H221577   0.814   5.415   0.483  0.2251  3.6322 -1.4014
 7205TIP3   OH221578   4.411   0.493   5.407  0.4663 -0.0752 -0.2531
 7205TIP3    H121579   4.486   0.488   5.348  0.3550 -1.7205 -0.3019
 7205TIP3    H221580   4.342   0.535   5.355  0.7940 -0.2245 -0.8197
 7206TIP3   OH221581   4.451   1.664   5.190 -0.1363 -0.2734 -0.4042
 7206TIP3    H121582   4.381   1.711   5.236  0.6355  0.5764 -0.0661
 7206TIP3    H221583   4.487   1.729   5.130  1.5299 -0.1489  0.6888
 7207TIP3   OH221584   3.169   2.428   2.675  0.4486  0.1503 -0.3997
 7207TIP3    H121585   3.224   2.371   2.621  0.6597 -0.1122  0.0888
 7207TIP3    H221586   3.081   2.391   2.666  0.6236 -0.4073  0.1063
 7208TIP3   OH221587   5.712   5.214   3.309 -0.2066  0.1317  0.2459
 7208TIP3    H121588   5.766   5.287   3.280 -2.0643  1.0182 -1.1475
 7208TIP3    H221589   5.697   5.231   3.402 -0.0043  1.1198  0.1120
 7209TIP3   OH221590   1.360   3.838   0.332  0.2418 -0.3521  0.3519
 7209TIP3    H121591   1.270   3.870   0.342  0.1886 -0.3792 -0.0243
 7209TIP3    H221592   1.398   3.894   0.265 -0.2434 -1.8710 -1.2559
 7210TIP3   OH221593   1.533   0.544   3.642 -0.4489 -0.2409 -0.1992
 7210TIP3    H121594   1.589   0.518   3.568  2.1164  0.5471  1.3326
 7210TIP3    H221595   1.546   0.639   3.649 -0.2934 -0.3642  1.5031
 7211TIP3   OH221596   0.728   4.511   5.777  0.0311  0.7048  0.3952
 7211TIP3    H121597   0.633   4.507   5.761  0.0218 -0.1768  0.6039
 7211TIP3    H221598   0.766   4.531   5.691 -0.4495  3.0776  0.6780
 7212TIP3   OH221599   3.336   4.447   5.099  0.1469 -0.0456  0.5450
 7212TIP3    H121600   3.341   4.530   5.146 -0.1068  0.6748 -0.6633
 7212TIP3    H221601   3.427   4.425   5.079  0.2310 -0.1827  1.0707
 7213TIP3   OH221602   0.064   1.838   0.797  0.1677  0.1207  0.4930
 7213TIP3    H121603   0.012   1.865   0.873  0.5027 -0.2877  0.8744
 7213TIP3    H221604   0.148   1.881   0.808 -0.8337  2.8619 -1.4366
 7214TIP3   OH221605   6.336   4.994   4.622 -0.3241  0.5027 -0.2487
 7214TIP3    H121606   6.370   4.910   4.592  2.1356  1.0014  0.9398
 7214TIP3    H221607   6.241   4.985   4.613 -0.1009 -2.0645 -0.9439
 7215TIP3   OH221608   1.486   1.889   2.095 -0.4960  0.9043 -0.3637
 7215TIP3    H121609   1.516   1.979   2.113  1.3807  0.0903  0.9363
 7215TIP3    H221610   1.557   1.834   2.129 -1.6668 -1.0792 -1.0353
 7216TIP3   OH221611   7.096   6.132   2.211  0.1233  0.0269 -0.3558
 7216TIP3    H121612   7.026   6.117   2.274 -1.0112  3.0068 -0.7581
 7216TIP3    H221613   7.173   6.150   2.265 -0.2815  0.2692  0.1428
 7217TIP3   OH221614   3.257   0.187   5.580  0.1855 -0.3094  0.5894
 7217TIP3    H121615   3.291   0.228   5.500 -0.2917 -0.2037  0.4320
 7217TIP3    H221616   3.267   0.093   5.566  0.5923 -0.2700  0.6286
 7218TIP3   OH221617   4.426   4.509   1.682  0.1657 -0.0061  0.5758
 7218TIP3    H121618   4.387   4.497   1.596 -1.5211 -0.6792  1.3940
 7218TIP3    H221619   4.459   4.423   1.707 -0.5339 -0.1237  1.1350
 7219TIP3   OH221620   5.505   3.355   0.159  0.1313  0.3384 -0.3525
 7219TIP3    H121621   5.529   3.370   0.251 -1.5398  0.6500  0.0618
 7219TIP3    H221622   5.583   3.315   0.121  0.7856 -0.0093  1.2513
 7220TIP3   OH221623   4.246   0.339   2.841 -0.0726 -0.5906 -0.6394
 7220TIP3    H121624   4.238   0.335   2.937 -0.5438 -0.0060 -0.6495
 7220TIP3    H221625   4.310   0.408   2.825 -0.3283 -0.3776 -0.7544
 7221TIP3   OH221626   0.886   5.723   5.154  0.0947  0.5544 -0.3517
 7221TIP3    H121627   0.907   5.817   5.153  1.3715  0.3484  1.6662
 7221TIP3    H221628   0.839   5.710   5.237 -1.0444 -0.4292 -1.1208
 7222TIP3   OH221629   0.282   1.117   3.982 -0.4251 -0.1510  1.1813
 7222TIP3    H121630   0.241   1.043   4.027 -1.0579 -0.6609 -0.1848
 7222TIP3    H221631   0.266   1.100   3.889  0.0001  1.3730  0.8106
 7223TIP3   OH221632   1.536   2.982   0.146  0.1425  0.3894 -0.1899
 7223TIP3    H121633   1.521   3.055   0.085 -2.4449  0.8353  0.8348
 7223TIP3    H221634   1.473   2.997   0.216  1.1892 -1.5830  1.2541
 7224TIP3   OH221635   1.987   3.364   0.535  0.2631  0.3046  0.1043
 7224TIP3    H121636   2.034   3.417   0.469  1.7028  1.8958  2.2580
 7224TIP3    H221637   1.895   3.382   0.519  0.6590  2.2597 -0.2704
 7225TIP3   OH221638   6.386   3.993   4.516 -0.4494 -0.2886  0.2018
 7225TIP3    H121639   6.299   3.987   4.556  0.3432 -0.0836  2.0577
 7225TIP3    H221640   6.385   4.078   4.470 -1.8097 -1.1051 -1.3814
 7226TIP3   OH221641   4.366   2.634   2.793  0.1038 -0.8905 -0.1657
 7226TIP3    H121642   4.394   2.677   2.712 -0.1226  1.6246  0.9832
 7226TIP3    H221643   4.394   2.693   2.862 -0.8161 -2.3457  1.5403
 7227TIP3   OH221644   5.931   6.161   3.537  0.3105  0.4248 -0.0466
 7227TIP3    H121645   5.923   6.217   3.615 -1.5314  0.1415 -0.0071
 7227TIP3    H221646   5.921   6.221   3.463  1.0723  0.5395 -0.0680
 7228TIP3   OH221647   1.745   3.430   4.144  0.4197  0.2721 -0.2894
 7228TIP3    H121648   1.831   3.403   4.177 -0.4854 -3.0471 -0.3785
 7228TIP3    H221649   1.758   3.438   4.049  0.4153 -1.2695 -0.4347
 7229TIP3   OH221650   3.485   1.936   4.262 -0.1531  0.1194 -0.0492
 7229TIP3    H121651   3.492   1.983   4.345  0.6312  1.3005 -0.7491
 7229TIP3    H221652   3.404   1.968   4.223 -0.9467 -1.0369  0.5899
 7230TIP3   OH221653   3.359   4.390   2.682 -0.2322  0.1286 -0.0602
 7230TIP3    H121654   3.449   4.399   2.711  0.6528  3.0562 -2.9954
 7230TIP3    H221655   3.355   4.304   2.640  0.1636 -1.3905  2.7729
 7231TIP3   OH221656   5.754   2.096   0.184  0.3836  0.1154 -0.5542
 7231TIP3    H121657   5.802   2.071   0.105  2.5277  1.9738  0.0605
 7231TIP3    H221658   5.761   2.191   0.187 -0.6805  0.1763  1.2659
 7232TIP3   OH221659   6.045   5.731   4.939 -0.0643  0.2165 -0.3870
 7232TIP3    H121660   5.992   5.653   4.921 -0.2145 -0.2031  1.5726
 7232TIP3    H221661   6.021   5.793   4.871  0.7428 -1.7399 -2.5859
 7233TIP3   OH221662   2.237   2.122   2.195 -0.0937 -0.2953  0.3329
 7233TIP3    H121663   2.221   2.035   2.158  1.4984  0.0279 -1.2661
 7233TIP3    H221664   2.303   2.109   2.263  0.4816 -0.2999 -0.2181
 7234TIP3   OH221665   0.356   2.967   3.193  0.1126  0.0399 -0.2522
 7234TIP3    H121666   0.346   2.886   3.143  1.4870  0.3554 -1.1039
 7234TIP3    H221667   0.267   2.991   3.219 -0.3816 -1.3732 -0.5613
 7235TIP3   OH221668   0.304   6.788   1.611 -0.3644  0.0132  0.6940
 7235TIP3    H121669   0.234   6.766   1.673  0.1198  1.6089  1.8611
 7235TIP3    H221670   0.376   6.819   1.666  1.2053 -1.3307 -0.5011
 7236TIP3   OH221671   4.281   6.761   0.540 -0.9027 -0.1583 -0.5207
 7236TIP3    H121672   4.298   6.670   0.515 -0.0143  0.1334 -1.0179
 7236TIP3    H221673   4.275   6.808   0.457  1.6527  0.7529 -0.2557
 7237TIP3   OH221674   5.386   4.660   2.382  0.6354  0.4637 -0.5114
 7237TIP3    H121675   5.375   4.630   2.291  1.0352 -1.4687  0.0341
 7237TIP3    H221676   5.462   4.718   2.379 -0.8261  2.4921 -1.8075
 7238TIP3   OH221677   6.458   1.233   1.107 -0.1762  0.2822  0.1744
 7238TIP3    H121678   6.440   1.194   1.022 -3.0267 -1.6842  1.5141
 7238TIP3    H221679   6.416   1.319   1.104 -1.6826 -0.4224  0.0366
 7239TIP3   OH221680   0.346   2.321   5.777  0.1375 -0.5597  0.1190
 7239TIP3    H121681   0.361   2.359   5.863 -1.2524 -1.4327  0.7757
 7239TIP3    H221682   0.377   2.230   5.784 -1.3704 -1.0960  0.1989
 7240TIP3   OH221683   4.958   2.663   3.527  0.3918  0.9966  0.1145
 7240TIP3    H121684   4.940   2.569   3.526  0.3185  1.0118 -0.1225
 7240TIP3    H221685   4.983   2.684   3.437  1.4768  1.0081  0.4096
 7241TIP3   OH221686   5.014   4.778   1.871 -0.2320 -0.0522  0.1801
 7241TIP3    H121687   5.044   4.698   1.829  1.8964  0.3147  0.8392
 7241TIP3    H221688   4.971   4.749   1.951  1.3035 -0.5598  0.8642
 7242TIP3   OH221689   1.341   5.764   0.702 -0.3877  0.0536 -0.0269
 7242TIP3    H121690   1.266   5.706   0.709 -0.6318  0.4026  0.2886
 7242TIP3    H221691   1.304   5.852   0.702 -0.0003  0.2198 -0.1914
 7243TIP3   OH221692   4.807   0.796   4.817 -0.3247  0.3522 -0.0495
 7243TIP3    H121693   4.841   0.802   4.906 -0.2406 -0.0425 -0.0532
 7243TIP3    H221694   4.718   0.829   4.823 -0.3973  0.1077  0.2267
 7244TIP3   OH221695   5.235   0.757   0.536 -0.2187  0.2233 -0.1374
 7244TIP3    H121696   5.271   0.750   0.447 -2.1730 -1.3884 -0.9022
 7244TIP3    H221697   5.306   0.795   0.588  1.7534 -0.7184 -1.9547
 7245TIP3   OH221698   2.626   3.365   5.254 -0.1603 -0.6872 -0.2918
 7245TIP3    H121699   2.654   3.337   5.341 -1.5067  0.4505  0.5649
 7245TIP3    H221700   2.532   3.381   5.264 -0.6153 -1.8032 -2.3130
 7246TIP3   OH221701   0.291   5.449   3.898  0.3117  0.4424  0.0727
 7246TIP3    H121702   0.229   5.494   3.955 -0.5795  1.9550 -1.9690
 7246TIP3    H221703   0.376   5.485   3.923 -0.0249  0.8902  0.6170
 7247TIP3   OH221704   3.133   3.798   2.879 -0.5015  0.2915  0.0452
 7247TIP3    H121705   3.144   3.866   2.813 -1.1434 -1.7121 -2.2777
 7247TIP3    H221706   3.054   3.823   2.927 -0.2366  1.5991 -0.1846
 7248TIP3   OH221707   1.961   0.351   2.208  0.5092  0.0415  0.1672
 7248TIP3    H121708   2.011   0.396   2.140  1.5372  0.4366  1.1594
 7248TIP3    H221709   1.881   0.323   2.164  0.7154  1.1391 -0.9582
 7249TIP3   OH221710   0.413   4.146   3.565  0.1056  0.0647 -0.2753
 7249TIP3    H121711   0.396   4.138   3.471 -1.3872 -2.7486  0.1449
 7249TIP3    H221712   0.489   4.090   3.581 -1.0209 -1.3044  0.4877
 7250TIP3   OH221713   5.958   1.952   3.524 -0.3169 -0.4416 -0.0667
 7250TIP3    H121714   5.936   1.895   3.450  0.0533 -0.8811  0.1558
 7250TIP3    H221715   5.984   2.035   3.484 -2.2779  0.0881 -0.3463
 7251TIP3   OH221716   2.544   2.605   3.284  0.2701  0.0782  0.2662
 7251TIP3    H121717   2.612   2.646   3.232  0.2445  1.2582  1.1206
 7251TIP3    H221718   2.566   2.512   3.285  0.4737  0.0787 -1.5065
 7252TIP3   OH221719   1.023   4.374   2.551  0.3399  0.3030  0.4465
 7252TIP3    H121720   1.106   4.386   2.504  1.2803 -1.8853  1.3845
 7252TIP3    H221721   1.012   4.279   2.555 -1.8758  0.5282  0.9978
 7253TIP3   OH221722   0.141   3.591   3.778 -0.1258 -0.1051 -0.3900
 7253TIP3    H121723   0.137   3.535   3.855  0.8369 -0.0031 -0.2556
 7253TIP3    H221724   0.232   3.584   3.748 -0.7988 -1.2505 -2.3389
 7254TIP3   OH221725   5.798   2.316   5.614  0.0459 -0.9454  0.0428
 7254TIP3    H121726   5.806   2.408   5.591  0.4686 -0.8686  0.4770
 7254TIP3    H221727   5.787   2.271   5.530 -1.8284 -0.3590 -0.0771
 7255TIP3   OH221728   3.727   1.603   4.389 -0.3713 -0.2050  0.2125
 7255TIP3    H121729   3.695   1.665   4.454  0.3850  1.6378 -1.0949
 7255TIP3    H221730   3.787   1.654   4.335 -1.1793 -1.5772 -2.1113
 7256TIP3   OH221731   3.612   4.803   2.816  0.3088 -0.5098 -0.4981
 7256TIP3    H121732   3.685   4.746   2.838  1.4700  0.6916 -1.0586
 7256TIP3    H221733   3.646   4.892   2.830 -1.2174  0.0713 -0.2639
 7257TIP3   OH221734   3.058   3.419   3.947 -0.2870 -0.2912 -0.5458
 7257TIP3    H121735   2.972   3.453   3.924  0.7919  0.8655 -3.2494
 7257TIP3    H221736   3.119   3.487   3.919  1.5193 -0.6075  2.2343
 7258TIP3   OH221737   0.548   0.980   0.648  0.0823  0.1260 -0.2250
 7258TIP3    H121738   0.638   0.997   0.619 -0.0280 -1.9832 -2.1165
 7258TIP3    H221739   0.557   0.950   0.738  1.0517  1.6535  0.2280
 7259TIP3   OH221740   2.408   4.044   4.626 -0.0129 -0.5806 -0.4453
 7259TIP3    H121741   2.334   4.059   4.685 -0.2207  0.7688 -1.0217
 7259TIP3    H221742   2.368   4.017   4.543 -0.0175  1.8808 -1.3086
 7260TIP3   OH221743   1.628   2.212   2.695 -0.1821 -0.3896  0.1675
 7260TIP3    H121744   1.718   2.243   2.708 -0.9708  0.8760  3.4168
 7260TIP3    H221745   1.579   2.292   2.674 -0.8629 -0.7826  0.2543
 7261TIP3   OH221746   2.132   6.049   0.773 -0.1460  0.3483 -0.1257
 7261TIP3    H121747   2.137   6.141   0.801 -0.1843  0.4267 -0.3760
 7261TIP3    H221748   2.210   6.037   0.719  0.9155 -0.2990  1.4708
 7262TIP3   OH221749   6.227   0.180   0.396  0.4886 -0.0536  0.1035
 7262TIP3    H121750   6.142   0.189   0.440 -0.4131 -0.1090 -1.5395
 7262TIP3    H221751   6.232   0.088   0.371  0.5814  0.1631 -0.6822
 7263TIP3   OH221752   4.455   1.627   0.846  0.4225  0.1725 -0.3254
 7263TIP3    H121753   4.512   1.623   0.923  0.2642  0.9881 -0.1546
 7263TIP3    H221754   4.514   1.615   0.772  0.4089 -1.9403 -0.0612
 7264TIP3   OH221755   5.011   5.878   2.437  0.6658  0.0325 -0.2801
 7264TIP3    H121756   4.936   5.921   2.395  1.0552 -0.5711 -1.6322
 7264TIP3    H221757   5.064   5.949   2.472 -0.5217  0.4721  0.7070
 7265TIP3   OH221758   6.491   1.718   1.278 -0.7186  0.1045 -0.1858
 7265TIP3    H121759   6.565   1.760   1.234 -0.5006 -0.3645 -0.2747
 7265TIP3    H221760   6.512   1.725   1.371  0.2699 -1.4784 -0.2481
 7266TIP3   OH221761   0.467   1.643   0.899 -0.0596 -0.0345 -0.0611
 7266TIP3    H121762   0.538   1.674   0.843  1.5687 -0.9008  1.4656
 7266TIP3    H221763   0.397   1.620   0.837  1.1531  0.3376 -1.6414
 7267TIP3   OH221764   4.450   1.918   1.196  0.5538 -0.4392 -0.1703
 7267TIP3    H121765   4.371   1.865   1.183 -0.1247  0.2492  0.9857
 7267TIP3    H221766   4.522   1.854   1.195 -0.2202 -1.3683  0.8753
 7268TIP3   OH221767   6.054   6.784   0.328 -0.1317 -0.0130  0.3262
 7268TIP3    H121768   6.129   6.843   0.322 -0.5972  0.6205  0.5714
 7268TIP3    H221769   6.027   6.770   0.237 -1.0913  1.5787  0.3258
 7269TIP3   OH221770   0.226   5.516   5.118 -0.6227 -0.2070  0.2533
 7269TIP3    H121771   0.264   5.573   5.185 -1.2750  0.1251  0.3490
 7269TIP3    H221772   0.226   5.429   5.158  1.5492 -0.5553 -0.3625
 7270TIP3   OH221773   4.509   6.786   0.731 -0.5752  0.8533  0.6765
 7270TIP3    H121774   4.437   6.786   0.668  0.5335  0.7760 -0.6398
 7270TIP3    H221775   4.532   6.693   0.741 -0.7214  0.8679  1.1880
 7271TIP3   OH221776   6.576   0.538   3.245 -0.0356 -0.5903  0.1553
 7271TIP3    H121777   6.644   0.513   3.182 -0.9604  0.4440 -1.3246
 7271TIP3    H221778   6.562   0.631   3.229 -0.1586 -0.2498  2.0758
 7272TIP3   OH221779   0.794   4.593   5.510 -0.2470 -0.0847 -0.1053
 7272TIP3    H121780   0.884   4.560   5.508 -0.0374  0.3250  1.2868
 7272TIP3    H221781   0.793   4.664   5.446  0.8827  0.9600  0.9746
 7273TIP3   OH221782   6.097   6.418   5.757 -0.1954 -0.3525 -0.1168
 7273TIP3    H121783   6.040   6.417   5.681  0.1518  1.8372 -0.4976
 7273TIP3    H221784   6.165   6.481   5.734 -0.4218  0.8505  2.1982
 7274TIP3   OH221785   1.998   1.569   5.489  0.4792  0.0868  0.3626
 7274TIP3    H121786   1.950   1.488   5.503  0.5330 -0.0041  0.0361
 7274TIP3    H221787   1.953   1.634   5.543 -1.0580  0.3976 -1.1941
 7275TIP3   OH221788   2.319   2.722   4.229 -0.5685  0.7368 -0.3759
 7275TIP3    H121789   2.239   2.680   4.259 -0.2752  0.1791 -0.3446
 7275TIP3    H221790   2.344   2.672   4.150 -0.9085  1.6822 -1.1018
 7276TIP3   OH221791   0.407   6.741   2.176  0.9609 -0.2400  0.9661
 7276TIP3    H121792   0.494   6.778   2.162  0.1800  1.1024 -0.6117
 7276TIP3    H221793   0.376   6.781   2.257  0.9073  1.1229  0.2985
 7277TIP3   OH221794   1.265   6.204   4.079 -0.3052  0.6194  0.1102
 7277TIP3    H121795   1.310   6.288   4.089 -1.5749  1.3912 -0.4720
 7277TIP3    H221796   1.333   6.144   4.048  0.5682  1.4760  0.3267
 7278TIP3   OH221797   0.114   1.289   1.899  0.2113 -0.1256  0.2858
 7278TIP3    H121798   0.116   1.385   1.896 -0.6775 -0.1277 -0.9714
 7278TIP3    H221799   0.177   1.262   1.833  1.9971 -0.4701  2.0184
 7279TIP3   OH221800   7.035   2.889   3.770 -0.7744 -0.4378 -0.0103
 7279TIP3    H121801   6.945   2.864   3.750 -1.2979  1.7902 -0.6885
 7279TIP3    H221802   7.071   2.918   3.687  0.2413 -0.3137  0.4604
 7280TIP3   OH221803   2.286   2.139   4.306 -0.0135  0.3456  0.4352
 7280TIP3    H121804   2.233   2.129   4.385  0.4025 -1.6000  0.5322
 7280TIP3    H221805   2.265   2.226   4.273 -1.5502  0.4897  1.6930
 7281TIP3   OH221806   1.709   4.396   2.757 -0.6303  0.6466 -0.3702
 7281TIP3    H121807   1.688   4.430   2.670 -0.8896  0.7552 -0.2624
 7281TIP3    H221808   1.629   4.406   2.808  0.1906  2.7802  0.5979
 7282TIP3   OH221809   3.395   4.320   1.278  0.3562  0.3752  0.0233
 7282TIP3    H121810   3.481   4.293   1.311  0.5760  1.7761  0.6506
 7282TIP3    H221811   3.360   4.241   1.236  0.8986 -0.9525  1.9133
 7283TIP3   OH221812   2.954   6.405   0.801 -0.1041  0.3755 -0.3935
 7283TIP3    H121813   2.863   6.421   0.777 -0.2111 -0.3916 -0.5551
 7283TIP3    H221814   2.950   6.372   0.891 -0.2258 -1.7305 -1.1105
 7284TIP3   OH221815   4.817   6.066   3.412 -0.2971  0.0375 -0.2123
 7284TIP3    H121816   4.774   5.984   3.385 -2.4101  1.4764 -1.5553
 7284TIP3    H221817   4.821   6.118   3.332 -0.3767  1.8153  0.8925
 7285TIP3   OH221818   0.171   0.713   5.727 -0.5005  0.2937 -0.0944
 7285TIP3    H121819   0.230   0.639   5.715 -0.4290  0.3639 -0.1759
 7285TIP3    H221820   0.085   0.679   5.705 -0.1428  0.9167 -2.8081
 7286TIP3   OH221821   6.327   4.652   1.254  0.1546 -0.0760 -0.0053
 7286TIP3    H121822   6.342   4.702   1.334 -0.7033  0.0395  0.0919
 7286TIP3    H221823   6.302   4.565   1.284 -0.3327  0.0146 -0.1462
 7287TIP3   OH221824   4.396   3.242   3.140  0.6492 -0.2988 -0.2077
 7287TIP3    H121825   4.486   3.262   3.116  0.3249 -0.4444 -1.5835
 7287TIP3    H221826   4.389   3.147   3.132  0.6269 -0.3974  0.8380
 7288TIP3   OH221827   4.415   6.662   4.103  0.0365 -0.1618  0.3146
 7288TIP3    H121828   4.476   6.588   4.102 -0.0640 -0.2500 -1.2296
 7288TIP3    H221829   4.355   6.643   4.175  0.3846 -1.2640  0.3269
 7289TIP3   OH221830   2.562   1.746   0.366 -0.7606  0.0665  0.3212
 7289TIP3    H121831   2.555   1.789   0.280  0.8435 -1.0326 -0.4153
 7289TIP3    H221832   2.475   1.711   0.382 -0.6531 -1.4050 -1.8478
 7290TIP3   OH221833   3.019   0.445   1.757 -0.6396  0.4110 -0.2530
 7290TIP3    H121834   3.045   0.381   1.691  1.9549 -0.5276  1.5285
 7290TIP3    H221835   3.006   0.394   1.836  1.3050  1.9516  1.1770
 7291TIP3   OH221836   1.979   5.229   0.266  0.6390 -0.0844 -0.2672
 7291TIP3    H121837   1.940   5.227   0.354 -1.2537  0.2753 -1.0493
 7291TIP3    H221838   2.050   5.166   0.271 -0.5588 -1.4353  1.0501
 7292TIP3   OH221839   3.688   0.640   1.461 -0.4994 -0.2860  0.2372
 7292TIP3    H121840   3.772   0.669   1.496 -0.0169 -1.2685 -0.0902
 7292TIP3    H221841   3.671   0.698   1.387 -0.8428  0.8765  1.1805
 7293TIP3   OH221842   0.151   3.789   5.290 -0.1596  0.1499  0.3212
 7293TIP3    H121843   0.093   3.838   5.347  1.2853 -0.1578  2.1723
 7293TIP3    H221844   0.183   3.854   5.227 -1.9323  0.4576 -0.3050
 7294TIP3   OH221845   3.642   0.899   5.553 -0.6096  0.2848 -0.2668
 7294TIP3    H121846   3.598   0.822   5.588 -2.6107  1.1187 -0.7660
 7294TIP3    H221847   3.694   0.933   5.626 -1.3952 -0.3391  0.6009
 7295TIP3   OH221848   0.748   4.601   4.690 -0.4633  0.2528 -0.0004
 7295TIP3    H121849   0.669   4.555   4.719  0.1284  0.4718  2.1740
 7295TIP3    H221850   0.743   4.687   4.732  0.8206  0.3441  0.0235
 7296TIP3   OH221851   6.385   0.086   2.824  0.8966 -0.2097  0.1489
 7296TIP3    H121852   6.437   0.044   2.892 -1.8656 -1.6129  1.5504
 7296TIP3    H221853   6.297   0.094   2.862  0.1433  2.5679 -1.8503
 7297TIP3   OH221854   5.667   4.220   1.529 -0.3192  0.4008  0.6606
 7297TIP3    H121855   5.612   4.222   1.607 -0.7829 -1.7582  0.4521
 7297TIP3    H221856   5.743   4.168   1.556 -1.1331 -1.5582 -0.6844
 7298TIP3   OH221857   0.513   2.748   2.008  0.1961 -0.0714 -0.0884
 7298TIP3    H121858   0.577   2.698   1.957  0.4623  1.0079 -0.8479
 7298TIP3    H221859   0.430   2.734   1.963  0.0514 -0.7575  0.3809
 7299TIP3   OH221860   0.238   0.392   0.161  0.0004 -0.7203  0.3932
 7299TIP3    H121861   0.317   0.446   0.155 -1.8289  2.0157 -1.2519
 7299TIP3    H221862   0.214   0.396   0.254  1.0219 -0.3916  0.6589
 7300TIP3   OH221863   1.606   3.802   3.899 -0.0819  0.0540  0.0045
 7300TIP3    H121864   1.566   3.738   3.841  2.0953  1.3233 -3.2346
 7300TIP3    H221865   1.565   3.885   3.875  0.0053  0.4748  1.2205
 7301TIP3   OH221866   5.612   2.141   2.411 -0.1672 -0.4875  0.0481
 7301TIP3    H121867   5.523   2.123   2.381  0.0911 -0.4391 -0.7565
 7301TIP3    H221868   5.652   2.192   2.341  0.6196 -0.8386  0.2230
 7302TIP3   OH221869   4.804   1.664   5.176 -0.3597 -0.8422  0.0247
 7302TIP3    H121870   4.894   1.681   5.148  0.3565 -1.4025  1.7949
 7302TIP3    H221871   4.750   1.701   5.107  1.2279 -1.4943 -1.6689
 7303TIP3   OH221872   5.548   5.917   1.588  0.6578 -0.2480  0.2433
 7303TIP3    H121873   5.574   5.827   1.607  0.3127 -0.2215  0.8550
 7303TIP3    H221874   5.606   5.944   1.517  1.2211 -0.7236  0.5138
 7304TIP3   OH221875   4.242   3.996   3.438  0.3099 -0.0268  0.0854
 7304TIP3    H121876   4.305   3.953   3.495  0.1856 -0.6345 -0.2248
 7304TIP3    H221877   4.204   4.066   3.492  0.7114 -0.1310  0.5076
 7305TIP3   OH221878   6.935   2.821   1.454  0.1560  0.6521 -0.5071
 7305TIP3    H121879   6.874   2.794   1.523 -1.8739  0.0025 -2.4034
 7305TIP3    H221880   6.967   2.907   1.482 -0.1026  0.1475  1.4918
 7306TIP3   OH221881   5.122   5.828   5.002  0.4380  0.0749 -0.3548
 7306TIP3    H121882   5.053   5.868   5.054  0.7037 -0.0632  0.1026
 7306TIP3    H221883   5.203   5.856   5.044  0.6456 -0.2888 -0.5100
 7307TIP3   OH221884   1.418   6.275   3.631  0.8636  0.0731  0.0059
 7307TIP3    H121885   1.366   6.198   3.655 -1.0988  1.8138  1.7009
 7307TIP3    H221886   1.479   6.285   3.704  1.2767  0.0255 -0.3283
 7308TIP3   OH221887   0.289   2.450   4.492  0.0387  0.6163 -0.1836
 7308TIP3    H121888   0.232   2.374   4.503 -0.9096  1.4626  1.0282
 7308TIP3    H221889   0.376   2.417   4.515 -0.3317 -0.1530  0.1943
 7309TIP3   OH221890   1.158   2.225   1.348 -0.2221  0.6486  0.8441
 7309TIP3    H121891   1.076   2.191   1.311 -1.0509  2.2867  1.0654
 7309TIP3    H221892   1.214   2.148   1.358 -1.0284 -0.2593 -1.0935
 7310TIP3   OH221893   5.725   6.631   2.829 -0.1576 -0.2410 -0.5425
 7310TIP3    H121894   5.725   6.710   2.774  1.1933  1.3928  1.6272
 7310TIP3    H221895   5.687   6.660   2.912  2.0951 -1.3170  0.9561
 7311TIP3   OH221896   0.889   6.788   0.967 -0.3858  0.1605 -0.3659
 7311TIP3    H121897   0.854   6.793   1.056  1.8137  0.8489  0.5432
 7311TIP3    H221898   0.984   6.792   0.978  0.0578 -1.6466 -2.6473
 7312TIP3   OH221899   0.591   5.141   1.912 -0.0400  0.2478  0.1597
 7312TIP3    H121900   0.502   5.131   1.878 -0.1888 -0.2331  0.6765
 7312TIP3    H221901   0.581   5.198   1.989  0.3286  1.5362 -0.7179
 7313TIP3   OH221902   2.564   4.003   2.112 -0.4243 -0.1597  0.1484
 7313TIP3    H121903   2.628   3.935   2.133 -0.7452 -1.0126 -1.4684
 7313TIP3    H221904   2.479   3.962   2.126 -0.6747  0.9699  2.2796
 7314TIP3   OH221905   0.645   2.388   3.027  0.0317  0.7125  0.4151
 7314TIP3    H121906   0.724   2.363   3.075  1.1524 -0.2076 -1.7350
 7314TIP3    H221907   0.654   2.483   3.013  0.0615  0.8490  1.3189
 7315TIP3   OH221908   5.144   6.153   5.141 -0.4169 -0.4064 -0.1783
 7315TIP3    H121909   5.145   6.169   5.047  1.7409 -1.6283 -0.4100
 7315TIP3    H221910   5.100   6.230   5.177 -0.8965  0.2945 -2.1305
 7316TIP3   OH221911   2.070   6.438   5.307  0.4692 -0.6337  0.2292
 7316TIP3    H121912   2.131   6.392   5.249 -0.4784 -0.9447 -0.5359
 7316TIP3    H221913   2.120   6.451   5.388  1.3979 -1.2899 -0.2172
 7317TIP3   OH221914   2.105   4.746   1.774  0.0986 -0.0141  0.1623
 7317TIP3    H121915   2.111   4.841   1.777  2.1991 -0.0705 -0.8250
 7317TIP3    H221916   2.022   4.726   1.817 -1.4064  2.3760 -1.3926
 7318TIP3   OH221917   2.222   6.366   1.549  0.0138 -0.3689  0.0216
 7318TIP3    H121918   2.197   6.297   1.488 -0.9472 -0.3572  0.3832
 7318TIP3    H221919   2.250   6.319   1.628 -0.8822 -0.3650  0.3597
 7319TIP3   OH221920   0.127   3.724   4.328 -0.2425  0.8617  0.0310
 7319TIP3    H121921   0.117   3.755   4.418 -1.3348  0.5751  0.0275
 7319TIP3    H221922   0.208   3.764   4.297  0.4141  0.5463  1.3091
 7320TIP3   OH221923   4.947   6.225   0.787  0.6935  0.1618 -0.1946
 7320TIP3    H121924   4.877   6.230   0.723  1.4549 -0.2537 -1.0841
 7320TIP3    H221925   4.945   6.135   0.819  0.8612  0.1318 -0.2680
 7321TIP3   OH221926   5.214   6.296   2.994 -0.6017  0.5083  0.0725
 7321TIP3    H121927   5.274   6.246   3.050  0.4721  1.9620  0.2788
 7321TIP3    H221928   5.129   6.288   3.037 -0.1107  0.2669  1.0314
 7322TIP3   OH221929   5.888   2.398   4.743 -0.5445 -0.1678 -0.1159
 7322TIP3    H121930   5.912   2.490   4.734  0.2101 -0.1923  1.2757
 7322TIP3    H221931   5.827   2.381   4.671 -1.4613  1.6605  0.1766
 7323TIP3   OH221932   5.339   6.095   1.105 -0.0234 -0.5250  0.1894
 7323TIP3    H121933   5.299   6.149   1.037 -0.6408  0.7065  1.4787
 7323TIP3    H221934   5.278   6.101   1.179  1.6609 -0.0018  1.6110
 7324TIP3   OH221935   4.484   0.557   0.753  0.3086 -0.3447  0.7319
 7324TIP3    H121936   4.535   0.585   0.829 -0.2156 -0.3294  1.0788
 7324TIP3    H221937   4.431   0.484   0.784 -0.0824 -0.1887  0.4400
 7325TIP3   OH221938   6.084   5.577   2.903 -0.1789  0.2473 -0.3573
 7325TIP3    H121939   6.170   5.547   2.933 -0.6697 -0.3572  0.5079
 7325TIP3    H221940   6.090   5.578   2.808  1.0595  1.0696 -0.2802
 7326TIP3   OH221941   3.382   6.057   0.903 -0.2145 -0.0150  0.1973
 7326TIP3    H121942   3.435   6.113   0.960 -1.3503  0.6234  0.6696
 7326TIP3    H221943   3.392   5.969   0.940  1.3726 -0.1189 -0.3892
 7327TIP3   OH221944   5.799   2.368   5.102  0.3330 -0.6456  0.2588
 7327TIP3    H121945   5.765   2.302   5.041  2.4590 -1.5174 -0.0581
 7327TIP3    H221946   5.824   2.441   5.047 -0.9174 -0.0105  0.4919
 7328TIP3   OH221947   6.931   6.625   0.520 -0.4069 -0.1160 -0.5876
 7328TIP3    H121948   6.967   6.556   0.575 -0.2106 -0.3659 -1.0233
 7328TIP3    H221949   6.845   6.645   0.558  0.0097  0.1921  0.2098
 7329TIP3   OH221950   4.850   4.820   1.584 -0.5499 -0.0422  0.2276
 7329TIP3    H121951   4.932   4.793   1.625 -1.1894 -0.6320  1.1527
 7329TIP3    H221952   4.783   4.765   1.625 -1.2715 -0.3763 -1.3502
 7330TIP3   OH221953   5.944   1.556   3.566  0.1561 -0.6393 -0.2260
 7330TIP3    H121954   5.920   1.463   3.566 -0.0794 -0.5976 -1.6027
 7330TIP3    H221955   6.006   1.565   3.639 -0.9572 -1.5597  0.8684
 7331TIP3   OH221956   4.030   3.221   4.861  0.4137  0.0147  0.2096
 7331TIP3    H121957   4.084   3.287   4.818  1.0097 -1.4265 -1.3870
 7331TIP3    H221958   3.958   3.271   4.900 -0.8323  1.4599 -3.4296
 7332TIP3   OH221959   0.809   1.481   3.813  0.6942 -0.0536  0.2414
 7332TIP3    H121960   0.731   1.504   3.764  0.0003 -0.4475  1.1345
 7332TIP3    H221961   0.777   1.453   3.898  1.8700  0.9480  1.0672
 7333TIP3   OH221962   5.149   4.658   4.406 -0.7873  0.3494 -0.3195
 7333TIP3    H121963   5.166   4.660   4.501  0.2841  1.4574 -0.5051
 7333TIP3    H221964   5.236   4.667   4.366 -1.1349 -0.9194 -1.4352
 7334TIP3   OH221965   0.677   1.255   3.566 -0.2996 -0.0863 -0.5447
 7334TIP3    H121966   0.773   1.256   3.573 -0.2973 -2.5057  0.8462
 7334TIP3    H221967   0.647   1.272   3.656 -1.1160 -0.8869 -0.6515
 7335TIP3   OH221968   2.144   5.913   3.409  0.4103 -0.7275  0.2468
 7335TIP3    H121969   2.084   5.966   3.462 -0.5071 -1.1274 -0.3691
 7335TIP3    H221970   2.087   5.854   3.361  1.3139 -1.1388 -0.3332
 7336TIP3   OH221971   1.441   6.746   3.035  0.7192  0.5074 -0.2739
 7336TIP3    H121972   1.451   6.710   2.947  0.8515 -1.0538  0.3418
 7336TIP3    H221973   1.529   6.771   3.061  1.1978 -1.6668  0.4385
 7337TIP3   OH221974   3.175   4.311   3.811 -0.2998 -0.0812  0.5232
 7337TIP3    H121975   3.128   4.345   3.735  0.7477 -1.5436 -0.8220
 7337TIP3    H221976   3.226   4.238   3.778  1.9312  0.6037  2.1932
 7338TIP3   OH221977   6.239   5.045   2.508  0.3220 -0.3207  0.5929
 7338TIP3    H121978   6.166   4.998   2.549  0.1792 -0.3040  0.3630
 7338TIP3    H221979   6.238   5.132   2.548  0.9310 -0.6798  1.4251
 7339TIP3   OH221980   2.288   1.191   5.569 -0.3665 -0.0797 -0.0584
 7339TIP3    H121981   2.323   1.274   5.536  1.3089 -0.3106  1.0488
 7339TIP3    H221982   2.235   1.157   5.497  0.1086  1.2427 -1.0695
 7340TIP3   OH221983   2.216   6.244   4.906  0.0631 -0.2527 -0.2868
 7340TIP3    H121984   2.285   6.271   4.846  0.7132 -2.6175 -0.6924
 7340TIP3    H221985   2.180   6.165   4.866 -0.8923 -0.7163  1.4233
 7341TIP3   OH221986   4.874   6.380   1.934  0.4526  0.2119  0.6230
 7341TIP3    H121987   4.952   6.354   1.884  0.7014 -0.4053  1.3174
 7341TIP3    H221988   4.831   6.297   1.953  0.0745  0.4928  0.9736
 7342TIP3   OH221989   5.819   1.403   3.169  0.1651 -0.2700  0.2340
 7342TIP3    H121990   5.900   1.449   3.189 -0.6158  1.1854  0.1979
 7342TIP3    H221991   5.847   1.323   3.124  1.5073  1.0097 -1.3167
 7343TIP3   OH221992   2.823   5.268   4.988  0.6293 -0.5854 -0.1165
 7343TIP3    H121993   2.740   5.239   5.025  0.5360  1.9377  1.9715
 7343TIP3    H221994   2.799   5.337   4.927  1.1285 -0.5650 -0.2958
 7344TIP3   OH221995   5.707   5.261   3.575 -0.5430  0.7053 -0.7379
 7344TIP3    H121996   5.725   5.353   3.595 -0.7143  0.9035 -1.4523
 7344TIP3    H221997   5.619   5.246   3.609 -0.1062  0.5068  0.3167
 7345TIP3   OH221998   5.966   1.007   2.536 -0.6688 -0.1513  0.8906
 7345TIP3    H121999   5.963   1.029   2.629 -0.4185 -0.8967  1.0871
 7345TIP3    H222000   6.056   1.024   2.510  0.1163 -2.7461  1.5503
 7346TIP3   OH222001   3.798   4.497   1.112  0.1342 -0.8109 -0.1723
 7346TIP3    H122002   3.862   4.466   1.048 -0.3778 -2.8385  0.2308
 7346TIP3    H222003   3.734   4.546   1.060  1.5830  0.6675 -0.6743
 7347TIP3   OH222004   1.756   3.529   2.134  0.1857  0.0117 -0.6830
 7347TIP3    H122005   1.846   3.549   2.162  0.2899 -0.5646 -0.5879
 7347TIP3    H222006   1.716   3.615   2.120 -0.4147  0.4834  2.9118
 7348TIP3   OH222007   0.913   2.646   2.264  0.5731 -0.1768 -0.6237
 7348TIP3    H122008   0.944   2.736   2.250 -0.4721  0.0840 -1.4109
 7348TIP3    H222009   0.955   2.596   2.194  0.7000 -0.1862 -0.5406
 7349TIP3   OH222010   0.609   3.593   0.867  0.5573  0.3515  0.6535
 7349TIP3    H122011   0.527   3.600   0.917 -1.3363 -1.8249 -1.8753
 7349TIP3    H222012   0.636   3.502   0.879 -0.6529 -0.6626 -3.0210
 7350TIP3   OH222013   2.958   5.340   0.594  0.5225  0.3516  0.0375
 7350TIP3    H122014   3.037   5.372   0.552 -0.3889  0.9546 -1.2709
 7350TIP3    H222015   2.891   5.343   0.526 -0.1936 -2.0166  0.5312
 7351TIP3   OH222016   1.430   0.743   4.834 -1.0473 -0.0447  0.1535
 7351TIP3    H122017   1.421   0.751   4.929 -1.7258  0.5368  0.0504
 7351TIP3    H222018   1.501   0.681   4.822 -0.9803 -0.1569  1.0446
 7352TIP3   OH222019   6.107   0.298   3.887 -0.3521 -0.1098  0.1616
 7352TIP3    H122020   6.062   0.214   3.892  0.5098 -0.7949 -2.1768
 7352TIP3    H222021   6.105   0.320   3.794  2.3525  0.7928  0.2379
 7353TIP3   OH222022   5.704   3.168   1.441 -0.3889 -0.0050  0.4774
 7353TIP3    H122023   5.712   3.074   1.422 -0.3134  0.0419  0.2752
 7353TIP3    H222024   5.785   3.206   1.409 -1.1029  0.3788 -0.9884
 7354TIP3   OH222025   6.507   3.131   2.555  0.0246  0.2679  0.0082
 7354TIP3    H122026   6.429   3.133   2.611 -0.1215  1.0269 -0.2116
 7354TIP3    H222027   6.550   3.049   2.577 -0.9921 -0.3023 -0.0762
 7355TIP3   OH222028   0.857   4.973   5.081 -0.1808 -0.4642 -0.0077
 7355TIP3    H122029   0.923   5.032   5.043  0.5125 -1.4493 -0.3676
 7355TIP3    H222030   0.886   4.885   5.056 -2.0746 -0.8912 -0.8711
 7356TIP3   OH222031   2.420   4.157   0.633  0.1045  0.1752  0.7804
 7356TIP3    H122032   2.423   4.241   0.679  0.2742 -0.3521  1.7638
 7356TIP3    H222033   2.358   4.105   0.684  0.4278 -0.4886  0.5034
 7357TIP3   OH222034   3.601   5.723   2.052 -0.4361 -0.0633 -1.0958
 7357TIP3    H122035   3.590   5.629   2.070  0.1839  0.3877  2.2066
 7357TIP3    H222036   3.515   5.761   2.072  0.1088  0.3938  0.5038
 7358TIP3   OH222037   4.319   1.781   2.617  0.3254 -0.4905 -0.2612
 7358TIP3    H122038   4.295   1.842   2.547  0.7243 -0.4061 -0.3238
 7358TIP3    H222039   4.237   1.766   2.664  0.3990  0.8269  0.3201
 7359TIP3   OH222040   1.059   4.579   4.802  0.3750 -0.5306  0.3816
 7359TIP3    H122041   1.075   4.494   4.841 -0.7105 -1.2636 -0.6857
 7359TIP3    H222042   0.986   4.616   4.852  0.8095 -0.2488  0.8094
 7360TIP3   OH222043   3.258   5.094   0.268 -0.3663 -0.1735 -0.3128
 7360TIP3    H122044   3.166   5.096   0.242 -0.4996  0.8548  0.1907
 7360TIP3    H222045   3.267   5.015   0.321 -1.1556  0.1433  0.3127
 7361TIP3   OH222046   4.671   2.286   2.348  0.3651 -0.1695  0.4189
 7361TIP3    H122047   4.616   2.345   2.399  0.6821  0.1582  0.3873
 7361TIP3    H222048   4.759   2.299   2.383  0.6070  0.1437 -0.2785
 7362TIP3   OH222049   5.176   2.694   4.738  0.2171 -0.1334  0.3675
 7362TIP3    H122050   5.248   2.643   4.701 -0.0431 -0.7727  0.7093
 7362TIP3    H222051   5.112   2.628   4.766 -1.2377  0.4394 -1.3786
 7363TIP3   OH222052   0.474   4.710   1.147 -0.2761  0.1163 -0.0971
 7363TIP3    H122053   0.538   4.679   1.083 -0.6834 -0.0042 -0.4500
 7363TIP3    H222054   0.390   4.676   1.116 -0.4710 -0.0147  0.5457
 7364TIP3   OH222055   3.837   0.290   0.197 -0.3829  0.2541 -0.4173
 7364TIP3    H122056   3.830   0.317   0.106 -0.8784 -0.7517 -0.6929
 7364TIP3    H222057   3.919   0.241   0.201 -0.8014 -0.4704 -0.5389
 7365TIP3   OH222058   2.370   5.496   0.852 -0.0206 -0.7250 -0.3324
 7365TIP3    H122059   2.451   5.454   0.826  0.1704 -1.8930  1.8729
 7365TIP3    H222060   2.396   5.559   0.920 -0.9137 -0.8999  0.1945
 7366TIP3   OH222061   1.397   2.190  -0.003  0.6152  0.6264 -0.4098
 7366TIP3    H122062   1.350   2.156   0.074 -0.4761  2.6592 -0.0797
 7366TIP3    H222063   1.489   2.176   0.017  0.3600  1.0633  1.2923
 7367TIP3   OH222064   2.292   2.049   1.468  0.4107 -0.2976 -0.2802
 7367TIP3    H122065   2.351   2.015   1.534  1.2055 -1.2724 -1.4678
 7367TIP3    H222066   2.347   2.104   1.413 -0.0834 -0.1092 -0.5908
 7368TIP3   OH222067   0.840   6.127   2.321  0.5643 -0.0283  0.4097
 7368TIP3    H122068   0.848   6.212   2.364 -1.4285 -0.1281  1.0799
 7368TIP3    H222069   0.772   6.139   2.255 -0.4973 -1.3269  1.2074
 7369TIP3   OH222070   5.452   4.586   0.526 -0.7336 -0.3233  0.0525
 7369TIP3    H122071   5.486   4.566   0.439 -0.3344  0.4938  0.0118
 7369TIP3    H222072   5.403   4.508   0.551 -0.4837 -0.7384 -0.7197
 7370TIP3   OH222073   3.389   2.857   3.559  0.3953 -0.0962 -0.2907
 7370TIP3    H122074   3.387   2.946   3.523 -2.2179 -0.0727 -0.3026
 7370TIP3    H222075   3.418   2.802   3.487  0.8444  0.6125 -0.6587
 7371TIP3   OH222076   2.579   4.438   3.242 -0.4018 -0.1496  0.0423
 7371TIP3    H122077   2.511   4.502   3.217  0.0155  0.5169  0.5866
 7371TIP3    H222078   2.572   4.370   3.175 -0.4023  0.7997 -0.9695
 7372TIP3   OH222079   3.157   4.162   3.390 -0.4066  0.1117  0.4463
 7372TIP3    H122080   3.114   4.143   3.306  0.7980  1.6956 -0.5908
 7372TIP3    H222081   3.250   4.151   3.372 -0.1428  0.3669  1.6241
 7373TIP3   OH222082   2.900   4.574   3.430 -0.5450  0.7773 -0.3647
 7373TIP3    H122083   2.937   4.656   3.464 -2.2577  0.1998  3.4351
 7373TIP3    H222084   2.923   4.509   3.496 -0.4818 -1.5769 -2.5747
 7374TIP3   OH222085   2.826   0.117   4.146  0.4256  0.0385 -0.1868
 7374TIP3    H122086   2.886   0.073   4.086  2.3623  1.2288  0.7718
 7374TIP3    H222087   2.739   0.093   4.115  1.3304  0.1165 -3.1071
 7375TIP3   OH222088   6.717   3.395   3.967  0.4182 -0.4424 -0.0403
 7375TIP3    H122089   6.652   3.435   3.909  1.2674 -0.6192 -1.1359
 7375TIP3    H222090   6.797   3.445   3.952  1.0908 -1.5483 -0.2958
 7376TIP3   OH222091   4.335   4.166   5.465 -0.4069 -0.0994 -0.6162
 7376TIP3    H122092   4.342   4.145   5.558 -1.4584 -0.6123 -0.6341
 7376TIP3    H222093   4.244   4.195   5.454 -0.4450 -0.5480 -1.5844
 7377TIP3   OH222094   5.757   1.556   3.876  0.3572 -0.1739  0.0842
 7377TIP3    H122095   5.680   1.504   3.899  1.0162 -0.6993  1.2278
 7377TIP3    H222096   5.733   1.601   3.795 -0.8023 -1.0446 -0.0790
 7378TIP3   OH222097   3.866   1.938   1.387 -0.3395  0.2477 -0.6293
 7378TIP3    H122098   3.787   1.888   1.369 -0.2420 -0.2964  0.4115
 7378TIP3    H222099   3.879   1.931   1.481  0.8570  0.4740 -0.7567
 7379TIP3   OH222100   0.243   0.294   3.793  0.4735  0.0506 -0.8286
 7379TIP3    H122101   0.183   0.246   3.736  0.3020 -1.0328  0.2077
 7379TIP3    H222102   0.240   0.246   3.876  2.0831  0.5085 -0.4692
 7380TIP3   OH222103   1.225   4.350   1.392 -0.1726 -0.4051  0.2232
 7380TIP3    H122104   1.312   4.313   1.381 -0.1928 -0.3605 -0.1225
 7380TIP3    H222105   1.238   4.429   1.445  0.1461  0.1720 -0.6927
 7381TIP3   OH222106   5.142   2.697   3.775  0.2657 -0.2178  0.0630
 7381TIP3    H122107   5.088   2.703   3.697 -0.2238  0.5130  0.4466
 7381TIP3    H222108   5.085   2.657   3.841  0.1220  0.6871  0.5099
 7382TIP3   OH222109   3.343   3.307   0.669 -0.6162 -0.4276  0.1253
 7382TIP3    H122110   3.288   3.238   0.632 -1.2930  0.5369 -0.7259
 7382TIP3    H222111   3.315   3.312   0.761 -0.6273 -1.2089  0.1715
 7383TIP3   OH222112   2.327   4.042   4.909  0.0538 -0.1653 -0.2007
 7383TIP3    H122113   2.385   4.118   4.910 -1.6996  1.2689  2.0417
 7383TIP3    H222114   2.241   4.077   4.931 -0.9549 -2.7188  0.2448
 7384TIP3   OH222115   4.589   2.426   3.337  0.0837  0.0172 -0.3090
 7384TIP3    H122116   4.644   2.486   3.388 -1.0335  0.8664 -0.0724
 7384TIP3    H222117   4.599   2.456   3.247  1.0512 -0.6833 -0.4521
 7385TIP3   OH222118   1.552   4.139   4.718  0.3998 -0.4586 -0.1828
 7385TIP3    H122119   1.645   4.153   4.702  0.6602 -2.1200 -0.2788
 7385TIP3    H222120   1.513   4.134   4.630  0.6573 -2.3558 -0.2093
 7386TIP3   OH222121   3.263   0.605   3.952  0.1008  0.0195 -0.3213
 7386TIP3    H122122   3.329   0.661   3.911  1.2443 -0.8910  0.2229
 7386TIP3    H222123   3.196   0.666   3.983  0.3958  0.9192 -1.3718
 7387TIP3   OH222124   4.417   2.336   1.515 -0.0616 -0.3895  0.6936
 7387TIP3    H122125   4.363   2.259   1.503  0.3243 -0.7154  1.0176
 7387TIP3    H222126   4.496   2.318   1.465 -0.0595 -0.1138  0.5958
 7388TIP3   OH222127   7.184   5.462   0.974  0.2917 -0.3938 -0.4432
 7388TIP3    H122128   7.186   5.531   0.908 -0.2418 -0.8970 -0.9945
 7388TIP3    H222129   7.093   5.432   0.975  0.3947 -0.6938  0.1985
 7389TIP3   OH222130   1.141   0.890   4.533 -0.0557  0.0660 -0.6825
 7389TIP3    H122131   1.165   0.886   4.440 -1.5129 -2.8682 -1.0509
 7389TIP3    H222132   1.050   0.922   4.532 -0.2506 -0.4651 -0.3272
 7390TIP3   OH222133   5.248   6.789   1.614 -0.0226  1.3499  0.0156
 7390TIP3    H122134   5.166   6.742   1.602  1.9014 -1.6880 -3.2112
 7390TIP3    H222135   5.251   6.852   1.542  2.0667 -1.5889 -2.7945
 7391TIP3   OH222136   1.740   2.582   0.348  0.3200 -0.5056  0.1634
 7391TIP3    H122137   1.827   2.620   0.337 -0.0653  0.3770  0.0320
 7391TIP3    H222138   1.740   2.505   0.292  0.5463  0.3046 -0.9885
 7392TIP3   OH222139   3.321   2.995   4.840 -0.4696 -0.4957 -0.0953
 7392TIP3    H122140   3.340   2.909   4.879  0.7537 -0.7956 -1.2831
 7392TIP3    H222141   3.312   3.054   4.915  1.1502 -1.1872  0.6988
 7393TIP3   OH222142   4.335   5.133   2.187 -0.3289 -0.4632  0.6417
 7393TIP3    H122143   4.262   5.194   2.177 -1.1147 -1.4320  0.2893
 7393TIP3    H222144   4.294   5.048   2.204  0.5599 -1.5563 -2.0779
 7394TIP3   OH222145   2.687   1.475   4.025 -0.9431  0.0152  0.4164
 7394TIP3    H122146   2.695   1.461   3.930 -3.6313  0.1867  0.0697
 7394TIP3    H222147   2.619   1.542   4.033 -0.4211  0.3575  2.4813
 7395TIP3   OH222148   5.780   5.394   0.380  0.3494 -0.4214  0.0882
 7395TIP3    H122149   5.773   5.300   0.360  1.2001 -0.1897 -1.4017
 7395TIP3    H222150   5.733   5.437   0.309 -2.9034  0.2587  2.3990
 7396TIP3   OH222151   2.617   5.636   2.600 -0.3353 -0.1962 -0.0492
 7396TIP3    H122152   2.553   5.571   2.629 -1.2850  0.9950  0.6527
 7396TIP3    H222153   2.572   5.720   2.610  0.5569  0.5289 -1.7354
 7397TIP3   OH222154   5.055   2.872   2.735  0.0966 -0.3264  0.0580
 7397TIP3    H122155   5.119   2.897   2.669  0.4879  1.4560  1.0452
 7397TIP3    H222156   5.100   2.889   2.818 -1.7131  1.2069  0.7857
 7398TIP3   OH222157   1.611   5.365   5.348  0.2972  0.1503 -0.1892
 7398TIP3    H122158   1.540   5.345   5.408 -0.3378  0.1464 -0.9215
 7398TIP3    H222159   1.567   5.389   5.266  1.1127  1.1881 -0.3408
 7399TIP3   OH222160   3.921   4.134   1.694  0.2096 -0.5170  0.1964
 7399TIP3    H122161   3.909   4.057   1.639  0.3831  0.0158 -0.6292
 7399TIP3    H222162   3.874   4.204   1.648  0.6693  0.0288  0.5309
 7400TIP3   OH222163   1.425   2.340   2.518  0.3115 -0.4112  0.0570
 7400TIP3    H122164   1.436   2.297   2.433  0.8339 -1.1143  0.4697
 7400TIP3    H222165   1.410   2.432   2.496 -1.1871 -0.8374 -0.8569
 7401TIP3   OH222166   6.143   1.246   1.404 -0.3674 -0.4558  0.3894
 7401TIP3    H122167   6.149   1.331   1.448 -0.4303 -0.7890  1.0492
 7401TIP3    H222168   6.125   1.268   1.312  1.5501  0.2978  0.1579
 7402TIP3   OH222169   2.925   0.735   3.919 -0.2509 -0.1600 -0.4895
 7402TIP3    H122170   2.993   0.690   3.870 -0.1652 -0.8284  0.2203
 7402TIP3    H222171   2.870   0.777   3.852 -0.8389 -2.0163 -1.2419
 7403TIP3   OH222172   2.862   5.474   3.737  0.0440 -0.0892  0.2477
 7403TIP3    H122173   2.947   5.514   3.754  0.6617 -0.7250 -1.1821
 7403TIP3    H222174   2.817   5.477   3.821  1.4309  0.3755  1.0068
 7404TIP3   OH222175   3.684   2.824   0.484 -0.6233  0.0133 -0.1109
 7404TIP3    H122176   3.681   2.729   0.487 -2.0532  0.0135  3.5415
 7404TIP3    H222177   3.611   2.848   0.426 -2.3553 -1.1727  1.4612
 7405TIP3   OH222178   1.692   0.798   5.110 -0.1779  0.0867 -0.4292
 7405TIP3    H122179   1.609   0.752   5.117 -0.7447  0.7076 -2.3096
 7405TIP3    H222180   1.758   0.732   5.131 -1.0065 -1.4100 -2.1977
 7406TIP3   OH222181   2.003   3.427   4.251 -0.8523  0.7069  0.2913
 7406TIP3    H122182   2.070   3.495   4.241  0.2776 -0.3869  0.1646
 7406TIP3    H222183   2.002   3.410   4.345  1.9716 -2.0171 -0.0103
 7407TIP3   OH222184   5.986   2.711   1.243  0.3907  0.1573 -0.2409
 7407TIP3    H122185   6.014   2.625   1.275  0.3173  0.4114  0.5316
 7407TIP3    H222186   6.034   2.724   1.162  0.0450 -0.8225 -0.6173
 7408TIP3   OH222187   1.547   3.614   0.554 -0.9490 -0.2006  0.0614
 7408TIP3    H122188   1.514   3.546   0.495 -2.5364  0.8704 -0.3708
 7408TIP3    H222189   1.468   3.648   0.596  0.0524 -0.1484  1.9580
 7409TIP3   OH222190   6.026   3.752   5.545 -0.8341  0.3367  0.3730
 7409TIP3    H122191   6.047   3.676   5.599  0.0628 -0.1457 -0.6041
 7409TIP3    H222192   5.961   3.801   5.595  1.5760  1.1481  3.0107
 7410TIP3   OH222193   0.688   3.952   0.673 -0.0738 -0.5059  0.1896
 7410TIP3    H122194   0.629   3.877   0.667 -0.5875 -0.0813 -0.1841
 7410TIP3    H222195   0.685   3.977   0.766 -0.5750 -0.4191  0.1539
 7411TIP3   OH222196   1.184   3.931   5.597 -0.1336 -0.4458  0.2705
 7411TIP3    H122197   1.154   3.946   5.508 -1.4376  2.7595  1.0782
 7411TIP3    H222198   1.269   3.975   5.601 -0.6462  0.5356  0.8639
 7412TIP3   OH222199   1.487   0.069   1.168 -0.0084 -0.6377  0.1417
 7412TIP3    H122200   1.497   0.164   1.157  1.4300 -0.9715 -2.1764
 7412TIP3    H222201   1.393   0.055   1.176 -0.3084  0.9248 -0.3773
 7413TIP3   OH222202   3.516   5.137   0.096 -0.5314  0.2385 -0.0931
 7413TIP3    H122203   3.499   5.197   0.169  0.5590  1.6383 -0.9410
 7413TIP3    H222204   3.582   5.182   0.043  0.0349 -1.5591 -0.9814
 7414TIP3   OH222205   5.317   3.468   3.192  0.1582 -0.0608  0.7504
 7414TIP3    H122206   5.278   3.507   3.114  1.7982  1.7800  0.7819
 7414TIP3    H222207   5.408   3.451   3.167 -0.1318 -2.7024  1.1976
 7415TIP3   OH222208   6.071   2.796   2.624 -0.2363  0.0763  0.4663
 7415TIP3    H122209   6.130   2.761   2.691 -0.4064  0.6107  0.9003
 7415TIP3    H222210   6.012   2.723   2.603  0.0938 -0.2272  0.5735
 7416TIP3   OH222211   1.147   3.858   1.725 -0.2458 -0.2316  0.4235
 7416TIP3    H122212   1.092   3.837   1.650 -0.2318 -0.8042  0.5665
 7416TIP3    H222213   1.114   3.802   1.795  2.7284 -3.3656 -0.3964
 7417TIP3   OH222214   5.597   3.431   1.686  0.4208 -0.4081 -0.3405
 7417TIP3    H122215   5.648   3.386   1.754  0.1929 -1.3102 -0.7504
 7417TIP3    H222216   5.535   3.365   1.655 -1.4758  0.8406  0.6034
 7418TIP3   OH222217   5.880   0.267   1.133 -0.1271  0.1492 -0.3097
 7418TIP3    H122218   5.970   0.248   1.105 -0.4442 -0.8356 -0.6754
 7418TIP3    H222219   5.865   0.208   1.206 -0.1241  1.0699  0.4614
 7419TIP3   OH222220   0.390   4.308   4.251  0.6676 -0.0278 -0.2538
 7419TIP3    H122221   0.304   4.270   4.269  0.4822  0.5646  0.1142
 7419TIP3    H222222   0.380   4.352   4.166  1.0725 -1.3583 -1.0277
 7420TIP3   OH222223   3.938   3.721   0.935  0.2351  0.1881  0.0115
 7420TIP3    H122224   3.965   3.715   1.027 -0.5972  0.3824  0.2734
 7420TIP3    H222225   3.860   3.666   0.929  0.7754 -0.5329 -0.7850
 7421TIP3   OH222226   5.579   2.575   1.929  0.1306 -0.0596  0.1476
 7421TIP3    H122227   5.528   2.498   1.956 -0.3405  0.6074  1.2302
 7421TIP3    H222228   5.525   2.617   1.862 -1.6968  1.5860  2.4595
 7422TIP3   OH222229   1.444   2.388   1.937 -0.5426  0.2564  0.0482
 7422TIP3    H122230   1.492   2.470   1.949 -0.9564  0.3829  0.9040
 7422TIP3    H222231   1.390   2.403   1.859 -0.0795  0.5309 -0.2263
 7423TIP3   OH222232   1.007   3.749   4.659  0.3901  0.3891 -0.5894
 7423TIP3    H122233   0.993   3.758   4.565 -0.3094  0.7607 -0.4635
 7423TIP3    H222234   0.940   3.687   4.688  1.0575 -0.2656 -0.4443
 7424TIP3   OH222235   2.717   2.842   2.049  0.1126 -0.0467  0.4460
 7424TIP3    H122236   2.728   2.747   2.047  1.8924  0.1184 -1.6922
 7424TIP3    H222237   2.625   2.857   2.026 -0.1051 -1.2316  0.4991
 7425TIP3   OH222238   4.020   0.472   1.344 -0.0139  0.0003  0.0303
 7425TIP3    H122239   3.935   0.440   1.313 -0.2141 -1.0097  1.4792
 7425TIP3    H222240   4.027   0.437   1.433  1.0501  1.7242  0.6743
 7426TIP3   OH222241   0.179   2.422   3.307  0.6812 -0.0508 -0.4161
 7426TIP3    H122242   0.178   2.393   3.398 -0.2150 -1.0700 -0.7338
 7426TIP3    H222243   0.188   2.518   3.313 -0.0738 -0.0303  0.7707
 7427TIP3   OH222244   5.327   1.662   2.953 -0.9150  0.4341  0.2480
 7427TIP3    H122245   5.286   1.577   2.940 -2.0850  0.7701  1.5498
 7427TIP3    H222246   5.302   1.713   2.876  2.0900 -1.1486 -2.0106
 7428TIP3   OH222247   2.309   5.429   3.129 -0.0148 -0.3641  0.2776
 7428TIP3    H122248   2.218   5.433   3.157 -0.1315  0.0569 -0.1507
 7428TIP3    H222249   2.351   5.371   3.192 -0.4469 -0.0749  0.8339
 7429TIP3   OH222250   6.404   4.473   0.483 -0.4071  0.2680  0.1416
 7429TIP3    H122251   6.414   4.567   0.496  0.3671  0.0038  1.8269
 7429TIP3    H222252   6.339   4.446   0.548 -0.9842 -0.3045 -0.6475
 7430TIP3   OH222253   5.773   5.649   2.989  0.2678 -0.1495  0.1947
 7430TIP3    H122254   5.860   5.690   2.990  0.6986 -1.0249 -0.1191
 7430TIP3    H222255   5.790   5.558   2.965 -0.4611 -1.0139  2.7044
 7431TIP3   OH222256   5.737   1.464   5.409 -0.5769 -0.4994 -0.1134
 7431TIP3    H122257   5.675   1.391   5.415 -3.8382  1.9215 -1.0856
 7431TIP3    H222258   5.800   1.437   5.342 -0.8073 -2.9042  0.5431
 7432TIP3   OH222259   6.984   5.407   4.471  0.3867 -0.3563 -0.5144
 7432TIP3    H122260   6.934   5.470   4.522 -0.6906 -2.3657  1.0921
 7432TIP3    H222261   6.931   5.390   4.394 -1.1110 -1.8368  0.7649
 7433TIP3   OH222262   4.712   2.029   4.883  0.2100  0.2144  0.2342
 7433TIP3    H122263   4.791   1.982   4.909  0.6284  0.7739 -0.0289
 7433TIP3    H222264   4.682   1.984   4.805 -0.2236 -0.5426  0.8217
 7434TIP3   OH222265   4.858   2.750   5.734  0.0429  0.4193  0.6629
 7434TIP3    H122266   4.891   2.706   5.656 -0.7187  2.4003 -0.8558
 7434TIP3    H222267   4.934   2.795   5.771  0.9689 -2.4613  2.5759
 7435TIP3   OH222268   6.688   2.990   5.132  0.3471  0.2526 -0.4651
 7435TIP3    H122269   6.628   3.050   5.177  1.0368  1.1014 -0.6517
 7435TIP3    H222270   6.631   2.933   5.080 -0.2777  1.4161 -1.0927
 7436TIP3   OH222271   4.015   3.972   5.087 -0.0603 -0.1384 -0.1623
 7436TIP3    H122272   3.936   3.918   5.086 -0.7332  0.8239 -1.5201
 7436TIP3    H222273   3.984   4.059   5.112  1.1862 -0.5382  3.2207
 7437TIP3   OH222274   0.970   1.010   1.654  0.2059  0.0200 -0.5759
 7437TIP3    H122275   0.991   1.072   1.723  0.2980 -1.8511  1.1853
 7437TIP3    H222276   1.033   0.939   1.665 -1.0836 -1.2916 -1.2344
 7438TIP3   OH222277   4.584   2.501   4.466  0.4645  0.4670  0.2652
 7438TIP3    H122278   4.666   2.468   4.431  0.3959  0.0910  0.4561
 7438TIP3    H222279   4.516   2.458   4.415  0.3331 -0.8994  1.5303
 7439TIP3   OH222280   5.482   5.524   4.613  0.5172 -0.2233  0.1784
 7439TIP3    H122281   5.509   5.491   4.527  0.7182 -1.0360  0.5494
 7439TIP3    H222282   5.405   5.578   4.594 -1.5476 -3.0608 -0.1928
 7440TIP3   OH222283   1.775   4.636   5.700 -0.2686  0.2364  0.7471
 7440TIP3    H122284   1.775   4.728   5.725  1.5508  1.0584 -1.8275
 7440TIP3    H222285   1.845   4.629   5.635 -0.1051 -3.0620  1.1048
 7441TIP3   OH222286   4.630   1.790   3.233 -0.3408 -0.0854 -0.2786
 7441TIP3    H122287   4.625   1.884   3.217  1.8591 -0.0795 -1.2919
 7441TIP3    H222288   4.676   1.781   3.316  1.4531 -0.2201 -1.2291
 7442TIP3   OH222289   4.169   2.866   2.639 -0.0445 -0.1297  0.3107
 7442TIP3    H122290   4.225   2.930   2.595  1.5971 -1.8659 -0.2728
 7442TIP3    H222291   4.102   2.844   2.574 -1.1042  1.4846  0.7863
 7443TIP3   OH222292   2.682   4.045   4.615  0.3779  0.0085 -0.0076
 7443TIP3    H122293   2.588   4.058   4.599 -0.3148 -3.4178  0.5379
 7443TIP3    H222294   2.720   4.037   4.527  0.1752  1.2644 -0.2293
 7444TIP3   OH222295   2.412   4.353   4.372  0.1430  0.0856  0.5943
 7444TIP3    H122296   2.420   4.393   4.286  2.5277 -3.0579 -0.8529
 7444TIP3    H222297   2.326   4.382   4.404 -0.6120  1.8040 -2.5703
 7445TIP3   OH222298   6.082   5.506   0.269 -0.0758 -0.5565 -0.1844
 7445TIP3    H122299   6.061   5.530   0.178  0.9909 -1.8735 -0.8123
 7445TIP3    H222300   6.020   5.556   0.322 -0.0852  0.9994 -1.5796
 7446TIP3   OH222301   3.961   2.534   3.165  0.0990  0.1099  0.2649
 7446TIP3    H122302   3.979   2.623   3.134 -0.4571  0.0802 -0.1514
 7446TIP3    H222303   4.044   2.488   3.155 -0.0455  0.1277 -1.1021
 7447TIP3   OH222304   4.776   0.136   1.024  0.1698 -0.5796  0.4768
 7447TIP3    H122305   4.788   0.219   1.069 -2.3414 -0.6058  1.4013
 7447TIP3    H222306   4.737   0.160   0.939 -1.1392 -0.7716  0.9908
 7448TIP3   OH222307   6.009   2.521   1.782  0.8420 -0.1718  0.0161
 7448TIP3    H122308   5.957   2.575   1.722 -0.7260  0.0707  1.5007
 7448TIP3    H222309   6.096   2.560   1.779  0.5208  0.5169 -1.2474
 7449TIP3   OH222310   1.071   1.498   2.416 -0.0757 -0.0436 -0.5277
 7449TIP3    H122311   1.002   1.473   2.477 -0.1008  2.1606  0.4337
 7449TIP3    H222312   1.097   1.586   2.443  1.5933  0.0636 -2.2306
 7450TIP3   OH222313   0.139   5.106   1.527  0.3617 -0.3767  0.3311
 7450TIP3    H122314   0.105   5.046   1.461  0.3329  0.0218 -0.0142
 7450TIP3    H222315   0.231   5.081   1.536 -0.0207 -1.5433  1.3607
 7451TIP3   OH222316   2.783   2.779   5.188  0.7214  0.3591  0.7100
 7451TIP3    H122317   2.717   2.710   5.178  2.3783 -1.2857  0.2751
 7451TIP3    H222318   2.776   2.807   5.279 -1.4555  1.2428  0.3198
 7452TIP3   OH222319   4.213   6.182   3.788 -0.2796 -0.5077  0.0112
 7452TIP3    H122320   4.162   6.149   3.862 -1.0432  1.1921  0.2864
 7452TIP3    H222321   4.219   6.276   3.802  0.9427 -0.3564 -1.2671
 7453TIP3   OH222322   0.379   5.113   3.201 -0.4232 -0.0626  0.0193
 7453TIP3    H122323   0.456   5.122   3.145  0.3689 -0.1895  1.0515
 7453TIP3    H222324   0.351   5.022   3.188  0.9102 -0.6954  1.2086
 7454TIP3   OH222325   1.119   2.979   5.169 -0.0628 -0.2881  0.0568
 7454TIP3    H122326   1.185   2.943   5.229  0.6854  0.4617 -0.2970
 7454TIP3    H222327   1.040   2.928   5.187  0.1545 -0.1071  1.6540
 7455TIP3   OH222328   4.554   4.884   2.815 -0.7100 -0.0882  0.3127
 7455TIP3    H122329   4.576   4.823   2.744 -2.6152  0.6423 -0.9875
 7455TIP3    H222330   4.489   4.839   2.868  1.5759 -1.1195  2.4496
 7456TIP3   OH222331   5.145   2.435   0.663  0.2090  0.2717  0.4779
 7456TIP3    H122332   5.065   2.486   0.677 -0.0845 -0.3770  1.2242
 7456TIP3    H222333   5.133   2.396   0.577  0.7038  1.9078 -0.3882
 7457TIP3   OH222334   4.501   2.187   3.425  0.1115  0.0781  0.6039
 7457TIP3    H122335   4.535   2.272   3.396 -0.1690 -0.0864 -0.2272
 7457TIP3    H222336   4.411   2.184   3.392  0.2391 -0.6990  0.3036
 7458TIP3   OH222337   6.807  -0.020   2.922  0.3457 -0.1648  0.0256
 7458TIP3    H122338   6.809   0.063   2.875 -1.6661 -0.0454  0.0820
 7458TIP3    H222339   6.728  -0.016   2.975  0.8088 -1.6756  0.8950
 7459TIP3   OH222340   6.817   6.235   5.104  0.9359  0.1248 -0.2086
 7459TIP3    H122341   6.727   6.203   5.114  1.2226 -1.0843 -1.3454
 7459TIP3    H222342   6.859   6.216   5.188  0.4956 -0.5102 -0.1299
 7460TIP3   OH222343   0.826   1.302   1.639 -0.3474 -0.0808  0.0391
 7460TIP3    H122344   0.920   1.289   1.636 -0.3733 -0.3389  0.2731
 7460TIP3    H222345   0.814   1.394   1.617 -0.2983 -0.7843 -3.5116
 7461TIP3   OH222346   6.020   1.419   2.000 -0.3382 -0.1440  0.0156
 7461TIP3    H122347   6.039   1.332   2.034  0.0668  0.1972  0.6894
 7461TIP3    H222348   5.926   1.430   2.013 -0.7130 -1.1129 -1.6047
 7462TIP3   OH222349   5.899   4.389   5.511  0.2326  0.2838  0.0974
 7462TIP3    H122350   5.839   4.324   5.475 -0.2140  0.7825 -0.0576
 7462TIP3    H222351   5.843   4.462   5.538  0.7572  0.7221  0.0207
 7463TIP3   OH222352   2.376   1.139   4.241 -0.2344 -0.4483 -0.0158
 7463TIP3    H122353   2.448   1.153   4.180  0.2736 -1.1267  0.4133
 7463TIP3    H222354   2.386   1.048   4.270  0.1308  0.1414  1.8256
 7464TIP3   OH222355   2.230   1.876   3.034  0.2915 -0.0343 -0.0485
 7464TIP3    H122356   2.283   1.945   2.994  1.2418 -0.3370  0.6654
 7464TIP3    H222357   2.276   1.853   3.114 -0.6278 -0.7041  0.3113
 7465TIP3   OH222358   4.668   1.799   0.553  0.4710  0.3703 -0.8430
 7465TIP3    H122359   4.664   1.709   0.584 -3.1747  0.8288  0.5837
 7465TIP3    H222360   4.646   1.794   0.460 -1.3046 -0.1764 -0.4316
 7466TIP3   OH222361   7.149   2.207   0.359  0.1327  0.2807  0.0633
 7466TIP3    H122362   7.184   2.117   0.359  0.8465  0.5470 -0.3728
 7466TIP3    H222363   7.059   2.198   0.328  0.2629 -0.2725 -0.1722
 7467TIP3   OH222364   2.569   1.605   5.390  0.0782 -0.4562 -0.0969
 7467TIP3    H122365   2.632   1.657   5.441 -0.4463 -0.8079  0.9386
 7467TIP3    H222366   2.534   1.542   5.453 -1.1295 -0.4251 -0.7175
 7468TIP3   OH222367   5.277   1.114   2.874  0.1640  0.6700 -0.1840
 7468TIP3    H122368   5.269   1.080   2.963  1.9751 -0.1815 -0.3120
 7468TIP3    H222369   5.312   1.041   2.823  0.3565  1.5263 -1.3171
 7469TIP3   OH222370   6.912   3.227   0.864  0.7590  0.1687 -0.5175
 7469TIP3    H122371   6.922   3.218   0.769 -1.6728  3.1707 -1.2398
 7469TIP3    H222372   6.962   3.306   0.886 -2.4387  2.3211 -0.3251
 7470TIP3   OH222373   3.486   0.958   3.657 -0.6402 -0.5240 -0.3490
 7470TIP3    H122374   3.546   1.032   3.646 -0.6504 -0.5447 -0.5406
 7470TIP3    H222375   3.411   0.996   3.703 -1.4567  0.0143 -2.0342
 7471TIP3   OH222376   3.125   3.064   1.772  0.7422  0.5141  0.1051
 7471TIP3    H122377   3.136   3.014   1.853  1.5631 -0.5712 -0.6508
 7471TIP3    H222378   3.100   2.999   1.706  2.6497  0.9018 -1.0976
 7472TIP3   OH222379   4.961   3.620   4.937  1.4202 -0.7911 -0.5217
 7472TIP3    H122380   4.871   3.617   4.970 -0.2813  0.5124 -4.4811
 7472TIP3    H222381   4.980   3.713   4.926  1.7487 -1.0899 -3.1484
 7473TIP3   OH222382   4.069   0.846   5.302  0.0156 -0.2440  0.4536
 7473TIP3    H122383   4.000   0.885   5.250 -0.1272 -0.6365  0.3434
 7473TIP3    H222384   4.087   0.910   5.371 -0.4145 -0.1159  0.4462
 7474TIP3   OH222385   0.261   3.851   2.243 -0.2048  0.7326  0.3934
 7474TIP3    H122386   0.354   3.840   2.221 -0.1024  2.3401 -0.1046
 7474TIP3    H222387   0.236   3.768   2.283  1.4032  0.2048  0.3783
 7475TIP3   OH222388   5.878   4.990   5.440 -0.0471  0.0949 -0.1232
 7475TIP3    H122389   5.858   5.079   5.409  1.3799  0.3058 -0.5277
 7475TIP3    H222390   5.891   4.940   5.359  2.0504  0.2480  0.0602
 7476TIP3   OH222391   6.527   5.671   3.084  0.0219 -0.0789  0.6678
 7476TIP3    H122392   6.595   5.616   3.123 -0.2523 -1.5987 -0.8911
 7476TIP3    H222393   6.497   5.622   3.008 -1.2724  1.5900  0.0397
 7477TIP3   OH222394   1.137   0.679   4.059 -0.1326 -0.3114 -0.5363
 7477TIP3    H122395   1.156   0.750   4.120 -0.2116 -0.2501 -0.5827
 7477TIP3    H222396   1.183   0.603   4.096 -0.0367 -0.2339 -0.4937
 7478TIP3   OH222397   4.817   1.410   3.832 -0.3863 -0.1720 -0.5517
 7478TIP3    H122398   4.773   1.444   3.754 -2.7539 -0.9067  0.3959
 7478TIP3    H222399   4.796   1.474   3.901  0.1733 -0.4667 -0.0987
 7479TIP3   OH222400   1.749   4.600   0.681  0.2142  0.4838  0.6069
 7479TIP3    H122401   1.689   4.656   0.632  0.5666  0.0391 -0.3571
 7479TIP3    H222402   1.817   4.660   0.712  0.0722  0.7493  0.4070
 7480TIP3   OH222403   1.036   5.935   2.729  0.1123  0.4131 -0.0311
 7480TIP3    H122404   0.975   5.951   2.657 -1.4277 -1.6974  0.7019
 7480TIP3    H222405   0.980   5.922   2.806  1.7021  3.6811  1.9319
 7481TIP3   OH222406   7.198   0.784   5.196 -0.0554  0.1466 -0.1793
 7481TIP3    H122407   7.137   0.849   5.230 -0.5663 -0.5508  0.2886
 7481TIP3    H222408   7.282   0.808   5.235 -0.2790  0.4122  0.1506
 7482TIP3   OH222409   2.987   5.232   2.021  0.2013  0.3486  0.2605
 7482TIP3    H122410   3.057   5.257   1.959 -0.1753  0.2502 -0.2115
 7482TIP3    H222411   3.010   5.277   2.102 -0.4468  2.2195 -0.5508
 7483TIP3   OH222412   4.004   4.119   1.093 -0.2139 -0.3432  0.0003
 7483TIP3    H122413   4.040   4.084   1.011 -0.2316 -0.5966  0.1025
 7483TIP3    H222414   3.981   4.042   1.144 -1.3781 -0.1849 -0.2643
 7484TIP3   OH222415   0.961   4.478   4.568 -0.7113  0.0863  0.3284
 7484TIP3    H122416   1.025   4.517   4.628  0.6980 -4.3874  2.1170
 7484TIP3    H222417   0.876   4.504   4.603  0.1097  0.8864  1.8251
 7485TIP3   OH222418   2.016   4.105   3.799 -0.4528 -0.8655 -0.1744
 7485TIP3    H122419   2.098   4.129   3.842 -1.0140  0.4160  0.2569
 7485TIP3    H222420   1.977   4.040   3.857  0.2729 -1.5205 -0.4098
 7486TIP3   OH222421   5.165   2.407   5.384  0.0046 -0.2421  0.1284
 7486TIP3    H122422   5.205   2.489   5.357 -0.8269 -0.1213 -0.8015
 7486TIP3    H222423   5.109   2.382   5.310  1.4804 -2.4966 -0.3425
 7487TIP3   OH222424   2.197   3.878   3.841  0.0137 -0.5511 -0.6047
 7487TIP3    H122425   2.205   3.786   3.868  2.3543  0.1750  1.5213
 7487TIP3    H222426   2.286   3.905   3.821 -0.5127  1.5025 -0.4131
 7488TIP3   OH222427   7.072   2.112   3.024 -0.1984  0.0531 -0.4188
 7488TIP3    H122428   7.009   2.105   2.952 -0.3767 -0.0315 -0.2533
 7488TIP3    H222429   7.018   2.120   3.102 -0.0105  0.9659 -0.3704
 7489TIP3   OH222430   5.897   6.786   1.583  0.0150 -0.2723 -0.2142
 7489TIP3    H122431   5.925   6.707   1.536  0.6080 -1.1259  1.4961
 7489TIP3    H222432   5.855   6.753   1.662  1.9650  1.0868  1.4887
 7490TIP3   OH222433   7.102   0.619   2.079  0.7454 -0.4191 -0.1967
 7490TIP3    H122434   7.178   0.583   2.125  0.0147  0.3463  1.6818
 7490TIP3    H222435   7.054   0.542   2.049  2.1971 -0.9194 -1.3855
 7491TIP3   OH222436   5.264   5.749   1.268  0.1159 -0.1851  0.3940
 7491TIP3    H122437   5.231   5.822   1.320 -0.8375  0.6883 -1.3548
 7491TIP3    H222438   5.258   5.673   1.326  0.0060  0.8984  1.8471
 7492TIP3   OH222439   5.337   5.004   0.679  0.0148 -0.0175 -0.3417
 7492TIP3    H122440   5.346   4.969   0.590 -1.0918  0.6974 -0.7573
 7492TIP3    H222441   5.400   5.077   0.682 -0.6274  0.5750 -0.8845
 7493TIP3   OH222442   5.558   0.071   2.685  0.3458  0.3113  0.8202
 7493TIP3    H122443   5.632   0.131   2.683  1.7981 -1.4197  1.0620
 7493TIP3    H222444   5.507   0.093   2.607  0.9343  1.7178  0.8065
 7494TIP3   OH222445   0.080   0.724   0.547  0.0556  0.7804 -0.4146
 7494TIP3    H122446   0.105   0.634   0.566 -0.8254  0.6971  0.4231
 7494TIP3    H222447   0.131   0.747   0.469  0.5129 -0.3328 -0.4626
 7495TIP3   OH222448   1.545   4.894   5.094  0.0756  0.5086  0.2229
 7495TIP3    H122449   1.585   4.904   5.007 -0.2155  0.3097  0.0624
 7495TIP3    H222450   1.593   4.955   5.150  0.5008  0.3801  0.0011
 7496TIP3   OH222451   2.117   1.486   5.059 -0.1199  0.6847  0.3222
 7496TIP3    H122452   2.069   1.406   5.038  0.6281 -0.0135  1.1617
 7496TIP3    H222453   2.052   1.544   5.098 -0.7509  0.6396 -0.6339
 7497TIP3   OH222454   1.897   6.578   2.422 -0.1080 -0.2061 -0.0127
 7497TIP3    H122455   1.951   6.614   2.493 -0.2726  0.4133 -0.1923
 7497TIP3    H222456   1.957   6.523   2.372  0.5231  0.9303 -0.5447
 7498TIP3   OH222457   2.481   6.597   3.135  0.1045  0.1456 -0.1281
 7498TIP3    H122458   2.458   6.680   3.178 -0.8916 -0.3691  0.3856
 7498TIP3    H222459   2.403   6.543   3.146  0.4085 -0.5540 -1.2443
 7499TIP3   OH222460   4.638   1.696   3.985 -0.9305 -0.1112  0.4564
 7499TIP3    H122461   4.650   1.629   4.053 -0.4079 -1.7771 -1.2209
 7499TIP3    H222462   4.600   1.649   3.911 -0.5940  1.4723 -0.7610
 7500TIP3   OH222463   5.314   0.243   3.977 -0.0601  0.1296  0.0165
 7500TIP3    H122464   5.370   0.286   4.041  0.2586  0.4397 -0.4672
 7500TIP3    H222465   5.349   0.269   3.892 -2.1579  2.0107 -0.3509
 7501TIP3   OH222466   3.058   3.796   2.479  0.1404 -0.1760  0.3847
 7501TIP3    H122467   3.005   3.733   2.527  0.2518 -1.3323 -0.9473
 7501TIP3    H222468   2.997   3.865   2.454 -0.4272 -0.7653  0.1222
 7502TIP3   OH222469   4.618   6.034   3.796  0.0174 -0.5062  0.0961
 7502TIP3    H122470   4.713   6.038   3.785  0.0387 -2.3746 -0.7446
 7502TIP3    H222471   4.584   6.103   3.740  0.8059 -0.9869 -1.0041
 7503TIP3   OH222472   2.146   0.776   4.208 -0.1726 -0.1816 -0.1494
 7503TIP3    H122473   2.065   0.801   4.165 -2.4254 -2.1630  2.5167
 7503TIP3    H222474   2.160   0.685   4.182  0.0868 -0.4521  0.8590
 7504TIP3   OH222475   2.483   1.834   0.137  0.3371 -0.5477 -0.0950
 7504TIP3    H122476   2.502   1.768   0.070  1.8906  0.0318 -0.2626
 7504TIP3    H222477   2.394   1.862   0.118  1.2390  0.7974 -3.0412
 7505TIP3   OH222478   4.995   2.155   4.726  0.2610 -0.0199 -1.1350
 7505TIP3    H122479   4.966   2.109   4.805  1.1011  2.5814  0.8276
 7505TIP3    H222480   5.088   2.134   4.720  0.0126 -0.9599 -2.0476
 7506TIP3   OH222481   1.728   1.888   3.186 -0.0866  0.0456 -0.5214
 7506TIP3    H122482   1.727   1.849   3.098 -0.4224 -0.1712 -0.4244
 7506TIP3    H222483   1.655   1.846   3.231  1.0033 -0.9902  0.3509
 7507TIP3   OH222484   2.326   6.479   1.128 -0.0240 -0.7811 -0.0433
 7507TIP3    H122485   2.321   6.484   1.224 -0.2501  0.9233 -0.0991
 7507TIP3    H222486   2.390   6.546   1.104  0.0643 -1.2191 -1.0809
 7508TIP3   OH222487   4.869   3.871   2.671 -0.0950  0.5128 -0.1817
 7508TIP3    H122488   4.874   3.950   2.724 -0.4492  0.0255  0.5857
 7508TIP3    H222489   4.930   3.887   2.599  1.0138  0.8629  0.8033
 7509TIP3   OH222490   5.451   4.160   1.369 -0.6122 -0.2972 -0.1270
 7509TIP3    H122491   5.422   4.084   1.419 -1.2103  0.3451  0.5419
 7509TIP3    H222492   5.514   4.203   1.426  1.8852 -1.7554 -1.6223
 7510TIP3   OH222493   3.396   5.996   2.629  0.0130 -0.3337  0.2708
 7510TIP3    H122494   3.402   5.994   2.724 -2.4426 -0.2506  0.4815
 7510TIP3    H222495   3.366   6.084   2.608  2.0466  0.1784 -0.7559
 7511TIP3   OH222496   5.976   1.526   5.859  0.3413 -0.1247  0.2075
 7511TIP3    H122497   6.015   1.461   5.918  2.2288  0.7180 -0.0391
 7511TIP3    H222498   5.977   1.485   5.773 -1.4648 -0.9562  0.5300
 7512TIP3   OH222499   6.889   0.117   5.305 -0.0397  0.0739  0.3810
 7512TIP3    H122500   6.825   0.133   5.236 -0.2791 -2.1798 -0.0045
 7512TIP3    H222501   6.853   0.163   5.382 -0.3461  1.6562 -0.6689
 7513TIP3   OH222502   4.068   3.015   1.967  0.6662 -0.2832  0.2863
 7513TIP3    H122503   4.152   2.993   1.926 -0.3976 -2.3490 -0.9480
 7513TIP3    H222504   4.012   3.039   1.894 -0.1525 -0.1164  0.9619
 7514TIP3   OH222505   2.226   4.980   5.745 -0.0892  0.4115 -0.3687
 7514TIP3    H122506   2.181   5.049   5.793 -0.9304 -1.0649  1.0609
 7514TIP3    H222507   2.305   5.022   5.712  0.0048  1.7712  1.4114
 7515TIP3   OH222508   4.462   2.225   0.357 -0.6731 -0.0088  0.1972
 7515TIP3    H122509   4.367   2.219   0.342 -0.7944  0.2533  0.8355
 7515TIP3    H222510   4.471   2.291   0.426  0.0218  0.4419 -0.3169
 7516TIP3   OH222511   0.399   4.160   5.116  0.1042  0.1414  0.0872
 7516TIP3    H122512   0.442   4.074   5.124 -0.0315 -0.1729 -1.9709
 7516TIP3    H222513   0.309   4.144   5.146  0.4028 -0.1196  0.8718
 7517TIP3   OH222514   3.801   3.135   0.235  0.1222 -0.3887 -0.0446
 7517TIP3    H122515   3.871   3.188   0.195 -1.5934  0.6304 -1.8936
 7517TIP3    H222516   3.841   3.049   0.247  1.5445 -0.0063 -1.6013
 7518TIP3   OH222517   0.456   3.189   5.512 -0.3783  0.1855  0.6288
 7518TIP3    H122518   0.413   3.128   5.452  0.5091 -0.2939  0.4612
 7518TIP3    H222519   0.544   3.153   5.523  0.8494  2.4323 -1.0029
 7519TIP3   OH222520   0.203   0.461   0.512  0.2057  0.2279 -0.1124
 7519TIP3    H122521   0.269   0.480   0.446  0.2909 -2.7638 -0.9976
 7519TIP3    H222522   0.252   0.435   0.590  0.0592  0.7320  0.1590
 7520TIP3   OH222523   1.810   6.535   5.341 -0.0304 -0.6547  0.3000
 7520TIP3    H122524   1.791   6.500   5.428 -1.3509 -1.5960 -0.3390
 7520TIP3    H222525   1.896   6.500   5.319  0.4965 -0.0868  1.3660
 7521TIP3   OH222526   2.275   0.907   0.704 -0.3460 -0.4355  0.1240
 7521TIP3    H122527   2.202   0.860   0.662 -0.2227 -0.2254 -0.3390
 7521TIP3    H222528   2.309   0.963   0.634 -1.0870  1.0425  0.9186
 7522TIP3   OH222529   1.494   4.828   5.810 -0.3190  0.4723 -0.2586
 7522TIP3    H122530   1.560   4.799   5.873 -0.6603  1.6740  0.6856
 7522TIP3    H222531   1.414   4.836   5.862 -0.2432  3.0858 -0.4417
 7523TIP3   OH222532   4.953   4.322   4.799  0.4199  0.4638 -0.3973
 7523TIP3    H122533   4.897   4.380   4.747 -0.2337  0.0150 -0.2154
 7523TIP3    H222534   4.966   4.245   4.743  0.5068  0.3931 -0.2797
 7524TIP3   OH222535   1.733   6.733   4.882 -0.4161  0.0138 -0.5842
 7524TIP3    H122536   1.793   6.764   4.814  0.5675  1.7149  0.9553
 7524TIP3    H222537   1.686   6.812   4.910 -0.5417 -0.5529  0.9272
 7525TIP3   OH222538   3.898   4.397   2.983 -0.1074  0.2566 -0.0410
 7525TIP3    H122539   3.856   4.390   3.069 -1.6134 -1.2646 -0.8455
 7525TIP3    H222540   3.893   4.309   2.946 -0.7486  1.1514 -2.2610
 7526TIP3   OH222541   0.457   5.543   4.933  0.1014  0.0136 -0.0719
 7526TIP3    H122542   0.397   5.482   4.976  1.7295 -0.7161  1.2827
 7526TIP3    H222543   0.403   5.588   4.868 -1.6374 -1.3711  0.3319
 7527TIP3   OH222544   2.333   6.150   3.093  0.0038 -0.0402  0.3106
 7527TIP3    H122545   2.424   6.135   3.065 -0.5927  1.1264 -2.6032
 7527TIP3    H222546   2.341   6.190   3.179  2.5170  2.6649 -0.9801
 7528TIP3   OH222547   4.935   4.455   0.642  0.3837 -0.9424  0.2118
 7528TIP3    H122548   4.938   4.359   0.642  0.3876 -0.9457  0.5527
 7528TIP3    H222549   5.004   4.480   0.703  0.3417 -0.7234  0.1688
 7529TIP3   OH222550   1.037   5.439   5.832 -1.4287  0.2642  0.1938
 7529TIP3    H122551   1.048   5.490   5.752  2.4583  0.9881  0.9816
 7529TIP3    H222552   1.107   5.374   5.829 -2.6050 -1.2108  1.9903
 7530TIP3   OH222553   5.779   2.002   5.135 -0.4673 -0.0203 -0.0149
 7530TIP3    H122554   5.761   1.909   5.122  0.0225 -0.1816  0.4122
 7530TIP3    H222555   5.873   2.006   5.153 -0.4309  0.5876 -0.3031
 7531TIP3   OH222556   5.024   1.954   2.818  0.0539  0.3749 -0.4668
 7531TIP3    H122557   5.043   2.044   2.844  0.2232  0.3485 -0.5018
 7531TIP3    H222558   4.929   1.952   2.807  0.1974  0.9544 -1.9915
 7532TIP3   OH222559   2.104   4.488   0.076  0.2089  0.5808 -0.0545
 7532TIP3    H122560   2.077   4.562   0.022  0.0238  0.0656 -0.6886
 7532TIP3    H222561   2.030   4.473   0.135  0.0886  0.6576 -0.1856
 7533TIP3   OH222562   0.066   1.583   2.052 -0.3176 -0.3031 -0.2598
 7533TIP3    H122563   0.017   1.629   1.984  0.5931  0.7508 -0.2231
 7533TIP3    H222564   0.014   1.593   2.131  0.5055  1.8815  0.0618
 7534TIP3   OH222565   4.478   3.371   0.926  0.6115  0.2490  0.5097
 7534TIP3    H122566   4.414   3.320   0.876  0.1522  1.6135 -0.3699
 7534TIP3    H222567   4.563   3.332   0.904  0.1294 -1.4834  1.5656
 7535TIP3   OH222568   0.911   0.645   3.697 -0.1876 -0.2391  0.5883
 7535TIP3    H122569   0.878   0.730   3.669  0.3586 -0.2193 -0.0367
 7535TIP3    H222570   0.890   0.639   3.790  0.4842  0.9244  0.8304
 7536TIP3   OH222571   6.096   2.373   5.867  0.1285  0.0286 -0.1455
 7536TIP3    H122572   6.084   2.371   5.962 -0.0005 -1.1220 -0.1640
 7536TIP3    H222573   6.163   2.439   5.852  2.5021 -1.9493  1.0364
 7537TIP3   OH222574   1.066   3.896   2.752  0.3379 -0.5927  0.1084
 7537TIP3    H122575   1.065   3.860   2.841  0.7516  0.6471  0.6422
 7537TIP3    H222576   1.157   3.919   2.737 -0.0066  0.8791  0.0929
 7538TIP3   OH222577   1.248   6.323   1.249 -0.2265  0.8666 -0.1865
 7538TIP3    H122578   1.246   6.287   1.338  0.7623  2.4283  0.5142
 7538TIP3    H222579   1.209   6.254   1.194 -2.4230  0.5308  1.6578
 7539TIP3   OH222580   4.275   5.170   5.062  0.2348 -0.2534 -0.1808
 7539TIP3    H122581   4.347   5.221   5.100 -0.0614  0.1479 -0.1568
 7539TIP3    H222582   4.311   5.134   4.982  0.5014 -0.1499 -0.1090
 7540TIP3   OH222583   3.460   0.178   2.305  0.1775 -0.4698  0.1391
 7540TIP3    H122584   3.438   0.268   2.283 -1.6564 -0.8289  0.3236
 7540TIP3    H222585   3.536   0.185   2.363 -0.5132  1.0187  0.9067
 7541TIP3   OH222586   6.881   2.111   5.191  0.3979  0.7150  0.3142
 7541TIP3    H122587   6.866   2.137   5.100  3.2627  2.7607  0.3014
 7541TIP3    H222588   6.794   2.113   5.231 -0.6708  1.7827 -1.8870
 7542TIP3   OH222589   6.624   2.530   1.264 -0.0882  0.2707  0.2626
 7542TIP3    H122590   6.663   2.511   1.179  0.8220  2.0918  0.2325
 7542TIP3    H222591   6.658   2.616   1.287  0.0281 -0.3501  2.6687
 7543TIP3   OH222592   5.524   5.987   1.880 -0.5552  0.0697 -0.1048
 7543TIP3    H122593   5.555   6.075   1.905  0.9825 -0.4179 -0.1567
 7543TIP3    H222594   5.523   5.987   1.785  2.6814 -0.9232 -0.2566
 7544TIP3   OH222595   2.546   2.275   0.319 -0.3878 -0.0572 -0.8011
 7544TIP3    H122596   2.464   2.228   0.330 -0.7841  0.5004 -1.3470
 7544TIP3    H222597   2.596   2.256   0.399 -1.8261  1.1867  0.4456
 7545TIP3   OH222598   3.615   3.265   0.688  0.0330  0.0180 -0.4591
 7545TIP3    H122599   3.545   3.326   0.666 -0.1844 -0.0651 -0.0003
 7545TIP3    H222600   3.580   3.179   0.666 -0.3500 -0.1062  0.6042
 7546TIP3   OH222601   4.479   1.512   0.511 -0.5512  0.2690  0.4769
 7546TIP3    H122602   4.486   1.585   0.449  1.0145  1.8174  2.3613
 7546TIP3    H222603   4.389   1.482   0.503 -0.6426  0.9853 -1.8643
 7547TIP3   OH222604   1.840   0.521   3.187  0.3759  0.3630  0.4349
 7547TIP3    H122605   1.900   0.467   3.136 -0.4844  1.4382 -1.8897
 7547TIP3    H222606   1.840   0.605   3.141 -2.3698  0.6058  0.7204
 7548TIP3   OH222607   0.802   0.202   0.246 -0.2524 -0.2321 -0.1226
 7548TIP3    H122608   0.843   0.287   0.236  2.2864 -0.8280  3.2780
 7548TIP3    H222609   0.827   0.153   0.168  2.0845  0.7806 -0.0643
 7549TIP3   OH222610   0.400   2.745   3.032 -0.2007 -0.0451 -0.2139
 7549TIP3    H122611   0.485   2.715   3.064  0.2682  0.2699 -1.1234
 7549TIP3    H222612   0.418   2.780   2.944 -1.1780  0.4946 -0.2173
 7550TIP3   OH222613   6.888   2.930   4.249  0.5206  0.0490 -0.0455
 7550TIP3    H122614   6.859   2.851   4.293 -0.1453  1.9176  3.1969
 7550TIP3    H222615   6.809   2.984   4.241  1.4075  1.5083  0.5106
 7551TIP3   OH222616   5.858   4.281   1.201 -0.1337 -0.0195  0.5662
 7551TIP3    H122617   5.856   4.301   1.107 -1.2909  0.6670  0.7228
 7551TIP3    H222618   5.802   4.204   1.211 -4.5293  2.9253  1.3005
 7552TIP3   OH222619   5.334   2.437   5.101  0.1720 -0.3321  0.0664
 7552TIP3    H122620   5.373   2.520   5.126 -0.6792  0.2201 -0.3770
 7552TIP3    H222621   5.243   2.442   5.131 -0.4450 -0.2738 -1.6795
 7553TIP3   OH222622   5.761   3.016   5.031  0.3285  0.9636  0.1158
 7553TIP3    H122623   5.690   2.955   5.050  0.8184  0.9357  2.2087
 7553TIP3    H222624   5.823   2.966   4.978  0.4641 -0.2163  1.3388
 7554TIP3   OH222625   0.340   1.803   4.148 -0.4999 -0.0565  0.0836
 7554TIP3    H122626   0.252   1.782   4.116 -0.1328  0.1541 -1.1171
 7554TIP3    H222627   0.340   1.898   4.160 -0.3942 -0.0357 -0.0714
 7555TIP3   OH222628   6.627   5.131   5.555 -1.0635  0.2208 -0.5243
 7555TIP3    H122629   6.552   5.177   5.518 -0.9437  1.4340  0.6517
 7555TIP3    H222630   6.704   5.170   5.513 -1.0315 -0.1582 -0.8245
 7556TIP3   OH222631   1.043   3.377   3.939 -0.4842  0.6110 -0.2630
 7556TIP3    H122632   1.104   3.428   3.994  0.0965 -2.2331  1.9811
 7556TIP3    H222633   1.095   3.352   3.863  1.0594 -1.1679  1.2765
 7557TIP3   OH222634   5.881   0.749   4.021  0.2706  0.2040  0.3754
 7557TIP3    H122635   5.819   0.723   3.953 -0.4505  0.9912  0.7069
 7557TIP3    H222636   5.831   0.808   4.077  1.0085 -0.0164  1.2906
 7558TIP3   OH222637   5.241   0.040   3.079  0.3548  0.2440  0.0467
 7558TIP3    H122638   5.262   0.129   3.052  1.4886 -0.0575 -0.1479
 7558TIP3    H222639   5.152   0.045   3.114  0.6397  1.5614  0.6257
 7559TIP3   OH222640   0.392   6.120   2.764 -0.1389  0.7862  1.2063
 7559TIP3    H122641   0.462   6.151   2.822 -0.8478  0.5281  2.2229
 7559TIP3    H222642   0.346   6.054   2.815  0.7775 -1.3474 -0.5497
 7560TIP3   OH222643   1.594   1.232   1.943  0.2216  0.1256  0.4746
 7560TIP3    H122644   1.669   1.243   1.886  0.2051  0.5804  0.5303
 7560TIP3    H222645   1.608   1.296   2.014  0.3750 -0.6088  1.1193
 7561TIP3   OH222646   1.434   3.533   4.798 -0.1923 -0.6347 -0.2651
 7561TIP3    H122647   1.378   3.600   4.759 -0.3742 -1.4112 -1.3633
 7561TIP3    H222648   1.487   3.500   4.725 -0.4464 -2.0173  0.1553
 7562TIP3   OH222649   5.037   2.952   1.304 -0.7897 -0.0551  0.4894
 7562TIP3    H122650   5.034   3.030   1.248  0.4309 -0.5631 -0.3316
 7562TIP3    H222651   4.985   2.887   1.256 -0.4704 -0.2245  0.3686
 7563TIP3   OH222652   4.072   1.889   5.056 -0.3757  0.5173 -0.3149
 7563TIP3    H122653   4.012   1.908   5.128  1.0987  0.3748  0.9936
 7563TIP3    H222654   4.152   1.935   5.079  1.2264 -2.1672 -0.1682
 7564TIP3   OH222655   6.822   5.605   1.539  0.2927  0.0879  0.2647
 7564TIP3    H122656   6.824   5.510   1.525 -0.8271 -0.0689  1.0731
 7564TIP3    H222657   6.855   5.617   1.628 -0.0900  0.4037  0.3665
 7565TIP3   OH222658   6.174   1.529   2.375 -0.2399  0.5695  0.3440
 7565TIP3    H122659   6.088   1.489   2.390  0.1291 -0.9613 -1.3088
 7565TIP3    H222660   6.233   1.455   2.364  0.6298  1.5510 -2.0737
 7566TIP3   OH222661   5.710   1.745   0.920  0.3895 -0.0058  0.3808
 7566TIP3    H122662   5.647   1.800   0.874  0.0055 -1.7075 -1.2480
 7566TIP3    H222663   5.795   1.768   0.882  0.4559  0.6145  0.8907
 7567TIP3   OH222664   6.113   1.415   1.179  0.4226  0.5308  0.4245
 7567TIP3    H122665   6.197   1.430   1.135 -0.4669  2.1085 -0.8418
 7567TIP3    H222666   6.069   1.500   1.176 -1.2263 -0.2596  1.0634
 7568TIP3   OH222667   4.512   4.875   0.670  0.3441  0.7069 -0.4880
 7568TIP3    H122668   4.565   4.933   0.725  0.1291  0.5514 -0.1125
 7568TIP3    H222669   4.464   4.820   0.732  0.5998  0.0754 -0.8399
 7569TIP3   OH222670   2.382   6.349   4.653 -0.4326 -0.0949  0.1066
 7569TIP3    H122671   2.425   6.272   4.617  0.0274  0.4775 -0.5855
 7569TIP3    H222672   2.291   6.342   4.625  0.2104  1.1285 -2.5920
 7570TIP3   OH222673   6.570   3.511   5.445 -0.0042  0.2227 -0.3071
 7570TIP3    H122674   6.661   3.529   5.421  0.9009 -0.5519  2.2191
 7570TIP3    H222675   6.534   3.597   5.468  0.5679  0.3451  0.1361
 7571TIP3   OH222676   5.499   4.380   2.351 -0.0973  0.0917 -0.0893
 7571TIP3    H122677   5.577   4.325   2.344 -0.7618 -0.7506 -1.2277
 7571TIP3    H222678   5.491   4.399   2.444  1.0099 -0.4685  0.1348
 7572TIP3   OH222679   4.173   6.020   2.114  0.2004  0.3131 -0.3518
 7572TIP3    H122680   4.084   6.041   2.143  1.2977  3.6323  1.0531
 7572TIP3    H222681   4.190   5.933   2.151 -2.1616 -0.0984 -0.0651
 7573TIP3   OH222682   2.076   6.041   4.101 -0.6787  0.3466  0.5268
 7573TIP3    H122683   1.997   5.991   4.121 -0.3100 -0.3945  0.2128
 7573TIP3    H222684   2.134   6.025   4.176 -1.1583  1.6346  1.1921
 7574TIP3   OH222685   2.799   1.214   5.107  0.7059 -0.0918  0.0793
 7574TIP3    H122686   2.780   1.145   5.043 -0.7753 -0.6114  1.0183
 7574TIP3    H222687   2.810   1.293   5.054 -2.0304 -0.1900 -0.8066
 7575TIP3   OH222688   5.426   1.463   3.938  0.6589  0.5278 -0.8458
 7575TIP3    H122689   5.460   1.374   3.934  0.4354  0.4397 -0.8181
 7575TIP3    H222690   5.377   1.473   3.857 -2.5819 -0.7236  0.7816
 7576TIP3   OH222691   0.309   5.525   2.741  0.1767 -0.4001  0.6058
 7576TIP3    H122692   0.215   5.538   2.751  0.3991  0.5204  1.9720
 7576TIP3    H222693   0.328   5.446   2.791 -0.1065 -1.6507 -1.2156
 7577TIP3   OH222694   2.465   6.691   5.038  0.8569 -0.2242 -0.0067
 7577TIP3    H122695   2.443   6.715   4.948  1.3760  0.4158  0.0268
 7577TIP3    H222696   2.557   6.664   5.034  0.5771 -1.2312  0.1479
 7578TIP3   OH222697   1.629   1.163   5.166 -0.3555 -0.4004 -0.3602
 7578TIP3    H122698   1.675   1.133   5.244  0.1921 -0.3944 -0.6784
 7578TIP3    H222699   1.544   1.119   5.169 -0.9699  0.8096  1.0763
 7579TIP3   OH222700   3.273   0.032   1.986  0.4755 -0.1201  0.4270
 7579TIP3    H122701   3.289  -0.058   2.015  1.3821 -0.5888 -1.3360
 7579TIP3    H222702   3.360   0.066   1.965  0.0960  1.0072  0.6062
 7580TIP3   OH222703   3.230   0.850   4.804 -0.1227  0.1664  0.2999
 7580TIP3    H122704   3.178   0.929   4.818 -1.0526 -0.4650  0.4800
 7580TIP3    H222705   3.296   0.853   4.874 -1.4427 -0.2498  1.6141
 7581TIP3   OH222706   2.464   6.096   3.749  0.0725  0.1735  0.3560
 7581TIP3    H122707   2.506   6.023   3.702 -0.2357 -0.5692  1.1992
 7581TIP3    H222708   2.537   6.142   3.791  0.2298  0.0722  0.1941
 7582TIP3   OH222709   6.288   5.127   3.622  0.2789  0.1648 -0.0349
 7582TIP3    H122710   6.295   5.222   3.634  0.8086  0.1807 -0.4810
 7582TIP3    H222711   6.303   5.091   3.709  1.6733  0.4129 -0.1545
 7583TIP3   OH222712   4.564   6.445   5.869  0.0218  0.0971 -0.1884
 7583TIP3    H122713   4.505   6.482   5.935 -1.5706 -1.1301 -0.8530
 7583TIP3    H222714   4.576   6.515   5.805  2.1898  1.5783  1.6731
 7584TIP3   OH222715   1.481   2.116   5.891  0.3316 -0.0774  0.1059
 7584TIP3    H122716   1.545   2.061   5.846  0.8867  1.2627 -0.8147
 7584TIP3    H222717   1.433   2.159   5.820 -0.7879 -0.1564  0.7966
 7585TIP3   OH222718   0.692   2.213   4.410  0.2107 -0.2209  0.4731
 7585TIP3    H122719   0.612   2.177   4.447  0.3805 -0.6107  0.4608
 7585TIP3    H222720   0.681   2.204   4.315  0.5214 -0.8173  0.4919
 7586TIP3   OH222721   2.690   1.696   1.767 -0.3487  0.3341  0.4239
 7586TIP3    H122722   2.766   1.732   1.722 -0.0679 -0.8850 -0.0936
 7586TIP3    H222723   2.726   1.637   1.832 -0.8495 -1.4609 -0.8591
 7587TIP3   OH222724   2.482   4.694   5.402 -0.3947  0.2588  0.5831
 7587TIP3    H122725   2.544   4.640   5.354 -0.8429  0.3346 -0.0895
 7587TIP3    H222726   2.397   4.672   5.364 -0.7358  0.4415  1.2285
 7588TIP3   OH222727   2.842   1.842   1.564 -0.4465 -0.6236  0.4787
 7588TIP3    H122728   2.910   1.825   1.499  1.5173 -0.8495  2.4875
 7588TIP3    H222729   2.761   1.849   1.512  1.2331  1.0243 -2.1552
 7589TIP3   OH222730   5.791   1.134   1.304  0.1487 -0.1199  0.3776
 7589TIP3    H122731   5.803   1.197   1.233 -1.0436 -0.6088 -0.2761
 7589TIP3    H222732   5.825   1.179   1.382 -0.8553  1.4178 -0.0340
 7590TIP3   OH222733   4.453   6.115   1.093 -0.6448 -0.0437  0.0171
 7590TIP3    H122734   4.447   6.025   1.060  1.1106 -0.5136  0.8242
 7590TIP3    H222735   4.383   6.123   1.157  0.0495 -1.3537  0.9836
 7591TIP3   OH222736   6.498   3.648   3.087  0.4954  0.6622  0.1821
 7591TIP3    H122737   6.569   3.710   3.074  0.1636  1.1565  0.6817
 7591TIP3    H222738   6.472   3.659   3.178 -0.2476  0.5228  0.0007
 7592TIP3   OH222739   0.551   3.849   2.987 -0.7247  1.2352 -0.0591
 7592TIP3    H122740   0.568   3.813   3.074 -1.0428  1.0462 -0.0750
 7592TIP3    H222741   0.456   3.846   2.977 -0.5870 -0.5605 -1.1944
 7593TIP3   OH222742   2.066   4.272   2.089  0.4803 -0.0931  0.2968
 7593TIP3    H122743   2.085   4.267   1.996 -0.0868 -1.3977  0.2320
 7593TIP3    H222744   2.003   4.344   2.097  0.0567 -0.3796 -0.4052
 7594TIP3   OH222745   3.685   6.763   5.856  0.4078  0.2047  0.4624
 7594TIP3    H122746   3.600   6.780   5.816  0.0063 -0.4197  1.0408
 7594TIP3    H222747   3.669   6.694   5.920  1.3642  0.0236  0.5273
 7595TIP3   OH222748   6.926   4.863   1.269  0.5969 -0.1657 -0.1367
 7595TIP3    H122749   6.853   4.842   1.211  0.1778 -1.9310  0.9439
 7595TIP3    H222750   6.908   4.813   1.349  2.6053 -0.0609  0.4405
 7596TIP3   OH222751   5.359   4.491   2.632 -0.1167  0.4450  1.0121
 7596TIP3    H122752   5.361   4.569   2.577 -1.2845 -0.0293  0.2681
 7596TIP3    H222753   5.287   4.438   2.597  1.4236 -1.5779  0.6713
 7597TIP3   OH222754   6.155   4.500   0.628 -0.2913  0.4271 -0.1369
 7597TIP3    H122755   6.139   4.528   0.538  0.2767  1.2456  0.0115
 7597TIP3    H222756   6.083   4.540   0.678  0.4540  1.5639  0.0569
 7598TIP3   OH222757   3.197   1.831   4.244 -0.4322  0.1557  0.2539
 7598TIP3    H122758   3.170   1.878   4.323  1.3411  0.1480  0.9085
 7598TIP3    H222759   3.204   1.898   4.177 -2.6984  0.0609 -0.1650
 7599TIP3   OH222760   5.066   5.801   4.130  0.1927  0.6045 -0.3900
 7599TIP3    H122761   5.130   5.837   4.191 -0.2243  0.7792 -0.0503
 7599TIP3    H222762   5.118   5.749   4.069  0.6128  0.3672  0.1567
 7600TIP3   OH222763   6.955   4.731   1.506  0.2448  0.6281  0.4494
 7600TIP3    H122764   7.000   4.651   1.481  0.2380  0.7167  0.1439
 7600TIP3    H222765   6.987   4.751   1.594 -1.0956 -0.6871  1.2844
 7601TIP3   OH222766   4.032   4.083   2.427 -0.1445 -0.5344 -0.3643
 7601TIP3    H122767   4.001   4.045   2.345 -0.3279 -0.9694 -0.0928
 7601TIP3    H222768   3.996   4.172   2.427 -2.6420 -1.4801  0.6225
 7602TIP3   OH222769   4.393   0.395   1.792  0.3874 -0.1717 -0.6468
 7602TIP3    H122770   4.371   0.303   1.805  1.4565 -0.5116 -1.1324
 7602TIP3    H222771   4.337   0.442   1.853 -0.1373 -1.1485 -0.3552
 7603TIP3   OH222772   5.709   2.559   1.070  0.7166  0.3947 -0.4091
 7603TIP3    H122773   5.707   2.601   1.156  1.2311 -1.7707  0.7349
 7603TIP3    H222774   5.758   2.620   1.015 -0.4042  2.2553  0.5425
 7604TIP3   OH222775   5.817   2.950   2.028 -0.0042  0.3747 -0.0679
 7604TIP3    H122776   5.845   2.859   2.021  0.6965  0.5160  0.6336
 7604TIP3    H222777   5.895   2.996   2.059 -0.6137  1.0558  0.4928
 7605TIP3   OH222778   6.553   2.055   4.249 -0.2460  0.6195  0.2238
 7605TIP3    H122779   6.572   1.977   4.197 -1.9271 -0.8383  1.6540
 7605TIP3    H222780   6.532   2.123   4.184 -0.9450 -0.7545 -1.0403
 7606TIP3   OH222781   2.457   2.943   0.330  0.0007 -0.1273  0.2643
 7606TIP3    H122782   2.524   2.887   0.290 -0.9120 -0.3478 -1.0014
 7606TIP3    H222783   2.420   2.890   0.400  1.0445 -0.0436  0.9133
 7607TIP3   OH222784   7.042   1.266   5.467 -0.1325 -0.2426 -0.3595
 7607TIP3    H122785   7.004   1.350   5.494  0.8818  0.0159  0.3073
 7607TIP3    H222786   7.034   1.210   5.544  1.7868  0.1552  0.1626
 7608TIP3   OH222787   5.515   6.003   0.154  0.1003  0.1562 -0.2736
 7608TIP3    H122788   5.499   6.036   0.242  0.4775 -0.3529 -0.0077
 7608TIP3    H222789   5.597   5.953   0.161 -1.4509 -2.5531 -0.1872
 7609TIP3   OH222790   3.591   4.739   2.358 -0.3344 -0.2087 -0.0435
 7609TIP3    H122791   3.655   4.738   2.286 -0.6195 -0.3618 -0.2993
 7609TIP3    H222792   3.508   4.716   2.316 -0.3817 -1.0044  0.4573
 7610TIP3   OH222793   5.059   2.964   3.418 -0.6536 -0.1035 -0.8571
 7610TIP3    H122794   5.123   2.896   3.440 -0.5623  0.3938  0.4684
 7610TIP3    H222795   5.049   3.015   3.498 -1.8407  0.5480 -1.3959
 7611TIP3   OH222796   7.144   4.130   0.185 -0.0215 -0.0376  0.3050
 7611TIP3    H122797   7.183   4.191   0.247  1.2818 -1.0567  0.5296
 7611TIP3    H222798   7.155   4.044   0.227 -1.5425 -0.4786 -0.1335
 7612TIP3   OH222799   6.001   1.465   5.087  0.3889 -0.5786  0.7114
 7612TIP3    H122800   6.016   1.559   5.097 -1.3649 -0.4153  2.2372
 7612TIP3    H222801   6.046   1.425   5.161 -1.1257 -0.6663  1.6099
 7613TIP3   OH222802   1.758   3.990   5.850  0.1940  0.0820  0.0543
 7613TIP3    H122803   1.678   4.042   5.852  0.4698  0.4940  0.9958
 7613TIP3    H222804   1.829   4.054   5.854  0.6535 -0.1655 -2.3983
 7614TIP3   OH222805   6.530   4.919   3.537 -0.0109  0.7685  0.3621
 7614TIP3    H122806   6.529   5.011   3.511  5.0127  0.8770 -0.5782
 7614TIP3    H222807   6.538   4.870   3.455  2.2323  0.0070  0.9451
 7615TIP3   OH222808   4.377   5.412   5.215 -0.2811  0.4440 -0.3530
 7615TIP3    H122809   4.451   5.365   5.178 -0.2396 -1.1700  1.5905
 7615TIP3    H222810   4.415   5.465   5.285 -1.0026 -1.0444  1.2223
 7616TIP3   OH222811   5.742   3.763   2.474 -0.1115 -0.0756 -0.7218
 7616TIP3    H122812   5.793   3.832   2.432 -0.0468  0.8612  0.8227
 7616TIP3    H222813   5.754   3.687   2.418  0.2898  1.0014 -2.1613
 7617TIP3   OH222814   3.013   6.308   1.067 -0.9396 -0.3696  0.4917
 7617TIP3    H122815   3.073   6.252   1.116 -1.4342 -0.1550  1.3631
 7617TIP3    H222816   3.011   6.391   1.115  0.1225  0.5841 -1.0306
 7618TIP3   OH222817   3.617   2.424   1.229  0.7411 -0.4988  0.0562
 7618TIP3    H122818   3.595   2.364   1.301 -3.4381  0.1895 -0.3652
 7618TIP3    H222819   3.586   2.379   1.150  0.5256  0.8087 -0.6423
 7619TIP3   OH222820   3.481   6.304   0.702  0.3922  0.7996  0.4850
 7619TIP3    H122821   3.556   6.349   0.739  0.1167 -0.5003  2.8085
 7619TIP3    H222822   3.407   6.332   0.755 -0.2746 -0.1236  0.0706
 7620TIP3   OH222823   5.755   0.141   2.952  0.1555 -0.2017  0.0851
 7620TIP3    H122824   5.843   0.180   2.953  0.3894 -0.6740 -0.9366
 7620TIP3    H222825   5.707   0.192   2.886  0.5524 -1.7695 -1.4855
 7621TIP3   OH222826   1.210   3.194   4.093 -0.7008  0.0690  0.5065
 7621TIP3    H122827   1.137   3.237   4.049 -1.4057 -0.6088  1.0116
 7621TIP3    H222828   1.286   3.215   4.038 -0.9041  2.4135  1.0084
 7622TIP3   OH222829   1.060   2.917   4.447  0.0702 -0.0694  0.3014
 7622TIP3    H122830   1.070   2.977   4.521  0.3834  0.4991 -0.1955
 7622TIP3    H222831   0.976   2.875   4.462 -0.4539  0.9597  0.3276
 7623TIP3   OH222832   7.201   2.691   3.596 -0.5723  0.4843  0.2635
 7623TIP3    H122833   7.234   2.767   3.646  0.4286 -0.0114  0.3771
 7623TIP3    H222834   7.172   2.728   3.513 -1.0993  1.1447  0.7243
 7624TIP3   OH222835   6.651   1.262   4.860  0.3259 -0.9226  0.0918
 7624TIP3    H122836   6.735   1.301   4.835 -0.2599  0.5970  0.3848
 7624TIP3    H222837   6.587   1.300   4.800 -0.9940  2.2393  3.1104
 7625TIP3   OH222838   0.217   1.743   0.043 -0.1014 -0.0627  0.1222
 7625TIP3    H122839   0.276   1.728  -0.031 -0.4064 -0.6358 -0.0117
 7625TIP3    H222840   0.230   1.835   0.066  1.4794 -0.3895  0.6632
 7626TIP3   OH222841   6.645   0.593   4.504  0.4974  0.5104 -0.7566
 7626TIP3    H122842   6.649   0.500   4.483 -0.1364  0.7308 -1.9914
 7626TIP3    H222843   6.600   0.597   4.589  2.4305 -0.3952  0.3756
 7627TIP3   OH222844   2.593   5.247   3.291 -0.4953 -0.0072 -0.7385
 7627TIP3    H122845   2.619   5.293   3.211  0.0066 -0.6887 -0.9709
 7627TIP3    H222846   2.656   5.278   3.357 -0.6201  0.2008 -0.7153
 7628TIP3   OH222847   5.193   4.487   5.113  0.1079 -0.0402  0.0836
 7628TIP3    H122848   5.135   4.520   5.044  0.9140 -1.1251 -1.1598
 7628TIP3    H222849   5.155   4.403   5.138  0.1177  0.1044  0.5930
 7629TIP3   OH222850   0.846   1.827   5.503  0.7181  0.2579 -0.3547
 7629TIP3    H122851   0.764   1.778   5.510  1.0581 -0.4196 -0.9788
 7629TIP3    H222852   0.898   1.799   5.578 -0.5206  2.4993  1.4660
 7630TIP3   OH222853   5.991   0.631   5.753 -0.3478 -0.3499 -0.2552
 7630TIP3    H122854   6.080   0.640   5.719 -0.4327 -1.4460 -0.7904
 7630TIP3    H222855   5.999   0.655   5.846  0.2885  0.6031 -0.5415
 7631TIP3   OH222856   1.418   3.654   3.403 -0.2152 -0.6618  0.2584
 7631TIP3    H122857   1.398   3.725   3.342  2.2628 -1.2252 -1.3382
 7631TIP3    H222858   1.335   3.606   3.411 -1.0491  0.3888 -1.3938
 7632TIP3   OH222859   5.976   1.646   5.402 -0.3365 -0.5940 -0.3173
 7632TIP3    H122860   6.048   1.586   5.417 -1.0385 -1.4548 -0.2840
 7632TIP3    H222861   5.897   1.594   5.418 -1.0016  1.0055  2.4419
 7633TIP3   OH222862   4.324   1.473   5.551  0.2429  0.7094 -0.3607
 7633TIP3    H122863   4.303   1.560   5.584 -2.4104 -0.2250  0.7354
 7633TIP3    H222864   4.268   1.462   5.474  2.8411  1.0301 -2.4648
 7634TIP3   OH222865   5.527   6.015   2.524 -0.1307  0.5766 -1.0313
 7634TIP3    H122866   5.488   6.101   2.510  0.8045  1.1596 -0.2458
 7634TIP3    H222867   5.614   6.034   2.559  0.1480 -0.6916 -0.9811
 7635TIP3   OH222868   0.895   1.179   0.287 -0.4442 -0.2507 -0.6623
 7635TIP3    H122869   0.943   1.146   0.363 -2.8734  1.5049  1.8313
 7635TIP3    H222870   0.816   1.125   0.283 -0.4605 -0.1676 -1.8425
 7636TIP3   OH222871   2.609   4.485   4.931 -0.1419 -0.0829 -0.3055
 7636TIP3    H122872   2.599   4.404   4.880  0.7939 -0.7211  0.4829
 7636TIP3    H222873   2.694   4.519   4.905  0.7589 -0.8884  1.4241
 7637TIP3   OH222874   0.979   6.580   2.072 -0.8759  0.0182 -0.4737
 7637TIP3    H122875   0.991   6.594   1.978 -1.2110  1.8143 -0.2926
 7637TIP3    H222876   1.062   6.542   2.101 -0.0844  1.1015 -1.2224
 7638TIP3   OH222877   6.731   6.104   1.121  0.3043  0.1685 -0.5708
 7638TIP3    H122878   6.803   6.110   1.183 -0.9013  2.0862  0.7346
 7638TIP3    H222879   6.729   6.011   1.097  2.2097 -0.2196  0.5185
 7639TIP3   OH222880   5.179   3.967   4.299 -0.0198 -0.0877 -0.2430
 7639TIP3    H122881   5.273   3.958   4.282 -0.1604 -2.8828 -0.0329
 7639TIP3    H222882   5.172   3.961   4.394 -0.4591 -0.9629 -0.3190
 7640TIP3   OH222883   1.540   3.267   2.776  0.4003 -0.0314  0.6829
 7640TIP3    H122884   1.536   3.181   2.735 -1.4507  0.3961 -0.1322
 7640TIP3    H222885   1.602   3.316   2.723  0.4063 -0.4361  0.3090
 7641TIP3   OH222886   1.375   2.381   2.974  0.0267 -0.1801  0.3728
 7641TIP3    H122887   1.339   2.395   3.062 -0.3259  1.9327 -0.0666
 7641TIP3    H222888   1.412   2.465   2.948 -0.8843 -0.4085 -1.9564
 7642TIP3   OH222889   0.512   0.805   0.936 -0.0109 -0.4621 -0.1925
 7642TIP3    H122890   0.500   0.710   0.936  2.7808 -1.0151 -3.1052
 7642TIP3    H222891   0.597   0.818   0.978 -0.6485  0.8367  0.7255
 7643TIP3   OH222892   3.107   2.651   0.118 -0.3350  0.1634  0.5138
 7643TIP3    H122893   3.030   2.632   0.172 -0.6687  2.1328  0.8066
 7643TIP3    H222894   3.147   2.728   0.159 -0.0029  1.0913 -1.4196
 7644TIP3   OH222895   3.901   5.306   1.793 -0.0282  0.0448 -0.0979
 7644TIP3    H122896   3.812   5.333   1.774 -0.0080  0.1895  0.0121
 7644TIP3    H222897   3.952   5.387   1.795 -0.0306  0.0401  0.5676
 7645TIP3   OH222898   2.212   1.452   4.819  0.1115 -0.1878 -0.2845
 7645TIP3    H122899   2.136   1.394   4.810  0.0928 -0.1478 -0.3861
 7645TIP3    H222900   2.212   1.478   4.911  0.5287 -0.9078 -0.0764
 7646TIP3   OH222901   5.418   2.693   4.921  0.3849 -0.1473 -0.3036
 7646TIP3    H122902   5.464   2.611   4.902 -0.4611 -0.7194  0.0502
 7646TIP3    H222903   5.338   2.688   4.870  0.6657  0.8146 -0.8710
 7647TIP3   OH222904   0.566   5.631   3.329  0.0520 -0.0188  0.1730
 7647TIP3    H122905   0.641   5.580   3.358  1.3900  0.4953 -2.1303
 7647TIP3    H222906   0.496   5.567   3.317  1.6467 -1.4469 -2.5265
 7648TIP3   OH222907   1.999   4.626   0.415  0.4588 -0.2367 -0.3399
 7648TIP3    H122908   1.939   4.554   0.396  0.1995 -0.1622  0.1532
 7648TIP3    H222909   1.941   4.700   0.435  0.7240  0.1338 -0.9304
 7649TIP3   OH222910   5.228   4.175   2.751 -0.2773  0.6014  0.2181
 7649TIP3    H122911   5.168   4.102   2.736  0.2548  0.1222  0.3746
 7649TIP3    H222912   5.178   4.253   2.725 -0.8525  0.1866  0.0507
 7650TIP3   OH222913   0.450   0.026   5.395 -0.1277  0.3134  0.1422
 7650TIP3    H122914   0.384  -0.038   5.372  0.2100  0.4855 -1.4393
 7650TIP3    H222915   0.424   0.106   5.349  0.5543  0.7108  0.4187
 7651TIP3   OH222916   5.156   0.963   5.011 -0.5770  0.2525 -0.0394
 7651TIP3    H122917   5.165   1.055   4.987  2.2646 -0.4305 -2.2249
 7651TIP3    H222918   5.188   0.958   5.101 -1.0591  1.4033  0.2142
 7652TIP3   OH222919   6.466   2.507   3.382  0.3796  0.5245 -0.0455
 7652TIP3    H122920   6.513   2.554   3.451  3.0468 -1.0192 -0.6775
 7652TIP3    H222921   6.527   2.505   3.308 -1.3691 -0.1603 -1.5345
 7653TIP3   OH222922   4.419   3.375   4.691 -0.5044 -0.1125 -0.1793
 7653TIP3    H122923   4.419   3.422   4.608  0.6439 -0.5641 -0.4462
 7653TIP3    H222924   4.331   3.391   4.727 -0.6071  1.0888 -0.8951
 7654TIP3   OH222925   3.388   4.240   5.805  0.0982  0.0618 -0.4720
 7654TIP3    H122926   3.432   4.284   5.877 -0.6454 -0.2231  0.1655
 7654TIP3    H222927   3.371   4.310   5.741  0.4776  0.3716 -0.2404
 7655TIP3   OH222928   2.035   3.640   1.440  0.3650 -0.1599 -0.2996
 7655TIP3    H122929   1.946   3.623   1.469  0.3024  0.4472 -0.1212
 7655TIP3    H222930   2.075   3.688   1.512  0.0336  1.8804 -1.3724
 7656TIP3   OH222931   3.221   1.972   5.144  0.1095  0.1975 -0.7473
 7656TIP3    H122932   3.135   1.980   5.185  0.5736  0.2284  0.2609
 7656TIP3    H222933   3.231   1.879   5.126  0.1305  0.1015 -0.2528
 7657TIP3   OH222934   0.449   4.136   5.455  0.5707  0.1112 -0.1668
 7657TIP3    H122935   0.451   4.074   5.527 -0.8683  0.5716  0.2986
 7657TIP3    H222936   0.489   4.089   5.382  0.0419 -1.1534  0.3348
 7658TIP3   OH222937   0.334   4.742   0.767 -0.5097  0.0141  0.0346
 7658TIP3    H122938   0.405   4.803   0.745  0.7545 -0.9491  1.2307
 7658TIP3    H222939   0.272   4.794   0.818 -0.8156  0.9300 -1.2264
 7659TIP3   OH222940   0.204   3.495   2.197 -0.2146  0.5047  0.4532
 7659TIP3    H122941   0.160   3.546   2.265  2.3715  1.9139  1.1997
 7659TIP3    H222942   0.254   3.428   2.245  1.5751  1.4619  0.0076
 7660TIP3   OH222943   5.619   6.071   0.869 -0.1837 -0.5937 -0.5531
 7660TIP3    H122944   5.677   6.057   0.794 -0.7921  0.1141 -1.1641
 7660TIP3    H222945   5.535   6.033   0.842  0.0385 -1.8649  0.4356
 7661TIP3   OH222946   6.517   5.267   5.139  0.8396 -0.0805  0.2006
 7661TIP3    H122947   6.514   5.181   5.096  2.4294  0.5319 -1.2353
 7661TIP3    H222948   6.447   5.317   5.096 -0.4702 -0.7800  1.4346
 7662TIP3   OH222949   3.644   0.567   0.824 -0.0113 -0.0493 -0.5550
 7662TIP3    H122950   3.621   0.563   0.917  0.7268  0.6542 -0.3317
 7662TIP3    H222951   3.570   0.613   0.783  0.1693  0.6327 -0.1307
 7663TIP3   OH222952   3.441   5.611   3.613  0.1029 -0.0514  0.5150
 7663TIP3    H122953   3.359   5.660   3.617 -0.0857 -0.2057 -0.9451
 7663TIP3    H222954   3.508   5.678   3.600 -0.0077 -0.0706 -0.1692
 7664TIP3   OH222955   2.115   5.204   3.594 -0.3041 -0.2048  0.3405
 7664TIP3    H122956   2.140   5.239   3.680  0.5693 -0.8310  0.3504
 7664TIP3    H222957   2.076   5.119   3.612 -2.1995  0.5891  0.2897
 7665TIP3   OH222958   0.503   0.535   0.985  0.7734  0.4669 -0.2546
 7665TIP3    H122959   0.587   0.489   0.983 -0.8729 -2.8794  0.1893
 7665TIP3    H222960   0.461   0.506   1.066 -0.1710  3.4712  0.4704
 7666TIP3   OH222961   2.601   4.223   1.575 -0.0028 -0.5396  0.7165
 7666TIP3    H122962   2.609   4.228   1.480  0.8433 -0.8800  0.7574
 7666TIP3    H222963   2.671   4.163   1.601 -1.5359 -2.1114  1.3686
 7667TIP3   OH222964   3.207   2.574   5.477  0.1979  0.3243  0.0663
 7667TIP3    H122965   3.132   2.601   5.424  1.0532  1.6318 -0.5333
 7667TIP3    H222966   3.168   2.529   5.552 -1.0590 -1.3731 -1.5001
 7668TIP3   OH222967   5.353   0.667   2.325 -0.0750  0.2969  0.0640
 7668TIP3    H122968   5.329   0.755   2.356  1.6501  0.9137 -0.2681
 7668TIP3    H222969   5.275   0.636   2.280 -1.5819  0.6491  2.2395
 7669TIP3   OH222970   4.087   4.309   4.707  0.5781  0.2002  0.4864
 7669TIP3    H122971   4.080   4.320   4.802 -1.7627 -2.0838  0.6673
 7669TIP3    H222972   4.021   4.368   4.671  0.5826  0.1251  0.3526
 7670TIP3   OH222973   4.087   1.507   5.753 -0.0794 -0.2723 -0.3126
 7670TIP3    H122974   4.052   1.570   5.815 -0.2762  1.3039 -1.9506
 7670TIP3    H222975   4.164   1.550   5.715  0.3078 -1.3765 -0.8288
 7671TIP3   OH222976   0.146   0.600   1.853  0.2136 -0.3759  0.3400
 7671TIP3    H122977   0.220   0.541   1.846  0.3330 -0.2766  0.7142
 7671TIP3    H222978   0.100   0.572   1.933 -1.8258 -2.3188 -1.3893
 7672TIP3   OH222979   2.716   0.161   0.685 -0.1507 -0.0714 -0.2233
 7672TIP3    H122980   2.639   0.193   0.639 -0.8909 -0.3022  0.8097
 7672TIP3    H222981   2.771   0.239   0.698 -0.2925  0.1257 -0.7895
 7673TIP3   OH222982   5.221   1.759   3.803 -0.1344 -0.3025 -0.3290
 7673TIP3    H122983   5.171   1.721   3.875 -2.1123  1.1160 -0.8763
 7673TIP3    H222984   5.272   1.828   3.843  0.1576 -0.6923 -0.0214
 7674TIP3   OH222985   5.640   1.991   3.240 -0.2152 -0.0721  0.0925
 7674TIP3    H122986   5.571   1.949   3.188  0.3534 -0.0223 -0.7166
 7674TIP3    H222987   5.606   2.078   3.259  0.0501  0.3404 -1.2189
 7675TIP3   OH222988   3.578   1.098   5.805  0.2601  0.4142 -0.0646
 7675TIP3    H122989   3.630   1.175   5.779 -0.1145  0.4226 -0.8148
 7675TIP3    H222990   3.643   1.028   5.814  0.4458  0.4963 -0.7123
 7676TIP3   OH222991   4.685   1.122   0.231 -0.7129  0.0674 -0.0018
 7676TIP3    H122992   4.664   1.157   0.317  1.7643 -0.5372  0.9611
 7676TIP3    H222993   4.706   1.030   0.248  1.5285  0.3555 -0.8871
 7677TIP3   OH222994   4.405   3.189   1.597 -0.1890  0.2919 -0.2044
 7677TIP3    H122995   4.419   3.278   1.563  1.7333 -1.1247 -3.7278
 7677TIP3    H222996   4.310   3.177   1.594 -0.3775  1.7595 -1.2127
 7678TIP3   OH222997   5.991   4.270   2.430 -0.2134  0.1548  0.1241
 7678TIP3    H122998   6.030   4.357   2.429  2.6080 -0.9655 -2.1740
 7678TIP3    H222999   6.043   4.221   2.494  0.3066 -0.6210 -0.8731
 7679TIP3   OH223000   3.012   2.735   5.379  0.7442  0.5638  0.1090
 7679TIP3    H123001   2.962   2.711   5.457  1.8939  2.4800  1.5481
 7679TIP3    H223002   2.989   2.827   5.363  0.9107  0.3523 -1.5268
 7680TIP3   OH223003   3.490   5.052   0.621 -0.0759 -0.1383  0.5128
 7680TIP3    H123004   3.499   5.137   0.665 -0.8565  0.4667 -0.4569
 7680TIP3    H223005   3.452   4.995   0.689  0.6256  0.2162  1.2269
 7681TIP3   OH223006   3.422   4.667   4.108 -0.2769 -0.1122 -0.6748
 7681TIP3    H123007   3.476   4.711   4.043  1.0567 -2.5154 -1.2971
 7681TIP3    H223008   3.363   4.611   4.057 -0.4139 -0.7239  0.1287
 7682TIP3   OH223009   5.473   5.971   5.753  0.1813  0.0176 -0.0152
 7682TIP3    H123010   5.481   6.027   5.830 -1.4901  1.0839 -0.5682
 7682TIP3    H223011   5.502   6.025   5.680 -1.3340  0.1867 -0.5371
 7683TIP3   OH223012   2.786   1.244   1.330 -0.2013  0.5814 -0.4477
 7683TIP3    H123013   2.848   1.178   1.299  0.8777  0.7497  1.1753
 7683TIP3    H223014   2.717   1.194   1.373  1.2750  0.4364  1.9559
 7684TIP3   OH223015   4.653   6.269   0.922  0.2964 -0.3326 -0.8248
 7684TIP3    H123016   4.739   6.229   0.932  0.0899 -0.5168  0.5317
 7684TIP3    H223017   4.597   6.220   0.984 -0.1472  1.5136  0.3132
 7685TIP3   OH223018   4.796   0.811   5.809 -0.6270  0.1351  0.1614
 7685TIP3    H123019   4.747   0.889   5.836  0.0960 -0.2472  2.8152
 7685TIP3    H223020   4.794   0.754   5.885 -0.6229 -2.2406 -1.5198
 7686TIP3   OH223021   3.428   1.278   3.207 -0.7628  0.3180 -0.1113
 7686TIP3    H123022   3.459   1.265   3.297 -2.7810  0.3296  0.6287
 7686TIP3    H223023   3.505   1.309   3.160  0.4200  0.0286  1.5437
 7687TIP3   OH223024   4.736   6.539   4.396  0.0861 -0.7078  0.0492
 7687TIP3    H123025   4.814   6.485   4.391 -0.1601 -1.1095  0.5761
 7687TIP3    H223026   4.764   6.624   4.360  0.6618 -0.9556 -0.0997
 7688TIP3   OH223027   0.249   4.873   3.859  0.0181  0.1647 -0.3187
 7688TIP3    H123028   0.274   4.959   3.827 -1.7600  0.2090 -1.7430
 7688TIP3    H223029   0.308   4.812   3.814  0.8185  0.5734  0.1668
 7689TIP3   OH223030   3.022   3.993   1.172  0.9479  0.3168  0.1765
 7689TIP3    H123031   3.109   4.027   1.196  1.8606 -1.5660 -0.3088
 7689TIP3    H223032   3.008   4.027   1.083  0.2779  2.2190  0.9524
 7690TIP3   OH223033   2.228   1.780   4.876 -0.1394 -0.4646 -0.3126
 7690TIP3    H123034   2.301   1.839   4.897  0.0559 -0.7129 -0.2862
 7690TIP3    H223035   2.260   1.693   4.899 -0.0994 -0.6882 -1.1670
 7691TIP3   OH223036   4.461   5.648   0.166 -0.3808  0.3083  0.0848
 7691TIP3    H123037   4.533   5.585   0.178  0.6602  1.7074  1.6667
 7691TIP3    H223038   4.402   5.630   0.239 -0.1533  1.0414  0.4586
 7692TIP3   OH223039   5.030   0.755   0.327  0.2568  0.1138 -0.4430
 7692TIP3    H123040   5.031   0.760   0.422 -2.6337  1.8217 -0.3775
 7692TIP3    H223041   5.013   0.663   0.308  3.8175 -0.8746  0.4667
 7693TIP3   OH223042   3.292   5.023   1.998 -0.4132  0.0509  1.3546
 7693TIP3    H123043   3.256   5.096   1.948  1.6723  0.1278 -0.1449
 7693TIP3    H223044   3.237   4.948   1.975  0.5226  0.0573 -1.2167
 7694TIP3   OH223045   0.452   4.711   1.601 -0.1816 -0.6886  0.1770
 7694TIP3    H123046   0.537   4.682   1.635 -0.4083 -1.8778 -0.2070
 7694TIP3    H223047   0.401   4.630   1.593 -1.0408 -0.1009 -0.4547
 7695TIP3   OH223048   2.359   6.108   0.621  0.0126 -0.3804  0.1423
 7695TIP3    H123049   2.341   6.170   0.551 -1.6119  1.6706  2.2076
 7695TIP3    H223050   2.438   6.140   0.663 -1.0213  0.6016  1.4315
 7696TIP3   OH223051   3.526   3.353   0.333 -0.4019  0.7657 -0.2913
 7696TIP3    H123052   3.468   3.319   0.264 -1.2734 -0.0184  0.8026
 7696TIP3    H223053   3.547   3.277   0.387 -0.7326  1.5671  1.0167
 7697TIP3   OH223054   0.628   4.751   4.168 -0.1960 -0.4520  0.4873
 7697TIP3    H123055   0.665   4.792   4.247 -1.9973  1.3140  0.4882
 7697TIP3    H223056   0.685   4.780   4.097 -0.5950  0.8936  0.6953
 7698TIP3   OH223057   0.857   0.634   4.867  0.3819 -0.0341  0.2116
 7698TIP3    H123058   0.795   0.574   4.824 -0.0686 -0.0210  0.8341
 7698TIP3    H223059   0.801   0.704   4.902  0.9953  1.4907 -1.6496
 7699TIP3   OH223060   4.452   4.031   2.733  0.3881 -0.1432  0.4480
 7699TIP3    H123061   4.416   3.951   2.770 -0.2494 -0.4051 -0.7162
 7699TIP3    H223062   4.449   4.094   2.805 -0.7557 -0.6587  0.8745
 7700TIP3   OH223063   5.702   2.684   1.318 -0.0362 -0.6133 -0.1921
 7700TIP3    H123064   5.793   2.656   1.331  0.3506  0.3455 -0.7109
 7700TIP3    H223065   5.657   2.658   1.399  0.8934 -0.3667  0.4212
 7701TIP3   OH223066   4.135   3.023   5.053  0.3725 -0.4763 -0.2297
 7701TIP3    H123067   4.129   3.098   4.993 -0.6566 -0.4245 -0.0805
 7701TIP3    H223068   4.199   2.965   5.012  1.0110  0.3786 -0.4648
 7702TIP3   OH223069   1.148   3.445   4.912  0.0363 -0.0922 -0.0463
 7702TIP3    H123070   1.241   3.468   4.922  0.4234 -2.0412  1.2338
 7702TIP3    H223071   1.134   3.374   4.974 -1.9059 -1.0098 -1.4487
 7703TIP3   OH223072   0.777   6.284   5.417  0.3616  0.1300  0.0664
 7703TIP3    H123073   0.714   6.215   5.396  0.6018  0.0074 -0.2590
 7703TIP3    H223074   0.764   6.350   5.349  1.0622 -0.2156 -0.4171
 7704TIP3   OH223075   3.483   0.304   5.021 -0.1139  0.2165 -0.2900
 7704TIP3    H123076   3.446   0.384   4.982  0.6516 -0.0325 -1.5643
 7704TIP3    H223077   3.419   0.236   5.003  0.3677  0.0439 -1.3934
 7705TIP3   OH223078   0.659   4.428   0.449 -0.2968 -0.0576  0.2262
 7705TIP3    H123079   0.643   4.427   0.543  1.2627  0.1648  0.5177
 7705TIP3    H223080   0.671   4.520   0.426  1.8313 -0.2530  0.3152
 7706TIP3   OH223081   0.501   4.269   1.505  0.6555 -0.1639 -0.6924
 7706TIP3    H123082   0.533   4.218   1.430  1.3501 -0.1497 -0.4113
 7706TIP3    H223083   0.422   4.222   1.533  0.8964 -0.6899 -0.8730
 7707TIP3   OH223084   5.889   6.298   2.564  0.1745  0.4646  0.8943
 7707TIP3    H123085   5.969   6.272   2.610  0.9818  0.9023 -0.2371
 7707TIP3    H223086   5.819   6.257   2.614  1.0130  0.9437  2.5484
 7708TIP3   OH223087   1.929   2.183   4.599  0.2948 -0.6142  0.1478
 7708TIP3    H123088   1.933   2.228   4.683  1.5438  0.4645 -0.4512
 7708TIP3    H223089   1.851   2.217   4.556  1.4803  1.4731 -0.5106
 7709TIP3   OH223090   3.456   2.222   0.543  0.1053 -0.2784 -0.8344
 7709TIP3    H123091   3.429   2.289   0.480 -1.5066  0.7641  0.8582
 7709TIP3    H223092   3.532   2.259   0.587  1.8195 -1.3974 -2.6846
 7710TIP3   OH223093   0.784   2.606   5.508  0.5075  0.1491  0.5779
 7710TIP3    H123094   0.854   2.628   5.570  0.3489  0.1334  0.7622
 7710TIP3    H223095   0.799   2.514   5.487  1.7645  0.6515 -0.9532
 7711TIP3   OH223096   2.940   0.986   0.470 -0.2852  0.9737  0.4482
 7711TIP3    H123097   2.954   1.050   0.540  1.8315 -0.8307  1.8335
 7711TIP3    H223098   2.846   0.968   0.472 -0.9018  3.6906  0.2110
 7712TIP3   OH223099   3.792   0.857   4.567 -0.3274  0.4584 -0.1406
 7712TIP3    H123100   3.864   0.797   4.585  0.3057  1.0353 -0.6862
 7712TIP3    H223101   3.728   0.804   4.518 -0.0942  0.0502 -0.0011
 7713TIP3   OH223102   5.199   2.364   3.924  0.4593  0.3203  0.6762
 7713TIP3    H123103   5.283   2.345   3.965  0.0160  0.2555  1.5735
 7713TIP3    H223104   5.165   2.279   3.897  0.0692  0.1868  1.5487
 7714TIP3   OH223105   0.102   4.479   4.887  0.0253 -0.0902  0.2492
 7714TIP3    H123106   0.193   4.486   4.916 -0.2194 -1.8729  1.6245
 7714TIP3    H223107   0.088   4.557   4.834  2.2266  0.4362  0.3379
 7715TIP3   OH223108   5.585   5.578   5.750 -0.2137  0.6074  0.0011
 7715TIP3    H123109   5.602   5.672   5.756  0.5159  0.4140  1.4593
 7715TIP3    H223110   5.655   5.538   5.801 -0.0551 -0.7998 -1.2570
 7716TIP3   OH223111   1.766   1.770   1.239  0.3611 -0.6551 -0.0892
 7716TIP3    H123112   1.816   1.720   1.175  0.6923  0.1890 -0.5184
 7716TIP3    H223113   1.683   1.724   1.246  0.9248 -1.6676  0.0880
 7717TIP3   OH223114   0.917   0.324   4.510  0.2946  0.6066 -0.0276
 7717TIP3    H123115   0.875   0.293   4.591  0.5198  0.6744  0.1178
 7717TIP3    H223116   0.960   0.246   4.475 -1.9146 -0.0488 -1.4498
 7718TIP3   OH223117   5.036   3.518   1.559 -0.2281 -0.0702  0.2553
 7718TIP3    H123118   5.002   3.544   1.644 -0.7649 -0.8853  0.2993
 7718TIP3    H223119   5.060   3.426   1.569  1.6993  0.3620  0.1274
 7719TIP3   OH223120   5.272   3.175   4.005 -0.0387  0.5897 -0.5744
 7719TIP3    H123121   5.211   3.231   4.053 -0.5542  0.7272 -1.3857
 7719TIP3    H223122   5.223   3.145   3.929  0.3432 -0.7118 -0.3263
 7720TIP3   OH223123   6.998   5.603   2.191  0.0942 -0.2035  0.0962
 7720TIP3    H123124   7.093   5.592   2.186  0.6344  3.1258  0.6562
 7720TIP3    H223125   6.983   5.692   2.159 -3.0774 -1.2215 -1.6034
 7721TIP3   OH223126   2.366   1.779   3.280  0.1590 -0.0619 -0.5410
 7721TIP3    H123127   2.377   1.744   3.368 -0.0030  0.2857 -0.3811
 7721TIP3    H223128   2.427   1.728   3.226  0.9110  0.3316 -0.0732
 7722TIP3   OH223129   4.632   6.666   2.971  0.5491 -0.5000 -0.2176
 7722TIP3    H123130   4.555   6.721   2.959  0.3329 -0.7715 -0.0800
 7722TIP3    H223131   4.611   6.610   3.045  1.1487 -0.1167  0.2503
 7723TIP3   OH223132   3.739   6.068   5.709  0.7127  0.1384 -0.2418
 7723TIP3    H123133   3.775   6.100   5.792 -2.1748  0.4827  0.9897
 7723TIP3    H223134   3.699   5.984   5.731  3.3625 -1.8569 -2.2730
 7724TIP3   OH223135   5.769   1.926   3.739 -0.1190 -0.0037 -0.0243
 7724TIP3    H123136   5.833   1.941   3.670  0.9873  0.6347  1.1056
 7724TIP3    H223137   5.721   1.848   3.711  2.0796 -1.3420 -0.2598
 7725TIP3   OH223138   5.052   2.322   5.107 -0.4367  0.2368  0.0728
 7725TIP3    H123139   5.045   2.328   5.011  0.4343 -0.4781 -0.0497
 7725TIP3    H223140   5.118   2.254   5.122 -0.1078  0.7697  1.1785
 7726TIP3   OH223141   2.055   1.591   3.613 -1.2052 -1.1198  0.0454
 7726TIP3    H123142   2.138   1.569   3.655 -0.5159 -0.1492 -0.7837
 7726TIP3    H223143   2.060   1.686   3.597 -3.2646 -0.6384  1.7382
 7727TIP3   OH223144   0.236   3.637   0.372  0.2432  0.0637 -0.0871
 7727TIP3    H123145   0.254   3.572   0.304 -0.3821 -0.7701  0.5246
 7727TIP3    H223146   0.145   3.665   0.356  0.4820  0.7400 -0.3011
 7728TIP3   OH223147   6.899   4.725   4.251  0.7609  0.4674  0.1988
 7728TIP3    H123148   6.874   4.764   4.167 -1.5244  0.5548  0.8518
 7728TIP3    H223149   6.824   4.670   4.275  1.9758 -0.7133  1.5055
 7729TIP3   OH223150   4.449   6.306   3.108 -0.4231 -0.0059 -0.2429
 7729TIP3    H123151   4.366   6.340   3.076 -1.4714 -2.3807 -0.2884
 7729TIP3    H223152   4.504   6.383   3.122 -1.6308  1.4547 -2.9135
 7730TIP3   OH223153   3.954   2.798   3.346 -0.1716  0.2805 -0.3218
 7730TIP3    H123154   4.041   2.773   3.312 -0.0644 -0.7804  0.6625
 7730TIP3    H223155   3.918   2.855   3.279 -0.1213 -2.0179 -2.4440
 7731TIP3   OH223156   1.316   1.813   4.440 -0.5250 -0.1130  0.6506
 7731TIP3    H123157   1.384   1.798   4.506 -0.5326 -1.3004  0.4269
 7731TIP3    H223158   1.238   1.771   4.475 -0.7790  0.0653  0.3054
 7732TIP3   OH223159   1.473   2.599   0.472 -0.1038  0.9781 -0.0826
 7732TIP3    H123160   1.567   2.609   0.457  0.2647 -2.1568 -0.6671
 7732TIP3    H223161   1.467   2.559   0.559 -0.7062 -0.3752 -0.7079
 7733TIP3   OH223162   6.399   0.387   5.580  0.0809 -0.0706 -0.4422
 7733TIP3    H123163   6.355   0.468   5.606  1.6091  0.1190  1.8329
 7733TIP3    H223164   6.399   0.333   5.659  3.2025 -0.3202 -0.4699
 7734TIP3   OH223165   0.333   4.860   1.806 -0.4574 -0.2889 -0.1419
 7734TIP3    H123166   0.397   4.834   1.739  1.5489 -1.9471  2.2348
 7734TIP3    H223167   0.267   4.792   1.804  0.2865 -1.0406  0.3951
 7735TIP3   OH223168   1.912   1.439   4.039 -0.0016 -0.4070 -0.1233
 7735TIP3    H123169   1.915   1.444   3.944  0.5506  1.3512 -0.0491
 7735TIP3    H223170   1.957   1.357   4.061 -0.6581 -1.1186 -1.3821
 7736TIP3   OH223171   6.640   1.014   4.700 -0.0630  0.0024 -0.2315
 7736TIP3    H123172   6.566   1.058   4.657 -1.8419 -1.9152  0.6843
 7736TIP3    H223173   6.689   1.085   4.742 -2.0808  1.2795  0.1238
 7737TIP3   OH223174   3.747   5.401   1.442  0.3554  0.2002 -0.5188
 7737TIP3    H123175   3.707   5.472   1.491  0.0420  0.5049 -1.1939
 7737TIP3    H223176   3.692   5.392   1.364  0.7057 -0.4156 -0.7038
 7738TIP3   OH223177   1.685   3.002   4.125  0.6753 -0.6012 -0.2507
 7738TIP3    H123178   1.733   3.053   4.191 -0.1620 -1.0317  0.7104
 7738TIP3    H223179   1.704   2.911   4.147 -2.0409 -0.8947  1.3872
 7739TIP3   OH223180   7.192   5.636   2.797  0.3251 -0.8550  0.1127
 7739TIP3    H123181   7.177   5.602   2.885 -0.9695 -0.5101  0.0443
 7739TIP3    H223182   7.116   5.607   2.747  0.5447 -0.1794 -0.6285
 7740TIP3   OH223183   1.509   4.085   0.909 -0.3789  0.0416  0.0989
 7740TIP3    H123184   1.567   4.053   0.839  1.4205  2.6984  0.2053
 7740TIP3    H223185   1.557   4.067   0.990 -1.6192 -1.3547  0.5726
 7741TIP3   OH223186   5.136   4.459   2.426  0.1731 -0.7004  0.1350
 7741TIP3    H123187   5.115   4.458   2.333 -2.1941 -0.1613  0.6113
 7741TIP3    H223188   5.174   4.545   2.442 -0.3198 -0.4225 -0.1683
 7742TIP3   OH223189   3.234   0.189   0.459 -0.3706  0.0498  0.2074
 7742TIP3    H123190   3.281   0.246   0.519 -0.6963  0.1005  0.4180
 7742TIP3    H223191   3.184   0.248   0.403  0.6777  0.0478 -0.7576
 7743TIP3   OH223192   1.126   0.661   5.010 -0.4381  0.3552 -0.4325
 7743TIP3    H123193   1.145   0.734   4.951 -0.8039  1.2570  0.5181
 7743TIP3    H223194   1.044   0.624   4.977 -0.4688  0.6409 -0.6804
 7744TIP3   OH223195   0.298   6.048   2.499  0.1135  0.0590 -0.4360
 7744TIP3    H123196   0.282   6.134   2.461  1.1969 -0.0672 -1.2087
 7744TIP3    H223197   0.343   6.066   2.582 -1.6388  0.3016  0.5171
 7745TIP3   OH223198   2.920   3.750   1.277  0.3959 -0.2042 -0.2560
 7745TIP3    H123199   2.881   3.825   1.231  1.5133  0.8023  0.3499
 7745TIP3    H223200   2.846   3.698   1.307 -0.3810 -0.2951 -2.2046
 7746TIP3   OH223201   2.079   0.286   3.656  0.7270 -0.0459 -0.0950
 7746TIP3    H123202   2.153   0.346   3.666  0.4201  0.3654 -0.2527
 7746TIP3    H223203   2.048   0.270   3.745  0.7422  0.1232 -0.0582
 7747TIP3   OH223204   4.538   5.402   4.568 -0.6202 -0.1327 -0.1823
 7747TIP3    H123205   4.504   5.361   4.648  0.4511  0.0651  0.4063
 7747TIP3    H223206   4.581   5.482   4.599 -0.7636  0.2881 -1.0432
 7748TIP3   OH223207   1.573   1.193   4.158 -0.1821  0.3019 -0.2424
 7748TIP3    H123208   1.651   1.194   4.213 -0.3351  1.3005 -0.0164
 7748TIP3    H223209   1.557   1.286   4.136 -0.6461  0.0141 -1.2219
 7749TIP3   OH223210   0.556   2.414   2.447  0.4950 -0.1008 -0.0289
 7749TIP3    H123211   0.583   2.339   2.395 -0.0698  0.0400 -0.5433
 7749TIP3    H223212   0.569   2.490   2.389  1.4973  0.2620  0.6417
 7750TIP3   OH223213   3.782   3.165   2.943 -0.7887  0.3550  0.6563
 7750TIP3    H123214   3.803   3.209   2.861  0.7319 -0.5868  0.5045
 7750TIP3    H223215   3.709   3.215   2.980 -2.6462 -0.1495 -2.0500
 7751TIP3   OH223216   3.587   3.701   4.026  0.1551  0.5376  0.0106
 7751TIP3    H123217   3.638   3.741   3.956 -1.3457  2.6723  0.0364
 7751TIP3    H223218   3.635   3.621   4.048  1.6040  0.6899 -2.2368
 7752TIP3   OH223219   2.777   1.211   5.607  0.0238  0.1094  0.2629
 7752TIP3    H123220   2.861   1.212   5.654  1.0125 -1.4091 -1.3234
 7752TIP3    H223221   2.801   1.195   5.516 -2.0563 -1.4170 -0.0844
 7753TIP3   OH223222   7.028   1.846   4.873  0.0036 -0.6006  0.0704
 7753TIP3    H123223   7.102   1.906   4.884  1.5140 -1.7654 -2.7405
 7753TIP3    H223224   7.046   1.775   4.934  0.8609 -0.5222 -0.0692
 7754TIP3   OH223225   1.913   2.815   0.399  0.4489 -0.1062 -0.0589
 7754TIP3    H123226   1.944   2.895   0.442 -0.6933  0.1414  0.3561
 7754TIP3    H223227   1.984   2.752   0.410  1.0117  0.5929  0.3779
 7755TIP3   OH223228   2.086   0.726   0.610  0.1297  0.1823  0.1890
 7755TIP3    H123229   2.075   0.661   0.540 -0.5954  0.5002  0.0052
 7755TIP3    H223230   2.045   0.686   0.686 -2.2102  1.2665 -0.4368
 7756TIP3   OH223231   2.670   3.380   2.522  0.3936  0.2948  0.2747
 7756TIP3    H123232   2.602   3.333   2.569  0.4590 -0.5228 -0.4141
 7756TIP3    H223233   2.694   3.452   2.579 -0.3688  0.0253  0.9478
 7757TIP3   OH223234   4.118   3.797   5.284  0.2302  0.1175  0.0290
 7757TIP3    H123235   4.102   3.836   5.199  1.1642  1.3016  0.3658
 7757TIP3    H223236   4.123   3.871   5.344  0.2305 -0.6534  1.0119
 7758TIP3   OH223237   3.733   6.278   3.149 -0.1290  0.1171 -0.5880
 7758TIP3    H123238   3.758   6.189   3.124  1.4731  0.4942 -0.4743
 7758TIP3    H223239   3.756   6.332   3.073 -2.4680  0.2835 -1.2474
 7759TIP3   OH223240   2.939   0.259   3.739  0.0015  0.0491 -0.5460
 7759TIP3    H123241   2.888   0.190   3.696 -0.4380 -0.2294  0.3931
 7759TIP3    H223242   3.015   0.272   3.682  0.2709 -1.4525 -0.5957
 7760TIP3   OH223243   4.279   0.771   4.349 -0.5346  0.4393  0.1907
 7760TIP3    H123244   4.362   0.817   4.362  0.6232 -0.2991 -3.2976
 7760TIP3    H223245   4.212   0.837   4.363  0.9318  2.4174 -1.5081
 7761TIP3   OH223246   6.265   4.269   2.011 -0.0612 -0.4670  0.1842
 7761TIP3    H123247   6.177   4.240   2.037  0.0237  0.3134  1.4162
 7761TIP3    H223248   6.305   4.301   2.092  1.1961 -0.3766 -0.4498
 7762TIP3   OH223249   4.197   4.107   1.776 -0.1589 -0.3195 -0.3040
 7762TIP3    H123250   4.104   4.114   1.800 -0.3239 -1.4936 -0.5261
 7762TIP3    H223251   4.218   4.015   1.791  1.0128 -0.0332 -0.1455
 7763TIP3   OH223252   6.481   3.903   3.593 -0.5396  0.6026  0.5955
 7763TIP3    H123253   6.567   3.862   3.591 -1.0431 -0.4738  0.0225
 7763TIP3    H223254   6.493   3.988   3.549  0.4932  1.0439  1.6889
 7764TIP3   OH223255   5.403   1.509   5.195 -0.6496  0.0723 -0.0079
 7764TIP3    H123256   5.443   1.426   5.168 -1.8083 -0.4964 -0.0229
 7764TIP3    H223257   5.456   1.539   5.269 -1.5844 -1.8703  1.5326
 7765TIP3   OH223258   1.174   0.406   0.307  0.6442 -0.4945  0.0485
 7765TIP3    H123259   1.096   0.451   0.339 -0.0430 -1.5896 -0.0547
 7765TIP3    H223260   1.194   0.341   0.375  1.1317 -0.6098 -0.2010
 7766TIP3   OH223261   3.104   2.896   1.308  0.2160  0.5515 -0.4761
 7766TIP3    H123262   3.096   2.879   1.214 -0.9892 -0.8290 -0.1634
 7766TIP3    H223263   3.017   2.928   1.333  0.0334 -0.6050  0.4333
 7767TIP3   OH223264   5.041   3.880   2.453 -0.3047  0.5447  0.4393
 7767TIP3    H123265   5.085   3.816   2.397 -0.3036  0.5358  0.4500
 7767TIP3    H223266   5.077   3.965   2.427  0.5323  0.4310  1.2048
 7768TIP3   OH223267   3.871   2.855   3.800  0.0540  0.3718  0.4756
 7768TIP3    H123268   3.851   2.773   3.756 -0.9995  0.8014  0.1346
 7768TIP3    H223269   3.797   2.870   3.859 -0.2168  1.5321 -0.1421
 7769TIP3   OH223270   0.429   6.601   1.144 -0.2108 -0.0787 -0.1717
 7769TIP3    H123271   0.477   6.530   1.101 -0.1364 -0.4093  0.4548
 7769TIP3    H223272   0.470   6.609   1.230 -0.2589  0.6884 -0.2204
 7770TIP3   OH223273   3.046   3.368   0.726 -0.4081  0.4362 -0.7173
 7770TIP3    H123274   2.955   3.345   0.747  0.1769 -1.0964  0.3232
 7770TIP3    H223275   3.059   3.333   0.638 -0.8551  0.7886 -0.9302
 7771TIP3   OH223276   2.475   2.302   2.346  0.0918 -0.4277 -0.5628
 7771TIP3    H123277   2.439   2.228   2.395 -0.3879 -0.0714 -0.3781
 7771TIP3    H223278   2.409   2.370   2.352  2.0517  1.4418  2.5228
 7772TIP3   OH223279   6.772   2.784   3.754  0.1881 -0.2512 -0.4505
 7772TIP3    H123280   6.730   2.817   3.834  0.0325 -1.9937  0.2263
 7772TIP3    H223281   6.815   2.704   3.782  1.1837 -0.2313 -1.8745
 7773TIP3   OH223282   6.744   4.738   0.525 -0.7946 -0.2916 -0.2602
 7773TIP3    H123283   6.723   4.831   0.519 -2.0075 -0.4748  0.7587
 7773TIP3    H223284   6.738   4.706   0.435  0.7935  0.8276 -0.8035
 7774TIP3   OH223285   2.321   4.116   1.484 -0.3716 -0.6265  0.2476
 7774TIP3    H123286   2.338   4.174   1.559 -1.2940  0.7247 -0.5420
 7774TIP3    H223287   2.355   4.165   1.409 -0.6473 -1.3909 -0.3730
 7775TIP3   OH223288   2.992   0.028   2.461  0.1254 -0.3976  0.9851
 7775TIP3    H123289   3.074  -0.011   2.432  0.3546  0.9151 -0.2310
 7775TIP3    H223290   3.015   0.071   2.544  1.3887  2.1324 -0.5585
 7776TIP3   OH223291   1.285   0.905   1.947 -0.0463  0.0559  0.3830
 7776TIP3    H123292   1.301   0.926   2.039 -0.7594  0.4962  0.4135
 7776TIP3    H223293   1.264   0.989   1.907 -2.3217 -0.4736  0.3709
 7777TIP3   OH223294   1.576   0.360   5.678 -0.0796 -0.0070  0.6904
 7777TIP3    H123295   1.509   0.388   5.741  1.2236  4.0605  0.5950
 7777TIP3    H223296   1.653   0.412   5.701  2.0962 -2.2293 -1.1164
 7778TIP3   OH223297   3.682   4.566   2.573 -0.2553  0.2023 -0.3393
 7778TIP3    H123298   3.734   4.645   2.590  0.0621 -0.0156 -0.2796
 7778TIP3    H223299   3.629   4.588   2.497  0.0618  0.3690 -0.5180
 7779TIP3   OH223300   2.795   0.420   0.714  0.1199 -0.3045  0.3969
 7779TIP3    H123301   2.828   0.509   0.726 -0.9430  0.2954 -0.8523
 7779TIP3    H223302   2.798   0.405   0.619  0.3983 -1.6531  0.5901
 7780TIP3   OH223303   2.134   4.407   3.382  0.9357 -0.4474 -0.3657
 7780TIP3    H123304   2.195   4.359   3.437  1.5677 -0.5474 -1.1219
 7780TIP3    H223305   2.131   4.495   3.419  0.0069 -0.9592  0.8438
 7781TIP3   OH223306   1.333   1.778   3.109  0.0555 -0.3255  0.4873
 7781TIP3    H123307   1.242   1.753   3.124 -0.2278  0.0787 -0.4925
 7781TIP3    H223308   1.359   1.728   3.031  0.5310 -0.0930  0.4944
 7782TIP3   OH223309   1.399   3.870   2.040  0.1722  0.6972 -0.6733
 7782TIP3    H123310   1.362   3.950   2.004 -0.2659 -0.1254 -2.1561
 7782TIP3    H223311   1.347   3.853   2.119 -0.3083  1.4051 -0.8314
 7783TIP3   OH223312   1.257   6.679   3.266  0.7712 -0.6254 -0.1826
 7783TIP3    H123313   1.294   6.748   3.321 -0.4318  1.4235 -1.7661
 7783TIP3    H223314   1.325   6.661   3.201  0.2856  0.8264 -1.1571
 7784TIP3   OH223315   2.160   3.251   3.766  0.3314 -0.1672  0.0657
 7784TIP3    H123316   2.098   3.182   3.741 -0.8418  1.0706 -0.5729
 7784TIP3    H223317   2.245   3.221   3.732 -0.6619  0.0431 -2.8864
 7785TIP3   OH223318   5.581   5.915   4.905 -0.2510  0.4214  0.4380
 7785TIP3    H123319   5.572   5.856   4.829 -2.7300  0.8333  0.3446
 7785TIP3    H223320   5.615   5.996   4.868 -1.8947  0.7816 -0.3780
 7786TIP3   OH223321   1.704   5.295   5.799  0.0755  0.0090  0.2877
 7786TIP3    H123322   1.620   5.320   5.763 -1.0941 -0.7127  2.3331
 7786TIP3    H223323   1.718   5.354   5.873  1.0406 -0.3094  0.3800
 7787TIP3   OH223324   1.519   3.170   1.201  0.3450 -0.5779 -0.0875
 7787TIP3    H123325   1.431   3.143   1.176  0.3657  0.3385 -1.2027
 7787TIP3    H223326   1.573   3.091   1.189  0.3237 -0.2490 -2.8485
 7788TIP3   OH223327   3.096   5.886   4.992  0.2056  0.3713  0.0681
 7788TIP3    H123328   3.067   5.921   4.908 -1.0109 -1.1613 -0.1880
 7788TIP3    H223329   3.033   5.921   5.055 -0.1822 -0.2028  0.0097
 7789TIP3   OH223330   1.435   0.453   2.119  0.5097  0.3634 -0.3426
 7789TIP3    H123331   1.414   0.365   2.091  0.5326  0.1397  0.3308
 7789TIP3    H223332   1.405   0.509   2.048  0.0356 -0.1464 -0.5479
 7790TIP3   OH223333   5.854   2.579   5.481  0.3402 -0.7918 -0.3130
 7790TIP3    H123334   5.906   2.658   5.470 -0.1000  0.0564  2.8212
 7790TIP3    H223335   5.763   2.609   5.482  0.1875 -1.1743  1.4648
 7791TIP3   OH223336   4.814   3.293   4.972 -0.1599 -0.3809  0.1530
 7791TIP3    H123337   4.769   3.370   4.938 -0.0655 -0.8189 -1.0343
 7791TIP3    H223338   4.747   3.224   4.971 -0.8536  0.0957  3.1660
 7792TIP3   OH223339   6.951   6.372   2.783  0.5209 -0.1309 -0.0360
 7792TIP3    H123340   6.946   6.454   2.734  2.5163 -0.2731 -0.5441
 7792TIP3    H223341   6.936   6.304   2.717  0.1799 -0.2263  0.1383
 7793TIP3   OH223342   4.037   3.674   1.702 -0.1792 -0.3001  0.1643
 7793TIP3    H123343   3.958   3.660   1.753  0.8168 -0.6464  1.6767
 7793TIP3    H223344   4.081   3.589   1.701  0.5661  0.0766  0.0405
 7794TIP3   OH223345   4.074   6.768   5.330 -0.0170 -0.4124 -0.2899
 7794TIP3    H123346   3.986   6.757   5.365 -0.0287  0.7015  0.0511
 7794TIP3    H223347   4.132   6.759   5.405  0.2563 -2.0841 -0.6539
 7795TIP3   OH223348   5.706   5.321   1.289 -0.4105 -0.1648  0.0662
 7795TIP3    H123349   5.779   5.315   1.352  1.3081  0.0281 -1.7875
 7795TIP3    H223350   5.660   5.237   1.298  0.3593 -0.5236  0.9211
 7796TIP3   OH223351   4.946   2.975   5.224  0.1046  0.1075 -0.2899
 7796TIP3    H123352   4.989   2.965   5.139 -1.4712  0.1878 -1.1241
 7796TIP3    H223353   4.959   3.067   5.246  0.1035  0.2015 -0.6729
 7797TIP3   OH223354   1.515   0.807   3.760 -0.4089  0.6473 -0.3009
 7797TIP3    H123355   1.516   0.903   3.767 -1.1329  0.6619 -0.2742
 7797TIP3    H223356   1.422   0.786   3.746 -0.2614 -0.0552 -0.2317
 7798TIP3   OH223357   5.327   3.107   1.035 -0.0760  0.4942 -0.2846
 7798TIP3    H123358   5.377   3.186   1.056 -0.3662  0.6857 -0.2902
 7798TIP3    H223359   5.323   3.058   1.117  2.2323 -0.7635 -0.8434
 7799TIP3   OH223360   1.354   2.746   2.070 -0.6633  0.3072 -0.1379
 7799TIP3    H123361   1.334   2.671   2.015 -0.2929 -1.3089  1.8167
 7799TIP3    H223362   1.280   2.806   2.056 -0.8561 -0.2824 -1.9079
 7800TIP3   OH223363   2.381   5.539   2.697  0.2891  0.2262 -0.2330
 7800TIP3    H123364   2.322   5.613   2.702  0.3987  0.2493  1.5706
 7800TIP3    H223365   2.342   5.481   2.631 -0.5333  1.2328 -0.6627
 7801TIP3   OH223366   3.783   5.546   2.616  0.4699  0.0572 -0.1695
 7801TIP3    H123367   3.787   5.463   2.664  0.3581  0.6167  0.8434
 7801TIP3    H223368   3.763   5.521   2.526  2.7376 -1.1673 -0.3915
 7802TIP3   OH223369   1.403   4.220   2.047 -0.9758  0.7394 -0.8934
 7802TIP3    H123370   1.342   4.240   2.118  0.0553 -1.6704  0.7902
 7802TIP3    H223371   1.352   4.167   1.986 -0.9009 -0.4038 -0.0005
 7803TIP3   OH223372   2.545   1.242   5.796  0.5116 -0.3239 -0.0229
 7803TIP3    H123373   2.590   1.211   5.875 -0.4685 -1.4820  0.1202
 7803TIP3    H223374   2.595   1.203   5.724  1.1750  0.4152  0.0201
 7804TIP3   OH223375   3.386   0.135   2.855 -0.1400 -0.0805 -0.3287
 7804TIP3    H123376   3.320   0.115   2.788 -0.4446 -1.1438  0.2713
 7804TIP3    H223377   3.341   0.119   2.938  1.0884 -1.5447  0.0867
 7805TIP3   OH223378   5.373   0.415   4.811 -0.3532 -0.1772 -0.5225
 7805TIP3    H123379   5.291   0.448   4.850  1.7690  2.6824  1.9861
 7805TIP3    H223380   5.383   0.328   4.848 -3.2981 -1.6516 -2.7581
 7806TIP3   OH223381   3.144   4.999   2.707  0.0802 -0.2798 -0.5592
 7806TIP3    H123382   3.198   5.030   2.780  0.3988  0.9705 -1.2956
 7806TIP3    H223383   3.054   5.002   2.740  0.2321  0.1661 -0.1813
 7807TIP3   OH223384   4.006   6.771   4.664  0.3355 -0.1930 -0.3741
 7807TIP3    H123385   3.985   6.814   4.581 -0.7568 -1.0549 -0.5612
 7807TIP3    H223386   4.006   6.677   4.644 -2.6517 -0.6204  1.1054
 7808TIP3   OH223387   2.054   3.419   2.972  0.0658 -0.5268  0.1920
 7808TIP3    H123388   2.071   3.499   3.022 -1.6631 -0.1521  0.2280
 7808TIP3    H223389   2.124   3.359   2.999  1.1636  0.8110  0.4690
 7809TIP3   OH223390   0.093   1.434   4.577 -0.4943  0.0517  0.6216
 7809TIP3    H123391   0.179   1.421   4.538 -0.0567  3.5166  0.0498
 7809TIP3    H223392   0.031   1.407   4.509  0.0736 -2.2322  0.9454
 7810TIP3   OH223393   4.027   2.479   1.661  0.3472  0.1359  0.6487
 7810TIP3    H123394   4.063   2.430   1.587 -0.4017  2.2509 -1.2120
 7810TIP3    H223395   3.934   2.460   1.659  0.4856 -0.8066  1.9035
 7811TIP3   OH223396   5.257   5.009   4.567 -0.0195  0.1393  0.0262
 7811TIP3    H123397   5.292   4.932   4.523  0.3341  1.6562 -2.5525
 7811TIP3    H223398   5.162   5.005   4.552 -0.2021 -0.5693  1.2692
 7812TIP3   OH223399   4.807   2.262   1.206  0.3737  0.0810 -0.0587
 7812TIP3    H123400   4.799   2.239   1.113  0.7113 -0.2171 -0.0141
 7812TIP3    H223401   4.900   2.282   1.218  0.2157  0.7758  0.0676
 7813TIP3   OH223402   0.500   2.273   3.898  0.4489 -0.0499  0.3458
 7813TIP3    H123403   0.531   2.184   3.884  1.2884 -0.0151  1.8306
 7813TIP3    H223404   0.575   2.319   3.935 -0.0138  1.2530 -0.2718
 7814TIP3   OH223405   3.915   1.734   4.230 -0.6026  0.6126 -0.5095
 7814TIP3    H123406   3.929   1.769   4.143 -0.2367  0.7179 -0.4104
 7814TIP3    H223407   3.948   1.801   4.289  2.3622 -0.8085 -0.3580
 7815TIP3   OH223408   6.511   1.583   3.233 -0.5054  0.0620  0.2346
 7815TIP3    H123409   6.479   1.673   3.225  0.4496  0.4840  1.0290
 7815TIP3    H223410   6.431   1.530   3.234 -1.0782  0.8529 -0.5582
 7816TIP3   OH223411   1.796   3.644   4.375  0.5926 -0.3024 -0.1293
 7816TIP3    H123412   1.763   3.627   4.287  1.5731 -0.9821 -0.3872
 7816TIP3    H223413   1.874   3.697   4.362 -0.0670  0.8477  0.4376
 7817TIP3   OH223414   5.843   0.243   2.674 -0.1018 -0.3128 -0.0491
 7817TIP3    H123415   5.868   0.151   2.664  0.2317 -0.2354  0.0655
 7817TIP3    H223416   5.907   0.291   2.621  0.5045 -0.0512  0.9008
 7818TIP3   OH223417   1.692   2.216   0.988 -0.6780 -0.4712  0.1752
 7818TIP3    H123418   1.717   2.152   1.055 -2.5780 -2.2266 -0.6929
 7818TIP3    H223419   1.638   2.279   1.036 -1.4880 -1.3527  0.4633
 7819TIP3   OH223420   0.868   0.478   0.079  0.5324 -1.1361  0.1479
 7819TIP3    H123421   0.945   0.493   0.025  0.3682 -3.4820 -0.8486
 7819TIP3    H223422   0.805   0.437   0.020 -1.0661 -0.3678  1.2374
 7820TIP3   OH223423   6.851   5.303   1.574  0.3144 -0.4071  0.3420
 7820TIP3    H123424   6.868   5.243   1.647  0.1615 -1.2535 -0.2934
 7820TIP3    H223425   6.838   5.245   1.498  1.4838  0.4697 -0.5684
 7821TIP3   OH223426   1.316   3.597   5.455 -0.1001 -0.0100 -0.0484
 7821TIP3    H123427   1.328   3.672   5.397 -0.9798  0.5092  0.4114
 7821TIP3    H223428   1.330   3.632   5.543 -0.2149 -0.4628  0.1552
 7822TIP3   OH223429   4.646   3.925   4.555  0.6020 -0.0555  0.0385
 7822TIP3    H123430   4.575   3.865   4.576  1.8300 -2.0250 -1.1118
 7822TIP3    H223431   4.614   3.975   4.480  0.4314 -0.9798 -0.5169
 7823TIP3   OH223432   3.469   3.691   0.591 -0.0870  0.1299  0.2920
 7823TIP3    H123433   3.474   3.634   0.667 -0.5710  0.7837  0.8152
 7823TIP3    H223434   3.557   3.687   0.553  0.4254  0.5021  1.3988
 7824TIP3   OH223435   1.964   5.693   3.833  0.4205 -0.7710  0.2171
 7824TIP3    H123436   1.976   5.785   3.809  1.8152 -1.0664 -0.3209
 7824TIP3    H223437   2.027   5.679   3.904  2.5512 -2.0330 -1.7536
 7825TIP3   OH223438   4.303   3.329   2.655  0.4277  0.2246 -0.1318
 7825TIP3    H123439   4.230   3.373   2.611 -0.5631 -1.0168  0.2242
 7825TIP3    H223440   4.326   3.257   2.597  0.1097 -0.5192  0.6451
 7826TIP3   OH223441   3.120   3.462   4.535  0.5994 -0.1294  0.3719
 7826TIP3    H123442   3.087   3.386   4.582  1.3879  0.2377  1.5654
 7826TIP3    H223443   3.188   3.499   4.592  2.6351 -0.4735 -1.6379
 7827TIP3   OH223444   6.061   2.888   4.153 -0.4723 -0.1388 -0.0655
 7827TIP3    H123445   6.122   2.942   4.204 -2.5747  1.8877  0.4338
 7827TIP3    H223446   6.062   2.928   4.066 -2.5845  1.2911  0.4966
 7828TIP3   OH223447   6.924   6.029   2.415 -0.6158  0.4325  0.0152
 7828TIP3    H123448   6.904   5.936   2.428  0.4445  0.3134  0.9483
 7828TIP3    H223449   6.996   6.047   2.477 -2.6475  2.5667  1.9343
 7829TIP3   OH223450   4.357   0.091   5.190  0.3580 -0.2065  0.0719
 7829TIP3    H123451   4.354   0.020   5.254  0.3086 -2.0695 -1.8769
 7829TIP3    H223452   4.285   0.148   5.214  0.6553 -0.5641  1.9561
 7830TIP3   OH223453   5.214   6.534   5.603  0.2648  0.1529  0.0336
 7830TIP3    H123454   5.192   6.465   5.665 -1.0581  0.5431  0.0277
 7830TIP3    H223455   5.188   6.615   5.647 -3.4046  0.3027 -2.0123
 7831TIP3   OH223456   2.861   1.986   2.308 -0.3558 -0.2539  0.2043
 7831TIP3    H123457   2.783   1.942   2.275 -1.1178 -1.4744  3.3084
 7831TIP3    H223458   2.929   1.919   2.306 -0.7565 -0.7977  2.1281
 7832TIP3   OH223459   2.783   4.979   3.692  0.3181 -0.2211 -0.0989
 7832TIP3    H123460   2.760   5.001   3.601  0.3942  1.5597  0.2873
 7832TIP3    H223461   2.764   5.058   3.741  3.7377  0.1238  0.8749
 7833TIP3   OH223462   4.906   5.415   5.087 -0.0342 -0.1639  0.1022
 7833TIP3    H123463   4.983   5.436   5.033  0.3046 -0.9476  0.2633
 7833TIP3    H223464   4.831   5.437   5.032  0.3069  0.4244 -0.1338
 7834TIP3   OH223465   6.120   1.769   1.638  0.2338  0.5526 -0.4079
 7834TIP3    H123466   6.129   1.674   1.652  2.8119  0.6240 -1.0797
 7834TIP3    H223467   6.068   1.776   1.558 -0.2010 -0.2769 -0.2169
 7835TIP3   OH223468   1.028   1.139   4.216  0.5357 -0.2961 -0.0770
 7835TIP3    H123469   0.937   1.164   4.200  0.7341  0.6772  0.2545
 7835TIP3    H223470   1.079   1.194   4.157  1.0202  0.5876  1.1063
 7836TIP3   OH223471   2.068   6.004   2.649  0.5944  0.6737 -0.4096
 7836TIP3    H123472   2.106   6.046   2.726  0.5800  0.9752 -0.5644
 7836TIP3    H223473   2.061   6.075   2.585  0.3705  0.4781 -0.6005
 7837TIP3   OH223474   4.613   3.133   4.216 -0.1399 -0.1240  0.5039
 7837TIP3    H123475   4.681   3.174   4.270 -0.2963 -0.7776  1.2114
 7837TIP3    H223476   4.555   3.090   4.279 -0.8520 -0.1148 -0.1318
 7838TIP3   OH223477   1.310   4.021   4.877 -0.2523  0.1193  0.3441
 7838TIP3    H123478   1.347   4.086   4.818 -1.2803  1.1914  0.8573
 7838TIP3    H223479   1.216   4.033   4.872 -0.4501 -1.0992  0.7186
 7839TIP3   OH223480   6.329   1.205   2.760 -0.0953 -0.7091 -0.0387
 7839TIP3    H123481   6.302   1.262   2.832  1.1482  0.5110 -0.4935
 7839TIP3    H223482   6.425   1.204   2.765 -0.0260 -1.2753 -1.1601
 7840TIP3   OH223483   6.633   5.810   5.299 -0.1952  0.1873  0.2148
 7840TIP3    H123484   6.578   5.732   5.299  0.3284 -0.2081 -0.7578
 7840TIP3    H223485   6.635   5.838   5.390 -3.8096  1.5465  0.0350
 7841TIP3   OH223486   2.202   3.962   5.791  0.3014  0.1328  0.3222
 7841TIP3    H123487   2.185   4.023   5.862 -2.2988 -0.5002  0.3505
 7841TIP3    H223488   2.142   3.888   5.808  0.1964 -0.4051 -2.0377
 7842TIP3   OH223489   0.251   6.524   0.584 -0.1093 -0.0993 -0.3946
 7842TIP3    H123490   0.279   6.563   0.667  0.7617 -0.4373 -0.5195
 7842TIP3    H223491   0.235   6.432   0.606 -3.2624  0.4732  0.1612
 7843TIP3   OH223492   5.671   3.538   5.148  0.0802  0.0024 -0.8068
 7843TIP3    H123493   5.683   3.466   5.087  0.2326 -1.0867  0.4807
 7843TIP3    H223494   5.692   3.616   5.097  0.8384 -0.9287 -1.9608
 7844TIP3   OH223495   1.466   5.127   4.463 -0.6486  0.2534  0.4920
 7844TIP3    H123496   1.528   5.174   4.408 -1.7030 -1.8080 -2.8183
 7844TIP3    H223497   1.520   5.073   4.520  0.6933 -0.7131 -1.5708
 7845TIP3   OH223498   0.404   2.180   1.351  0.4021  0.1515 -0.1403
 7845TIP3    H123499   0.342   2.178   1.424  0.1754 -0.2185 -0.3382
 7845TIP3    H223500   0.490   2.179   1.392  0.2739 -0.0088  0.1239
 7846TIP3   OH223501   0.975   2.042   4.091 -0.3753 -0.3254 -0.7218
 7846TIP3    H123502   0.966   1.970   4.029 -0.7718 -0.4307 -0.5465
 7846TIP3    H223503   1.058   2.084   4.068  1.8566 -3.1294  1.5509
 7847TIP3   OH223504   6.065   5.777   5.448 -0.1315  0.0481 -0.0622
 7847TIP3    H123505   6.145   5.797   5.497  0.1661 -0.5852 -0.2738
 7847TIP3    H223506   6.051   5.855   5.394  0.3538  0.1651 -0.0317
 7848TIP3   OH223507   0.244   3.238   2.336 -0.2970 -0.3338  1.1546
 7848TIP3    H123508   0.333   3.217   2.365 -0.8881 -1.7540  2.0044
 7848TIP3    H223509   0.192   3.238   2.416 -1.1917 -0.1099  0.5854
 7849TIP3   OH223510   1.607   5.807   4.792  0.2738  0.1358 -0.2958
 7849TIP3    H123511   1.613   5.855   4.874 -0.5467 -0.1358 -0.0633
 7849TIP3    H223512   1.584   5.874   4.727 -1.0140  0.0568  0.0528
 7850TIP3   OH223513   5.162   3.941   4.580  0.6192 -0.1229  0.3740
 7850TIP3    H123514   5.168   3.987   4.663 -0.4234 -1.1570  1.0469
 7850TIP3    H223515   5.130   3.854   4.602 -0.9699 -0.0089 -1.2062
 7851TIP3   OH223516   5.358   1.745   1.561  0.1504 -0.1550  0.2647
 7851TIP3    H123517   5.334   1.738   1.653 -0.4131 -3.2034 -0.0317
 7851TIP3    H223518   5.282   1.785   1.519  0.2216  0.7930  1.0087
 7852TIP3   OH223519   3.690   4.763   4.653  0.5451  0.0810  0.1046
 7852TIP3    H123520   3.596   4.776   4.640  0.3761 -0.0240  1.1738
 7852TIP3    H223521   3.719   4.718   4.573 -0.0636  1.2138 -0.7946
 7853TIP3   OH223522   2.667   0.450   0.948  0.1725  0.3542 -0.2328
 7853TIP3    H123523   2.709   0.438   0.863 -0.8514  0.2001 -0.7425
 7853TIP3    H223524   2.719   0.397   1.009  0.7330  0.2236 -0.8173
 7854TIP3   OH223525   6.000   2.564   3.772 -0.4771  0.1634  0.5827
 7854TIP3    H123526   6.088   2.542   3.742 -0.2838  1.2337  0.3074
 7854TIP3    H223527   5.944   2.495   3.737  0.3588 -1.0330  1.5111
 7855TIP3   OH223528   0.895   5.108   2.227  0.4790 -0.5866 -0.2461
 7855TIP3    H123529   0.861   5.155   2.151 -2.4101 -0.0930  1.2223
 7855TIP3    H223530   0.901   5.175   2.295  2.3471 -1.1706  0.2192
 7856TIP3   OH223531   7.142   0.765   3.667 -0.0274  0.4666 -0.2011
 7856TIP3    H123532   7.213   0.710   3.635  0.5816  1.7359 -1.0767
 7856TIP3    H223533   7.089   0.706   3.721  2.6582 -0.0911  2.0199
 7857TIP3   OH223534   6.429   1.622   2.949 -0.4154  0.1070 -0.6107
 7857TIP3    H123535   6.412   1.690   3.013 -0.4305  0.7897 -1.3171
 7857TIP3    H223536   6.524   1.626   2.934 -0.2658 -0.6837  0.0454
 7858TIP3   OH223537   0.484   5.521   2.433 -0.5746 -0.1842 -0.2724
 7858TIP3    H123538   0.392   5.541   2.420 -0.5479  0.2728  0.1992
 7858TIP3    H223539   0.530   5.580   2.374 -0.5715 -0.1340 -0.2203
 7859TIP3   OH223540   0.204   4.582   3.962  0.1786 -0.0675 -0.0553
 7859TIP3    H123541   0.154   4.576   3.881 -0.3197 -0.2948  0.2630
 7859TIP3    H223542   0.288   4.621   3.936 -0.2288  0.4909 -0.5662
 7860TIP3   OH223543   0.543   4.683   5.181  0.0839  0.6453 -0.3249
 7860TIP3    H123544   0.543   4.779   5.185 -0.0171  0.7350 -1.8994
 7860TIP3    H223545   0.482   4.656   5.250 -0.1063  1.7187 -0.0560
 7861TIP3   OH223546   0.832   0.479   0.709 -0.6866  0.8645  0.3430
 7861TIP3    H123547   0.840   0.569   0.743  0.8647  0.7589  0.3194
 7861TIP3    H223548   0.771   0.487   0.635  0.0260  2.0463 -0.1469
 7862TIP3   OH223549   0.964   4.106   2.587 -0.5429  0.2908 -0.2601
 7862TIP3    H123550   0.983   4.094   2.493 -0.3664  1.9767 -0.4581
 7862TIP3    H223551   0.988   4.022   2.626  1.5658  0.2657 -1.4095
 7863TIP3   OH223552   4.971   6.383   3.716 -0.3786 -0.0419 -0.1850
 7863TIP3    H123553   4.888   6.392   3.763 -0.3616 -0.4550 -0.0776
 7863TIP3    H223554   4.981   6.289   3.702  0.0138  0.0163 -0.3039
 7864TIP3   OH223555   6.815   1.511   5.088  0.9148 -0.2613  0.0376
 7864TIP3    H123556   6.797   1.591   5.137 -1.4380 -0.2340 -0.7668
 7864TIP3    H223557   6.807   1.441   5.153  0.0146 -0.0689  0.1376
 7865TIP3   OH223558   4.186   3.466   1.623 -0.7494 -0.1059  0.5179
 7865TIP3    H123559   4.279   3.472   1.598 -0.1191 -1.0450  2.4670
 7865TIP3    H223560   4.154   3.390   1.574 -0.4912  0.1815 -0.1178
 7866TIP3   OH223561   6.230   5.258   3.368  0.4050  0.6609  0.0661
 7866TIP3    H123562   6.149   5.270   3.418 -0.1228  0.6130 -0.7657
 7866TIP3    H223563   6.298   5.293   3.425  0.1712 -1.6067  1.8734
 7867TIP3   OH223564   4.675   1.572   0.701 -0.0509  0.8632  0.8358
 7867TIP3    H123565   4.735   1.500   0.720  0.6903  0.4057 -2.6312
 7867TIP3    H223566   4.609   1.534   0.643  1.1956  3.1371 -2.3535
 7868TIP3   OH223567   3.800   6.253   2.722  0.2899  0.5782 -0.0312
 7868TIP3    H123568   3.824   6.168   2.685 -0.9405  0.5810 -0.9259
 7868TIP3    H223569   3.799   6.313   2.647  1.1621  1.4125  0.5895
 7869TIP3   OH223570   0.863   5.059   4.194  0.3906 -0.3024  0.4436
 7869TIP3    H123571   0.932   5.052   4.259  0.6345  0.5919  0.2956
 7869TIP3    H223572   0.890   5.000   4.124  0.1468 -1.2355  1.1258
 7870TIP3   OH223573   2.944   1.018   1.306  0.3666  0.1247  0.8043
 7870TIP3    H123574   2.910   0.950   1.364 -0.8547  1.2623  1.4744
 7870TIP3    H223575   3.036   0.996   1.294  0.6091 -0.2538  3.0330
 7871TIP3   OH223576   1.945   2.016   2.854  0.1174  0.3521 -0.6626
 7871TIP3    H123577   2.012   1.990   2.791 -0.0368 -0.9429 -0.3097
 7871TIP3    H223578   1.865   1.975   2.822 -0.1533  0.4583 -0.1259
 7872TIP3   OH223579   1.960   5.392   4.437  0.0371 -0.7372 -0.2040
 7872TIP3    H123580   1.956   5.368   4.530 -0.0736 -0.6461 -0.1855
 7872TIP3    H223581   1.901   5.467   4.429 -0.4419 -1.1341 -0.4701
 7873TIP3   OH223582   1.689   3.607   3.457 -0.0559 -0.3787 -0.2225
 7873TIP3    H123583   1.735   3.620   3.374 -0.9519  0.4474 -0.6064
 7873TIP3    H223584   1.597   3.626   3.437 -0.5886 -1.9610  0.5301
 7874TIP3   OH223585   4.619   1.046   2.560  0.3933 -0.1921  0.1007
 7874TIP3    H123586   4.644   1.133   2.590  3.9181 -1.3674  0.9944
 7874TIP3    H223587   4.639   1.045   2.467  0.4751 -0.1051  0.1181
 7875TIP3   OH223588   6.607   1.399   5.551 -0.4604  0.1011 -0.3097
 7875TIP3    H123589   6.619   1.480   5.601 -2.7703 -0.0920  0.6921
 7875TIP3    H223590   6.541   1.422   5.485 -1.6017 -1.0718  0.3776
 7876TIP3   OH223591   6.894   6.391   3.399 -0.0324  0.0521 -0.1626
 7876TIP3    H123592   6.963   6.350   3.452 -0.5224 -0.2138  0.2813
 7876TIP3    H223593   6.892   6.482   3.429 -1.7485 -0.5754  1.8566
 7877TIP3   OH223594   6.124   0.462   1.954  0.1284 -0.3785 -0.2012
 7877TIP3    H123595   6.056   0.394   1.959  0.8469 -1.0866  0.0634
 7877TIP3    H223596   6.184   0.442   2.026 -1.0210  2.0762  1.5923
 7878TIP3   OH223597   1.627   1.856   2.919  0.0797  0.4716  0.4813
 7878TIP3    H123598   1.629   1.860   2.823  0.8448  0.2191  0.4755
 7878TIP3    H223599   1.601   1.944   2.946 -1.7882  0.0937  0.0165
 7879TIP3   OH223600   6.060   5.081   2.043  0.2667  0.4938  0.3159
 7879TIP3    H123601   6.047   5.013   1.977  2.3650  0.1458  0.1921
 7879TIP3    H223602   6.074   5.033   2.124 -2.0221  0.9143  1.0209
 7880TIP3   OH223603   3.202   4.787   1.094  0.1978  0.2678 -0.6808
 7880TIP3    H123604   3.255   4.714   1.128 -0.4908  0.6809  1.4261
 7880TIP3    H223605   3.255   4.865   1.111  0.0668  0.4372 -1.0445
 7881TIP3   OH223606   1.337   3.526   2.289 -0.4888 -0.2411 -0.1971
 7881TIP3    H123607   1.363   3.487   2.373  0.4809 -0.4930 -0.5927
 7881TIP3    H223608   1.404   3.496   2.228 -0.4375  1.0169 -0.7827
 7882TIP3   OH223609   0.520   1.810   0.369 -0.1175  0.0766  0.2737
 7882TIP3    H123610   0.598   1.762   0.398 -0.1698 -0.8715 -1.0977
 7882TIP3    H223611   0.454   1.743   0.356 -0.8926  0.7773  0.4847
 7883TIP3   OH223612   0.310   6.008   3.577  0.2683 -0.3354  0.4885
 7883TIP3    H123613   0.347   5.974   3.495 -0.9179  0.9252 -0.6257
 7883TIP3    H223614   0.384   6.053   3.619  1.0264 -1.4522  0.4001
 7884TIP3   OH223615   4.449   2.750   5.229  0.1689 -0.2038  0.1250
 7884TIP3    H123616   4.516   2.776   5.292  0.4406 -0.9582  0.1565
 7884TIP3    H223617   4.367   2.786   5.264  0.6403  1.3932 -0.3070
 7885TIP3   OH223618   4.952   2.057   0.639  0.2376  0.2200 -0.3193
 7885TIP3    H123619   4.856   2.064   0.640  0.3270  4.5484  1.6058
 7885TIP3    H223620   4.974   2.011   0.720 -0.2070  0.4636 -0.0555
 7886TIP3   OH223621   2.255   1.626   4.430  0.1775 -0.6055 -0.1750
 7886TIP3    H123622   2.301   1.686   4.371  0.0383 -1.3640 -1.0882
 7886TIP3    H223623   2.279   1.655   4.518 -0.3912  1.1751 -0.5707
 7887TIP3   OH223624   4.549   2.154   5.286 -0.9919 -0.1835 -0.1118
 7887TIP3    H123625   4.530   2.151   5.193 -0.1684 -0.4024 -0.2772
 7887TIP3    H223626   4.568   2.063   5.310  0.9041  0.1470 -0.1928
 7888TIP3   OH223627   0.541   0.645   4.513  0.3000 -0.8950  0.2025
 7888TIP3    H123628   0.550   0.596   4.595  2.2890  0.6823  1.0301
 7888TIP3    H223629   0.463   0.700   4.527  1.2802  0.2252  1.6020
 7889TIP3   OH223630   0.851   4.812   2.991  0.4450 -0.0126 -0.1687
 7889TIP3    H123631   0.862   4.772   3.077 -0.6816 -0.5302 -0.2473
 7889TIP3    H223632   0.761   4.789   2.965  0.0401  1.8690 -0.5822
 7890TIP3   OH223633   7.025   2.706   0.003  0.3108  0.5215  0.7886
 7890TIP3    H123634   6.981   2.658   0.072 -0.9000 -0.3247 -0.5175
 7890TIP3    H223635   7.117   2.679   0.009  0.6292  1.8903  3.1904
 7891TIP3   OH223636   3.561   1.909   3.964  0.3371  0.2660  1.1599
 7891TIP3    H123637   3.571   1.988   4.016 -0.3647  0.2505  1.3266
 7891TIP3    H223638   3.574   1.837   4.027 -0.5645  0.2469  1.3396
 7892TIP3   OH223639   6.018   2.081   4.179  0.1464 -0.1273 -0.1829
 7892TIP3    H123640   6.016   2.175   4.199  0.4687 -0.2217  0.3241
 7892TIP3    H223641   5.928   2.061   4.151 -0.3727  0.0183  1.2688
 7893TIP3   OH223642   0.390   3.663   1.864  0.4667 -0.2227 -0.0803
 7893TIP3    H123643   0.442   3.614   1.928 -0.2904 -1.9998 -0.7393
 7893TIP3    H223644   0.454   3.706   1.808  1.2029 -0.8442  0.2639
 7894TIP3   OH223645   0.664   2.755   4.102  0.2472 -0.7484  0.0274
 7894TIP3    H123646   0.589   2.704   4.133 -0.6879  0.6473  0.1346
 7894TIP3    H223647   0.663   2.744   4.007 -1.4496  0.9955 -0.2075
 7895TIP3   OH223648   4.850   1.336   0.797  0.1467 -0.2560 -0.2629
 7895TIP3    H123649   4.866   1.241   0.793 -1.7703 -0.6448  0.4116
 7895TIP3    H223650   4.919   1.369   0.855  0.2177 -1.4131  0.3489
 7896TIP3   OH223651   6.491   1.331   2.184  0.1329  0.5472 -0.2497
 7896TIP3    H123652   6.429   1.312   2.113 -0.7953  1.3666  0.3056
 7896TIP3    H223653   6.440   1.317   2.264  1.1822 -0.4197  0.2677
 7897TIP3   OH223654   0.077   4.553   0.374 -0.1523 -0.3554 -0.1052
 7897TIP3    H123655   0.131   4.586   0.446  0.2256  0.7808 -0.8939
 7897TIP3    H223656  -0.004   4.525   0.417  0.4917 -0.7308  0.9026
 7898TIP3   OH223657   4.201   1.422  -0.024 -0.3154 -0.2523  0.1118
 7898TIP3    H123658   4.199   1.397   0.069  1.9841 -2.5479 -0.3596
 7898TIP3    H223659   4.277   1.479  -0.031 -1.2762  1.0520 -0.1925
 7899TIP3   OH223660   3.871   0.254   0.980 -0.2738  0.2832 -1.4484
 7899TIP3    H123661   3.962   0.283   0.982 -0.1654 -0.0642 -1.2787
 7899TIP3    H223662   3.847   0.255   0.888  0.0419 -0.0583 -1.5357
 7900TIP3   OH223663   2.761   6.586   4.693 -0.2347  0.0757 -0.6693
 7900TIP3    H123664   2.762   6.577   4.598  0.5996  0.3970 -0.7028
 7900TIP3    H223665   2.678   6.630   4.712 -0.9861 -1.1056 -1.1240
 7901TIP3   OH223666   6.932   0.975   1.919 -0.4611  0.0425  0.3172
 7901TIP3    H123667   6.960   0.964   2.010  0.1200 -0.5020  0.0795
 7901TIP3    H223668   6.969   1.059   1.892  1.2242 -0.7876 -0.0809
 7902TIP3   OH223669   0.668   1.055   0.281  0.3964  0.1943  0.2124
 7902TIP3    H123670   0.642   1.017   0.197 -0.2304 -0.4898  0.7100
 7902TIP3    H223671   0.653   1.149   0.270  2.3288  0.4035 -1.1685
 7903TIP3   OH223672   3.124   1.495   5.041  0.0235 -0.7715  0.2656
 7903TIP3    H123673   3.144   1.429   4.975 -0.2260 -0.4099 -0.1760
 7903TIP3    H223674   3.041   1.466   5.079 -0.6005 -0.1987 -0.6163
 7904TIP3   OH223675   2.949   3.957   0.415  0.2204 -0.0381  0.3825
 7904TIP3    H123676   2.936   3.957   0.320 -1.0772  0.8073  0.5377
 7904TIP3    H223677   2.940   3.865   0.440 -0.5691 -0.1268 -0.1782
 7905TIP3   OH223678   4.170   5.586   2.810  0.4511 -0.2456  0.0515
 7905TIP3    H123679   4.151   5.524   2.739 -1.0952 -0.0255  0.2401
 7905TIP3    H223680   4.243   5.638   2.777 -0.1775 -0.2097 -1.3673
 7906TIP3   OH223681   6.997   2.206   1.709 -0.1038  0.2391  0.0262
 7906TIP3    H123682   6.989   2.164   1.623  1.5454 -1.1546  0.5084
 7906TIP3    H223683   6.929   2.165   1.762 -0.2490  0.1388 -0.2362
 7907TIP3   OH223684   0.958   4.970   3.610 -0.0924 -0.0987 -0.2146
 7907TIP3    H123685   1.011   4.941   3.684 -3.2107 -1.5787  1.6488
 7907TIP3    H223686   0.999   4.930   3.533  0.9491 -1.9645  1.2396
 7908TIP3   OH223687   1.179   3.742   3.584 -0.3953  0.2879 -0.2629
 7908TIP3    H123688   1.162   3.805   3.514  0.0984 -0.9584 -1.5498
 7908TIP3    H223689   1.128   3.665   3.560  0.6981 -0.5755  0.1294
 7909TIP3   OH223690   1.133   1.648   4.541 -0.1115  0.1999  0.3077
 7909TIP3    H123691   1.058   1.707   4.544  0.6807  1.2658 -0.2628
 7909TIP3    H223692   1.133   1.605   4.626 -1.2336  0.3401  0.3951
 7910TIP3   OH223693   0.247   1.319   0.813 -0.0269  0.3512  0.6169
 7910TIP3    H123694   0.315   1.333   0.879  0.4224 -2.7684  0.9640
 7910TIP3    H223695   0.292   1.270   0.744 -1.6124 -0.6946  0.2847
 7911TIP3   OH223696   6.310   3.845   0.487 -0.2656  0.2013 -0.0791
 7911TIP3    H123697   6.219   3.842   0.458 -0.6167 -2.9360  0.9619
 7911TIP3    H223698   6.308   3.811   0.577  1.8487  0.8122  0.2639
 7912TIP3   OH223699   6.229   2.807   0.392  0.3507 -0.2566 -0.4546
 7912TIP3    H123700   6.235   2.736   0.455 -1.6337 -1.6034 -1.6422
 7912TIP3    H223701   6.304   2.863   0.410  0.8972 -1.6097  1.7933
 7913TIP3   OH223702   1.833   4.204   4.622  0.8657  0.3541  0.8030
 7913TIP3    H123703   1.901   4.143   4.593  1.8761  1.4470  0.7952
 7913TIP3    H223704   1.818   4.261   4.546  0.0414  0.2301  0.8596
 7914TIP3   OH223705   3.014   6.122   0.541  0.1686  0.5755  0.3701
 7914TIP3    H123706   3.104   6.151   0.558  1.0227  0.5857 -3.4531
 7914TIP3    H223707   2.971   6.198   0.502 -1.2654  0.2723  1.2854
 7915TIP3   OH223708   5.568   3.801   3.283 -0.4782  0.3450  0.2424
 7915TIP3    H123709   5.562   3.777   3.190 -0.4930  1.0300  0.0581
 7915TIP3    H223710   5.612   3.886   3.283  4.8735 -2.0356  1.1843
 7916TIP3   OH223711   5.292   5.052   5.872  0.4132 -0.2960 -0.0783
 7916TIP3    H123712   5.278   5.049   5.967 -1.6531  1.1803 -0.2572
 7916TIP3    H223713   5.246   4.976   5.838 -0.2764  0.0765  0.0001
 7917TIP3   OH223714   4.903   0.977   2.171  0.2166  0.4209  0.5958
 7917TIP3    H123715   4.970   0.917   2.137 -0.4182 -0.1763  0.3992
 7917TIP3    H223716   4.934   0.999   2.259 -0.0663 -1.0093  1.0752
 7918TIP3   OH223717   6.661   2.009   3.440 -0.0554  0.2765  1.1856
 7918TIP3    H123718   6.576   2.029   3.400  1.1225  0.3377 -1.5091
 7918TIP3    H223719   6.681   1.920   3.409  1.3085  0.6598  0.9044
 7919TIP3   OH223720   1.091   2.892   4.076 -0.3895 -0.2343  0.1755
 7919TIP3    H123721   1.087   2.797   4.086  1.6533 -0.4698 -0.6926
 7919TIP3    H223722   1.071   2.907   3.984 -1.0291  0.2194  0.3822
 7920TIP3   OH223723   6.714   1.669   2.084 -0.6415 -0.0642  0.2659
 7920TIP3    H123724   6.773   1.733   2.044 -0.4270  0.6550  1.6536
 7920TIP3    H223725   6.627   1.693   2.053 -0.4869  0.5063  0.2681
 7921TIP3   OH223726   6.980   6.017   4.500 -0.4101 -0.1081 -0.0615
 7921TIP3    H123727   7.038   5.941   4.485  2.6914  2.2490 -1.1060
 7921TIP3    H223728   6.969   6.020   4.595 -0.1601 -1.5479  0.0412
 7922TIP3   OH223729   0.863   6.554   0.797  0.0160 -0.2167 -0.6730
 7922TIP3    H123730   0.949   6.555   0.754  0.1161 -0.5607 -0.4823
 7922TIP3    H223731   0.851   6.643   0.830  0.3031 -0.1717 -0.6933
 7923TIP3   OH223732   0.037   4.586   0.107  0.0012  0.2194 -0.4660
 7923TIP3    H123733   0.044   4.568   0.201  1.4034  0.1679 -0.5588
 7923TIP3    H223734   0.125   4.615   0.081 -0.8291  2.1682 -1.3717
 7924TIP3   OH223735   6.228   1.000   0.491  0.1081  0.6955  0.3434
 7924TIP3    H123736   6.258   1.037   0.408 -1.0356  2.2018  0.5686
 7924TIP3    H223737   6.132   1.000   0.484 -0.0134 -3.0963  0.0202
 7925TIP3   OH223738   6.158   3.408   0.532  0.1472  0.2695 -0.0768
 7925TIP3    H123739   6.167   3.457   0.614  0.1176  0.4708 -0.1917
 7925TIP3    H223740   6.236   3.354   0.528 -0.2594 -0.3725  0.4999
 7926TIP3   OH223741   1.975   3.830   0.611 -0.0611  0.4828  0.1939
 7926TIP3    H123742   1.959   3.837   0.517  1.4058 -1.1071 -0.2343
 7926TIP3    H223743   2.059   3.874   0.624  0.7673 -1.0577  0.3508
 7927TIP3   OH223744   0.542   4.005   4.541 -0.0983 -0.1723 -0.2424
 7927TIP3    H123745   0.527   4.063   4.466 -1.2689  0.0063  0.1101
 7927TIP3    H223746   0.634   4.019   4.565  0.3492 -0.3865 -1.7602
 7928TIP3   OH223747   0.273   3.415   5.452  0.0260  0.2593  0.4456
 7928TIP3    H123748   0.307   3.327   5.468 -0.6276  0.0550  0.7530
 7928TIP3    H223749   0.189   3.401   5.409  2.0368  0.7395 -4.3447
 7929TIP3   OH223750   0.686   1.236   2.365 -0.3248 -0.1482 -0.2258
 7929TIP3    H123751   0.638   1.278   2.437  0.3097  0.0296  0.0982
 7929TIP3    H223752   0.691   1.144   2.390 -0.4405 -0.1561 -0.2302
 7930TIP3   OH223753   7.232   2.405   0.556  0.1700 -0.4715  0.1845
 7930TIP3    H123754   7.240   2.336   0.491 -0.3904 -1.0239  0.6857
 7930TIP3    H223755   7.138   2.423   0.562  0.0969 -1.1640  1.5712
 7931TIP3   OH223756   5.533   2.362   1.152  0.0528 -0.1690  0.0017
 7931TIP3    H123757   5.605   2.425   1.145 -1.0282  1.4267  2.0718
 7931TIP3    H223758   5.467   2.395   1.092  0.2561 -0.4928 -0.4050
 7932TIP3   OH223759   4.384   5.163   0.572 -0.1554 -0.0909  0.4478
 7932TIP3    H123760   4.329   5.118   0.636  0.8733  0.3060  1.6481
 7932TIP3    H223761   4.473   5.134   0.592  0.2533  0.5922 -0.3435
 7933TIP3   OH223762   4.304   4.221   2.255 -0.0889 -0.1518 -0.1035
 7933TIP3    H123763   4.240   4.152   2.236 -1.6998  1.1701  0.2133
 7933TIP3    H223764   4.325   4.208   2.348  0.5067 -0.9028 -0.3383
 7934TIP3   OH223765   3.591   2.083   2.909  0.4799  0.0383 -0.1884
 7934TIP3    H123766   3.523   2.058   2.972 -0.6345  2.8291 -0.1643
 7934TIP3    H223767   3.576   2.025   2.834 -1.2515 -0.1546  0.2590
 7935TIP3   OH223768   0.360   0.827   5.887 -0.4867 -0.5276 -0.3386
 7935TIP3    H123769   0.321   0.793   5.806 -0.9378 -0.1909 -0.2611
 7935TIP3    H223770   0.436   0.877   5.858 -0.7233 -0.2978 -0.5660
 7936TIP3   OH223771   0.079   1.754   0.512  0.1250  0.2168 -0.2549
 7936TIP3    H123772   0.069   1.747   0.606  0.0162  0.6377 -0.2328
 7936TIP3    H223773   0.008   1.701   0.476  1.3722 -1.6412 -0.1176
 7937TIP3   OH223774   0.715   2.757   4.802 -0.1006  0.5324  0.2245
 7937TIP3    H123775   0.695   2.695   4.873 -2.7258  0.6028 -0.3503
 7937TIP3    H223776   0.629   2.787   4.772  1.0335  2.6904 -1.0947
 7938TIP3   OH223777   3.260   0.124   3.909 -0.1960  0.4627 -0.4524
 7938TIP3    H123778   3.268   0.216   3.883 -0.5061  0.7490  0.4183
 7938TIP3    H223779   3.264   0.126   4.004 -0.6621 -0.3871 -0.4084
 7939TIP3   OH223780   4.543   6.580   2.658  0.5384  0.4705 -0.0661
 7939TIP3    H123781   4.618   6.550   2.710  0.8656 -0.3905 -1.0063
 7939TIP3    H223782   4.546   6.675   2.663  2.0674  0.4661 -0.6213
 7940TIP3   OH223783   2.941   4.447   3.134 -0.6755 -0.3032  0.0814
 7940TIP3    H123784   2.878   4.518   3.123 -1.7812 -0.9717  1.7324
 7940TIP3    H223785   3.026   4.491   3.143 -1.0978  0.6974 -0.6666
 7941TIP3   OH223786   3.209   2.220   2.925 -0.5166 -0.0276  0.4612
 7941TIP3    H123787   3.208   2.129   2.954  2.9144  0.0135  1.0776
 7941TIP3    H223788   3.201   2.215   2.830 -1.3099 -0.8867  0.5600
 7942TIP3   OH223789   5.057   0.657   5.775  0.0286  0.1790  0.2025
 7942TIP3    H123790   5.078   0.616   5.858 -1.5352 -1.1534 -0.0079
 7942TIP3    H223791   4.965   0.634   5.759  0.4782 -0.2374 -2.2309
 7943TIP3   OH223792   2.715   3.816   2.217  0.1392  0.4428 -0.0439
 7943TIP3    H123793   2.660   3.747   2.180  3.1929 -1.4225 -1.5190
 7943TIP3    H223794   2.698   3.813   2.311 -0.7652 -1.4380 -0.2241
 7944TIP3   OH223795   1.376   5.242   2.287 -0.1701  0.1124  0.2052
 7944TIP3    H123796   1.328   5.161   2.303  0.6692 -0.6026 -0.7525
 7944TIP3    H223797   1.373   5.289   2.371 -1.8366 -0.2590  0.3774
 7945TIP3   OH223798   0.440   4.670   3.813  0.0470 -0.0562 -0.2771
 7945TIP3    H123799   0.533   4.668   3.789 -0.0783 -1.0752 -0.7228
 7945TIP3    H223800   0.394   4.638   3.735 -0.5258 -1.3766  0.5617
 7946TIP3   OH223801   6.708   3.449   3.266 -0.7219 -0.0587 -0.2092
 7946TIP3    H123802   6.620   3.443   3.229 -0.8001 -1.4038  0.1473
 7946TIP3    H223803   6.731   3.542   3.259 -2.3474  0.3981  0.1184
 7947TIP3   OH223804   4.229   2.842   5.336  0.0634 -0.1567  0.8163
 7947TIP3    H123805   4.159   2.787   5.371  0.3776  0.6171  2.7707
 7947TIP3    H223806   4.190   2.928   5.327 -0.5605 -0.6346 -2.6668
 7948TIP3   OH223807   2.756   2.770   3.201 -0.3124  0.0023 -0.4069
 7948TIP3    H123808   2.845   2.739   3.183  0.1621  1.0958 -0.0432
 7948TIP3    H223809   2.755   2.859   3.167 -1.5587 -0.2992 -1.1922
 7949TIP3   OH223810   2.479   1.566   3.084  0.2575 -0.4964 -0.4878
 7949TIP3    H123811   2.471   1.538   2.993  0.0040 -1.5761 -0.1469
 7949TIP3    H223812   2.565   1.606   3.090  0.3676 -0.6357 -1.1475
 7950TIP3   OH223813   1.768   5.387   2.730  0.2247  0.0284  0.0363
 7950TIP3    H123814   1.824   5.310   2.721 -1.1665 -1.0475  0.2798
 7950TIP3    H223815   1.777   5.433   2.646  1.0399 -0.4078 -0.1279
 7951TIP3   OH223816   7.001   3.739   3.089  0.2846  0.0570  0.2310
 7951TIP3    H123817   7.000   3.644   3.101  1.7148  0.1155  1.1061
 7951TIP3    H223818   7.082   3.755   3.039 -0.3806  0.7458 -0.6500
 7952TIP3   OH223819   2.060   0.788   2.535 -0.1886 -0.1587 -0.0418
 7952TIP3    H123820   2.094   0.740   2.460  1.2766  1.3680 -0.4219
 7952TIP3    H223821   1.977   0.745   2.556 -0.9457 -0.2593 -2.9177
 7953TIP3   OH223822   5.110   3.065   3.163  0.1117  0.2190 -0.1773
 7953TIP3    H123823   5.087   3.080   3.255 -0.5614  0.7375 -0.4244
 7953TIP3    H223824   5.074   3.140   3.116  0.4260 -0.0545 -0.8763
 7954TIP3   OH223825   3.619   1.081   4.974 -0.4162  0.3795 -0.3376
 7954TIP3    H123826   3.617   1.112   5.065  1.9078  0.6360 -0.2985
 7954TIP3    H223827   3.618   1.161   4.921 -3.8696  0.2272 -0.7450
 7955TIP3   OH223828   0.561   1.556   3.828 -0.1934  0.1235  0.5326
 7955TIP3    H123829   0.513   1.573   3.747 -0.2237 -0.2864  0.4653
 7955TIP3    H223830   0.598   1.641   3.852 -1.5123  0.6020  0.9480
 7956TIP3   OH223831   1.679   6.339   2.482 -0.5324 -0.1768 -0.2982
 7956TIP3    H123832   1.755   6.321   2.538 -0.3572  0.9807 -0.1375
 7956TIP3    H223833   1.705   6.416   2.431  0.3640 -2.6665 -3.9589
 7957TIP3   OH223834   4.693   3.947   0.010 -0.0536  0.0208 -0.0784
 7957TIP3    H123835   4.712   4.033   0.047 -2.1512  0.0001  1.2100
 7957TIP3    H223836   4.681   3.890   0.086 -1.0873 -0.8309 -0.8438
 7958TIP3   OH223837   5.463   5.277   3.723  0.5803  0.5117  0.2686
 7958TIP3    H123838   5.378   5.320   3.713  1.3552  2.5580  1.7355
 7958TIP3    H223839   5.446   5.206   3.785 -0.1636  0.5174  0.0829
 7959TIP3   OH223840   5.601   1.505   1.015 -0.5130  0.1789  0.1201
 7959TIP3    H123841   5.659   1.577   1.039  0.9453 -0.4784 -1.2467
 7959TIP3    H223842   5.555   1.484   1.096  0.3336  1.4667  0.9787
 7960TIP3   OH223843   6.709   2.504   0.766 -0.1035  0.1948  0.3997
 7960TIP3    H123844   6.713   2.496   0.670 -2.1062  1.4746  0.1467
 7960TIP3    H223845   6.661   2.426   0.794  1.1387 -0.5663  0.4676
 7961TIP3   OH223846   1.914   3.097   5.692  0.1414  0.0110 -0.1955
 7961TIP3    H123847   1.992   3.062   5.648  0.0996 -0.6367  0.2300
 7961TIP3    H223848   1.869   3.019   5.725 -0.1918  0.4491  0.3839
 7962TIP3   OH223849   7.040   4.977   0.081  0.2893  0.2678  0.7339
 7962TIP3    H123850   7.078   5.053   0.038  0.2819 -1.7308 -3.2270
 7962TIP3    H223851   6.955   4.964   0.039  1.2871 -3.1985 -0.6433
 7963TIP3   OH223852   5.909   4.164   3.463 -0.6029 -0.5668  0.1599
 7963TIP3    H123853   5.840   4.218   3.501  0.0384  0.0051  0.5282
 7963TIP3    H223854   5.947   4.117   3.537  1.2077  1.1748  0.4292
 7964TIP3   OH223855   5.611   1.803   2.548 -0.3995  0.0389 -0.3920
 7964TIP3    H123856   5.563   1.779   2.469  1.6146 -0.4178 -1.5320
 7964TIP3    H223857   5.580   1.742   2.615 -1.3948 -0.2144 -1.0680
 7965TIP3   OH223858   0.314   0.120   1.816 -0.6569  0.3497  0.0222
 7965TIP3    H123859   0.334   0.054   1.750  0.4548  1.3066 -0.6298
 7965TIP3    H223860   0.384   0.112   1.881  0.0321  1.4852 -0.5466
 7966TIP3   OH223861   4.719   6.708   4.895 -0.3455 -0.2383  0.2758
 7966TIP3    H123862   4.641   6.760   4.875  1.0996  2.0513  0.2638
 7966TIP3    H223863   4.733   6.655   4.816 -1.4270 -0.1375 -0.0073
 7967TIP3   OH223864   1.809   3.317   0.921  0.7550  0.2515 -0.0894
 7967TIP3    H123865   1.892   3.302   0.876  0.0748 -0.6264 -1.0902
 7967TIP3    H223866   1.765   3.382   0.868  0.2876 -0.1898 -0.2444
 7968TIP3   OH223867   0.232   0.699   0.832 -0.0013 -0.4974 -0.0871
 7968TIP3    H123868   0.220   0.773   0.892 -0.0463  0.5864 -1.4036
 7968TIP3    H223869   0.325   0.702   0.809 -0.4438  0.5942 -1.9193
 7969TIP3   OH223870   1.269   5.595   2.332 -0.3339 -0.1787 -0.3415
 7969TIP3    H123871   1.204   5.532   2.299  0.8916 -2.1943  0.9261
 7969TIP3    H223872   1.263   5.588   2.427  1.9818 -0.7149 -0.1841
 7970TIP3   OH223873   5.667   6.459   4.771 -0.2733 -0.1439  0.6728
 7970TIP3    H123874   5.669   6.461   4.866  0.2013  1.2094  0.6500
 7970TIP3    H223875   5.721   6.533   4.743 -2.1981  0.8813 -0.6091
 7971TIP3   OH223876   1.992   1.681   4.773 -0.7080  0.2504  0.0020
 7971TIP3    H123877   2.072   1.692   4.825  0.3205  0.3624 -1.5467
 7971TIP3    H223878   2.003   1.741   4.699  0.0844 -3.1796 -2.9012
 7972TIP3   OH223879   3.109   3.285   4.330 -0.5700 -0.0037 -0.3936
 7972TIP3    H123880   3.174   3.233   4.378 -0.5755 -1.4626 -1.8721
 7972TIP3    H223881   3.086   3.356   4.390 -0.7229 -1.8120  1.8326
 7973TIP3   OH223882   0.145   1.532   3.580 -0.1144  0.1959 -0.0031
 7973TIP3    H123883   0.212   1.600   3.589  0.5368 -0.4378 -0.0003
 7973TIP3    H223884   0.069   1.568   3.626  0.8277  0.1279  1.7137
 7974TIP3   OH223885   4.831   5.673   3.807  0.1463  0.3149  0.1561
 7974TIP3    H123886   4.742   5.640   3.817  0.9212 -1.8763  0.4486
 7974TIP3    H223887   4.887   5.601   3.836  2.0268  1.8402  0.5809
 7975TIP3   OH223888   3.286   3.311   5.850  0.2243 -0.3623 -0.6534
 7975TIP3    H123889   3.200   3.345   5.874  0.1797  1.3175 -2.8215
 7975TIP3    H223890   3.281   3.218   5.870 -1.8263 -0.1743  0.0070
 7976TIP3   OH223891   2.401   0.609   3.976 -0.0710  0.3297 -0.3349
 7976TIP3    H123892   2.439   0.689   3.942 -0.3430 -0.7766 -3.5916
 7976TIP3    H223893   2.476   0.557   4.005  0.3058  0.8360 -0.3922
 7977TIP3   OH223894   5.645   4.698   5.345 -0.3006  0.3119  0.1283
 7977TIP3    H123895   5.663   4.751   5.267 -0.9779 -1.1210 -1.0420
 7977TIP3    H223896   5.565   4.735   5.381  0.6747  1.7726  0.8991
 7978TIP3   OH223897   2.901   5.867   1.427 -0.1371  0.1743  0.3202
 7978TIP3    H123898   2.836   5.935   1.442 -0.4282 -0.1342  0.4799
 7978TIP3    H223899   2.909   5.861   1.332 -0.2396  0.3072  0.3034
 7979TIP3   OH223900   6.652   2.345   5.026 -0.5251 -0.5854  0.5185
 7979TIP3    H123901   6.732   2.325   4.978 -1.3783 -0.3491 -1.0898
 7979TIP3    H223902   6.601   2.264   5.023 -0.8110 -0.4103  0.5550
 7980TIP3   OH223903   5.537   0.911   3.537  0.0637 -0.2471 -0.3901
 7980TIP3    H123904   5.479   0.853   3.487  1.4450 -0.2339 -2.1207
 7980TIP3    H223905   5.516   0.999   3.505  0.0631 -0.1014  0.0096
 7981TIP3   OH223906   2.583   4.347   4.594  0.3678 -0.7796 -0.2334
 7981TIP3    H123907   2.520   4.369   4.662  2.4038  2.1019  0.9647
 7981TIP3    H223908   2.534   4.351   4.512 -0.8369  2.9433  0.4839
 7982TIP3   OH223909   1.359   5.567   3.890  0.1849  0.2432  0.3127
 7982TIP3    H123910   1.263   5.566   3.889  0.1796 -0.4591  0.7627
 7982TIP3    H223911   1.383   5.480   3.922  0.9839  0.1578 -0.4835
 7983TIP3   OH223912   0.144   0.593   3.661  0.2870 -0.1349  0.5289
 7983TIP3    H123913   0.124   0.523   3.598 -0.0158  0.0458  0.4260
 7983TIP3    H223914   0.114   0.558   3.745 -1.6473  0.6248  0.2030
 7984TIP3   OH223915   2.676   2.494   4.031  0.1913  0.2936  0.3873
 7984TIP3    H123916   2.603   2.480   4.093 -3.1100  1.0833 -2.9355
 7984TIP3    H223917   2.701   2.407   4.002 -0.4359  0.0546  0.5523
 7985TIP3   OH223918   4.944   2.696   3.963  0.7200  0.1696 -0.0618
 7985TIP3    H123919   4.895   2.772   3.931 -0.4759 -0.2876  0.6043
 7985TIP3    H223920   4.907   2.679   4.050  1.4500 -0.7474  0.0833
 7986TIP3   OH223921   4.687   5.291   1.400 -0.1894  0.1289  0.0874
 7986TIP3    H123922   4.749   5.218   1.399  1.8819  1.7743  0.6688
 7986TIP3    H223923   4.669   5.307   1.493  0.5850  1.2656  0.0678
 7987TIP3   OH223924   3.381   4.562   0.730 -0.3809 -0.2950  0.1209
 7987TIP3    H123925   3.447   4.515   0.780  1.5012 -0.6609 -2.4965
 7987TIP3    H223926   3.377   4.517   0.646 -3.0406  0.5575 -0.3179
 7988TIP3   OH223927   6.334   2.667   3.920  0.0202  0.2448  0.0311
 7988TIP3    H123928   6.390   2.595   3.951 -0.8885 -0.5753 -0.1855
 7988TIP3    H223929   6.312   2.716   3.999 -1.1810 -1.0429  0.5541
 7989TIP3   OH223930   1.553   3.365   1.824 -0.3455 -0.6373 -0.3666
 7989TIP3    H123931   1.464   3.359   1.789 -1.1496  0.8462  1.2547
 7989TIP3    H223932   1.542   3.359   1.919  0.9255  2.2359  0.0674
 7990TIP3   OH223933   0.208   6.271   0.731  0.2369 -0.9068 -0.4420
 7990TIP3    H123934   0.174   6.195   0.683  0.2053 -1.4843  0.4496
 7990TIP3    H223935   0.294   6.242   0.762  1.0605  0.1180 -1.6891
 7991TIP3   OH223936   0.301   5.756   5.667 -0.4694  0.5502  0.0006
 7991TIP3    H123937   0.225   5.697   5.665 -0.8375  0.9534  1.2038
 7991TIP3    H223938   0.370   5.705   5.709 -1.3595  1.5338  2.8940
 7992TIP3   OH223939   5.479   0.864   1.557  0.1721 -0.1025 -0.1007
 7992TIP3    H123940   5.542   0.874   1.485  0.3279 -1.7704 -0.2297
 7992TIP3    H223941   5.493   0.775   1.590  0.2177  0.6602  2.1233
 7993TIP3   OH223942   6.142   1.223   3.255  0.2860 -0.4305  0.2043
 7993TIP3    H123943   6.190   1.171   3.191 -0.9250  1.4327 -2.4368
 7993TIP3    H223944   6.051   1.219   3.225 -0.1429  1.5031  1.0794
 7994TIP3   OH223945   3.031   1.138   4.169  0.3370 -0.1999 -0.5793
 7994TIP3    H123946   3.055   1.098   4.252 -1.9755 -2.3516 -0.8181
 7994TIP3    H223947   3.115   1.149   4.123  1.5168 -0.2962  1.4382
 7995TIP3   OH223948   1.567   1.746   5.167  0.0074 -0.2346  0.2475
 7995TIP3    H123949   1.588   1.653   5.180 -0.1497 -0.2263  0.5834
 7995TIP3    H223950   1.636   1.778   5.110 -1.2137 -1.1039 -1.8429
 7996TIP3   OH223951   6.580   6.011   4.631 -0.3901 -0.3371 -0.6533
 7996TIP3    H123952   6.607   5.936   4.578  0.8554 -1.3367  1.2914
 7996TIP3    H223953   6.512   5.976   4.688  0.5204 -0.1384  0.5892
 7997TIP3   OH223954   2.424   0.183   0.042  0.0738 -0.1094  0.3349
 7997TIP3    H123955   2.433   0.109   0.102  0.8928  0.1995  0.5979
 7997TIP3    H223956   2.354   0.236   0.079 -0.1875 -0.4979  0.4043
 7998TIP3   OH223957   5.102   3.951   3.877  0.3593 -0.1809  0.3551
 7998TIP3    H123958   5.193   3.929   3.860  1.0898  1.0090  2.3685
 7998TIP3    H223959   5.062   3.960   3.790  2.4146  0.3088 -0.5889
 7999TIP3   OH223960   5.569   2.532   3.247 -0.3121  0.5760 -0.0633
 7999TIP3    H123961   5.541   2.549   3.336 -1.8818 -0.9849 -0.2170
 7999TIP3    H223962   5.503   2.574   3.192  0.5591  1.3973 -0.5229
 8000TIP3   OH223963   1.465   2.717   2.636 -0.0103  0.3141  0.2144
 8000TIP3    H123964   1.531   2.651   2.655 -0.3958 -0.1405 -0.0076
 8000TIP3    H223965   1.512   2.801   2.643 -0.1122  0.2284  3.1931
 8001TIP3   OH223966   5.022   2.491   4.841  0.2432  0.0657  0.4777
 8001TIP3    H123967   4.953   2.538   4.887  0.6500 -1.0613  2.3366
 8001TIP3    H223968   4.978   2.448   4.768 -0.7176  0.6534  0.7018
 8002TIP3   OH223969   3.031   5.772   2.197  0.0422  0.5393 -0.1106
 8002TIP3    H123970   3.039   5.695   2.141  1.1154 -0.7191  1.6742
 8002TIP3    H223971   3.032   5.737   2.286 -0.4754  2.5539  0.7423
 8003TIP3   OH223972   5.509   6.324   2.948  0.3793  0.3681 -0.0141
 8003TIP3    H123973   5.467   6.264   3.010  0.4490  1.1663  0.8243
 8003TIP3    H223974   5.544   6.394   3.002 -1.5939  2.3364 -1.1042
 8004TIP3   OH223975   3.945   5.679   0.835  0.0465  0.0756  0.4418
 8004TIP3    H123976   4.019   5.732   0.805 -1.3782  2.8275  1.4485
 8004TIP3    H223977   3.912   5.636   0.756  1.1237  0.8661 -0.4660
 8005TIP3   OH223978   6.162   5.143   4.363 -0.1276  0.2790 -0.5232
 8005TIP3    H123979   6.144   5.075   4.299 -0.0435 -0.6383  0.3947
 8005TIP3    H223980   6.141   5.102   4.447  2.3830  0.4924  0.2740
 8006TIP3   OH223981   6.477   2.936   0.397  0.3656  0.0688  0.4960
 8006TIP3    H123982   6.540   2.979   0.339  0.6542  1.3692  1.7161
 8006TIP3    H223983   6.532   2.892   0.463  0.0763 -2.2744 -0.7443
 8007TIP3   OH223984   4.594   4.732   5.173 -0.3550 -0.1353  0.1748
 8007TIP3    H123985   4.685   4.739   5.204 -0.1814 -0.8452 -0.1645
 8007TIP3    H223986   4.589   4.794   5.100  0.5691 -1.8447 -1.4192
 8008TIP3   OH223987   5.299   3.661   4.219 -0.0082  0.2370 -0.4028
 8008TIP3    H123988   5.209   3.660   4.253 -0.4934  1.7634 -1.5379
 8008TIP3    H223989   5.311   3.574   4.182 -0.2750 -0.6824  1.5064
 8009TIP3   OH223990   6.667   1.205   4.171  0.1873 -0.2804  0.5404
 8009TIP3    H123991   6.637   1.118   4.146  0.6445 -0.5502  0.9078
 8009TIP3    H223992   6.625   1.264   4.108 -0.5072 -0.7141  0.5904
 8010TIP3   OH223993   4.888   3.664   0.892 -0.1761  0.4456 -0.2973
 8010TIP3    H123994   4.955   3.603   0.863 -2.4521 -2.4560  0.1369
 8010TIP3    H223995   4.921   3.750   0.865  3.8876 -0.6933  0.3905
 8011TIP3   OH223996   3.001   5.055   3.927  0.6317  0.3887 -0.0045
 8011TIP3    H123997   3.027   5.029   3.839  2.0281  1.0820  0.1773
 8011TIP3    H223998   3.059   5.128   3.949  0.2368  0.2993  1.4446
 8012TIP3   OH223999   5.458   5.174   0.412  0.7556 -0.9660  0.5836
 8012TIP3    H124000   5.552   5.187   0.403  0.5797 -0.4240 -0.7439
 8012TIP3    H224001   5.433   5.126   0.333 -0.3800  0.6857 -0.0978
 8013TIP3   OH224002   3.195   3.436   5.571 -0.2139  0.3073 -0.1075
 8013TIP3    H124003   3.185   3.361   5.512 -1.8536 -0.2832  0.8534
 8013TIP3    H224004   3.140   3.414   5.646 -0.2549  2.2155  0.4584
 8014TIP3   OH224005   5.828   3.677   1.256 -0.0723  0.2340  0.0154
 8014TIP3    H124006   5.881   3.684   1.336  1.6929 -0.0977 -1.0710
 8014TIP3    H224007   5.748   3.632   1.284  0.6519 -0.1711  1.5279
 8015TIP3   OH224008   2.839   1.481   5.025  0.0156 -0.1133 -0.0318
 8015TIP3    H124009   2.750   1.494   5.057  0.2528  1.8123 -0.0098
 8015TIP3    H224010   2.872   1.570   5.009  2.2684 -0.7036  0.8910
 8016TIP3   OH224011   0.205   2.424   5.155 -0.0345  0.4817 -0.6319
 8016TIP3    H124012   0.118   2.391   5.136  0.4934 -0.0642 -2.2901
 8016TIP3    H224013   0.254   2.413   5.073  1.4679  1.1770  0.1163
 8017TIP3   OH224014   0.249   5.544   2.307  0.3659  0.1877 -0.0846
 8017TIP3    H124015   0.181   5.543   2.374 -0.0803  1.0469 -0.5036
 8017TIP3    H224016   0.210   5.594   2.235  0.9214 -0.5106 -0.8887
 8018TIP3   OH224017   3.587   4.328   4.977  0.0251 -0.3253  0.6593
 8018TIP3    H124018   3.672   4.368   4.993  0.7571 -1.5562  0.0654
 8018TIP3    H224019   3.606   4.234   4.972 -1.0012 -0.4752 -1.5592
 8019TIP3   OH224020   5.575   5.098   1.419  0.2892 -0.4580 -0.3877
 8019TIP3    H124021   5.553   5.146   1.499 -1.0918 -1.6073 -0.0386
 8019TIP3    H224022   5.642   5.035   1.445 -0.7501 -1.4026  0.1029
 8020TIP3   OH224023   6.992   5.883   2.127 -0.7109 -0.1217  0.0698
 8020TIP3    H124024   7.070   5.935   2.147 -0.3189  0.0111 -1.6184
 8020TIP3    H224025   6.928   5.909   2.193 -0.0883  1.5414  0.0634
 8021TIP3   OH224026   0.103   6.006   1.245 -0.0875 -0.1609  0.1276
 8021TIP3    H124027   0.157   6.076   1.280 -0.5345  0.2654 -0.0274
 8021TIP3    H224028   0.127   5.929   1.296 -2.1439  0.8139  2.8176
 8022TIP3   OH224029   5.353   1.681   1.890  0.1861 -0.0587 -0.6530
 8022TIP3    H124030   5.287   1.721   1.947 -0.7283  1.2132 -2.4904
 8022TIP3    H224031   5.424   1.746   1.886 -0.0621  0.1727 -1.4759
 8023TIP3   OH224032   3.249   4.519   3.970  0.0262 -0.2865 -0.1406
 8023TIP3    H124033   3.280   4.453   3.907  2.5307  1.0770 -0.4809
 8023TIP3    H224034   3.159   4.536   3.945  0.6781 -0.3922 -2.9077
 8024TIP3   OH224035   2.115   0.560   0.036 -0.4389 -0.0923 -0.5595
 8024TIP3    H124036   2.088   0.470   0.051  0.3149 -0.2080  0.1717
 8024TIP3    H224037   2.205   0.554   0.005  0.1042  0.4455  0.8205
 8025TIP3   OH224038   5.311   1.123   5.715  0.6273  0.5197  0.7955
 8025TIP3    H124039   5.258   1.059   5.763  1.4437  0.1351  1.1974
 8025TIP3    H224040   5.401   1.097   5.731  0.9397  0.6523 -0.5796
 8026TIP3   OH224041   1.696   5.537   3.256  0.8045 -0.1072 -0.3526
 8026TIP3    H124042   1.751   5.488   3.195  1.3449 -0.8620  0.7173
 8026TIP3    H224043   1.754   5.560   3.328 -0.2861 -1.0191  0.8660
 8027TIP3   OH224044   4.493   6.059   2.389  0.1208 -0.1985  0.4607
 8027TIP3    H124045   4.399   6.073   2.405  0.1451 -0.4521  0.8606
 8027TIP3    H224046   4.502   5.964   2.383  0.3774 -0.1834  0.5896
 8028TIP3   OH224047   3.418   4.243   3.329 -0.1590 -0.3641 -0.6771
 8028TIP3    H124048   3.377   4.265   3.413 -1.1213 -0.3371 -1.1402
 8028TIP3    H224049   3.449   4.327   3.295 -0.3358 -0.2785 -0.6312
 8029TIP3   OH224050   5.624   4.960   3.530 -0.2088 -0.5767  0.7674
 8029TIP3    H124051   5.691   5.026   3.545  0.0109 -0.5613 -0.2120
 8029TIP3    H224052   5.621   4.950   3.434 -2.4642  0.3560  0.6597
 8030TIP3   OH224053   1.903   0.155   2.741 -0.1854  0.0841  0.4469
 8030TIP3    H124054   1.906   0.159   2.645  2.9487 -0.7471  0.3969
 8030TIP3    H224055   1.888   0.062   2.761  0.1009  0.1061  0.7643
 8031TIP3   OH224056   1.023   6.348   2.413  0.7936  0.3529 -0.0926
 8031TIP3    H124057   0.986   6.344   2.501 -0.8604  2.9563 -0.5733
 8031TIP3    H224058   1.074   6.267   2.405 -1.3994 -1.4034  2.1472
 8032TIP3   OH224059   3.483   4.466   2.957  0.9773  0.0979 -0.0329
 8032TIP3    H124060   3.439   4.505   2.882 -1.1291  0.2548  1.1928
 8032TIP3    H224061   3.550   4.410   2.919 -0.9015 -0.8946 -2.1288
 8033TIP3   OH224062   0.395   0.287   5.849  0.2120 -0.0461  0.4489
 8033TIP3    H124063   0.461   0.346   5.812  1.0232 -0.6469  0.9018
 8033TIP3    H224064   0.312   0.316   5.810  0.7206  0.8069 -0.0282
 8034TIP3   OH224065   4.915   6.685   5.539 -0.0644  0.2318 -0.1061
 8034TIP3    H124066   4.882   6.643   5.619  1.7376  1.6944  1.5145
 8034TIP3    H224067   4.976   6.621   5.502  0.9823  0.4775  1.1200
 8035TIP3   OH224068   1.774   1.032   4.022  0.5602  0.0692  0.1761
 8035TIP3    H124069   1.714   1.096   4.059  1.4086  0.7706  0.3754
 8035TIP3    H224070   1.725   0.950   4.021 -0.4300  0.6505  0.2168
 8036TIP3   OH224071   3.468   0.585   3.467 -0.0304  0.0037 -0.4768
 8036TIP3    H124072   3.424   0.596   3.383 -1.5600  0.6723  0.3604
 8036TIP3    H224073   3.529   0.659   3.472 -1.3979  1.1594 -0.1621
 8037TIP3   OH224074   7.176   2.018   1.855 -0.3408  0.1128  0.6495
 8037TIP3    H124075   7.138   2.058   1.777  3.2595 -0.5367 -1.6551
 8037TIP3    H224076   7.154   2.079   1.926  0.4452  3.4974 -1.7773
 8038TIP3   OH224077   4.024   4.540   5.772 -0.1742  0.0205  0.0247
 8038TIP3    H124078   4.011   4.454   5.810  1.1810 -0.4400 -0.4896
 8038TIP3    H224079   4.023   4.600   5.847 -1.9626 -0.2954  0.3095
 8039TIP3   OH224080   6.865   3.314   5.764  0.0729  0.7170  0.7586
 8039TIP3    H124081   6.921   3.330   5.688  1.0580 -0.1817  1.2757
 8039TIP3    H224082   6.896   3.376   5.830 -1.2030  1.9472  0.2568
 8040TIP3   OH224083   0.134   5.911   4.576 -0.1126 -0.4071  0.8638
 8040TIP3    H124084   0.216   5.906   4.526 -0.5860 -0.3156  0.0597
 8040TIP3    H224085   0.124   6.004   4.595  1.1850 -0.6361  3.0820
 8041TIP3   OH224086   3.520   5.581   2.909  0.3915 -0.0815 -1.3061
 8041TIP3    H124087   3.532   5.533   2.991  0.2758 -0.2735 -1.4015
 8041TIP3    H224088   3.519   5.673   2.936  1.9408 -0.0569 -1.2818
 8042TIP3   OH224089   2.252   5.954   4.325 -0.2536  0.1122  0.3977
 8042TIP3    H124090   2.270   6.004   4.404 -0.2376  0.1622  0.3629
 8042TIP3    H224091   2.324   5.975   4.266 -0.4491  0.3508  0.2404
 8043TIP3   OH224092   5.039   1.261   5.451  0.4240  0.2973 -0.1634
 8043TIP3    H124093   4.960   1.258   5.506  0.1227 -1.0435 -0.6262
 8043TIP3    H224094   5.006   1.272   5.362  0.6721 -1.1909 -0.4664
 8044TIP3   OH224095   1.309   5.000   1.024 -0.6408 -0.5033  0.4624
 8044TIP3    H124096   1.243   5.005   1.092  0.0935 -0.4363  1.1891
 8044TIP3    H224097   1.370   4.932   1.054 -0.1502 -0.2757  0.0215
 8045TIP3   OH224098   7.144   3.112   0.431  0.1099  0.2353  0.1490
 8045TIP3    H124099   7.225   3.063   0.417 -0.7608 -0.9233 -1.0947
 8045TIP3    H224100   7.155   3.190   0.376  0.3519  0.0497 -0.0741
 8046TIP3   OH224101   0.035   2.579   4.819  0.2707 -0.2562  0.6227
 8046TIP3    H124102   0.051   2.659   4.870 -0.9091 -1.1887  2.5560
 8046TIP3    H224103   0.028   2.610   4.728  0.2295  1.7918  1.2724
 8047TIP3   OH224104   5.932   0.457   1.556 -0.1255 -0.2238  0.0917
 8047TIP3    H124105   5.902   0.472   1.466  0.2732 -1.6098 -0.2988
 8047TIP3    H224106   5.864   0.403   1.595 -0.7148  1.0838  0.9153
 8048TIP3   OH224107   2.274   1.252   1.962 -0.1319  0.2157  0.2613
 8048TIP3    H124108   2.300   1.334   2.003  0.9432  0.0359 -0.0402
 8048TIP3    H224109   2.292   1.186   2.029  1.0712 -0.0118 -0.2646
 8049TIP3   OH224110   5.390   2.324   1.554  0.0383 -0.0287 -0.3733
 8049TIP3    H124111   5.438   2.291   1.629 -0.1812  0.6764  0.0894
 8049TIP3    H224112   5.419   2.269   1.481  2.6132  1.2099 -0.4189
 8050TIP3   OH224113   6.276   3.103   4.792 -0.2392 -0.2319 -0.6797
 8050TIP3    H124114   6.267   3.180   4.847  0.0982 -1.5506  1.3232
 8050TIP3    H224115   6.207   3.113   4.726 -0.3202  1.6607 -0.3582
 8051TIP3   OH224116   3.012   0.020   3.937 -0.1023  0.0279 -0.2053
 8051TIP3    H124117   2.967   0.066   3.866 -0.9627  0.0358  0.3313
 8051TIP3    H224118   3.102   0.049   3.931  0.0411 -0.6037 -1.8294
 8052TIP3   OH224119   0.784   4.238   2.757 -0.1821  0.0572  0.4044
 8052TIP3    H124120   0.732   4.158   2.754 -1.5037  0.8861  0.4565
 8052TIP3    H224121   0.857   4.221   2.697 -1.0945 -0.7439 -0.5211
 8053TIP3   OH224122   0.457   0.280   0.863 -0.4504  0.1855 -0.7119
 8053TIP3    H124123   0.399   0.225   0.810  0.1086 -0.0311 -1.1110
 8053TIP3    H224124   0.501   0.218   0.921  0.2159  0.2046 -1.1937
 8054TIP3   OH224125   2.637   6.060   2.420 -0.4014 -0.2349 -0.3582
 8054TIP3    H124126   2.663   6.007   2.345  0.4094  0.5687 -0.6634
 8054TIP3    H224127   2.701   6.130   2.424 -1.0956  0.3887  0.4071
 8055TIP3   OH224128   5.099   6.279   1.668  0.3752 -0.0931  0.7543
 8055TIP3    H124129   5.030   6.231   1.620  1.6748 -0.1044 -1.2309
 8055TIP3    H224130   5.175   6.274   1.611  1.7811  0.7181  2.4785
 8056TIP3   OH224131   3.277   3.099   1.500  0.5790 -0.3792  0.2040
 8056TIP3    H124132   3.196   3.107   1.551  1.3658  0.3715  1.3936
 8056TIP3    H224133   3.301   3.007   1.507  1.4048 -0.0600  2.4399
 8057TIP3   OH224134   1.077   0.126   4.395 -0.4967 -0.4332  0.0108
 8057TIP3    H124135   1.085   0.196   4.330 -0.6070  0.2536  0.7156
 8057TIP3    H224136   1.161   0.127   4.442 -0.4067 -0.9394 -0.1316
 8058TIP3   OH224137   4.711   5.819   0.283 -0.0664 -0.2991  0.1234
 8058TIP3    H124138   4.771   5.893   0.275  1.7004 -1.4387  1.8448
 8058TIP3    H224139   4.634   5.855   0.325  0.4743  0.7125  0.2748
 8059TIP3   OH224140   3.781   2.840   0.748 -0.4897  0.4939 -0.1085
 8059TIP3    H124141   3.699   2.830   0.797 -0.5188  0.4570 -0.1641
 8059TIP3    H224142   3.755   2.833   0.656 -0.2558 -0.8222 -0.1054
 8060TIP3   OH224143   4.988   4.462   1.379 -0.1998 -0.1008 -0.0112
 8060TIP3    H124144   5.047   4.480   1.452  1.9028 -1.1151 -1.3461
 8060TIP3    H224145   4.947   4.378   1.402  0.4446 -0.4134  0.0297
 8061TIP3   OH224146   7.017   0.486   4.643 -0.6086  0.0143 -0.4690
 8061TIP3    H124147   6.990   0.394   4.648 -0.5698 -0.0083 -0.6970
 8061TIP3    H224148   7.055   0.496   4.556 -0.7001  0.2708 -0.4809
 8062TIP3   OH224149   0.647   6.002   3.230 -0.2166 -0.1615  0.2562
 8062TIP3    H124150   0.596   5.935   3.276 -1.0354  0.7167  0.6577
 8062TIP3    H224151   0.584   6.044   3.171  0.3799  0.0012 -0.2774
 8063TIP3   OH224152   3.360   6.147   0.127  0.4726 -0.2161 -0.1206
 8063TIP3    H124153   3.298   6.080   0.156  1.5892 -0.8394  0.9107
 8063TIP3    H224154   3.343   6.222   0.184  0.1513 -0.1102 -0.3543
 8064TIP3   OH224155   4.313   1.844   0.673  0.5847 -0.4387 -0.4531
 8064TIP3    H124156   4.347   1.907   0.737 -0.7969 -1.1527  1.0741
 8064TIP3    H224157   4.339   1.759   0.708  0.0786 -0.8290 -1.0122
 8065TIP3   OH224158   5.129   3.421   1.288 -0.5199  0.1003 -0.1722
 8065TIP3    H124159   5.118   3.462   1.374  1.4072  2.4290 -0.9355
 8065TIP3    H224160   5.071   3.471   1.230 -0.8055 -0.5941 -0.4994
 8066TIP3   OH224161   5.996   0.186   0.570  0.2849  0.4569  0.3268
 8066TIP3    H124162   6.017   0.192   0.663  1.0351 -0.3599  0.2237
 8066TIP3    H224163   5.924   0.247   0.557 -0.1166  0.2498  1.5290
 8067TIP3   OH224164   5.882   3.427   3.601  0.6375 -0.2843 -0.1837
 8067TIP3    H124165   5.909   3.517   3.618  0.7250 -0.3568  0.0662
 8067TIP3    H224166   5.891   3.416   3.506 -0.3853  0.2919 -0.3593
 8068TIP3   OH224167   2.253   1.464   4.109  0.8588 -0.2532 -0.6294
 8068TIP3    H124168   2.221   1.468   4.200 -0.3344  1.5373 -1.0626
 8068TIP3    H224169   2.218   1.382   4.075 -1.3557  0.4906 -0.3386
 8069TIP3   OH224170   6.999   0.226   4.687  0.2576 -0.4871 -0.1697
 8069TIP3    H124171   6.989   0.234   4.782  1.6453  0.8931 -0.0895
 8069TIP3    H224172   7.003   0.132   4.671 -0.9208 -0.7694  1.0142
 8070TIP3   OH224173   4.201   0.299   5.304 -0.0616  0.0400  0.7160
 8070TIP3    H124174   4.264   0.369   5.289  0.5193 -0.8704 -1.6472
 8070TIP3    H224175   4.120   0.331   5.264  0.3671 -0.7937 -0.9196
 8071TIP3   OH224176   1.783   4.673   3.499  0.5941  0.2668  0.4647
 8071TIP3    H124177   1.744   4.741   3.555 -2.1503 -0.0672 -0.9140
 8071TIP3    H224178   1.865   4.712   3.469  0.4733  1.8119  1.9612
 8072TIP3   OH224179   6.972   2.511   3.116 -0.4129 -0.6064  0.4963
 8072TIP3    H124180   7.065   2.514   3.138  0.3613  1.1047 -2.4351
 8072TIP3    H224181   6.961   2.427   3.070  0.0572 -0.1842 -0.4146
 8073TIP3   OH224182   0.852   4.248   3.011 -0.1520  0.0431  0.3717
 8073TIP3    H124183   0.856   4.234   2.916  0.5385  1.0315  0.2435
 8073TIP3    H224184   0.833   4.161   3.047 -1.3808 -0.1896 -0.7230
 8074TIP3   OH224185   1.378   0.717   0.852 -0.0674 -0.3533 -0.4150
 8074TIP3    H124186   1.407   0.739   0.763  3.4223 -1.4569  0.2743
 8074TIP3    H224187   1.403   0.625   0.863 -1.9895 -0.7568  1.2025
 8075TIP3   OH224188   4.633   4.751   1.097  0.0293 -0.7589 -0.0576
 8075TIP3    H124189   4.715   4.711   1.069  0.0441  0.6172 -2.2187
 8075TIP3    H224190   4.641   4.843   1.072 -1.9464 -0.4572  0.2121
 8076TIP3   OH224191   3.093   0.913   5.178 -0.0966  0.7115  0.8686
 8076TIP3    H124192   3.044   0.905   5.260 -0.5244 -2.7298  0.4280
 8076TIP3    H224193   3.042   0.864   5.114  2.8158 -1.4570 -0.0680
 8077TIP3   OH224194   1.779   6.354   1.628  0.1846  0.1611  0.3583
 8077TIP3    H124195   1.867   6.366   1.665 -0.0065 -2.4825  1.9638
 8077TIP3    H224196   1.776   6.261   1.604 -1.6734  0.5624 -1.1610
 8078TIP3   OH224197   0.201   5.621   4.322 -0.3336  0.3572  0.0863
 8078TIP3    H124198   0.160   5.597   4.239  1.6953 -1.2071 -0.5329
 8078TIP3    H224199   0.162   5.562   4.386  1.3827 -1.6732 -0.6371
 8079TIP3   OH224200   4.232   2.439   0.762 -0.2293 -0.1627  0.3002
 8079TIP3    H124201   4.198   2.523   0.731  1.5930  1.0448  1.3754
 8079TIP3    H224202   4.227   2.444   0.857  0.7575 -0.8778  0.4146
 8080TIP3   OH224203   5.368   1.441   2.540 -0.3408 -0.3601  0.6819
 8080TIP3    H124204   5.369   1.345   2.536 -0.2848 -0.4908  2.7402
 8080TIP3    H224205   5.277   1.465   2.525 -0.7975 -0.9104  2.3928
 8081TIP3   OH224206   3.700   1.715   2.339  0.1529 -0.3565  0.1762
 8081TIP3    H124207   3.759   1.768   2.286 -1.4656  0.8299 -0.5348
 8081TIP3    H224208   3.621   1.768   2.347 -0.5924 -1.5984  1.6464
 8082TIP3   OH224209   2.155   4.415   4.427  0.2628  0.6840  0.9085
 8082TIP3    H124210   2.114   4.358   4.361  3.5416 -2.0008  0.9075
 8082TIP3    H224211   2.135   4.373   4.510  0.7789  0.8882  1.1355
 8083TIP3   OH224212   4.416   5.232   1.577  0.0104 -0.4904 -0.5771
 8083TIP3    H124213   4.422   5.140   1.548 -0.5531  0.1618 -3.0060
 8083TIP3    H224214   4.492   5.244   1.634  1.5337 -1.8498 -2.1866
 8084TIP3   OH224215   3.681   4.691   3.209  0.7740 -0.4133 -0.3205
 8084TIP3    H124216   3.690   4.786   3.202 -0.0416  0.0324  2.9507
 8084TIP3    H224217   3.769   4.660   3.229  0.7797 -0.1336  0.1017
 8085TIP3   OH224218   2.000   3.989   5.351  0.0435 -0.3873 -0.5732
 8085TIP3    H124219   2.086   4.019   5.321 -0.0924 -0.9025 -1.5341
 8085TIP3    H224220   1.961   4.065   5.395  2.1491 -0.9258  2.6001
 8086TIP3   OH224221   5.184   3.331   1.810 -0.3473  0.3509  0.8560
 8086TIP3    H124222   5.238   3.409   1.822 -0.2981  0.3212  0.8281
 8086TIP3    H224223   5.108   3.346   1.867 -0.7861  0.8239  0.1680
 8087TIP3   OH224224   4.825   4.895   4.017 -0.3385 -0.2502 -0.5725
 8087TIP3    H124225   4.759   4.828   4.036 -1.1994  1.2329  2.2644
 8087TIP3    H224226   4.872   4.906   4.100 -0.8927  3.2462 -0.5629
 8088TIP3   OH224227   2.418   3.648   2.182  0.3926 -0.5231 -0.2681
 8088TIP3    H124228   2.376   3.725   2.145  0.3973 -0.9108 -1.1043
 8088TIP3    H224229   2.483   3.622   2.117  2.4610  0.4587  1.2754
 8089TIP3   OH224230   2.369   5.430   0.542  0.0668 -0.4076 -0.3813
 8089TIP3    H124231   2.451   5.409   0.588  0.4455  0.3088 -0.7170
 8089TIP3    H224232   2.336   5.508   0.587  0.3323  0.1756 -1.1809
 8090TIP3   OH224233   4.143   0.095   5.499 -0.4996 -0.2992  0.0921
 8090TIP3    H124234   4.183   0.177   5.471  0.2085 -0.6819 -0.0187
 8090TIP3    H224235   4.107   0.057   5.419  0.5686 -0.8647 -0.1265
 8091TIP3   OH224236   1.709   2.461   2.304 -0.2680  0.2379  0.4967
 8091TIP3    H124237   1.791   2.493   2.266 -0.1622 -0.5624  0.0230
 8091TIP3    H224238   1.675   2.536   2.353  0.5044  0.7306  0.3111
 8092TIP3   OH224239   5.167   0.642   5.518  0.1965  0.0826 -0.6938
 8092TIP3    H124240   5.131   0.686   5.595  1.7370  0.3123 -0.0619
 8092TIP3    H224241   5.151   0.549   5.534 -0.1087  0.1772 -0.4351
 8093TIP3   OH224242  -0.007   1.375   0.247 -0.2755 -0.7044  0.2362
 8093TIP3    H124243   0.067   1.369   0.307  0.6912 -0.9004 -0.9283
 8093TIP3    H224244   0.021   1.326   0.169 -1.1194  0.2718 -0.7196
 8094TIP3   OH224245   6.870   4.951   5.247 -0.1438 -0.1785 -0.6610
 8094TIP3    H124246   6.964   4.940   5.233  0.2849 -0.1097  1.7379
 8094TIP3    H224247   6.853   5.043   5.227  0.3202 -0.1724 -1.0278
 8095TIP3   OH224248   0.534   5.739   2.732 -0.6122 -0.1471 -0.2208
 8095TIP3    H124249   0.485   5.659   2.715 -1.7103  0.4066  0.2595
 8095TIP3    H224250   0.499   5.802   2.669  0.2832 -0.0512 -0.6316
 8096TIP3   OH224251   4.674   3.089   4.693  0.1772  0.1938 -0.0656
 8096TIP3    H124252   4.743   3.025   4.710 -0.0552  0.2699  1.2693
 8096TIP3    H224253   4.647   3.119   4.779 -1.5834  0.1329 -0.5482
 8097TIP3   OH224254   0.176   1.341   4.098 -0.6524 -0.4045  0.3535
 8097TIP3    H124255   0.196   1.269   4.039  0.2693 -0.6581  0.9544
 8097TIP3    H224256   0.239   1.409   4.074 -1.8618  0.4298 -0.5736
 8098TIP3   OH224257   5.259   6.701   4.523 -0.3837 -0.5538 -0.1943
 8098TIP3    H124258   5.173   6.734   4.548 -0.0073 -0.8045  1.5895
 8098TIP3    H224259   5.303   6.775   4.482 -1.0360 -0.0806 -0.0481
 8099TIP3   OH224260   0.425   4.940   5.185  0.1898  0.2052 -0.9322
 8099TIP3    H124261   0.342   4.979   5.210  0.4093  0.7174 -0.9918
 8099TIP3    H224262   0.480   5.014   5.158  0.0320 -0.2770 -2.7467
 8100TIP3   OH224263   4.621   3.587   2.519 -0.6238  0.4983  0.2185
 8100TIP3    H124264   4.568   3.648   2.467  1.0175 -0.5319 -2.9363
 8100TIP3    H224265   4.711   3.609   2.497  0.0970 -1.1633  1.3042
 8101TIP3   OH224266   2.643   1.418   0.144  0.3915 -0.9305 -0.6589
 8101TIP3    H124267   2.638   1.453   0.233  0.5574 -2.4115 -0.0320
 8101TIP3    H224268   2.581   1.345   0.144  0.7346 -1.2389 -1.6233
 8102TIP3   OH224269   4.329   1.127   0.469  0.3411 -0.3751 -0.0776
 8102TIP3    H124270   4.364   1.050   0.424  1.1516  0.2830 -0.5826
 8102TIP3    H224271   4.405   1.183   0.485  0.1059 -0.5751  2.1311
 8103TIP3   OH224272   6.063   4.971   4.586  0.3250  0.0742  0.3036
 8103TIP3    H124273   5.993   5.010   4.638  0.6674 -0.1291  0.9307
 8103TIP3    H224274   6.020   4.942   4.506 -0.3043 -0.0285  0.6712
 8104TIP3   OH224275   5.332   4.755   4.950 -0.3543 -0.5576  0.1631
 8104TIP3    H124276   5.337   4.837   4.901 -1.4310 -0.5613  0.0335
 8104TIP3    H224277   5.373   4.775   5.035 -1.6455  0.4747  0.5847
 8105TIP3   OH224278   2.048   1.347   3.478 -0.1293  0.1974  0.1291
 8105TIP3    H124279   2.065   1.420   3.538  0.5872  0.2461 -0.1222
 8105TIP3    H224280   1.965   1.310   3.507 -1.6534  2.4615 -1.0593
 8106TIP3   OH224281   3.027   0.537   0.058  0.1298  0.6047 -0.1298
 8106TIP3    H124282   3.075   0.596   0.117 -0.0867  0.9669 -0.3110
 8106TIP3    H224283   3.095   0.493   0.008  0.4703 -1.3565  1.8658
 8107TIP3   OH224284   0.391   6.164   1.041 -0.3047 -0.4540  0.4339
 8107TIP3    H124285   0.406   6.072   1.064 -0.7002 -0.8413 -0.8086
 8107TIP3    H224286   0.364   6.205   1.123 -1.2521 -1.6935  0.7649
 8108TIP3   OH224287   5.779   4.723   2.525 -0.2018 -0.5058  0.3903
 8108TIP3    H124288   5.745   4.778   2.455  2.1981 -0.4510 -0.8497
 8108TIP3    H224289   5.727   4.747   2.602 -1.6178  0.8482 -0.9197
 8109TIP3   OH224290   4.833   0.906   3.744  0.5438  0.3001 -0.8767
 8109TIP3    H124291   4.829   1.002   3.741  2.5370  0.4184 -1.2491
 8109TIP3    H224292   4.742   0.878   3.732 -0.4812  2.1473  1.6139
 8110TIP3   OH224293   4.710   1.477   2.391  0.2669 -0.3016  0.2241
 8110TIP3    H124294   4.653   1.401   2.389 -0.3651  0.1472  0.6302
 8110TIP3    H224295   4.659   1.545   2.435  0.8937  0.2948  0.0693
 8111TIP3   OH224296   5.629   0.366   2.820  0.0406  0.1636  0.5000
 8111TIP3    H124297   5.686   0.358   2.744  0.7985 -0.2601  1.0922
 8111TIP3    H224298   5.542   0.379   2.784  0.4893  0.6914 -0.4323
 8112TIP3   OH224299   5.042   5.317   0.735  0.0909  0.4634 -0.0937
 8112TIP3    H124300   5.024   5.243   0.678  1.0673 -1.1833  1.6184
 8112TIP3    H224301   5.125   5.352   0.703  1.0121 -0.9113  0.6866
 8113TIP3   OH224302   2.130   6.032   5.273  0.3241  0.3456  0.4985
 8113TIP3    H124303   2.097   5.950   5.237 -0.7312  0.9927 -0.0421
 8113TIP3    H224304   2.061   6.064   5.330  1.4915 -0.0568  2.2292
 8114TIP3   OH224305   5.447   4.300   1.690 -0.2354  0.0394  0.3552
 8114TIP3    H124306   5.477   4.354   1.762  0.8926 -0.7120  0.4773
 8114TIP3    H224307   5.438   4.360   1.616  1.1552  0.3906  0.4400
 8115TIP3   OH224308   1.526   6.046   1.955  0.1730  0.4853  0.4744
 8115TIP3    H124309   1.458   6.079   2.014  0.2791  1.8813 -0.1460
 8115TIP3    H224310   1.508   6.088   1.871 -0.1132 -1.6471 -0.6038
 8116TIP3   OH224311   6.424   2.638   1.987 -0.5973 -0.2100 -0.0391
 8116TIP3    H124312   6.334   2.665   1.968 -0.3728  2.1894  1.8938
 8116TIP3    H224313   6.471   2.651   1.905 -1.3765  1.6403 -0.2367
 8117TIP3   OH224314   1.773   6.201   2.169  0.4887  0.8750 -0.3477
 8117TIP3    H124315   1.844   6.145   2.199 -0.1086 -0.1221 -0.7681
 8117TIP3    H224316   1.752   6.169   2.081  0.5901  2.2056 -0.8883
 8118TIP3   OH224317   4.623   1.720   4.980 -0.8408  0.0152  0.4916
 8118TIP3    H124318   4.554   1.681   4.926 -0.4242  0.2791 -0.2432
 8118TIP3    H224319   4.631   1.810   4.948 -0.9948  0.3662  1.3959
 8119TIP3   OH224320   0.007   5.987   1.001  0.6876  0.1908 -0.1165
 8119TIP3    H124321   0.026   6.081   0.999  1.4544  0.0708  0.5801
 8119TIP3    H224322   0.005   5.965   1.094  0.6802 -0.5133 -0.2746
 8120TIP3   OH224323   6.290   2.778   2.202 -0.1815  0.4308  0.7913
 8120TIP3    H124324   6.314   2.765   2.294 -0.5561 -2.0698  0.6162
 8120TIP3    H224325   6.307   2.693   2.161  1.4260  1.8702 -1.8360
 8121TIP3   OH224326   0.516   4.214   0.622 -0.7293 -0.0355 -0.0821
 8121TIP3    H124327   0.593   4.157   0.622 -0.6470  0.0242 -1.4830
 8121TIP3    H224328   0.479   4.203   0.534  0.1952  3.2744 -1.0153
 8122TIP3   OH224329   2.021   6.733   3.999  0.0148 -0.3156 -0.2217
 8122TIP3    H124330   2.030   6.705   3.908 -1.1829  0.9602 -0.7694
 8122TIP3    H224331   2.111   6.734   4.033  0.4210 -1.3087 -1.2234
 8123TIP3   OH224332   1.135   3.625   2.152  0.4444 -0.3788  0.0652
 8123TIP3    H124333   1.074   3.655   2.219  0.3796 -0.9332  0.2544
 8123TIP3    H224334   1.218   3.614   2.199  0.6472  0.1673 -0.1474
 8124TIP3   OH224335   5.687   2.492   2.674 -0.0390  0.0266 -0.2060
 8124TIP3    H124336   5.680   2.547   2.752 -1.3982 -0.2300 -0.1309
 8124TIP3    H224337   5.705   2.404   2.707  1.0922  0.2045 -0.2843
 8125TIP3   OH224338   6.061   3.672   3.399  0.0037 -0.0294 -0.3681
 8125TIP3    H124339   6.038   3.710   3.314  0.4953 -0.4982 -0.7148
 8125TIP3    H224340   6.140   3.621   3.382  1.0506  1.1467  0.6916
 8126TIP3   OH224341   4.277   0.947   1.073  0.1616  0.3268 -0.3769
 8126TIP3    H124342   4.237   1.001   1.141  1.6425  1.3377 -0.2755
 8126TIP3    H224343   4.338   0.890   1.120  0.8825  0.7412 -0.7934
 8127TIP3   OH224344   5.207   2.507   3.346  0.6571  0.1186  0.4180
 8127TIP3    H124345   5.219   2.485   3.438 -1.6305  2.2577  1.3364
 8127TIP3    H224346   5.126   2.463   3.321  1.5753 -0.9378 -0.7896
 8128TIP3   OH224347   1.394   5.145   2.723 -0.2120  0.7220 -0.0981
 8128TIP3    H124348   1.313   5.093   2.721 -0.9855  1.8528  0.6991
 8128TIP3    H224349   1.462   5.083   2.697 -0.8280 -1.2112  2.4752
 8129TIP3   OH224350   2.856   0.172   4.906  0.3869 -0.3395 -0.3973
 8129TIP3    H124351   2.906   0.236   4.959  1.6910 -0.4320 -1.4579
 8129TIP3    H224352   2.796   0.226   4.855 -1.1708 -0.2726  1.3988
 8130TIP3   OH224353   5.752   5.796   5.832  0.4666 -0.2882 -0.0616
 8130TIP3    H124354   5.844   5.771   5.829  0.0623 -1.8401 -0.6031
 8130TIP3    H224355   5.741   5.856   5.759  1.3962  1.3079  1.0538
 8131TIP3   OH224356   2.874   6.264   5.359 -0.8447 -0.1311 -0.2615
 8131TIP3    H124357   2.917   6.186   5.394 -1.2169 -1.1853 -1.9978
 8131TIP3    H224358   2.935   6.299   5.295 -1.0051  0.5840 -0.0346
 8132TIP3   OH224359   4.673   6.367   4.972  0.7526  0.2070  0.0803
 8132TIP3    H124360   4.652   6.452   5.009 -0.4602  0.5298 -1.2601
 8132TIP3    H224361   4.641   6.303   5.036 -0.3567  0.7523  0.0781
 8133TIP3   OH224362   1.117   1.979   1.010 -0.2252  0.4411  0.1514
 8133TIP3    H124363   1.177   1.965   1.084 -1.2970  0.6232  1.0830
 8133TIP3    H224364   1.143   2.064   0.975  0.4926  0.2136  0.1194
 8134TIP3   OH224365   3.006   6.066   2.109 -0.3579  0.1956 -0.2122
 8134TIP3    H124366   2.992   6.005   2.182  1.0250 -0.3785 -0.4114
 8134TIP3    H224367   2.962   6.147   2.137 -0.1979 -0.1452  1.0695
 8135TIP3   OH224368   1.124   0.966   0.112  0.2400 -0.1177 -0.0177
 8135TIP3    H124369   1.158   1.048   0.148 -0.8345  0.1869  0.3487
 8135TIP3    H224370   1.157   0.899   0.172 -1.1498  0.3410  1.3366
 8136TIP3   OH224371   1.008   3.706   2.383 -0.0044 -1.1130  0.0098
 8136TIP3    H124372   0.982   3.682   2.472  0.5868 -0.3309  0.3991
 8136TIP3    H224373   1.009   3.801   2.383 -1.9846 -1.0457 -1.4268
 8137TIP3   OH224374   1.802   2.797   1.994  0.3228 -0.3091  0.0117
 8137TIP3    H124375   1.888   2.812   2.033 -0.1674 -0.9832  1.4387
 8137TIP3    H224376   1.745   2.861   2.037  0.1289  0.2351 -1.0360
 8138TIP3   OH224377   4.384   2.591   1.136 -0.4420  0.2365 -0.0932
 8138TIP3    H124378   4.380   2.499   1.109  0.6344 -0.6141  2.2848
 8138TIP3    H224379   4.358   2.589   1.229 -0.9741  2.4405 -0.1460
 8139TIP3   OH224380   7.097   5.832   3.365  0.0406  0.0544  0.0803
 8139TIP3    H124381   7.116   5.910   3.312  0.4949 -1.0191 -1.4114
 8139TIP3    H224382   7.111   5.759   3.305  1.5035 -1.2991  1.9360
 8140TIP3   OH224383   3.315   2.053   0.285  0.0615 -0.6126  0.3457
 8140TIP3    H124384   3.278   2.141   0.272 -0.8496 -1.0093  0.1488
 8140TIP3    H224385   3.363   2.036   0.204  0.1317 -0.3519  0.3293
 8141TIP3   OH224386   0.042   6.609   1.074 -0.5777  0.4923  0.1924
 8141TIP3    H124387   0.114   6.668   1.050  0.1225 -0.0015  1.0342
 8141TIP3    H224388   0.012   6.641   1.159  0.5273 -0.9922  1.1739
 8142TIP3   OH224389   4.566   3.081   3.934 -0.0136  0.0224  0.1817
 8142TIP3    H124390   4.477   3.055   3.911  0.0084 -0.7124  0.8669
 8142TIP3    H224391   4.564   3.096   4.029  0.7363 -0.7174  0.3378
 8143TIP3   OH224392   2.737   4.041   1.259  0.1222  0.0415 -0.4971
 8143TIP3    H124393   2.829   4.019   1.249  0.1614  0.1768 -0.4414
 8143TIP3    H224394   2.707   4.058   1.170 -0.2039 -1.3659 -0.6821
 8144TIP3   OH224395   0.115   4.216   0.924 -0.0891 -0.1977 -0.3480
 8144TIP3    H124396   0.068   4.204   1.007 -1.0377  0.0057 -0.8380
 8144TIP3    H224397   0.061   4.171   0.860  0.3386  0.1392 -0.9508
 8145TIP3   OH224398   1.850   5.084   4.437 -0.2961  0.1886 -0.7256
 8145TIP3    H124399   1.884   5.078   4.348  1.6886 -1.6586  0.0608
 8145TIP3    H224400   1.858   5.177   4.460  2.5010  0.1862 -1.3174
 8146TIP3   OH224401   2.362   5.359   5.506 -0.0070  0.1489 -0.1430
 8146TIP3    H124402   2.390   5.295   5.571 -0.4456  0.0159 -0.0875
 8146TIP3    H224403   2.267   5.357   5.508 -0.0379 -0.3239 -1.2461
 8147TIP3   OH224404   0.372   0.030   0.220 -0.3226 -0.6220  0.2821
 8147TIP3    H124405   0.284   0.009   0.248 -0.8515  1.2380  0.1623
 8147TIP3    H224406   0.361   0.064   0.131  0.5128 -0.4784  0.2255
 8148TIP3   OH224407   4.008   4.337   1.283 -0.2790 -0.3027 -0.5493
 8148TIP3    H124408   4.042   4.287   1.210 -1.6179 -1.2177 -0.5705
 8148TIP3    H224409   3.920   4.364   1.256 -1.4123 -1.9356  1.2483
 8149TIP3   OH224410   3.699   1.995   1.899  0.0963 -0.4228  0.2236
 8149TIP3    H124411   3.762   2.028   1.962 -0.2741  0.0686  0.3405
 8149TIP3    H224412   3.714   1.901   1.897  1.3772 -0.2275 -0.3443
 8150TIP3   OH224413   1.676   6.689   0.947 -0.6698 -0.0927  0.0739
 8150TIP3    H124414   1.625   6.619   0.906 -0.2843  0.6315 -1.7795
 8150TIP3    H224415   1.678   6.758   0.880  1.1153  0.6512  0.8397
 8151TIP3   OH224416   1.823   3.498   1.563 -0.1666 -0.8526 -0.1181
 8151TIP3    H124417   1.763   3.424   1.562 -3.3589  1.5148 -0.2532
 8151TIP3    H224418   1.816   3.533   1.652  0.4920 -0.1299 -0.3373
 8152TIP3   OH224419   3.721   3.438   5.195  0.8568 -0.2461 -0.3167
 8152TIP3    H124420   3.643   3.461   5.247  0.8887 -0.2796 -0.2538
 8152TIP3    H224421   3.725   3.342   5.200  1.4584 -0.1873  0.4882
 8153TIP3   OH224422   4.881   5.836   2.820  0.3554 -0.3505  0.6006
 8153TIP3    H124423   4.853   5.840   2.911 -0.2806  0.8087  0.3752
 8153TIP3    H224424   4.854   5.749   2.790 -1.6038  0.1175  0.8617
 8154TIP3   OH224425   4.890   3.792   1.862 -0.4687 -0.7006  0.5744
 8154TIP3    H124426   4.847   3.855   1.805  0.6500 -1.7386 -1.5623
 8154TIP3    H224427   4.958   3.843   1.907 -0.7636 -0.0344  0.2786
 8155TIP3   OH224428   0.381   0.233   3.362 -0.3320 -0.5426  0.1786
 8155TIP3    H124429   0.408   0.264   3.448  1.4807  2.1668 -1.2183
 8155TIP3    H224430   0.285   0.232   3.365 -0.3134 -0.0152  2.0557
 8156TIP3   OH224431   5.633   3.524   3.607  0.6236  0.5658  0.7261
 8156TIP3    H124432   5.720   3.483   3.606  0.5914  0.4589 -0.8559
 8156TIP3    H224433   5.647   3.611   3.570  0.5738  1.8561  3.4761
 8157TIP3   OH224434   1.122   4.357   3.791  0.1674 -0.0818  0.3190
 8157TIP3    H124435   1.206   4.403   3.803  0.2502 -0.7140  2.6463
 8157TIP3    H224436   1.079   4.364   3.876 -2.3501  0.5297 -0.9179
 8158TIP3   OH224437   4.044   2.292   0.113  0.2190 -0.2056 -0.3952
 8158TIP3    H124438   4.127   2.247   0.124 -0.3545 -1.1527  0.1559
 8158TIP3    H224439   4.004   2.252   0.035 -0.5630 -1.0937  0.4491
 8159TIP3   OH224440   1.206   6.428   3.363  0.4822 -0.0206  0.6795
 8159TIP3    H124441   1.244   6.514   3.344 -1.3262  0.5611 -0.6269
 8159TIP3    H224442   1.194   6.388   3.277 -0.7815 -0.6163  1.1067
 8160TIP3   OH224443   5.625   0.251   5.435 -0.2118  0.6427 -0.3557
 8160TIP3    H124444   5.626   0.192   5.360  2.2739  0.1075 -0.0019
 8160TIP3    H224445   5.674   0.328   5.406  0.2687  0.6760  0.4890
 8161TIP3   OH224446   2.355   1.069   2.168 -0.3810  0.1428 -0.2685
 8161TIP3    H124447   2.413   1.035   2.237  2.2468  2.8404 -0.9397
 8161TIP3    H224448   2.323   0.991   2.124  1.4498 -1.5750  1.2125
 8162TIP3   OH224449   6.471   1.822   5.077 -0.0976  0.2355 -0.3297
 8162TIP3    H124450   6.500   1.735   5.050 -1.0078 -0.4230  0.7668
 8162TIP3    H224451   6.455   1.815   5.171 -0.8645  1.3882 -0.3502
 8163TIP3   OH224452   7.169   1.907   0.288 -0.3873 -0.6981  0.3367
 8163TIP3    H124453   7.170   1.819   0.249  0.7101 -1.2185  1.4738
 8163TIP3    H224454   7.220   1.898   0.369  0.1225  1.1003  0.2532
 8164TIP3   OH224455   1.691   3.510   3.862  0.0426 -0.1764 -0.1149
 8164TIP3    H124456   1.779   3.530   3.832  0.4870 -0.1771  1.1190
 8164TIP3    H224457   1.657   3.447   3.799  1.8239 -2.0165  0.6846
 8165TIP3   OH224458   5.057   3.173   2.645  0.4513 -0.3695  0.8084
 8165TIP3    H124459   5.025   3.085   2.630  2.2543 -1.1717  1.3045
 8165TIP3    H224460   5.130   3.183   2.584 -0.3273  1.1729  0.0672
 8166TIP3   OH224461   6.636   5.856   2.799 -0.0386 -0.2712  0.6633
 8166TIP3    H124462   6.648   5.951   2.811  1.0596 -0.3186  0.0194
 8166TIP3    H224463   6.589   5.848   2.716 -0.1572 -0.2946  0.7324
 8167TIP3   OH224464   5.726   0.589   0.030 -0.1935 -0.4275  0.0615
 8167TIP3    H124465   5.756   0.500   0.047 -0.6259 -0.3070  1.6203
 8167TIP3    H224466   5.711   0.626   0.117  2.6952  2.1523 -0.3994
 8168TIP3   OH224467   6.588   3.287   5.799 -0.1521 -0.5062 -0.6962
 8168TIP3    H124468   6.682   3.291   5.779 -0.2333 -0.0826 -1.0029
 8168TIP3    H224469   6.568   3.194   5.799  0.1526 -0.5797 -1.2067
 8169TIP3   OH224470   1.591   0.379   1.363 -0.4427  0.0301  0.4910
 8169TIP3    H124471   1.675   0.335   1.374 -1.1940 -1.2301  1.5131
 8169TIP3    H224472   1.600   0.460   1.414  0.6386  0.6783 -0.6600
 8170TIP3   OH224473   3.738   6.733   2.351 -0.0783  0.5025 -0.3560
 8170TIP3    H124474   3.747   6.821   2.314  0.5358  0.8517  0.5826
 8170TIP3    H224475   3.826   6.708   2.377 -0.3939  0.0249  0.2983
 8171TIP3   OH224476   6.599   6.076   5.783 -0.2312  0.1627 -0.3381
 8171TIP3    H124477   6.612   6.168   5.760 -0.7570  0.6099  1.0717
 8171TIP3    H224478   6.669   6.057   5.846 -1.0485  0.0595  0.5599
 8172TIP3   OH224479   2.005   5.729   3.202  0.2596  0.3602 -0.1518
 8172TIP3    H124480   2.001   5.777   3.120  1.9187  1.0795  0.1578
 8172TIP3    H224481   2.038   5.642   3.178 -1.3755 -0.2140 -0.5063
 8173TIP3   OH224482   1.057   2.885   2.287 -0.0566 -0.5224 -0.4704
 8173TIP3    H124483   1.094   2.895   2.199  0.3671 -1.4424 -0.4071
 8173TIP3    H224484   0.991   2.954   2.293 -0.3783 -0.6967 -1.6689
 8174TIP3   OH224485   1.205   1.949   1.684 -0.0030  0.2650  0.4994
 8174TIP3    H124486   1.250   2.003   1.749 -0.6269  0.5733  0.6786
 8174TIP3    H224487   1.121   1.928   1.724 -0.1473 -0.0512  0.0386
 8175TIP3   OH224488   6.823   4.354   1.251  0.1858 -0.6446  0.0392
 8175TIP3    H124489   6.845   4.414   1.322  1.1618 -0.5034 -0.3573
 8175TIP3    H224490   6.861   4.394   1.173 -0.5250 -0.9926 -0.5027
 8176TIP3   OH224491   6.523   4.253   3.843 -0.5593  0.2045 -0.8912
 8176TIP3    H124492   6.484   4.318   3.784 -0.8690  2.5036  1.6169
 8176TIP3    H224493   6.523   4.296   3.928  0.4468 -2.6874  0.6975
 8177TIP3   OH224494   2.430   1.954   3.546  0.3170 -0.2168 -0.4783
 8177TIP3    H124495   2.472   1.877   3.583  1.8701  1.8445  2.4570
 8177TIP3    H224496   2.342   1.953   3.582  0.8284  0.1095  0.8586
 8178TIP3   OH224497   6.272   5.997   3.309 -0.2709 -0.3354 -0.0149
 8178TIP3    H124498   6.276   5.918   3.363 -1.5504  0.6610  1.6207
 8178TIP3    H224499   6.300   5.967   3.222  0.9710 -2.1963  0.9436
 8179TIP3   OH224500   2.456   2.404   4.169  0.7331  0.3042 -0.6150
 8179TIP3    H124501   2.371   2.402   4.214  1.3918  0.4257  0.6733
 8179TIP3    H224502   2.463   2.317   4.129  0.7598 -0.3522  0.7488
 8180TIP3   OH224503   1.744   3.560   1.823 -0.2977 -0.7846  0.0324
 8180TIP3    H124504   1.716   3.627   1.885 -0.0528 -1.4241  0.8580
 8180TIP3    H224505   1.683   3.487   1.837  0.6743 -1.5178  0.6213
 8181TIP3   OH224506   0.434   2.049   4.198  0.1240 -0.2850 -0.1998
 8181TIP3    H124507   0.408   2.140   4.187  2.0717  0.3964  0.4806
 8181TIP3    H224508   0.521   2.044   4.159  0.4557 -1.6167  0.6543
 8182TIP3   OH224509   5.282   6.613   1.881 -1.0366 -0.2665 -0.9651
 8182TIP3    H124510   5.311   6.689   1.831  0.5538 -1.3920 -1.8588
 8182TIP3    H224511   5.356   6.592   1.937 -0.0448 -3.0225 -3.0606
 8183TIP3   OH224512   2.679   0.679   5.087 -0.3512  0.6664  0.1740
 8183TIP3    H124513   2.734   0.755   5.068  0.4357  0.5204  1.7390
 8183TIP3    H224514   2.708   0.612   5.025  0.3660  0.9881  0.1569
 8184TIP3   OH224515   7.167   2.070   4.443 -0.1055 -0.3352 -0.6083
 8184TIP3    H124516   7.167   2.058   4.348  0.7122  1.7627 -0.9235
 8184TIP3    H224517   7.124   1.992   4.477  0.7253 -1.7466 -2.6109
 8185TIP3   OH224518   6.419   5.336   4.590  0.4575 -0.0431  0.3567
 8185TIP3    H124519   6.456   5.262   4.638 -1.4590 -0.9045  0.6199
 8185TIP3    H224520   6.432   5.313   4.498  0.2215 -0.5360  0.4408
 8186TIP3   OH224521   0.459   6.733   0.656 -0.1850  0.0686 -0.3405
 8186TIP3    H124522   0.404   6.811   0.649 -0.7499 -0.3441 -0.6022
 8186TIP3    H224523   0.433   6.694   0.740 -0.1343 -0.0081 -0.3607
 8187TIP3   OH224524   2.115   5.550   0.869  0.0383 -0.4284 -0.0753
 8187TIP3    H124525   2.209   5.543   0.852  0.4946 -0.4139  2.1446
 8187TIP3    H224526   2.106   5.528   0.962 -2.1961 -0.6525 -0.2961
 8188TIP3   OH224527   3.127   0.730   3.022  0.0227  0.0838 -0.1966
 8188TIP3    H124528   3.032   0.729   3.035  0.2086  1.7490  1.7174
 8188TIP3    H224529   3.142   0.794   2.953 -0.1180  2.2250  1.6534
 8189TIP3   OH224530   6.876   3.108   1.672 -0.0136  0.0313 -0.3850
 8189TIP3    H124531   6.945   3.165   1.638 -0.0944 -0.3330 -1.1787
 8189TIP3    H224532   6.795   3.147   1.640 -0.1149 -0.1200 -0.3138
 8190TIP3   OH224533   0.861   5.606   1.081  0.6121 -0.2345  0.3508
 8190TIP3    H124534   0.857   5.638   1.171  0.6938 -0.6462  0.5016
 8190TIP3    H224535   0.770   5.607   1.052  0.4569 -1.0110  0.7659
 8191TIP3   OH224536   6.875   5.866   5.178 -0.1971 -0.3171 -0.1360
 8191TIP3    H124537   6.792   5.849   5.222 -0.6002 -0.4836 -0.9474
 8191TIP3    H224538   6.896   5.957   5.201 -1.1570  0.0938 -0.8033
 8192TIP3   OH224539   3.640   3.498   1.562 -0.3712 -0.3730  0.1050
 8192TIP3    H124540   3.593   3.443   1.500  0.6823 -1.5081  0.2650
 8192TIP3    H224541   3.721   3.450   1.580  0.6983  1.3242  0.1089
 8193TIP3   OH224542   2.924   4.431   0.622 -0.0729  0.4274  0.7240
 8193TIP3    H124543   2.968   4.484   0.555 -0.6108  0.5869  0.4864
 8193TIP3    H224544   2.911   4.346   0.580 -1.1416  0.7780  0.3241
 8194TIP3   OH224545   4.083   4.062   2.898  0.4916  0.0932  0.3587
 8194TIP3    H124546   4.079   3.991   2.962 -0.5087 -0.6440 -0.4808
 8194TIP3    H224547   4.107   4.020   2.816  0.5570  0.8308 -0.0116
 8195TIP3   OH224548   4.400   3.271   1.167 -0.3424 -0.2805 -0.2808
 8195TIP3    H124549   4.331   3.245   1.106  1.3970 -3.1012 -1.2735
 8195TIP3    H224550   4.463   3.320   1.113  0.6739 -1.8542 -0.6009
 8196TIP3   OH224551   6.448   3.932   4.916 -0.1434 -0.3725  0.6948
 8196TIP3    H124552   6.491   3.996   4.973  3.2815  1.3153 -3.2284
 8196TIP3    H224553   6.379   3.981   4.872 -0.2021 -0.5188  0.6230
 8197TIP3   OH224554   6.498   2.921   4.807 -0.2640  0.1117 -0.3403
 8197TIP3    H124555   6.418   2.971   4.825 -1.1136 -0.7648 -1.5601
 8197TIP3    H224556   6.558   2.985   4.769 -0.6146  0.6301 -0.0477
 8198TIP3   OH224557   4.046   2.948   2.877 -0.0036 -0.2861 -0.1897
 8198TIP3    H124558   4.113   3.017   2.870  0.1298 -0.4080 -0.1173
 8198TIP3    H224559   4.072   2.883   2.812 -0.9340  0.4049 -1.2832
 8199TIP3   OH224560   4.524   1.291   2.295 -0.4501  0.2060 -0.0936
 8199TIP3    H124561   4.569   1.207   2.302 -0.2224  0.1186 -2.0638
 8199TIP3    H224562   4.465   1.281   2.221  0.2903  2.0852 -1.0172
 8200TIP3   OH224563   2.238   3.505   1.909  0.1455  0.5709  0.3921
 8200TIP3    H124564   2.305   3.572   1.899  0.5209  0.3104  1.1422
 8200TIP3    H224565   2.280   3.424   1.881 -0.2595  0.6115 -0.3639
 8201TIP3   OH224566   2.107   2.603   3.762  0.2882  0.0878 -0.5787
 8201TIP3    H124567   2.024   2.566   3.732  0.0476 -1.4608  1.7234
 8201TIP3    H224568   2.126   2.674   3.701 -2.6135  0.3426 -1.3077
 8202TIP3   OH224569   5.736   5.343   3.896 -0.3575  0.1253 -0.6767
 8202TIP3    H124570   5.764   5.384   3.977  0.0196  1.7099 -1.5634
 8202TIP3    H224571   5.654   5.297   3.918  0.6019 -0.8836  0.9342
 8203TIP3   OH224572   1.225   4.141   0.105  0.6682  0.1474 -0.7031
 8203TIP3    H124573   1.306   4.110   0.145  0.9476  1.4460 -0.2151
 8203TIP3    H224574   1.229   4.236   0.113 -1.0436  0.2236 -0.3709
 8204TIP3   OH224575   2.276   2.159   1.871  0.4799  0.0344 -0.4670
 8204TIP3    H124576   2.278   2.072   1.911  0.0492 -0.4205 -1.3894
 8204TIP3    H224577   2.354   2.161   1.814  0.2250  0.0645 -0.8162
 8205TIP3   OH224578   2.480   4.571   5.667 -0.1646 -0.3993 -0.7206
 8205TIP3    H124579   2.391   4.604   5.679 -0.5366 -1.5033 -0.3127
 8205TIP3    H224580   2.519   4.631   5.603 -0.8427  0.7216 -0.1243
 8206TIP3   OH224581   2.389   5.867   5.138  0.1951 -0.7606  0.1298
 8206TIP3    H124582   2.346   5.800   5.191  0.2062 -0.7219  0.1870
 8206TIP3    H224583   2.359   5.950   5.174  0.7192 -0.7263  0.5041
 8207TIP3   OH224584   4.749   2.313   2.057  0.0576  0.3424  0.0219
 8207TIP3    H124585   4.714   2.364   2.130  0.6828  0.3836  0.3026
 8207TIP3    H224586   4.827   2.362   2.030  1.4423 -1.1156  1.1445
 8208TIP3   OH224587   1.433   3.347   3.964  0.5100  0.0970  0.3933
 8208TIP3    H124588   1.433   3.394   3.880 -0.6745  0.2015  0.4428
 8208TIP3    H224589   1.520   3.364   4.000  1.0556  0.0219 -0.8292
 8209TIP3   OH224590   2.458   3.220   2.620 -0.6071  0.6384 -0.1888
 8209TIP3    H124591   2.422   3.151   2.676 -0.5681 -0.5347 -1.5411
 8209TIP3    H224592   2.403   3.296   2.637 -1.8637 -0.2716 -0.0312
 8210TIP3   OH224593   2.516   5.903   0.740 -0.1907 -0.1001 -0.0631
 8210TIP3    H124594   2.495   5.993   0.762 -0.8015 -0.0684 -0.7770
 8210TIP3    H224595   2.606   5.907   0.706  1.4696 -0.3477  3.7038
 8211TIP3   OH224596   3.229   2.016   4.856  0.3383  0.0384  0.1262
 8211TIP3    H124597   3.265   1.935   4.819 -1.2934 -2.0103  2.7165
 8211TIP3    H224598   3.267   2.021   4.943  0.8746  2.4821 -0.1841
 8212TIP3   OH224599   1.800   4.981   0.071 -0.0956 -0.3000  0.7082
 8212TIP3    H124600   1.757   4.973  -0.014  0.7294  1.0883  0.1150
 8212TIP3    H224601   1.729   4.988   0.134 -0.7225 -1.5204  0.1684
 8213TIP3   OH224602   3.250   5.203   4.655  0.9401 -0.6129  0.0675
 8213TIP3    H124603   3.284   5.126   4.609  2.6284 -0.5995  1.1879
 8213TIP3    H224604   3.155   5.192   4.653  0.9912 -1.2473 -2.2530
 8214TIP3   OH224605   2.367   2.635   0.254  0.9029 -0.2378  0.1824
 8214TIP3    H124606   2.308   2.700   0.293 -0.3337 -1.2584  0.1032
 8214TIP3    H224607   2.448   2.642   0.305  0.3536  0.4969  0.9894
 8215TIP3   OH224608   0.360   3.861   0.465  0.4883 -0.3190 -0.3678
 8215TIP3    H124609   0.427   3.832   0.527 -0.2992 -0.3585  0.4803
 8215TIP3    H224610   0.334   3.781   0.419 -0.8148 -0.8001  1.1237
 8216TIP3   OH224611   3.759   3.630   0.574  0.0646  0.1081 -0.0661
 8216TIP3    H124612   3.850   3.629   0.603 -0.0413 -0.2361  0.2536
 8216TIP3    H224613   3.761   3.591   0.487  0.2177  0.0714 -0.0466
 8217TIP3   OH224614   5.909   6.141   3.993  0.1043  0.7046 -0.1724
 8217TIP3    H124615   5.816   6.135   4.016  0.5290 -1.8344  1.2709
 8217TIP3    H224616   5.952   6.166   4.075  1.0480 -2.4790  0.4433
 8218TIP3   OH224617   1.698   2.756   0.585 -0.2589  0.4339 -0.0641
 8218TIP3    H124618   1.698   2.666   0.615 -0.9453  0.3686 -0.2370
 8218TIP3    H224619   1.767   2.759   0.518 -0.4893 -0.0530 -0.3264
 8219TIP3   OH224620   6.671   0.350   2.475 -0.2749  0.1417 -0.5055
 8219TIP3    H124621   6.618   0.341   2.554 -0.4622  1.2858 -0.4877
 8219TIP3    H224622   6.672   0.444   2.457 -2.3853 -0.2374 -3.3298
 8220TIP3   OH224623   4.812   1.324   5.582  0.5081 -0.1412  0.2353
 8220TIP3    H124624   4.761   1.314   5.501  0.7787 -0.4980  0.1083
 8220TIP3    H224625   4.777   1.404   5.622  0.8440  0.4300 -0.5817
 8221TIP3   OH224626   6.210   6.660   4.732  0.5161 -0.3376 -0.3548
 8221TIP3    H124627   6.174   6.725   4.793  1.4141  0.0631 -0.2415
 8221TIP3    H224628   6.138   6.643   4.671 -1.4222 -2.7963  2.3129
 8222TIP3   OH224629   5.762   1.697   1.924 -0.0171 -0.1834 -0.6217
 8222TIP3    H124630   5.728   1.650   2.001 -1.2872  0.3414 -0.8306
 8222TIP3    H224631   5.851   1.723   1.949 -1.2670  2.3454  1.8089
 8223TIP3   OH224632   2.679   3.702   2.924 -0.2114 -0.3050  0.5401
 8223TIP3    H124633   2.731   3.777   2.894  1.0533 -1.4465 -0.2146
 8223TIP3    H224634   2.636   3.734   3.004 -0.6355  1.5785 -0.3810
 8224TIP3   OH224635   5.997   3.823   5.279 -0.5662  0.0980 -0.1680
 8224TIP3    H124636   6.037   3.909   5.271 -1.4980  0.5474 -0.0217
 8224TIP3    H224637   6.011   3.798   5.370  1.1023 -0.6192 -0.5773
 8225TIP3   OH224638   7.033   3.811   4.046 -0.4421  0.2463  0.1572
 8225TIP3    H124639   7.110   3.801   3.989 -0.5824 -1.0994  0.1842
 8225TIP3    H224640   6.959   3.785   3.991 -0.8723  1.2888  0.2168
 8226TIP3   OH224641   6.050   0.930   2.224 -0.5001  0.4541  0.0050
 8226TIP3    H124642   5.987   0.896   2.160 -0.7783  1.7832 -0.4591
 8226TIP3    H224643   6.044   0.870   2.298 -0.0070 -1.2431 -1.2830
 8227TIP3   OH224644   0.369   4.641   2.403 -0.3159 -0.0696  0.5316
 8227TIP3    H124645   0.391   4.559   2.448  0.0239 -0.0073  0.4795
 8227TIP3    H224646   0.417   4.708   2.450 -0.5766  0.1010  0.5587
 8228TIP3   OH224647   2.384   0.694   0.191 -0.5096  0.1999  0.0864
 8228TIP3    H124648   2.399   0.648   0.108  1.3856 -1.2486  1.1553
 8228TIP3    H224649   2.452   0.761   0.194 -0.4216  0.0944  0.5606
 8229TIP3   OH224650   2.604   2.015   3.028  0.1744 -0.1902  0.0381
 8229TIP3    H124651   2.571   2.021   3.117  2.7098  0.9068  1.0108
 8229TIP3    H224652   2.591   2.103   2.992 -0.4390 -0.5094 -0.5393
 8230TIP3   OH224653   3.469   3.744   5.015 -0.2999 -0.1847 -0.2057
 8230TIP3    H124654   3.521   3.722   4.938  0.2745 -1.5716  0.5319
 8230TIP3    H224655   3.513   3.698   5.087 -0.4067  1.6273  1.0852
 8231TIP3   OH224656   4.867   6.585   5.136  0.0538  0.3981 -0.1274
 8231TIP3    H124657   4.832   6.626   5.057 -3.0729  0.7902  1.3277
 8231TIP3    H224658   4.795   6.534   5.172  2.2369 -2.1366  1.0062
 8232TIP3   OH224659   6.293   3.978   3.369 -0.0950 -0.0509  0.6756
 8232TIP3    H124660   6.228   3.988   3.299  1.1729 -1.8003 -0.8737
 8232TIP3    H224661   6.366   4.034   3.343 -0.2215  0.4641  1.4117
 8233TIP3   OH224662   6.076   0.706   3.474 -0.2554 -0.4292  0.4768
 8233TIP3    H124663   6.053   0.766   3.403 -1.0952 -0.5111  0.6665
 8233TIP3    H224664   6.114   0.630   3.430  1.1248  0.3643  0.2546
 8234TIP3   OH224665   6.667   5.879   5.558  0.0083  0.7507  0.4423
 8234TIP3    H124666   6.686   5.971   5.573 -0.8206  0.9354  0.3995
 8234TIP3    H224667   6.660   5.842   5.646 -0.5350  0.9156  0.4689
 8235TIP3   OH224668   1.814   2.071   1.621  0.1330 -0.3664 -0.0743
 8235TIP3    H124669   1.784   1.983   1.598 -1.1058 -0.5701  2.0420
 8235TIP3    H224670   1.908   2.062   1.635 -0.1413 -1.6409  1.1559
 8236TIP3   OH224671   2.084   2.093   1.658 -0.4820  0.0257 -0.3238
 8236TIP3    H124672   2.150   2.076   1.591 -1.8880 -0.2465 -1.6945
 8236TIP3    H224673   2.119   2.167   1.708  1.2580 -0.6968 -0.4168
 8237TIP3   OH224674   3.367   0.598   5.579 -0.1104  0.1141 -0.3988
 8237TIP3    H124675   3.419   0.537   5.527 -0.6343  0.0236 -0.8235
 8237TIP3    H224676   3.315   0.542   5.637  1.9924  0.2593  1.7416
 8238TIP3   OH224677   0.418   4.219   4.809  0.2499  0.3062 -0.1729
 8238TIP3    H124678   0.413   4.124   4.811 -0.3138  0.3492  0.6819
 8238TIP3    H224679   0.394   4.247   4.897  0.3344  1.2444 -0.4333
 8239TIP3   OH224680   4.180   5.512   5.589  0.3847 -0.1653 -0.2044
 8239TIP3    H124681   4.160   5.605   5.602 -3.3242 -1.0806  2.1265
 8239TIP3    H224682   4.276   5.508   5.584  0.6604  3.8042 -1.4096
 8240TIP3   OH224683   6.173   3.462   1.368  0.3396  0.0591  0.0680
 8240TIP3    H124684   6.205   3.552   1.367  1.9906 -0.4463  1.0719
 8240TIP3    H224685   6.244   3.411   1.329 -0.0082 -0.9367  0.6760
 8241TIP3   OH224686   3.636   2.811   3.970  0.3837 -0.4272  0.4418
 8241TIP3    H124687   3.571   2.877   3.945  1.6231  0.2100 -1.2944
 8241TIP3    H224688   3.584   2.732   3.987 -0.8821  0.1209 -0.6758
 8242TIP3   OH224689   0.342   5.790   1.242  0.3688  0.6804 -0.0617
 8242TIP3    H124690   0.284   5.718   1.218 -1.5697  2.1701 -0.1434
 8242TIP3    H224691   0.410   5.791   1.175  1.0205 -1.6260  0.4887
 8243TIP3   OH224692   6.522   0.726   2.203  0.1116  0.2718 -0.3785
 8243TIP3    H124693   6.544   0.674   2.126 -2.1477 -3.5483  1.2549
 8243TIP3    H224694   6.430   0.750   2.190  0.6921  2.7789 -0.3904
 8244TIP3   OH224695   6.817   1.867   4.470 -0.0626  0.5864  0.1850
 8244TIP3    H124696   6.875   1.865   4.394  0.7106 -0.0125  0.7808
 8244TIP3    H224697   6.743   1.811   4.446  0.1572  0.4361 -0.1384
 8245TIP3   OH224698   2.539   5.450   2.298 -0.6527 -0.0986 -0.7367
 8245TIP3    H124699   2.532   5.515   2.228  0.0063  1.8742  0.9194
 8245TIP3    H224700   2.631   5.423   2.297  0.0868  2.0271  1.0083
 8246TIP3   OH224701   2.721   0.789   2.310 -0.0711 -0.2082 -0.1206
 8246TIP3    H124702   2.707   0.695   2.303  0.3710 -0.3033  0.2543
 8246TIP3    H224703   2.764   0.801   2.395  1.6286  0.1195 -0.9755
 8247TIP3   OH224704   1.628   0.714   2.117  0.0371  0.3827  0.0139
 8247TIP3    H124705   1.541   0.674   2.121 -0.2813  0.7118 -2.2821
 8247TIP3    H224706   1.612   0.808   2.106  0.7331  0.7091  1.5377
 8248TIP3   OH224707   4.457   5.860   0.382 -0.4369  0.8892  0.4424
 8248TIP3    H124708   4.404   5.892   0.309 -1.2298 -0.3846  0.4271
 8248TIP3    H224709   4.395   5.813   0.437  0.6169 -0.3163  0.6302
 8249TIP3   OH224710   3.830   2.183   2.463 -0.1871  0.2233  0.4298
 8249TIP3    H124711   3.806   2.216   2.376 -0.3755 -1.5819 -0.2359
 8249TIP3    H224712   3.806   2.255   2.522  1.8593  2.3666 -1.1494
 8250TIP3   OH224713   2.732   3.368   3.914 -0.3269 -0.3263 -0.0701
 8250TIP3    H124714   2.730   3.374   4.009  0.3883  0.6595 -0.1061
 8250TIP3    H224715   2.707   3.277   3.895  2.4898 -1.4535  1.1806
 8251TIP3   OH224716   2.519   5.831   3.220  0.2331 -0.0720  0.3464
 8251TIP3    H124717   2.471   5.882   3.286  0.0283 -0.4690  0.5113
 8251TIP3    H224718   2.533   5.892   3.148 -1.0439 -0.1044  0.0397
 8252TIP3   OH224719   0.718   2.616   1.091  0.0653  0.0319 -0.4378
 8252TIP3    H124720   0.643   2.667   1.062  0.8361  1.2251 -0.3920
 8252TIP3    H224721   0.789   2.641   1.032  0.0933 -2.2124 -1.4755
 8253TIP3   OH224722   6.428   5.286   0.811  0.2026 -1.3609  0.2783
 8253TIP3    H124723   6.499   5.307   0.749  1.5997  0.8694  2.4396
 8253TIP3    H224724   6.387   5.371   0.829 -0.9512 -2.1440  1.4904
 8254TIP3   OH224725   5.767  -0.018   5.480  0.5103 -0.7705 -0.1806
 8254TIP3    H124726   5.708   0.021   5.416 -1.2851 -1.3275  1.0449
 8254TIP3    H224727   5.797   0.056   5.533  1.1210 -0.4515 -0.9600
 8255TIP3   OH224728   3.784   0.257   5.740  0.4246 -0.0090 -0.0981
 8255TIP3    H124729   3.866   0.303   5.757  0.6588 -0.3995 -0.1484
 8255TIP3    H224730   3.736   0.314   5.679  0.4331  0.4640  0.3346
 8256TIP3   OH224731   7.152   2.093   0.671 -0.0998 -0.2218 -0.4058
 8256TIP3    H124732   7.110   2.179   0.677 -1.1482 -0.6684 -1.1433
 8256TIP3    H224733   7.161   2.065   0.762 -0.8647  0.1419 -0.2137
 8257TIP3   OH224734   4.021   4.122   4.495 -0.3187  0.1915 -0.2324
 8257TIP3    H124735   4.035   4.149   4.586 -0.7159  0.2610 -0.1882
 8257TIP3    H224736   4.093   4.062   4.476 -0.3152  0.0646  0.1754
 8258TIP3   OH224737   6.046   6.035   1.632 -0.0516  0.3846  0.1772
 8258TIP3    H124738   6.093   6.117   1.647  1.6364 -0.5837  0.4336
 8258TIP3    H224739   5.983   6.055   1.562 -1.6522  2.5931  2.1212
 8259TIP3   OH224740   3.703   1.468   1.123  0.0259  0.0769  0.7448
 8259TIP3    H124741   3.794   1.497   1.134 -0.1003  1.2830 -0.9509
 8259TIP3    H224742   3.652   1.549   1.122 -0.6214 -0.2680 -1.9136
 8260TIP3   OH224743   6.517   6.677   3.942 -0.3025 -0.6897 -0.2598
 8260TIP3    H124744   6.566   6.746   3.987 -1.7102  0.0423  0.2163
 8260TIP3    H224745   6.533   6.693   3.849 -0.0818 -0.1120 -0.1239
 8261TIP3   OH224746   1.857   3.254  -0.020  0.2686  0.2957 -0.1338
 8261TIP3    H124747   1.788   3.278   0.041 -0.0736  1.5070 -0.9474
 8261TIP3    H224748   1.894   3.173   0.015 -3.0728 -1.7566 -0.9041
 8262TIP3   OH224749   4.205   0.802   2.145  0.6703 -0.2428  0.4479
 8262TIP3    H124750   4.263   0.844   2.081  1.9912 -0.5996  1.3619
 8262TIP3    H224751   4.126   0.856   2.146 -0.0521 -1.0683 -2.5647
 8263TIP3   OH224752   0.795   3.722   5.736 -0.0612 -0.3124 -0.3310
 8263TIP3    H124753   0.805   3.810   5.701  0.5237 -0.0553  0.4432
 8263TIP3    H224754   0.885   3.692   5.752 -0.2689 -0.9002 -0.2388
 8264TIP3   OH224755   2.768   0.636   0.404  0.2227  0.0112 -0.2000
 8264TIP3    H124756   2.847   0.667   0.449  0.7022 -1.2945 -0.0995
 8264TIP3    H224757   2.798   0.564   0.350 -0.4695  1.1343 -2.1733
 8265TIP3   OH224758   4.873   0.524   0.011 -0.3324 -0.2830  0.2521
 8265TIP3    H124759   4.889   0.616  -0.010  0.3251 -0.8946 -2.3993
 8265TIP3    H224760   4.952   0.496   0.057 -0.1705  0.2757  0.3274
 8266TIP3   OH224761   2.882   5.695   3.971 -0.2700 -0.2385  0.1564
 8266TIP3    H124762   2.811   5.637   3.997 -1.3521  1.0086  0.1221
 8266TIP3    H224763   2.857   5.781   4.007 -0.1187  0.8136 -2.0890
 8267TIP3   OH224764   2.418   6.262   0.391  0.1588  0.6737 -0.8420
 8267TIP3    H124765   2.489   6.207   0.358 -0.7702 -0.1153 -1.5640
 8267TIP3    H224766   2.443   6.351   0.365  2.7654  1.0304  2.1800
 8268TIP3   OH224767   0.871   1.639   5.186  0.0645 -0.1476 -0.1295
 8268TIP3    H124768   0.964   1.655   5.201  0.1313 -0.0418 -0.6630
 8268TIP3    H224769   0.827   1.710   5.233  0.1869 -0.9647  1.2841
 8269TIP3   OH224770   0.401   2.475   2.065 -0.3915  0.5567  0.2701
 8269TIP3    H124771   0.355   2.394   2.086 -0.9024  0.3090 -1.6288
 8269TIP3    H224772   0.364   2.540   2.125 -1.8415 -0.0603  0.0668
 8270TIP3   OH224773   5.944   5.667   0.998 -0.1367 -0.6724  0.0490
 8270TIP3    H124774   5.865   5.690   0.950 -0.7123 -1.0433  0.7886
 8270TIP3    H224775   5.971   5.748   1.040 -0.3395 -0.6218  0.0845
 8271TIP3   OH224776   1.133   4.338   4.414 -0.6020  0.1680  0.6312
 8271TIP3    H124777   1.088   4.417   4.442 -1.2145 -0.2734  0.9302
 8271TIP3    H224778   1.196   4.368   4.349 -1.4751  0.7928  0.0460
 8272TIP3   OH224779   2.528   6.324   2.274 -0.0269 -0.0253 -0.2309
 8272TIP3    H124780   2.592   6.253   2.265  1.2301  0.5632  2.8695
 8272TIP3    H224781   2.450   6.282   2.309  0.0956 -0.1605 -0.1164
 8273TIP3   OH224782   1.794   5.988   1.956  0.3070  0.2459 -0.1503
 8273TIP3    H124783   1.783   5.909   2.010  1.7310  1.5597  2.2139
 8273TIP3    H224784   1.704   6.020   1.944 -0.5609 -2.6766 -2.8966
 8274TIP3   OH224785   2.785   0.162   3.128  0.2177  0.2864 -0.0581
 8274TIP3    H124786   2.825   0.076   3.141 -0.4637 -0.0568 -0.2091
 8274TIP3    H224787   2.813   0.213   3.204  0.3475 -0.1765  0.2060
 8275TIP3   OH224788   0.610   3.161   5.807  0.1393 -0.0637  0.3627
 8275TIP3    H124789   0.611   3.238   5.749  3.4629 -0.6118 -0.5385
 8275TIP3    H224790   0.530   3.114   5.784 -0.8920  2.0172 -0.5631
 8276TIP3   OH224791   2.549   3.690   3.431 -0.0845  0.0137  0.0747
 8276TIP3    H124792   2.532   3.700   3.524 -1.3820  0.5799 -0.1949
 8276TIP3    H224793   2.643   3.705   3.421  0.3962 -1.7348  1.4842
 8277TIP3   OH224794   4.176   2.049   4.808 -0.0037 -0.0070 -0.4621
 8277TIP3    H124795   4.162   2.031   4.715 -1.7442  0.1858 -0.2782
 8277TIP3    H224796   4.117   1.989   4.853  1.3636 -0.6233  0.5745
 8278TIP3   OH224797   5.824   2.313   1.080  0.3528 -0.3064  0.2744
 8278TIP3    H124798   5.801   2.404   1.065  1.5944  0.1731  1.1128
 8278TIP3    H224799   5.915   2.306   1.051  0.1871 -1.3494 -0.0311
 8279TIP3   OH224800   4.316   2.878   4.214  0.2055 -0.1164 -0.4161
 8279TIP3    H124801   4.324   2.935   4.291 -1.5827  1.8917 -1.6222
 8279TIP3    H224802   4.227   2.844   4.219  0.2615 -0.4208 -1.3027
 8280TIP3   OH224803   7.173   2.376   2.257  0.3404 -0.1739 -0.4134
 8280TIP3    H124804   7.080   2.352   2.258  0.0123  0.9972  0.8643
 8280TIP3    H224805   7.213   2.317   2.322  0.3420 -0.1539 -0.3964
 8281TIP3   OH224806   5.857   0.393   5.733  0.1644  0.4735  0.1056
 8281TIP3    H124807   5.898   0.479   5.742  0.7060  0.2744 -0.4280
 8281TIP3    H224808   5.852   0.379   5.639  0.3272 -0.2028  0.1949
 8282TIP3   OH224809   6.535   3.314   4.979  0.7793  0.0465 -0.2873
 8282TIP3    H124810   6.452   3.362   4.972  0.7720 -0.1682 -2.5429
 8282TIP3    H224811   6.599   3.380   5.006 -0.1380  0.1436  1.8151
 8283TIP3   OH224812   6.903   2.034   1.508  0.5707 -0.2586  0.7787
 8283TIP3    H124813   6.886   2.049   1.415  0.7250 -1.2472  0.5803
 8283TIP3    H224814   6.821   2.057   1.551  0.6004  0.5026  0.4325
 8284TIP3   OH224815   0.337   1.778   1.781  0.4810 -0.5597  0.7864
 8284TIP3    H124816   0.298   1.792   1.867  0.4181 -0.3617  0.7247
 8284TIP3    H224817   0.421   1.737   1.800  2.1685  2.7285  1.1869
 8285TIP3   OH224818   5.135   0.529   4.180  0.3080 -0.4233  0.3916
 8285TIP3    H124819   5.085   0.477   4.117 -0.2884 -0.7218  1.1013
 8285TIP3    H224820   5.225   0.528   4.146 -0.2365  0.5754 -1.1936
 8286TIP3   OH224821   2.821   1.668   0.243  0.2112  0.4439 -0.5611
 8286TIP3    H124822   2.852   1.703   0.326 -0.2394  0.2174 -0.2937
 8286TIP3    H224823   2.790   1.745   0.194 -2.7038  0.2998  0.8327
 8287TIP3   OH224824   3.021   5.455   4.538 -0.1609 -0.3560  0.1544
 8287TIP3    H124825   3.014   5.372   4.586 -0.9159 -0.4219 -0.0610
 8287TIP3    H224826   2.930   5.483   4.526  0.0904  0.6091  0.4085
 8288TIP3   OH224827   0.650   3.077   0.244 -0.0594  0.5144  0.0216
 8288TIP3    H124828   0.710   3.065   0.318 -0.5094 -0.3972  0.2588
 8288TIP3    H224829   0.691   3.029   0.172  0.0785  0.8872 -0.1474
 8289TIP3   OH224830   2.872  -0.022   1.867 -0.4869 -0.3038 -0.1429
 8289TIP3    H124831   2.872   0.074   1.856  1.3555 -0.2597 -0.0411
 8289TIP3    H224832   2.840  -0.035   1.956 -0.2470  0.2466  0.0310
 8290TIP3   OH224833   1.579   1.415   0.022  0.3399 -0.2039  0.3638
 8290TIP3    H124834   1.597   1.493   0.075 -1.0298  1.1647 -1.0928
 8290TIP3    H224835   1.573   1.344   0.086  0.5369  1.0628  1.8539
 8291TIP3   OH224836   3.641   5.273   5.476 -0.1994  0.0359 -0.3080
 8291TIP3    H124837   3.650   5.344   5.539  1.0180 -0.8799  0.5910
 8291TIP3    H224838   3.549   5.250   5.478 -0.6993  1.7951 -0.8856
 8292TIP3   OH224839   4.661   0.236   0.791  0.0805  0.0881  0.0463
 8292TIP3    H124840   4.700   0.313   0.749 -1.2615 -0.1022 -1.6885
 8292TIP3    H224841   4.571   0.263   0.811 -0.9238 -1.3874 -1.9845
 8293TIP3   OH224842   2.262   5.667   5.292  0.0231  0.3243  0.3405
 8293TIP3    H124843   2.262   5.697   5.383  2.7723  3.4636 -0.4798
 8293TIP3    H224844   2.265   5.572   5.298 -2.0672  0.3203  3.4241
 8294TIP3   OH224845   5.036   4.807   2.812 -0.0458  0.3879 -0.4764
 8294TIP3    H124846   5.110   4.818   2.872  1.1802 -0.1583 -1.8203
 8294TIP3    H224847   5.067   4.844   2.729  0.3726 -3.4919 -2.2739
 8295TIP3   OH224848   2.490   5.896   2.563 -0.1873 -0.2289  0.1167
 8295TIP3    H124849   2.525   5.968   2.511  1.0640 -0.2186  0.9034
 8295TIP3    H224850   2.396   5.912   2.568 -0.1052  0.6167 -0.8094
 8296TIP3   OH224851   5.657   1.789   5.685  0.2592  0.3199  0.1164
 8296TIP3    H124852   5.570   1.800   5.725 -0.8195 -1.3194 -1.6356
 8296TIP3    H224853   5.648   1.713   5.627  2.0117  1.9298 -2.4644
 8297TIP3   OH224854   0.053   0.688   4.694 -0.6940 -0.0074 -0.0144
 8297TIP3    H124855  -0.042   0.681   4.705 -0.5952  0.9796  1.8825
 8297TIP3    H224856   0.065   0.774   4.653 -0.6589 -0.7920 -1.7495
 8298TIP3   OH224857   2.073   0.803   4.478 -0.2681  0.0368 -0.2726
 8298TIP3    H124858   2.085   0.780   4.386 -0.4566 -2.3552  0.2344
 8298TIP3    H224859   2.034   0.890   4.477  0.9306  0.6086 -2.4032
 8299TIP3   OH224860   4.713   5.173   4.023 -0.3083 -0.1335 -0.8000
 8299TIP3    H124861   4.636   5.192   3.968 -0.6328  0.8981 -0.0133
 8299TIP3    H224862   4.676   5.131   4.101 -0.0056 -0.1964 -0.6912
 8300TIP3   OH224863   0.516   1.413   5.518  0.0828  0.1561  0.5111
 8300TIP3    H124864   0.546   1.324   5.537 -0.2990 -0.3869 -1.2798
 8300TIP3    H224865   0.421   1.406   5.514  0.1407 -0.2316 -3.2942
 8301TIP3   OH224866   2.481   1.219   5.317  0.6412  0.1872 -0.1431
 8301TIP3    H124867   2.552   1.156   5.311  0.1832 -0.4917  1.3159
 8301TIP3    H224868   2.416   1.188   5.254  1.2537  0.3383 -0.8656
 8302TIP3   OH224869   2.619   6.286   1.948  0.1458 -0.0771 -0.3970
 8302TIP3    H124870   2.581   6.361   1.994 -1.0780 -1.1037  0.3318
 8302TIP3    H224871   2.700   6.268   1.996 -0.5689 -0.4523  0.7148
 8303TIP3   OH224872   3.148   2.730   3.862 -0.6533  0.3513 -0.5668
 8303TIP3    H124873   3.091   2.680   3.803 -0.2060 -0.5064 -0.2910
 8303TIP3    H224874   3.114   2.711   3.950 -0.0868 -0.0111 -0.4137
 8304TIP3   OH224875   6.787   0.433   4.245  0.5094 -0.0987 -0.1780
 8304TIP3    H124876   6.770   0.376   4.171 -1.8642 -0.4487  0.5597
 8304TIP3    H224877   6.804   0.519   4.206  3.4378 -1.0433 -1.2542
 8305TIP3   OH224878   1.512   5.864   5.840  0.4379  0.3637  0.3510
 8305TIP3    H124879   1.440   5.830   5.787  1.1679 -0.6726  0.0195
 8305TIP3    H224880   1.472   5.936   5.890 -1.4167 -1.5558  1.8349
 8306TIP3   OH224881   0.245   3.203   1.259  0.6234 -0.0796  0.3518
 8306TIP3    H124882   0.170   3.190   1.201  1.9037 -1.3089 -1.1431
 8306TIP3    H224883   0.209   3.249   1.335 -1.5144 -0.1430 -0.5382
 8307TIP3   OH224884   1.506   5.871   4.214  0.4523 -0.4093  0.4094
 8307TIP3    H124885   1.431   5.814   4.228  2.3772 -2.9668  0.9258
 8307TIP3    H224886   1.487   5.916   4.132 -1.8016 -0.6374  0.7410
 8308TIP3   OH224887   1.151   2.913   2.024  0.5740  0.7882  0.1148
 8308TIP3    H124888   1.084   2.877   1.966  0.5709 -1.3182  1.3252
 8308TIP3    H224889   1.195   2.980   1.971 -1.3650  1.0479 -1.2682
 8309TIP3   OH224890   2.249   3.902   4.458  0.0828  0.2781  0.8094
 8309TIP3    H124891   2.283   3.819   4.492  0.9249  0.6920  1.0042
 8309TIP3    H224892   2.286   3.909   4.370 -2.0172 -0.7481 -0.2358
 8310TIP3   OH224893   2.292   3.716   3.351  0.2867 -0.2446 -0.2709
 8310TIP3    H124894   2.285   3.621   3.344 -0.2712 -0.2110 -0.2171
 8310TIP3    H224895   2.376   3.730   3.394  0.0910 -0.7388  0.2936
 8311TIP3   OH224896   1.329   5.053   4.833 -0.0815 -0.5085 -0.3934
 8311TIP3    H124897   1.322   5.114   4.907  0.3760  0.0243 -0.7769
 8311TIP3    H224898   1.336   4.967   4.873  1.3568 -0.1282  0.2402
 8312TIP3   OH224899   1.609   3.899   1.853  0.0992  0.0314  0.3339
 8312TIP3    H124900   1.579   3.919   1.941 -0.6017  3.1844 -0.5119
 8312TIP3    H224901   1.547   3.833   1.820 -0.1129 -0.5680  1.8539
 8313TIP3   OH224902   2.526   3.488   2.975 -0.1595 -0.0438  0.1710
 8313TIP3    H124903   2.435   3.506   2.954 -0.2620  0.4048  0.9603
 8313TIP3    H224904   2.569   3.574   2.974  0.0009 -0.1032  0.9246
 8314TIP3   OH224905   2.688   2.492   5.885  0.2757  0.0203 -0.6623
 8314TIP3    H124906   2.695   2.419   5.823 -0.4771  0.8342 -1.7412
 8314TIP3    H224907   2.747   2.468   5.956 -2.2419 -3.1676  0.5891
 8315TIP3   OH224908   2.318   3.478   3.981  0.2337  0.6586 -0.3605
 8315TIP3    H124909   2.255   3.491   3.910  0.2658  0.4127 -0.4361
 8315TIP3    H224910   2.309   3.385   4.003  1.2674  0.3749 -1.0356
 8316TIP3   OH224911   3.808   4.679   4.896 -0.0144  0.3592 -0.0850
 8316TIP3    H124912   3.742   4.685   4.965  0.0491  1.1611 -0.0756
 8316TIP3    H224913   3.763   4.710   4.817  0.2792  0.6889 -0.1279
 8317TIP3   OH224914   3.035   0.524   1.104 -0.5488  0.2651  0.0926
 8317TIP3    H124915   3.084   0.590   1.056  1.7169 -0.7770  0.8147
 8317TIP3    H224916   3.021   0.453   1.041 -2.2157  1.0039 -0.4327
 8318TIP3   OH224917   6.370   4.839   5.568 -0.3493 -0.0895 -0.2039
 8318TIP3    H124918   6.323   4.877   5.642  1.0397 -1.2407  1.3480
 8318TIP3    H224919   6.463   4.852   5.588  0.2124 -3.3974  0.0710
 8319TIP3   OH224920   0.028   1.978   4.939  0.0464 -0.4329 -0.2023
 8319TIP3    H124921   0.087   2.052   4.922  0.6062 -0.3889  1.7694
 8319TIP3    H224922   0.023   1.972   5.034 -2.3387 -1.1106 -0.3084
 8320TIP3   OH224923   2.780   3.012   4.703 -0.3660 -0.4540 -0.0606
 8320TIP3    H124924   2.774   3.076   4.632  0.5420  1.8057  1.7745
 8320TIP3    H224925   2.873   3.010   4.725 -0.0750 -3.6498 -1.0258
 8321TIP3   OH224926   0.207   4.116   4.274 -0.5426 -0.5931  0.6022
 8321TIP3    H124927   0.225   4.045   4.212 -1.3406 -0.8960  0.7014
 8321TIP3    H224928   0.220   4.075   4.360  1.8724  0.1705  0.6755
 8322TIP3   OH224929   4.650   6.244   1.229  0.3166 -0.0902 -0.1368
 8322TIP3    H124930   4.717   6.237   1.160 -0.3430  0.5583 -0.8723
 8322TIP3    H224931   4.576   6.195   1.195 -0.7044  1.7872 -0.7913
 8323TIP3   OH224932   2.630   2.923   1.637  0.1828 -0.1817 -0.0229
 8323TIP3    H124933   2.546   2.902   1.596  0.8155 -0.6299 -1.1396
 8323TIP3    H224934   2.607   2.974   1.715 -1.0460  1.8739 -1.6262
 8324TIP3   OH224935   0.866   6.703   5.513 -0.0660  0.0485 -0.1995
 8324TIP3    H124936   0.958   6.726   5.530 -0.0112  1.9729 -2.5746
 8324TIP3    H224937   0.854   6.720   5.419 -2.9917  0.3376  0.1409
 8325TIP3   OH224938   6.729   1.575   4.630 -0.2901  0.2316 -0.0845
 8325TIP3    H124939   6.783   1.562   4.707  0.2731 -0.0650 -0.5191
 8325TIP3    H224940   6.733   1.491   4.584  1.3531  1.1023 -1.6651
 8326TIP3   OH224941   3.684   6.166   4.294 -0.0099 -0.2121  0.6711
 8326TIP3    H124942   3.591   6.152   4.315 -0.0559 -0.2459  0.4461
 8326TIP3    H224943   3.685   6.185   4.200  0.1131  0.7459  0.8588
 8327TIP3   OH224944   1.940   1.204   1.144 -0.0477  0.3990  0.2340
 8327TIP3    H124945   2.009   1.244   1.090  0.8169 -0.4994  0.6320
 8327TIP3    H224946   1.973   1.211   1.234  0.3778 -1.6269  0.2734
 8328TIP3   OH224947   0.412   4.566   2.863 -0.2169 -0.2823 -0.1957
 8328TIP3    H124948   0.477   4.541   2.798 -0.0464  0.6300 -0.3890
 8328TIP3    H224949   0.328   4.563   2.816 -0.2660 -1.0377 -0.0625
 8329TIP3   OH224950   3.545   0.947   0.255  0.1134  0.1331 -0.1009
 8329TIP3    H124951   3.502   1.000   0.188 -0.7304 -0.5119 -0.0864
 8329TIP3    H224952   3.635   0.981   0.259 -0.5796  2.0233  0.4128
 8330TIP3   OH224953   6.896   6.383   4.571 -0.6380 -0.0107  0.6151
 8330TIP3    H124954   6.817   6.348   4.530 -1.2978  1.5428  0.5103
 8330TIP3    H224955   6.883   6.368   4.664 -0.3196 -1.1689  0.4954
 8331TIP3   OH224956   0.900   1.113   1.954  0.8055 -0.8568 -0.9531
 8331TIP3    H124957   0.862   1.180   2.011 -0.5563 -3.1152  0.9930
 8331TIP3    H224958   0.981   1.151   1.923  1.4375  0.7430  2.2199
 8332TIP3   OH224959   6.964   0.714   2.296  0.2781 -0.0912  0.4826
 8332TIP3    H124960   7.023   0.690   2.225  1.9674  0.6691  1.5498
 8332TIP3    H224961   6.963   0.809   2.295  0.2936 -0.0716  1.4397
 8333TIP3   OH224962   6.948   6.262   4.343  0.6775  0.2983 -0.5779
 8333TIP3    H124963   6.950   6.330   4.411 -0.5586  0.8470 -1.0621
 8333TIP3    H224964   6.975   6.183   4.389  2.5744  1.1701 -0.0976
 8334TIP3   OH224965   4.085   2.769   2.366 -0.6586  0.7077  0.2778
 8334TIP3    H124966   3.992   2.762   2.345 -0.2377  0.6586 -1.7798
 8334TIP3    H224967   4.126   2.696   2.321  0.6046  1.8443 -0.5114
 8335TIP3   OH224968   6.537   1.731   4.749 -0.7230 -0.1178 -0.2992
 8335TIP3    H124969   6.601   1.675   4.706  0.0811 -0.0581  0.7908
 8335TIP3    H224970   6.520   1.689   4.833 -1.6044  0.2354 -0.2829
 8336TIP3   OH224971   7.089   4.444   2.302 -0.0128  0.2436  0.3049
 8336TIP3    H124972   7.066   4.363   2.348 -0.9786  0.5406  0.3628
 8336TIP3    H224973   7.139   4.414   2.225 -0.4540 -0.4147  0.2701
 8337TIP3   OH224974   3.758   6.379   5.623  0.2199  0.5790  0.1963
 8337TIP3    H124975   3.732   6.302   5.571  0.6243  1.3012 -1.1262
 8337TIP3    H224976   3.696   6.447   5.596 -0.6776  0.5289  1.9871
 8338TIP3   OH224977   3.724   4.515   1.804  0.5199 -0.2697  0.2089
 8338TIP3    H124978   3.774   4.591   1.834 -0.3882  0.0722  0.9265
 8338TIP3    H224979   3.662   4.499   1.875 -0.6962 -0.3861 -0.8575
 8339TIP3   OH224980   0.778   4.231   3.350 -0.1577  0.3387  0.0861
 8339TIP3    H124981   0.826   4.311   3.374  0.2659 -0.3288  1.6229
 8339TIP3    H224982   0.830   4.191   3.281  0.7079  0.3954  0.6897
 8340TIP3   OH224983   4.048   6.363   0.543  0.4040  0.8551  0.0897
 8340TIP3    H124984   4.026   6.456   0.553 -0.1867  0.6378  0.8441
 8340TIP3    H224985   4.010   6.321   0.620 -0.8930 -0.2854 -1.1297
 8341TIP3   OH224986   1.883   5.852   4.325  0.0089 -0.2078 -0.0029
 8341TIP3    H124987   1.856   5.825   4.237  0.0984 -0.4833  0.0521
 8341TIP3    H224988   1.804   5.841   4.379  0.4967 -2.1517  0.4096
 8342TIP3   OH224989   4.008   6.350   1.122 -0.0030  0.4069  0.0558
 8342TIP3    H124990   4.053   6.321   1.202 -0.9187  2.3538  1.3419
 8342TIP3    H224991   3.952   6.277   1.098  1.3710 -0.7812  0.3115
 8343TIP3   OH224992   5.785   1.056   4.701  0.8190  0.3494  0.3927
 8343TIP3    H124993   5.801   1.098   4.616  0.4380 -1.4398 -0.6253
 8343TIP3    H224994   5.849   0.985   4.704  1.0095  0.5525  1.7666
 8344TIP3   OH224995   1.278   5.149   3.822 -0.1350  0.4910  0.0830
 8344TIP3    H124996   1.217   5.203   3.873  0.8836  1.5638  0.2199
 8344TIP3    H224997   1.362   5.194   3.830  0.1498  0.4860 -2.2551
 8345TIP3   OH224998   6.172   0.217   5.329  0.0179 -0.0947  0.0407
 8345TIP3    H124999   6.096   0.231   5.385 -0.4488 -0.5009 -0.4780
 8345TIP3    H225000   6.241   0.185   5.388 -0.0335  0.7955  0.6063
 8346TIP3   OH225001   1.045   5.976   1.392  0.2960 -0.3564  0.1916
 8346TIP3    H125002   1.007   6.063   1.403  0.4510 -0.1690 -0.6626
 8346TIP3    H225003   0.996   5.938   1.319  0.6158 -0.7521  0.1812
 8347TIP3   OH225004   1.374   1.431   0.320 -0.0653 -0.4238  0.2459
 8347TIP3    H125005   1.292   1.474   0.345  1.6781  1.4321  3.4597
 8347TIP3    H225006   1.433   1.503   0.296  1.6770 -1.3032  1.6194
 8348TIP3   OH225007   0.726   0.888   3.178  0.3908 -0.5384 -0.2681
 8348TIP3    H125008   0.699   0.943   3.252 -3.4845 -1.0658 -1.0639
 8348TIP3    H225009   0.767   0.812   3.218  1.6033  0.7601  1.0872
 8349TIP3   OH225010   6.035   1.171   0.891  0.3074 -0.4319 -0.0642
 8349TIP3    H125011   6.011   1.099   0.950 -0.5895 -0.3318 -0.2856
 8349TIP3    H225012   6.125   1.191   0.914  0.0412 -0.5172  1.1542
 8350TIP3   OH225013   4.290   1.253   0.774 -0.8454 -0.1643  0.6567
 8350TIP3    H125014   4.262   1.197   0.701 -1.7422 -2.6132  2.7577
 8350TIP3    H225015   4.380   1.227   0.791 -0.2538  1.1894 -0.1851
 8351TIP3   OH225016   5.480   0.473   1.241 -0.2639  0.4055 -0.3606
 8351TIP3    H125017   5.429   0.489   1.161 -2.6087  0.4587  1.0493
 8351TIP3    H225018   5.515   0.559   1.264 -0.7641  0.6720 -0.5768
 8352TIP3   OH225019   3.781   3.833   3.071 -0.4065 -0.0296 -0.6942
 8352TIP3    H125020   3.711   3.768   3.067 -1.3864  0.7999  1.3773
 8352TIP3    H225021   3.740   3.910   3.110  1.2335  1.1391 -1.1538
 8353TIP3   OH225022   3.899   5.236   3.608 -0.5327  0.0053 -0.0705
 8353TIP3    H125023   3.903   5.306   3.542 -1.9940  0.9534  0.7948
 8353TIP3    H225024   3.986   5.236   3.648  0.2705 -0.3530 -1.7438
 8354TIP3   OH225025   0.358   2.354   0.928  0.3301  0.6204  0.7863
 8354TIP3    H125026   0.383   2.300   0.854  0.1745  1.1996  0.3025
 8354TIP3    H225027   0.424   2.423   0.931  0.0000  0.9423  0.8064
 8355TIP3   OH225028   6.356   0.780   4.915 -0.2116 -0.3097  0.4572
 8355TIP3    H125029   6.380   0.873   4.919  1.7410 -0.7682  0.1894
 8355TIP3    H225030   6.262   0.781   4.897 -0.4885  1.6090  1.7356
 8356TIP3   OH225031   4.626   5.696   4.514  0.4458 -0.0783  0.0732
 8356TIP3    H125032   4.610   5.697   4.420  0.6054  0.2427  0.0483
 8356TIP3    H225033   4.568   5.764   4.549 -0.8260 -1.2905  0.4117
 8357TIP3   OH225034   4.747   3.449   3.642 -0.8534  0.4979 -0.7424
 8357TIP3    H125035   4.787   3.495   3.715 -0.5836  0.0859 -0.6268
 8357TIP3    H225036   4.717   3.366   3.680 -1.2971  0.5540 -0.9553
 8358TIP3   OH225037   4.785   2.316   5.479  0.3082 -0.0031 -0.0357
 8358TIP3    H125038   4.832   2.310   5.396 -0.3161  0.3850 -0.4356
 8358TIP3    H225039   4.835   2.378   5.531 -0.0195  0.7972 -0.6488
 8359TIP3   OH225040   1.345   5.813   3.241  0.1319  0.1289  0.0698
 8359TIP3    H125041   1.280   5.743   3.249  0.4390 -0.2431 -0.6147
 8359TIP3    H225042   1.303   5.878   3.184 -0.1531  0.5177  0.7045
 8360TIP3   OH225043   6.030   5.907   2.602 -0.0753 -0.6233  0.4558
 8360TIP3    H125044   5.951   5.909   2.656  0.5843 -1.6810  1.5057
 8360TIP3    H225045   6.059   5.816   2.605  0.1048 -0.6750 -1.5617
 8361TIP3   OH225046   4.757   6.132   1.930 -0.3416  0.5757 -0.2316
 8361TIP3    H125047   4.781   6.108   2.020  0.5790  0.2621 -0.5527
 8361TIP3    H225048   4.759   6.050   1.882  0.4371  0.9254 -0.8132
 8362TIP3   OH225049   1.642   5.202   4.956 -0.0233 -0.5787  0.3235
 8362TIP3    H125050   1.600   5.259   5.021  0.9580  0.8194 -0.2180
 8362TIP3    H225051   1.732   5.233   4.953 -0.0243 -0.6881 -1.6223
 8363TIP3   OH225052   3.853   3.961   2.240 -0.1836  0.2844  0.1787
 8363TIP3    H125053   3.804   3.908   2.302  0.8969 -0.0905  0.7310
 8363TIP3    H225054   3.894   3.897   2.182  1.1182  0.4994  0.8419
 8364TIP3   OH225055   2.084   2.360   1.391 -0.1617 -0.2216  0.1006
 8364TIP3    H125056   2.010   2.396   1.343 -0.7228 -1.9170 -0.3718
 8364TIP3    H225057   2.160   2.381   1.336 -0.7537 -1.8516 -1.4640
 8365TIP3   OH225058   3.025   4.779   3.522  0.2985  0.1089  0.3201
 8365TIP3    H125059   3.082   4.805   3.595 -0.7496  1.8447  0.5564
 8365TIP3    H225060   3.019   4.856   3.467 -1.1429 -0.3138 -0.1553
 8366TIP3   OH225061   6.703   5.472   5.201 -0.2631 -0.2712 -0.2207
 8366TIP3    H125062   6.774   5.490   5.139  0.1357 -0.0808  0.2766
 8366TIP3    H225063   6.673   5.384   5.178 -0.0555 -0.2416 -0.6179
 8367TIP3   OH225064   7.141   4.940   4.258  0.4933  0.0286 -0.0413
 8367TIP3    H125065   7.072   4.937   4.192 -0.6308 -1.1536  1.1313
 8367TIP3    H225066   7.215   4.981   4.214 -0.8536  1.0618 -1.4337
 8368TIP3   OH225067   3.935   6.215   0.750  0.3705 -0.4114  0.3528
 8368TIP3    H125068   3.924   6.129   0.791 -0.6872  0.4726  2.0109
 8368TIP3    H225069   3.856   6.264   0.773  0.7404  0.8817 -0.9414
 8369TIP3   OH225070   3.471   1.362   0.972 -0.2041 -0.1138  0.4339
 8369TIP3    H125071   3.536   1.426   1.001  0.5933 -0.0310 -1.3978
 8369TIP3    H225072   3.418   1.409   0.908  0.3320 -1.2162 -0.8696
 8370TIP3   OH225073   3.782   2.372   0.246 -0.8313 -0.5838 -0.1922
 8370TIP3    H125074   3.876   2.370   0.228 -0.5810  1.4365  0.6213
 8370TIP3    H225075   3.759   2.280   0.261  0.7823 -1.2490 -1.3725
 8371TIP3   OH225076   5.046   6.776   4.871  0.0203  0.4058 -0.0411
 8371TIP3    H125077   5.033   6.798   4.779  3.5477  1.3621 -0.4740
 8371TIP3    H225078   5.037   6.680   4.875 -0.4560  0.3883 -1.2951
 8372TIP3   OH225079   5.561   2.854   2.469 -0.2480 -0.2067  0.2178
 8372TIP3    H125080   5.576   2.858   2.374 -0.0803 -0.1645  0.2451
 8372TIP3    H225081   5.647   2.874   2.507 -0.5933  0.9816  0.3866
 8373TIP3   OH225082   4.158   3.420   0.321 -0.1826 -0.3837  0.3021
 8373TIP3    H125083   4.242   3.378   0.342 -0.4625 -1.1063 -0.0108
 8373TIP3    H225084   4.126   3.373   0.245 -0.2658  0.7393 -0.3923
 8374TIP3   OH225085   2.249   4.457   2.919 -0.1333 -0.4750  0.1505
 8374TIP3    H125086   2.331   4.504   2.931  0.2854 -1.4237  1.1019
 8374TIP3    H225087   2.212   4.494   2.839  1.0737  0.1722 -0.1266
 8375TIP3   OH225088   4.266   3.431   3.284 -0.4777 -0.1808  0.1744
 8375TIP3    H125089   4.304   3.374   3.217 -2.0479  1.5688 -2.3645
 8375TIP3    H225090   4.281   3.384   3.366  0.6610 -2.9364 -1.4647
 8376TIP3   OH225091   3.589   4.311   5.335 -0.0108 -0.0023 -0.2409
 8376TIP3    H125092   3.496   4.306   5.357  0.2369 -0.1024  0.8360
 8376TIP3    H225093   3.599   4.392   5.286 -0.6202  0.1436 -0.1235
 8377TIP3   OH225094   0.048   2.898   0.695 -0.3526 -0.4678  0.1918
 8377TIP3    H125095   0.135   2.909   0.658 -0.1402  0.9944  1.0315
 8377TIP3    H225096   0.006   2.833   0.639  0.8641 -0.3257 -0.9353
 8378TIP3   OH225097   4.570   2.528   2.472 -0.7492  1.1017 -0.0864
 8378TIP3    H125098   4.538   2.616   2.495 -1.3212  1.0787 -0.7651
 8378TIP3    H225099   4.626   2.542   2.396 -2.2569  0.6886 -1.3188
 8379TIP3   OH225100   7.001   6.623   3.933  0.0840 -0.2071  0.2448
 8379TIP3    H125101   7.011   6.547   3.876  1.1889  0.8735 -1.0851
 8379TIP3    H225102   7.049   6.600   4.013  1.3831 -0.5112 -0.5885
 8380TIP3   OH225103   4.524   6.652   0.305  0.5655 -0.1209  0.0629
 8380TIP3    H125104   4.462   6.657   0.232  0.7783  0.4426 -0.0823
 8380TIP3    H225105   4.481   6.593   0.368  1.2013 -2.1097 -1.2839
 8381TIP3   OH225106   5.686   5.297   2.332 -0.1906 -0.0450  1.0694
 8381TIP3    H125107   5.694   5.392   2.329 -1.1491  0.0426  1.0202
 8381TIP3    H225108   5.757   5.265   2.277  1.5406  0.5609  2.8418
 8382TIP3   OH225109   4.012   5.381   3.047  0.5571 -0.1161 -0.4706
 8382TIP3    H125110   4.045   5.340   2.967 -1.7634  1.2223 -2.2511
 8382TIP3    H225111   3.928   5.338   3.063 -0.6144  1.9123 -0.7921
 8383TIP3   OH225112   4.853   3.725   4.541 -0.2673 -0.0061 -0.5274
 8383TIP3    H125113   4.777   3.667   4.547 -0.6700  0.6600  2.6068
 8383TIP3    H225114   4.815   3.812   4.526 -0.1486  0.2720  0.6729
 8384TIP3   OH225115   0.647   0.639   5.449  0.4069  0.1201  0.3768
 8384TIP3    H125116   0.616   0.624   5.360  1.8677  1.6758 -0.4364
 8384TIP3    H225117   0.721   0.579   5.460  0.2418 -0.0556  0.5545
 8385TIP3   OH225118   6.892   2.973   4.650 -0.2146 -0.5251  0.2798
 8385TIP3    H125119   6.878   3.002   4.559 -1.9238  0.5431  0.8308
 8385TIP3    H225120   6.861   3.046   4.703  0.4665 -1.2605  1.7489
 8386TIP3   OH225121   3.115   4.597   0.783  0.4587 -0.2802 -0.0714
 8386TIP3    H125122   3.085   4.507   0.773  2.4096 -0.7831 -2.2057
 8386TIP3    H225123   3.210   4.593   0.767  0.8777  1.9213  1.4212
 8387TIP3   OH225124   5.997   3.731   1.492  0.2578  0.4506 -0.5368
 8387TIP3    H125125   5.983   3.696   1.580 -0.5974  2.4379  0.1808
 8387TIP3    H225126   6.091   3.722   1.478  0.0847 -2.1244 -0.4618
 8388TIP3   OH225127   6.592   2.856   2.637  0.7204 -0.0132  0.1112
 8388TIP3    H125128   6.582   2.807   2.718 -0.2857  0.5768  0.3577
 8388TIP3    H225129   6.683   2.842   2.612  1.5766  1.2103  2.2865
 8389TIP3   OH225130   4.320   0.919   2.518  0.2642  0.2329  0.1835
 8389TIP3    H125131   4.411   0.943   2.540 -0.0864  1.0920  0.7755
 8389TIP3    H225132   4.274   1.003   2.515 -0.0185  0.0591 -2.6444
 8390TIP3   OH225133   0.276   3.897   2.951 -0.5410 -0.2319 -0.3655
 8390TIP3    H125134   0.260   3.898   2.857 -0.2710  1.0233 -0.4114
 8390TIP3    H225135   0.289   3.988   2.975 -0.2729 -0.5587  0.8397
 8391TIP3   OH225136   2.906   3.878   4.653 -0.1570 -0.1131  0.1880
 8391TIP3    H125137   2.837   3.935   4.619 -0.0713 -0.6593 -0.9349
 8391TIP3    H225138   2.862   3.824   4.719 -0.6504  0.0077 -0.0354
 8392TIP3   OH225139   3.440   5.483   0.477  0.1115 -0.2840  0.1356
 8392TIP3    H125140   3.494   5.429   0.535 -1.0922 -0.5255  1.0649
 8392TIP3    H225141   3.406   5.421   0.412  1.1180 -0.0900 -0.5914
 8393TIP3   OH225142   3.604   0.713   5.800 -0.6582 -0.0108  0.3638
 8393TIP3    H125143   3.682   0.716   5.855 -0.0613 -0.5045 -0.4196
 8393TIP3    H225144   3.543   0.775   5.839  0.4793  1.0682  0.4697
 8394TIP3   OH225145   1.935   6.000   1.232 -0.1380  0.1188  0.3774
 8394TIP3    H125146   1.902   6.066   1.293  0.6621 -0.6842  1.7355
 8394TIP3    H225147   1.861   5.982   1.174 -0.7809  1.2376  0.8238
 8395TIP3   OH225148   2.230   0.524   5.062 -0.1987 -0.0294  0.0304
 8395TIP3    H125149   2.179   0.495   5.137 -0.1323 -0.3435 -0.0448
 8395TIP3    H225150   2.165   0.552   4.997 -0.2548  0.2868  0.2179
 8396TIP3   OH225151   2.763   6.094   1.493  0.5524  0.0707  0.0926
 8396TIP3    H125152   2.772   6.109   1.587  1.4062  0.4008 -0.0296
 8396TIP3    H225153   2.830   6.150   1.453  0.7032 -0.6200 -0.6625
 8397TIP3   OH225154   7.227   3.508   5.383 -0.2428  0.7594  0.2124
 8397TIP3    H125155   7.278   3.582   5.350 -0.7671  1.4223  0.8466
 8397TIP3    H225156   7.145   3.511   5.333  0.6241 -0.8460 -1.4579
 8398TIP3   OH225157   1.515   2.396   1.045  0.1582 -0.4741  0.5295
 8398TIP3    H125158   1.419   2.399   1.045  0.1634 -0.3591 -0.1683
 8398TIP3    H225159   1.542   2.487   1.047  0.2605 -0.5032  0.4231
 8399TIP3   OH225160   0.357   0.558   5.319  0.0229 -0.7136  0.2204
 8399TIP3    H125161   0.399   0.487   5.368 -1.5922 -1.6388  0.3121
 8399TIP3    H225162   0.349   0.524   5.230  0.1938 -0.2249  0.0164
 8400TIP3   OH225163   0.275   6.643   4.248  0.2163 -0.4824 -0.5823
 8400TIP3    H125164   0.302   6.678   4.333  5.1344 -2.5243 -1.0149
 8400TIP3    H225165   0.260   6.550   4.264 -0.8479 -0.5269 -1.6523
 8401TIP3   OH225166   4.914   3.987   1.501  0.5282  0.0588 -0.3984
 8401TIP3    H125167   4.990   3.936   1.474  0.9480  0.7769 -0.5916
 8401TIP3    H225168   4.903   4.053   1.433 -0.2852 -0.0546 -0.3848
 8402TIP3   OH225169   6.696   2.378   4.577  0.4722 -0.3312 -0.1504
 8402TIP3    H125170   6.646   2.317   4.523  0.6366 -0.5508 -0.0562
 8402TIP3    H225171   6.641   2.390   4.655 -0.6947  1.5072 -1.1944
 8403TIP3   OH225172   5.448   6.603   4.295 -0.2952  0.1840 -0.3975
 8403TIP3    H125173   5.389   6.589   4.369 -0.0981 -0.1206 -0.2965
 8403TIP3    H225174   5.390   6.613   4.219 -0.4807 -0.0684 -0.2904
 8404TIP3   OH225175   6.708   3.314   1.577 -0.1940  0.1728 -0.1539
 8404TIP3    H125176   6.767   3.374   1.623 -0.4714  1.2245 -1.1022
 8404TIP3    H225177   6.625   3.322   1.624 -0.3495  0.8930 -0.5330
 8405TIP3   OH225178   1.479   4.202   3.239 -0.2635  0.7762  0.3891
 8405TIP3    H125179   1.539   4.271   3.265 -0.1059  0.2062  1.6345
 8405TIP3    H225180   1.518   4.121   3.273 -1.1785  0.2589  0.2584
 8406TIP3   OH225181   2.461   6.715   1.590 -0.0846  0.0863 -0.2677
 8406TIP3    H125182   2.441   6.631   1.631 -0.3616 -0.1214 -0.8228
 8406TIP3    H225183   2.433   6.780   1.654 -0.6835 -0.2346 -0.1944
 8407TIP3   OH225184   3.964   0.492   5.176  0.3387  0.1344 -0.2459
 8407TIP3    H125185   3.873   0.503   5.204  0.2289  0.1276 -0.5857
 8407TIP3    H225186   3.980   0.565   5.117  1.8239  2.4922  2.8108
 8408TIP3   OH225187   2.250   4.274   3.836  0.6112 -0.0005 -0.2205
 8408TIP3    H125188   2.168   4.323   3.838  0.0959 -0.8569  1.0104
 8408TIP3    H225189   2.257   4.235   3.923  1.5390 -1.2228 -0.8058
 8409TIP3   OH225190   2.260   5.760   1.181 -0.2099 -0.2109  0.2987
 8409TIP3    H125191   2.196   5.814   1.135 -0.9188  0.6570  2.2367
 8409TIP3    H225192   2.217   5.675   1.192 -0.3717 -0.1481  0.1402
 8410TIP3   OH225193   6.237   2.891   5.605 -0.4353  0.0464 -0.5146
 8410TIP3    H125194   6.229   2.983   5.632 -0.9250  0.2702 -1.3911
 8410TIP3    H225195   6.297   2.893   5.531  0.8633 -0.5641  0.4681
 8411TIP3   OH225196   5.812   3.435   1.936 -0.0089  0.3078 -0.0026
 8411TIP3    H125197   5.812   3.354   1.988  0.7135  1.5494  2.0206
 8411TIP3    H225198   5.831   3.405   1.847 -0.4943 -1.8169  0.5316
 8412TIP3   OH225199   6.265   2.184   4.285  0.1428 -0.7332  0.0419
 8412TIP3    H125200   6.208   2.107   4.278  2.5766 -2.7124  0.6497
 8412TIP3    H225201   6.259   2.210   4.377 -0.1289 -0.6451 -0.0006
 8413TIP3   OH225202   3.117   6.500   0.150 -0.4118 -0.0389  0.1484
 8413TIP3    H125203   3.082   6.513   0.062  0.8659  1.4431 -0.1837
 8413TIP3    H225204   3.112   6.405   0.164  1.8314 -0.7080 -2.6234
 8414TIP3   OH225205   6.035   6.349   2.966 -0.4946 -0.2636  0.3412
 8414TIP3    H125206   5.940   6.345   2.980 -0.4516 -1.5059  0.3853
 8414TIP3    H225207   6.068   6.387   3.047 -1.1350  2.6307 -0.6583
 8415TIP3   OH225208   3.904   6.546   1.471  0.3883 -0.5665 -0.2354
 8415TIP3    H125209   3.933   6.545   1.563  0.2055 -1.6721 -0.1723
 8415TIP3    H225210   3.821   6.498   1.472  0.4031 -0.6091 -0.9864
 8416TIP3   OH225211   0.480   0.294   3.626  0.1301 -0.6249  0.2237
 8416TIP3    H125212   0.396   0.292   3.673 -0.5042  0.7468 -0.7682
 8416TIP3    H225213   0.508   0.386   3.631  0.6119 -0.6776 -1.0698
 8417TIP3   OH225214   4.094   5.136   4.647 -0.4054 -0.2177 -0.1203
 8417TIP3    H125215   4.065   5.096   4.730  0.1882 -2.5587 -0.9662
 8417TIP3    H225216   4.013   5.156   4.601 -0.7463  1.0863  0.9684
 8418TIP3   OH225217   4.228   6.085   5.257  0.2633  0.1994 -0.1962
 8418TIP3    H125218   4.135   6.062   5.259  0.3993 -0.3610 -0.0946
 8418TIP3    H225219   4.245   6.123   5.343 -0.2456  1.8673 -0.7878
 8419TIP3   OH225220   6.079   1.149   3.504 -0.2967  0.0347 -0.6038
 8419TIP3    H125221   6.115   1.178   3.421  1.5324 -0.6490 -0.0840
 8419TIP3    H225222   6.155   1.127   3.558 -1.4420  0.1318  1.1388
 8420TIP3   OH225223   2.545   6.251   5.657  0.5516 -0.0460 -0.0120
 8420TIP3    H125224   2.557   6.324   5.597  0.8223  1.0744  1.3397
 8420TIP3    H225225   2.451   6.231   5.653  0.3826  0.7375 -0.0059
 8421TIP3   OH225226   3.393   1.519   0.412 -0.0094  0.0394 -0.3159
 8421TIP3    H125227   3.463   1.571   0.451  0.2196  0.5116 -1.3474
 8421TIP3    H225228   3.438   1.442   0.376 -0.2535 -0.5204  0.5168
 8422TIP3   OH225229   3.334   0.798   5.265 -0.3856  0.3150  0.1559
 8422TIP3    H125230   3.251   0.819   5.223 -0.4849 -0.2920  0.0369
 8422TIP3    H225231   3.315   0.799   5.359 -0.5867 -0.0488  0.1206
 8423TIP3   OH225232   4.776   0.614   0.358  0.1522  0.4008 -0.3440
 8423TIP3    H125233   4.693   0.580   0.390  0.2914 -0.7049 -1.1139
 8423TIP3    H225234   4.771   0.709   0.372 -1.4115  0.3977 -0.7640
 8424TIP3   OH225235   2.362   1.101   0.532  0.3856 -0.4203 -0.0037
 8424TIP3    H125236   2.279   1.135   0.564 -0.0063 -0.5556 -0.8624
 8424TIP3    H225237   2.419   1.178   0.526 -0.2108 -0.0377 -1.0426
 8425TIP3   OH225238   6.601   2.904   4.226 -0.2705 -0.0741 -0.1487
 8425TIP3    H125239   6.619   2.848   4.302 -1.2682 -0.6799 -0.3385
 8425TIP3    H225240   6.570   2.986   4.263 -1.7646 -0.7271  0.1148
 8426TIP3   OH225241   4.543   1.595   3.734  0.2326 -0.0632  0.0384
 8426TIP3    H125242   4.457   1.565   3.707 -0.1369  0.6479  0.3870
 8426TIP3    H225243   4.581   1.634   3.655  0.8330 -1.6567 -0.4896
 8427TIP3   OH225244   6.665   5.516   4.025  0.6348  0.4242  0.3683
 8427TIP3    H125245   6.716   5.449   3.980  0.3518 -0.4825  1.3501
 8427TIP3    H225246   6.654   5.586   3.961  1.3099 -0.2812 -0.5339
 8428TIP3   OH225247   2.841   2.128   5.841 -0.3804  0.0318  0.5792
 8428TIP3    H125248   2.868   2.125   5.933 -0.7372  0.2284  0.6920
 8428TIP3    H225249   2.886   2.205   5.806  0.5203 -0.5962  0.3403
 8429TIP3   OH225250   1.145   1.200   3.125  0.6532 -0.3636  0.3119
 8429TIP3    H125251   1.231   1.222   3.161  0.3489  1.9236 -0.2473
 8429TIP3    H225252   1.160   1.194   3.031  0.2443 -0.2107  0.2378
 8430TIP3   OH225253   7.067   5.915   3.716  0.1684  0.1970 -0.6089
 8430TIP3    H125254   7.044   5.894   3.807 -1.0996 -1.1401 -1.1950
 8430TIP3    H225255   7.162   5.926   3.717  0.0265  1.8032  1.1715
 8431TIP3   OH225256   4.403   4.488   1.958 -0.3635 -0.0330 -0.7141
 8431TIP3    H125257   4.402   4.524   1.869  0.8314 -1.1110 -1.1951
 8431TIP3    H225258   4.422   4.395   1.946  0.2377 -0.1147  0.6898
 8432TIP3   OH225259   1.322   4.552   3.805 -0.2556 -0.2293 -0.4154
 8432TIP3    H125260   1.338   4.640   3.839 -0.5962  0.1398 -1.1674
 8432TIP3    H225261   1.402   4.529   3.759 -0.3079 -0.1365 -0.5572
 8433TIP3   OH225262   0.416   5.380   1.770 -0.2220  0.0986  0.6990
 8433TIP3    H125263   0.451   5.459   1.810  0.8062 -0.2906  0.5765
 8433TIP3    H225264   0.335   5.363   1.818  0.4186  0.2639  1.8724
 8434TIP3   OH225265   5.252   5.584   1.473 -0.1017 -0.4064 -0.4246
 8434TIP3    H125266   5.262   5.643   1.547 -1.4664  0.2163 -0.6943
 8434TIP3    H225267   5.323   5.521   1.482  1.1301  1.0161  0.1073
 8435TIP3   OH225268   6.736   2.311   1.400  0.5196  0.4905  0.4397
 8435TIP3    H125269   6.656   2.277   1.441 -0.8886 -0.1012 -2.5504
 8435TIP3    H225270   6.708   2.392   1.357  2.2146  1.7136  1.5021
 8436TIP3   OH225271   0.054   3.646   3.228 -0.3087 -0.0243  0.0363
 8436TIP3    H125272   0.025   3.556   3.209 -1.3365  0.7131 -2.2343
 8436TIP3    H225273  -0.010   3.679   3.291 -1.1048 -0.2363 -0.6532
 8437TIP3   OH225274   6.035   3.684   3.686  0.0012 -0.3255 -0.5120
 8437TIP3    H125275   6.036   3.689   3.590 -0.3782 -0.4435 -0.5222
 8437TIP3    H225276   6.122   3.651   3.709  1.0667  2.1644 -0.6710
 8438TIP3   OH225277   0.127   2.529   1.717  0.3989 -0.6110 -0.2049
 8438TIP3    H125278   0.063   2.587   1.675  0.6011 -0.9534 -1.0182
 8438TIP3    H225279   0.187   2.588   1.761 -1.0737 -0.3083  1.5070
 8439TIP3   OH225280   1.973   1.114   3.268 -0.0899  0.1734 -0.4531
 8439TIP3    H125281   2.051   1.123   3.212  0.4381  2.2265  0.4742
 8439TIP3    H225282   2.005   1.070   3.347 -0.5272 -1.4750 -1.1603
 8440TIP3   OH225283   1.558   3.248   3.413  0.1419  0.5174  0.2635
 8440TIP3    H125284   1.534   3.164   3.376  0.1511  0.2980  0.7484
 8440TIP3    H225285   1.557   3.309   3.338  0.3367  0.0508 -0.1223
 8441TIP3   OH225286   6.761   4.563   0.941  0.0849  0.0580  0.3332
 8441TIP3    H125287   6.838   4.513   0.969 -1.0969 -2.1053 -0.0534
 8441TIP3    H225288   6.751   4.541   0.848 -0.4118  1.1370  0.1228
 8442TIP3   OH225289   2.054   4.957   2.361 -0.6402 -0.1569  0.2926
 8442TIP3    H125290   2.050   4.893   2.290 -0.3934 -0.8567  0.8896
 8442TIP3    H225291   1.986   4.928   2.423  0.3285 -0.6044  1.1748
 8443TIP3   OH225292   1.178   4.900   0.338 -0.2465  0.4271  0.5408
 8443TIP3    H125293   1.237   4.843   0.290 -0.2743  0.6626  0.2262
 8443TIP3    H225294   1.228   4.928   0.414  0.4634  1.5526 -0.3178
 8444TIP3   OH225295   4.199   3.653   5.537 -0.2182 -0.1894 -0.0625
 8444TIP3    H125296   4.226   3.562   5.524  0.6810  0.0685 -0.1222
 8444TIP3    H225297   4.139   3.672   5.466  1.8459  0.1262 -1.8456
 8445TIP3   OH225298   7.009   2.541   4.248 -0.2016  0.2342 -0.0660
 8445TIP3    H125299   7.085   2.572   4.198 -1.3622  2.3326 -0.6632
 8445TIP3    H225300   7.041   2.464   4.296  2.1003  0.6619 -0.8000
 8446TIP3   OH225301   5.735   4.437   5.253  0.1767  0.3059  0.1177
 8446TIP3    H125302   5.648   4.422   5.216 -0.3647  0.9793  1.0631
 8446TIP3    H225303   5.729   4.525   5.292  1.4915  0.6464 -0.3977
 8447TIP3   OH225304   7.171   1.975   1.025  0.6463  0.5997 -0.2467
 8447TIP3    H125305   7.263   1.995   1.008  2.0208 -1.8874  3.0550
 8447TIP3    H225306   7.151   2.022   1.106  0.2859 -1.6504  1.0683
 8448TIP3   OH225307   0.810   0.806   0.983  0.1308 -0.0922 -0.1369
 8448TIP3    H125308   0.773   0.763   0.906  0.1607  0.0517 -0.2304
 8448TIP3    H225309   0.900   0.775   0.988  0.3184  0.3879 -0.5196
 8449TIP3   OH225310   2.270   6.425   4.369 -0.6643 -0.1024 -0.4065
 8449TIP3    H125311   2.241   6.388   4.285 -0.8405 -1.9198  0.4134
 8449TIP3    H225312   2.197   6.407   4.429 -0.4704  1.0308  0.1859
 8450TIP3   OH225313   3.974   5.405   0.361 -0.1469  0.2905  0.4339
 8450TIP3    H125314   4.061   5.376   0.335 -0.3295  2.1171 -2.7742
 8450TIP3    H225315   3.938   5.333   0.412  2.4163 -1.4181 -0.0039
 8451TIP3   OH225316   4.914   5.034   2.920  0.4081  0.1260 -0.1831
 8451TIP3    H125317   4.943   4.967   2.859 -0.1197  1.3769 -1.8670
 8451TIP3    H225318   4.856   4.988   2.981 -1.8417 -0.5985 -2.6835
 8452TIP3   OH225319   1.469   0.579   2.732 -0.0733 -0.4497  0.2003
 8452TIP3    H125320   1.432   0.551   2.816  2.5862  0.8493  1.9304
 8452TIP3    H225321   1.444   0.671   2.725 -0.9342 -0.7475 -0.8629
 8453TIP3   OH225322   5.140   4.777   2.424  0.0291 -0.7274 -0.0161
 8453TIP3    H125323   5.232   4.749   2.427  0.9359  1.7101 -1.9506
 8453TIP3    H225324   5.135   4.848   2.489  0.0793  0.4979 -1.3135
 8454TIP3   OH225325   2.364   5.236   0.953  0.5536 -0.6016 -0.2351
 8454TIP3    H125326   2.365   5.157   0.899 -0.0076 -1.3926  0.8590
 8454TIP3    H225327   2.336   5.306   0.894 -0.4880 -1.5111 -0.8611
 8455TIP3   OH225328   2.760   5.030   4.097 -0.1812 -0.1752 -0.0794
 8455TIP3    H125329   2.786   5.101   4.038  0.3102 -0.2657  0.0248
 8455TIP3    H225330   2.802   4.952   4.060 -1.3267 -0.5578 -0.6240
 8456TIP3   OH225331   5.079   5.136   0.541 -0.5888 -0.0325 -0.1603
 8456TIP3    H125332   5.148   5.076   0.569 -1.2600 -2.3519 -3.0265
 8456TIP3    H225333   5.122   5.196   0.480 -0.5832  0.2980  0.1634
 8457TIP3   OH225334   0.639   2.848   0.856  0.0785 -0.1796 -0.0093
 8457TIP3    H125335   0.582   2.786   0.809  0.4359 -1.0235  0.6555
 8457TIP3    H225336   0.592   2.867   0.937  0.6782 -0.7754  0.4813
 8458TIP3   OH225337   4.577   6.122   2.960 -0.0029 -0.3134  0.5773
 8458TIP3    H125338   4.530   6.187   3.013 -0.1223 -0.4560  0.6454
 8458TIP3    H225339   4.577   6.159   2.872 -1.2192 -0.8389  0.3449
 8459TIP3   OH225340   4.857   3.474   0.240 -0.2605  0.1488 -0.2873
 8459TIP3    H125341   4.937   3.520   0.215  0.6227 -0.0635  1.9383
 8459TIP3    H225342   4.867   3.458   0.333 -1.8820 -1.9511 -0.4133
 8460TIP3   OH225343   5.189   6.146   2.143  0.4309 -0.5204  0.2443
 8460TIP3    H125344   5.245   6.205   2.093 -0.0638 -1.1713 -1.1488
 8460TIP3    H225345   5.217   6.058   2.117  0.0729 -0.8740  1.0268
 8461TIP3   OH225346   1.256   1.495   3.068  0.1297  0.7023 -0.0904
 8461TIP3    H125347   1.320   1.451   3.125  0.0416  0.9078  0.1704
 8461TIP3    H225348   1.310   1.542   3.004  0.2235  0.1386 -0.4353
 8462TIP3   OH225349   3.240   1.758   5.685 -0.6305  0.2303  0.0581
 8462TIP3    H125350   3.303   1.796   5.746  1.4813  0.5915 -2.2052
 8462TIP3    H225351   3.270   1.667   5.674  1.7164  1.2435 -3.5106
 8463TIP3   OH225352   5.739   2.088   1.630 -0.5030  0.6947 -0.6204
 8463TIP3    H125353   5.787   2.138   1.564  0.2535  2.1049  0.9266
 8463TIP3    H225354   5.714   2.152   1.696 -0.1374 -0.8521  1.1024
 8464TIP3   OH225355   5.563   5.458   3.413  0.5304 -0.1509  0.2181
 8464TIP3    H125356   5.585   5.531   3.355  0.2014 -0.3141 -0.1155
 8464TIP3    H225357   5.636   5.454   3.474  0.7345  0.2190  0.0048
 8465TIP3   OH225358   3.796   5.131   3.368 -0.3718  0.2554  0.3173
 8465TIP3    H125359   3.797   5.128   3.464 -1.8705  0.6995  0.3592
 8465TIP3    H225360   3.876   5.178   3.345  0.5063 -0.7020  1.2947
 8466TIP3   OH225361   5.995   6.124   3.192  0.6598 -0.1493 -0.2152
 8466TIP3    H125362   5.992   6.030   3.207  0.4337 -0.3954 -1.6878
 8466TIP3    H225363   5.903   6.152   3.196  0.7088 -0.0169  0.0261
 8467TIP3   OH225364   5.434   4.778   5.559 -0.5997  0.4031 -0.1749
 8467TIP3    H125365   5.521   4.786   5.599 -0.3609 -0.7930 -0.4296
 8467TIP3    H225366   5.396   4.700   5.599 -0.1550 -1.1607 -2.6201
 8468TIP3   OH225367   3.698   2.301   0.758  0.0953 -0.5987 -0.0473
 8468TIP3    H125368   3.756   2.239   0.714  0.0655 -0.0706 -0.8592
 8468TIP3    H225369   3.752   2.379   0.771 -0.6805  0.2841 -1.7478
 8469TIP3   OH225370   0.727   5.888   0.140  0.0504 -0.0495 -0.0410
 8469TIP3    H125371   0.821   5.883   0.125  0.3159  1.1033  1.0435
 8469TIP3    H225372   0.696   5.798   0.131  1.4592 -0.6403  0.7684
 8470TIP3   OH225373   4.711   6.117   5.403 -0.5312  0.2969 -0.2737
 8470TIP3    H125374   4.627   6.113   5.449 -0.0197  0.2198  0.6972
 8470TIP3    H225375   4.739   6.026   5.396  0.2998  0.4064  1.0557
 8471TIP3   OH225376   6.230   4.660   4.244 -0.1931 -0.2691 -0.1824
 8471TIP3    H125377   6.144   4.634   4.211 -0.3133  0.5969 -0.5698
 8471TIP3    H225378   6.232   4.628   4.334 -1.0183 -0.0715 -0.0921
 8472TIP3   OH225379   5.325   1.754   1.192 -0.5489  0.0146  0.0871
 8472TIP3    H125380   5.249   1.791   1.237 -2.3773 -2.4943 -0.6859
 8472TIP3    H225381   5.322   1.793   1.104  0.8351  2.0839  0.8845
 8473TIP3   OH225382   1.601   3.353   1.429  0.0558  0.3453  0.0134
 8473TIP3    H125383   1.630   3.267   1.461 -0.4910 -0.1411 -0.7426
 8473TIP3    H225384   1.525   3.374   1.483  0.0850  0.2664  0.0856
 8474TIP3   OH225385   0.763   3.267   5.314 -0.0370 -0.7116  0.3353
 8474TIP3    H125386   0.813   3.245   5.392 -0.3706  0.6254  0.9637
 8474TIP3    H225387   0.681   3.221   5.324  0.4539 -1.6587  0.0772
 8475TIP3   OH225388   4.987   6.506   1.468 -0.1011 -0.4890 -0.1431
 8475TIP3    H125389   4.904   6.459   1.457 -0.5829  0.1575  0.6182
 8475TIP3    H225390   4.970   6.567   1.540  0.0018  1.9338 -2.0414
 8476TIP3   OH225391   6.424   1.712   2.079 -0.2532  0.2311 -0.5224
 8476TIP3    H125392   6.341   1.758   2.078  0.1070  0.9143  0.2402
 8476TIP3    H225393   6.401   1.620   2.066 -1.5084 -0.1755  3.4022
 8477TIP3   OH225394   1.365   0.546   3.368 -0.4536 -0.1264 -0.5050
 8477TIP3    H125395   1.326   0.556   3.455 -0.0938 -1.8398 -0.1121
 8477TIP3    H225396   1.450   0.506   3.384  0.5666  1.5008 -1.5257
 8478TIP3   OH225397   1.207   1.798   1.466 -0.3994 -0.4324  0.3644
 8478TIP3    H125398   1.272   1.733   1.492  1.7542  0.6678 -1.9079
 8478TIP3    H225399   1.205   1.860   1.539 -1.1486 -2.0145  1.7499
 8479TIP3   OH225400   3.841   4.202   2.682 -0.1851 -0.1438  0.1578
 8479TIP3    H125401   3.935   4.197   2.668 -0.5186 -1.3485 -2.2439
 8479TIP3    H225402   3.808   4.116   2.656 -2.1849  1.0116 -1.4583
 8480TIP3   OH225403   3.012   4.037   1.463  0.3224 -0.2164  0.1368
 8480TIP3    H125404   3.026   3.977   1.390 -0.1476 -0.1870  0.0233
 8480TIP3    H225405   3.100   4.065   1.488  0.7243 -2.3218  1.3460
 8481TIP3   OH225406   6.061   2.042   5.168 -0.8232 -0.1490 -0.2088
 8481TIP3    H125407   6.129   2.036   5.235 -0.8886 -2.3590 -0.2698
 8481TIP3    H225408   6.107   2.030   5.085 -0.6520  3.1408 -0.7482
 8482TIP3   OH225409   3.197   0.044   3.042 -1.0916 -0.5255 -0.1619
 8482TIP3    H125410   3.244  -0.039   3.054  1.0978  0.5405 -0.8913
 8482TIP3    H225411   3.175   0.072   3.131 -1.3284 -1.5750  0.1296
 8483TIP3   OH225412   1.021   4.125   3.532  0.5726 -0.3145 -0.6067
 8483TIP3    H125413   1.035   4.149   3.624  0.1257  1.0818 -0.8784
 8483TIP3    H225414   1.072   4.189   3.483 -0.7957  0.2163 -1.3861
 8484TIP3   OH225415   4.217   2.215   3.343 -0.0926 -1.0982  0.1437
 8484TIP3    H125416   4.131   2.173   3.340 -0.7071  0.1537 -1.5962
 8484TIP3    H225417   4.211   2.285   3.278  0.8948  1.6528  2.8021
 8485TIP3   OH225418   6.672   1.800   0.182 -0.0231 -0.0990 -0.1071
 8485TIP3    H125419   6.627   1.781   0.265  1.1321 -0.2755  0.4937
 8485TIP3    H225420   6.677   1.714   0.138  1.1427 -0.3890  0.5577
 8486TIP3   OH225421   2.899   2.271   2.555 -0.1350  0.3782  0.4276
 8486TIP3    H125422   2.880   2.275   2.462 -2.8159 -0.3155  0.8627
 8486TIP3    H225423   2.891   2.178   2.578  1.0789  0.4512  1.2600
 8487TIP3   OH225424   2.300   6.540   2.008  0.1897 -0.2500 -0.3226
 8487TIP3    H125425   2.343   6.579   2.083  1.4955 -1.6207 -0.3179
 8487TIP3    H225426   2.269   6.455   2.040 -1.0971  0.0125 -0.7877
 8488TIP3   OH225427   7.040   1.035   4.948  0.3736  0.3423 -0.0526
 8488TIP3    H125428   6.951   1.070   4.953 -0.0253 -0.6183 -0.2039
 8488TIP3    H225429   7.031   0.956   4.895  1.5245  0.8840 -1.1022
 8489TIP3   OH225430   5.813   5.981   1.850  0.4621 -0.0065 -0.2515
 8489TIP3    H125431   5.785   6.066   1.815  0.9947 -0.0208 -0.7286
 8489TIP3    H225432   5.891   5.959   1.799  1.0448 -0.2014  0.7071
 8490TIP3   OH225433   6.766   2.065   1.792 -0.3521  0.7399 -0.0175
 8490TIP3    H125434   6.711   1.988   1.777 -1.0896  1.5888 -2.1643
 8490TIP3    H225435   6.740   2.097   1.879 -0.9338 -0.6933  0.3597
 8491TIP3   OH225436   0.379   3.854   2.629 -0.0898 -0.4951  0.0220
 8491TIP3    H125437   0.393   3.919   2.560 -0.9765  1.1046  1.2987
 8491TIP3    H225438   0.461   3.805   2.632  0.2557 -0.0890 -1.6133
 8492TIP3   OH225439   3.241   1.717   3.843  0.0612  0.4778 -0.3130
 8492TIP3    H125440   3.195   1.754   3.767 -2.3752  1.0592  1.3099
 8492TIP3    H225441   3.305   1.784   3.867 -0.1776  0.9573 -0.9692
 8493TIP3   OH225442   4.089   6.728   2.613  0.4858 -0.3279  0.3181
 8493TIP3    H125443   4.033   6.768   2.679  1.9345  1.7888  0.3638
 8493TIP3    H225444   4.152   6.677   2.663  0.2654 -0.4964  0.4262
 8494TIP3   OH225445   4.610   1.550   5.388  0.3963  0.1349  0.0745
 8494TIP3    H125446   4.548   1.602   5.336  0.9136 -1.8858 -2.7894
 8494TIP3    H225447   4.685   1.538   5.331  1.1532 -1.9798  1.4027
 8495TIP3   OH225448   5.628   5.646   3.222  0.0159  0.2457 -0.5225
 8495TIP3    H125449   5.645   5.735   3.254  0.6820 -0.4071  1.0574
 8495TIP3    H225450   5.672   5.642   3.138 -0.0871  1.4373 -0.6547
 8496TIP3   OH225451   3.773   0.742   0.672 -0.1851 -0.5033  0.4289
 8496TIP3    H125452   3.706   0.679   0.698 -1.7310  1.2309  0.8341
 8496TIP3    H225453   3.805   0.709   0.588 -3.4719 -0.0401 -1.1487
 8497TIP3   OH225454   1.229   3.786   5.209 -0.3269 -0.3844  0.7028
 8497TIP3    H125455   1.177   3.729   5.152  1.0600 -1.7411  0.7344
 8497TIP3    H225456   1.295   3.823   5.151  0.1257 -0.5345  1.1213
 8498TIP3   OH225457   1.013   4.692   3.761 -0.1608  0.0302 -0.4191
 8498TIP3    H125458   1.096   4.740   3.763 -0.7600  1.1043 -0.4142
 8498TIP3    H225459   1.018   4.640   3.680  1.0535 -0.9639  0.2515
 8499TIP3   OH225460   5.155   0.515   4.958  0.2627 -0.2366  0.4006
 8499TIP3    H125461   5.072   0.469   4.948  0.1921 -0.2683  1.0850
 8499TIP3    H225462   5.154   0.548   5.048  0.3913  0.9464 -0.0138
 8500TIP3   OH225463   0.233   1.624   1.572 -0.0946  0.0543  0.2019
 8500TIP3    H125464   0.156   1.572   1.596  0.9514 -1.0982  1.2327
 8500TIP3    H225465   0.263   1.662   1.654  1.3691 -0.8532  0.1207
 8501TIP3   OH225466   1.219   5.391   1.157  0.2140 -0.2468 -0.0991
 8501TIP3    H125467   1.279   5.316   1.158 -0.1308 -0.5253 -0.3151
 8501TIP3    H225468   1.231   5.432   1.243  0.7979 -0.2333 -0.1805
 8502TIP3   OH225469   4.682   6.028   4.082  0.1974  0.1767  0.0474
 8502TIP3    H125470   4.752   5.993   4.027  1.4867  0.3726  1.4950
 8502TIP3    H225471   4.601   5.997   4.040  1.0670  0.7354 -2.2001
 8503TIP3   OH225472   4.130   3.409   4.710  0.3330  0.5897 -0.3584
 8503TIP3    H125473   4.122   3.504   4.706 -2.9939  0.4608 -0.0451
 8503TIP3    H225474   4.065   3.377   4.647 -0.8404 -1.4155  1.7010
 8504TIP3   OH225475   2.433   3.610   0.640 -0.2073 -0.4182 -0.2630
 8504TIP3    H125476   2.409   3.520   0.617  0.3916 -0.5377 -0.4390
 8504TIP3    H225477   2.401   3.663   0.566 -1.1642 -0.3873  0.1487
 8505TIP3   OH225478   3.273   5.427   0.032  0.0820  0.2032 -0.3795
 8505TIP3    H125479   3.228   5.504  -0.002 -0.2422  0.3574  0.3851
 8505TIP3    H225480   3.348   5.415  -0.027 -0.3889  0.5416 -1.0560
 8506TIP3   OH225481   2.640   4.149   3.927  0.4119 -0.1740 -0.4120
 8506TIP3    H125482   2.557   4.127   3.970 -1.0950  0.8317 -2.6086
 8506TIP3    H225483   2.670   4.228   3.972 -0.6324  0.3125 -0.5226
 8507TIP3   OH225484   5.039   1.790   5.196  0.5060 -0.5862  0.3379
 8507TIP3    H125485   5.067   1.700   5.213 -0.1584 -0.7892  0.3522
 8507TIP3    H225486   5.105   1.824   5.135  0.4333 -1.2717 -0.1360
 8508TIP3   OH225487   0.886   0.566   3.964 -0.6006  0.1926 -0.5684
 8508TIP3    H125488   0.794   0.554   3.985 -0.2997  0.3212  0.9405
 8508TIP3    H225489   0.922   0.613   4.039  0.6575  0.3246 -1.2229
 8509TIP3   OH225490   5.217   6.155   5.418  0.1000  0.2055 -0.8595
 8509TIP3    H125491   5.277   6.226   5.395 -1.3531  2.1623  0.9859
 8509TIP3    H225492   5.129   6.192   5.405 -0.7176 -1.5209 -0.5551
 8510TIP3   OH225493   6.363   2.463   0.857  0.7454  0.3312  0.1177
 8510TIP3    H125494   6.357   2.404   0.782 -0.6457 -2.7847  2.4474
 8510TIP3    H225495   6.445   2.440   0.899  0.8785  1.1072  0.2985
 8511TIP3   OH225496   3.201   2.018   3.807  0.3858  0.2538  0.2324
 8511TIP3    H125497   3.135   2.028   3.738  1.3142  0.2154 -0.6815
 8511TIP3    H225498   3.271   2.077   3.781  1.0678 -0.3204  0.7495
 8512TIP3   OH225499   2.738   4.388   5.640 -0.3576 -0.1850 -0.3418
 8512TIP3    H125500   2.711   4.480   5.645 -2.1076 -0.5702 -1.7350
 8512TIP3    H225501   2.806   4.379   5.707 -1.0076  1.8197  0.6536
 8513TIP3   OH225502   2.537   0.088   1.894  0.5022  0.2979 -0.2985
 8513TIP3    H125503   2.530   0.093   1.990  1.4468 -0.4720 -0.1716
 8513TIP3    H225504   2.517  -0.003   1.873  0.2036  0.4908 -0.8405
 8514TIP3   OH225505   2.796   3.277   0.790 -0.5750 -0.1334 -0.3022
 8514TIP3    H125506   2.782   3.251   0.699  1.2259  0.1481 -0.7010
 8514TIP3    H225507   2.709   3.272   0.830 -0.8688 -4.1868 -1.0104
 8515TIP3   OH225508   2.126   5.541   5.026  0.4526 -0.0510 -0.3367
 8515TIP3    H125509   2.166   5.605   5.084  1.8033 -0.8604 -0.3177
 8515TIP3    H225510   2.049   5.585   4.990 -0.1925  0.6187  1.7264
 8516TIP3   OH225511   1.423   2.462   3.951  0.0185  0.0340  0.3529
 8516TIP3    H125512   1.381   2.471   4.037  0.0224  0.2756  0.3297
 8516TIP3    H225513   1.473   2.381   3.957  0.3345  0.2507  0.7149
 8517TIP3   OH225514   7.065   5.261   3.818 -0.1222  0.3794  0.2218
 8517TIP3    H125515   7.160   5.271   3.818 -0.1140  0.2779 -0.3039
 8517TIP3    H225516   7.050   5.169   3.840 -0.1573  0.8663  2.5987
 8518TIP3   OH225517   0.752   3.769   2.609 -0.3930 -0.1196  0.0230
 8518TIP3    H125518   0.701   3.693   2.581  0.5386 -0.8437  0.2228
 8518TIP3    H225519   0.831   3.731   2.649 -0.7373  0.9041  1.8053
 8519TIP3   OH225520   7.021   5.582   5.611  0.1979  0.3473  0.6269
 8519TIP3    H125521   7.008   5.614   5.522  0.2485  1.6142  1.0514
 8519TIP3    H225522   6.933   5.559   5.642 -0.2578  2.6317  1.2115
 8520TIP3   OH225523   2.034   2.678   2.925  0.2229  0.0094 -0.2782
 8520TIP3    H125524   2.078   2.596   2.901 -0.3822  0.0474 -1.5597
 8520TIP3    H225525   1.941   2.660   2.913  0.0662  0.7880 -0.2629
 8521TIP3   OH225526   1.643   6.627   0.243  0.7687  0.2951  0.2297
 8521TIP3    H125527   1.735   6.624   0.218  0.3875 -1.2393 -1.1783
 8521TIP3    H225528   1.608   6.541   0.218 -0.9075  0.6119  1.2905
 8522TIP3   OH225529   5.530   2.038   5.749  0.0185 -0.1561 -0.0999
 8522TIP3    H125530   5.533   2.077   5.661  0.0434 -0.0465 -0.0505
 8522TIP3    H225531   5.620   2.010   5.766  0.1328  0.3411  0.1238
 8523TIP3   OH225532   4.896   0.884   5.073 -0.0407  0.0391  0.0963
 8523TIP3    H125533   4.990   0.881   5.056 -0.1454 -1.2560 -0.3811
 8523TIP3    H225534   4.879   0.806   5.126 -0.5051  1.4371  2.1197
 8524TIP3   OH225535   5.225   0.938   3.719 -0.1713 -0.2974 -0.0682
 8524TIP3    H125536   5.291   0.954   3.787 -0.8704 -0.5334  0.6772
 8524TIP3    H225537   5.170   0.869   3.755  0.7479 -2.0347 -1.7912
 8525TIP3   OH225538   5.715   2.622   4.409 -0.2451 -1.4402  0.4455
 8525TIP3    H125539   5.721   2.650   4.501  0.9478  0.1435 -0.0858
 8525TIP3    H225540   5.752   2.534   4.409  0.5759 -1.1123  1.3517
 8526TIP3   OH225541   3.381   5.245   5.457  0.4953 -0.2231  0.2800
 8526TIP3    H125542   3.375   5.226   5.550  1.3285  0.7527  0.5482
 8526TIP3    H225543   3.302   5.295   5.437 -0.1572 -1.2287  0.2333
 8527TIP3   OH225544   0.884   4.086   0.045  0.1450  0.8146  0.0836
 8527TIP3    H125545   0.846   4.151   0.103  1.5081  0.6963  1.1482
 8527TIP3    H225546   0.895   4.008   0.099  0.8097  0.4834 -0.5042
 8528TIP3   OH225547   5.771   6.370   2.873  0.4748  0.4201  0.4402
 8528TIP3    H125548   5.763   6.453   2.826  1.9626  0.3709  0.0658
 8528TIP3    H225549   5.680   6.346   2.894 -0.1301  1.1486 -1.1514
 8529TIP3   OH225550   2.945   0.907   2.628 -0.0582 -0.1548 -0.4539
 8529TIP3    H125551   2.891   0.985   2.616  1.7368  1.3046  0.4617
 8529TIP3    H225552   2.912   0.868   2.708  0.2543  0.7653  0.1432
 8530TIP3   OH225553   1.400   4.825   3.938  0.5846 -0.8497 -0.2842
 8530TIP3    H125554   1.459   4.855   3.869 -1.0957  1.1288 -0.9458
 8530TIP3    H225555   1.314   4.856   3.912 -0.2515 -0.7005  2.3174
 8531TIP3   OH225556   5.958   1.416   5.621 -0.3299 -0.4984 -0.2553
 8531TIP3    H125557   5.868   1.429   5.591 -0.0871  0.6512 -0.5394
 8531TIP3    H225558   6.005   1.386   5.543 -0.1499  0.4517 -0.5368
 8532TIP3   OH225559   6.045   3.801   4.924 -0.3464 -0.2532 -0.1139
 8532TIP3    H125560   6.124   3.798   4.869 -1.0599 -0.4701 -1.1535
 8532TIP3    H225561   6.079   3.808   5.014  0.8406  0.3823 -0.5903
 8533TIP3   OH225562   1.083   0.883   3.881 -0.5134  0.4902 -0.1317
 8533TIP3    H125563   1.140   0.853   3.811 -0.0462  0.7755  0.1261
 8533TIP3    H225564   1.086   0.813   3.946 -1.3210  0.0048 -0.5945
 8534TIP3   OH225565   7.210   4.557   3.796  0.0021  0.2327 -0.2035
 8534TIP3    H125566   7.116   4.575   3.792  0.0040  1.4465  2.6342
 8534TIP3    H225567   7.218   4.465   3.770 -1.7447  0.4839 -1.8720
 8535TIP3   OH225568   2.853   0.808   1.442 -0.1511 -0.1424 -0.3489
 8535TIP3    H125569   2.918   0.744   1.414 -0.5875 -1.2844  1.1565
 8535TIP3    H225570   2.784   0.757   1.483 -1.0329  1.2132 -0.0716
 8536TIP3   OH225571   6.056   2.414   2.413  0.4842 -0.1149 -0.1257
 8536TIP3    H125572   5.997   2.465   2.469  1.5751  0.1830  0.8039
 8536TIP3    H225573   6.057   2.327   2.452 -0.3515 -0.4959 -0.9285
 8537TIP3   OH225574   1.581   2.705   2.223 -0.5176  0.3190 -0.4634
 8537TIP3    H125575   1.638   2.669   2.155 -0.7561  0.8961 -0.9782
 8537TIP3    H225576   1.507   2.743   2.175 -1.5833 -0.8118  0.2052
 8538TIP3   OH225577   6.943   2.423   2.049 -0.1809 -0.5015  0.0488
 8538TIP3    H125578   6.910   2.406   1.960 -0.2307  0.0123 -0.0303
 8538TIP3    H225579   6.945   2.518   2.056 -0.0947 -0.5422  0.5724
 8539TIP3   OH225580   0.964   3.369   2.517  0.5925 -0.0418 -0.1375
 8539TIP3    H125581   0.944   3.432   2.585 -0.0080 -0.7060  0.3151
 8539TIP3    H225582   0.903   3.297   2.532  2.0281 -1.2747  0.0935
 8540TIP3   OH225583   6.557   6.097   1.396  0.3161 -0.5848  0.0303
 8540TIP3    H125584   6.539   6.024   1.455  1.6355 -1.0502 -0.0992
 8540TIP3    H225585   6.653   6.098   1.387  0.1974 -0.1818 -1.6464
 8541TIP3   OH225586   7.172   6.283   2.920 -0.1713 -0.6961 -0.1971
 8541TIP3    H125587   7.216   6.264   2.837  0.4277  2.0207 -0.5962
 8541TIP3    H225588   7.082   6.302   2.895  0.3742  1.7940 -0.5720
 8542TIP3   OH225589   0.871   6.616   1.665 -0.1861  0.2408 -0.3126
 8542TIP3    H125590   0.838   6.531   1.697 -1.4895  1.1329  0.8462
 8542TIP3    H225591   0.948   6.633   1.719  0.1681 -0.2561 -0.6487
 8543TIP3   OH225592   3.542   2.666   2.347 -0.4212 -0.0715 -0.5765
 8543TIP3    H125593   3.624   2.649   2.302 -0.7083 -1.7965 -0.5327
 8543TIP3    H225594   3.554   2.628   2.434 -0.2031  2.4048  0.5588
 8544TIP3   OH225595   2.581   1.635   2.288 -0.2608  0.5829  0.0372
 8544TIP3    H125596   2.585   1.573   2.216  1.6685  0.5301  0.1335
 8544TIP3    H225597   2.636   1.595   2.357 -1.9192  0.6974  1.4939
 8545TIP3   OH225598   5.310   2.049   4.300 -0.0274  0.5651  0.0867
 8545TIP3    H125599   5.297   1.993   4.377 -0.3110 -1.0958 -1.1027
 8545TIP3    H225600   5.233   2.032   4.245  1.0787  0.2259 -1.4247
 8546TIP3   OH225601   6.890   2.748   4.821 -0.6389 -0.3310 -0.5063
 8546TIP3    H125602   6.883   2.822   4.760  1.3739  1.2640  1.0447
 8546TIP3    H225603   6.947   2.685   4.776  0.5017  0.6530 -0.4988
 8547TIP3   OH225604   7.158   6.809   2.155  0.3750 -0.2244  0.3238
 8547TIP3    H125605   7.240   6.855   2.169  0.4231 -0.2881  0.2579
 8547TIP3    H225606   7.184   6.721   2.125  0.2834 -0.2042  0.1797
 8548TIP3   OH225607   6.526   6.720   3.581 -0.5235 -0.6910  0.4601
 8548TIP3    H125608   6.522   6.660   3.506 -0.5017  0.9951 -0.9434
 8548TIP3    H225609   6.434   6.736   3.603 -0.5245 -1.7545  1.2976
 8549TIP3   OH225610   4.732   5.031   2.687 -0.0181  0.7692  0.0492
 8549TIP3    H125611   4.760   4.988   2.606  1.7851  0.0009  1.0158
 8549TIP3    H225612   4.680   4.965   2.733  0.1365  0.7164  0.1476
 8550TIP3   OH225613   0.635   5.724   4.160  0.3195  0.4157 -0.3938
 8550TIP3    H125614   0.547   5.761   4.149 -0.0605 -0.6377 -1.0487
 8550TIP3    H225615   0.694   5.798   4.147 -0.3999  0.7077 -2.2724
 8551TIP3   OH225616   3.778   4.142   3.011 -0.2199 -0.5029 -0.4366
 8551TIP3    H125617   3.687   4.172   3.017 -0.1060 -0.1117 -0.6433
 8551TIP3    H225618   3.781   4.091   2.930 -0.3389 -0.8280 -0.2419
 8552TIP3   OH225619   1.594   6.310   5.153 -0.3381 -0.2224  0.2157
 8552TIP3    H125620   1.645   6.279   5.079  1.5340  0.1654  1.2953
 8552TIP3    H225621   1.561   6.396   5.126 -0.0931 -0.3055 -0.3493
 8553TIP3   OH225622   5.466   6.407   1.051 -0.2206 -0.2075 -0.4649
 8553TIP3    H125623   5.507   6.359   1.122  1.3540  1.1272 -0.4084
 8553TIP3    H225624   5.439   6.490   1.090  1.0113  0.7018 -1.4657
 8554TIP3   OH225625   3.946   2.849   0.377 -0.3537  0.0164  0.0018
 8554TIP3    H125626   3.860   2.850   0.418  0.0535 -0.6015  0.9040
 8554TIP3    H225627   3.964   2.757   0.360 -0.7342  0.2690 -2.1148
 8555TIP3   OH225628   2.804   0.221   3.411 -0.1979 -0.5529  0.6735
 8555TIP3    H125629   2.855   0.144   3.436 -0.1399 -0.5895  0.4477
 8555TIP3    H225630   2.713   0.192   3.414 -0.3055 -0.1069  2.4116
 8556TIP3   OH225631   0.227   0.900   5.545 -0.4396  0.4554 -0.3050
 8556TIP3    H125632   0.197   0.833   5.607 -1.4814  1.1173 -0.0620
 8556TIP3    H225633   0.230   0.855   5.461  0.4375 -0.3055  0.1088
 8557TIP3   OH225634   4.598   3.939   0.539 -0.1058  0.3399 -0.4960
 8557TIP3    H125635   4.541   4.008   0.572  1.2224  1.7493 -1.0330
 8557TIP3    H225636   4.538   3.878   0.496 -1.2029  1.9890 -1.4245
 8558TIP3   OH225637   6.965   2.672   2.368  0.4122  0.0747  0.9208
 8558TIP3    H125638   6.979   2.578   2.380  2.0025  0.2145  0.4850
 8558TIP3    H225639   6.941   2.681   2.276  4.3274  0.3585 -0.2708
 8559TIP3   OH225640   5.076   0.769   2.067 -0.4394 -0.0374  0.3079
 8559TIP3    H125641   5.101   0.803   1.981 -1.3570  1.5102  0.6124
 8559TIP3    H225642   5.019   0.694   2.047  0.9428 -0.9458 -0.3840
 8560TIP3   OH225643   2.396   0.380   2.244 -0.4722 -0.2845  0.3940
 8560TIP3    H125644   2.416   0.465   2.205  1.5466 -0.1556  1.5590
 8560TIP3    H225645   2.326   0.399   2.307 -0.9446  0.2500 -0.2824
 8561TIP3   OH225646   2.038   3.363   2.674  0.4523 -0.0268  0.8921
 8561TIP3    H125647   2.129   3.389   2.689  0.5018 -1.0570  2.5566
 8561TIP3    H225648   1.987   3.414   2.737 -0.0913  0.1988  0.2885
 8562TIP3   OH225649   5.561   0.577   4.963 -0.2338  0.3483  0.3008
 8562TIP3    H125650   5.499   0.610   5.027  0.1620 -0.6239  1.2184
 8562TIP3    H225651   5.516   0.503   4.921 -0.1616  0.4305  0.0733
 8563TIP3   OH225652   1.140   2.532   1.265  0.0424  0.0727 -0.3757
 8563TIP3    H125653   1.046   2.512   1.259 -0.0135  0.1984  0.0462
 8563TIP3    H225654   1.180   2.451   1.296 -0.3473  0.9133  2.5874
 8564TIP3   OH225655   3.785   5.923   0.356  0.2178  1.3386 -0.0158
 8564TIP3    H125656   3.818   5.913   0.267  0.9074  0.6559  0.3089
 8564TIP3    H225657   3.827   6.002   0.389  1.4287  0.5774  0.3308
 8565TIP3   OH225658   4.534   2.982   0.209  0.2416 -0.1942 -0.8619
 8565TIP3    H125659   4.595   3.024   0.270  0.0762 -0.9944 -0.1310
 8565TIP3    H225660   4.457   3.038   0.209  0.6694  0.4159 -1.2159
 8566TIP3   OH225661   5.456   0.542   2.604  0.0223 -0.1227  0.1860
 8566TIP3    H125662   5.515   0.547   2.528 -0.7719  0.1132 -0.4301
 8566TIP3    H225663   5.508   0.578   2.676  0.8771 -0.5786 -0.1831
 8567TIP3   OH225664   3.302   4.153   4.755 -0.0232 -0.5273 -0.0351
 8567TIP3    H125665   3.260   4.160   4.670 -0.0590 -2.6083 -0.2426
 8567TIP3    H225666   3.395   4.145   4.735  0.0322 -0.3941  0.1631
 8568TIP3   OH225667   1.717   2.275   0.609  0.2456  0.1435 -0.1922
 8568TIP3    H125668   1.733   2.355   0.659  3.2500  0.8091 -1.9534
 8568TIP3    H225669   1.663   2.304   0.535 -0.9270 -0.0766  0.5390
 8569TIP3   OH225670   6.371   3.861   4.237 -0.1848 -0.0852  0.1220
 8569TIP3    H125671   6.422   3.925   4.187  1.0101 -2.3107 -1.7465
 8569TIP3    H225672   6.387   3.883   4.329  0.1062  2.2730 -0.4385
 8570TIP3   OH225673   2.667   1.006   5.392 -0.5764 -0.8621  0.0036
 8570TIP3    H125674   2.684   0.912   5.393  0.9382 -0.6284 -0.8347
 8570TIP3    H225675   2.750   1.046   5.366 -0.5355  0.8948  2.5177
 8571TIP3   OH225676   2.961   4.673   1.312 -0.1866 -0.5138  0.1473
 8571TIP3    H125677   3.045   4.630   1.331  0.5088  0.2370 -1.0677
 8571TIP3    H225678   2.928   4.628   1.234 -0.8803 -0.7329  0.5560
 8572TIP3   OH225679   4.694   5.264   2.317  0.6922  0.3093 -0.0880
 8572TIP3    H125680   4.630   5.315   2.268 -0.5472 -0.6602  0.4710
 8572TIP3    H225681   4.742   5.328   2.369 -0.2213  0.9946 -0.0646
 8573TIP3   OH225682   4.362   1.494   3.990  0.2418 -0.1896  0.2229
 8573TIP3    H125683   4.433   1.456   3.939  0.7383 -0.5086  1.1199
 8573TIP3    H225684   4.339   1.575   3.944  0.0798 -0.9029 -0.9619
 8574TIP3   OH225685   1.488   5.382   5.110 -0.3983 -0.1813  0.2527
 8574TIP3    H125686   1.418   5.328   5.073 -0.2077 -1.2978  1.4205
 8574TIP3    H225687   1.501   5.453   5.047 -0.6411 -1.5126 -1.3505
 8575TIP3   OH225688   6.826   5.211   1.304  0.1972 -0.1407 -0.2161
 8575TIP3    H125689   6.786   5.194   1.219  0.6805 -0.4825 -0.3843
 8575TIP3    H225690   6.830   5.125   1.346  0.3954 -0.0520 -0.0473
 8576TIP3   OH225691   3.147   6.642   3.667  0.3786 -0.4999  0.2504
 8576TIP3    H125692   3.151   6.687   3.583  0.8756 -1.0178 -0.0154
 8576TIP3    H225693   3.231   6.595   3.673  0.6914  0.1595  1.3926
 8577TIP3   OH225694   4.668   3.370   3.345  0.0719 -0.4344  0.2730
 8577TIP3    H125695   4.686   3.371   3.439 -0.8293 -2.3732  0.5166
 8577TIP3    H225696   4.691   3.458   3.315  1.7127 -0.1898  2.0447
 8578TIP3   OH225697   1.437   4.992   1.664  0.4362 -0.0621  0.3217
 8578TIP3    H125698   1.449   4.903   1.695 -1.6078 -0.0541  1.3160
 8578TIP3    H225699   1.523   5.018   1.631  1.6629 -1.5706  2.1358
 8579TIP3   OH225700   1.632   0.966   1.987  0.0596  0.3103  0.3483
 8579TIP3    H125701   1.720   0.971   2.025  0.5027  1.4748 -0.7360
 8579TIP3    H225702   1.611   1.057   1.965 -1.6887  0.1203  1.1555
 8580TIP3   OH225703   0.422   6.130   1.691 -0.2082 -0.0000  0.1028
 8580TIP3    H125704   0.336   6.138   1.732 -1.1433  2.3350 -2.0881
 8580TIP3    H225705   0.417   6.184   1.613  3.0691 -0.3281 -0.4766
 8581TIP3   OH225706   3.999   3.254   3.066  0.1284 -0.5033 -0.0638
 8581TIP3    H125707   3.910   3.241   3.032  0.4020 -0.6539 -0.7453
 8581TIP3    H225708   4.054   3.201   3.009  0.4458 -2.0508  1.5832
 8582TIP3   OH225709   2.625   0.168   3.816  0.2971 -0.2630  0.0496
 8582TIP3    H125710   2.711   0.125   3.811  0.2270 -0.3306 -0.8731
 8582TIP3    H225711   2.579   0.122   3.887  1.4977  0.6994  1.4960
 8583TIP3   OH225712   3.944   5.995   5.288  0.0944 -0.4303 -0.5046
 8583TIP3    H125713   3.923   5.902   5.285 -2.1558 -0.0754  1.6352
 8583TIP3    H225714   3.915   6.029   5.203 -0.3925 -1.4443 -0.7559
 8584TIP3   OH225715   2.064   1.607   5.818 -0.5270  0.1697 -0.0865
 8584TIP3    H125716   2.042   1.529   5.868 -0.5496  0.0438 -0.2893
 8584TIP3    H225717   2.097   1.573   5.735  0.3941  0.3590  0.1951
 8585TIP3   OH225718   1.967   4.071   1.148 -0.0707  0.2973 -0.2359
 8585TIP3    H125719   1.944   4.131   1.220  0.3371  0.5999 -0.3510
 8585TIP3    H225720   1.892   4.076   1.089 -1.1780 -1.2428  0.9645
 8586TIP3   OH225721   4.736   1.828   1.032  0.1745 -0.4304 -0.5503
 8586TIP3    H125722   4.807   1.833   0.968 -0.9913 -0.1439 -1.8962
 8586TIP3    H225723   4.719   1.735   1.043  0.7984 -0.5040 -0.1503
 8587TIP3   OH225724   5.759   1.417   1.767 -0.1902 -0.1131 -0.4557
 8587TIP3    H125725   5.760   1.494   1.823  2.4855 -0.3050 -0.1028
 8587TIP3    H225726   5.809   1.443   1.689 -0.1656 -1.1494 -0.8058
 8588TIP3   OH225727   2.097   3.279   2.358  0.3489 -0.8961  0.0307
 8588TIP3    H125728   2.190   3.260   2.346  0.5223  0.3586 -0.8489
 8588TIP3    H225729   2.095   3.369   2.389 -0.4912 -1.7399  2.6844
 8589TIP3   OH225730   1.316   0.430   5.823 -0.4769 -0.1187  0.0506
 8589TIP3    H125731   1.317   0.337   5.842 -2.2978 -0.2407 -0.2250
 8589TIP3    H225732   1.377   0.469   5.886 -0.0025 -1.4436  0.4276
 8590TIP3   OH225733   4.838   5.714   1.103 -0.1610 -0.0759  0.7371
 8590TIP3    H125734   4.845   5.630   1.147  0.9975  0.0040  0.7488
 8590TIP3    H225735   4.854   5.694   1.011 -1.8643 -0.1377  0.4154
 8591TIP3   OH225736   4.436   4.458   4.440 -0.4614  0.6848 -0.0958
 8591TIP3    H125737   4.434   4.380   4.496 -2.0349  0.8813  0.1760
 8591TIP3    H225738   4.344   4.483   4.431  0.0739  4.5285  2.6633
 8592TIP3   OH225739   1.348   2.984   4.294 -1.2337 -0.2917 -0.1501
 8592TIP3    H125740   1.377   2.940   4.214 -1.3829 -1.4277  0.4002
 8592TIP3    H225741   1.421   2.974   4.355 -1.4108 -0.0997  0.0946
 8593TIP3   OH225742   5.945   1.149   2.026 -0.3299  0.0731 -0.5504
 8593TIP3    H125743   5.967   1.130   2.117 -1.3518  0.7139 -0.1445
 8593TIP3    H225744   5.999   1.089   1.975 -0.7046 -1.2256  0.5232
 8594TIP3   OH225745   5.637   0.138   0.781  0.2870  0.3158  0.1742
 8594TIP3    H125746   5.666   0.207   0.840  0.4986 -0.8282  1.4538
 8594TIP3    H225747   5.641   0.178   0.694  1.2191  1.6343  0.7869
 8595TIP3   OH225748   0.609   3.353   4.844 -0.4621  0.3311  0.6841
 8595TIP3    H125749   0.690   3.347   4.894 -0.8300  0.6208  1.3238
 8595TIP3    H225750   0.546   3.394   4.904 -0.5530  1.9625 -0.4426
 8596TIP3   OH225751   1.802   6.752   2.759  0.4377 -0.0810  0.1067
 8596TIP3    H125752   1.818   6.738   2.666  0.6600  0.5079  0.0568
 8596TIP3    H225753   1.712   6.721   2.773  0.3200  0.0500 -0.3514
 8597TIP3   OH225754   5.660   4.902   5.139 -0.4744  0.5787  0.3487
 8597TIP3    H125755   5.599   4.970   5.170 -1.3921 -0.0217 -0.1148
 8597TIP3    H225756   5.658   4.909   5.044  2.0636  2.1767  0.2966
 8598TIP3   OH225757   7.148   1.726   1.199 -0.3325  0.1175 -0.3045
 8598TIP3    H125758   7.240   1.749   1.209  0.6312 -3.0622 -0.8960
 8598TIP3    H225759   7.107   1.758   1.280  1.1685  1.8010 -0.1355
 8599TIP3   OH225760   0.746   6.435   2.149  0.0052 -0.1690 -0.4044
 8599TIP3    H125761   0.829   6.474   2.122  0.2578 -0.1343  0.3980
 8599TIP3    H225762   0.753   6.425   2.244 -0.9074 -0.1719 -0.3234
 8600TIP3   OH225763   5.837   0.115   5.780 -0.0920  0.4202  0.1451
 8600TIP3    H125764   5.822   0.108   5.874  2.3170 -2.2072  0.4600
 8600TIP3    H225765   5.854   0.208   5.765 -0.0954  0.8279  2.3873
 8601TIP3   OH225766   1.204   4.359   0.603 -0.2027 -0.4235  0.4250
 8601TIP3    H125767   1.284   4.333   0.649  1.1526  1.7495 -0.5229
 8601TIP3    H225768   1.163   4.422   0.661  0.5636  0.9565 -0.4724
 8602TIP3   OH225769   0.537   5.346   4.265 -0.1739  0.2110  0.3514
 8602TIP3    H125770   0.471   5.367   4.199 -1.3564  0.7759  1.6628
 8602TIP3    H225771   0.490   5.297   4.332  0.0797  2.6074  2.4683
 8603TIP3   OH225772   0.736   4.837   4.817 -0.1305 -0.1522 -0.3897
 8603TIP3    H125773   0.728   4.921   4.772 -0.6967 -0.3378 -0.6524
 8603TIP3    H225774   0.824   4.837   4.854 -0.4670  0.9634  0.4443
 8604TIP3   OH225775   6.045   2.596   5.165  0.5682 -0.6017  0.0290
 8604TIP3    H125776   6.126   2.644   5.148  0.3270 -0.3429 -0.4057
 8604TIP3    H225777   5.982   2.632   5.102  0.1278 -0.8299  0.3326
 8605TIP3   OH225778   2.973   6.526   2.124  0.0435 -0.0608  0.0584
 8605TIP3    H125779   3.034   6.513   2.197 -0.8583 -0.4673  0.7640
 8605TIP3    H225780   2.913   6.594   2.154  0.1049  0.2848 -0.5937
 8606TIP3   OH225781   6.339   4.896   1.997  0.6754 -0.0500 -0.0754
 8606TIP3    H125782   6.295   4.920   2.079  0.1286 -1.5924  0.1219
 8606TIP3    H225783   6.278   4.923   1.929  0.9267  0.8246  0.0360
 8607TIP3   OH225784   0.422   2.927   5.302 -0.4920 -0.1566  0.1191
 8607TIP3    H125785   0.497   2.894   5.352 -1.5565  1.6694  3.2657
 8607TIP3    H225786   0.350   2.868   5.326 -0.7969  0.1331 -0.0758
 8608TIP3   OH225787   7.014   6.158   1.176  0.2891 -0.4588  0.2529
 8608TIP3    H125788   7.057   6.136   1.259  2.9709 -0.1660 -0.9661
 8608TIP3    H225789   7.081   6.201   1.124 -1.1503 -1.0363 -2.2922
 8609TIP3   OH225790   6.895   1.853   4.186 -0.4694  0.2491 -0.5818
 8609TIP3    H125791   6.929   1.937   4.157 -1.0707  0.7213  0.0470
 8609TIP3    H225792   6.847   1.818   4.111 -1.1590  0.9902 -0.4997
 8610TIP3   OH225793   4.369   6.567   1.906 -0.4784 -0.0124 -0.0744
 8610TIP3    H125794   4.462   6.587   1.907 -0.3237 -0.7013  0.0497
 8610TIP3    H225795   4.356   6.509   1.981 -0.5006 -2.0721 -1.5659
 8611TIP3   OH225796   1.063   6.476   0.586 -0.0465  0.4674  0.2433
 8611TIP3    H125797   1.072   6.392   0.542  0.5946  0.7578 -0.1921
 8611TIP3    H225798   1.069   6.541   0.515  2.6035  1.0200  0.9021
 8612TIP3   OH225799   5.969   4.864   5.121 -0.3242  0.3761 -0.4432
 8612TIP3    H125800   6.000   4.793   5.066  0.3358  0.9367 -0.8176
 8612TIP3    H225801   5.885   4.834   5.155 -0.1374 -0.4985 -0.7353
 8613TIP3   OH225802   2.500   5.034   1.913 -0.5317  0.2936  0.0893
 8613TIP3    H125803   2.585   5.062   1.949 -0.9348  0.3872  1.0080
 8613TIP3    H225804   2.476   5.102   1.851 -0.2662  0.6289  0.3517
 8614TIP3   OH225805   2.098   1.210   4.645 -0.6807  0.2367  0.2931
 8614TIP3    H125806   2.104   1.117   4.667 -2.3859  0.1433  0.4871
 8614TIP3    H225807   2.160   1.221   4.572  0.3248 -0.8015  0.9486
 8615TIP3   OH225808   2.199   3.672   4.187  0.3049 -0.4629  0.1638
 8615TIP3    H125809   2.213   3.618   4.109  0.1377 -0.9977  0.4942
 8615TIP3    H225810   2.268   3.738   4.184 -0.5555  0.4261 -1.1897
 8616TIP3   OH225811   6.136   2.188   3.557 -0.0862 -0.2985  0.2046
 8616TIP3    H125812   6.114   2.281   3.562  1.3527  0.0860 -0.0136
 8616TIP3    H225813   6.108   2.151   3.641 -1.6589  0.0840 -0.1300
 8617TIP3   OH225814   6.158   0.843   0.248 -0.1078 -0.1128  0.3032
 8617TIP3    H125815   6.095   0.805   0.186 -1.2832  0.5553  1.0626
 8617TIP3    H225816   6.174   0.773   0.311 -1.3861  0.2190  1.0417
 8618TIP3   OH225817   0.786   6.016   4.822  0.2320 -0.2134 -0.2761
 8618TIP3    H125818   0.865   5.977   4.788 -0.2247 -1.9290  0.5209
 8618TIP3    H225819   0.814   6.062   4.902  0.3696 -1.2339  0.2770
 8619TIP3   OH225820   1.130   5.121   0.161 -0.1547 -0.3598  0.7056
 8619TIP3    H125821   1.133   5.064   0.238  1.0133 -0.3254  0.7019
 8619TIP3    H225822   1.154   5.064   0.088  2.0398  0.3045  0.8328
 8620TIP3   OH225823   5.733   5.570   2.313  0.0089 -0.1595 -0.1034
 8620TIP3    H125824   5.713   5.584   2.405  0.1457 -1.0469  0.0716
 8620TIP3    H225825   5.706   5.651   2.269 -1.0640 -0.1487  0.5604
 8621TIP3   OH225826   2.949   0.538   1.374 -0.2761 -0.1969 -0.0737
 8621TIP3    H125827   2.967   0.518   1.282  0.2366 -1.6241  0.3024
 8621TIP3    H225828   2.866   0.494   1.392 -0.6248  0.4903  0.0302
 8622TIP3   OH225829   2.915   5.813   1.878  0.5265 -0.4423  0.1161
 8622TIP3    H125830   2.980   5.778   1.816  0.7275  1.1556 -0.6250
 8622TIP3    H225831   2.966   5.868   1.938 -0.0732  0.5605 -0.2686
 8623TIP3   OH225832   4.041   6.487   5.624 -0.0429  0.0289  0.5009
 8623TIP3    H125833   4.095   6.567   5.618 -0.7012  0.5370  1.1039
 8623TIP3    H225834   4.004   6.476   5.536 -0.2762  0.6349  0.5157
 8624TIP3   OH225835   3.722   2.702   5.375 -0.2199 -1.0557 -0.0498
 8624TIP3    H125836   3.646   2.647   5.353 -2.0212  0.9454  0.7362
 8624TIP3    H225837   3.712   2.779   5.318  0.6950 -0.3474  0.7261
 8625TIP3   OH225838   4.511   4.869   5.618  0.1202  0.0928 -0.0882
 8625TIP3    H125839   4.526   4.870   5.713  0.9468 -0.0201 -0.2117
 8625TIP3    H225840   4.597   4.888   5.580  0.0087 -0.8629 -0.8417
 8626TIP3   OH225841   2.315   4.318   3.577  0.0974  0.2107 -0.6427
 8626TIP3    H125842   2.305   4.287   3.667  1.1538  0.5199 -0.3996
 8626TIP3    H225843   2.378   4.258   3.538 -0.8470 -0.3196 -1.3949
 8627TIP3   OH225844   5.072   6.541   2.891 -0.5307  0.1867  0.4246
 8627TIP3    H125845   5.005   6.489   2.847  0.8236 -1.2984  0.0241
 8627TIP3    H225846   5.079   6.501   2.978  1.3808 -1.1770 -0.3001
 8628TIP3   OH225847   3.771   0.625   3.766  0.6158 -0.9000 -0.1456
 8628TIP3    H125848   3.839   0.689   3.747  0.2292 -0.0252  1.2157
 8628TIP3    H225849   3.804   0.577   3.843 -0.7895  0.4029  1.3517
 8629TIP3   OH225850   0.100   2.764   4.990 -0.0354 -0.0328 -0.5127
 8629TIP3    H125851   0.052   2.737   5.068 -0.7563  2.3286 -0.0450
 8629TIP3    H225852   0.192   2.755   5.013 -0.2047  1.7811  1.1521
 8630TIP3   OH225853   2.349   6.197   2.491  0.1008 -0.1120 -0.1528
 8630TIP3    H125854   2.255   6.208   2.507 -0.1027 -2.3910  0.5458
 8630TIP3    H225855   2.390   6.217   2.575  0.5183  2.7063 -0.8987
 8631TIP3   OH225856   5.024   0.978   0.535  0.3722 -0.2548  0.8426
 8631TIP3    H125857   5.084   0.981   0.609  1.0785 -1.5145  0.3555
 8631TIP3    H225858   5.073   1.015   0.462 -0.3225  0.9818  0.9697
 8632TIP3   OH225859   3.307   0.312   5.326 -0.4930 -0.1869  0.3058
 8632TIP3    H125860   3.261   0.394   5.311  0.1832  0.3711  1.1909
 8632TIP3    H225861   3.400   0.334   5.314 -0.3238 -0.9018  0.2336
 8633TIP3   OH225862   5.388   6.506   0.807  0.3329  0.2480  0.1722
 8633TIP3    H125863   5.427   6.468   0.885  0.6543 -2.4363 -1.1816
 8633TIP3    H225864   5.460   6.514   0.745 -0.5737 -1.5137 -1.1909
 8634TIP3   OH225865   3.865   5.167   4.511 -0.3601 -0.0264  0.9421
 8634TIP3    H125866   3.890   5.254   4.481  1.0477 -0.3397  1.1595
 8634TIP3    H225867   3.779   5.179   4.551 -0.4529  1.1410  0.4111
 8635TIP3   OH225868   5.488   5.868   1.175 -0.4240  0.0421 -0.2531
 8635TIP3    H125869   5.419   5.807   1.201  0.3957 -1.2438 -0.9826
 8635TIP3    H225870   5.441   5.942   1.137 -1.4724 -2.0750 -3.5560
 8636TIP3   OH225871   5.538   1.735   0.032  0.2761 -0.0220 -0.2412
 8636TIP3    H125872   5.588   1.774  -0.039 -1.1799  1.6045 -0.4559
 8636TIP3    H225873   5.513   1.809   0.087 -0.5782 -0.9592  0.6783
 8637TIP3   OH225874   4.689   5.915   2.647 -0.3084  0.2743 -0.1635
 8637TIP3    H125875   4.640   5.840   2.680  0.2441  0.4998  1.2054
 8637TIP3    H225876   4.772   5.914   2.694  1.2828 -0.3693 -2.7599
 8638TIP3   OH225877   1.121   4.000   3.800 -0.0497 -0.2018 -0.1592
 8638TIP3    H125878   1.128   3.921   3.747 -0.4876  0.5874 -1.4502
 8638TIP3    H225879   1.197   4.052   3.776  0.0786 -0.0955  0.4616
 8639TIP3   OH225880   0.616   3.176   0.682  0.3356  0.5796  0.1170
 8639TIP3    H125881   0.558   3.099   0.680  1.9078 -0.6656 -1.8521
 8639TIP3    H225882   0.578   3.236   0.617  0.6282  0.2507 -0.3610
 8640TIP3   OH225883   4.313   3.328   5.400 -0.0478  0.2410 -0.8233
 8640TIP3    H125884   4.390   3.314   5.345  0.6306  0.9503 -0.0811
 8640TIP3    H225885   4.279   3.413   5.374  0.7254  0.9354  0.3381
 8641TIP3   OH225886   2.225   3.075   1.946  0.6384 -0.4253 -0.3980
 8641TIP3    H125887   2.286   3.110   2.011  0.1822  1.4982 -0.9299
 8641TIP3    H225888   2.138   3.091   1.984  0.4064 -1.4631 -0.4549
 8642TIP3   OH225889   1.675   0.937   3.090 -0.4687 -0.1581  0.6552
 8642TIP3    H125890   1.760   0.896   3.071 -0.9262 -1.4234  1.2484
 8642TIP3    H225891   1.693   1.031   3.085  0.6418 -0.3940 -0.6259
 8643TIP3   OH225892   4.497   2.774   2.573 -0.3347  0.4974  0.4874
 8643TIP3    H125893   4.481   2.853   2.623  0.5286  1.1061 -0.1675
 8643TIP3    H225894   4.473   2.796   2.483  0.0501  0.0667  0.2709
 8644TIP3   OH225895   6.541   3.271   3.663  0.8686 -0.2158 -0.6793
 8644TIP3    H125896   6.545   3.265   3.759  0.3033 -1.6719 -0.7232
 8644TIP3    H225897   6.580   3.356   3.643 -1.1935  1.2415  0.9931
 8645TIP3   OH225898   6.808   3.571   1.413 -0.0586 -0.4271  0.1992
 8645TIP3    H125899   6.759   3.621   1.478 -0.3355 -1.8723  1.1385
 8645TIP3    H225900   6.870   3.634   1.377 -1.1506  0.8838  0.5172
 8646TIP3   OH225901   6.639   1.395   1.324  0.3018  0.2390 -0.4649
 8646TIP3    H125902   6.619   1.349   1.243  0.5561 -0.2463 -0.2565
 8646TIP3    H225903   6.572   1.365   1.386 -0.4726  1.3300 -0.7498
 8647TIP3   OH225904   4.114   1.100   5.729 -0.2269  0.0166  0.0603
 8647TIP3    H125905   4.110   1.004   5.734  1.0404 -0.0861 -0.6069
 8647TIP3    H225906   4.139   1.127   5.817  1.4207 -0.4175 -0.2508
 8648TIP3   OH225907   1.113   5.728   2.952 -0.2646 -0.2057 -0.4501
 8648TIP3    H125908   1.180   5.661   2.953 -0.2078 -0.2514 -2.6187
 8648TIP3    H225909   1.149   5.798   2.897 -1.8263 -0.1026 -1.4107
 8649TIP3   OH225910   3.550   3.539   3.393 -0.4367 -0.0157 -0.3605
 8649TIP3    H125911   3.533   3.521   3.486 -3.6701  0.4568 -0.7593
 8649TIP3    H225912   3.615   3.609   3.393 -1.1302  0.6831  1.5878
 8650TIP3   OH225913   0.477   0.147   4.389 -0.2930  0.2325 -0.7094
 8650TIP3    H125914   0.421   0.206   4.440 -1.5722  0.3812 -2.2059
 8650TIP3    H225915   0.557   0.197   4.375 -0.3397  0.5964  0.2378
 8651TIP3   OH225916   0.563   5.312   0.365  0.9561 -0.3351  0.1345
 8651TIP3    H125917   0.644   5.354   0.336  0.5642  0.3173 -0.0489
 8651TIP3    H225918   0.538   5.255   0.293  0.3271  0.7956 -0.5685
 8652TIP3   OH225919   7.040   4.468   0.329 -0.0124 -0.5530  0.0862
 8652TIP3    H125920   6.993   4.397   0.287 -1.8288 -0.2373  1.4435
 8652TIP3    H225921   7.018   4.546   0.277  0.0663 -0.6141 -0.0376
 8653TIP3   OH225922   1.312   1.909   0.612  0.3726  0.4887  0.3754
 8653TIP3    H125923   1.221   1.938   0.606  0.3614  0.2283 -1.0684
 8653TIP3    H225924   1.309   1.837   0.675 -0.3622  0.7369  0.6385
 8654TIP3   OH225925   3.299   6.660   0.613 -0.5965  0.0072 -0.5936
 8654TIP3    H125926   3.285   6.749   0.579  1.0231  0.1553 -0.9942
 8654TIP3    H225927   3.381   6.633   0.573 -1.0008 -1.6371 -0.3612
 8655TIP3   OH225928   6.973   2.499   0.489 -0.1364  0.0765  0.1465
 8655TIP3    H125929   6.989   2.545   0.572  1.3589 -0.9538  0.4675
 8655TIP3    H225930   6.882   2.471   0.495 -0.3618  0.9165  0.9800
 8656TIP3   OH225931   2.712   1.668   0.589 -0.3153 -0.0493 -0.0229
 8656TIP3    H125932   2.651   1.661   0.662 -0.2123 -1.3310 -0.0383
 8656TIP3    H225933   2.676   1.737   0.534  0.0724  1.5542  1.6548
 8657TIP3   OH225934   6.753   3.538   4.565 -0.2443  0.1284  0.0692
 8657TIP3    H125935   6.711   3.612   4.608  0.7890  0.0077  1.3706
 8657TIP3    H225936   6.691   3.466   4.574 -0.3611  0.3006  0.7327
 8658TIP3   OH225937   4.471   5.496   2.447 -0.4255  0.1702  0.0204
 8658TIP3    H125938   4.387   5.539   2.429 -0.1592  0.8456  0.3618
 8658TIP3    H225939   4.527   5.566   2.480  0.1649 -0.3511  0.1352
 8659TIP3   OH225940   7.192   5.500   3.438  0.2122  0.4946  0.6303
 8659TIP3    H125941   7.198   5.585   3.481 -0.9806  0.9680 -0.0788
 8659TIP3    H225942   7.113   5.460   3.475 -0.6566  0.7785 -0.8550
 8660TIP3   OH225943   5.523   0.455   2.310 -0.6684 -0.2037 -0.0784
 8660TIP3    H125944   5.559   0.505   2.237  0.5253 -2.0945 -0.8770
 8660TIP3    H225945   5.459   0.513   2.350 -1.6782  0.7994 -2.8848
 8661TIP3   OH225946   5.253   4.863   1.776 -0.2279 -0.1356  0.0471
 8661TIP3    H125947   5.166   4.837   1.806 -0.3225 -0.8497 -0.8149
 8661TIP3    H225948   5.312   4.829   1.844 -0.5967  0.1760  0.5307
 8662TIP3   OH225949   1.562   5.579   2.789  0.7028 -0.3593  0.4699
 8662TIP3    H125950   1.578   5.620   2.874  1.5809 -1.5300  0.8961
 8662TIP3    H225951   1.647   5.579   2.746  0.5612 -1.0708  0.1853
 8663TIP3   OH225952   0.918   0.153   0.507  0.6737  0.0922 -0.2994
 8663TIP3    H125953   0.950   0.064   0.493  0.5814 -0.1980  1.1195
 8663TIP3    H225954   0.882   0.180   0.423  1.0938 -1.0441 -0.8640
 8664TIP3   OH225955   2.751   5.985   4.472  0.7034  0.6255  0.0885
 8664TIP3    H125956   2.733   6.078   4.489 -0.8679  0.6880 -1.6680
 8664TIP3    H225957   2.689   5.938   4.527  1.2292  0.6105  0.6777
 8665TIP3   OH225958   3.189   1.133   3.199 -0.0346 -0.0346 -0.7316
 8665TIP3    H125959   3.275   1.175   3.208 -0.9588  1.4598  2.6140
 8665TIP3    H225960   3.169   1.101   3.287 -2.5104 -1.1945 -1.6410
 8666TIP3   OH225961   4.103   4.187   0.459  0.5656  0.1698  0.2149
 8666TIP3    H125962   4.184   4.238   0.455  0.4373  0.2956 -1.5655
 8666TIP3    H225963   4.131   4.097   0.444  0.7043 -0.2552  2.6488
 8667TIP3   OH225964   1.289   5.175   1.391  0.6507 -0.0642 -0.0359
 8667TIP3    H125965   1.267   5.196   1.482 -0.3387  0.3923 -0.3655
 8667TIP3    H225966   1.382   5.196   1.383  0.6875  0.1253  0.8045
 8668TIP3   OH225967   2.067   3.031   2.482 -0.1770 -0.1233 -0.4263
 8668TIP3    H125968   2.045   3.122   2.463 -0.1216  0.2957  1.3576
 8668TIP3    H225969   1.989   2.995   2.523 -0.3314 -1.0137 -1.4596
 8669TIP3   OH225970   2.960   1.690   4.211 -0.0373 -0.3158 -0.7134
 8669TIP3    H125971   2.895   1.708   4.279  0.7853 -0.5889  0.1759
 8669TIP3    H225972   3.040   1.731   4.244  0.3484 -0.3494 -1.5863
 8670TIP3   OH225973   1.432   3.737   3.680 -0.1066  0.4536  0.0446
 8670TIP3    H125974   1.428   3.723   3.585  1.3012 -0.6341  0.1015
 8670TIP3    H225975   1.350   3.701   3.713 -1.1579  1.9391 -0.8510
 8671TIP3   OH225976   1.970   6.235   5.835 -0.3525  0.5783  0.0645
 8671TIP3    H125977   2.053   6.190   5.822 -0.1674  1.2059 -1.0353
 8671TIP3    H225978   1.947   6.217   5.926 -0.8894 -2.7314 -0.5824
 8672TIP3   OH225979   6.248   3.116   0.609 -0.2416 -0.3201  0.3986
 8672TIP3    H125980   6.245   3.031   0.651 -0.1816  0.4062  1.9378
 8672TIP3    H225981   6.159   3.130   0.576  0.0354 -1.4515 -0.9331
 8673TIP3   OH225982   6.335   5.762   5.227  0.4609  0.4257 -0.4037
 8673TIP3    H125983   6.366   5.735   5.141  3.7348  0.4125  0.6459
 8673TIP3    H225984   6.309   5.680   5.270  1.3029  0.1101 -0.4921
 8674TIP3   OH225985   6.344   5.243  -0.022  0.3703  0.1689  0.7799
 8674TIP3    H125986   6.369   5.198   0.059 -2.7240 -1.0317  1.1912
 8674TIP3    H225987   6.274   5.303   0.004  0.0633  0.5655 -0.8347
 8675TIP3   OH225988   3.269   2.275   5.789  0.0411  0.3571 -0.0338
 8675TIP3    H125989   3.328   2.331   5.739 -0.0822  0.4190 -0.1101
 8675TIP3    H225990   3.199   2.253   5.727  0.1951 -0.0484 -0.0657
 8676TIP3   OH225991   5.776   4.910   1.520 -0.1082 -0.0181  0.2034
 8676TIP3    H125992   5.776   4.936   1.612 -0.0035  0.9862 -0.0640
 8676TIP3    H225993   5.834   4.835   1.516  1.0727  0.8436  0.7191
 8677TIP3   OH225994   5.019   1.862   4.002  0.3562 -0.6651  0.0738
 8677TIP3    H125995   4.953   1.900   4.060 -0.6193 -0.7402 -0.9581
 8677TIP3    H225996   5.072   1.807   4.059  0.3709  0.4319  1.1762
 8678TIP3   OH225997   4.900   5.353   1.243 -0.1247  0.0721  0.2804
 8678TIP3    H125998   4.809   5.332   1.265  0.3670 -2.6727  0.1269
 8678TIP3    H225999   4.908   5.330   1.150  1.2815 -2.3442  0.8931
 8679TIP3   OH226000   2.881   1.951   0.809  0.2975  0.3786 -0.2554
 8679TIP3    H126001   2.920   1.864   0.801  0.8779  0.5763  0.2967
 8679TIP3    H226002   2.879   1.985   0.720 -0.2692 -0.3367 -0.5243
 8680TIP3   OH226003   1.598   0.810   1.757 -0.0541 -0.9577 -0.0584
 8680TIP3    H126004   1.623   0.848   1.841 -0.8422 -1.1020  0.2485
 8680TIP3    H226005   1.565   0.884   1.706 -0.6794 -1.0598  0.1897
 8681TIP3   OH226006   6.886   1.503   4.836 -0.3475  0.0772  0.9329
 8681TIP3    H126007   6.971   1.545   4.823 -0.7141  0.7088  0.5149
 8681TIP3    H226008   6.865   1.520   4.928  0.1836 -0.4816  1.1649
 8682TIP3   OH226009   4.662   6.510   3.473 -0.6157 -0.0766  0.1961
 8682TIP3    H126010   4.696   6.596   3.447 -2.5413  0.8492  0.5482
 8682TIP3    H226011   4.610   6.528   3.551  2.3434 -2.2708  2.9089
 8683TIP3   OH226012   3.016   3.672   3.617 -0.0279  0.1327  0.6434
 8683TIP3    H126013   2.976   3.590   3.648 -1.4124  0.7216  0.4941
 8683TIP3    H226014   2.969   3.692   3.536  0.7886  0.7177  0.2990
 8684TIP3   OH226015   1.987   3.100   0.174  0.3433  0.4467  0.5738
 8684TIP3    H126016   2.018   3.170   0.232 -1.4820  1.4983  0.3832
 8684TIP3    H226017   1.918   3.057   0.225  1.7943 -1.6466  0.9031
 8685TIP3   OH226018   0.898   1.308   3.072 -0.1146 -0.3362 -0.5584
 8685TIP3    H126019   0.938   1.388   3.107  0.9169 -1.6563  1.4572
 8685TIP3    H226020   0.960   1.239   3.095 -1.8466 -1.9751 -0.6240
 8686TIP3   OH226021   4.257   3.508   4.012 -0.3768 -0.4095 -0.3231
 8686TIP3    H126022   4.323   3.530   3.947  0.8126  0.5157  1.1311
 8686TIP3    H226023   4.185   3.569   3.996 -0.8454 -1.2977 -1.7919
 8687TIP3   OH226024   4.392   0.515   1.538 -0.3202  0.5679 -0.6980
 8687TIP3    H126025   4.336   0.592   1.537 -1.4933 -0.2468 -0.7821
 8687TIP3    H226026   4.400   0.492   1.630 -0.9359  0.1300 -0.7493
 8688TIP3   OH226027   2.666   0.103   2.783 -0.1014 -0.2613 -0.0876
 8688TIP3    H126028   2.691   0.193   2.804  2.2685 -0.3200 -2.1822
 8688TIP3    H226029   2.743   0.051   2.803 -0.4326 -1.3864 -1.5480
 8689TIP3   OH226030   4.070   6.803   0.719  0.3136  0.6271  0.1109
 8689TIP3    H126031   4.037   6.713   0.715  2.0498  0.0117 -1.3822
 8689TIP3    H226032   4.157   6.799   0.681  0.8692  2.7752  1.0087
 8690TIP3   OH226033   6.888   5.306   0.354  0.3756  0.3618  0.1364
 8690TIP3    H126034   6.819   5.338   0.412  1.3284  2.1293  0.3427
 8690TIP3    H226035   6.907   5.379   0.296 -0.5835 -1.3442 -2.5407
 8691TIP3   OH226036   4.685   1.274   1.695  0.6173 -0.3016 -0.4941
 8691TIP3    H126037   4.621   1.221   1.648 -0.3174 -1.9697  2.4053
 8691TIP3    H226038   4.636   1.349   1.728  0.5914 -0.5934  0.1418
 8692TIP3   OH226039   1.987   2.255   5.170  0.9291 -0.5805  0.3295
 8692TIP3    H126040   1.969   2.219   5.084  1.0937  0.7428 -0.2842
 8692TIP3    H226041   1.909   2.236   5.222  0.7309 -1.1618 -0.1865
 8693TIP3   OH226042   2.216   2.101   0.233  0.0909 -0.0203  0.1835
 8693TIP3    H126043   2.186   2.087   0.144 -1.1891 -2.1344  0.8623
 8693TIP3    H226044   2.194   2.193   0.252 -3.4768 -0.6184 -0.3659
 8694TIP3   OH226045   3.897   0.501   5.506  0.4728 -0.6385  0.2351
 8694TIP3    H126046   3.930   0.486   5.594  1.0891  0.9399  0.3023
 8694TIP3    H226047   3.968   0.546   5.461 -0.9124  1.3282 -0.1253
 8695TIP3   OH226048   2.920   1.757   4.989 -0.1153 -0.0569 -0.0189
 8695TIP3    H126049   2.907   1.784   4.898 -0.0411  1.8386  0.4952
 8695TIP3    H226050   2.941   1.838   5.036 -2.7098 -0.5013  2.1824
 8696TIP3   OH226051   3.076   1.879   4.505  0.6300  0.1796 -0.1230
 8696TIP3    H126052   3.062   1.829   4.586  2.5041 -0.6515 -0.2740
 8696TIP3    H226053   2.993   1.870   4.458 -0.0227 -0.4818  1.0761
 8697TIP3   OH226054   4.324   6.170   5.016 -0.0437  0.0307 -0.0945
 8697TIP3    H126055   4.404   6.218   5.041 -0.2516 -0.1436  0.9765
 8697TIP3    H226056   4.287   6.143   5.100 -0.4038 -1.2361 -0.6533
 8698TIP3   OH226057   2.356   4.465   5.199 -0.3440  0.2492 -0.0509
 8698TIP3    H126058   2.275   4.492   5.242 -0.5431 -1.1696  0.4873
 8698TIP3    H226059   2.389   4.546   5.159 -0.7053  1.3869  1.8270
 8699TIP3   OH226060   5.246   2.343   1.866 -0.4245 -0.3973 -0.4525
 8699TIP3    H126061   5.228   2.374   1.777 -0.9272 -0.2389 -0.2953
 8699TIP3    H226062   5.194   2.264   1.876 -1.6167  0.4304  0.2332
 8700TIP3   OH226063   3.152   1.927   2.152 -0.7424  0.2941  0.1123
 8700TIP3    H126064   3.208   1.964   2.084 -1.0671  0.1276 -0.2491
 8700TIP3    H226065   3.087   1.876   2.104 -1.3641  0.7053  0.5080
 8701TIP3   OH226066   3.008   6.445   3.436 -0.4258 -0.0601  0.3161
 8701TIP3    H126067   2.997   6.500   3.359  1.5204 -0.2668 -0.1529
 8701TIP3    H226068   2.978   6.358   3.409 -1.4324  0.2477  0.3839
 8702TIP3   OH226069   2.956   2.516   3.856  0.0082  0.7097  0.0710
 8702TIP3    H126070   2.893   2.547   3.920  0.3016  2.1403 -0.2935
 8702TIP3    H226071   3.033   2.493   3.907  0.1592  1.6254  0.2733
 8703TIP3   OH226072   2.755   0.939   5.855  0.3060 -0.0713  0.6447
 8703TIP3    H126073   2.688   0.883   5.816 -0.1128  1.9023 -1.7092
 8703TIP3    H226074   2.707   1.001   5.909  0.7089 -1.3911  2.6346
 8704TIP3   OH226075   4.060   6.192   1.872  0.3322 -0.5184 -0.2147
 8704TIP3    H126076   4.034   6.276   1.909 -0.6700 -0.3484 -1.2656
 8704TIP3    H226077   4.077   6.137   1.949  0.2750  0.4091  0.4888
 8705TIP3   OH226078   3.087   0.929   0.280  0.1760  0.1047 -0.2465
 8705TIP3    H126079   3.169   0.910   0.325 -0.5283 -0.2120  0.9648
 8705TIP3    H226080   3.033   0.971   0.347 -0.7303  0.0945 -0.9525
 8706TIP3   OH226081   0.929   6.692   3.803  0.4980  0.2651  0.3795
 8706TIP3    H126082   0.906   6.781   3.828 -1.9785 -0.3104  0.4666
 8706TIP3    H226083   0.950   6.697   3.710 -1.6595  0.7006 -0.1500
 8707TIP3   OH226084   1.901   5.607   4.880  0.1664 -0.5504 -0.1743
 8707TIP3    H126085   1.840   5.560   4.822  1.4533 -2.2852 -0.1813
 8707TIP3    H226086   1.914   5.692   4.837 -0.9016 -0.8036 -1.0513
 8708TIP3   OH226087   6.083   2.299   1.012  0.4615 -0.1398 -0.2942
 8708TIP3    H126088   6.081   2.321   0.918 -0.2899  0.0533 -0.2424
 8708TIP3    H226089   6.160   2.244   1.022  0.6106 -0.0769 -1.0109
 8709TIP3   OH226090   6.868   1.584   1.564 -0.2683 -0.1040 -0.5429
 8709TIP3    H126091   6.920   1.653   1.522 -1.3828  1.0604 -0.0558
 8709TIP3    H226092   6.925   1.549   1.633  0.4022  0.1243 -0.9701
 8710TIP3   OH226093   1.233   1.169   2.846  0.6886 -0.1911  0.0127
 8710TIP3    H126094   1.308   1.112   2.858 -0.3381 -1.7988 -0.8898
 8710TIP3    H226095   1.165   1.112   2.810  0.0278  1.8748 -2.2561
 8711TIP3   OH226096   2.492   0.974   5.659  0.2967 -0.2658 -0.2775
 8711TIP3    H126097   2.449   1.047   5.615  0.2831  0.1113  0.3524
 8711TIP3    H226098   2.576   0.964   5.613  0.2359  0.0499 -0.4573
 8712TIP3   OH226099   6.338   2.520   5.893 -0.2372  0.3018 -0.2148
 8712TIP3    H126100   6.354   2.555   5.806 -1.5154  2.0924  0.2254
 8712TIP3    H226101   6.405   2.560   5.948 -0.0506 -0.0516 -0.1791
 8713TIP3   OH226102   0.310   2.646   5.285 -0.5992  0.2653 -0.1016
 8713TIP3    H126103   0.255   2.673   5.359  2.2742 -0.5455  2.5534
 8713TIP3    H226104   0.264   2.571   5.247 -2.2987  0.8805  0.6269
 8714TIP3   OH226105   4.144   4.800   5.618 -0.1390 -0.6611 -0.1527
 8714TIP3    H126106   4.206   4.781   5.548  1.0123 -0.0912  0.6640
 8714TIP3    H226107   4.123   4.714   5.655  0.0518 -0.8769 -0.5355
 8715TIP3   OH226108   4.235   3.694   3.369 -0.1866  0.3071  0.4191
 8715TIP3    H126109   4.243   3.602   3.344  2.2923  0.2556  1.1230
 8715TIP3    H226110   4.273   3.741   3.295  0.5342  0.6067  0.9691
 8716TIP3   OH226111   1.272   0.292   0.543  0.5972 -0.0957 -0.4000
 8716TIP3    H126112   1.330   0.324   0.612 -0.3136 -0.5958  0.6147
 8716TIP3    H226113   1.323   0.223   0.500  0.9006 -0.2695  0.2315
 8717TIP3   OH226114   1.841   1.206   3.605 -0.1823 -0.2732 -0.1205
 8717TIP3    H126115   1.888   1.173   3.681  1.8990  1.1614 -0.7037
 8717TIP3    H226116   1.828   1.130   3.549 -1.4275 -1.2838  1.4325
 8718TIP3   OH226117   0.943   4.396   2.091  0.2580  0.8673  0.5691
 8718TIP3    H126118   0.882   4.392   2.017  1.1109  0.4891 -0.1467
 8718TIP3    H226119   0.966   4.304   2.108  0.0179  0.9486  1.3520
 8719TIP3   OH226120   2.164   4.510   2.658  0.1358 -0.2885  0.3260
 8719TIP3    H126121   2.160   4.518   2.563  1.6665  1.5788  0.3379
 8719TIP3    H226122   2.076   4.486   2.684  0.1315 -2.8938 -1.6715
 8720TIP3   OH226123   6.161   6.253   0.422 -0.4648 -0.1394  0.0076
 8720TIP3    H126124   6.190   6.334   0.464  2.2913 -0.6604 -0.6811
 8720TIP3    H226125   6.180   6.266   0.329 -0.6756 -1.2895 -0.2107
 8721TIP3   OH226126   3.615   0.787   5.304 -0.8412  0.2240 -0.3246
 8721TIP3    H126127   3.523   0.795   5.279 -0.9735  0.2502  0.1665
 8721TIP3    H226128   3.622   0.835   5.386 -0.6685 -0.8551  0.3093
 8722TIP3   OH226129   5.505   5.366   2.597  0.2969 -0.7793  0.0351
 8722TIP3    H126130   5.544   5.367   2.685 -0.4492 -2.6515  0.4474
 8722TIP3    H226131   5.474   5.276   2.586 -4.3990  0.5822  0.0015
 8723TIP3   OH226132   5.043   0.489   0.247  0.3282  0.2538 -0.0526
 8723TIP3    H126133   5.125   0.490   0.197 -0.5969  1.0148 -1.6040
 8723TIP3    H226134   5.047   0.406   0.296  0.4453 -1.5666 -2.8715
 8724TIP3   OH226135   4.327   2.905   2.125  0.0262 -0.3203 -0.3437
 8724TIP3    H126136   4.247   2.928   2.077 -0.9660 -1.6444  0.5963
 8724TIP3    H226137   4.384   2.865   2.060  0.4561  1.7059 -1.2878
 8725TIP3   OH226138   6.616   5.922   2.243 -0.3666 -0.1948  0.1069
 8725TIP3    H126139   6.656   5.916   2.156  0.2042 -1.1875  0.4270
 8725TIP3    H226140   6.589   6.013   2.250 -2.8554 -0.6468 -2.1625
 8726TIP3   OH226141   4.585   0.431   5.610 -0.0970 -0.1310  0.2220
 8726TIP3    H126142   4.535   0.367   5.662 -0.1685  0.5499  1.0185
 8726TIP3    H226143   4.519   0.478   5.560  0.0230 -1.2272 -1.0393
 8727TIP3   OH226144   6.983   3.186   5.384  0.2506 -0.3900  0.1510
 8727TIP3    H126145   7.003   3.120   5.451  0.1519 -0.5641  0.0089
 8727TIP3    H226146   6.896   3.218   5.406 -0.7211 -2.0016 -1.1380
 8728TIP3   OH226147   2.841   2.689   3.519 -0.0777  0.2479 -0.6080
 8728TIP3    H126148   2.760   2.704   3.568 -0.3025 -1.9647 -0.1697
 8728TIP3    H226149   2.904   2.750   3.558 -0.7637 -0.1059  1.1848
 8729TIP3   OH226150   3.390   5.040   4.503  0.4755  0.0884  0.0973
 8729TIP3    H126151   3.361   4.961   4.457  2.2858 -0.7519  0.3059
 8729TIP3    H226152   3.450   5.083   4.442  1.1180  0.1840  0.7871
 8730TIP3   OH226153   6.247   2.547   3.669 -0.3307  0.2487  0.0241
 8730TIP3    H126154   6.290   2.618   3.716  0.5371 -0.7926  0.8502
 8730TIP3    H226155   6.253   2.571   3.576 -1.1286  1.8146  0.3445
 8731TIP3   OH226156   0.588   6.825   3.447  0.0945 -0.3330 -0.0208
 8731TIP3    H126157   0.669   6.850   3.491 -0.6322 -0.1292  1.2622
 8731TIP3    H226158   0.568   6.738   3.482 -0.2777 -0.3429 -0.2532
 8732TIP3   OH226159   4.811   0.452   0.755 -0.0725  0.5162  0.2013
 8732TIP3    H126160   4.880   0.406   0.803  0.0464 -0.0027 -0.4456
 8732TIP3    H226161   4.849   0.467   0.668 -1.5393 -1.8296 -0.9429
 8733TIP3   OH226162   2.938   4.994   1.149  0.1857  0.3590  0.3133
 8733TIP3    H126163   3.009   5.009   1.212 -2.1763  0.3154  3.2030
 8733TIP3    H226164   2.949   5.063   1.083  3.1422  0.0273  0.3344
 8734TIP3   OH226165   0.882   5.135   0.564 -0.1783  0.6638  0.5865
 8734TIP3    H126166   0.834   5.203   0.612  0.3478  0.7688  0.9632
 8734TIP3    H226167   0.828   5.057   0.575  0.0594  0.6286  1.5530
 8735TIP3   OH226168   2.658   2.600   2.922  0.1201 -1.0343 -0.4222
 8735TIP3    H126169   2.707   2.619   3.002 -0.3078  0.3522 -0.4722
 8735TIP3    H226170   2.721   2.553   2.866  0.8732 -0.7352  0.1613
 8736TIP3   OH226171   5.926   4.072   5.905  0.2547 -0.2423 -0.2316
 8736TIP3    H126172   5.887   4.155   5.878 -0.4933 -0.7176 -0.6451
 8736TIP3    H226173   6.019   4.081   5.885 -0.1381 -0.2805 -2.3087
 8737TIP3   OH226174   0.165   1.154   5.569 -0.0963  0.0959  0.2975
 8737TIP3    H126175   0.070   1.154   5.580 -0.1021  0.6501  0.2806
 8737TIP3    H226176   0.189   1.062   5.566 -0.4396 -0.0673  1.8983
 8738TIP3   OH226177   6.011   5.326   0.548  0.0472  0.5340 -0.3724
 8738TIP3    H126178   5.994   5.383   0.623 -2.7642 -1.9090  1.0626
 8738TIP3    H226179   5.959   5.364   0.477  2.6936  2.8391 -1.2675
 8739TIP3   OH226180   3.868   4.296   3.468 -0.5501 -1.2436  0.3054
 8739TIP3    H126181   3.901   4.291   3.378  0.0137  1.7043  0.2280
 8739TIP3    H226182   3.926   4.360   3.510 -0.7605 -2.6023  2.8274
 8740TIP3   OH226183   0.649   2.751   1.741 -0.4013 -0.4317 -0.6027
 8740TIP3    H126184   0.591   2.733   1.667 -2.6415  0.2083  0.8879
 8740TIP3    H226185   0.649   2.671   1.793  2.7051 -1.5738 -2.1463
 8741TIP3   OH226186   2.766   2.695   2.545 -0.0939 -0.0182 -0.0529
 8741TIP3    H126187   2.683   2.716   2.587  0.2794  1.6067 -0.0543
 8741TIP3    H226188   2.744   2.682   2.452 -0.6557 -1.8998  0.3003
 8742TIP3   OH226189   0.981   5.234   1.767  0.3337 -0.0552  0.1531
 8742TIP3    H126190   1.001   5.241   1.860 -0.7475 -2.4963  0.6556
 8742TIP3    H226191   1.057   5.189   1.729  1.4695  2.2691 -0.5200
 8743TIP3   OH226192   1.072   1.620   2.832 -0.2311  0.5052  0.5235
 8743TIP3    H126193   0.986   1.599   2.794 -0.8869 -0.5923  2.5004
 8743TIP3    H226194   1.084   1.556   2.902  0.4379  2.9888  2.8624
 8744TIP3   OH226195   3.728   2.519   1.692 -0.1830 -0.1027  0.2382
 8744TIP3    H126196   3.687   2.513   1.605  0.1098 -0.1891  0.1036
 8744TIP3    H226197   3.697   2.441   1.738  1.4610 -1.3183 -0.5845
 8745TIP3   OH226198   7.166   5.520   3.072 -0.3663 -0.1293  0.0534
 8745TIP3    H126199   7.072   5.504   3.064 -0.1056 -0.9441 -2.0531
 8745TIP3    H226200   7.194   5.465   3.145 -1.4120 -0.4448  0.2222
 8746TIP3   OH226201   5.384   5.631   5.315 -0.5515  0.2543 -0.2131
 8746TIP3    H126202   5.441   5.664   5.245  0.8199  0.3024  0.8674
 8746TIP3    H226203   5.347   5.710   5.354  0.3506  0.3846  0.4309
 8747TIP3   OH226204   4.021   6.521   0.866 -0.0262  0.3374  0.1682
 8747TIP3    H126205   3.987   6.458   0.929 -2.7491 -0.2657 -1.7003
 8747TIP3    H226206   3.972   6.503   0.786  2.5275  1.7016 -1.8733
 8748TIP3   OH226207   6.844   0.645   4.105 -0.1734  0.3238  0.4138
 8748TIP3    H126208   6.777   0.615   4.044  0.1774  1.5858 -0.6489
 8748TIP3    H226209   6.926   0.641   4.055  0.2658  0.5165  1.0999
 8749TIP3   OH226210   5.381   5.746   4.182 -0.1500  0.4542 -0.1275
 8749TIP3    H126211   5.325   5.811   4.225 -0.6667  0.4281 -0.7428
 8749TIP3    H226212   5.349   5.743   4.092  2.1245  1.9264 -1.0781
 8750TIP3   OH226213   5.755   2.695   4.671 -0.2252 -0.4425 -0.2226
 8750TIP3    H126214   5.693   2.763   4.699 -0.5503 -1.4180  1.6286
 8750TIP3    H226215   5.838   2.741   4.661 -0.8333  0.5497 -0.8965
 8751TIP3   OH226216   3.425   3.430   2.461 -0.5273 -0.4253 -0.1841
 8751TIP3    H126217   3.345   3.378   2.454 -1.2810  0.5320  0.9745
 8751TIP3    H226218   3.396   3.517   2.486  0.8525  0.0791 -0.2201
 8752TIP3   OH226219   4.049   4.455   0.997 -0.0898 -0.5392 -0.0583
 8752TIP3    H126220   4.084   4.505   0.923 -0.8976  0.8928  0.4911
 8752TIP3    H226221   4.124   4.440   1.054  0.6757 -2.1882 -1.4026
 8753TIP3   OH226222   2.410   4.351   0.389 -0.9215  0.1804 -0.1174
 8753TIP3    H126223   2.428   4.269   0.435 -1.4959 -0.8032 -1.5924
 8753TIP3    H226224   2.324   4.378   0.423  0.2771  1.4664  2.1094
 8754TIP3   OH226225   3.545   1.962   2.328  0.1585 -0.2185  0.7619
 8754TIP3    H126226   3.598   2.042   2.324 -2.0150  1.2623 -1.0908
 8754TIP3    H226227   3.461   1.992   2.362 -0.2540 -2.0471  1.4495
 8755TIP3   OH226228   4.305   2.927   3.205  0.2297  0.3898 -0.2236
 8755TIP3    H126229   4.389   2.897   3.169 -0.3842 -1.5218 -0.1937
 8755TIP3    H226230   4.314   2.916   3.299 -0.7821 -2.0311 -0.3481
 8756TIP3   OH226231   1.761   6.126   4.874 -0.1824 -0.1703 -0.1068
 8756TIP3    H126232   1.835   6.152   4.929  2.8432 -2.9220 -2.4779
 8756TIP3    H226233   1.765   6.185   4.799 -1.8751  1.0507  0.6860
 8757TIP3   OH226234   6.023   0.927   3.781  0.1233  0.0854 -0.0586
 8757TIP3    H126235   6.071   0.846   3.792  0.5823  0.5165  1.3576
 8757TIP3    H226236   5.968   0.913   3.704  0.4043 -1.4490  0.0018
 8758TIP3   OH226237   3.286   1.802   1.463 -0.0703 -0.0062 -0.1086
 8758TIP3    H126238   3.329   1.719   1.441  1.7449  1.0451 -0.7038
 8758TIP3    H226239   3.288   1.853   1.382  0.7730  1.4240  0.7708
 8759TIP3   OH226240   6.357   0.659   1.949  0.1784  0.5895  0.0302
 8759TIP3    H126241   6.377   0.751   1.961  3.4084  0.0472 -0.0450
 8759TIP3    H226242   6.311   0.633   2.028 -1.4589  2.3758 -0.2820
 8760TIP3   OH226243   5.661   4.755   2.753  0.1204  0.3409  0.3721
 8760TIP3    H126244   5.717   4.799   2.817  2.1877 -0.4344 -0.7980
 8760TIP3    H226245   5.663   4.663   2.779  0.3545  0.1359 -0.3565
 8761TIP3   OH226246   6.964   4.308   5.464  0.1795 -0.3045  0.2261
 8761TIP3    H126247   7.054   4.303   5.433  0.9253  2.5938  1.6524
 8761TIP3    H226248   6.915   4.346   5.390  0.9297  1.7014  0.7089
 8762TIP3   OH226249   6.219   2.313   4.528 -0.1540 -0.1616 -0.3982
 8762TIP3    H126250   6.174   2.252   4.587 -0.0861 -0.3548 -0.5444
 8762TIP3    H226251   6.166   2.393   4.531  0.2293  0.0796  0.4663
 8763TIP3   OH226252   4.811   5.845   3.085 -0.7713 -0.1466  0.3595
 8763TIP3    H126253   4.789   5.934   3.113 -0.5508  0.3888 -1.0469
 8763TIP3    H226254   4.821   5.795   3.166 -1.4432  0.9748  1.1589
 8764TIP3   OH226255   7.000   6.057   3.229 -0.4507 -0.8153  0.4458
 8764TIP3    H126256   6.916   6.012   3.223 -1.2993  0.8474 -1.5109
 8764TIP3    H226257   7.045   6.034   3.147 -0.6819  1.3193 -0.3507
 8765TIP3   OH226258   3.075   4.146   2.138  0.2902  0.3681 -0.3096
 8765TIP3    H126259   3.032   4.231   2.135  0.2198  0.3622  0.3841
 8765TIP3    H226260   3.073   4.114   2.047 -1.0808  0.4011 -0.3039
 8766TIP3   OH226261   3.359   3.851   3.075 -0.1338 -0.0590  0.5754
 8766TIP3    H126262   3.271   3.832   3.105 -0.6290  0.5953 -0.4189
 8766TIP3    H226263   3.394   3.913   3.139 -0.0796 -0.9238  1.4126
 8767TIP3   OH226264   4.373   1.839   4.403 -0.1526 -0.3089 -0.1776
 8767TIP3    H126265   4.317   1.805   4.333 -2.8374  3.8754 -0.4206
 8767TIP3    H226266   4.438   1.891   4.358 -1.4824  1.8512  0.2538
 8768TIP3   OH226267   3.735   0.877   3.320 -0.2607  0.1844  0.3515
 8768TIP3    H126268   3.762   0.942   3.255  0.7528 -0.4834  0.0746
 8768TIP3    H226269   3.701   0.804   3.268 -0.2198 -0.0131  0.6019
 8769TIP3   OH226270   5.548   3.808   5.291 -0.4397  0.0041  0.3584
 8769TIP3    H126271   5.530   3.794   5.198 -0.5983 -0.0004  0.3899
 8769TIP3    H226272   5.574   3.722   5.324  1.7808  0.4179 -0.1600
 8770TIP3   OH226273   2.495   2.305   3.044 -0.4261  0.4025 -0.0610
 8770TIP3    H126274   2.569   2.331   3.099  1.2284  1.2926 -2.5605
 8770TIP3    H226275   2.441   2.383   3.038 -1.3327 -0.0782  1.2804
 8771TIP3   OH226276   2.778   4.396   3.682 -0.3534  0.5675  0.6594
 8771TIP3    H126277   2.731   4.462   3.734  0.4416  0.9311  0.9400
 8771TIP3    H226278   2.833   4.350   3.746  1.5105  1.7691  0.0355
 8772TIP3   OH226279   3.653   3.279   2.065  0.4007 -0.6435  0.0520
 8772TIP3    H126280   3.650   3.341   2.137 -0.6853  1.1878 -1.4925
 8772TIP3    H226281   3.576   3.299   2.012  1.3613 -1.6289 -1.8459
 8773TIP3   OH226282   0.931   2.558   3.358  0.2894  0.2027 -0.2108
 8773TIP3    H126283   0.859   2.524   3.304  0.4814 -0.5713  0.0050
 8773TIP3    H226284   0.903   2.540   3.448  0.2979  0.8297 -0.0811
 8774TIP3   OH226285   6.662   0.638   2.417 -0.1265 -0.0938 -0.3873
 8774TIP3    H126286   6.585   0.664   2.367 -0.1134  1.3017  0.2546
 8774TIP3    H226287   6.736   0.664   2.361 -0.0829 -1.8514 -1.2086
 8775TIP3   OH226288   0.383   6.370   5.091 -0.5437  0.3988  0.1808
 8775TIP3    H126289   0.363   6.378   5.184 -0.4233  2.0603  0.0929
 8775TIP3    H226290   0.450   6.302   5.086  2.3706  2.9220  1.8096
 8776TIP3   OH226291   4.912   0.019   3.515 -0.0661 -0.1911 -0.0016
 8776TIP3    H126292   4.950  -0.051   3.569 -0.7139 -0.1378  0.5445
 8776TIP3    H226293   4.900   0.092   3.577  2.5264  1.1923 -0.9629
 8777TIP3   OH226294   4.696   3.742   4.291  0.2135  0.3524 -0.0276
 8777TIP3    H126295   4.682   3.830   4.326 -0.0861  0.3950 -0.2537
 8777TIP3    H226296   4.681   3.751   4.197 -0.7867 -0.1392  0.0713
 8778TIP3   OH226297   5.619   3.213   1.151 -0.0569 -0.1450  0.1204
 8778TIP3    H126298   5.650   3.141   1.207 -1.0641 -0.0420  0.8379
 8778TIP3    H226299   5.542   3.247   1.197 -3.4078 -2.5127 -3.1372
 8779TIP3   OH226300   3.631   5.701   0.152  0.4144  0.1521  0.3320
 8779TIP3    H126301   3.643   5.790   0.120  0.0394 -0.2522 -0.9926
 8779TIP3    H226302   3.580   5.658   0.084  1.0836 -1.2393  0.6822
 8780TIP3   OH226303   6.593   1.878   1.752 -0.2252  0.0047 -0.3209
 8780TIP3    H126304   6.509   1.894   1.709 -0.4319  0.3515  0.1995
 8780TIP3    H226305   6.616   1.789   1.726 -1.6895 -0.8194  1.0155
 8781TIP3   OH226306   0.699   0.945   1.877 -0.3595 -0.2520  0.6172
 8781TIP3    H126307   0.657   1.012   1.824 -0.6473  0.6343  1.9159
 8781TIP3    H226308   0.780   0.986   1.907  0.5414 -1.2762 -0.3218
 8782TIP3   OH226309   6.523   3.040   0.035  0.3258  0.4400  0.3653
 8782TIP3    H126310   6.608   3.058  -0.005  0.8476 -1.1154  0.7147
 8782TIP3    H226311   6.480   2.979  -0.025 -0.1827  0.5355  0.6271
 8783TIP3   OH226312   4.136   3.764   1.436 -0.6104 -0.6282 -0.4641
 8783TIP3    H126313   4.211   3.818   1.459 -0.0456 -1.1930 -0.9239
 8783TIP3    H226314   4.088   3.752   1.518 -1.2516  1.2819 -0.5006
 8784TIP3   OH226315   3.586   4.453   0.911 -0.6001  0.3760 -0.0099
 8784TIP3    H126316   3.641   4.496   0.845  0.5406  2.3082  2.0529
 8784TIP3    H226317   3.628   4.369   0.927  0.8959  1.1891  0.4318
 8785TIP3   OH226318   5.461   5.633   0.818 -0.6256  0.1828  0.0616
 8785TIP3    H126319   5.415   5.641   0.735  0.0443 -2.0731 -0.6082
 8785TIP3    H226320   5.392   5.631   0.884 -1.2811  0.0586 -0.6165
 8786TIP3   OH226321   5.421   6.130   3.100  0.1690 -0.7550  0.0094
 8786TIP3    H126322   5.406   6.180   3.181 -0.1795  1.7776 -1.5071
 8786TIP3    H226323   5.378   6.046   3.116  0.7461 -0.6323  2.7123
 8787TIP3   OH226324   2.706   5.615   1.323  0.1398  0.1750  0.2845
 8787TIP3    H126325   2.736   5.627   1.413 -1.0084 -2.5108  1.1289
 8787TIP3    H226326   2.621   5.659   1.320 -0.5735 -1.1153  1.0378
 8788TIP3   OH226327   6.190   6.547   0.434  0.5246  0.3145 -0.4481
 8788TIP3    H126328   6.155   6.621   0.383  1.8199  1.2134 -0.0980
 8788TIP3    H226329   6.216   6.483   0.368  0.4588  0.6742 -0.8307
 8789TIP3   OH226330   1.708   2.339   5.520  0.3579 -0.1015  0.2457
 8789TIP3    H126331   1.715   2.417   5.574 -0.9386 -0.0323  0.3466
 8789TIP3    H226332   1.774   2.279   5.555  1.4307  0.9686  0.1005
 8790TIP3   OH226333   1.117   0.243   1.005  0.0920  0.4913 -0.1079
 8790TIP3    H126334   1.104   0.331   1.042 -1.1823  0.4192 -0.3539
 8790TIP3    H226335   1.112   0.256   0.911 -2.8473 -0.1812 -0.1487
 8791TIP3   OH226336   7.121   3.631   3.611 -0.0405  0.6518 -0.0698
 8791TIP3    H126337   7.170   3.688   3.553 -0.3254 -0.5818 -1.5686
 8791TIP3    H226338   7.180   3.615   3.685  0.7677  1.2982 -0.5627
 8792TIP3   OH226339   0.271   2.055   1.097  0.0711 -0.0662  0.1923
 8792TIP3    H126340   0.340   2.110   1.134 -1.1143  1.4869  0.1973
 8792TIP3    H226341   0.253   2.095   1.011 -1.0187 -0.2680  0.3203
 8793TIP3   OH226342   4.350   0.923   1.942  0.3407  0.2514  0.2462
 8793TIP3    H126343   4.445   0.931   1.953  0.6364 -0.9197 -1.0245
 8793TIP3    H226344   4.326   1.001   1.892  0.7798  0.1574 -0.1244
 8794TIP3   OH226345   2.438   0.794   5.001  0.5864  0.3148  0.0040
 8794TIP3    H126346   2.525   0.769   5.034  0.7130 -1.3258 -1.4337
 8794TIP3    H226347   2.379   0.729   5.038  0.1770  0.6240 -0.1018
 8795TIP3   OH226348   1.430   6.802   0.256 -0.0670 -0.3386  0.4490
 8795TIP3    H126349   1.503   6.741   0.256 -0.1498 -0.4357  0.6281
 8795TIP3    H226350   1.414   6.821   0.163 -1.1535 -1.9034  0.2810
 8796TIP3   OH226351   3.602   1.163   0.556 -0.2802  0.0022  0.1365
 8796TIP3    H126352   3.594   1.167   0.651 -1.5071  1.8374  0.0023
 8796TIP3    H226353   3.675   1.103   0.540  1.1639  1.0934  2.2863
 8797TIP3   OH226354   1.875   2.474   1.267 -0.3920 -0.0236 -0.5627
 8797TIP3    H126355   1.881   2.478   1.172 -1.6278 -0.5396 -0.6765
 8797TIP3    H226356   1.789   2.510   1.288  0.3848  1.3597  0.4738
 8798TIP3   OH226357   6.472   2.157   0.719  0.3705 -0.3027 -0.5658
 8798TIP3    H126358   6.488   2.128   0.629  0.9218 -0.4795 -0.4144
 8798TIP3    H226359   6.453   2.076   0.767 -2.2002 -0.0246 -0.9555
 8799TIP3   OH226360   2.379   4.510   0.157 -0.7211  0.2080 -0.0706
 8799TIP3    H126361   2.395   4.440   0.220 -0.4697 -1.0867 -1.5006
 8799TIP3    H226362   2.284   4.508   0.144 -0.9235  1.2470  1.0747
 8800TIP3   OH226363   3.710   3.944   5.719 -0.3869 -0.5605  0.1971
 8800TIP3    H126364   3.709   3.896   5.636 -0.5480 -1.7082  0.8452
 8800TIP3    H226365   3.620   3.973   5.732 -0.4203 -0.6287  0.1135
 8801TIP3   OH226366   1.442   0.169   2.293  0.1816 -0.3718  0.0080
 8801TIP3    H126367   1.405   0.246   2.337  2.4848  1.1354 -0.4836
 8801TIP3    H226368   1.386   0.156   2.217  0.4185  1.6710 -0.5896
 8802TIP3   OH226369   0.383   6.266   3.367  0.4912 -0.8108 -0.4955
 8802TIP3    H126370   0.333   6.268   3.449  1.1040  1.3009 -0.1087
 8802TIP3    H226371   0.326   6.308   3.303  0.9488 -0.2934 -0.5653
 8803TIP3   OH226372   2.288   1.518   3.734 -0.0243 -0.3273 -0.3317
 8803TIP3    H126373   2.289   1.595   3.791  0.2867 -0.0673 -0.6867
 8803TIP3    H226374   2.333   1.450   3.785 -0.6438 -0.3974  0.1412
 8804TIP3   OH226375   0.774   6.447   1.876  0.1918  0.4686 -0.1223
 8804TIP3    H126376   0.731   6.462   1.961  2.2144  2.3869  0.6507
 8804TIP3    H226377   0.840   6.380   1.894  1.4242  1.7109  0.1838
 8805TIP3   OH226378   4.006   5.296   5.574 -0.4623 -0.1641 -0.1369
 8805TIP3    H126379   4.044   5.211   5.596  0.3986  0.1343 -0.4674
 8805TIP3    H226380   4.077   5.358   5.586 -0.8686  0.4094 -0.6760
 8806TIP3   OH226381   5.358   0.794   4.402 -0.0172  0.2038  0.4642
 8806TIP3    H126382   5.435   0.737   4.397 -0.6285 -0.5332 -2.2080
 8806TIP3    H226383   5.289   0.737   4.437 -0.2712 -0.3305 -0.8495
 8807TIP3   OH226384   1.075   3.263   1.795  0.3725 -0.2759  0.3461
 8807TIP3    H126385   1.012   3.282   1.865 -0.3516  2.4529 -0.9402
 8807TIP3    H226386   1.026   3.206   1.735  0.2590 -0.8448  0.9665
 8808TIP3   OH226387   5.244   0.301   2.983 -0.2139  0.3834 -0.1696
 8808TIP3    H126388   5.151   0.319   2.996 -0.0684 -0.8794  4.3626
 8808TIP3    H226389   5.289   0.374   3.025  0.9026  0.6652 -1.7591
 8809TIP3   OH226390   2.003   1.260   1.464  0.4286 -0.1976  0.0988
 8809TIP3    H126391   2.077   1.288   1.517 -0.0897 -0.9243  1.2321
 8809TIP3    H226392   1.977   1.175   1.500  0.6209 -1.1669 -1.8927
 8810TIP3   OH226393   0.550   0.572   3.656 -0.1952  0.1479 -0.3396
 8810TIP3    H126394   0.574   0.590   3.747  0.4649 -0.1246 -0.4519
 8810TIP3    H226395   0.484   0.638   3.635 -1.8958 -1.0501  0.9774
 8811TIP3   OH226396   0.477   6.547   2.548  0.1700  0.0667  0.1399
 8811TIP3    H126397   0.461   6.552   2.642 -0.1519  1.0989  0.0400
 8811TIP3    H226398   0.450   6.632   2.514 -2.1386 -1.1421 -1.2809
 8812TIP3   OH226399   5.339   5.865   3.084  0.8086  0.2972 -0.2445
 8812TIP3    H126400   5.254   5.823   3.073  0.1184  1.6664 -0.2752
 8812TIP3    H226401   5.384   5.851   3.000  0.1817  0.5161 -0.6231
 8813TIP3   OH226402   6.240   5.258   2.899  0.1071 -0.1932 -0.1457
 8813TIP3    H126403   6.190   5.267   2.818 -0.4721  1.4435  0.3587
 8813TIP3    H226404   6.331   5.257   2.872 -0.1048 -0.6242 -0.8751
 8814TIP3   OH226405   6.721   6.777   3.346  0.0607  0.1034 -0.3530
 8814TIP3    H126406   6.704   6.697   3.297 -2.0990  0.9061 -1.0198
 8814TIP3    H226407   6.765   6.748   3.426 -3.6748 -2.2727  1.1093
 8815TIP3   OH226408   2.830   3.984   0.694 -0.5136 -0.2256  0.2929
 8815TIP3    H126409   2.778   3.908   0.670  1.0298 -0.9815 -0.7981
 8815TIP3    H226410   2.827   4.042   0.618 -0.2307 -0.0045  0.4441
 8816TIP3   OH226411   1.442   5.323   3.632 -0.5026  0.8028  0.0873
 8816TIP3    H126412   1.537   5.318   3.638 -0.4386  1.1965 -0.5333
 8816TIP3    H226413   1.415   5.239   3.595 -0.4868  0.3020  1.1848
 8817TIP3   OH226414   2.051   4.120   0.820 -0.3699 -0.5084 -0.1010
 8817TIP3    H126415   2.114   4.062   0.863  0.2617 -0.2285 -0.6374
 8817TIP3    H226416   2.049   4.089   0.730 -0.5877 -0.1628 -0.2142
 8818TIP3   OH226417   2.957   0.343   4.261 -0.0759  0.0594 -0.4119
 8818TIP3    H126418   2.887   0.407   4.271  0.3121  0.1336  2.7112
 8818TIP3    H226419   2.918   0.272   4.210 -2.6861 -0.1682  1.6997
 8819TIP3   OH226420   6.663   3.943   0.920  0.4087 -0.8423  0.0540
 8819TIP3    H126421   6.679   4.018   0.977  1.2906 -0.6250 -0.4676
 8819TIP3    H226422   6.576   3.959   0.883  1.4063  1.0129 -1.6617
 8820TIP3   OH226423   5.632   4.110   0.345  0.1269 -0.3297  0.5937
 8820TIP3    H126424   5.565   4.178   0.340  0.0348 -0.4355  0.3751
 8820TIP3    H226425   5.669   4.106   0.256 -1.6149 -2.3383 -0.1209
 8821TIP3   OH226426   7.012   2.137   2.059  0.3976  0.2106 -0.4138
 8821TIP3    H126427   7.025   2.213   2.117  0.3042  0.9065 -1.2786
 8821TIP3    H226428   6.917   2.128   2.053  0.4097 -0.1290 -0.1250
 8822TIP3   OH226429   1.456   4.411   2.350  0.3971  0.3324 -0.0018
 8822TIP3    H126430   1.374   4.397   2.302 -0.1652  2.1816  0.3533
 8822TIP3    H226431   1.524   4.407   2.283  0.2561 -2.7271 -0.1069
 8823TIP3   OH226432   4.384   4.802   2.123  0.1611  0.5816 -0.1070
 8823TIP3    H126433   4.298   4.832   2.093 -0.2712  2.2356  2.4470
 8823TIP3    H226434   4.445   4.833   2.056 -0.9736  1.6215 -0.7062
 8824TIP3   OH226435   5.651   0.047   4.632 -0.1662  0.1235  0.0858
 8824TIP3    H126436   5.564   0.080   4.652  0.1698  1.6062 -0.7750
 8824TIP3    H226437   5.662   0.062   4.538  1.4986  1.1609  0.4099
 8825TIP3   OH226438   2.965   2.495   2.020 -0.2870  0.7043  0.1947
 8825TIP3    H126439   2.984   2.413   2.065  1.6467  0.8518 -0.3071
 8825TIP3    H226440   3.024   2.559   2.060  0.6021  1.1033 -1.6845
 8826TIP3   OH226441   4.938   2.362   2.528  0.2503  0.0595  0.2678
 8826TIP3    H126442   4.885   2.441   2.516  0.4797  0.5650  2.2378
 8826TIP3    H226443   5.008   2.389   2.587  2.0091 -0.9201 -1.2712
 8827TIP3   OH226444   7.040   6.098   5.024 -0.8137 -0.1212 -0.6708
 8827TIP3    H126445   7.020   6.089   4.931  0.7135  2.8608 -1.4274
 8827TIP3    H226446   6.966   6.147   5.060 -1.6926 -1.7911 -0.1288
 8828TIP3   OH226447   1.614   4.410   3.336 -0.0640  0.0272  0.2377
 8828TIP3    H126448   1.708   4.425   3.330 -0.0054  0.2154  1.3663
 8828TIP3    H226449   1.575   4.496   3.321 -0.1250 -0.2537 -1.3406
 8829TIP3   OH226450   3.177   0.373   3.062  0.1892 -0.0770 -0.1805
 8829TIP3    H126451   3.093   0.418   3.070 -0.2370 -0.9136  0.1415
 8829TIP3    H226452   3.174   0.304   3.128  0.7632 -0.6837 -0.7775
 8830TIP3   OH226453   5.243   6.423   1.371  0.2116  0.5733 -0.4652
 8830TIP3    H126454   5.254   6.466   1.286  0.4339  0.8570 -0.2953
 8830TIP3    H226455   5.168   6.467   1.411 -0.6767 -0.3930 -1.0223
 8831TIP3   OH226456   0.730   1.267   2.105  0.8415  0.4315  0.0782
 8831TIP3    H126457   0.715   1.242   2.196  0.9554 -0.3322 -0.1119
 8831TIP3    H226458   0.709   1.361   2.102  0.1702  0.3061  0.7338
 8832TIP3   OH226459   3.603   6.340   3.496  0.1453  0.1332 -0.1424
 8832TIP3    H126460   3.582   6.256   3.538 -0.2813  0.4254  0.2392
 8832TIP3    H226461   3.693   6.358   3.523 -0.3744  0.6965  1.3284
 8833TIP3   OH226462   1.112   4.992   5.792 -0.2600  0.3532 -0.2597
 8833TIP3    H126463   1.179   4.932   5.824  0.2126 -0.3609 -2.4072
 8833TIP3    H226464   1.033   4.938   5.786  0.0035  0.0784 -1.5661
 8834TIP3   OH226465   1.340   5.340   2.535 -0.0125  0.9211  0.2630
 8834TIP3    H126466   1.364   5.264   2.588 -0.4046 -0.8268 -1.9335
 8834TIP3    H226467   1.245   5.347   2.545 -0.0498  0.7567  0.0492
 8835TIP3   OH226468   0.445   0.335   2.857  0.1352 -0.3169 -0.7972
 8835TIP3    H126469   0.500   0.409   2.833 -1.0153  0.8159 -0.0312
 8835TIP3    H226470   0.428   0.290   2.774  3.2385 -1.5165 -0.9293
 8836TIP3   OH226471   1.876   4.478   0.217  0.4433 -0.5543  0.5468
 8836TIP3    H126472   1.835   4.407   0.267 -0.1718 -0.5699  0.0377
 8836TIP3    H226473   1.803   4.532   0.188  0.6504 -1.1985 -1.3223
 8837TIP3   OH226474   3.835   2.427   4.133  0.2161 -0.6440  0.2825
 8837TIP3    H126475   3.876   2.341   4.124  0.8866 -0.5115  1.7812
 8837TIP3    H226476   3.879   2.481   4.068 -0.4350 -1.4915 -0.9007
 8838TIP3   OH226477   0.652   1.843   4.157 -0.1921 -0.6005 -0.2085
 8838TIP3    H126478   0.559   1.819   4.157 -0.2719 -0.2907  0.1999
 8838TIP3    H226479   0.663   1.899   4.233  0.0981  0.2785 -0.8846
 8839TIP3   OH226480   0.741   5.760   5.387  0.0868 -0.6808  0.6262
 8839TIP3    H126481   0.659   5.803   5.364  0.5395  0.3863  0.9420
 8839TIP3    H226482   0.722   5.716   5.470 -0.3495 -0.9917  0.3639
 8840TIP3   OH226483   3.041   5.701   2.458 -0.1656 -0.0646  0.4254
 8840TIP3    H126484   3.116   5.725   2.512  0.0398 -0.8456  0.5055
 8840TIP3    H226485   2.997   5.631   2.508 -2.3526  1.9799  1.5648
 8841TIP3   OH226486   0.051   1.008   2.807 -0.3036  0.1789 -0.0371
 8841TIP3    H126487   0.003   0.991   2.726 -0.2929 -2.1993  0.3648
 8841TIP3    H226488   0.127   0.950   2.802 -0.7495 -0.7053  2.0114
 8842TIP3   OH226489   3.804   3.121   3.256 -0.3539  0.6889  0.4539
 8842TIP3    H126490   3.804   3.063   3.179  1.6474 -0.1725  1.0279
 8842TIP3    H226491   3.712   3.140   3.272 -0.9807 -1.0810 -0.7248
 8843TIP3   OH226492   6.456   1.885   4.510 -0.3330  0.3018 -0.0682
 8843TIP3    H126493   6.518   1.839   4.566 -1.0411  0.2358  0.6931
 8843TIP3    H226494   6.507   1.914   4.435  0.4198 -0.5120  0.1160
 8844TIP3   OH226495   2.643   6.528   1.280  0.0175 -0.3000  0.2357
 8844TIP3    H126496   2.552   6.531   1.309  0.4430 -0.2401  1.6414
 8844TIP3    H226497   2.645   6.458   1.214 -1.0631 -0.1981  0.0757
 8845TIP3   OH226498   1.577   3.832   5.656  0.6155 -0.2137  0.2322
 8845TIP3    H126499   1.653   3.822   5.713  0.5059 -1.3539  0.2080
 8845TIP3    H226500   1.597   3.777   5.580  0.4081  0.6531 -0.4701
 8846TIP3   OH226501   1.212   1.190   0.233  0.3319  0.4298 -0.3712
 8846TIP3    H126502   1.207   1.242   0.152 -1.9566  0.5132 -0.2476
 8846TIP3    H226503   1.218   1.256   0.302 -0.7545  0.4778 -0.3157
 8847TIP3   OH226504   6.240   5.489   3.898  0.1688 -0.1181  0.1964
 8847TIP3    H126505   6.148   5.462   3.889  0.1297 -0.1985  0.8064
 8847TIP3    H226506   6.259   5.479   3.991  1.1453 -1.1795 -0.1044
 8848TIP3   OH226507   3.001   2.417   4.777  0.2050  0.1604 -0.2233
 8848TIP3    H126508   3.016   2.483   4.709  1.6970 -0.4750 -0.5681
 8848TIP3    H226509   3.014   2.333   4.732  1.3319 -0.2714  0.8423
 8849TIP3   OH226510   3.672   1.637   0.794  0.2286  0.0392 -0.4396
 8849TIP3    H126511   3.640   1.628   0.705  0.9180 -1.7506 -0.5487
 8849TIP3    H226512   3.715   1.723   0.796 -0.8302  0.6204 -1.4582
 8850TIP3   OH226513   5.916   6.632   1.168 -0.0504  0.4671  0.1622
 8850TIP3    H126514   5.853   6.702   1.150 -0.0041 -0.1708 -3.1604
 8850TIP3    H226515   5.997   6.678   1.191 -0.0319  1.6154 -1.9425
 8851TIP3   OH226516   4.509   3.515   2.756  0.2010  0.4537  0.8089
 8851TIP3    H126517   4.560   3.521   2.675  2.4294 -0.5239  2.0489
 8851TIP3    H226518   4.430   3.468   2.731  1.5956 -1.3536 -0.4953
 8852TIP3   OH226519   1.198   6.586   5.313  0.0259  0.1874  0.2829
 8852TIP3    H126520   1.270   6.636   5.350 -0.3916 -0.9645  2.8439
 8852TIP3    H226521   1.135   6.652   5.284  0.8443  1.1558  0.6567
 8853TIP3   OH226522   4.730   2.495   4.001  0.1679  0.1091 -0.2995
 8853TIP3    H126523   4.719   2.472   3.909  1.9362  0.2309 -0.5844
 8853TIP3    H226524   4.746   2.589   4.000  0.3230  0.0882  0.1090
 8854TIP3   OH226525   5.703   1.364   2.384 -0.1394 -0.0566  0.6356
 8854TIP3    H126526   5.733   1.273   2.390  1.4536  0.3641 -0.3949
 8854TIP3    H226527   5.619   1.357   2.338  0.0537 -0.9963  0.3853
 8855TIP3   OH226528   4.290   1.552   3.539  0.3261 -0.3246 -0.3611
 8855TIP3    H126529   4.298   1.478   3.600 -1.7642 -1.2990 -1.1678
 8855TIP3    H226530   4.292   1.512   3.452  0.3118  0.7006 -0.8523
 8856TIP3   OH226531   6.368   4.495   4.759  0.0746  0.1293 -0.8127
 8856TIP3    H126532   6.337   4.528   4.843  0.9484 -0.9198 -0.0449
 8856TIP3    H226533   6.289   4.467   4.713 -0.2459 -1.8220  0.7891
 8857TIP3   OH226534   1.255   2.784   5.772  0.1851  0.4409  0.2592
 8857TIP3    H126535   1.205   2.863   5.753 -0.7346 -0.1503  0.1650
 8857TIP3    H226536   1.332   2.790   5.716  0.4182  1.5448  0.6745
 8858TIP3   OH226537   1.196   4.988   2.868  0.0792 -0.1047  0.2495
 8858TIP3    H126538   1.108   5.024   2.871  0.3889  0.7627 -0.5858
 8858TIP3    H226539   1.252   5.058   2.902  0.3241 -1.2040  2.3118
 8859TIP3   OH226540   0.980   0.562   4.337 -0.0067 -0.0262 -0.6500
 8859TIP3    H126541   0.942   0.502   4.401  0.0668  0.6544  0.0357
 8859TIP3    H226542   0.930   0.643   4.347  1.5507  0.8605  0.2115
 8860TIP3   OH226543   3.649   5.021   4.076 -0.6075  0.1204 -0.1891
 8860TIP3    H126544   3.613   5.078   4.009  1.0486 -0.7034 -1.8886
 8860TIP3    H226545   3.622   4.933   4.050  2.3615 -0.5391 -1.5393
 8861TIP3   OH226546   7.191   4.530   5.779  0.2039  0.4826 -0.2802
 8861TIP3    H126547   7.166   4.595   5.714  2.7043  0.4042 -1.4284
 8861TIP3    H226548   7.243   4.579   5.843 -0.8760  0.2510  0.7967
 8862TIP3   OH226549   3.230   3.586   0.473  0.1480  0.4941 -0.0463
 8862TIP3    H126550   3.312   3.612   0.514  0.8246  0.3430 -1.2506
 8862TIP3    H226551   3.219   3.494   0.499  0.5536  0.4106 -0.1476
 8863TIP3   OH226552   6.232   1.514   5.657 -0.5315  0.0348 -0.0867
 8863TIP3    H126553   6.137   1.505   5.663 -0.8906  3.1933  0.5938
 8863TIP3    H226554   6.246   1.603   5.626  2.2402 -0.0424  0.6520
 8864TIP3   OH226555   4.992   5.817   2.083 -1.1789 -0.0104 -0.2235
 8864TIP3    H126556   5.040   5.765   2.148  0.1691  1.7425  0.2781
 8864TIP3    H226557   5.005   5.771   2.001 -0.2553 -0.6145  0.2416
 8865TIP3   OH226558   4.075   1.660   3.393 -0.0761 -0.2948  0.2238
 8865TIP3    H126559   4.039   1.595   3.332  0.2987  0.9285 -1.3690
 8865TIP3    H226560   4.160   1.623   3.418 -1.0224 -1.7005  1.5480
 8866TIP3   OH226561   5.603   0.607   5.673  0.0488 -0.1353 -0.1548
 8866TIP3    H126562   5.519   0.652   5.681 -0.9474 -1.9865  0.4008
 8866TIP3    H226563   5.660   0.653   5.735 -0.1240  1.9542 -1.4371
 8867TIP3   OH226564   7.195   2.850   4.682 -0.5136  0.2493  0.2290
 8867TIP3    H126565   7.230   2.901   4.755  0.0864 -0.9160  0.7863
 8867TIP3    H226566   7.127   2.906   4.644 -1.0153  0.7863  1.8324
 8868TIP3   OH226567   2.245   1.486   5.381  0.0421  0.0870 -0.2015
 8868TIP3    H126568   2.161   1.508   5.420  0.6602  0.1993  1.1053
 8868TIP3    H226569   2.227   1.478   5.287 -1.5195 -0.4162  0.1234
 8869TIP3   OH226570   6.235   4.836   5.235  0.0373 -0.0336  0.6048
 8869TIP3    H126571   6.212   4.865   5.147  1.4367 -0.0493  0.2114
 8869TIP3    H226572   6.193   4.751   5.245  1.5228 -0.9801 -0.8331
 8870TIP3   OH226573   6.589   0.793   2.941  0.2093 -0.1920 -0.0798
 8870TIP3    H126574   6.659   0.857   2.952 -1.5062  2.0335 -1.2001
 8870TIP3    H226575   6.530   0.810   3.014 -0.4947 -0.1540 -0.6468
 8871TIP3   OH226576   6.886   6.331   0.933  0.1550 -0.6676 -0.1811
 8871TIP3    H126577   6.931   6.376   1.004 -0.9681  1.1428 -0.5698
 8871TIP3    H226578   6.793   6.341   0.953 -0.2453  1.0108 -2.5138
 8872TIP3   OH226579   2.529   2.654   1.814  0.1509  0.5426 -0.2006
 8872TIP3    H126580   2.505   2.724   1.875  0.0746 -0.9748  1.6125
 8872TIP3    H226581   2.614   2.622   1.847  0.2042 -0.1895 -1.0044
 8873TIP3   OH226582   5.055   4.018   3.611  0.1122 -0.5027  0.9301
 8873TIP3    H126583   5.054   4.113   3.610  1.4419 -0.4092  3.0719
 8873TIP3    H226584   5.148   3.995   3.612 -0.1943 -1.7942  1.3813
 8874TIP3   OH226585   2.716   5.232   1.998  0.0109 -0.3121 -0.7293
 8874TIP3    H126586   2.682   5.320   1.982  0.2579 -0.0814 -0.0423
 8874TIP3    H226587   2.811   5.241   1.995  0.0294 -0.6849 -1.2956
 8875TIP3   OH226588   6.448   5.588   2.639 -0.1389  0.3547 -0.1512
 8875TIP3    H126589   6.472   5.537   2.562 -3.2748 -0.0331 -1.0181
 8875TIP3    H226590   6.473   5.678   2.616  0.6027 -0.0147 -0.8436
 8876TIP3   OH226591   6.203   5.040   5.412 -0.5330  0.2187  0.4433
 8876TIP3    H126592   6.164   4.980   5.476 -2.6578  0.9167 -0.1136
 8876TIP3    H226593   6.253   4.983   5.354 -1.8871 -0.9526  0.3632
 8877TIP3   OH226594   2.468   6.675   1.007 -0.1613  0.2215  1.2177
 8877TIP3    H126595   2.470   6.770   1.016  1.6772  0.2446  1.1096
 8877TIP3    H226596   2.452   6.659   0.914 -0.6862  0.4132  1.2738
 8878TIP3   OH226597   6.512   5.108   3.034 -0.1101  0.4702  0.4155
 8878TIP3    H126598   6.446   5.089   3.100  0.8928  2.0452  1.9506
 8878TIP3    H226599   6.585   5.050   3.055 -0.7994 -1.0169 -1.0653
 8879TIP3   OH226600   3.641   5.467   3.165  0.6129 -0.3296  0.1715
 8879TIP3    H126601   3.568   5.414   3.197 -0.3653  1.0684  0.3412
 8879TIP3    H226602   3.701   5.404   3.125  1.0721 -1.9758  3.1387
 8880TIP3   OH226603   3.078   6.210   0.189 -0.3988 -0.4489  0.4199
 8880TIP3    H126604   3.070   6.138   0.127 -0.1239 -0.5865  0.5432
 8880TIP3    H226605   3.003   6.198   0.248  0.5681 -1.6244  1.4580
 8881TIP3   OH226606   1.473   1.913   0.944  0.6353 -0.2021 -0.4270
 8881TIP3    H126607   1.392   1.891   0.898  0.4034 -1.5745  0.5904
 8881TIP3    H226608   1.513   1.982   0.890 -0.5034 -0.4907 -1.6965
 8882TIP3   OH226609   4.406   3.547   0.012  0.3118  0.0525  0.2099
 8882TIP3    H126610   4.441   3.590   0.090  1.6702  0.2142 -0.4531
 8882TIP3    H226611   4.483   3.511  -0.032 -0.4270 -0.0582 -1.0434
 8883TIP3   OH226612   3.089   5.555   3.390 -0.0888  0.0793  0.5682
 8883TIP3    H126613   3.148   5.514   3.326  0.4561  0.0487  1.0793
 8883TIP3    H226614   3.146   5.612   3.441 -0.5397  0.1709  0.9702
 8884TIP3   OH226615   5.158   4.432   3.073  0.2449 -0.5090  0.0184
 8884TIP3    H126616   5.083   4.383   3.041  0.9169 -1.1949 -0.5515
 8884TIP3    H226617   5.180   4.391   3.156  0.5902 -0.9628 -0.2906
 8885TIP3   OH226618   3.441   5.925   1.442 -0.0038  0.0414  0.1100
 8885TIP3    H126619   3.434   5.920   1.346  0.6640  0.4788  0.0258
 8885TIP3    H226620   3.353   5.946   1.472 -0.0378  0.7755 -0.4811
 8886TIP3   OH226621   1.056   4.351   3.171  0.0674  0.0498 -0.0049
 8886TIP3    H126622   1.117   4.280   3.151  0.3801  0.6390 -1.2682
 8886TIP3    H226623   0.981   4.335   3.113 -0.8568 -0.4691  1.2836
 8887TIP3   OH226624   5.379   3.475   2.582 -0.0555 -0.3607  0.1297
 8887TIP3    H126625   5.451   3.537   2.598  1.5730 -1.5309 -2.0500
 8887TIP3    H226626   5.396   3.402   2.641  1.8601 -1.5375 -1.7004
 8888TIP3   OH226627   5.646   4.929   0.831 -0.0378  0.2396 -0.7366
 8888TIP3    H126628   5.578   4.866   0.806 -0.8574  1.1475 -0.8526
 8888TIP3    H226629   5.672   4.969   0.748  0.1267  0.3996 -0.6067
 8889TIP3   OH226630   6.499   5.944   3.090 -0.2617 -0.2403  0.2815
 8889TIP3    H126631   6.453   5.975   3.012  1.5487  1.3687 -0.2257
 8889TIP3    H226632   6.502   5.849   3.081  0.2736 -0.0623 -1.8383
 8890TIP3   OH226633   4.920   5.838   1.644 -0.1632 -0.2607  0.8761
 8890TIP3    H126634   4.964   5.919   1.666  2.0230 -1.0077 -0.4941
 8890TIP3    H226635   4.888   5.850   1.555 -0.0604 -0.8129  0.7582
 8891TIP3   OH226636   4.012   4.239   3.909  0.6965  0.5348 -0.3614
 8891TIP3    H126637   4.037   4.326   3.878  0.2342  0.9942  0.5334
 8891TIP3    H226638   3.917   4.234   3.895  0.8275 -0.1281 -1.1173
 8892TIP3   OH226639   2.456   1.626   3.965 -0.2223 -0.0319  0.3745
 8892TIP3    H126640   2.402   1.570   4.021 -0.9816  1.5066  1.2391
 8892TIP3    H226641   2.402   1.703   3.947  0.7957  0.4567 -0.7596
 8893TIP3   OH226642   3.497   1.619   2.980  0.1109  0.3779 -0.2057
 8893TIP3    H126643   3.532   1.616   2.891  0.5230  2.0289 -0.1290
 8893TIP3    H226644   3.411   1.662   2.971 -0.4503 -0.6641  0.0342
 8894TIP3   OH226645   6.524   4.560   1.788 -0.0062 -0.0823 -0.5174
 8894TIP3    H126646   6.539   4.535   1.879  0.2689 -0.8448 -0.7655
 8894TIP3    H226647   6.586   4.632   1.773 -1.1481  1.1332  0.3426
 8895TIP3   OH226648   6.586   4.946   4.145  0.4340  0.0236 -0.4121
 8895TIP3    H126649   6.588   4.943   4.241  1.3106 -0.0531 -0.4273
 8895TIP3    H226650   6.591   5.040   4.125 -1.3769  0.1646 -0.3722
 8896TIP3   OH226651   1.862   6.420   3.884 -0.3560 -0.3174 -0.7449
 8896TIP3    H126652   1.840   6.366   3.807 -0.8836  0.4310 -1.1310
 8896TIP3    H226653   1.898   6.358   3.947  1.6740 -0.7222 -2.2019
 8897TIP3   OH226654   2.709   0.669   5.809 -1.2177 -0.1569  0.6269
 8897TIP3    H126655   2.659   0.592   5.838 -1.6086  0.0487  0.5036
 8897TIP3    H226656   2.756   0.697   5.887 -0.0378 -1.2970  0.3646
 8898TIP3   OH226657   4.256   3.948   4.434  0.2138 -0.1917  0.1783
 8898TIP3    H126658   4.295   3.975   4.517  2.0483 -0.1255 -0.6465
 8898TIP3    H226659   4.271   3.853   4.430  1.6895  0.0528 -0.8022
 8899TIP3   OH226660   0.372   5.785   5.034 -0.1377  1.3529 -0.3326
 8899TIP3    H126661   0.429   5.859   5.012  1.3716  0.5719  0.7267
 8899TIP3    H226662   0.426   5.708   5.015 -1.0058  0.5747  0.2869
 8900TIP3   OH226663   2.566   2.551   0.830  0.1084 -0.2386 -0.5354
 8900TIP3    H126664   2.593   2.568   0.920 -0.1380  1.5231 -0.7693
 8900TIP3    H226665   2.641   2.578   0.777 -0.6924  1.1572 -0.9826
 8901TIP3   OH226666   1.205   0.890   4.269  0.0400  0.3570  0.2519
 8901TIP3    H126667   1.170   0.958   4.212  0.8262  1.8246  1.4665
 8901TIP3    H226668   1.298   0.911   4.278  0.3254 -0.9398  0.5927
 8902TIP3   OH226669   1.390   4.186   2.691  0.3631 -0.0768 -0.4401
 8902TIP3    H126670   1.416   4.137   2.613 -1.4189  0.2039 -1.2702
 8902TIP3    H226671   1.419   4.132   2.765  1.2487 -0.8064 -1.3011
 8903TIP3   OH226672   3.667   1.628   4.813  0.2453 -0.3792 -0.3181
 8903TIP3    H126673   3.573   1.640   4.830  0.3347  1.6582 -0.9416
 8903TIP3    H226674   3.709   1.646   4.897  0.1453  0.3224 -0.4077
 8904TIP3   OH226675   3.158   6.022   1.885 -0.2983 -0.2942  0.2016
 8904TIP3    H126676   3.095   6.037   1.955 -0.0681  2.3559 -0.0396
 8904TIP3    H226677   3.139   6.090   1.820  2.9633  0.8508  0.2717
 8905TIP3   OH226678   4.483   3.745   4.850  0.2654  0.1539  0.4086
 8905TIP3    H126679   4.538   3.822   4.866 -0.1902  0.6431 -0.3050
 8905TIP3    H226680   4.441   3.728   4.935  1.7284 -0.4222  1.0503
 8906TIP3   OH226681   5.362   1.710   4.748  0.3150 -0.3162  0.2328
 8906TIP3    H126682   5.432   1.702   4.813  0.6348 -1.5601 -0.2401
 8906TIP3    H226683   5.337   1.620   4.727 -1.5880  0.0999  0.5318
 8907TIP3   OH226684   4.032   4.094   4.130  0.1054 -0.0865  0.2401
 8907TIP3    H126685   4.031   4.165   4.194 -0.1063  0.0911  0.0435
 8907TIP3    H226686   4.000   4.134   4.049  2.1952  0.1806 -0.5019
 8908TIP3   OH226687   6.600   3.572   2.287  0.3093 -0.4796 -0.2213
 8908TIP3    H126688   6.635   3.507   2.225 -2.1115 -1.4727 -0.6670
 8908TIP3    H226689   6.546   3.521   2.348 -0.8018  0.9702  0.0711
 8909TIP3   OH226690   5.919   6.239   0.778  0.5830 -0.4413 -0.8032
 8909TIP3    H126691   5.876   6.167   0.825 -0.7266  0.3759 -0.6981
 8909TIP3    H226692   5.982   6.275   0.841 -0.5527  0.0998  0.0499
 8910TIP3   OH226693   4.150   1.313   4.451 -0.0905  0.3273  0.0598
 8910TIP3    H126694   4.171   1.403   4.424 -1.3475  0.3578 -0.9030
 8910TIP3    H226695   4.093   1.280   4.381  2.7236 -2.2732 -1.2439
 8911TIP3   OH226696   3.660   6.017   1.763  0.0440 -0.6634  0.4026
 8911TIP3    H126697   3.603   6.088   1.793 -2.6519 -1.2228 -2.6543
 8911TIP3    H226698   3.738   6.061   1.730 -1.0407  0.8278 -0.3185
 8912TIP3   OH226699   6.813   0.396   0.767  0.1689  0.0774 -0.1200
 8912TIP3    H126700   6.808   0.444   0.850  0.6828  0.6165 -0.3883
 8912TIP3    H226701   6.864   0.453   0.710  1.7650 -1.2612 -0.1090
 8913TIP3   OH226702   6.685   2.415   0.513  0.3474  0.2555  0.7336
 8913TIP3    H126703   6.639   2.464   0.444  2.0541 -0.1143 -0.7470
 8913TIP3    H226704   6.702   2.329   0.475  2.0718  0.3195  1.2684
 8914TIP3   OH226705   1.303   1.928   2.658  0.1011  0.5486 -0.8596
 8914TIP3    H126706   1.283   2.015   2.623 -1.8809  0.2247 -0.6422
 8914TIP3    H226707   1.270   1.930   2.748  1.8895  0.1936 -0.1423
 8915TIP3   OH226708   1.598   0.004   2.731  0.6462  0.5041 -0.5287
 8915TIP3    H126709   1.516  -0.001   2.682 -0.7513 -1.8393  1.8265
 8915TIP3    H226710   1.609   0.098   2.749 -2.4294  0.7915  0.4429
 8916TIP3   OH226711   5.242   0.919   4.150 -0.3814 -0.1740  0.0982
 8916TIP3    H126712   5.314   0.879   4.198 -0.0001 -1.1822 -1.2704
 8916TIP3    H226713   5.164   0.872   4.179 -0.5735  1.0636  1.7452
 8917TIP3   OH226714   3.592   4.054   4.600 -0.7146 -0.5106  0.1831
 8917TIP3    H126715   3.566   4.144   4.583 -3.2244 -1.1791  0.1443
 8917TIP3    H226716   3.659   4.035   4.534 -0.9417  0.9686 -0.5007
 8918TIP3   OH226717   3.859   1.767   2.942  0.2646 -0.0518 -0.2355
 8918TIP3    H126718   3.867   1.804   2.854  0.9921  1.4363  0.4100
 8918TIP3    H226719   3.765   1.761   2.958  0.1205  0.7843 -0.7022
 8919TIP3   OH226720   0.907   4.691   5.054  0.1167  0.0761  0.3806
 8919TIP3    H126721   0.994   4.663   5.082 -0.2407  0.0455  1.5032
 8919TIP3    H226722   0.862   4.609   5.030  0.7527  0.1880 -1.3334
 8920TIP3   OH226723   3.881   2.764   1.727 -0.8007  0.0300 -0.0674
 8920TIP3    H126724   3.866   2.676   1.693  1.3143  0.0051 -1.1151
 8920TIP3    H226725   3.923   2.750   1.812  1.9011 -0.1230 -1.3124
 8921TIP3   OH226726   6.704   5.457   2.781 -0.2302 -0.4269  0.2229
 8921TIP3    H126727   6.647   5.388   2.815 -1.2484 -0.0474 -0.6601
 8921TIP3    H226728   6.649   5.535   2.778  0.5773  0.1597  0.1279
 8922TIP3   OH226729   2.285   3.053   4.652  0.3345  0.2667 -0.3113
 8922TIP3    H126730   2.289   2.960   4.631 -2.5155 -0.2715  1.0250
 8922TIP3    H226731   2.205   3.084   4.610  1.9780  2.5784 -2.0222
 8923TIP3   OH226732   2.431   5.712   2.333 -0.2795 -0.1250 -0.5437
 8923TIP3    H126733   2.445   5.643   2.398  0.0217 -2.3556 -2.8110
 8923TIP3    H226734   2.517   5.752   2.321 -0.5983  1.2457  1.3098
 8924TIP3   OH226735   0.262   4.731   0.185 -0.0318  0.1246  0.6242
 8924TIP3    H126736   0.200   4.729   0.258 -0.4738 -0.7555  0.2320
 8924TIP3    H226737   0.319   4.806   0.204 -0.9620  0.7034  1.1898
 8925TIP3   OH226738   5.317   2.993   1.273 -0.2810 -0.4214 -0.3910
 8925TIP3    H126739   5.246   2.938   1.306 -0.0801 -0.3838  0.1173
 8925TIP3    H226740   5.313   3.072   1.327 -2.5880  1.5588 -3.1046
 8926TIP3   OH226741   3.069   0.232   0.991  0.1768 -0.4031  0.3170
 8926TIP3    H126742   3.039   0.243   1.081  1.1216 -3.2592  1.0897
 8926TIP3    H226743   3.044   0.143   0.968  3.5727 -1.2476 -0.7014
 8927TIP3   OH226744   4.289   6.587   2.758  0.2847  0.6651 -0.3646
 8927TIP3    H126745   4.361   6.534   2.722 -0.1771 -2.4211  2.7226
 8927TIP3    H226746   4.332   6.651   2.815  0.7041 -0.9036  1.1529
 8928TIP3   OH226747   0.500   6.265   3.810 -0.3746 -0.1005  0.7591
 8928TIP3    H126748   0.532   6.178   3.834  0.8920  0.0429 -0.2848
 8928TIP3    H226749   0.578   6.320   3.811 -0.5878  0.3624 -1.4813
 8929TIP3   OH226750   2.862   4.196   0.508 -0.3071  0.2500  0.0396
 8929TIP3    H126751   2.802   4.239   0.446 -2.9596  0.0747  2.3283
 8929TIP3    H226752   2.899   4.123   0.458 -2.1018  0.2873 -1.4521
 8930TIP3   OH226753   6.404   2.253   5.908 -0.3413  0.1171 -0.2886
 8930TIP3    H126754   6.484   2.260   5.856  0.8982  1.8643  1.6549
 8930TIP3    H226755   6.356   2.334   5.890 -0.5459  0.1232  0.2486
 8931TIP3   OH226756   5.485   4.874   1.086 -0.2298 -0.0596 -0.1251
 8931TIP3    H126757   5.417   4.940   1.072 -2.5288 -2.0892  0.6685
 8931TIP3    H226758   5.562   4.909   1.043 -1.5555  2.7259 -0.4491
 8932TIP3   OH226759   6.109   4.551   0.354 -0.3558  0.3338 -0.7905
 8932TIP3    H126760   6.185   4.519   0.305  0.5199  1.2820 -0.0970
 8932TIP3    H226761   6.073   4.622   0.301 -0.6268  0.0368 -1.0082
 8933TIP3   OH226762   1.858   3.310   1.947  0.2552  0.4337 -0.3175
 8933TIP3    H126763   1.823   3.396   1.924 -1.6529 -0.5662 -1.4727
 8933TIP3    H226764   1.875   3.267   1.863  1.0076 -0.3880  0.2327
 8934TIP3   OH226765   0.108   4.047   5.189  0.0508 -0.5956 -0.0646
 8934TIP3    H126766   0.035   4.057   5.128 -1.1159 -0.5397  1.2907
 8934TIP3    H226767   0.083   4.098   5.266  1.3004 -0.9773  0.6301
 8935TIP3   OH226768   5.365   3.880   3.820  0.3416 -0.1805  0.3666
 8935TIP3    H126769   5.377   3.836   3.904  0.1899  0.3316  0.6554
 8935TIP3    H226770   5.434   3.844   3.764 -0.2257 -1.3461  0.3705
 8936TIP3   OH226771   6.323   1.019   0.137  0.4735  0.5218  0.4026
 8936TIP3    H126772   6.266   0.961   0.188 -0.4992  0.9908 -0.1026
 8936TIP3    H226773   6.379   1.061   0.202  2.1621 -1.9547  0.6537
 8937TIP3   OH226774   6.660   4.881   5.404  0.1021  0.5049 -0.2797
 8937TIP3    H126775   6.652   4.953   5.465 -0.3266  0.0191  0.2486
 8937TIP3    H226776   6.739   4.901   5.353  0.8510  0.5943  0.8679
 8938TIP3   OH226777   5.431   1.844   0.969 -0.4621  0.1336  0.5425
 8938TIP3    H126778   5.481   1.762   0.961 -0.7851 -0.2949  2.3842
 8938TIP3    H226779   5.472   1.890   1.042 -1.9801  0.3313  1.3142
 8939TIP3   OH226780   4.508   1.275   3.914  0.7123 -0.1147  0.4012
 8939TIP3    H126781   4.455   1.299   3.991 -0.2896 -1.6137  0.2362
 8939TIP3    H226782   4.546   1.191   3.937  0.4759 -0.5388 -0.6948
 8940TIP3   OH226783   3.120   3.818   3.246 -0.1676 -0.2290  0.3200
 8940TIP3    H126784   3.062   3.875   3.196  1.3386 -0.3366 -1.6733
 8940TIP3    H226785   3.084   3.731   3.234 -0.6762 -0.0783  0.7213
 8941TIP3   OH226786   1.131   4.914   2.008  0.1621  0.1206  0.1915
 8941TIP3    H126787   1.055   4.951   2.053 -2.4927 -0.0937 -3.6664
 8941TIP3    H226788   1.180   4.990   1.977  0.0715  0.2935  0.4682
 8942TIP3   OH226789   6.843   2.228   0.700 -0.2968 -0.3648  0.1231
 8942TIP3    H126790   6.801   2.196   0.620  1.4273 -1.3224 -0.4470
 8942TIP3    H226791   6.853   2.151   0.755  1.5135 -0.3601 -0.1505
 8943TIP3   OH226792   1.160   2.172   4.538  0.0527 -0.3268  0.0514
 8943TIP3    H126793   1.109   2.103   4.579  1.4563 -1.0806  0.5641
 8943TIP3    H226794   1.155   2.246   4.599  0.0574 -0.5919  0.3720
 8944TIP3   OH226795   0.793   2.255   2.544 -0.9164  0.4675 -0.2558
 8944TIP3    H126796   0.753   2.252   2.631 -2.2011  1.7635 -0.7561
 8944TIP3    H226797   0.818   2.164   2.526 -0.5074  0.1832  1.4870
 8945TIP3   OH226798   1.326   1.718   5.471 -0.9568  0.3680  0.2546
 8945TIP3    H126799   1.307   1.688   5.560  0.9421 -1.8276  0.0049
 8945TIP3    H226800   1.414   1.755   5.476 -1.2545  1.2242 -0.5187
 8946TIP3   OH226801   4.727   1.835   1.308  0.3107  0.1159 -0.1271
 8946TIP3    H126802   4.736   1.858   1.216 -1.8141  0.2994 -0.3240
 8946TIP3    H226803   4.744   1.740   1.310 -1.2068 -0.1979 -0.9846
 8947TIP3   OH226804   5.246   6.536   4.131 -0.1359  0.0944 -0.2533
 8947TIP3    H126805   5.215   6.521   4.042 -2.1979 -1.4625  0.6448
 8947TIP3    H226806   5.199   6.614   4.160  0.0009  0.1918 -0.2935
 8948TIP3   OH226807   6.790   6.267   5.790 -0.1375  0.5133  0.0034
 8948TIP3    H126808   6.777   6.362   5.797 -1.0257  0.3488  0.7238
 8948TIP3    H226809   6.852   6.246   5.859  0.7644  0.6899 -0.7376
 8949TIP3   OH226810   1.763   6.038   4.097  0.3695 -0.5971 -0.0005
 8949TIP3    H126811   1.713   5.976   4.151 -2.7670  1.1358 -0.6600
 8949TIP3    H226812   1.762   6.000   4.009  2.1944 -1.5742  0.3422
 8950TIP3   OH226813   3.913   2.579   4.913 -0.1979  0.2339 -0.4600
 8950TIP3    H126814   3.878   2.498   4.950  0.8476 -0.4968 -1.0405
 8950TIP3    H226815   3.872   2.648   4.965 -2.0920 -0.5980 -0.7545
 8951TIP3   OH226816   1.620   2.164   4.947 -0.0522  0.3566 -0.1905
 8951TIP3    H126817   1.556   2.168   5.017 -2.2102  1.2829 -2.0867
 8951TIP3    H226818   1.568   2.158   4.867  2.2320  1.1497 -1.8538
 8952TIP3   OH226819   3.315   2.743   1.834  0.9580 -0.0335 -0.0685
 8952TIP3    H126820   3.404   2.774   1.814  0.9972  1.4067  1.9855
 8952TIP3    H226821   3.326   2.687   1.911  0.0482  0.5293  0.4831
 8953TIP3   OH226822   2.700   3.270   2.851 -0.3847 -0.4698  0.4468
 8953TIP3    H126823   2.667   3.359   2.866 -0.1059 -0.5132  1.3949
 8953TIP3    H226824   2.791   3.282   2.824 -0.5588 -0.4450 -0.1550
 8954TIP3   OH226825   3.082   5.844   5.620  0.6549  0.0884 -0.4013
 8954TIP3    H126826   3.095   5.752   5.597  1.6039  0.3601 -1.0371
 8954TIP3    H226827   3.169   5.874   5.647 -0.0914  0.1977  2.1767
 8955TIP3   OH226828   1.161   5.038   2.277  0.5076  0.2189  0.6049
 8955TIP3    H126829   1.069   5.036   2.249  0.5894  0.0781  0.3423
 8955TIP3    H226830   1.166   4.973   2.346  0.7447 -0.8848 -0.4257
 8956TIP3   OH226831   2.880   1.421   2.126 -0.5627 -0.1609  0.3206
 8956TIP3    H126832   2.787   1.427   2.101 -0.3132  0.3702 -0.5465
 8956TIP3    H226833   2.899   1.328   2.128 -0.8681 -0.2470 -0.4990
 8957TIP3   OH226834   0.318   5.644   3.563 -0.2696  0.5046  0.0170
 8957TIP3    H126835   0.355   5.669   3.648  0.9045  0.6576 -0.5268
 8957TIP3    H226836   0.240   5.700   3.554  0.6429  1.8449  0.1697
 8958TIP3   OH226837   4.605   2.006   1.536  0.4604 -0.0460  0.1473
 8958TIP3    H126838   4.678   2.043   1.586 -0.1542  0.5820  0.5921
 8958TIP3    H226839   4.647   1.959   1.464  1.3405 -0.4699  0.9163
 8959TIP3   OH226840   6.647   0.990   5.808 -0.1189  0.0306 -0.8523
 8959TIP3    H126841   6.655   1.043   5.888  2.4839 -0.8901 -0.4072
 8959TIP3    H226842   6.574   0.931   5.826  1.2274 -1.0471  1.4639
 8960TIP3   OH226843   2.942   4.581   1.024  0.2443  0.5087 -0.2197
 8960TIP3    H126844   2.851   4.552   1.021 -0.0224  1.2951  0.2620
 8960TIP3    H226845   2.993   4.499   1.019 -0.4286  0.1645 -2.4670
 8961TIP3   OH226846   5.872   0.777   2.101 -0.0561 -0.2585  0.1409
 8961TIP3    H126847   5.796   0.718   2.108  1.3825 -2.2031  0.2869
 8961TIP3    H226848   5.922   0.743   2.027  0.8757  0.7336  0.2919
 8962TIP3   OH226849   4.603   4.337   0.817  0.1373  0.4408  0.6742
 8962TIP3    H126850   4.572   4.328   0.907 -0.2733 -1.2681  0.4038
 8962TIP3    H226851   4.532   4.301   0.763  0.2735  1.6375 -0.3670
 8963TIP3   OH226852   2.022   3.770   5.752 -0.2524 -0.3442 -0.0199
 8963TIP3    H126853   2.048   3.735   5.667 -1.1927 -1.0384 -0.0481
 8963TIP3    H226854   1.935   3.807   5.737 -0.3789 -0.3732  0.6066
 8964TIP3   OH226855   1.082   5.433   4.773  0.1522 -0.0876 -0.4931
 8964TIP3    H126856   1.032   5.365   4.729 -2.0707  1.8462 -1.1990
 8964TIP3    H226857   1.066   5.512   4.721  3.2115  0.8891 -0.1490
 8965TIP3   OH226858   2.729   1.468   1.206  0.0753  0.3725 -0.4186
 8965TIP3    H126859   2.737   1.396   1.269 -0.1260  0.2850 -0.4957
 8965TIP3    H226860   2.813   1.468   1.159  1.0039  1.6323  1.1258
 8966TIP3   OH226861   1.628   3.948   1.138  0.3532 -0.3148 -0.3459
 8966TIP3    H126862   1.681   3.869   1.128  0.2753 -0.2467 -1.4183
 8966TIP3    H226863   1.594   3.942   1.227  1.8852 -0.5149  0.2600
 8967TIP3   OH226864   5.551   0.215   3.345  0.2805  0.2731 -0.2369
 8967TIP3    H126865   5.545   0.165   3.264 -0.3324 -2.2206  1.2403
 8967TIP3    H226866   5.468   0.199   3.390  0.6120  1.5519  0.9097
 8968TIP3   OH226867   4.790   0.391   4.433 -0.1632 -0.0470  0.3909
 8968TIP3    H126868   4.809   0.413   4.524  2.5513  1.2438 -0.3521
 8968TIP3    H226869   4.833   0.307   4.418  2.8425  1.4583 -0.5033
 8969TIP3   OH226870   1.389   3.303   0.746  0.0418 -0.4066 -0.1384
 8969TIP3    H126871   1.419   3.322   0.657 -2.4404  0.3052 -0.8995
 8969TIP3    H226872   1.315   3.361   0.759 -1.4267 -2.4882  1.3438
 8970TIP3   OH226873   7.127   5.072   2.569  0.5045  0.2712  0.0413
 8970TIP3    H126874   7.154   5.131   2.498  1.4886 -0.1103  0.0898
 8970TIP3    H226875   7.189   5.089   2.640 -0.4936  0.6691  0.8323
 8971TIP3   OH226876   1.021   2.795   0.565 -0.1398 -0.0745 -0.1634
 8971TIP3    H126877   0.930   2.818   0.544 -0.5485  0.5140  1.9838
 8971TIP3    H226878   1.039   2.718   0.513 -1.8400 -0.1230 -0.7484
 8972TIP3   OH226879   5.700   6.775   1.402  0.0273  0.3036 -0.0753
 8972TIP3    H126880   5.633   6.771   1.471 -0.1522 -0.8505 -0.3017
 8972TIP3    H226881   5.783   6.778   1.449 -0.0542 -1.2471  0.2198
 8973TIP3   OH226882   0.755   0.392   2.290 -0.3594  0.2147  0.6596
 8973TIP3    H126883   0.846   0.364   2.286  0.1608  1.9527 -0.3893
 8973TIP3    H226884   0.705   0.312   2.272  0.9339 -0.7385  1.1598
 8974TIP3   OH226885   6.845   2.526   3.877 -0.4845 -0.2662  0.2373
 8974TIP3    H126886   6.849   2.507   3.971 -0.3226  2.1156  0.7530
 8974TIP3    H226887   6.930   2.496   3.844 -1.2407 -2.9170  0.3955
 8975TIP3   OH226888   2.018   2.292   2.269  0.1670 -1.0627  0.1294
 8975TIP3    H126889   2.087   2.230   2.246  0.6540 -0.4626 -0.0345
 8975TIP3    H226890   2.015   2.353   2.196 -0.5107 -1.0505  0.1570
 8976TIP3   OH226891   2.933   1.989   5.169 -0.0087 -0.5528  0.3945
 8976TIP3    H126892   2.890   2.071   5.191 -0.4276 -0.6791  0.0422
 8976TIP3    H226893   2.864   1.923   5.171  0.2925 -0.8738  0.5135
 8977TIP3   OH226894   5.578   6.480   0.251  0.7062 -0.3634 -0.2940
 8977TIP3    H126895   5.628   6.463   0.331  0.8739 -1.6795 -0.6543
 8977TIP3    H226896   5.537   6.566   0.266 -1.0542 -1.4928  2.1824
 8978TIP3   OH226897   4.864   2.505   0.648 -0.0498 -0.6713 -0.3119
 8978TIP3    H126898   4.889   2.565   0.577  1.1914 -0.6118  0.1423
 8978TIP3    H226899   4.791   2.454   0.612 -0.4486  0.3999 -1.0733
 8979TIP3   OH226900   2.222   4.144   2.643 -0.3848 -0.0472  0.0168
 8979TIP3    H126901   2.128   4.162   2.640 -0.3683  0.0922  0.3173
 8979TIP3    H226902   2.249   4.170   2.731 -0.1060 -0.2950  0.0067
 8980TIP3   OH226903   1.672   4.611   0.093  0.8085  0.0868 -0.4089
 8980TIP3    H126904   1.649   4.647   0.007 -0.0330 -1.4539 -0.8670
 8980TIP3    H226905   1.622   4.664   0.155  1.2500  1.0708 -0.8658
 8981TIP3   OH226906   5.706   2.982   0.322 -0.1943  0.4181 -0.5914
 8981TIP3    H126907   5.687   2.893   0.291  2.6385 -0.0966 -1.0996
 8981TIP3    H226908   5.706   3.036   0.243  0.2158  0.4500 -0.5705
 8982TIP3   OH226909   4.503   4.135   3.733 -0.9597 -0.3072 -0.0782
 8982TIP3    H126910   4.531   4.128   3.824 -0.9526 -1.0671 -0.1389
 8982TIP3    H226911   4.459   4.221   3.728  0.1987  0.3298  0.3192
 8983TIP3   OH226912   2.989   0.575   3.547 -0.2799  0.0034 -0.1285
 8983TIP3    H126913   3.062   0.623   3.506 -0.4891  2.1702  1.8028
 8983TIP3    H226914   3.022   0.486   3.557  1.1114  0.2878 -1.5991
 8984TIP3   OH226915   6.770   4.797   4.014 -0.3635  0.2187  0.7962
 8984TIP3    H126916   6.730   4.792   3.927  2.0389  0.0338 -0.3878
 8984TIP3    H226917   6.701   4.833   4.070 -2.1074  0.0051 -1.0836
 8985TIP3   OH226918   5.772   4.599   4.935  0.0567  0.2735  0.3565
 8985TIP3    H126919   5.753   4.546   5.013 -0.5557 -0.0894 -0.0289
 8985TIP3    H226920   5.688   4.637   4.911  0.4657  1.3360  0.5490
 8986TIP3   OH226921   4.212   6.721   2.227 -0.2886 -0.3567  0.4837
 8986TIP3    H126922   4.268   6.715   2.304  1.3274 -1.0416 -0.6860
 8986TIP3    H226923   4.240   6.802   2.183  0.0716 -0.8955 -0.3063
 8987TIP3   OH226924   2.164   0.037   1.077 -0.7512  0.1273 -0.1441
 8987TIP3    H126925   2.152   0.121   1.121 -0.9174  0.1999 -0.3281
 8987TIP3    H226926   2.177  -0.026   1.148  2.1867  0.7223 -0.0171
 8988TIP3   OH226927   0.600   2.554   2.808 -0.3398 -0.1040  0.2833
 8988TIP3    H126928   0.584   2.464   2.781 -0.3511  0.0625 -0.2818
 8988TIP3    H226929   0.520   2.601   2.784 -0.4180  0.0173  0.7695
 8989TIP3   OH226930   1.410   6.749   5.410 -0.2071  0.0478 -0.6221
 8989TIP3    H126931   1.474   6.787   5.350  0.2576  0.6912  0.2650
 8989TIP3    H226932   1.442   6.771   5.497 -2.3249  1.5502 -0.1466
 8990TIP3   OH226933   3.639   1.238   4.437  0.2028  0.0127 -0.3892
 8990TIP3    H126934   3.697   1.288   4.494 -0.2817  0.0422  0.0948
 8990TIP3    H226935   3.647   1.279   4.351 -1.2497  1.8521  0.2884
 8991TIP3   OH226936   1.355   5.863   4.660 -0.4168 -0.3325  0.3995
 8991TIP3    H126937   1.301   5.884   4.736  1.8372  0.7129  1.8353
 8991TIP3    H226938   1.346   5.769   4.648 -0.0646 -0.6861  2.6182
 8992TIP3   OH226939   5.723   1.080   2.424 -0.0908  0.9968 -0.0452
 8992TIP3    H126940   5.813   1.057   2.448  0.0602  1.7437  0.1494
 8992TIP3    H226941   5.710   1.040   2.339  0.2335  0.4080  0.1772
 8993TIP3   OH226942   3.460   5.497   4.827 -0.0753  0.1816  0.0521
 8993TIP3    H126943   3.546   5.526   4.798 -0.0904  0.0450 -0.1303
 8993TIP3    H226944   3.414   5.474   4.746  0.6799 -2.4897  0.3138
 8994TIP3   OH226945   3.397   4.166   2.516 -0.1186 -0.0195  0.4967
 8994TIP3    H126946   3.308   4.166   2.480 -0.1291  1.4549  0.4211
 8994TIP3    H226947   3.442   4.096   2.469 -1.3147 -0.9850  0.7562
 8995TIP3   OH226948   1.858   2.828   5.418  0.2629 -0.2805  0.1017
 8995TIP3    H126949   1.940   2.852   5.461 -0.3819 -0.6234  1.6186
 8995TIP3    H226950   1.830   2.908   5.374  1.3329 -0.1213 -0.3240
 8996TIP3   OH226951   1.062   2.363   4.077 -0.1508  0.0035  0.4277
 8996TIP3    H126952   1.139   2.310   4.056  0.6347  0.8425  1.1598
 8996TIP3    H226953   1.038   2.337   4.166 -2.0344 -1.7976 -0.5105
 8997TIP3   OH226954   2.190   2.083   5.693  0.1252  0.2882 -0.2001
 8997TIP3    H126955   2.138   2.096   5.613  0.1372 -0.4467 -0.3390
 8997TIP3    H226956   2.131   2.036   5.752  0.5719 -0.4185 -0.3038
 8998TIP3   OH226957   1.613   4.405   1.687  0.5213 -0.3730  0.3344
 8998TIP3    H126958   1.685   4.369   1.636  1.0778 -1.5151  1.8666
 8998TIP3    H226959   1.536   4.353   1.663  0.4904 -0.0497 -0.2811
 8999TIP3   OH226960   3.744   2.960   3.476  0.3057  0.1493 -0.2278
 8999TIP3    H126961   3.787   2.879   3.506 -0.4886 -0.7264 -1.3719
 8999TIP3    H226962   3.811   3.006   3.426 -0.0696 -1.2811 -2.1360
 9000TIP3   OH226963   5.095   1.172   0.276  0.5619 -0.2715 -0.6258
 9000TIP3    H126964   5.160   1.199   0.211 -0.5189  0.7001 -1.3565
 9000TIP3    H226965   5.035   1.247   0.282  0.5063 -0.4185  1.3601
 9001TIP3   OH226966   1.026   5.724   4.223  0.5506 -0.2248 -0.3778
 9001TIP3    H126967   1.050   5.817   4.218  1.0205 -0.3690 -1.0555
 9001TIP3    H226968   1.005   5.701   4.132 -0.1211 -0.6400 -0.1200
 9002TIP3   OH226969   6.605   6.508   1.932  0.0151  0.1926 -0.0467
 9002TIP3    H126970   6.576   6.510   2.023  0.0375  2.3404 -0.0353
 9002TIP3    H226971   6.695   6.474   1.937 -0.9201 -2.5263  0.3410
 9003TIP3   OH226972   5.042   4.023   1.157 -0.0558 -0.1357 -0.1426
 9003TIP3    H126973   5.088   4.097   1.198  0.2327  0.0664 -0.8191
 9003TIP3    H226974   4.989   4.063   1.088 -0.3265 -0.5024 -0.1508
 9004TIP3   OH226975   6.795   2.099   3.996  0.1476 -0.5235  0.0600
 9004TIP3    H126976   6.712   2.051   4.001 -0.2310  0.0414 -0.6016
 9004TIP3    H226977   6.806   2.139   4.082  0.2041 -1.3559  0.4517
 9005TIP3   OH226978   6.461   5.130   1.316  0.4200 -0.3979 -0.4326
 9005TIP3    H126979   6.470   5.128   1.220  1.9673  0.9040 -0.3457
 9005TIP3    H226980   6.409   5.208   1.334 -2.8744 -2.4204 -0.3152
 9006TIP3   OH226981   3.271   1.711   5.081 -0.4701 -0.0836 -0.1846
 9006TIP3    H126982   3.311   1.722   4.995 -0.9646 -0.0077 -0.4052
 9006TIP3    H226983   3.216   1.634   5.073 -1.0101  0.2894 -0.1243
 9007TIP3   OH226984   4.804   5.196   5.261 -0.3813 -0.2017 -0.1505
 9007TIP3    H126985   4.843   5.203   5.348 -0.5738 -0.2193 -0.0634
 9007TIP3    H226986   4.844   5.267   5.211  0.3582 -0.6955 -0.2881
 9008TIP3   OH226987   1.109   1.785   0.251 -0.1143  0.1041 -0.2279
 9008TIP3    H126988   1.065   1.867   0.229  1.0932  0.7246 -0.4036
 9008TIP3    H226989   1.192   1.812   0.291 -0.3589 -1.0177  1.1540
 9009TIP3   OH226990   0.942   2.194   4.860  0.1701 -0.7085  0.0284
 9009TIP3    H126991   1.031   2.193   4.896  0.6306 -1.7692 -1.0565
 9009TIP3    H226992   0.886   2.214   4.935  1.1599 -1.9187  1.1418
 9010TIP3   OH226993   7.067   0.669   1.757  0.2282  0.3007 -0.1285
 9010TIP3    H126994   7.048   0.659   1.850 -0.0420 -1.3068 -0.3359
 9010TIP3    H226995   7.116   0.751   1.752 -0.7631  1.0263  1.2730
 9011TIP3   OH226996   4.690   2.029   2.181  0.1451 -0.0392 -0.0005
 9011TIP3    H126997   4.677   2.123   2.192  1.5296  0.0200  1.5011
 9011TIP3    H226998   4.775   2.021   2.138 -0.0816 -0.6065 -0.3629
 9012TIP3   OH226999   4.632   6.258   1.698  0.1315 -0.6435  0.1525
 9012TIP3    H127000   4.614   6.205   1.775  0.8432  0.1769  0.9059
 9012TIP3    H227001   4.701   6.318   1.725  0.1248 -0.0736 -1.0078
 9013TIP3   OH227002   3.631   6.259   2.409 -0.2693  0.1619  0.2497
 9013TIP3    H127003   3.540   6.248   2.384  0.0836 -0.3856 -0.8911
 9013TIP3    H227004   3.634   6.342   2.457 -1.2334  0.5782 -0.3889
 9014TIP3   OH227005   4.602   6.319   4.701  0.1963 -0.3679 -0.1326
 9014TIP3    H127006   4.539   6.385   4.672  1.6049  1.1675  0.1272
 9014TIP3    H227007   4.630   6.349   4.787  1.3380 -0.9595 -0.2766
 9015TIP3   OH227008   2.908   1.224   0.939 -0.8705 -0.0693  0.1035
 9015TIP3    H127009   2.908   1.129   0.953 -2.9379 -0.0486  0.5681
 9015TIP3    H227010   2.816   1.249   0.945 -0.1249  2.5762  4.1307
 9016TIP3   OH227011   5.438   6.167   3.875  0.0372 -0.1225 -0.0015
 9016TIP3    H127012   5.427   6.087   3.824  0.2520  0.9229 -1.7769
 9016TIP3    H227013   5.503   6.145   3.942 -0.7794 -1.7385  0.2776
 9017TIP3   OH227014   3.675   3.386   3.615  0.1671  0.7707 -0.5309
 9017TIP3    H127015   3.694   3.311   3.671  0.4663  2.3613  1.6035
 9017TIP3    H227016   3.726   3.370   3.535 -0.6194 -1.7715 -0.5925
 9018TIP3   OH227017   0.973   5.215   4.608 -0.6060  0.2091  0.0575
 9018TIP3    H127018   1.027   5.226   4.529 -0.1310 -0.3957  0.2907
 9018TIP3    H227019   0.896   5.270   4.592 -1.3964 -1.2998 -1.6309
 9019TIP3   OH227020   6.650   1.953   0.847 -0.5850  0.4159  0.2826
 9019TIP3    H127021   6.632   1.875   0.795 -0.0691  0.8578 -0.5690
 9019TIP3    H227022   6.745   1.964   0.843 -0.7156  1.4639 -0.1556
 9020TIP3   OH227023   6.325   3.062   3.897 -0.0269 -0.3055  0.2446
 9020TIP3    H127024   6.372   3.116   3.960 -0.7616  1.1911 -0.4320
 9020TIP3    H227025   6.393   3.010   3.854  0.4670 -1.4403  2.2939
 9021TIP3   OH227026   3.706   4.821   0.281  0.0663  0.9571 -0.4198
 9021TIP3    H127027   3.732   4.800   0.191 -0.8455  2.8875 -1.1909
 9021TIP3    H227028   3.671   4.739   0.315 -2.8754  0.9285 -3.0478
 9022TIP3   OH227029   3.087   5.549   3.868 -0.7132  0.4621  0.2255
 9022TIP3    H127030   3.008   5.580   3.912 -0.8546 -0.2665  0.5083
 9022TIP3    H227031   3.155   5.611   3.892 -1.4424  1.7520 -0.9402
 9023TIP3   OH227032   4.227   1.679   2.292 -0.0166 -0.1330 -0.6654
 9023TIP3    H127033   4.249   1.691   2.199  0.6658  0.8564 -0.3863
 9023TIP3    H227034   4.265   1.755   2.336 -0.8892 -0.2594  0.3482
 9024TIP3   OH227035   3.111   4.237   0.722 -0.1435 -0.2305  0.5522
 9024TIP3    H127036   3.045   4.299   0.690  0.8807 -0.5111 -2.4198
 9024TIP3    H227037   3.136   4.187   0.644  3.1708 -0.5362  1.6703
 9025TIP3   OH227038   3.268   2.213   5.278 -0.1400  0.3169  0.3639
 9025TIP3    H127039   3.262   2.129   5.232 -0.1285  0.1919  0.5889
 9025TIP3    H227040   3.331   2.264   5.226  0.4352 -0.0915  0.6488
 9026TIP3   OH227041   6.521   0.114   4.913  0.1271  0.4742 -0.2616
 9026TIP3    H127042   6.484   0.056   4.847  0.6997 -0.2449  0.0424
 9026TIP3    H227043   6.572   0.178   4.864 -0.1817  0.4837 -0.5712
 9027TIP3   OH227044   2.498   3.553   5.707 -0.2917 -0.5296  0.5531
 9027TIP3    H127045   2.489   3.635   5.755  0.3256 -1.0175  1.5258
 9027TIP3    H227046   2.408   3.524   5.692 -0.5041  0.0865  0.6154
 9028TIP3   OH227047   4.190   2.031   4.517 -0.0544 -0.6463  0.4681
 9028TIP3    H127048   4.264   1.980   4.484  1.2811 -0.4143  2.8770
 9028TIP3    H227049   4.224   2.120   4.527 -1.3593 -0.0020 -0.4894
 9029TIP3   OH227050   0.258   4.524   5.278 -0.3801 -0.2093 -0.0539
 9029TIP3    H127051   0.177   4.503   5.231 -0.0349 -1.5945 -0.0543
 9029TIP3    H227052   0.266   4.456   5.344 -0.3891  1.2122  1.4836
 9030TIP3   OH227053   1.961   5.981   2.247 -0.2250  0.4976  0.5381
 9030TIP3    H127054   1.967   5.917   2.176 -1.6690  0.3814  0.4978
 9030TIP3    H227055   2.052   6.003   2.267  0.2078  0.5403 -1.3405
 9031TIP3   OH227056   1.604   1.884   0.609 -0.8996  0.0219  0.3948
 9031TIP3    H127057   1.522   1.933   0.621 -1.3678 -0.8108  0.6652
 9031TIP3    H227058   1.665   1.924   0.671  0.0349  3.0295 -2.2334
 9032TIP3   OH227059   0.404   6.470   4.800 -0.2896  0.1290 -0.1417
 9032TIP3    H127060   0.436   6.554   4.833 -0.1469 -0.0445  0.1574
 9032TIP3    H227061   0.361   6.429   4.874 -2.2018  0.8290 -0.7944
 9033TIP3   OH227062   0.799   6.404   1.273 -0.2252  0.2275  0.1371
 9033TIP3    H127063   0.840   6.488   1.294 -0.6299 -0.1001  2.5991
 9033TIP3    H227064   0.859   6.339   1.310  0.2794 -0.6445 -2.0675
 9034TIP3   OH227065   1.441   4.667   4.730 -0.1285 -0.4265 -0.4065
 9034TIP3    H127066   1.494   4.695   4.805 -0.4046 -0.5542 -0.1590
 9034TIP3    H227067   1.479   4.583   4.704 -1.4257 -1.5272  1.0409
 9035TIP3   OH227068   5.429   2.961   3.628 -0.0662 -0.3730  0.1365
 9035TIP3    H127069   5.392   3.012   3.556 -0.6207 -2.1035 -0.8608
 9035TIP3    H227070   5.353   2.940   3.683  0.0717 -0.5631  0.2533
 9036TIP3   OH227071   2.268   6.759   4.091 -0.6655  0.2514 -0.1982
 9036TIP3    H127072   2.246   6.739   4.182  0.1459  1.1049  0.1924
 9036TIP3    H227073   2.297   6.850   4.092  0.2759 -0.0127 -1.1502
 9037TIP3   OH227074   0.497   0.460   1.587 -0.7371  0.4285  0.2601
 9037TIP3    H127075   0.439   0.456   1.663 -0.4750  0.4238  0.4658
 9037TIP3    H227076   0.454   0.521   1.527 -1.1812  0.0661  0.2069
 9038TIP3   OH227077   2.488   2.031   5.365 -0.3150  0.2893  0.3392
 9038TIP3    H127078   2.435   2.102   5.330 -0.2793  1.1444  1.9287
 9038TIP3    H227079   2.562   2.074   5.407  1.9001 -0.8733 -2.0393
 9039TIP3   OH227080   0.169   1.448   2.837 -0.2979  0.3108  0.2057
 9039TIP3    H127081   0.170   1.523   2.897  0.2787 -0.5330  1.2914
 9039TIP3    H227082   0.078   1.418   2.838 -0.3857  0.5734  0.3177
 9040TIP3   OH227083   5.337   2.715   1.208 -0.0956  0.0331 -0.2955
 9040TIP3    H127084   5.302   2.766   1.134 -2.4792  0.4475  1.0046
 9040TIP3    H227085   5.337   2.625   1.177  1.0174  0.4080 -1.4951
 9041TIP3   OH227086   2.426   3.242   3.614 -0.2066  0.4431  0.1380
 9041TIP3    H127087   2.505   3.243   3.561  0.8612 -1.3981  1.5632
 9041TIP3    H227088   2.367   3.303   3.571  1.8056  1.5151 -1.2402
 9042TIP3   OH227089   0.241   6.068   5.001 -0.0222 -0.4988 -0.1875
 9042TIP3    H127090   0.313   6.121   4.969 -0.9015  1.6492  1.1723
 9042TIP3    H227091   0.177   6.069   4.930  0.7964 -1.5444 -0.9798
 9043TIP3   OH227092   4.765   2.890   2.793  0.1997 -1.1154  0.4619
 9043TIP3    H127093   4.732   2.973   2.758  1.6359  0.0301  1.7027
 9043TIP3    H227094   4.846   2.874   2.744  2.4232  0.6854  3.2502
 9044TIP3   OH227095   1.236   5.273   5.740  0.2580  0.4468 -0.2880
 9044TIP3    H127096   1.255   5.295   5.649 -2.3203  0.5976 -0.8562
 9044TIP3    H227097   1.212   5.181   5.739 -0.1474  0.5404  0.1804
 9045TIP3   OH227098   4.140   3.557   5.112 -0.2697 -0.0961  0.1007
 9045TIP3    H127099   4.106   3.542   5.201  0.0193  1.1562  0.4331
 9045TIP3    H227100   4.062   3.575   5.060 -0.3817 -0.1806  0.2363
 9046TIP3   OH227101   4.165   4.588   1.360 -0.1277 -0.1902  0.4871
 9046TIP3    H127102   4.169   4.495   1.336 -0.5829 -0.3878  1.1449
 9046TIP3    H227103   4.107   4.627   1.296  1.0115 -0.1069 -0.5361
 9047TIP3   OH227104   5.140   5.145   4.126  0.3344  0.1937  0.6807
 9047TIP3    H127105   5.102   5.229   4.151 -0.6962  0.9768 -2.9197
 9047TIP3    H227106   5.064   5.089   4.110  0.8783 -0.3613 -0.0662
 9048TIP3   OH227107   7.212   1.455   1.160 -0.1551  0.1836 -0.5696
 9048TIP3    H127108   7.196   1.386   1.225 -0.0116 -0.7645 -1.5081
 9048TIP3    H227109   7.168   1.532   1.195 -0.3578 -0.3943  0.4904
 9049TIP3   OH227110   1.937   6.259   1.367 -0.2791  0.0230 -0.7357
 9049TIP3    H127111   2.026   6.227   1.359  0.3032  0.4000  2.6217
 9049TIP3    H227112   1.935   6.338   1.313  2.0996  1.1328  0.6535
 9050TIP3   OH227113   2.167   5.633   2.260  0.0554  0.3063  0.2454
 9050TIP3    H127114   2.254   5.656   2.293  0.6734 -0.9350 -0.4462
 9050TIP3    H227115   2.108   5.658   2.331  1.2176 -1.1324  1.7950
 9051TIP3   OH227116   5.028   1.863   5.818 -0.0131 -0.6152  0.2436
 9051TIP3    H127117   5.034   1.938   5.758  1.6265 -0.4892  0.4997
 9051TIP3    H227118   4.956   1.811   5.785  0.0481  0.0980 -1.0976
 9052TIP3   OH227119   5.020   0.624   3.477 -0.1692  0.0404 -0.0715
 9052TIP3    H127120   4.933   0.594   3.503 -0.6493  0.1021 -1.5251
 9052TIP3    H227121   5.074   0.545   3.477 -0.1228  0.0474  1.1180
 9053TIP3   OH227122   0.611   1.358   3.100 -0.3265 -0.3030 -0.6975
 9053TIP3    H127123   0.599   1.393   3.189  0.7662  1.8305 -1.3200
 9053TIP3    H227124   0.696   1.316   3.102 -0.6599 -0.9856 -0.5430
 9054TIP3   OH227125   1.799   0.913   0.222 -0.6098 -0.2655  0.0110
 9054TIP3    H127126   1.713   0.910   0.180 -0.1950 -0.2452 -0.8691
 9054TIP3    H227127   1.787   0.866   0.304 -0.9122 -2.4237 -1.1709
 9055TIP3   OH227128   2.532   4.190   3.424  0.2449 -0.1576  0.0220
 9055TIP3    H127129   2.592   4.126   3.464 -0.6382 -1.7628 -1.0815
 9055TIP3    H227130   2.503   4.147   3.343 -2.7367  0.3327  0.7183
 9056TIP3   OH227131   1.997   5.523   2.062  0.3757  0.7123  0.3645
 9056TIP3    H127132   2.051   5.510   1.985  0.2564  1.7970  0.0806
 9056TIP3    H227133   2.045   5.588   2.115  0.0193  0.6581  0.7606
 9057TIP3   OH227134   4.771   2.947   1.476 -0.0465 -0.5297  0.2663
 9057TIP3    H127135   4.741   2.903   1.396 -0.7252  0.4244 -0.0132
 9057TIP3    H227136   4.866   2.944   1.470 -0.0784 -1.4135 -0.0419
 9058TIP3   OH227137   0.473   3.618   5.466  0.5899  0.2423  0.1400
 9058TIP3    H127138   0.408   3.548   5.453  0.7597  0.0401  0.3615
 9058TIP3    H227139   0.505   3.637   5.378 -1.2343  1.7902 -0.2650
 9059TIP3   OH227140   1.503   4.873   2.417  0.6576  0.1113 -0.4899
 9059TIP3    H127141   1.507   4.919   2.501  1.6222 -0.7078 -0.0631
 9059TIP3    H227142   1.581   4.902   2.370  0.4568  0.0784 -0.8409
 9060TIP3   OH227143   6.608   5.660   1.901 -0.1970 -0.1653  0.5581
 9060TIP3    H127144   6.561   5.631   1.978 -0.0742 -0.1728  0.6301
 9060TIP3    H227145   6.540   5.682   1.838 -0.3325  0.9005  1.0535
 9061TIP3   OH227146   4.208   5.702   4.640 -0.0439 -0.3358 -0.1881
 9061TIP3    H127147   4.160   5.758   4.579  1.1055 -0.1585 -0.9577
 9061TIP3    H227148   4.207   5.750   4.723 -1.4632 -0.4945 -0.0889
 9062TIP3   OH227149   1.620   6.495   3.289  0.2128 -0.2779 -0.5163
 9062TIP3    H127150   1.604   6.572   3.342  1.1387 -0.0794 -0.4988
 9062TIP3    H227151   1.653   6.429   3.351 -0.2773 -0.5885 -0.5799
 9063TIP3   OH227152   1.036   2.801   1.809  0.2993 -0.0241 -0.3706
 9063TIP3    H127153   0.988   2.727   1.846  1.2023 -2.0925 -3.0706
 9063TIP3    H227154   1.078   2.766   1.731  0.2546  3.5291 -2.1759
 9064TIP3   OH227155   3.700   6.640   2.815 -0.2476  0.1876 -0.0533
 9064TIP3    H127156   3.714   6.590   2.895 -0.9851 -0.5269 -0.3582
 9064TIP3    H227157   3.707   6.732   2.842  0.8075 -0.0679  0.5685
 9065TIP3   OH227158   3.990   4.502   3.584  0.2575  0.0594 -0.1817
 9065TIP3    H127159   4.015   4.584   3.541 -1.4485  1.3361  1.1220
 9065TIP3    H227160   3.982   4.525   3.677 -2.6155 -0.9401 -0.0950
 9066TIP3   OH227161   3.757   5.750   1.803  0.1880  0.3366  0.3140
 9066TIP3    H127162   3.726   5.841   1.805 -1.5421 -0.1787 -0.6939
 9066TIP3    H227163   3.710   5.707   1.874  0.9592  0.2058  0.7498
 9067TIP3   OH227164   5.953   0.605   2.866 -0.1008  0.1739 -0.0854
 9067TIP3    H127165   5.973   0.669   2.935 -1.3804  0.6849 -0.1548
 9067TIP3    H227166   6.038   0.582   2.829  0.3193  4.0499 -2.0449
 9068TIP3   OH227167   2.124   3.684   3.125  0.2548  0.5415 -0.1899
 9068TIP3    H127168   2.100   3.776   3.116 -2.2263  0.1422  1.3593
 9068TIP3    H227169   2.175   3.681   3.206  0.4018  0.5733 -0.2818
 9069TIP3   OH227170   6.761   1.214   0.182  0.2832  0.5036  0.7950
 9069TIP3    H127171   6.798   1.175   0.103 -1.2315  0.5050  0.0658
 9069TIP3    H227172   6.796   1.303   0.183  1.0322  0.2190  0.6289
 9070TIP3   OH227173   6.840   2.268   5.488  0.2661  0.3265  0.5467
 9070TIP3    H127174   6.759   2.283   5.439  0.4552  0.0039  0.1315
 9070TIP3    H227175   6.901   2.334   5.455  0.5145 -0.1434  0.0690
 9071TIP3   OH227176   4.653   3.256   2.962 -0.1158 -0.9231  0.7894
 9071TIP3    H127177   4.697   3.245   3.046 -1.3126 -0.5905  1.4824
 9071TIP3    H227178   4.639   3.350   2.954  0.1065 -0.9357  0.1363
 9072TIP3   OH227179   7.045   6.769   5.824 -0.1948 -0.2193  0.2910
 9072TIP3    H127180   7.137   6.794   5.828  0.5362 -2.2706 -1.6256
 9072TIP3    H227181   7.022   6.748   5.915  1.3199  0.0199  0.7513
 9073TIP3   OH227182   1.045   6.278   1.655  0.3266  0.0795 -0.4600
 9073TIP3    H127183   1.092   6.238   1.728  1.0881  2.8368  0.6943
 9073TIP3    H227184   1.114   6.297   1.591 -0.1900 -1.3715 -1.5017
 9074TIP3   OH227185   1.669   4.929   4.579 -0.1528  0.2251  0.2633
 9074TIP3    H127186   1.706   4.840   4.584 -0.1720  0.0645 -1.6998
 9074TIP3    H227187   1.734   4.980   4.532 -0.6119  0.9920  0.4387
 9075TIP3   OH227188   6.178   6.419   4.237  0.0378 -0.7847  0.2160
 9075TIP3    H127189   6.265   6.445   4.207  0.0671 -0.9932  0.1142
 9075TIP3    H227190   6.121   6.439   4.162 -0.0476 -0.3748  0.3905
 9076TIP3   OH227191   2.107   3.594   3.848 -0.1849  0.1944  0.8765
 9076TIP3    H127192   2.071   3.627   3.766 -1.1704  0.0923  1.2550
 9076TIP3    H227193   2.035   3.548   3.889  0.5901 -0.6533  1.3252
 9077TIP3   OH227194   3.593   5.837   5.240 -0.3323  0.3279 -0.0010
 9077TIP3    H127195   3.637   5.783   5.306 -0.5737  1.2035  0.9054
 9077TIP3    H227196   3.529   5.777   5.200 -1.2184  0.1203  1.6019
 9078TIP3   OH227197   4.965   5.105   4.509  0.4376 -0.3066  0.0617
 9078TIP3    H127198   5.027   5.176   4.492  0.2429 -0.5726 -1.9787
 9078TIP3    H227199   4.879   5.143   4.491  0.4406 -1.4656 -2.8429
 9079TIP3   OH227200   5.325   4.299   4.276  0.1499  0.0260  0.7530
 9079TIP3    H127201   5.399   4.239   4.282  0.4221  0.2493 -0.2925
 9079TIP3    H227202   5.283   4.278   4.193  0.8290  1.9377 -0.1222
 9080TIP3   OH227203   3.809   6.181   0.441 -0.2547 -0.1111 -0.0400
 9080TIP3    H127204   3.728   6.206   0.397 -0.2069  1.0190  0.4782
 9080TIP3    H227205   3.861   6.262   0.443 -0.4460  0.0204  2.4452
 9081TIP3   OH227206   2.013   3.583   1.166  0.4832 -0.1064  0.2775
 9081TIP3    H127207   2.050   3.612   1.250  1.5736 -2.1132  0.5379
 9081TIP3    H227208   2.089   3.559   1.113 -0.2948 -0.6889 -0.6016
 9082TIP3   OH227209   1.934   0.928   2.825 -0.2392  0.2476 -0.0372
 9082TIP3    H127210   1.897   1.012   2.851 -0.3192  0.2143 -0.0452
 9082TIP3    H227211   2.018   0.951   2.785 -0.3837  0.3490 -0.2896
 9083TIP3   OH227212   2.348   0.822   2.013 -0.3169  0.8465  0.2758
 9083TIP3    H127213   2.403   0.836   1.936 -2.0679  0.6685 -1.0771
 9083TIP3    H227214   2.270   0.778   1.979 -1.1958  0.8588  2.1436
 9084TIP3   OH227215   2.113   0.738   5.558 -0.7971 -0.1310 -0.7647
 9084TIP3    H127216   2.083   0.716   5.646  1.1189 -1.9029 -0.4844
 9084TIP3    H227217   2.190   0.684   5.545 -1.5181 -0.5951 -3.8780
 9085TIP3   OH227218   2.825   1.571   3.354  0.1258 -0.0037 -0.6766
 9085TIP3    H127219   2.848   1.573   3.447  0.0127  0.1254 -0.6505
 9085TIP3    H227220   2.796   1.660   3.335 -1.5107 -0.4351 -0.4026
 9086TIP3   OH227221   1.141   5.124   0.648  0.8109  0.1700 -0.2871
 9086TIP3    H127222   1.141   5.184   0.722  0.8391  0.8023 -0.7831
 9086TIP3    H227223   1.049   5.116   0.623  0.3805 -2.5422  1.7443
 9087TIP3   OH227224   3.876   3.640   5.755 -0.0766 -0.1697 -0.1201
 9087TIP3    H127225   3.855   3.546   5.761 -1.0778  0.0691  0.2539
 9087TIP3    H227226   3.900   3.653   5.663  1.1407 -0.9969  0.0574
 9088TIP3   OH227227   6.244   3.341   4.203 -0.6768  0.1187 -0.7316
 9088TIP3    H127228   6.165   3.372   4.248 -1.5330  1.0054 -2.6864
 9088TIP3    H227229   6.305   3.414   4.210  0.3606 -0.8767  1.4975
 9089TIP3   OH227230   4.983   6.280   5.391 -0.6660 -0.2093 -0.7202
 9089TIP3    H127231   4.898   6.246   5.363 -1.4427  1.6457 -0.7315
 9089TIP3    H227232   4.993   6.251   5.481 -1.9509  0.6928 -0.2721
 9090TIP3   OH227233   4.558   6.526   3.217 -0.4180 -0.5452 -0.5919
 9090TIP3    H127234   4.491   6.577   3.264 -0.4998 -1.4778  0.3560
 9090TIP3    H227235   4.618   6.497   3.286  1.3940  0.8555 -1.5164
 9091TIP3   OH227236   4.857   1.666   5.700  0.3492  0.8723 -0.0444
 9091TIP3    H127237   4.876   1.667   5.606  1.0622 -1.5440  0.0189
 9091TIP3    H227238   4.785   1.603   5.709  1.2027  0.0326  1.1544
 9092TIP3   OH227239   1.453   0.112   4.331  0.6286  0.1474 -0.5646
 9092TIP3    H127240   1.430   0.173   4.400 -0.1909 -0.3310 -0.4034
 9092TIP3    H227241   1.505   0.044   4.374 -0.2966 -0.4127 -0.3059
 9093TIP3   OH227242   1.186   0.865   4.833  0.1329 -0.0549 -0.9139
 9093TIP3    H127243   1.196   0.916   4.753  0.6623  0.9060 -0.2487
 9093TIP3    H227244   1.271   0.822   4.845 -0.0823 -0.5414 -1.0865
 9094TIP3   OH227245   0.965   5.619   2.677 -0.4925  0.1097 -0.6339
 9094TIP3    H127246   1.024   5.678   2.724 -1.2133  0.1440  0.2539
 9094TIP3    H227247   0.894   5.601   2.739 -0.1540 -1.9418 -0.7467
 9095TIP3   OH227248   0.034   3.969   0.389  0.0642 -0.3271  0.2480
 9095TIP3    H127249   0.123   4.004   0.386  0.1067 -0.3078  1.2869
 9095TIP3    H227250   0.038   3.897   0.452 -0.4806 -0.8855 -0.3284
 9096TIP3   OH227251   3.066   3.763   0.804  0.4486  0.0968  0.1497
 9096TIP3    H127252   2.972   3.771   0.824  0.3239  0.5965 -0.6178
 9096TIP3    H227253   3.099   3.704   0.872 -0.4127 -0.0589  0.4529
 9097TIP3   OH227254   6.437   5.709   0.760 -0.3968 -0.3994 -0.0426
 9097TIP3    H127255   6.428   5.795   0.801  0.0637 -0.8769  1.0936
 9097TIP3    H227256   6.418   5.725   0.667  1.3868  1.2757 -0.1883
 9098TIP3   OH227257   6.878   1.421   3.167  0.0045  0.3639 -0.2479
 9098TIP3    H127258   6.960   1.469   3.153 -1.1646  2.4328 -0.4087
 9098TIP3    H227259   6.845   1.403   3.079 -0.5633  1.0948 -0.1893
 9099TIP3   OH227260   5.297   0.212   0.181 -0.0819 -0.3856 -0.4413
 9099TIP3    H127261   5.314   0.304   0.204  1.7706 -0.1410 -2.5206
 9099TIP3    H227262   5.249   0.216   0.098 -0.8643 -1.3289 -0.0593
 9100TIP3   OH227263   1.911   0.380   5.373 -0.2983 -0.5017 -0.2055
 9100TIP3    H127264   1.951   0.367   5.459 -1.5477 -1.1826  0.2978
 9100TIP3    H227265   1.817   0.376   5.389 -0.5759  0.4562 -1.4458
 9101TIP3   OH227266   1.027   3.318   1.309 -0.4951 -0.1188  0.2372
 9101TIP3    H127267   0.972   3.251   1.268 -0.7513 -0.4293  1.0758
 9101TIP3    H227268   1.104   3.271   1.340  0.3836  0.3544 -1.1397
 9102TIP3   OH227269   7.089   3.597   1.555 -0.4639 -0.2355 -0.0625
 9102TIP3    H127270   7.174   3.600   1.511  0.7822  0.7731  2.2117
 9102TIP3    H227271   7.045   3.678   1.528 -0.4424 -0.4401 -0.7315
 9103TIP3   OH227272   2.000   4.947   0.279 -0.0727 -0.4766 -0.2880
 9103TIP3    H127273   1.951   4.945   0.196 -0.2045 -0.7531 -0.2060
 9103TIP3    H227274   1.943   4.901   0.340 -0.9272  1.4820  0.4808
 9104TIP3   OH227275   3.893   0.209   4.718  0.0412 -0.2495 -0.5329
 9104TIP3    H127276   3.979   0.253   4.719  0.5030 -1.1251  0.7963
 9104TIP3    H227277   3.842   0.255   4.786 -0.6916  0.5059 -1.5639
 9105TIP3   OH227278   3.261   3.278   3.136 -0.9016  0.9498  0.2076
 9105TIP3    H127279   3.266   3.331   3.057 -0.3808  0.4578 -0.0882
 9105TIP3    H227280   3.312   3.200   3.117 -2.3717 -0.0746  0.3213
 9106TIP3   OH227281   6.637   0.835   1.654 -0.5282  0.2603 -0.2522
 9106TIP3    H127282   6.684   0.766   1.701 -0.7605 -0.6378 -1.2838
 9106TIP3    H227283   6.659   0.916   1.700  0.6836 -0.3561  0.2861
 9107TIP3   OH227284   6.884   1.619   0.711  0.4358 -0.1214 -0.6282
 9107TIP3    H127285   6.881   1.531   0.747 -0.6987  0.7426  1.5519
 9107TIP3    H227286   6.954   1.662   0.760 -0.7232  0.9021  0.1854
 9108TIP3   OH227287   6.386   1.539   1.530  0.7902 -0.2140  0.5560
 9108TIP3    H127288   6.383   1.457   1.580 -2.4158  1.1959  3.0384
 9108TIP3    H227289   6.461   1.586   1.566  2.1989 -1.6716 -0.3607
 9109TIP3   OH227290   6.898   6.124   5.551 -0.2344 -0.4040 -0.1649
 9109TIP3    H127291   6.928   6.048   5.601  3.8732  0.9324 -0.1889
 9109TIP3    H227292   6.879   6.191   5.617  1.7451  0.2410 -0.1789
 9110TIP3   OH227293   0.888   1.598   3.425  0.3403 -0.7617 -0.2555
 9110TIP3    H127294   0.819   1.651   3.466  0.1690 -0.4852 -0.8933
 9110TIP3    H227295   0.944   1.662   3.380 -0.4879 -1.1761 -1.9668
 9111TIP3   OH227296   6.481   4.501   3.260 -0.3980  0.0307  0.1130
 9111TIP3    H127297   6.571   4.493   3.292 -0.9013  1.3880  2.1418
 9111TIP3    H227298   6.489   4.543   3.175  0.8851  1.7942  1.0313
 9112TIP3   OH227299   2.580   1.486   5.132 -0.1902 -0.3297 -0.5071
 9112TIP3    H127300   2.550   1.399   5.159 -0.6227  0.1725  0.7297
 9112TIP3    H227301   2.606   1.528   5.214  3.1095 -0.3856 -1.3865
 9113TIP3   OH227302   5.075   3.698   4.687  0.1302  0.0438  0.3207
 9113TIP3    H127303   5.045   3.673   4.774  1.3087  1.1789  1.1015
 9113TIP3    H227304   4.995   3.721   4.640 -0.7150 -2.3186  0.4573
 9114TIP3   OH227305   4.557   1.029   1.033  0.3035 -0.3574 -0.4636
 9114TIP3    H127306   4.464   1.048   1.041  0.4870  0.7578 -0.8064
 9114TIP3    H227307   4.595   1.058   1.115  0.3775 -0.6841 -0.3792
 9115TIP3   OH227308   5.423   2.099   4.912 -0.5034 -0.6530 -0.0536
 9115TIP3    H127309   5.512   2.123   4.939 -1.3002 -0.5729  2.8001
 9115TIP3    H227310   5.436   2.041   4.836  1.8327  1.1406 -1.1698
 9116TIP3   OH227311   1.696   3.900   0.460  0.1172 -0.5753 -0.0635
 9116TIP3    H127312   1.628   3.844   0.422 -0.1620  0.2692 -0.8416
 9116TIP3    H227313   1.699   3.874   0.552 -2.9016  0.9204  0.5699
 9117TIP3   OH227314   2.864   5.525   2.589 -0.0324  0.4162  0.7014
 9117TIP3    H127315   2.857   5.444   2.638  0.5420 -0.0086  0.1104
 9117TIP3    H227316   2.774   5.556   2.579 -0.0939  1.5206  3.5970
 9118TIP3   OH227317   3.584   0.318   2.868 -0.3704 -0.5668 -0.1615
 9118TIP3    H127318   3.667   0.277   2.846 -0.4991 -1.3798  0.7614
 9118TIP3    H227319   3.528   0.245   2.895 -1.5073 -0.0784 -1.0968
 9119TIP3   OH227320   5.972   2.111   0.565  0.7523  0.2280 -0.2143
 9119TIP3    H127321   5.964   2.065   0.482  2.0967 -1.2567  0.4208
 9119TIP3    H227322   5.958   2.203   0.543 -1.7303 -0.3926 -1.5858
 9120TIP3   OH227323   3.920   1.819   2.208  0.8971  0.4358 -0.0081
 9120TIP3    H127324   4.014   1.800   2.213  1.1330  1.5164 -0.2409
 9120TIP3    H227325   3.915   1.909   2.178 -0.2516 -0.1170 -1.6236
 9121TIP3   OH227326   1.297   5.194   1.975  0.1166 -0.0868 -0.2126
 9121TIP3    H127327   1.239   5.269   1.988 -1.7770 -1.4012 -0.6834
 9121TIP3    H227328   1.289   5.144   2.056 -0.2728 -0.8412 -0.7159
 9122TIP3   OH227329   3.147   5.452   0.450 -0.1480 -0.1483 -0.3664
 9122TIP3    H127330   3.114   5.456   0.361  0.9670  1.1823 -0.7660
 9122TIP3    H227331   3.236   5.487   0.444 -1.1653  3.3793  1.7322
 9123TIP3   OH227332   3.213   3.745   2.177 -0.1978 -0.1979  0.1618
 9123TIP3    H127333   3.174   3.796   2.247 -2.2651  0.3482 -1.2893
 9123TIP3    H227334   3.181   3.655   2.192 -1.6537  0.1402 -0.6939
 9124TIP3   OH227335   2.752   5.401   3.482  0.0442 -0.0576  0.1685
 9124TIP3    H127336   2.735   5.474   3.422  1.1997 -0.2080 -0.3575
 9124TIP3    H227337   2.804   5.440   3.553 -1.7802  0.2507  1.4295
 9125TIP3   OH227338   0.421   6.360   1.887 -0.0999 -0.3394 -0.2877
 9125TIP3    H127339   0.446   6.294   1.952 -0.6960  1.3401  1.7936
 9125TIP3    H227340   0.447   6.322   1.803  1.4959 -2.2921  0.9703
 9126TIP3   OH227341   2.488   6.636   0.725  0.1898 -0.6320 -0.4512
 9126TIP3    H127342   2.419   6.572   0.707  0.5436 -0.6955 -1.6140
 9126TIP3    H227343   2.569   6.594   0.693  0.6561 -0.2387  0.1871
 9127TIP3   OH227344   2.240   6.408   2.835 -0.0713  0.2566 -0.0736
 9127TIP3    H127345   2.263   6.458   2.757 -1.5961  0.0362 -0.7119
 9127TIP3    H227346   2.147   6.427   2.849  0.3955  1.0439  2.2818
 9128TIP3   OH227347   7.183   4.052   0.733  0.3840  0.5410 -0.0728
 9128TIP3    H127348   7.139   4.084   0.654 -0.4999  1.5199  0.7934
 9128TIP3    H227349   7.121   3.991   0.773  0.1373  1.2740  0.6991
 9129TIP3   OH227350   6.475   6.550   2.165  0.8345 -0.2488  0.0228
 9129TIP3    H127351   6.419   6.473   2.155  1.9270 -1.0392 -0.2070
 9129TIP3    H227352   6.516   6.539   2.251  1.8980 -0.5620 -0.5033
 9130TIP3   OH227353   5.255   5.044   3.413  0.2770 -0.5259 -0.4444
 9130TIP3    H127354   5.257   5.010   3.324 -0.3175  0.0592 -0.6843
 9130TIP3    H227355   5.301   5.128   3.409 -2.1085  0.8460 -0.8070
 9131TIP3   OH227356   6.734   4.519   4.178  0.1060 -0.1438  0.0346
 9131TIP3    H127357   6.638   4.528   4.181  0.0601 -0.7434  0.5717
 9131TIP3    H227358   6.748   4.442   4.122  0.2834  0.0378 -0.1725
 9132TIP3   OH227359   1.303   5.776   5.396  0.1561 -0.1723  0.6795
 9132TIP3    H127360   1.208   5.773   5.386  0.2934 -0.6345 -0.8226
 9132TIP3    H227361   1.319   5.849   5.456 -1.1985 -1.0623  2.1899
 9133TIP3   OH227362   4.380   4.201   2.507  0.4571  0.3437 -0.1671
 9133TIP3    H127363   4.410   4.128   2.561  0.2421 -0.4043 -1.0320
 9133TIP3    H227364   4.461   4.242   2.476  0.6445 -0.9383 -1.5181
 9134TIP3   OH227365   6.518   2.052   0.122  0.0381  0.0597 -0.0360
 9134TIP3    H127366   6.431   2.038   0.159  0.6086  0.3210  1.4822
 9134TIP3    H227367   6.569   1.976   0.149  0.3388  0.0002 -0.7460
 9135TIP3   OH227368   6.362   6.436   4.684  0.2474  0.9314 -0.0697
 9135TIP3    H127369   6.317   6.509   4.727  2.0098  2.2336 -0.3421
 9135TIP3    H227370   6.452   6.442   4.715  0.7888 -0.1421 -1.3728
 9136TIP3   OH227371   1.403   2.193   4.750 -0.1502  0.3412 -0.3397
 9136TIP3    H127372   1.325   2.246   4.766  1.4973  2.6291  0.7055
 9136TIP3    H227373   1.451   2.240   4.682  0.6200 -0.6897 -0.5401
 9137TIP3   OH227374   0.136   5.618   1.163  0.5475  0.7776 -0.0781
 9137TIP3    H127375   0.094   5.550   1.109  2.2009  0.5096 -1.0949
 9137TIP3    H227376   0.067   5.645   1.224 -0.1909 -1.8127  0.3912
 9138TIP3   OH227377   1.065   2.262   1.826 -0.3758  0.2738  0.2426
 9138TIP3    H127378   1.113   2.180   1.824 -0.2260  0.3743 -0.2870
 9138TIP3    H227379   1.042   2.274   1.918  1.9646  0.9997  0.7998
 9139TIP3   OH227380   1.661   6.253   1.345 -0.0874  0.1631 -0.5451
 9139TIP3    H127381   1.755   6.246   1.363 -0.4195 -2.6168  0.5567
 9139TIP3    H227382   1.634   6.332   1.392  1.5118  0.4149  0.0242
 9140TIP3   OH227383   5.641   2.000   2.945 -0.5713  0.3976  0.1777
 9140TIP3    H127384   5.717   2.018   3.000 -0.7838 -0.4191  0.7565
 9140TIP3    H227385   5.676   1.953   2.869 -0.3145  1.2878 -0.2697
 9141TIP3   OH227386   4.334   4.798   5.405  0.2423 -0.0689  0.1557
 9141TIP3    H127387   4.406   4.839   5.452 -0.7980  0.9585  0.9195
 9141TIP3    H227388   4.350   4.818   5.313  0.5134  0.8321  0.3970
 9142TIP3   OH227389   5.016   2.925   0.318 -0.0180 -0.5536 -0.2680
 9142TIP3    H127390   5.063   2.926   0.235 -0.7151 -2.4339 -0.7193
 9142TIP3    H227391   5.081   2.953   0.383  1.2816 -1.5586 -1.0882
 9143TIP3   OH227392   4.971   0.149   0.218 -0.2147 -0.2343  0.2937
 9143TIP3    H127393   5.019   0.191   0.146 -0.8985  1.8899  1.0011
 9143TIP3    H227394   4.890   0.201   0.226 -0.1689 -0.4236  2.5725
 9144TIP3   OH227395   3.955   2.029   4.361 -0.4061 -0.7453  0.1300
 9144TIP3    H127396   3.961   2.125   4.363 -1.2118 -0.6938  0.4805
 9144TIP3    H227397   4.014   2.000   4.430 -0.9629 -0.4460  0.7435
 9145TIP3   OH227398   2.663   1.200   2.007  0.1657 -0.6433 -0.0179
 9145TIP3    H127399   2.687   1.153   1.927  1.2955 -2.7001  1.4186
 9145TIP3    H227400   2.674   1.135   2.076  0.9988  1.5592  2.0345
 9146TIP3   OH227401   3.193   3.911   4.315  0.0895 -0.2074 -0.0083
 9146TIP3    H127402   3.114   3.859   4.325 -0.1581 -0.0217 -0.8901
 9146TIP3    H227403   3.258   3.850   4.280 -0.5062  0.2704 -2.0970
 9147TIP3   OH227404   3.094   1.092   4.856  0.4433 -0.2253  0.1273
 9147TIP3    H127405   3.125   1.140   4.933  0.0302 -0.2634  0.3221
 9147TIP3    H227406   3.023   1.145   4.822  1.9145  0.8252 -1.4294
 9148TIP3   OH227407   1.160   5.532   1.452 -0.6166  0.2618 -0.3154
 9148TIP3    H127408   1.079   5.515   1.403 -0.1380 -0.3420 -0.9072
 9148TIP3    H227409   1.130   5.551   1.541 -1.5590  2.1794 -0.9948
 9149TIP3   OH227410   3.651   0.710   4.351  0.4319 -0.0884 -0.3886
 9149TIP3    H127411   3.654   0.724   4.257 -0.2879  1.7353 -0.1678
 9149TIP3    H227412   3.560   0.724   4.375  0.8290  0.6719  0.7546
 9150TIP3   OH227413   5.864   6.293   3.758  0.3350  0.4526  0.1674
 9150TIP3    H127414   5.875   6.380   3.797  0.9008 -0.0277  1.1228
 9150TIP3    H227415   5.897   6.233   3.825 -0.5311 -0.5347 -0.2598
 9151TIP3   OH227416   1.570   4.457   4.369 -0.5137 -0.5877 -0.1760
 9151TIP3    H127417   1.568   4.411   4.285  0.3832  0.3307 -0.7242
 9151TIP3    H227418   1.533   4.543   4.350 -0.6671 -0.5079  0.4612
 9152TIP3   OH227419   0.084   2.470   0.290 -0.1207  0.2459 -0.2696
 9152TIP3    H127420   0.071   2.533   0.220 -0.2497  0.8398  0.2826
 9152TIP3    H227421   0.019   2.402   0.273  1.8588 -1.2390 -2.4947
 9153TIP3   OH227422   2.533   5.606   4.033  0.2647 -0.7069 -0.7086
 9153TIP3    H127423   2.568   5.669   3.970  0.4316  0.2344  0.3085
 9153TIP3    H227424   2.438   5.618   4.029  0.3589  0.9703  0.8070
 9154TIP3   OH227425   3.596   2.980   2.068  0.7898 -0.2257 -0.2759
 9154TIP3    H127426   3.569   2.917   2.002  0.1154 -0.6263  0.3652
 9154TIP3    H227427   3.595   3.064   2.022  1.0663 -0.5898 -0.9646
 9155TIP3   OH227428   2.831   1.935   5.654 -0.6800 -0.3832  0.0352
 9155TIP3    H127429   2.813   1.861   5.711 -1.5835 -0.7433 -0.6882
 9155TIP3    H227430   2.848   2.008   5.713 -2.1350 -0.6173  0.7861
 9156TIP3   OH227431   5.386   3.612   0.425  0.6404 -0.6027 -0.0736
 9156TIP3    H127432   5.408   3.663   0.502  1.0851  0.1639 -0.6947
 9156TIP3    H227433   5.462   3.555   0.411  0.3419 -1.1140  0.3444
 9157TIP3   OH227434   3.814   6.060   1.145 -0.5068  0.1482 -0.4815
 9157TIP3    H127435   3.803   5.997   1.074 -1.2770  0.7517 -0.9216
 9157TIP3    H227436   3.740   6.120   1.134  0.6657  1.6231 -0.5925
 9158TIP3   OH227437   3.341   1.423   5.244 -0.1777  0.3083 -0.0584
 9158TIP3    H127438   3.395   1.461   5.314  0.5691 -0.8651  0.0353
 9158TIP3    H227439   3.380   1.456   5.163 -0.0802  0.4410  0.0417
 9159TIP3   OH227440   1.331   5.575   2.961 -0.1846 -0.0431  0.0575
 9159TIP3    H127441   1.397   5.547   2.898 -0.8635 -0.3882 -0.5105
 9159TIP3    H227442   1.275   5.498   2.974  0.1763 -0.1157  1.4076
 9160TIP3   OH227443   0.339   4.529   4.979  0.3725  0.4742  0.2547
 9160TIP3    H127444   0.344   4.568   5.067  1.9760 -1.1129  0.9341
 9160TIP3    H227445   0.400   4.581   4.927  0.5234  0.5204  0.4718
 9161TIP3   OH227446   4.641   4.531   4.295  0.5635 -0.8655 -0.7432
 9161TIP3    H127447   4.692   4.453   4.317  1.2039 -0.0491  0.8697
 9161TIP3    H227448   4.560   4.522   4.346  0.0507 -1.1067 -1.5924
 9162TIP3   OH227449   4.103   4.010   0.880  0.0759 -0.3207 -0.2112
 9162TIP3    H127450   4.163   3.948   0.920 -0.8079 -0.6352  0.6883
 9162TIP3    H227451   4.098   3.984   0.788  0.3882 -1.0349 -0.0299
 9163TIP3   OH227452   4.876   4.624   2.452 -0.3050  0.0917  0.4444
 9163TIP3    H127453   4.887   4.556   2.386  0.6238  0.0085  0.6670
 9163TIP3    H227454   4.962   4.666   2.457 -0.5504  0.5271  1.1282
 9164TIP3   OH227455   0.056   6.319   4.196  0.5251  0.3391 -0.5592
 9164TIP3    H127456   0.009   6.246   4.237 -0.3570  1.7258  1.0595
 9164TIP3    H227457   0.109   6.279   4.128 -1.0653 -1.6184 -0.7313
 9165TIP3   OH227458   2.286   3.614   2.904 -0.6805  0.3904  0.1400
 9165TIP3    H127459   2.266   3.627   2.996  4.5914  0.3537  1.6151
 9165TIP3    H227460   2.289   3.703   2.868 -0.6668  0.5795  0.5981
 9166TIP3   OH227461   4.857   2.884   4.749  0.1077  0.1769  0.7314
 9166TIP3    H127462   4.838   2.800   4.707  0.5144 -0.1192  1.1261
 9166TIP3    H227463   4.860   2.864   4.843 -2.6151  1.1500  1.1289
 9167TIP3   OH227464   5.364   5.277   3.355 -0.7450  0.4668  0.3915
 9167TIP3    H127465   5.417   5.344   3.398  0.7794 -0.2403 -0.2978
 9167TIP3    H227466   5.419   5.245   3.283 -2.5366  0.4508 -1.0598
 9168TIP3   OH227467   3.715   6.516   1.248  0.4525 -0.5693 -0.4502
 9168TIP3    H127468   3.802   6.543   1.278 -0.1629  0.9195  0.0872
 9168TIP3    H227469   3.695   6.438   1.298  0.2736  0.7488  1.6337
 9169TIP3   OH227470   1.587   1.832   2.636  0.4584  0.6158 -0.3568
 9169TIP3    H127471   1.580   1.790   2.551 -0.0291 -2.7328  1.1954
 9169TIP3    H227472   1.506   1.881   2.646 -2.0921 -3.2610  0.1655
 9170TIP3   OH227473   1.296   0.834   3.333  0.0404 -0.3696 -0.3560
 9170TIP3    H127474   1.219   0.889   3.325  0.2383 -0.1395 -0.6694
 9170TIP3    H227475   1.262   0.744   3.328 -0.4841 -0.3421  1.7431
 9171TIP3   OH227476   2.307   5.475   1.564  0.0582  0.7070  0.2997
 9171TIP3    H127477   2.288   5.568   1.553 -0.6678  0.3948 -1.5764
 9171TIP3    H227478   2.377   5.472   1.628 -1.1542  2.4246  1.8135
 9172TIP3   OH227479   3.978   6.492   4.590 -0.4191 -0.1712 -0.6589
 9172TIP3    H127480   3.899   6.445   4.563 -0.8199  0.3879 -0.4921
 9172TIP3    H227481   4.049   6.451   4.541 -0.8926 -0.3044 -1.2401
 9173TIP3   OH227482   1.253   2.165   4.071  0.4713  0.2549 -0.6928
 9173TIP3    H127483   1.284   2.153   4.161  1.1161  0.7103 -0.8454
 9173TIP3    H227484   1.300   2.099   4.020 -0.5082 -0.5530 -0.5761
 9174TIP3   OH227485   1.954   1.442   2.341 -0.1584 -0.4305 -0.2193
 9174TIP3    H127486   2.015   1.369   2.343  0.1969 -0.1707 -1.1203
 9174TIP3    H227487   1.907   1.432   2.259 -1.0634 -0.4043  0.2859
 9175TIP3   OH227488   6.435   6.471   4.143 -0.1074 -0.2472 -0.0253
 9175TIP3    H127489   6.453   6.554   4.098 -0.9227 -0.0193  0.0542
 9175TIP3    H227490   6.483   6.478   4.225 -0.9466  0.5725  0.4176
 9176TIP3   OH227491   4.671   4.540   2.204 -0.2931 -0.2046 -0.2062
 9176TIP3    H127492   4.666   4.445   2.208  1.0043 -0.2506  1.0323
 9176TIP3    H227493   4.581   4.570   2.219 -0.8071 -1.2183 -1.1238
 9177TIP3   OH227494   0.839   0.972   2.919  0.7103  0.0803  1.1786
 9177TIP3    H127495   0.781   0.986   2.995 -1.0997 -2.6761  0.4436
 9177TIP3    H227496   0.909   0.917   2.953  0.2488 -0.6174  1.0124
 9178TIP3   OH227497   4.266   1.707   5.715 -0.3095  0.2582  0.0862
 9178TIP3    H127498   4.286   1.746   5.800 -2.2795  1.3787  0.1149
 9178TIP3    H227499   4.288   1.776   5.652  0.8569 -0.4558 -0.3087
 9179TIP3   OH227500   1.693   3.549   0.764 -0.9871 -0.2835  0.2308
 9179TIP3    H127501   1.628   3.526   0.830 -0.5928  1.0008  1.1172
 9179TIP3    H227502   1.643   3.592   0.695 -1.3309 -1.1339 -0.0581
 9180TIP3   OH227503   2.302   4.636   2.033 -0.2638  0.4043  0.4991
 9180TIP3    H127504   2.351   4.631   1.951 -0.2419  0.1910  0.5234
 9180TIP3    H227505   2.233   4.699   2.016 -0.5610 -0.0101  0.1544
 9181TIP3   OH227506   6.117   2.665   4.783  0.4380 -0.1492 -0.6024
 9181TIP3    H127507   6.189   2.702   4.732  0.6631 -2.7500 -2.3441
 9181TIP3    H227508   6.060   2.624   4.718 -2.3150  1.1961  0.7892
 9182TIP3   OH227509   6.880   1.546   3.807 -0.2202 -0.0488 -0.1944
 9182TIP3    H127510   6.930   1.530   3.887 -2.2565  1.5166  1.5056
 9182TIP3    H227511   6.843   1.461   3.784 -0.1748 -0.3920  0.9519
 9183TIP3   OH227512   4.249   0.616   5.664  0.3648 -0.0869  0.1678
 9183TIP3    H127513   4.287   0.703   5.650 -0.1039  0.3134  1.2671
 9183TIP3    H227514   4.292   0.561   5.599  0.1356  1.1067 -1.0389
 9184TIP3   OH227515   0.856   5.848   2.313 -0.0488 -0.3964  0.5282
 9184TIP3    H127516   0.872   5.937   2.281  0.5550 -0.2795  1.1164
 9184TIP3    H227517   0.822   5.861   2.402 -1.3401 -0.7192  0.0951
 9185TIP3   OH227518   5.301   0.345   2.480  0.0002  0.0281  0.8147
 9185TIP3    H127519   5.351   0.402   2.537  0.5132 -0.6819  1.0876
 9185TIP3    H227520   5.284   0.267   2.532 -2.1823  0.5865  1.0442
 9186TIP3   OH227521   2.739   0.843   3.533  0.8755 -0.4597  0.7835
 9186TIP3    H127522   2.651   0.832   3.496  0.1698  0.1410  2.1964
 9186TIP3    H227523   2.797   0.806   3.467 -0.2936  0.6844 -0.9594
 9187TIP3   OH227524   1.068   3.374   4.658 -0.0375 -0.2224 -0.5220
 9187TIP3    H127525   0.986   3.423   4.649  0.0762 -0.1381 -1.1495
 9187TIP3    H227526   1.100   3.397   4.746 -0.0186  0.7859 -0.7719
 9188TIP3   OH227527   5.915   1.738   2.889 -0.1218  0.2577  0.0993
 9188TIP3    H127528   5.902   1.699   2.803  0.0387 -1.3281  0.7611
 9188TIP3    H227529   5.984   1.803   2.876 -0.4370  0.3903 -1.0496
 9189TIP3   OH227530   5.209   2.673   5.685 -0.4294 -0.1345 -0.0322
 9189TIP3    H127531   5.294   2.643   5.717 -0.7183 -0.3599  0.5511
 9189TIP3    H227532   5.183   2.740   5.749 -0.4639  0.2826 -0.4846
 9190TIP3   OH227533   5.792   2.552   0.671  0.2265  0.1726  0.2278
 9190TIP3    H127534   5.849   2.496   0.620 -0.2286  0.3173 -0.4645
 9190TIP3    H227535   5.716   2.497   0.692  0.5274  0.0334  0.9898
 9191TIP3   OH227536   3.550   1.376   1.585 -0.5429 -0.1826 -0.0152
 9191TIP3    H127537   3.573   1.360   1.493 -1.9788 -1.5095 -0.1948
 9191TIP3    H227538   3.520   1.290   1.616 -0.5506  0.3713  1.5531
 9192TIP3   OH227539   6.202   5.580   0.492 -0.1488  0.0257  0.2104
 9192TIP3    H127540   6.161   5.543   0.414  0.3905  1.0100 -0.5582
 9192TIP3    H227541   6.134   5.637   0.529  0.6919  2.3285 -1.5369
 9193TIP3   OH227542   5.831   2.402   4.147  0.7236  0.5506 -0.2845
 9193TIP3    H127543   5.791   2.354   4.075  0.5533 -0.7070  0.6205
 9193TIP3    H227544   5.861   2.484   4.107  0.5547 -0.0666 -1.7579
 9194TIP3   OH227545   6.986   2.396   1.485 -0.4209 -0.1844 -0.2019
 9194TIP3    H127546   7.061   2.360   1.437  1.2444  1.2826  1.1156
 9194TIP3    H227547   6.909   2.364   1.439  1.0007 -2.3720 -1.2009
 9195TIP3   OH227548   0.741   5.076   4.642  0.4858 -0.0348  0.3914
 9195TIP3    H127549   0.715   5.156   4.597 -0.5091 -0.7188 -0.2979
 9195TIP3    H227550   0.830   5.059   4.612  0.4266  0.4085 -0.0460
 9196TIP3   OH227551   3.963   4.147   0.207  0.2962 -0.1652  0.5529
 9196TIP3    H127552   3.989   4.172   0.296  2.2278  2.1425 -0.5501
 9196TIP3    H227553   3.911   4.221   0.176  1.9337  0.3555 -1.1155
 9197TIP3   OH227554   4.566   4.004   5.339  0.9046 -0.2219 -0.2148
 9197TIP3    H127555   4.519   4.079   5.376  0.4634 -0.4390 -0.3310
 9197TIP3    H227556   4.502   3.933   5.340  0.9480 -0.2902 -1.1831
 9198TIP3   OH227557   6.010   2.254   0.222  0.2489  0.0450  0.7767
 9198TIP3    H127558   6.083   2.310   0.248 -0.4854  1.2019  0.4218
 9198TIP3    H227559   5.967   2.301   0.151 -0.0457 -1.2664  0.0508
 9199TIP3   OH227560   3.705   5.016   2.130 -0.2304  0.8969  0.5671
 9199TIP3    H127561   3.732   5.023   2.222  0.2388 -0.7855  0.5886
 9199TIP3    H227562   3.788   5.011   2.082 -0.4764 -0.4167  0.2619
 9200TIP3   OH227563   5.998   5.919   2.953  0.2259 -0.0867  0.3140
 9200TIP3    H127564   6.021   5.885   3.039 -2.2260 -0.2418  0.9755
 9200TIP3    H227565   5.912   5.958   2.965  0.1743  0.6084 -1.9111
 9201TIP3   OH227566   5.589   3.207   1.896  0.2299 -0.4067 -0.1934
 9201TIP3    H127567   5.627   3.190   1.810 -0.5500  0.4858 -0.7433
 9201TIP3    H227568   5.494   3.202   1.882  0.0988 -0.6829  0.7135
 9202TIP3   OH227569   0.702   6.591   0.572 -0.3917  0.3562  0.7906
 9202TIP3    H127570   0.620   6.632   0.599  0.0831  1.0716  1.1800
 9202TIP3    H227571   0.753   6.584   0.652  0.3899  1.0182  0.3668
 9203TIP3   OH227572   4.547   0.517   0.489 -0.1547  0.1328  0.1373
 9203TIP3    H127573   4.551   0.543   0.581 -1.6815  0.4485  0.1478
 9203TIP3    H227574   4.518   0.426   0.490 -0.0612  0.1000 -0.0223
 9204TIP3   OH227575   0.382   2.914   0.606 -0.0037 -0.5313  0.1869
 9204TIP3    H127576   0.416   2.861   0.534  1.1390 -0.8455  0.9327
 9204TIP3    H227577   0.360   2.851   0.674 -0.5658 -0.1912  0.3286
 9205TIP3   OH227578   5.297   5.122   1.729  0.6070 -0.1695 -0.0926
 9205TIP3    H127579   5.274   5.030   1.735  1.7496 -0.4782 -0.1508
 9205TIP3    H227580   5.390   5.122   1.707  0.5001  0.9940 -0.6260
 9206TIP3   OH227581   2.904   4.646   2.788  0.2647 -0.3405  0.9032
 9206TIP3    H127582   2.971   4.612   2.728  1.2325 -1.9550  2.8061
 9206TIP3    H227583   2.953   4.701   2.849 -0.1315 -1.4112  2.2209
 9207TIP3   OH227584   2.381   2.679   1.239 -0.0245 -0.0537  0.2739
 9207TIP3    H127585   2.378   2.769   1.272  0.5736  0.2223 -0.4041
 9207TIP3    H227586   2.289   2.656   1.223 -0.0457  1.2766 -1.7521
 9208TIP3   OH227587   3.285   3.894   3.467 -0.0588  0.1063 -0.0304
 9208TIP3    H127588   3.214   3.892   3.404  1.2787  0.3936 -1.6100
 9208TIP3    H227589   3.284   3.806   3.507 -1.1976  0.0756 -0.1082
 9209TIP3   OH227590   6.254   0.601   5.654  0.5073  0.4072  0.2765
 9209TIP3    H127591   6.308   0.680   5.656  0.0732  0.7476 -0.7257
 9209TIP3    H227592   6.220   0.598   5.565  0.1808 -0.6890  0.4291
 9210TIP3   OH227593   2.864   0.825   2.903 -0.4308 -0.0553  0.0296
 9210TIP3    H127594   2.846   0.742   2.948 -1.5434 -1.4680 -2.7801
 9210TIP3    H227595   2.782   0.845   2.858  0.9642  0.5816 -2.3534
 9211TIP3   OH227596   3.740   5.553   0.352  0.6664  0.4042  0.1382
 9211TIP3    H127597   3.723   5.606   0.274 -0.9661  0.7237  0.6602
 9211TIP3    H227598   3.803   5.488   0.323  0.1323  0.5390 -1.4595
 9212TIP3   OH227599   2.054   0.623   2.797  0.0782 -0.5886 -0.0012
 9212TIP3    H127600   2.075   0.704   2.842  2.4501  0.3377 -2.4819
 9212TIP3    H227601   1.962   0.632   2.772 -0.0641  0.7111  0.9141
 9213TIP3   OH227602   0.188   6.413   2.034  0.0816  0.0748 -0.0027
 9213TIP3    H127603   0.250   6.398   1.962 -1.0445  0.6400 -1.1373
 9213TIP3    H227604   0.243   6.415   2.112  1.7330  1.9896 -1.0987
 9214TIP3   OH227605   4.754   6.235   2.753 -0.0039  0.3370  0.5631
 9214TIP3    H127606   4.842   6.202   2.773  0.2989  1.0153  0.3493
 9214TIP3    H227607   4.757   6.327   2.776 -0.3972  0.5623 -0.2734
 9215TIP3   OH227608   2.712   5.820   2.986 -0.3040 -1.4264 -0.3928
 9215TIP3    H127609   2.757   5.769   2.918 -0.1641  0.3065 -1.6582
 9215TIP3    H227610   2.625   5.837   2.949 -0.4561 -1.0053  0.1470
 9216TIP3   OH227611   5.083   0.662   1.711 -1.3971 -0.2224 -0.2244
 9216TIP3    H127612   5.038   0.638   1.791 -2.4200 -1.7407 -1.2010
 9216TIP3    H227613   5.141   0.588   1.692  1.0245  1.3555  0.5870
 9217TIP3   OH227614   0.674   5.110   3.958 -0.4942 -0.2092  0.0102
 9217TIP3    H127615   0.693   5.048   3.888 -0.7269 -0.4959  0.1973
 9217TIP3    H227616   0.741   5.091   4.025  0.0792  0.4418 -0.3635
 9218TIP3   OH227617   1.556   1.654   3.991  0.4201  0.0477  0.2234
 9218TIP3    H127618   1.645   1.689   3.997  0.6354 -0.6013  0.8451
 9218TIP3    H227619   1.544   1.603   4.071 -0.4803  0.0516  0.1015
 9219TIP3   OH227620   3.554   2.586   4.940  0.2213 -0.4993  0.3849
 9219TIP3    H127621   3.568   2.529   4.864 -0.9987  0.4338 -0.5863
 9219TIP3    H227622   3.626   2.650   4.935  1.3084 -1.6180  1.1996
 9220TIP3   OH227623   2.562   1.474   2.845  0.2673  0.0555 -0.1433
 9220TIP3    H127624   2.612   1.498   2.767  0.4590  1.4274  0.3705
 9220TIP3    H227625   2.613   1.405   2.887  0.9467  0.3833 -0.4278
 9221TIP3   OH227626   7.085   0.946   1.235 -0.2653 -0.8553 -0.1670
 9221TIP3    H127627   7.015   0.992   1.189  0.5335 -0.0406 -0.5941
 9221TIP3    H227628   7.053   0.937   1.325 -0.5288  0.3538 -0.1266
 9222TIP3   OH227629   6.636   0.526   5.539 -0.4566 -0.2287  0.1473
 9222TIP3    H127630   6.668   0.483   5.459  0.6527  0.8889 -0.0482
 9222TIP3    H227631   6.542   0.511   5.538 -0.1774 -2.3599 -0.0603
 9223TIP3   OH227632   1.489   5.316   1.831  0.0244  0.0984  0.2054
 9223TIP3    H127633   1.420   5.264   1.871 -0.0793  0.6788  0.8050
 9223TIP3    H227634   1.450   5.350   1.751 -0.6911  1.1240  0.9694
 9224TIP3   OH227635   6.144   1.543   1.427 -0.2575 -1.1004 -0.4073
 9224TIP3    H127636   6.175   1.516   1.340  0.3125  0.3104 -0.6720
 9224TIP3    H227637   6.225   1.564   1.475 -0.6571 -0.2014 -0.1166
 9225TIP3   OH227638   0.277   0.083   1.028 -0.2764 -0.0938  0.2963
 9225TIP3    H127639   0.235   0.001   1.052 -1.5872 -0.0284 -1.5570
 9225TIP3    H227640   0.354   0.056   0.978 -1.2047 -0.2437 -1.1082
 9226TIP3   OH227641   4.545   6.679   5.734 -0.3061  0.1420 -0.0021
 9226TIP3    H127642   4.542   6.645   5.644 -0.3665  1.7616 -0.6460
 9226TIP3    H227643   4.454   6.700   5.754 -0.0830  1.4660 -0.2693
 9227TIP3   OH227644   6.060   2.370   0.735 -0.2830  0.0397 -0.1815
 9227TIP3    H127645   6.148   2.367   0.699  0.1457  2.6159  0.4223
 9227TIP3    H227646   6.002   2.375   0.659  0.3121  0.9425 -0.5976
 9228TIP3   OH227647   1.729   5.727   2.091 -0.4561  0.4121  0.0357
 9228TIP3    H127648   1.711   5.713   2.184  0.2147  2.2595  0.4925
 9228TIP3    H227649   1.735   5.639   2.054 -2.8288 -0.3495  1.2959
 9229TIP3   OH227650   1.021   2.085   2.658  0.0435  0.1810  0.1998
 9229TIP3    H127651   0.960   2.093   2.731  1.0992  0.6712  1.0655
 9229TIP3    H227652   1.105   2.117   2.693  0.6930 -0.0390 -1.0780
 9230TIP3   OH227653   6.374   6.546   5.683  0.6860  0.2271 -0.0376
 9230TIP3    H127654   6.434   6.508   5.747 -1.0123 -2.9162 -0.1045
 9230TIP3    H227655   6.421   6.542   5.600  1.6592  1.1741  0.4502
 9231TIP3   OH227656   3.041   4.030   4.107  0.5777 -0.0144  0.0762
 9231TIP3    H127657   3.123   4.040   4.156  1.3177  1.5237 -1.3570
 9231TIP3    H227658   3.044   3.942   4.071  0.8278 -0.5406  1.3624
 9232TIP3   OH227659   4.046   2.021   2.497  1.1404  0.8642  0.0362
 9232TIP3    H127660   4.082   2.042   2.583  0.5493  1.4055  0.1511
 9232TIP3    H227661   3.978   2.086   2.482  2.0093  1.4980 -1.3406
 9233TIP3   OH227662   2.985   6.210   1.392  0.6656  0.3076  0.0067
 9233TIP3    H127663   3.075   6.196   1.365  0.9882  0.3379  1.0354
 9233TIP3    H227664   2.965   6.299   1.362  1.5494  0.9542  1.2465
 9234TIP3   OH227665   3.608   6.649   3.378 -0.1124 -0.3569 -0.8027
 9234TIP3    H127666   3.551   6.590   3.427  0.7864  0.0446  0.7964
 9234TIP3    H227667   3.573   6.737   3.395  1.4155 -0.0273  0.8947
 9235TIP3   OH227668   4.124   3.517   2.978  1.0929 -0.4176 -0.0679
 9235TIP3    H127669   4.089   3.430   2.996  0.9461 -0.4868 -0.6552
 9235TIP3    H227670   4.145   3.553   3.064 -0.3950 -0.3806  0.3008
 9236TIP3   OH227671   2.312   1.051   0.255  0.2875  0.2908 -0.3421
 9236TIP3    H127672   2.369   1.032   0.329  0.9220  0.8430 -0.6777
 9236TIP3    H227673   2.245   1.110   0.290  0.3147  0.1793 -0.1022
 9237TIP3   OH227674   2.941   0.543   5.641 -0.0133 -0.3322 -0.4180
 9237TIP3    H127675   2.940   0.594   5.722  0.4811 -1.5928  0.4153
 9237TIP3    H227676   3.004   0.587   5.585  0.6854 -0.2318  0.4310
 9238TIP3   OH227677   0.378   6.185   4.270  0.0103 -0.2294  0.2192
 9238TIP3    H127678   0.451   6.244   4.289 -1.8088  1.6749  1.9867
 9238TIP3    H227679   0.396   6.107   4.322  0.4595  0.5281  1.2435
 9239TIP3   OH227680   5.767   0.991   5.284  0.1326 -0.0792 -0.0443
 9239TIP3    H127681   5.741   1.008   5.374 -2.6250 -0.6884 -0.6272
 9239TIP3    H227682   5.686   0.966   5.240  1.4192 -0.0053 -2.6640
 9240TIP3   OH227683   5.461   5.535   0.516  0.3784 -0.5423 -0.0598
 9240TIP3    H127684   5.556   5.522   0.518  0.2402 -1.9690 -1.0609
 9240TIP3    H227685   5.426   5.460   0.565 -0.2359 -0.0791  0.2160
 9241TIP3   OH227686   1.789   2.331   2.011  0.1032 -0.0379 -0.0172
 9241TIP3    H127687   1.878   2.364   2.017  0.7538 -1.7490  0.3667
 9241TIP3    H227688   1.734   2.409   2.012  1.4957  0.9792  1.6044
 9242TIP3   OH227689   5.974   3.675   4.637 -0.4840 -0.0832 -0.2810
 9242TIP3    H127690   5.977   3.770   4.628 -2.3201  0.1580  1.0157
 9242TIP3    H227691   6.015   3.658   4.722  0.0799 -0.5009 -0.6272
 9243TIP3   OH227692   2.126   1.710   2.068  0.5093  0.2021  0.2517
 9243TIP3    H127693   2.090   1.739   2.152  0.9263 -0.9064  0.8284
 9243TIP3    H227694   2.052   1.711   2.008 -0.3412 -1.3440  1.2354
 9244TIP3   OH227695   1.049   3.830   1.153  0.3973 -0.3566  0.2509
 9244TIP3    H127696   1.135   3.820   1.112  0.7765  0.0689  0.9246
 9244TIP3    H227697   1.023   3.920   1.132  0.1203 -0.4797  0.0619
 9245TIP3   OH227698   3.658   4.930   3.706 -0.5726  0.2880 -0.3794
 9245TIP3    H127699   3.641   5.014   3.750  1.8017  0.5876  0.1315
 9245TIP3    H227700   3.753   4.929   3.695 -0.7681 -1.3614 -2.4088
 9246TIP3   OH227701   1.540   6.373   0.142  0.6949  0.0842 -0.2229
 9246TIP3    H127702   1.485   6.318   0.085 -0.3391  0.2595  0.5825
 9246TIP3    H227703   1.609   6.405   0.084 -0.1596  0.0092 -1.3213
 9247TIP3   OH227704   3.229   5.287   1.872  0.1602 -0.2834 -0.4556
 9247TIP3    H127705   3.233   5.376   1.906 -1.2323 -0.1811 -0.5143
 9247TIP3    H227706   3.277   5.291   1.789  0.7479  0.2244 -0.1017
 9248TIP3   OH227707   5.794   4.311   0.757 -0.0570 -0.0413 -0.0874
 9248TIP3    H127708   5.734   4.262   0.813  0.2208  0.8689  1.0524
 9248TIP3    H227709   5.874   4.319   0.808 -0.4166  2.4002  0.2056
 9249TIP3   OH227710   1.809   1.841   1.483 -0.2076 -0.2770 -0.5219
 9249TIP3    H127711   1.806   1.847   1.388  0.8739 -0.8336 -0.6016
 9249TIP3    H227712   1.763   1.759   1.504 -0.6461 -0.0410 -0.5347
 9250TIP3   OH227713   0.436   6.807   3.682  0.2979  0.1022  0.4775
 9250TIP3    H127714   0.481   6.723   3.673  0.9480  0.4421  0.4806
 9250TIP3    H227715   0.357   6.798   3.629  1.8739  0.5520 -2.0972
 9251TIP3   OH227716   0.501   3.219   2.419 -0.4492 -0.4087 -0.0590
 9251TIP3    H127717   0.526   3.136   2.460  0.3743  0.5699  1.5115
 9251TIP3    H227718   0.571   3.237   2.357 -1.3407 -1.5492 -1.4490
 9252TIP3   OH227719   6.893   3.386   2.218  0.2301 -0.1017  0.3069
 9252TIP3    H127720   6.891   3.295   2.187  0.5906 -0.3399  0.9679
 9252TIP3    H227721   6.922   3.380   2.309  0.2056  0.6749  0.3728
 9253TIP3   OH227722   4.464   3.982   0.276 -0.2761 -0.5318  0.3900
 9253TIP3    H127723   4.369   3.973   0.273 -0.2939 -0.3937  0.4810
 9253TIP3    H227724   4.498   3.893   0.273 -0.4756 -0.7508  2.6613
 9254TIP3   OH227725   1.485   3.607   2.662 -0.3888 -0.3379 -0.4548
 9254TIP3    H127726   1.560   3.564   2.703 -0.6973 -0.7754 -0.3423
 9254TIP3    H227727   1.437   3.537   2.618 -1.6599 -0.3663  0.8930
 9255TIP3   OH227728   4.448   5.162   2.731  0.4116 -0.0310  0.6609
 9255TIP3    H127729   4.436   5.157   2.636  0.3616 -0.3069  0.6813
 9255TIP3    H227730   4.510   5.092   2.750 -0.5669 -0.8301  0.9982
 9256TIP3   OH227731   0.379   6.515   0.337 -0.3897 -0.2613 -0.4693
 9256TIP3    H127732   0.383   6.519   0.432 -0.1993  1.4077 -0.5239
 9256TIP3    H227733   0.446   6.451   0.312 -0.0099 -0.2349  0.4702
 9257TIP3   OH227734   4.429   2.768   3.540  0.1447  0.0741 -0.2810
 9257TIP3    H127735   4.367   2.714   3.490  0.2393  0.0007 -0.3190
 9257TIP3    H227736   4.388   2.854   3.543  0.5429  0.3098 -1.2451
 9258TIP3   OH227737   4.364   1.040   1.361  0.4273  0.2200 -0.3567
 9258TIP3    H127738   4.379   1.067   1.451 -0.7318 -0.3537  0.0321
 9258TIP3    H227739   4.327   1.117   1.317  0.3952  0.3110 -0.1676
 9259TIP3   OH227740   2.190   0.543   3.739 -0.0305 -0.3955  0.0750
 9259TIP3    H127741   2.270   0.594   3.750  1.1171 -2.0058 -0.5086
 9259TIP3    H227742   2.149   0.544   3.826 -0.7267  2.5059 -0.1819
 9260TIP3   OH227743   6.038   1.385   4.546  0.1681 -0.2336  0.9814
 9260TIP3    H127744   6.103   1.430   4.493 -0.3479 -0.4294  0.1638
 9260TIP3    H227745   6.080   1.372   4.631  1.4921 -1.0798  0.2148
 9261TIP3   OH227746   6.610   1.502   0.806  0.2469  0.2097 -0.5613
 9261TIP3    H127747   6.555   1.570   0.846 -1.1937 -0.4580 -1.3704
 9261TIP3    H227748   6.680   1.551   0.763  0.1597  1.0829  0.2478
 9262TIP3   OH227749   2.480   1.358   1.758 -0.0941  0.2636  0.0942
 9262TIP3    H127750   2.408   1.316   1.806  0.2024  0.1345  0.4317
 9262TIP3    H227751   2.509   1.429   1.816 -0.4734  0.8254 -0.3941
 9263TIP3   OH227752   2.252   0.254   3.119  0.4807  0.0819 -0.0452
 9263TIP3    H127753   2.316   0.325   3.124  2.0227 -1.0891 -1.8996
 9263TIP3    H227754   2.290   0.182   3.169  0.1985 -0.3368 -0.4229
 9264TIP3   OH227755   6.381   5.378   0.428 -0.5224  0.3281 -0.5002
 9264TIP3    H127756   6.323   5.439   0.474 -0.6010 -0.4988  0.5317
 9264TIP3    H227757   6.341   5.292   0.439  0.3129 -0.1101 -0.7294
 9265TIP3   OH227758   7.112   2.963   3.511 -0.0162 -0.1187  0.0975
 9265TIP3    H127759   7.146   2.915   3.435  2.5236  1.3717  0.1893
 9265TIP3    H227760   7.112   3.055   3.484 -3.8426  0.0850  0.2621
 9266TIP3   OH227761   6.179   0.880   3.251  0.1211 -0.3472 -0.5704
 9266TIP3    H127762   6.203   0.923   3.333  0.1417  0.8093 -1.1577
 9266TIP3    H227763   6.211   0.940   3.183 -2.4351  0.1760 -1.4045
 9267TIP3   OH227764   5.539   4.569   0.247 -0.8673 -0.2466  0.4049
 9267TIP3    H127765   5.622   4.607   0.217 -0.3596  0.1308  2.1458
 9267TIP3    H227766   5.472   4.616   0.198 -0.1137  0.5636  0.1171
 9268TIP3   OH227767   1.376   6.020   0.263 -0.4941  0.0808  0.0854
 9268TIP3    H127768   1.364   5.926   0.268 -0.0886  0.0631  0.7134
 9268TIP3    H227769   1.287   6.056   0.270 -0.5686 -0.2169  0.6528
 9269TIP3   OH227770   3.563   1.619   2.700  0.0436 -0.4144  0.0737
 9269TIP3    H127771   3.653   1.613   2.669  0.5179 -0.0714  1.3098
 9269TIP3    H227772   3.516   1.553   2.650  0.7985 -0.0352 -1.1908
 9270TIP3   OH227773   2.442   6.587   3.961 -0.1224 -0.2898 -0.4982
 9270TIP3    H127774   2.362   6.635   3.987 -1.0187 -2.9436  2.3494
 9270TIP3    H227775   2.512   6.630   4.010 -0.3272  0.1967 -0.6261
 9271TIP3   OH227776   4.617   6.484   4.158 -0.1465 -0.5621 -0.0680
 9271TIP3    H127777   4.672   6.426   4.104  1.6372  0.4279  0.6176
 9271TIP3    H227778   4.668   6.498   4.237 -2.1502 -0.9133  1.3531
 9272TIP3   OH227779   3.203   6.772   0.198  0.1304 -0.1633 -0.3637
 9272TIP3    H127780   3.159   6.687   0.195  0.1593 -0.2178  0.6245
 9272TIP3    H227781   3.184   6.812   0.113 -0.0510 -1.0718 -0.7547
 9273TIP3   OH227782   5.285   2.818   0.900 -0.2928  0.2266  1.0153
 9273TIP3    H127783   5.298   2.911   0.916  0.1921  0.7433 -1.9435
 9273TIP3    H227784   5.372   2.779   0.908 -0.2416  0.2800  0.6969
 9274TIP3   OH227785   2.865   4.895   3.096 -0.3113 -0.4639 -0.3846
 9274TIP3    H127786   2.809   4.824   3.128 -0.0180  0.1633  1.6756
 9274TIP3    H227787   2.951   4.855   3.086  0.1062 -0.2356  1.8041
 9275TIP3   OH227788   5.261   2.477   1.046  0.2187  0.1683  0.4553
 9275TIP3    H127789   5.168   2.497   1.054 -0.0850 -1.6126  2.3817
 9275TIP3    H227790   5.266   2.413   0.975 -0.3419 -1.1242  1.5273
 9276TIP3   OH227791   0.950   1.533   5.458 -0.1984  0.0850  0.6360
 9276TIP3    H127792   0.973   1.622   5.431 -0.1336 -0.2688 -0.5325
 9276TIP3    H227793   0.899   1.545   5.538 -2.7199  1.3730 -1.0511
 9277TIP3   OH227794   5.816   0.755   1.558 -0.1473 -0.1379 -0.3838
 9277TIP3    H127795   5.799   0.805   1.637 -0.3522 -1.3851  0.3801
 9277TIP3    H227796   5.870   0.681   1.587  2.2668  0.8858 -1.8783
 9278TIP3   OH227797   7.101   4.683   1.162 -0.6317  0.3660  0.1052
 9278TIP3    H127798   7.109   4.772   1.198 -0.9058  0.9353 -1.2045
 9278TIP3    H227799   7.109   4.626   1.239 -0.1534  1.5038  0.9315
 9279TIP3   OH227800   6.747   4.101   1.139  0.5674  0.2551  0.4728
 9279TIP3    H127801   6.757   4.194   1.157 -0.1520  0.1273  1.6342
 9279TIP3    H227802   6.822   4.060   1.181 -0.4976  0.0739  2.2787
 9280TIP3   OH227803   2.557   2.028   3.313  0.5786 -0.2320 -0.4557
 9280TIP3    H127804   2.516   1.980   3.385  0.3925 -0.0460 -0.4382
 9280TIP3    H227805   2.548   2.120   3.336  0.9943 -0.1875 -0.4597
 9281TIP3   OH227806   1.059   1.979   0.599 -0.2665  0.4310 -0.1808
 9281TIP3    H127807   0.968   1.964   0.572  0.3779 -0.7933 -1.7520
 9281TIP3    H227808   1.070   2.074   0.593 -0.6721  0.3859 -2.6685
 9282TIP3   OH227809   3.255   6.731   1.982 -0.3548  0.6483 -0.1876
 9282TIP3    H127810   3.213   6.793   2.041 -0.9442 -1.2161  1.4518
 9282TIP3    H227811   3.294   6.664   2.040 -0.3347 -0.8796 -1.8634
 9283TIP3   OH227812   5.229   6.523   0.561  0.2632  0.8128 -0.5038
 9283TIP3    H127813   5.239   6.510   0.655  0.1373  0.7646 -0.4965
 9283TIP3    H227814   5.214   6.617   0.551 -1.7796  0.5747 -0.2790
 9284TIP3   OH227815   0.688   5.630   0.083  0.1505  0.0561 -0.0439
 9284TIP3    H127816   0.731   5.592   0.007  0.7687 -1.6450  1.0905
 9284TIP3    H227817   0.599   5.649   0.054 -0.4330 -2.9925 -0.5252
 9285TIP3   OH227818   3.829   4.362   5.471  0.2045  0.0595 -0.4775
 9285TIP3    H127819   3.746   4.360   5.424 -0.8319 -1.4812  1.2570
 9285TIP3    H227820   3.825   4.442   5.523 -0.2102  0.0002 -0.4097
 9286TIP3   OH227821   2.362   3.340   0.546  0.0583  0.1439 -0.0237
 9286TIP3    H127822   2.308   3.274   0.503 -0.5227  0.3096  0.4467
 9286TIP3    H227823   2.352   3.323   0.639  1.4915 -0.3497  0.0550
 9287TIP3   OH227824   1.058   3.707   5.556 -0.0590 -0.2358 -0.0154
 9287TIP3    H127825   1.143   3.751   5.551 -0.5954  1.1086  1.6510
 9287TIP3    H227826   1.051   3.680   5.648 -1.6392  0.1149 -0.0174
 9288TIP3   OH227827   5.440   1.510   1.251  0.5103  0.2652 -0.2560
 9288TIP3    H127828   5.491   1.518   1.332  1.0090 -1.3141 -0.3991
 9288TIP3    H227829   5.408   1.599   1.235  1.8982  0.9712  0.6914
 9289TIP3   OH227830   1.041   0.842   3.061 -0.0273  0.4760 -0.7987
 9289TIP3    H127831   1.040   0.746   3.063 -0.2400  0.4781 -0.7650
 9289TIP3    H227832   1.133   0.865   3.073 -0.1298  0.3008  0.4538
 9290TIP3   OH227833   5.926   3.232   2.140  0.4479  0.2526 -0.2310
 9290TIP3    H127834   6.013   3.242   2.102  1.2502 -2.2146  0.7344
 9290TIP3    H227835   5.938   3.170   2.211 -2.2199 -0.7017 -0.4939
 9291TIP3   OH227836   5.877   2.675   0.896  0.4578 -0.1949 -0.6798
 9291TIP3    H127837   5.965   2.652   0.925  0.7265 -0.1859 -1.4757
 9291TIP3    H227838   5.857   2.611   0.827 -2.1948 -3.6879  2.8296
 9292TIP3   OH227839   4.340   1.518   2.729  0.1535 -0.2359 -0.1164
 9292TIP3    H127840   4.360   1.607   2.760 -0.3686 -0.2453  0.2770
 9292TIP3    H227841   4.321   1.529   2.636  0.1415  0.0623 -0.0807
 9293TIP3   OH227842   5.330   6.178   1.532 -0.0431  0.4066 -0.0886
 9293TIP3    H127843   5.390   6.154   1.603 -1.9309  0.9933  1.7735
 9293TIP3    H227844   5.355   6.268   1.510  0.2826  0.3702  0.1141
 9294TIP3   OH227845   4.275   6.429   0.178 -0.3085 -0.9012 -0.4858
 9294TIP3    H127846   4.355   6.377   0.171  1.0271  1.1721 -1.9617
 9294TIP3    H227847   4.290   6.503   0.119 -2.8972  0.1234  0.0227
 9295TIP3   OH227848   6.534   3.011   1.838 -0.0721 -0.0840 -1.3243
 9295TIP3    H127849   6.480   2.970   1.772 -0.2015 -1.9511 -0.1401
 9295TIP3    H227850   6.478   3.016   1.916  0.1207  1.9091 -1.2555
 9296TIP3   OH227851   4.034   3.759   0.640 -0.5545  0.0287  0.4935
 9296TIP3    H127852   4.053   3.670   0.610  2.1319  0.6416  0.1290
 9296TIP3    H227853   4.044   3.754   0.735 -1.6918 -0.3112  0.6065
 9297TIP3   OH227854   2.305   3.750   1.562  0.0060 -0.3755 -0.5291
 9297TIP3    H127855   2.301   3.778   1.653 -0.7193  1.3513 -1.0317
 9297TIP3    H227856   2.384   3.792   1.528 -0.2316 -0.2328 -0.9122
 9298TIP3   OH227857   1.294   1.744   0.844 -0.3307 -0.3471  0.3607
 9298TIP3    H127858   1.342   1.661   0.852 -1.2821 -1.0972 -1.2538
 9298TIP3    H227859   1.205   1.723   0.872 -0.2235  0.5606  1.4769
 9299TIP3   OH227860   5.938   1.475   0.302  0.2937 -0.2116 -0.4295
 9299TIP3    H127861   5.869   1.414   0.331 -2.7598  3.1390  0.0469
 9299TIP3    H227862   5.993   1.487   0.380  1.0139 -2.2359 -0.5455
 9300TIP3   OH227863   1.815   3.738   1.091  0.1876  0.1340  0.1107
 9300TIP3    H127864   1.830   3.734   0.997 -1.9731 -1.6909 -0.2680
 9300TIP3    H227865   1.886   3.687   1.129  0.0683 -0.7015 -0.7370
 9301TIP3   OH227866   1.348   5.204   3.027 -0.1400 -0.3060 -0.3344
 9301TIP3    H127867   1.427   5.180   3.076 -0.7761  1.5036  1.7926
 9301TIP3    H227868   1.375   5.278   2.973 -0.4403  0.6859  0.8219
 9302TIP3   OH227869   6.954   4.782   2.426 -0.8057  0.4890  0.1657
 9302TIP3    H127870   7.005   4.711   2.465 -0.8766 -0.2597 -1.0324
 9302TIP3    H227871   6.898   4.738   2.362 -0.0932  1.7172 -1.3831
 9303TIP3   OH227872   0.170   4.989   4.096 -0.7477 -0.2758  0.2675
 9303TIP3    H127873   0.256   5.029   4.108 -0.5281 -1.1488  1.8151
 9303TIP3    H227874   0.179   4.937   4.016  0.4236 -0.9591  0.8131
 9304TIP3   OH227875   0.132   5.214   3.794  0.0702 -0.0349 -0.2076
 9304TIP3    H127876   0.175   5.129   3.799 -0.6852 -0.3447  1.4992
 9304TIP3    H227877   0.192   5.274   3.839 -0.6813 -0.2385  1.1091
 9305TIP3   OH227878   1.792   0.993   4.649  0.2323 -0.2100 -0.3746
 9305TIP3    H127879   1.884   0.971   4.631  0.8919  2.5796 -0.8701
 9305TIP3    H227880   1.793   1.030   4.737  0.1700  2.4794 -1.4253
 9306TIP3   OH227881   0.241   5.646   0.731 -0.8167  0.9181  0.3445
 9306TIP3    H127882   0.252   5.704   0.806 -2.3751 -0.3089  1.5807
 9306TIP3    H227883   0.179   5.691   0.674 -0.8573  1.1475  0.5689
 9307TIP3   OH227884   4.442   0.323   1.090  0.0524  0.2273 -0.2949
 9307TIP3    H127885   4.418   0.399   1.142  0.1271 -1.0832  1.7833
 9307TIP3    H227886   4.518   0.286   1.135 -1.4643 -2.4528  0.3021
 9308TIP3   OH227887   3.712   0.131   0.453  0.2322  0.7399 -0.3022
 9308TIP3    H127888   3.641   0.194   0.438  0.1050  0.7047  0.1507
 9308TIP3    H227889   3.755   0.124   0.368 -0.2760  0.8006 -0.5700
 9309TIP3   OH227890   6.007   5.246   0.163 -0.3109  0.3837 -0.0595
 9309TIP3    H127891   6.022   5.173   0.224 -2.0615 -0.1955 -0.2665
 9309TIP3    H227892   6.059   5.318   0.199  1.5378 -0.9572  0.1080
 9310TIP3   OH227893   5.933   5.871   2.308 -0.1331 -0.5091 -0.1410
 9310TIP3    H127894   6.023   5.879   2.277 -1.1541  3.1728 -2.8873
 9310TIP3    H227895   5.935   5.909   2.397  1.1125 -1.3001  0.1937
 9311TIP3   OH227896   4.523   1.967   1.893  0.2203  0.1442  0.0882
 9311TIP3    H127897   4.551   2.057   1.879  0.5691  0.0141 -0.0758
 9311TIP3    H227898   4.446   1.956   1.837  0.5754  0.1432 -0.4032
 9312TIP3   OH227899   6.766   3.318   0.369  0.1773 -0.2655 -0.5615
 9312TIP3    H127900   6.788   3.384   0.303 -1.7389  1.6322  0.5379
 9312TIP3    H227901   6.730   3.369   0.442  1.6806 -2.2939  1.7678
 9313TIP3   OH227902   5.139   4.950   5.389  0.6348 -0.2127 -0.2421
 9313TIP3    H127903   5.111   4.870   5.432 -1.1852  0.9335  0.8660
 9313TIP3    H227904   5.192   4.996   5.455  1.1527 -0.2213 -0.6470
 9314TIP3   OH227905   3.036   3.718   4.407 -0.2335  0.2027 -0.2696
 9314TIP3    H127906   3.066   3.645   4.461  0.1808 -1.0382 -2.0646
 9314TIP3    H227907   2.958   3.750   4.451 -1.6580 -2.6908 -0.4197
 9315TIP3   OH227908   3.526   6.596   5.633 -0.0309 -0.3054  0.5800
 9315TIP3    H127909   3.459   6.641   5.582 -0.6694 -0.1277  1.5475
 9315TIP3    H227910   3.479   6.525   5.677  0.6335 -0.8604  0.4130
 9316TIP3   OH227911   2.955   6.433   5.001 -0.4197 -0.2034  0.2479
 9316TIP3    H127912   3.019   6.441   4.930  0.5924 -1.5561  0.9528
 9316TIP3    H227913   2.871   6.420   4.957  0.1076 -0.4747 -0.7090
 9317TIP3   OH227914   2.789   2.817   0.138  0.6425 -0.3919 -0.1263
 9317TIP3    H127915   2.798   2.782   0.050  0.5992  0.3322 -0.4223
 9317TIP3    H227916   2.813   2.744   0.196  3.1528 -0.1464 -0.7617
 9318TIP3   OH227917   6.200   1.049   4.408 -0.0410  0.2314 -1.0767
 9318TIP3    H127918   6.218   0.983   4.341 -1.2722  0.9315 -2.1619
 9318TIP3    H227919   6.150   1.116   4.361 -2.4744 -0.0596  0.9400
 9319TIP3   OH227920   1.714   2.648   5.232 -0.3911  0.7360 -0.0193
 9319TIP3    H127921   1.778   2.688   5.291  0.5256 -1.1117  0.3155
 9319TIP3    H227922   1.765   2.623   5.154 -0.7705 -0.3081  0.0437
 9320TIP3   OH227923   6.239   2.711   5.025 -0.1266  0.0642  0.2604
 9320TIP3    H127924   6.299   2.637   5.014 -0.0156  0.2504 -0.4562
 9320TIP3    H227925   6.183   2.708   4.948 -0.6240  0.2744  0.6089
 9321TIP3   OH227926   1.676   5.728   5.659  0.1052  0.0656 -0.1140
 9321TIP3    H127927   1.632   5.765   5.736  0.1682 -1.4178  0.6658
 9321TIP3    H227928   1.715   5.804   5.615 -2.6038  1.3795 -0.4650
 9322TIP3   OH227929   1.031   5.613   4.575  0.3578  0.5448 -0.1729
 9322TIP3    H127930   1.125   5.622   4.590  0.4989 -1.0811  0.1294
 9322TIP3    H227931   1.025   5.568   4.491  0.0453 -2.7092  1.4347
 9323TIP3   OH227932   4.805   3.720   2.889 -0.2584 -0.4613 -0.2350
 9323TIP3    H127933   4.805   3.761   2.802  1.4746 -0.7692 -0.4121
 9323TIP3    H227934   4.843   3.786   2.947 -0.8382 -0.4860  0.1797
 9324TIP3   OH227935   0.580   5.051   3.053  0.1093  0.1226 -0.0516
 9324TIP3    H127936   0.561   5.048   2.959  1.5054 -0.9429 -0.3334
 9324TIP3    H227937   0.636   4.975   3.068  0.5971  0.7595  1.4966
 9325TIP3   OH227938   0.168   5.828   0.270  0.2283  0.1149  0.7679
 9325TIP3    H127939   0.135   5.833   0.180  1.0243  2.2173  0.5205
 9325TIP3    H227940   0.255   5.868   0.266  0.5119 -0.2515  2.3860
 9326TIP3   OH227941   3.265   0.975   2.887 -0.1196 -0.0945  0.7439
 9326TIP3    H127942   3.318   1.033   2.832  0.1671 -0.7033  0.3681
 9326TIP3    H227943   3.314   0.969   2.969  0.0948 -0.1874  0.6098
 9327TIP3   OH227944   6.180   4.658   5.543  0.1219  0.4290  0.0622
 9327TIP3    H127945   6.110   4.697   5.594  0.4798  1.9237 -0.5414
 9327TIP3    H227946   6.252   4.721   5.547  1.6479 -1.2751  1.0717
 9328TIP3   OH227947   2.189   6.545   5.580  0.2226 -0.1443 -0.2178
 9328TIP3    H127948   2.283   6.552   5.562  0.1685 -0.7445 -0.7857
 9328TIP3    H227949   2.176   6.599   5.658  0.8801  0.6594 -0.6452
 9329TIP3   OH227950   0.524   3.928   5.218  0.0275  0.1226  0.4013
 9329TIP3    H127951   0.618   3.934   5.205 -0.1755  0.8627 -0.8642
 9329TIP3    H227952   0.505   3.834   5.220  0.6412 -0.0236 -0.5137
 9330TIP3   OH227953   5.905   1.098   2.786  0.3446 -0.2297 -0.2131
 9330TIP3    H127954   5.894   1.188   2.756 -0.6426 -0.8081 -1.7230
 9330TIP3    H227955   5.818   1.072   2.816  0.3821 -0.9782 -0.7086
 9331TIP3   OH227956   6.224   5.668   4.115  0.0528  0.1868 -0.8941
 9331TIP3    H127957   6.282   5.744   4.123  1.2132 -0.7071 -0.6371
 9331TIP3    H227958   6.197   5.667   4.023  0.1184  0.8346 -0.9228
 9332TIP3   OH227959   0.587   2.603   5.248 -0.2498  0.2724  0.7470
 9332TIP3    H127960   0.620   2.635   5.333  1.0650 -0.2035  0.4485
 9332TIP3    H227961   0.494   2.588   5.263 -0.8358  3.4624  1.1321
 9333TIP3   OH227962   2.455   1.135   1.335  0.4290  0.4738 -0.1597
 9333TIP3    H127963   2.405   1.143   1.417  1.5570  0.8430  0.5169
 9333TIP3    H227964   2.506   1.055   1.346 -0.1398 -0.0065 -0.9307
 9334TIP3   OH227965   1.073   5.383   2.570  0.0458 -0.7399  0.2270
 9334TIP3    H127966   1.030   5.317   2.626 -1.3464 -0.1801 -0.1331
 9334TIP3    H227967   1.039   5.466   2.603 -0.0066 -0.3480 -0.8114
 9335TIP3   OH227968   3.923   5.042   1.949  0.0842  0.3295  0.7384
 9335TIP3    H127969   3.896   5.105   1.881  1.0531  0.0901  0.1065
 9335TIP3    H227970   3.931   4.959   1.903 -1.4512 -0.3503  1.6258
 9336TIP3   OH227971   1.971   0.160   0.389 -0.5222 -0.2260  0.1435
 9336TIP3    H127972   2.056   0.160   0.432 -1.0976 -0.3311  1.3099
 9336TIP3    H227973   1.984   0.105   0.311  0.2736 -0.8912  0.7219
 9337TIP3   OH227974   3.760   6.520   4.382  0.3102 -0.3133  0.0584
 9337TIP3    H127975   3.693   6.584   4.407  0.5242  0.0748 -0.3494
 9337TIP3    H227976   3.743   6.444   4.438  1.0709  0.6972  1.7284
 9338TIP3   OH227977   0.815   3.017   5.085  0.1656  0.4796 -0.3387
 9338TIP3    H127978   0.742   3.070   5.116 -0.8674  0.3605 -2.4023
 9338TIP3    H227979   0.816   2.941   5.142 -1.5431  0.3361 -0.4602
 9339TIP3   OH227980   0.865   4.561   2.706  0.3549  0.2498  0.8402
 9339TIP3    H127981   0.908   4.500   2.646 -0.2579 -0.4760  1.1368
 9339TIP3    H227982   0.935   4.590   2.765  0.7656  0.2786  0.3434
 9340TIP3   OH227983   4.870   3.624   2.393 -0.3798 -0.5863 -0.0523
 9340TIP3    H127984   4.911   3.683   2.329  1.5014 -0.3988  1.2331
 9340TIP3    H227985   4.920   3.639   2.474 -0.7368 -2.9462  0.6739
 9341TIP3   OH227986   2.638   0.465   1.349 -0.7700 -0.1113  0.0150
 9341TIP3    H127987   2.640   0.471   1.445 -1.7836 -0.2120  0.0491
 9341TIP3    H227988   2.549   0.490   1.325 -0.1907  1.0909 -0.9986
 9342TIP3   OH227989   0.649   6.086   5.259 -0.3191  0.2154  0.3459
 9342TIP3    H127990   0.596   6.020   5.304  0.6435 -1.7016 -1.1419
 9342TIP3    H227991   0.597   6.112   5.184 -1.0556  1.8590  1.3806
 9343TIP3   OH227992   4.792   3.018   5.642 -0.3639  0.5497 -0.5882
 9343TIP3    H127993   4.794   2.924   5.658  2.4588  0.1181 -2.8677
 9343TIP3    H227994   4.795   3.057   5.730  0.2070 -1.4985  0.3531
 9344TIP3   OH227995   2.213   0.718   1.133  0.4817 -0.5735 -0.4365
 9344TIP3    H127996   2.266   0.690   1.058  0.5417 -0.4415 -0.4434
 9344TIP3    H227997   2.132   0.750   1.094  0.7443  0.0489 -0.4911
 9345TIP3   OH227998   3.423   6.558   3.744  0.6532  0.0956  0.1992
 9345TIP3    H127999   3.416   6.465   3.766 -1.7196 -0.1951 -1.3971
 9345TIP3    H228000   3.437   6.559   3.649 -2.1930  1.3153 -0.3068
 9346TIP3   OH228001   4.845   2.277   3.073  0.0713  0.4394 -0.1533
 9346TIP3    H128002   4.850   2.365   3.111  2.0347 -0.3830  1.6576
 9346TIP3    H228003   4.866   2.218   3.145 -1.5119 -1.5935 -1.2448
 9347TIP3   OH228004   1.305   2.838   5.286 -0.6768  0.0148  0.1228
 9347TIP3    H128005   1.313   2.751   5.325 -1.1793  0.3296  0.9361
 9347TIP3    H228006   1.392   2.878   5.300  0.0430 -0.8659 -1.5582
 9348TIP3   OH228007   1.589   5.264   1.399  0.0689  0.1295 -0.5307
 9348TIP3    H128008   1.675   5.282   1.436 -0.3900 -0.3700  0.8607
 9348TIP3    H228009   1.532   5.330   1.440 -0.2995  0.1592 -1.0792
 9349TIP3   OH228010   5.836   4.813   1.008 -0.3023 -0.1253  0.5119
 9349TIP3    H128011   5.902   4.869   0.967  1.1737 -1.3211  1.1639
 9349TIP3    H228012   5.777   4.789   0.936  0.4068  0.3490 -0.2506
 9350TIP3   OH228013   4.554   3.324   5.231  0.0676 -0.1114  0.8147
 9350TIP3    H128014   4.481   3.344   5.172 -0.6455  0.1432  1.7601
 9350TIP3    H228015   4.632   3.354   5.184 -0.5741  0.9595  0.3958
 9351TIP3   OH228016   4.712   4.154   3.552  0.4606 -0.0521  0.4048
 9351TIP3    H128017   4.733   4.240   3.589  1.1723  0.2686 -0.7093
 9351TIP3    H228018   4.629   4.131   3.593 -0.1623  1.5394  0.1305
 9352TIP3   OH228019   2.235   2.698   5.003 -0.2567  0.7666 -0.1743
 9352TIP3    H128020   2.301   2.687   4.935 -0.0901 -1.2375  0.2371
 9352TIP3    H228021   2.214   2.608   5.030 -0.1002  1.4791  2.6149
 9353TIP3   OH228022   6.214   4.671   1.719 -0.7038  0.7240  0.0967
 9353TIP3    H128023   6.183   4.590   1.677  0.6932  0.8520 -1.2827
 9353TIP3    H228024   6.245   4.643   1.805  0.3840 -0.3801 -0.6117
 9354TIP3   OH228025   0.620   6.439   0.180 -0.0032  0.2059 -0.8072
 9354TIP3    H128026   0.590   6.502   0.114 -1.1094 -0.7232 -1.2299
 9354TIP3    H228027   0.638   6.359   0.130 -0.3418 -0.3541 -0.0497
 9355TIP3   OH228028   5.133   5.651   2.285  0.5953 -0.0028  0.4318
 9355TIP3    H128029   5.192   5.586   2.323 -0.4837 -1.3787 -0.1242
 9355TIP3    H228030   5.093   5.695   2.360  0.4128 -0.8844  0.8695
 9356TIP3   OH228031   1.020   0.708   5.397  0.1949  0.0453 -0.2077
 9356TIP3    H128032   0.968   0.739   5.322 -0.7505 -0.2274  0.3218
 9356TIP3    H228033   1.004   0.614   5.399 -1.8751  0.3434  1.8414
 9357TIP3   OH228034   3.552   6.558   3.065  0.2876 -0.0436  0.6689
 9357TIP3    H128035   3.589   6.519   3.144 -1.3265 -0.5055  1.2392
 9357TIP3    H228036   3.560   6.652   3.078  0.0351 -0.1144  1.3998
 9358TIP3   OH228037   3.028   2.622   2.426 -0.4191  0.5795 -0.4455
 9358TIP3    H128038   2.971   2.635   2.502 -0.1478  0.9050 -0.2931
 9358TIP3    H228039   3.110   2.589   2.463 -0.6024 -0.1640 -0.6923
 9359TIP3   OH228040   5.621   3.009   0.740 -0.0653 -0.0592 -0.1592
 9359TIP3    H128041   5.575   2.940   0.788  0.1547  0.4356  0.7812
 9359TIP3    H228042   5.695   2.964   0.700 -0.8158 -0.6751 -0.9051
 9360TIP3   OH228043   2.899   1.345   2.922  0.7364  0.6329 -0.3545
 9360TIP3    H128044   2.967   1.281   2.942  0.7399  0.9206  0.6046
 9360TIP3    H228045   2.927   1.424   2.967  1.4974  1.7947 -2.6893
 9361TIP3   OH228046   3.370   1.753   0.048 -0.4565 -0.1272  0.2939
 9361TIP3    H128047   3.435   1.788   0.109 -0.7571 -0.0709  0.5885
 9361TIP3    H228048   3.398   1.663   0.031  0.6011  0.3929 -0.8637
 9362TIP3   OH228049   5.637   2.159   3.729  0.1347  0.1475  0.2733
 9362TIP3    H128050   5.662   2.188   3.641  0.1291 -1.0791 -0.1642
 9362TIP3    H228051   5.684   2.076   3.740 -0.3560 -0.0209  1.1787
 9363TIP3   OH228052   3.710   0.290   0.725 -0.5635 -0.3523 -0.1629
 9363TIP3    H128053   3.677   0.370   0.765 -0.7631  0.2104 -1.4385
 9363TIP3    H228054   3.719   0.310   0.632 -0.1231 -1.6469 -0.4271
 9364TIP3   OH228055   4.325   3.996   4.702 -0.6748 -0.2995 -0.6410
 9364TIP3    H128056   4.389   3.990   4.773 -0.2701  0.1281 -0.9569
 9364TIP3    H228057   4.242   3.969   4.741 -0.4279 -0.2054 -0.0446
 9365TIP3   OH228058   0.884   5.481   1.397  0.1251 -0.1189 -0.0158
 9365TIP3    H128059   0.807   5.450   1.349  1.3533 -1.5359 -1.1800
 9365TIP3    H228060   0.863   5.462   1.489 -0.4650 -1.6044 -0.4119
 9366TIP3   OH228061   0.647   3.077   3.275 -0.0939  0.5269 -0.1569
 9366TIP3    H128062   0.621   3.107   3.362 -0.7786 -1.2457  0.2877
 9366TIP3    H228063   0.573   3.024   3.244  0.6400  0.1114 -1.2923
 9367TIP3   OH228064   5.373   4.174   3.767  0.0527  0.7920 -0.7949
 9367TIP3    H128065   5.377   4.078   3.765  0.8431  0.8290 -1.3049
 9367TIP3    H228066   5.369   4.199   3.675 -0.9225  1.2306 -0.6417
 9368TIP3   OH228067   0.559   1.958   0.630  0.0379  0.0735 -0.2112
 9368TIP3    H128068   0.597   1.924   0.711  1.5422 -0.2772 -1.0229
 9368TIP3    H228069   0.519   1.882   0.589 -0.0039  0.0869 -0.1957
 9369TIP3   OH228070   5.634   6.461   3.174  0.4327 -0.1710  0.5892
 9369TIP3    H128071   5.627   6.471   3.269  1.7690 -0.9081  0.7777
 9369TIP3    H228072   5.705   6.520   3.149 -0.3352  0.5103 -0.0619
 9370TIP3   OH228073   5.218   1.227   5.017 -0.1644  0.1503  0.0881
 9370TIP3    H128074   5.185   1.230   4.927 -0.0444  0.1907  0.0446
 9370TIP3    H228075   5.313   1.231   5.007 -0.0302 -1.9679  0.1041
 9371TIP3   OH228076   1.891   0.268   1.786 -0.3396 -0.2259 -0.2596
 9371TIP3    H128077   1.972   0.287   1.833 -0.4436 -0.8006  0.1686
 9371TIP3    H228078   1.838   0.218   1.849 -0.7642 -0.4079 -0.7511
 9372TIP3   OH228079   5.505   1.956   4.084  0.1349 -0.3032  0.1571
 9372TIP3    H128080   5.451   1.990   4.013 -0.6679 -1.8164  0.0087
 9372TIP3    H228081   5.466   1.992   4.164  0.6534  0.8818 -0.1006
 9373TIP3   OH228082   0.742   6.421   4.520  0.6711 -0.1778  0.5697
 9373TIP3    H128083   0.647   6.431   4.525  0.7271  0.6832  0.0853
 9373TIP3    H228084   0.763   6.439   4.428  1.1042 -2.3261  0.1807
 9374TIP3   OH228085   3.208   2.398   3.948  0.2560  1.1083 -0.2244
 9374TIP3    H128086   3.289   2.355   3.975 -0.1754  0.2310 -0.2825
 9374TIP3    H228087   3.205   2.386   3.853 -0.5181  0.0565 -0.0923
 9375TIP3   OH228088   7.099   3.632   4.467 -0.0900  0.3239 -0.0031
 9375TIP3    H128089   7.179   3.591   4.435 -0.5556 -1.3611  0.8320
 9375TIP3    H228090   7.112   3.640   4.562 -0.5995  0.7519  0.0370
 9376TIP3   OH228091   0.372   2.659   2.724  0.1647 -0.1599  0.4326
 9376TIP3    H128092   0.386   2.746   2.688  1.0347 -0.8254 -0.8822
 9376TIP3    H228093   0.324   2.612   2.656 -1.2483 -0.4174  1.5546
 9377TIP3   OH228094   3.453   6.349   3.258  0.2764  0.7460  0.0696
 9377TIP3    H128095   3.505   6.294   3.199 -1.5379  1.0003 -1.8770
 9377TIP3    H228096   3.512   6.369   3.331  1.9515 -1.2645 -0.6547
 9378TIP3   OH228097   0.391   0.244   2.503 -0.5692  0.3032  0.6862
 9378TIP3    H128098   0.352   0.230   2.417 -0.6275  0.7451  0.6358
 9378TIP3    H228099   0.427   0.159   2.528  3.0901  0.9455 -1.5480
 9379TIP3   OH228100   6.227   0.324   3.284 -0.2563 -0.3793  0.4379
 9379TIP3    H128101   6.250   0.321   3.191 -0.5884  0.8915  0.2935
 9379TIP3    H228102   6.275   0.399   3.318 -2.8193  1.3843  0.4713
 9380TIP3   OH228103   4.745   3.116   1.115 -0.2226  0.0332  0.0012
 9380TIP3    H128104   4.810   3.047   1.127 -0.1161  0.0344 -0.5165
 9380TIP3    H228105   4.703   3.094   1.032  1.2109  1.6805 -1.2451
 9381TIP3   OH228106   1.108   0.008   0.837  0.9024 -0.4248  0.1112
 9381TIP3    H128107   1.123   0.056   0.918  1.5133 -0.6563  0.1427
 9381TIP3    H228108   1.169   0.047   0.775 -0.9787  1.1765 -0.8518
 9382TIP3   OH228109   2.710   5.803   5.425 -0.2013  0.1269 -0.6183
 9382TIP3    H128110   2.644   5.868   5.401  0.8418  1.6142  0.3452
 9382TIP3    H228111   2.661   5.734   5.469 -1.5938 -0.7436 -3.3086
 9383TIP3   OH228112   0.115   6.519   2.940 -0.2315  0.0184  0.0943
 9383TIP3    H128113   0.036   6.465   2.937 -0.2126 -0.1804  1.9467
 9383TIP3    H228114   0.138   6.521   3.033  2.4343 -0.6382 -0.4744
 9384TIP3   OH228115   1.634   0.110   5.157  0.1363 -0.2574 -0.1693
 9384TIP3    H128116   1.676   0.074   5.235  2.4980  2.7424  0.1454
 9384TIP3    H228117   1.545   0.133   5.186 -0.2094 -2.3454  0.5612
 9385TIP3   OH228118   3.733   0.223   5.135 -0.5111  0.3369  0.1798
 9385TIP3    H128119   3.732   0.295   5.198  0.8583  1.4159 -0.9402
 9385TIP3    H228120   3.652   0.233   5.085  0.6131  2.5546 -1.4121
 9386TIP3   OH228121   6.164   4.480   2.387 -0.0032  0.1837 -0.4860
 9386TIP3    H128122   6.137   4.571   2.381 -0.0210  0.1060 -2.3328
 9386TIP3    H228123   6.204   4.461   2.302  1.5746 -1.0458  0.4712
 9387TIP3   OH228124   1.992   4.292   2.393  0.0983 -0.1692 -0.4231
 9387TIP3    H128125   2.051   4.319   2.322  1.4510 -2.2681 -0.1724
 9387TIP3    H228126   1.928   4.235   2.351 -0.2563  0.0896 -0.2456
 9388TIP3   OH228127   1.227   1.977   1.277  0.3497 -0.1509  0.3890
 9388TIP3    H128128   1.172   1.928   1.338 -3.2131 -0.3891 -2.6584
 9388TIP3    H228129   1.305   1.923   1.265 -1.2459 -2.6640  0.8085
 9389TIP3   OH228130   3.398   4.239   3.608 -0.1170 -0.1277  0.0764
 9389TIP3    H128131   3.459   4.312   3.595 -0.3614 -0.2331 -2.0327
 9389TIP3    H228132   3.447   4.175   3.659  0.5067  0.9907  0.9282
 9390TIP3   OH228133   4.831   4.133   1.000  0.0434 -0.1147 -0.0223
 9390TIP3    H128134   4.769   4.078   1.048 -0.4497 -0.3782 -0.9315
 9390TIP3    H228135   4.806   4.223   1.022  0.3599 -0.2286  0.8598
 9391TIP3   OH228136   4.175   4.385   3.128 -0.1606  0.0831 -0.2695
 9391TIP3    H128137   4.198   4.375   3.036  0.4356 -1.3645  0.0067
 9391TIP3    H228138   4.125   4.307   3.149 -0.3785  0.4477  0.6105
 9392TIP3   OH228139   0.207   5.802   0.931 -0.3935 -0.2369 -0.2245
 9392TIP3    H128140   0.165   5.887   0.942  1.4579  0.6070  0.6851
 9392TIP3    H228141   0.187   5.754   1.011  0.1166  0.0385  0.0653
 9393TIP3   OH228142   6.344   1.808   3.150 -0.2665 -0.0941 -0.5310
 9393TIP3    H128143   6.288   1.816   3.227 -0.4999 -1.5810 -0.5210
 9393TIP3    H228144   6.403   1.883   3.155 -1.6420  0.9895 -0.0450
 9394TIP3   OH228145   4.213   5.015   3.745  0.1585  0.1525  0.1231
 9394TIP3    H128146   4.265   4.963   3.806 -0.0892  0.7613  0.8693
 9394TIP3    H228147   4.251   5.102   3.748  1.0389 -0.1184 -1.6762
 9395TIP3   OH228148   4.131   4.978   0.634  0.6277  0.1389 -0.3681
 9395TIP3    H128149   4.191   4.909   0.607  0.5487  0.2569 -0.8533
 9395TIP3    H228150   4.156   4.998   0.724 -0.0461 -1.2829  0.1703
 9396TIP3   OH228151   6.236   6.195   5.288 -0.1820 -0.2069 -0.3330
 9396TIP3    H128152   6.155   6.147   5.308 -0.2204 -0.6089 -1.3788
 9396TIP3    H228153   6.304   6.146   5.333 -0.5163  0.1623  0.5989
 9397TIP3   OH228154   4.564   2.234   1.893  0.0273  0.8158 -0.7265
 9397TIP3    H128155   4.590   2.277   1.812  0.6170 -0.8810 -1.4897
 9397TIP3    H228156   4.634   2.255   1.955 -0.0254  1.4810 -0.8885
 9398TIP3   OH228157   5.856   3.843   1.978  0.5301 -0.0432  0.3015
 9398TIP3    H128158   5.945   3.815   2.000  0.9266 -0.6042 -1.7992
 9398TIP3    H228159   5.868   3.929   1.937 -0.0336  0.3973  1.0461
 9399TIP3   OH228160   3.069   5.058   5.232 -0.1488 -0.0603  0.1817
 9399TIP3    H128161   3.057   5.142   5.189  0.2488  0.0716  0.3356
 9399TIP3    H228162   2.980   5.021   5.237 -0.3416  0.4143  0.2562
 9400TIP3   OH228163   3.072   2.977   4.744 -0.3510  0.5630  0.1023
 9400TIP3    H128164   3.158   2.964   4.782 -0.5926 -1.2813  0.1131
 9400TIP3    H228165   3.077   2.933   4.658 -0.2602  3.3617 -1.4376
 9401TIP3   OH228166   4.791   2.722   4.201  0.7236 -0.3717 -0.1129
 9401TIP3    H128167   4.834   2.808   4.210  1.1048 -0.6734  1.0882
 9401TIP3    H228168   4.699   2.739   4.221  0.4716  0.0433 -1.4853
 9402TIP3   OH228169   2.191   1.214   2.306  0.1449  0.3478 -0.5675
 9402TIP3    H128170   2.244   1.178   2.236 -1.7675 -1.1079 -1.3443
 9402TIP3    H228171   2.150   1.138   2.347 -2.7716  1.4356 -1.2219
 9403TIP3   OH228172   1.259   6.159   2.233  0.4006 -0.5860  0.1172
 9403TIP3    H128173   1.348   6.159   2.269  0.3650 -0.1098  0.2107
 9403TIP3    H228174   1.209   6.104   2.294  0.6017 -0.7467  0.1375
 9404TIP3   OH228175   2.500   2.492   0.061  0.4376  0.0361  0.3519
 9404TIP3    H128176   2.539   2.408   0.082 -0.8437 -0.4391  0.8853
 9404TIP3    H228177   2.433   2.505   0.127  1.8182  2.3619  1.4456
 9405TIP3   OH228178   6.535   5.527   2.132  0.2842 -0.0474 -0.0324
 9405TIP3    H128179   6.607   5.543   2.193 -0.1035  0.5919  0.2708
 9405TIP3    H228180   6.458   5.515   2.188 -0.1431  0.9123 -0.3793
 9406TIP3   OH228181   1.891   0.417   3.871 -0.4364  0.1959 -0.5373
 9406TIP3    H128182   1.926   0.421   3.960 -0.9769 -0.5362 -0.2763
 9406TIP3    H228183   1.851   0.503   3.857 -0.7964  0.1503  0.1306
 9407TIP3   OH228184   3.832   6.246   3.646 -0.4806  0.1204 -0.2103
 9407TIP3    H128185   3.923   6.233   3.618 -0.3124  0.2715  0.2669
 9407TIP3    H228186   3.838   6.306   3.720 -1.0315  0.7179 -0.6489
 9408TIP3   OH228187   1.139   4.643   1.132 -0.0078 -0.3504 -0.3033
 9408TIP3    H128188   1.075   4.711   1.109 -2.0926 -1.0347  2.8097
 9408TIP3    H228189   1.109   4.565   1.087 -0.6705 -0.3723  0.1640
 9409TIP3   OH228190   0.958   4.648   4.238 -0.1522 -0.3423  0.0298
 9409TIP3    H128191   1.021   4.644   4.310  1.7997 -2.8871 -1.6208
 9409TIP3    H228192   0.892   4.582   4.261 -0.7119  0.3627  0.4658
 9410TIP3   OH228193   6.267   5.015   1.515  0.5838  0.2374  0.4721
 9410TIP3    H128194   6.353   5.048   1.489  1.1534 -0.0772  1.8486
 9410TIP3    H228195   6.270   4.922   1.493 -0.0725  0.5469 -1.0588
 9411TIP3   OH228196   1.025   4.677   0.192 -0.7709 -0.3720  0.0432
 9411TIP3    H128197   0.958   4.691   0.126 -1.3271 -1.8475  0.2375
 9411TIP3    H228198   1.053   4.764   0.217 -0.4495  0.2360 -2.2122
 9412TIP3   OH228199   1.226   2.565   1.852 -0.3376 -0.1014  0.8267
 9412TIP3    H128200   1.159   2.503   1.882 -2.0613  1.1052 -0.3212
 9412TIP3    H228201   1.193   2.595   1.767 -0.3657  3.4555  1.9530
 9413TIP3   OH228202   3.885   4.085   3.662  0.1758  0.3305  0.4721
 9413TIP3    H128203   3.872   4.119   3.574 -0.4161  1.4620  0.9747
 9413TIP3    H228204   3.797   4.062   3.692  0.6518 -3.1358 -0.3738
 9414TIP3   OH228205   0.647   3.728   0.047  0.3891 -0.1002  0.3461
 9414TIP3    H128206   0.739   3.754   0.046  0.4179 -0.1890  0.5843
 9414TIP3    H228207   0.602   3.801   0.091  0.2655  0.1918 -0.2462
 9415TIP3   OH228208   0.908   0.318   1.418  0.2300 -0.2734  0.5031
 9415TIP3    H128209   0.852   0.305   1.494  0.3980 -0.2453  0.6313
 9415TIP3    H228210   0.997   0.302   1.449  0.1527 -2.0329 -0.1003
 9416TIP3   OH228211   2.366   4.397   4.740 -0.7147  0.2835  0.6476
 9416TIP3    H128212   2.290   4.370   4.690  0.3554  0.5300 -1.2087
 9416TIP3    H228213   2.337   4.476   4.787 -1.8814 -0.2212  0.7995
 9417TIP3   OH228214   3.952   1.194   5.297 -0.3543 -0.3724 -0.1456
 9417TIP3    H128215   3.887   1.132   5.266 -0.3459 -0.0024 -0.9267
 9417TIP3    H228216   3.919   1.279   5.269  1.1735 -0.2893 -1.8946
 9418TIP3   OH228217   2.858   3.448   4.917  0.0061 -0.1203 -0.0086
 9418TIP3    H128218   2.801   3.378   4.946  0.2307 -0.3330 -0.0749
 9418TIP3    H228219   2.867   3.506   4.993 -0.3197 -0.0686 -0.0088
 9419TIP3   OH228220   5.080   5.380   5.395 -0.1161 -0.1773  0.6549
 9419TIP3    H128221   5.126   5.396   5.477 -0.4736 -1.8545  1.2133
 9419TIP3    H228222   4.989   5.365   5.421 -0.0718 -1.6076  0.0697
 9420TIP3   OH228223   6.369   1.507   1.139 -0.4732 -0.4554  0.3426
 9420TIP3    H128224   6.406   1.568   1.202 -1.0983  0.8177 -0.4694
 9420TIP3    H228225   6.398   1.539   1.054  1.2753 -2.7714 -0.0324
 9421TIP3   OH228226   2.838   4.560   1.854  0.5368 -0.3737 -0.0936
 9421TIP3    H128227   2.887   4.621   1.800  0.3711 -0.9428 -0.9079
 9421TIP3    H228228   2.796   4.615   1.921  0.2016  0.4261 -0.9472
 9422TIP3   OH228229   6.081   5.534   1.219 -0.1928 -0.1565 -0.3625
 9422TIP3    H128230   6.153   5.596   1.225 -0.5793  0.2113  0.7803
 9422TIP3    H228231   6.019   5.574   1.158 -1.1179  1.3425  1.4650
 9423TIP3   OH228232   5.572   2.693   3.681  0.1922  0.0045  0.0926
 9423TIP3    H128233   5.531   2.772   3.646 -1.7264  0.6393  3.3259
 9423TIP3    H228234   5.653   2.724   3.722  1.8459 -0.5686 -2.4587
 9424TIP3   OH228235   4.189   4.427   4.974 -0.0696  0.6711 -0.3066
 9424TIP3    H128236   4.240   4.470   4.905  0.9294  2.5921  1.5130
 9424TIP3    H228237   4.255   4.395   5.036 -0.9648 -0.1099  0.2673
 9425TIP3   OH228238   0.364   4.175   2.951 -0.0232  0.4243  0.4533
 9425TIP3    H128239   0.448   4.157   2.993  0.1526 -2.1146 -0.8012
 9425TIP3    H228240   0.386   4.185   2.858 -1.0951 -0.1872  0.1257
 9426TIP3   OH228241   2.720   3.030   3.470  0.3565 -0.0397 -0.0545
 9426TIP3    H128242   2.680   3.117   3.481 -0.1331 -0.2009 -0.5388
 9426TIP3    H228243   2.781   3.023   3.543  0.3018  0.6608  0.0689
 9427TIP3   OH228244   0.623   5.752   3.060 -0.5729  0.1477 -0.6231
 9427TIP3    H128245   0.537   5.720   3.032 -0.1158 -0.3072 -1.5877
 9427TIP3    H228246   0.631   5.723   3.151 -0.9876 -0.8073 -0.8716
 9428TIP3   OH228247   5.823   0.486   2.164 -0.4868 -0.3998  0.1778
 9428TIP3    H128248   5.839   0.460   2.255  0.4417 -0.0535  0.1269
 9428TIP3    H228249   5.910   0.495   2.127 -0.8608 -0.4427 -0.7286
 9429TIP3   OH228250   6.874   5.236   5.469  0.1505  0.1381  0.1436
 9429TIP3    H128251   6.922   5.234   5.386 -0.6160 -0.0937 -0.3036
 9429TIP3    H228252   6.935   5.199   5.533  1.8208  2.8288  0.2842
 9430TIP3   OH228253   0.279   1.758   2.728  0.1958 -0.0685 -0.4024
 9430TIP3    H128254   0.246   1.691   2.669  0.1482  0.5009 -1.0296
 9430TIP3    H228255   0.232   1.743   2.810 -0.2436 -0.4332 -0.7161
 9431TIP3   OH228256   6.097   4.674   3.911 -0.3828 -0.4064  0.7151
 9431TIP3    H128257   6.078   4.767   3.902 -3.0613 -0.8663  0.8257
 9431TIP3    H228258   6.063   4.650   3.997  1.8013 -1.2018  1.4337
 9432TIP3   OH228259   1.566   0.923   0.083  0.5030 -0.5116  0.6237
 9432TIP3    H128260   1.510   0.860   0.037 -1.6746  1.0615  0.9954
 9432TIP3    H228261   1.522   0.937   0.166  0.2658  2.3454  0.0989
 9433TIP3   OH228262   3.509   0.444   3.724  0.3985  0.0914  0.2100
 9433TIP3    H128263   3.505   0.518   3.663  0.3134  1.3466  1.6809
 9433TIP3    H228264   3.597   0.451   3.763  0.0144  0.0520  1.1005
 9434TIP3   OH228265   6.622   6.429   1.659 -0.1114  0.2673  0.3039
 9434TIP3    H128266   6.620   6.467   1.747  0.1780 -0.2510  0.5387
 9434TIP3    H228267   6.604   6.336   1.673 -0.5376  0.2691 -0.2369
 9435TIP3   OH228268   6.836   0.906   0.113 -0.0474  0.0896 -0.4380
 9435TIP3    H128269   6.841   0.991   0.070 -0.1648  0.3243  0.0038
 9435TIP3    H228270   6.902   0.910   0.182 -1.5095  0.6675  1.0115
 9436TIP3   OH228271   5.964   0.919   1.068  0.1180 -0.3138  0.2323
 9436TIP3    H128272   6.054   0.895   1.044  0.2591  0.7408 -0.3268
 9436TIP3    H228273   5.957   0.894   1.161  0.4404 -1.9307 -0.1446
 9437TIP3   OH228274   6.751   6.228   0.108 -0.9470 -0.1966 -0.0721
 9437TIP3    H128275   6.700   6.201   0.185 -0.4432 -0.4578  0.1754
 9437TIP3    H228276   6.712   6.311   0.082  0.9929  1.7534  2.5789
 9438TIP3   OH228277   1.977   4.323   1.796 -0.3538 -0.3629 -0.6000
 9438TIP3    H128278   2.063   4.365   1.803 -1.1274  1.2078  0.0494
 9438TIP3    H228279   1.939   4.360   1.716 -0.7381 -0.4118 -0.4426
 9439TIP3   OH228280   0.225   5.651   1.838 -0.1642 -0.2175  0.0126
 9439TIP3    H128281   0.166   5.632   1.765  1.0394  0.5144 -1.1992
 9439TIP3    H228282   0.185   5.726   1.882 -0.5468 -0.2344 -0.2985
 9440TIP3   OH228283   0.242   6.201   4.628 -0.1095  0.2393 -0.2505
 9440TIP3    H128284   0.270   6.289   4.653  0.2687  0.1398 -0.3135
 9440TIP3    H228285   0.161   6.186   4.677  0.0671  0.4478  0.1082
 9441TIP3   OH228286   4.788   4.929   3.183 -0.1653  0.5364  0.5547
 9441TIP3    H128287   4.838   4.997   3.229 -0.4932  1.1159  0.0692
 9441TIP3    H228288   4.826   4.847   3.214  1.1021  0.9499  0.2043
 9442TIP3   OH228289   4.541   6.495   0.817 -0.0412  0.1030 -0.6153
 9442TIP3    H128290   4.578   6.411   0.842 -0.2458 -0.6289 -2.6122
 9442TIP3    H228291   4.504   6.530   0.899  2.3740 -0.4666  0.8153
 9443TIP3   OH228292   2.666   1.286   3.026  0.2584 -0.4531  0.4675
 9443TIP3    H128293   2.756   1.303   2.998 -0.1748  2.3383  0.4774
 9443TIP3    H228294   2.668   1.295   3.121 -0.3846  1.9542  0.3056
 9444TIP3   OH228295   4.852   3.980   0.429 -0.1818  0.4679 -0.3954
 9444TIP3    H128296   4.765   3.969   0.467  0.6735  0.3951  1.6760
 9444TIP3    H228297   4.847   4.060   0.378 -1.4852  0.3926 -0.4014
 9445TIP3   OH228298   4.864   5.179   5.521  0.3444  0.1601 -0.4037
 9445TIP3    H128299   4.953   5.184   5.555  0.4107  1.4514 -0.7211
 9445TIP3    H228300   4.848   5.085   5.508  0.8277 -0.2876  1.8144
 9446TIP3   OH228301   3.174   5.075   1.277 -0.1569  0.4316 -0.4138
 9446TIP3    H128302   3.199   5.167   1.287  0.5041  0.1144  1.2077
 9446TIP3    H228303   3.257   5.028   1.269 -0.4545 -0.0971 -0.4778
 9447TIP3   OH228304   5.072   0.366   4.656  0.5941  0.7113 -0.6476
 9447TIP3    H128305   5.094   0.455   4.628  0.4739  0.7324 -0.6739
 9447TIP3    H228306   5.090   0.312   4.579  1.6514  0.5677 -0.3228
 9448TIP3   OH228307   6.711   0.647   5.831 -0.1189  0.6013  0.1750
 9448TIP3    H128308   6.663   0.565   5.831  2.4654 -1.1077 -2.3405
 9448TIP3    H228309   6.682   0.692   5.751  0.2313  0.9472  0.2368
 9449TIP3   OH228310   1.883   3.957   3.335  0.2103 -0.1784 -0.3677
 9449TIP3    H128311   1.928   4.016   3.396 -2.1884  0.7082  0.7163
 9449TIP3    H228312   1.887   4.002   3.251 -1.1273  1.4090  0.3399
 9450TIP3   OH228313   6.411   3.369   5.606 -0.4490  0.0663  0.1590
 9450TIP3    H128314   6.469   3.397   5.535 -0.7502  0.8818  0.2283
 9450TIP3    H228315   6.465   3.374   5.685 -0.9616  2.1138  0.4184
 9451TIP3   OH228316   3.182   5.663   3.087  0.0304  0.1765  0.0065
 9451TIP3    H128317   3.271   5.672   3.120  0.0369  0.0283  0.0272
 9451TIP3    H228318   3.189   5.677   2.993 -0.0168  0.8146  0.0886
 9452TIP3   OH228319   0.322   0.006   5.660  0.6744  0.2064 -0.2597
 9452TIP3    H128320   0.237  -0.010   5.620  0.4355  2.4627 -0.7477
 9452TIP3    H228321   0.380   0.027   5.586  1.1123  0.8448  0.2506
 9453TIP3   OH228322   2.951   5.988   2.443 -0.3084  0.1040 -0.2563
 9453TIP3    H128323   2.956   5.893   2.432 -0.3168 -0.0290  0.7875
 9453TIP3    H228324   3.041   6.015   2.465 -0.3409  0.3099 -0.3716
 9454TIP3   OH228325   3.295   0.853   5.530 -0.2884  0.2682 -0.1430
 9454TIP3    H128326   3.339   0.771   5.552  0.9529  0.3420 -2.0288
 9454TIP3    H228327   3.241   0.874   5.606  0.7758 -1.3442  1.1131
 9455TIP3   OH228328   4.673   4.326   2.812  0.1591 -0.4309 -0.3997
 9455TIP3    H128329   4.578   4.339   2.817  0.1756 -0.2579 -0.5337
 9455TIP3    H228330   4.709   4.414   2.797  0.2988 -0.5641 -0.8901
 9456TIP3   OH228331   3.416   1.795   4.883  0.7834  0.0461  0.1756
 9456TIP3    H128332   3.489   1.844   4.846  1.1012 -0.3861  0.2186
 9456TIP3    H228333   3.397   1.727   4.818 -1.3139  1.7159 -1.0950
 9457TIP3   OH228334   6.559   1.156   3.685  0.6232 -0.3756  0.0871
 9457TIP3    H128335   6.511   1.238   3.670 -0.5067 -1.0367  0.0392
 9457TIP3    H228336   6.560   1.112   3.601  2.8880  0.4054 -0.3725
 9458TIP3   OH228337   1.548   5.782   0.874  0.3704 -0.3599  0.0254
 9458TIP3    H128338   1.541   5.870   0.911  1.7740  0.1561 -0.8721
 9458TIP3    H228339   1.468   5.771   0.822  0.1499  0.3562  0.2023
 9459TIP3   OH228340   5.712   0.482   3.040  0.3567 -0.0920 -0.3293
 9459TIP3    H128341   5.786   0.530   3.001  0.1359 -0.2375 -0.9382
 9459TIP3    H228342   5.686   0.420   2.972 -0.4934  0.1352 -0.2161
 9460TIP3   OH228343   5.813   4.322   3.766 -0.0894 -0.2172 -0.0020
 9460TIP3    H128344   5.759   4.276   3.829  0.4033 -0.1962  0.4462
 9460TIP3    H228345   5.903   4.297   3.789  0.4201  2.8216  1.8534
 9461TIP3   OH228346   2.721   0.338   2.947  0.1360  0.0726  0.0403
 9461TIP3    H128347   2.633   0.359   2.977 -0.6710 -1.2357 -1.2274
 9461TIP3    H228348   2.752   0.270   3.007 -0.2617 -0.4152 -0.3055
 9462TIP3   OH228349   1.567   0.790   4.042 -0.2006  0.3180 -0.3985
 9462TIP3    H128350   1.541   0.776   3.952 -0.3247 -1.3724 -0.1301
 9462TIP3    H228351   1.616   0.711   4.066  0.9908  1.3096  0.6006
 9463TIP3   OH228352   1.138   4.419   0.142 -0.1453  0.0492 -0.1074
 9463TIP3    H128353   1.130   4.510   0.169 -0.1836 -0.1790  0.6897
 9463TIP3    H228354   1.061   4.403   0.087  0.4224  0.7873 -1.1671
 9464TIP3   OH228355   0.873   2.562   1.319  0.4837 -0.0381 -0.3997
 9464TIP3    H128356   0.824   2.498   1.370 -0.3310  1.5215  0.8611
 9464TIP3    H228357   0.806   2.609   1.268  0.9456  0.4318 -0.5886
 9465TIP3   OH228358   1.363   5.577   4.950 -0.1174 -0.4525 -0.2326
 9465TIP3    H128359   1.377   5.654   5.005  0.3941 -0.2100 -0.6957
 9465TIP3    H228360   1.294   5.528   4.995 -0.6121  0.3874 -0.0566
 9466TIP3   OH228361   3.323   6.737   1.506 -0.4796 -0.2712 -0.1510
 9466TIP3    H128362   3.342   6.721   1.413 -0.9217  0.5378 -0.3882
 9466TIP3    H228363   3.246   6.793   1.505 -1.5064 -1.6189  0.7451
 9467TIP3   OH228364   6.018   4.726   2.378  0.4855  0.1453  0.0531
 9467TIP3    H128365   5.964   4.676   2.439 -1.1878  1.4152 -0.3377
 9467TIP3    H228366   5.994   4.692   2.292  2.1214 -0.9489 -0.0303
 9468TIP3   OH228367   6.555   1.130   3.415 -0.0230  0.0635  0.3084
 9468TIP3    H128368   6.595   1.209   3.379  1.2550 -1.1774 -1.1157
 9468TIP3    H228369   6.621   1.062   3.404 -0.6762 -1.0099  2.4908
 9469TIP3   OH228370   3.117   2.580   3.311  0.3555  0.5394  0.3109
 9469TIP3    H128371   3.026   2.556   3.326  0.4518  0.1310  0.2515
 9469TIP3    H228372   3.117   2.676   3.310  0.0592  0.5516  1.0994
 9470TIP3   OH228373   0.382   0.599   4.991  0.1467  0.3802  0.2706
 9470TIP3    H128374   0.356   0.557   4.909  0.6614 -3.0159  1.6711
 9470TIP3    H228375   0.330   0.678   4.995  0.4223  0.9239 -3.4901
 9471TIP3   OH228376   4.687   4.881   5.871  0.7258 -0.2292  0.0370
 9471TIP3    H128377   4.770   4.916   5.838  1.0633 -0.7461  0.3143
 9471TIP3    H228378   4.708   4.791   5.896 -0.4718 -1.2229 -2.1911
 9472TIP3   OH228379   6.440   4.040   2.242  0.2173  0.2958  0.3061
 9472TIP3    H128380   6.493   3.965   2.266  1.6194  1.7228  1.9775
 9472TIP3    H228381   6.350   4.014   2.263  0.8593 -0.3441  2.5311
 9473TIP3   OH228382   4.461   0.294   0.164 -0.0610  0.2647  0.2382
 9473TIP3    H128383   4.486   0.346   0.088  1.1319  0.7305  0.9127
 9473TIP3    H228384   4.366   0.283   0.157 -0.1037  1.1901 -0.7515
 9474TIP3   OH228385   0.641   4.900   2.136  0.0891  0.3476  0.4389
 9474TIP3    H128386   0.665   4.926   2.047  0.1236 -0.3871  0.2314
 9474TIP3    H228387   0.591   4.975   2.169  1.4751  1.3277  0.3980
 9475TIP3   OH228388   1.164   0.634   2.133  0.2025  0.4495  0.3223
 9475TIP3    H128389   1.242   0.648   2.080 -0.8905  1.0144 -1.2186
 9475TIP3    H228390   1.098   0.692   2.094 -0.7804  0.5419  2.0407
 9476TIP3   OH228391   4.985   4.848   4.254 -0.3417  0.0972  0.2938
 9476TIP3    H128392   5.014   4.851   4.345 -1.0356  2.3744  0.4869
 9476TIP3    H228393   5.065   4.856   4.202 -0.1040  0.6590  0.7394
 9477TIP3   OH228394   5.734   4.251   5.753  0.2416  0.0248 -0.2863
 9477TIP3    H128395   5.784   4.238   5.673 -1.3144  1.6198 -1.6201
 9477TIP3    H228396   5.657   4.194   5.743  0.3399 -0.2388  0.3801
 9478TIP3   OH228397   6.297   2.815   4.652 -0.0158  0.5361 -0.0119
 9478TIP3    H128398   6.367   2.817   4.717 -0.7728  0.3174  0.8479
 9478TIP3    H228399   6.339   2.789   4.571  1.1258  1.6998  0.1703
 9479TIP3   OH228400   3.895   1.435   4.094  0.0859  0.2322  0.6442
 9479TIP3    H128401   3.978   1.439   4.047  0.7732  0.1486  1.8003
 9479TIP3    H228402   3.845   1.510   4.062  0.4715  0.1036 -0.2944
 9480TIP3   OH228403   0.502   4.140   2.425  0.2838 -0.3390  0.5911
 9480TIP3    H128404   0.568   4.078   2.394  0.8493  0.5260 -0.0039
 9480TIP3    H228405   0.451   4.162   2.347  1.7534  1.9070  0.1620
 9481TIP3   OH228406   1.120   2.477   5.630 -0.1997 -0.2103 -0.3446
 9481TIP3    H128407   1.036   2.438   5.603 -1.0058  1.4687 -0.3814
 9481TIP3    H228408   1.095   2.545   5.693  1.2845 -0.7512  0.8892
 9482TIP3   OH228409   3.456   3.385   5.574  0.2923 -0.0605 -0.3457
 9482TIP3    H128410   3.361   3.383   5.568 -0.2566  3.2897  3.2788
 9482TIP3    H228411   3.478   3.313   5.633 -0.5550  1.3502  1.8115
 9483TIP3   OH228412   2.137   2.148   5.404  0.2664 -0.2839 -0.8773
 9483TIP3    H128413   2.085   2.211   5.354 -0.4295  1.2669  1.6560
 9483TIP3    H228414   2.219   2.193   5.423 -0.1670 -0.1378  0.8029
 9484TIP3   OH228415   2.400   6.523   1.748  0.2287  0.0712  0.4935
 9484TIP3    H128416   2.388   6.517   1.843  4.9734 -0.0437  1.3686
 9484TIP3    H228417   2.402   6.432   1.719 -3.4492  0.0978 -0.3203
 9485TIP3   OH228418   4.998   6.557   3.339  0.0908  0.1320  0.1410
 9485TIP3    H128419   5.093   6.566   3.337  0.1159 -0.1068  0.2764
 9485TIP3    H228420   4.979   6.492   3.271 -0.1170  1.3922 -1.0623
 9486TIP3   OH228421   0.066   0.907   3.378  0.1092 -0.3052  0.0178
 9486TIP3    H128422  -0.001   0.840   3.362 -0.5164 -0.2350  1.9884
 9486TIP3    H228423   0.111   0.918   3.294 -0.8479 -2.0129 -0.7610
 9487TIP3   OH228424   6.620   2.633   2.194  0.2167  0.1903 -0.3775
 9487TIP3    H128425   6.617   2.716   2.242 -0.6843 -0.0958  0.0815
 9487TIP3    H228426   6.543   2.635   2.137 -0.7171 -0.9995  0.7854
 9488TIP3   OH228427   5.713   4.012   0.999 -0.3352  0.2129 -0.2426
 9488TIP3    H128428   5.642   4.073   0.978  1.0345  1.0206 -3.0300
 9488TIP3    H228429   5.751   3.989   0.914  1.5709 -1.6599  1.0103
 9489TIP3   OH228430   0.630   1.597   5.792 -0.1702  0.3253 -0.0683
 9489TIP3    H128431   0.572   1.527   5.823 -0.4077  0.4802 -0.1624
 9489TIP3    H228432   0.622   1.595   5.697  2.5623 -1.8884 -0.3493
 9490TIP3   OH228433   0.451   4.309   0.321  0.0998  0.2545  0.1958
 9490TIP3    H128434   0.445   4.355   0.237 -0.6554  2.5406  1.4305
 9490TIP3    H228435   0.514   4.360   0.372  1.5507 -1.8479  0.6389
 9491TIP3   OH228436   0.058   5.661   5.326  0.6840 -0.6549  0.0388
 9491TIP3    H128437   0.041   5.753   5.308  1.2479 -0.9143 -2.0086
 9491TIP3    H228438   0.153   5.652   5.325  0.6276 -1.4859 -1.2937
 9492TIP3   OH228439   4.974   4.775   5.579 -0.3554 -0.2010 -0.5482
 9492TIP3    H128440   5.038   4.811   5.640 -0.3061 -0.3216 -0.5290
 9492TIP3    H228441   4.993   4.681   5.576 -1.3188 -0.4318  0.3944
 9493TIP3   OH228442   6.405   1.080   0.883 -0.1999 -0.1167  0.2244
 9493TIP3    H128443   6.391   1.004   0.827 -2.9708  0.0766  0.4841
 9493TIP3    H228444   6.407   1.155   0.823 -2.5031  0.0222  0.2157
 9494TIP3   OH228445   5.154   3.075   5.488 -0.0889 -0.3426  0.3417
 9494TIP3    H128446   5.160   3.138   5.416 -1.4378 -0.7507 -0.1550
 9494TIP3    H228447   5.066   3.038   5.480  0.6829 -2.3499  0.5729
 9495TIP3   OH228448   6.467   3.534   2.850 -0.8036 -0.2066 -0.0434
 9495TIP3    H128449   6.373   3.524   2.835 -0.7535  0.9689 -1.4075
 9495TIP3    H228450   6.473   3.588   2.929 -1.2947  0.1813 -0.2641
 9496TIP3   OH228451   2.170   2.955   4.284  0.4386  0.5980 -0.2149
 9496TIP3    H128452   2.228   2.882   4.260 -0.5078 -0.6697  1.1821
 9496TIP3    H228453   2.121   2.973   4.204 -0.1992 -1.1878 -0.2884
 9497TIP3   OH228454   5.825   3.517   2.207 -0.1687 -0.0383 -0.4250
 9497TIP3    H128455   5.775   3.542   2.130  1.7762 -0.6591 -1.9615
 9497TIP3    H228456   5.867   3.435   2.183  2.5029  1.0226  0.3377
 9498TIP3   OH228457   5.031   2.634   2.906  0.8716 -0.2955 -0.0681
 9498TIP3    H128458   5.084   2.712   2.922 -0.2110  0.5402 -0.4209
 9498TIP3    H228459   5.052   2.608   2.816  1.1447 -0.3353  0.0085
 9499TIP3   OH228460   5.083   3.987   2.013  0.2662  0.0838 -0.1728
 9499TIP3    H128461   5.120   4.075   2.000 -0.5854  0.2169 -2.0556
 9499TIP3    H228462   5.154   3.927   1.989  1.1801  0.1716  2.0512
 9500TIP3   OH228463   5.452   4.580   4.388 -0.1298  0.3101 -0.3004
 9500TIP3    H128464   5.471   4.492   4.421 -2.0458  0.1413  0.4660
 9500TIP3    H228465   5.436   4.567   4.294 -2.0681 -0.4937  0.0946
 9501TIP3   OH228466   1.575   3.804   2.306 -0.2086 -0.3116 -0.9262
 9501TIP3    H128467   1.597   3.842   2.221 -0.9268  2.5638  0.0844
 9501TIP3    H228468   1.490   3.761   2.292  0.2484 -0.9427 -1.9096
 9502TIP3   OH228469   6.054   0.400   3.633 -0.3157  0.4652 -0.9589
 9502TIP3    H128470   5.972   0.448   3.621  0.5063  2.9117  1.8632
 9502TIP3    H228471   6.029   0.308   3.627 -3.0910  1.1273 -1.1261
 9503TIP3   OH228472   4.614   2.982   0.890  0.1789 -0.5285  0.1233
 9503TIP3    H128473   4.545   2.996   0.955  0.2787 -0.2906  0.1795
 9503TIP3    H228474   4.622   2.887   0.883  0.4051 -0.5602  0.7128
 9504TIP3   OH228475   0.047   3.231   1.075  0.0876 -0.4942  0.0955
 9504TIP3    H128476   0.040   3.184   0.992 -2.2044  1.4855 -0.9322
 9504TIP3    H228477  -0.043   3.257   1.095  1.1586  3.1968  0.7102
 9505TIP3   OH228478   6.318   5.854   4.626 -0.0929  0.2522 -0.3315
 9505TIP3    H128479   6.274   5.878   4.707 -0.3811  1.2908 -0.7826
 9505TIP3    H228480   6.306   5.759   4.619 -1.6233  0.4027 -0.0659
 9506TIP3   OH228481   2.417   3.704   1.877 -0.3567 -0.7699 -0.0263
 9506TIP3    H128482   2.484   3.731   1.813  0.4920 -1.6566  0.4684
 9506TIP3    H228483   2.413   3.777   1.939 -0.7653 -0.1595 -0.7608
 9507TIP3   OH228484   2.834   4.167   5.174 -0.5315  0.0014  0.1286
 9507TIP3    H128485   2.739   4.174   5.162 -0.5198 -0.7354 -0.4560
 9507TIP3    H228486   2.866   4.130   5.091  0.2032 -0.2170  0.5018
 9508TIP3   OH228487   5.701   1.665   3.636 -0.2144 -0.5070  0.5702
 9508TIP3    H128488   5.637   1.601   3.604 -0.2790 -0.5998  0.8822
 9508TIP3    H228489   5.783   1.640   3.594 -0.1129 -1.1538  1.1551
 9509TIP3   OH228490   5.576   2.985   4.434 -0.3146  0.1234 -0.1776
 9509TIP3    H128491   5.549   3.076   4.437 -2.2975 -0.3057 -2.5063
 9509TIP3    H228492   5.495   2.935   4.438  0.4151 -1.3926 -2.2774
 9510TIP3   OH228493   1.655   4.027   2.095 -0.9519  0.5827  0.0446
 9510TIP3    H128494   1.711   4.068   2.029 -2.7283  0.5798 -1.5408
 9510TIP3    H228495   1.575   4.079   2.095 -0.8381  0.8774  2.6122
 9511TIP3   OH228496   1.153   1.888   2.883 -0.5637 -0.0736  0.3594
 9511TIP3    H128497   1.090   1.894   2.956 -0.8225  0.5904  0.0934
 9511TIP3    H228498   1.150   1.796   2.856 -1.4480 -0.0492  0.3372
 9512TIP3   OH228499   4.882   4.073   4.668  0.4956 -0.5714  0.8413
 9512TIP3    H128500   4.792   4.047   4.649  0.4756 -0.8418  1.2825
 9512TIP3    H228501   4.917   4.102   4.583 -0.1355 -0.0438  0.7529
 9513TIP3   OH228502   3.528   5.224   4.339 -0.3149  0.4255 -0.3016
 9513TIP3    H128503   3.485   5.245   4.256  0.4852  0.1196 -0.8109
 9513TIP3    H228504   3.621   5.238   4.322 -0.0071 -0.9480  0.1224
 9514TIP3   OH228505   5.051   2.679   0.479 -0.0927 -0.0127  0.7661
 9514TIP3    H128506   5.088   2.633   0.403 -0.7877 -1.0370  1.0233
 9514TIP3    H228507   5.032   2.767   0.447  0.3959 -0.1742 -0.0107
 9515TIP3   OH228508   4.500   0.322   4.722 -0.4867 -0.3755 -0.0669
 9515TIP3    H128509   4.496   0.287   4.812 -2.0714 -0.0436  0.0098
 9515TIP3    H228510   4.552   0.402   4.730  0.7623 -1.1845  0.2479
 9516TIP3   OH228511   5.561   0.826   3.807  0.1578 -0.1533 -0.6646
 9516TIP3    H128512   5.565   0.857   3.717  0.3496  0.3483 -0.4886
 9516TIP3    H228513   5.506   0.890   3.852  0.4335 -0.1478 -0.3298
 9517TIP3   OH228514   3.495   3.603   4.420 -0.1870  0.8818  0.1570
 9517TIP3    H128515   3.521   3.545   4.349 -0.3290 -1.3668  1.8346
 9517TIP3    H228516   3.443   3.671   4.378  0.5334  0.1894 -1.9794
 9518TIP3   OH228517   0.861   2.469   1.668 -0.4215 -0.0406  0.5608
 9518TIP3    H128518   0.934   2.415   1.637 -0.0708  0.0553  1.2094
 9518TIP3    H228519   0.786   2.440   1.615 -0.5546 -2.1244  1.7647
 9519TIP3   OH228520   5.944   1.930   2.532 -0.3376  0.2283  0.2538
 9519TIP3    H128521   5.916   1.848   2.492 -0.1616  0.9036 -1.3126
 9519TIP3    H228522   5.869   1.958   2.584  0.1096 -1.6428  2.0646
 9520TIP3   OH228523   3.179   0.481   4.895  0.5735  0.2380  0.7002
 9520TIP3    H128524   3.271   0.505   4.901  0.8341 -0.9523  1.9964
 9520TIP3    H228525   3.173   0.398   4.942 -1.2182  0.4313  0.8790
 9521TIP3   OH228526   2.075   6.682   3.198 -0.0639 -1.0005  0.2542
 9521TIP3    H128527   2.081   6.762   3.249  1.4495 -0.0984 -1.2397
 9521TIP3    H228528   2.034   6.708   3.116  0.2797 -1.7793 -0.1833
 9522TIP3   OH228529   3.861   2.561   3.447  0.2093  0.4066 -0.0129
 9522TIP3    H128530   3.944   2.519   3.469  0.5845  1.9160  1.6417
 9522TIP3    H228531   3.885   2.639   3.397 -0.1870  0.9152  0.5698
 9523TIP3   OH228532   4.202   1.169   2.502  0.5281  0.1919  0.1776
 9523TIP3    H128533   4.228   1.252   2.463 -1.6305  0.8751  0.0217
 9523TIP3    H228534   4.125   1.143   2.451 -1.7377  0.5474  3.1766
 9524TIP3   OH228535   5.043   5.659   1.863  0.5682  0.0535 -0.0066
 9524TIP3    H128536   4.981   5.700   1.803  0.2773  0.7480  0.7443
 9524TIP3    H228537   5.087   5.592   1.811 -1.1618 -0.7948 -0.4223
 9525TIP3   OH228538   5.622   3.675   1.605  0.0107  0.6103  0.7318
 9525TIP3    H128539   5.656   3.630   1.528 -0.0136  1.6416  0.0981
 9525TIP3    H228540   5.617   3.608   1.673  0.4683 -0.2065 -0.0359
 9526TIP3   OH228541   3.636   1.217   2.609 -0.3917 -0.2171  0.4080
 9526TIP3    H128542   3.670   1.267   2.683  0.8709 -0.6568  0.1587
 9526TIP3    H228543   3.584   1.279   2.559 -0.8959  0.1975  1.4226
 9527TIP3   OH228544   0.494   3.936   0.222 -0.0172 -0.3210  0.2988
 9527TIP3    H128545   0.494   4.031   0.210 -0.5069 -0.4536 -0.9166
 9527TIP3    H228546   0.419   3.919   0.280 -0.7237 -0.0661 -0.5214
 9528TIP3   OH228547   7.129   1.750   1.854  0.5618  0.2144 -0.1042
 9528TIP3    H128548   7.142   1.845   1.851 -3.1043  0.8494 -2.7795
 9528TIP3    H228549   7.043   1.739   1.896  0.6413 -1.8892 -0.3937
 9529TIP3   OH228550   4.485   0.844   3.088 -0.5472  0.8115  0.6187
 9529TIP3    H128551   4.540   0.837   3.011 -0.2711  1.1442  0.7805
 9529TIP3    H228552   4.440   0.928   3.078 -1.8824  0.0561 -0.0608
 9530TIP3   OH228553   2.377   2.565   0.636 -0.0145 -0.1202  0.3005
 9530TIP3    H128554   2.292   2.527   0.660 -0.4132  0.2803 -0.4064
 9530TIP3    H228555   2.432   2.552   0.712 -1.1474  0.9006  1.3398
 9531TIP3   OH228556   3.160   0.882   4.342  0.0736 -0.1214 -0.0316
 9531TIP3    H128557   3.076   0.862   4.384  0.3439  0.5769  0.8581
 9531TIP3    H228558   3.219   0.903   4.414  1.1843 -1.1395 -0.6055
 9532TIP3   OH228559   5.648   6.694   5.784  0.2560  0.2750  0.1398
 9532TIP3    H128560   5.597   6.652   5.853  0.0959  0.3048  0.0405
 9532TIP3    H228561   5.596   6.682   5.705  0.0496  0.9407  0.1673
 9533TIP3   OH228562   1.595   0.585   1.530 -0.2074 -0.4730 -0.1952
 9533TIP3    H128563   1.510   0.629   1.533 -0.4943 -1.0631  0.4150
 9533TIP3    H228564   1.654   0.651   1.493 -0.5429  0.5923  1.1078
 9534TIP3   OH228565   0.771   3.966   1.422  1.1722 -0.7288  0.0625
 9534TIP3    H128566   0.740   4.052   1.393 -0.6027 -1.2403  0.3056
 9534TIP3    H228567   0.865   3.977   1.433  1.2758  0.6709 -1.6804
 9535TIP3   OH228568   1.329   2.093   4.337 -0.4354  0.5031  0.4590
 9535TIP3    H128569   1.286   2.143   4.406  0.0360 -1.0709  1.9788
 9535TIP3    H228570   1.298   2.004   4.349  1.3282 -0.2171  0.0441
 9536TIP3   OH228571   5.734   4.858   5.622 -0.1083 -0.1222 -0.2243
 9536TIP3    H128572   5.662   4.896   5.671 -1.5700  0.3427 -2.5918
 9536TIP3    H228573   5.760   4.925   5.559  1.9219 -0.5605  0.0493
 9537TIP3   OH228574   1.031   0.967   5.096  0.1354 -0.2442  0.1902
 9537TIP3    H128575   1.093   0.927   5.035  1.7157  0.8259  1.0074
 9537TIP3    H228576   0.973   0.896   5.121  0.4412 -1.0697 -1.3333
 9538TIP3   OH228577   5.468   4.521   4.904  0.0009  0.2489  0.0584
 9538TIP3    H128578   5.419   4.598   4.931 -0.3798 -0.6450  2.1400
 9538TIP3    H228579   5.405   4.469   4.853 -0.3487  0.4199  0.3121
 9539TIP3   OH228580   0.938   5.873   4.603  0.0898  0.4590  0.0173
 9539TIP3    H128581   0.991   5.901   4.677 -1.7875  0.9617  1.2693
 9539TIP3    H228582   0.948   5.778   4.600 -0.7055  0.2752  1.7347
 9540TIP3   OH228583   5.949   5.735   0.357 -0.0118 -0.0575 -0.6022
 9540TIP3    H128584   5.971   5.827   0.369  2.1148 -0.6162  0.2181
 9540TIP3    H228585   5.875   5.720   0.416 -0.8670  1.2523 -1.2880
 9541TIP3   OH228586   2.900   1.124   4.428  0.3808 -0.2615  1.0902
 9541TIP3    H128587   2.812   1.111   4.392  1.0943  0.4294 -1.0888
 9541TIP3    H228588   2.913   1.219   4.424  1.1303 -0.3410  1.6198
 9542TIP3   OH228589   4.796   2.714   0.865 -0.1816 -0.1003  0.7475
 9542TIP3    H128590   4.829   2.674   0.785  0.9516 -2.4164  2.2555
 9542TIP3    H228591   4.842   2.798   0.871  1.6380 -1.0075  0.2127
 9543TIP3   OH228592   0.266   6.741   3.479  0.3118  0.2687 -0.0150
 9543TIP3    H128593   0.212   6.683   3.533 -0.1029  0.6401 -0.0295
 9543TIP3    H228594   0.259   6.704   3.391 -0.2600  0.5516 -0.0948
 9544TIP3   OH228595   3.917   5.003   5.662 -0.4549 -0.8937 -0.1286
 9544TIP3    H128596   3.949   4.938   5.725  1.2856  0.9024  0.9474
 9544TIP3    H228597   3.995   5.027   5.612 -1.0213  0.4635 -0.3911
 9545TIP3   OH228598   2.106   5.989   0.144 -0.2724  0.1683 -0.5041
 9545TIP3    H128599   2.124   5.903   0.182  1.1445  0.0085 -1.4690
 9545TIP3    H228600   2.061   5.971   0.062  2.1275  0.1540 -1.9144
 9546TIP3   OH228601   4.227   1.763   4.176 -0.5049  0.5883  0.1077
 9546TIP3    H128602   4.191   1.695   4.233  1.2260 -0.0130  0.5279
 9546TIP3    H228603   4.150   1.808   4.141 -1.7131 -1.7373 -0.3986
 9547TIP3   OH228604   4.216   5.639   1.241  0.0812  0.2603 -0.0226
 9547TIP3    H128605   4.291   5.601   1.195 -0.2230  0.1100 -0.3957
 9547TIP3    H228606   4.142   5.625   1.183 -0.0109  1.6082 -0.2760
 9548TIP3   OH228607   4.988   6.270   0.106  0.0109  0.6007 -0.5268
 9548TIP3    H128608   4.999   6.351   0.155 -0.9828  1.8725 -2.3098
 9548TIP3    H228609   5.077   6.235   0.098  0.3159  0.8315  1.2841
 9549TIP3   OH228610   0.328   3.830   1.566 -0.9669 -0.2224 -0.2159
 9549TIP3    H128611   0.402   3.801   1.512 -1.0368  0.4872 -0.7216
 9549TIP3    H228612   0.319   3.763   1.633  1.1585  0.4440  0.8241
 9550TIP3   OH228613   2.703   0.156   5.482  0.0027  0.4840  0.0772
 9550TIP3    H128614   2.768   0.220   5.453 -0.3461  0.6934 -0.2466
 9550TIP3    H228615   2.703   0.163   5.578  0.1897  0.7466  0.0577
 9551TIP3   OH228616   3.285   2.285   2.213 -0.1437 -0.8167 -0.0794
 9551TIP3    H128617   3.302   2.342   2.138  0.6072  1.6084  1.8039
 9551TIP3    H228618   3.193   2.262   2.206  0.0825 -1.3207 -2.1135
 9552TIP3   OH228619   4.943   6.117   1.482 -0.3571 -0.2756  0.1645
 9552TIP3    H128620   4.892   6.194   1.459  0.4379 -0.0932 -1.0626
 9552TIP3    H228621   4.906   6.047   1.428 -1.0476 -0.7679  1.2392
 9553TIP3   OH228622   3.308   3.052   2.959 -0.4244 -0.9020 -0.0896
 9553TIP3    H128623   3.231   3.010   2.998  0.2099 -0.0980  2.2655
 9553TIP3    H228624   3.356   2.981   2.918 -1.6406 -1.6779 -0.2359
 9554TIP3   OH228625   4.167   5.227   0.228  0.1172  0.0631 -0.0419
 9554TIP3    H128626   4.255   5.192   0.239  0.6002  0.5275 -1.9479
 9554TIP3    H228627   4.125   5.168   0.165 -0.4222  0.6341 -0.2323
 9555TIP3   OH228628   1.805   3.431   1.178  0.2764  0.0536 -0.5692
 9555TIP3    H128629   1.876   3.495   1.177  0.7755 -0.4994 -0.9572
 9555TIP3    H228630   1.813   3.385   1.095  0.7175 -1.3666  0.2388
 9556TIP3   OH228631   2.342   5.802   4.841 -0.1244  0.4797 -1.0366
 9556TIP3    H128632   2.397   5.724   4.848 -0.2552  0.5053  0.6674
 9556TIP3    H228633   2.315   5.821   4.931 -1.8319  1.2592 -1.6605
 9557TIP3   OH228634   1.742   4.522   4.159 -0.6014 -0.4308 -0.5117
 9557TIP3    H128635   1.759   4.428   4.163  3.8688  0.2176  1.6677
 9557TIP3    H228636   1.759   4.545   4.067  1.7344 -1.3578 -0.3789
 9558TIP3   OH228637   5.642   1.677   0.507 -0.0079 -0.1456 -0.2124
 9558TIP3    H128638   5.674   1.588   0.497  0.6585 -0.1283  1.4936
 9558TIP3    H228639   5.655   1.717   0.421  0.7904 -1.3247 -0.6637
 9559TIP3   OH228640   0.583   2.495   3.358  0.5806  0.2272  0.1810
 9559TIP3    H128641   0.565   2.407   3.325 -1.5446  0.5922  0.2623
 9559TIP3    H228642   0.613   2.481   3.448 -1.5444 -0.3645  0.8483
 9560TIP3   OH228643   0.340   2.313   4.125 -0.1833 -0.0426  0.1822
 9560TIP3    H128644   0.389   2.315   4.043 -0.5477 -0.0707 -0.0415
 9560TIP3    H228645   0.326   2.406   4.145 -0.4237 -0.0395  0.0083
 9561TIP3   OH228646   6.717   2.865   0.554 -0.3520  0.7737  0.4537
 9561TIP3    H128647   6.808   2.848   0.530 -0.7888  0.1568 -0.8245
 9561TIP3    H228648   6.708   2.826   0.641  0.7234  1.2806  0.8191
 9562TIP3   OH228649   3.433   0.877   5.021  0.2885  0.0061  0.2379
 9562TIP3    H128650   3.500   0.944   5.010  2.5756 -2.1486  0.1931
 9562TIP3    H228651   3.416   0.875   5.115  1.0383 -0.1051  0.3758
 9563TIP3   OH228652   4.475   4.041   1.654  0.0498  0.3190 -0.3384
 9563TIP3    H128653   4.433   4.079   1.576 -1.4511  0.6928  0.5994
 9563TIP3    H228654   4.424   3.962   1.672  1.8578 -1.0942 -1.0556
 9564TIP3   OH228655   0.896   5.766   2.064 -0.9463  0.2682  0.0263
 9564TIP3    H128656   0.988   5.754   2.089 -0.6178 -0.4875 -1.4474
 9564TIP3    H228657   0.848   5.760   2.147  0.2075 -0.6313  0.6675
 9565TIP3   OH228658   1.036   4.099   1.464  0.3137 -0.8758  0.8279
 9565TIP3    H128659   1.048   4.163   1.535  0.1714 -0.8323  0.8135
 9565TIP3    H228660   1.057   4.147   1.384 -1.5415 -0.3022  0.6347
 9566TIP3   OH228661   5.937   4.563   4.662  0.3945 -0.0875  0.6975
 9566TIP3    H128662   5.877   4.584   4.734  1.8752  1.3177  1.5829
 9566TIP3    H228663   5.884   4.574   4.583 -0.7525  0.2098  1.4787
 9567TIP3   OH228664   2.677   1.757   3.010  0.1267 -0.1729  0.3688
 9567TIP3    H128665   2.651   1.737   2.920  0.6784  2.1316 -0.3579
 9567TIP3    H228666   2.629   1.836   3.033  2.0969  0.8967  1.0651
 9568TIP3   OH228667   0.187   5.347   3.006  0.8504 -0.1550  0.2366
 9568TIP3    H128668   0.154   5.262   3.035 -1.9060  0.6996 -0.1087
 9568TIP3    H228669   0.260   5.365   3.065  1.1585 -2.4928  0.6743
 9569TIP3   OH228670   1.605   1.457   5.246  0.3056 -0.1554 -0.2199
 9569TIP3    H128671   1.531   1.397   5.241  1.1862 -1.5091  1.6347
 9569TIP3    H228672   1.651   1.445   5.163  1.1546 -3.1091  0.5428
 9570TIP3   OH228673   5.351   4.848   0.456  0.2783  0.0810  0.1364
 9570TIP3    H128674   5.274   4.861   0.401  0.6679  1.5196 -0.0966
 9570TIP3    H228675   5.350   4.754   0.476 -1.6645  0.1140  0.3653
 9571TIP3   OH228676   1.084   5.961   3.447 -0.1573  0.3217 -0.2194
 9571TIP3    H128677   1.018   5.924   3.388  0.0660 -0.4365 -0.0116
 9571TIP3    H228678   1.134   5.885   3.477  1.2769  0.9611 -0.9165
 9572TIP3   OH228679   2.026   4.662   4.504  0.1841  0.0220  0.0938
 9572TIP3    H128680   1.963   4.681   4.434 -0.6430 -0.9474  0.5508
 9572TIP3    H228681   2.088   4.601   4.464 -0.0465 -0.2061  0.0818
 9573TIP3   OH228682   4.367   3.692   5.091 -0.2638  0.6052 -0.2391
 9573TIP3    H128683   4.282   3.654   5.111  0.0473 -0.2783 -0.5797
 9573TIP3    H228684   4.393   3.735   5.173 -0.1878 -0.7454  0.4791
 9574TIP3   OH228685   6.248   3.494   2.210 -0.0205  0.4691  0.5777
 9574TIP3    H128686   6.247   3.403   2.180 -0.2531  0.7636 -0.3670
 9574TIP3    H228687   6.312   3.496   2.281 -0.1704 -0.4724  0.7463
 9575TIP3   OH228688   1.073   0.303   0.744  0.2232  0.4658  0.5914
 9575TIP3    H128689   0.987   0.336   0.719  0.4986  0.3520 -0.5666
 9575TIP3    H228690   1.104   0.256   0.667  0.5749 -1.0204  1.6023
 9576TIP3   OH228691   1.432   4.011   2.907  0.1867 -0.2668 -0.0203
 9576TIP3    H128692   1.512   3.969   2.874  0.0853 -1.0150  0.6445
 9576TIP3    H228693   1.408   3.958   2.984 -1.4686 -0.6325 -0.7584
 9577TIP3   OH228694   2.580   5.367   0.705 -0.4541 -0.6389  0.0047
 9577TIP3    H128695   2.642   5.403   0.768  1.3768 -1.8327 -1.0174
 9577TIP3    H228696   2.584   5.272   0.719  0.2870 -0.9689 -2.0965
 9578TIP3   OH228697   2.143   3.258   3.485 -0.1136  0.9149 -0.1580
 9578TIP3    H128698   2.096   3.278   3.566 -1.0316  2.2430 -0.9815
 9578TIP3    H228699   2.084   3.198   3.438 -0.4227  1.5518 -0.6079
 9579TIP3   OH228700   1.473   2.414   0.137 -0.0717  0.2315 -0.3439
 9579TIP3    H128701   1.454   2.346   0.072 -0.3918  0.3674 -0.3956
 9579TIP3    H228702   1.544   2.465   0.097 -0.0410  0.1146 -0.4409
 9580TIP3   OH228703   4.423   0.799   3.989 -0.2531 -0.9946 -0.1403
 9580TIP3    H128704   4.333   0.811   3.959 -0.8129 -2.9737  0.5829
 9580TIP3    H228705   4.420   0.718   4.040  1.9411 -1.0917 -0.0969
 9581TIP3   OH228706   0.691   5.568   4.689 -0.0074 -0.1814  0.0737
 9581TIP3    H128707   0.695   5.618   4.771 -1.2261 -0.5881  0.3971
 9581TIP3    H228708   0.657   5.630   4.625 -3.3015 -0.9547  0.8640
 9582TIP3   OH228709   0.679   3.569   3.886  0.2347  0.3244 -0.7184
 9582TIP3    H128710   0.720   3.643   3.843  0.0365 -0.2673 -1.9785
 9582TIP3    H228711   0.725   3.492   3.852 -0.3872 -0.2006 -0.4052
 9583TIP3   OH228712   2.292   2.617   3.974 -0.1415 -0.0980  0.2359
 9583TIP3    H128713   2.374   2.629   3.928  0.1782  0.3223  0.9016
 9583TIP3    H228714   2.225   2.627   3.907  0.3301  0.1478 -0.2031
 9584TIP3   OH228715   6.999   0.380   5.202  0.0682  0.1629 -0.1493
 9584TIP3    H128716   7.004   0.302   5.258  0.3748 -0.7226 -1.3772
 9584TIP3    H228717   7.090   0.408   5.192  0.4707 -1.6421 -2.7986
 9585TIP3   OH228718   2.760   0.301   1.147  0.0482  0.3193  0.0939
 9585TIP3    H128719   2.701   0.345   1.209  0.9937  0.1571  1.1316
 9585TIP3    H228720   2.831   0.267   1.201  0.7692 -0.0579 -1.0585
 9586TIP3   OH228721   6.648   5.759   4.523  0.1638  0.2729  0.6485
 9586TIP3    H128722   6.707   5.690   4.493 -0.3469 -0.0402  0.3439
 9586TIP3    H228723   6.570   5.749   4.468 -0.2208  0.5983  1.1288
 9587TIP3   OH228724   4.331   2.373   4.333 -0.6406  0.3749 -0.2413
 9587TIP3    H128725   4.263   2.305   4.337  0.7642 -1.0416  1.0679
 9587TIP3    H228726   4.399   2.335   4.278  0.7113  0.1312  1.5251
 9588TIP3   OH228727   1.214   4.898   3.738 -0.1690 -0.4604  0.1392
 9588TIP3    H128728   1.263   4.864   3.663  1.9857  0.7541  0.8918
 9588TIP3    H228729   1.232   4.992   3.737 -1.3986 -0.1891  1.2845
 9589TIP3   OH228730   0.679   1.903   5.748  0.4220 -0.2535 -0.1445
 9589TIP3    H128731   0.736   1.913   5.825 -0.3522  1.3178  0.2705
 9589TIP3    H228732   0.666   1.808   5.740  3.6246 -0.7390 -0.6972
 9590TIP3   OH228733   3.377   2.430   5.115 -0.4022 -0.0174 -0.5701
 9590TIP3    H128734   3.444   2.489   5.079 -0.3810  0.9993  1.0040
 9590TIP3    H228735   3.335   2.392   5.039  0.5074  1.0097 -1.6331
 9591TIP3   OH228736   4.528   0.570   2.155 -0.0669 -0.5989 -0.7602
 9591TIP3    H128737   4.500   0.478   2.153  1.3564 -1.0478 -0.7668
 9591TIP3    H228738   4.621   0.567   2.176 -0.5625  0.9684  2.2440
 9592TIP3   OH228739   5.228   6.353   1.935  0.3383 -0.1428  0.4174
 9592TIP3    H128740   5.207   6.306   1.854  0.6385 -0.2942  0.4218
 9592TIP3    H228741   5.256   6.440   1.906 -0.2907  0.0585  0.4141
 9593TIP3   OH228742   6.294   6.653   2.985 -0.0262  0.5550  0.3058
 9593TIP3    H128743   6.208   6.659   2.944  0.4085  1.8466 -0.4623
 9593TIP3    H228744   6.298   6.728   3.043  0.1236 -0.1908  1.2952
 9594TIP3   OH228745   0.040   4.692   0.837  0.2669  0.1017  0.1298
 9594TIP3    H128746   0.072   4.780   0.817 -0.2386  0.1607 -0.4774
 9594TIP3    H228747  -0.055   4.699   0.828  0.2190 -0.4856  0.1560
 9595TIP3   OH228748   3.644   5.373   1.876 -0.0916  0.4211  0.1960
 9595TIP3    H128749   3.696   5.420   1.941 -2.0312  1.4692  1.0791
 9595TIP3    H228750   3.578   5.327   1.928 -2.2238  1.9593 -1.0258
 9596TIP3   OH228751   5.971   4.495   5.821 -0.0890  0.6929  0.2537
 9596TIP3    H128752   6.020   4.417   5.796  0.2699  1.4328 -1.4343
 9596TIP3    H228753   5.899   4.499   5.759 -0.7995  1.0692  1.0761
 9597TIP3   OH228754   1.705   4.678   4.917  0.0329  0.3015  0.3400
 9597TIP3    H128755   1.723   4.661   4.824  0.0589  0.5373  0.3025
 9597TIP3    H228756   1.700   4.773   4.923 -0.4150  0.2693  0.4970
 9598TIP3   OH228757   3.862   4.183   5.190  0.2016 -0.1729 -0.5251
 9598TIP3    H128758   3.878   4.245   5.262 -0.8712  0.3289 -0.6993
 9598TIP3    H228759   3.882   4.233   5.111  0.4385 -0.4173 -0.6209
 9599TIP3   OH228760   4.894   2.047   3.679  0.3112 -0.4161 -0.6348
 9599TIP3    H128761   4.845   1.967   3.658  0.2121  0.0454 -2.3465
 9599TIP3    H228762   4.828   2.116   3.684  0.4020 -0.3989  0.8089
 9600TIP3   OH228763   6.912   0.281   3.875  0.0682  0.2286 -0.2169
 9600TIP3    H128764   6.909   0.255   3.783 -0.4152  1.3781 -0.5504
 9600TIP3    H228765   6.821   0.296   3.898  0.2105  0.1812  0.3871
 9601TIP3   OH228766   3.475   2.423   2.577  0.0694  0.1828  0.2448
 9601TIP3    H128767   3.462   2.372   2.656  0.4684 -3.0314 -1.5795
 9601TIP3    H228768   3.552   2.477   2.595 -0.5829  0.4582  2.4050
 9602TIP3   OH228769   4.997   1.425   1.138 -0.5544  0.1179 -0.2250
 9602TIP3    H128770   5.035   1.409   1.224 -1.6675  1.2455  0.5109
 9602TIP3    H228771   4.912   1.382   1.141 -0.1228 -0.8579 -1.2178
 9603TIP3   OH228772   0.079   0.524   3.929 -0.4641  0.4563  0.1619
 9603TIP3    H128773   0.163   0.520   3.975 -0.8831  0.9331  0.9938
 9603TIP3    H228774   0.050   0.433   3.924 -0.6052  0.4248  1.2448
 9604TIP3   OH228775   5.104   0.688   3.135  0.1278  0.2326  0.6991
 9604TIP3    H128776   5.099   0.758   3.200 -0.5947  0.3246  0.5485
 9604TIP3    H228777   5.045   0.716   3.065  1.7569  0.6970 -0.5506
 9605TIP3   OH228778   2.734   3.190   0.275 -0.5659  0.1143  0.1851
 9605TIP3    H128779   2.641   3.198   0.253 -0.7014 -1.9083 -0.1435
 9605TIP3    H228780   2.734   3.167   0.368 -0.3971  0.2003  0.2061
 9606TIP3   OH228781   6.899   3.505   4.334 -0.3114 -0.4235 -0.0015
 9606TIP3    H128782   6.983   3.548   4.321 -0.3759 -0.1511  0.4587
 9606TIP3    H228783   6.871   3.532   4.422 -0.5243 -1.1157  0.1554
 9607TIP3   OH228784   1.310   0.126   2.054  0.1200 -0.1581  0.0925
 9607TIP3    H128785   1.347   0.159   1.972 -1.0948 -0.1843 -0.4900
 9607TIP3    H228786   1.322   0.031   2.049  0.4439 -0.1202  0.1477
 9608TIP3   OH228787   4.513   5.036   4.184  0.0649  0.2367  0.1098
 9608TIP3    H128788   4.574   5.027   4.257  1.8631  0.9107 -1.2303
 9608TIP3    H228789   4.438   4.983   4.209 -0.3598  2.0992  3.3885
 9609TIP3   OH228790   3.079   4.790   4.649 -0.3426  0.1401  1.0686
 9609TIP3    H128791   2.993   4.828   4.636 -0.2092  0.0139 -0.4054
 9609TIP3    H228792   3.093   4.792   4.744 -1.6864  0.7381  1.2720
 9610TIP3   OH228793   3.569   1.693   1.149  0.1817  0.0898  0.0232
 9610TIP3    H128794   3.582   1.781   1.113  0.4247  0.0001 -0.1096
 9610TIP3    H228795   3.474   1.682   1.153  0.1500 -0.0000 -0.8375
 9611TIP3   OH228796   6.619   0.248   3.258  0.4629 -0.3413 -0.8978
 9611TIP3    H128797   6.605   0.341   3.278  1.1044 -0.0989 -1.5302
 9611TIP3    H228798   6.714   0.240   3.248  0.4612 -1.1890 -0.2746
 9612TIP3   OH228799   3.861   2.886   0.070  0.2257  0.2831  0.2117
 9612TIP3    H128800   3.814   2.803   0.082  1.7343 -0.8475 -1.2634
 9612TIP3    H228801   3.817   2.929  -0.002  1.3709 -0.7997 -1.2021
 9613TIP3   OH228802   1.543   4.140   4.434 -0.0048 -0.0729  0.4998
 9613TIP3    H128803   1.616   4.196   4.409 -0.0818 -0.4368 -0.5529
 9613TIP3    H228804   1.577   4.051   4.427 -0.8137 -0.2899 -0.9243
 9614TIP3   OH228805   1.775   3.171   3.919 -0.2701  0.2432 -0.2308
 9614TIP3    H128806   1.757   3.090   3.967 -0.1295 -0.7047 -1.7270
 9614TIP3    H228807   1.703   3.179   3.856  0.3771  0.5948 -0.9475
 9615TIP3   OH228808   3.576   5.936   3.229 -0.3935 -0.1510  0.5418
 9615TIP3    H128809   3.509   5.997   3.199 -0.7076 -0.3617  0.8182
 9615TIP3    H228810   3.654   5.961   3.179 -0.8502 -0.3636 -0.2914
 9616TIP3   OH228811   2.240   4.402   1.086 -0.2302  0.2768  0.0674
 9616TIP3    H128812   2.175   4.445   1.031 -1.0314 -0.9556  0.0173
 9616TIP3    H228813   2.189   4.359   1.155  0.6472  0.5586  0.9147
 9617TIP3   OH228814   2.552   1.718   1.284 -0.1365  0.1663  0.1260
 9617TIP3    H128815   2.585   1.633   1.253  0.0308 -0.2417  1.3777
 9617TIP3    H228816   2.568   1.717   1.378 -1.8503  0.8185  0.4540
 9618TIP3   OH228817   3.986   1.156   3.315  0.1352 -0.2250 -0.8640
 9618TIP3    H128818   4.030   1.073   3.295  3.1220  1.7532 -3.5132
 9618TIP3    H228819   4.032   1.188   3.393 -1.3495 -1.1839  0.4561
 9619TIP3   OH228820   6.923   2.385   4.765 -0.4638  0.0842  0.0739
 9619TIP3    H128821   6.944   2.466   4.719  0.5700  0.0747  0.5064
 9619TIP3    H228822   6.858   2.342   4.709  0.1688  0.4594 -0.9749
 9620TIP3   OH228823   2.989   3.705   0.519 -0.9845 -0.4362 -0.3685
 9620TIP3    H128824   3.079   3.675   0.502 -0.7747  1.0194 -2.2342
 9620TIP3    H228825   2.981   3.705   0.614  2.3112  2.7522  0.1354
 9621TIP3   OH228826   5.095   1.558   5.858 -0.3295 -0.1235 -0.0022
 9621TIP3    H128827   5.042   1.615   5.803  1.5021 -0.0511 -1.8340
 9621TIP3    H228828   5.111   1.481   5.804 -1.3990 -1.6889  1.8214
 9622TIP3   OH228829   0.400   5.296   0.126 -0.2048 -0.0027  0.1457
 9622TIP3    H128830   0.329   5.273   0.067 -0.4837  0.6812  0.1992
 9622TIP3    H228831   0.392   5.391   0.137 -0.3322 -0.1369  1.4940
 9623TIP3   OH228832   2.711   3.374   5.707  0.2010 -0.7765  0.1856
 9623TIP3    H128833   2.639   3.433   5.728 -0.0193 -1.4029  1.2501
 9623TIP3    H228834   2.788   3.417   5.745  0.2713 -0.4950 -0.2659
 9624TIP3   OH228835   4.305   3.996   4.152 -0.3578 -0.1682  0.1020
 9624TIP3    H128836   4.302   3.945   4.233  1.6830 -0.0150  0.3453
 9624TIP3    H228837   4.214   4.008   4.127 -0.9803 -1.6519  1.4713
 9625TIP3   OH228838   3.145   0.803   4.082  0.3741 -0.4789  0.3162
 9625TIP3    H128839   3.054   0.790   4.057  0.1175  0.5272  0.6647
 9625TIP3    H228840   3.140   0.839   4.171  1.2183 -3.1236  1.5491
 9626TIP3   OH228841   0.060   4.368   3.082 -0.3333 -0.3519  0.4206
 9626TIP3    H128842   0.032   4.315   3.156 -4.6349 -0.1226 -0.7804
 9626TIP3    H228843   0.078   4.305   3.012 -0.8998 -0.4140  0.3275
 9627TIP3   OH228844   5.985   4.871   4.347 -0.1951 -0.3950 -0.4779
 9627TIP3    H128845   5.985   4.776   4.333  4.2058 -1.0488  2.1353
 9627TIP3    H228846   6.019   4.907   4.265 -0.0689 -1.2857 -0.8288
 9628TIP3   OH228847   1.124   1.731   5.271  0.3135  0.6493 -0.0899
 9628TIP3    H128848   1.174   1.740   5.352 -0.5384  1.9398  0.3332
 9628TIP3    H228849   1.187   1.699   5.207  1.6171  1.9072  0.5021
 9629TIP3   OH228850   5.225   4.712   3.052 -0.0623  0.0184  0.3185
 9629TIP3    H128851   5.209   4.627   3.011 -0.9408 -0.3920  1.4231
 9629TIP3    H228852   5.318   4.712   3.073 -0.3120 -1.3526  1.6513
 9630TIP3   OH228853   2.848   5.527   4.871 -0.1971 -0.6410 -0.4351
 9630TIP3    H128854   2.938   5.547   4.844 -0.9199  0.8553 -1.8774
 9630TIP3    H228855   2.796   5.598   4.834 -1.7342 -0.3066  2.1242
 9631TIP3   OH228856   6.993   3.868   4.322  0.1534 -0.4334 -0.0891
 9631TIP3    H128857   7.022   3.789   4.367  1.4990 -0.2351 -0.5804
 9631TIP3    H228858   7.002   3.847   4.229 -3.1133 -1.0474 -0.3975
 9632TIP3   OH228859   2.279   5.758   5.798  0.1329 -0.2199  0.4741
 9632TIP3    H128860   2.264   5.804   5.881  0.2214  0.1420  0.2903
 9632TIP3    H228861   2.271   5.665   5.821  0.8770 -0.1568  1.0304
 9633TIP3   OH228862   7.128   6.108   2.581  0.5091 -0.0235 -0.4701
 9633TIP3    H128863   7.167   6.059   2.654  1.2003  0.8005 -0.2655
 9633TIP3    H228864   7.204   6.142   2.533  0.0466  1.1956 -0.3633
 9634TIP3   OH228865   0.441   2.166   3.409  0.1142 -0.2970  0.0879
 9634TIP3    H128866   0.533   2.186   3.424  0.3868 -1.2714 -0.2021
 9634TIP3    H228867   0.396   2.199   3.487  0.7306  0.0171  0.3166
 9635TIP3   OH228868   0.426   3.926   4.766 -0.5852 -0.0693  0.2797
 9635TIP3    H128869   0.365   3.858   4.737  0.0589 -1.1728  1.4033
 9635TIP3    H228870   0.471   3.953   4.686 -2.8141  1.1076 -0.6509
 9636TIP3   OH228871   2.923   0.804   3.296 -0.2077 -0.1442 -0.0495
 9636TIP3    H128872   2.926   0.891   3.256  0.4964  0.0411  0.3929
 9636TIP3    H228873   3.014   0.785   3.319 -0.4054 -0.8528  0.1762
 9637TIP3   OH228874   6.343   0.263   4.054 -0.2135  0.0558 -0.5082
 9637TIP3    H128875   6.331   0.342   4.107 -0.5985  0.2078 -0.8175
 9637TIP3    H228876   6.258   0.249   4.012 -0.4513 -1.1100  0.3380
 9638TIP3   OH228877   3.537   2.277   2.343  0.5072  0.0303 -0.0968
 9638TIP3    H128878   3.531   2.339   2.416 -0.9436 -2.1094  1.7540
 9638TIP3    H228879   3.451   2.278   2.302  1.0137  0.4900 -1.1767
 9639TIP3   OH228880   2.350   5.576   2.017  0.5295 -0.1794  0.0809
 9639TIP3    H128881   2.278   5.576   1.954  0.4335 -3.3697 -0.0071
 9639TIP3    H228882   2.308   5.590   2.102  0.0706 -0.0089 -0.1735
 9640TIP3   OH228883   6.535   4.559   0.137  0.2827  0.4593 -0.0725
 9640TIP3    H128884   6.572   4.475   0.162  0.0228  0.6429  0.9931
 9640TIP3    H228885   6.589   4.624   0.183 -0.3838  0.7945  0.2591
 9641TIP3   OH228886   2.079   6.679   2.631  0.1318  0.5895  0.6391
 9641TIP3    H128887   2.175   6.681   2.638  0.4038 -1.4302 -1.2922
 9641TIP3    H228888   2.054   6.771   2.620  2.2116  0.9627 -2.0731
 9642TIP3   OH228889   2.449   1.853   5.863  0.1270  0.4911 -0.5035
 9642TIP3    H128890   2.461   1.844   5.769  1.6262 -0.1703 -0.2869
 9642TIP3    H228891   2.475   1.942   5.883  2.0873 -0.0468 -0.4479
 9643TIP3   OH228892   6.830   3.043   3.930 -0.4909 -0.4391  0.1749
 9643TIP3    H128893   6.884   3.083   3.862 -0.0356 -0.6085  0.4303
 9643TIP3    H228894   6.893   3.000   3.988 -0.7151  1.2509  1.7430
 9644TIP3   OH228895   2.659   4.581   3.884 -0.2497  0.1376 -0.0398
 9644TIP3    H128896   2.660   4.507   3.944 -0.3933 -0.7368 -1.0800
 9644TIP3    H228897   2.566   4.605   3.877 -0.2192  0.3185  0.1881
 9645TIP3   OH228898   5.009   5.196   2.528 -0.1317  0.7556 -0.0538
 9645TIP3    H128899   4.955   5.205   2.450 -1.5108 -1.7227  0.5164
 9645TIP3    H228900   5.055   5.280   2.535 -0.1571  1.1852 -3.3215
 9646TIP3   OH228901   4.897   4.721   1.314  0.4541 -0.3285  0.1727
 9646TIP3    H128902   4.965   4.785   1.335 -0.2125  0.6695 -0.5743
 9646TIP3    H228903   4.929   4.639   1.350  1.1247  0.5107  1.5824
 9647TIP3   OH228904   2.588   5.436   1.028  0.2135 -0.3416 -0.0898
 9647TIP3    H128905   2.637   5.356   1.011  0.7837 -0.3148  1.3070
 9647TIP3    H228906   2.505   5.406   1.065  0.2935 -0.3051  0.1219
 9648TIP3   OH228907   5.805   3.561   3.196 -0.6065  0.0752 -0.8319
 9648TIP3    H128908   5.714   3.534   3.181 -0.9389 -0.3040  1.4715
 9648TIP3    H228909   5.843   3.488   3.244  0.2638  1.1794  0.2029
 9649TIP3   OH228910   4.385   6.043   4.047  0.0810 -0.0964  0.1915
 9649TIP3    H128911   4.413   6.113   4.106  0.5874 -0.6136  0.5640
 9649TIP3    H228912   4.378   6.086   3.961 -1.4513  0.8476  0.7483
 9650TIP3   OH228913   1.637   3.172   4.385  0.0640  0.4613 -0.4551
 9650TIP3    H128914   1.591   3.254   4.364  0.1602  0.8908  0.9188
 9650TIP3    H228915   1.704   3.198   4.448  0.9322 -0.4866 -0.9652
 9651TIP3   OH228916   7.160   0.235   0.183 -0.4383 -0.2753 -0.2965
 9651TIP3    H128917   7.154   0.311   0.241 -2.7725 -0.6761  0.1111
 9651TIP3    H228918   7.212   0.265   0.109  2.7436  0.2339  1.9468
 9652TIP3   OH228919   2.135   5.945   1.038 -0.2093  0.2172 -0.2327
 9652TIP3    H128920   2.050   5.973   1.073  0.0048  2.1500 -1.0913
 9652TIP3    H228921   2.145   5.997   0.958  1.0589 -1.1910 -1.0345
 9653TIP3   OH228922   7.000   3.288   1.138  0.1614  0.3616 -0.0323
 9653TIP3    H128923   6.953   3.206   1.127  0.3846  0.0881  0.9526
 9653TIP3    H228924   6.964   3.326   1.218  1.6224  0.1185  0.7927
 9654TIP3   OH228925   5.408   6.218   5.087 -0.3524  0.4750 -0.4241
 9654TIP3    H128926   5.342   6.218   5.018 -1.0711 -0.3028  0.2366
 9654TIP3    H228927   5.372   6.276   5.155 -1.3035 -1.3994  0.7593
 9655TIP3   OH228928   3.084   4.476   4.205  0.1998  0.4614  0.1409
 9655TIP3    H128929   3.132   4.522   4.136  2.5034 -0.9780  0.6915
 9655TIP3    H228930   3.119   4.512   4.286  1.7377 -1.8011  0.5752
 9656TIP3   OH228931   5.773   2.069   4.012 -0.4079 -0.2096 -0.1698
 9656TIP3    H128932   5.704   2.006   4.032 -1.1667 -0.3067 -2.7533
 9656TIP3    H228933   5.730   2.155   4.018 -0.4711 -0.2015 -0.7408
 9657TIP3   OH228934   6.975   5.882   5.657  0.3316  0.0204  0.0254
 9657TIP3    H128935   6.925   5.834   5.591  2.5968  0.0889 -1.8812
 9657TIP3    H228936   6.998   5.816   5.722 -1.7507 -0.0940  0.7382
 9658TIP3   OH228937   6.393   5.774   0.475  0.0439 -0.0149 -0.3350
 9658TIP3    H128938   6.324   5.709   0.482  0.3484 -0.1663  1.8858
 9658TIP3    H228939   6.348   5.853   0.444 -0.9691 -0.3516  0.2153
 9659TIP3   OH228940   4.895   2.086   4.487 -0.1180 -0.1751  0.2728
 9659TIP3    H128941   4.951   2.109   4.561  0.7550  1.5772 -0.8846
 9659TIP3    H228942   4.814   2.135   4.502  0.5324  1.2092 -0.5274
 9660TIP3   OH228943   2.788   4.736   0.374  0.0323  0.2184  0.0057
 9660TIP3    H128944   2.702   4.763   0.405  0.0931 -0.0612  0.4393
 9660TIP3    H228945   2.830   4.697   0.451 -0.1665 -1.3868 -0.6636
 9661TIP3   OH228946   6.380   0.355   0.271  0.3497  0.0672  0.6854
 9661TIP3    H128947   6.333   0.299   0.334 -0.3825 -0.1870 -0.0807
 9661TIP3    H228948   6.389   0.300   0.193  0.0592  0.8601  0.0926
 9662TIP3   OH228949   5.350   5.992   0.818  0.0005 -0.1347  0.7491
 9662TIP3    H128950   5.295   6.069   0.831  0.9188  0.5829  0.5486
 9662TIP3    H228951   5.335   5.939   0.896 -0.1839  0.5524  1.1950
 9663TIP3   OH228952   7.101   4.513   4.421 -0.1364  0.3408 -0.2559
 9663TIP3    H128953   7.062   4.435   4.382 -0.1326  1.3066 -2.3074
 9663TIP3    H228954   7.072   4.511   4.512 -0.6229 -1.7212 -0.4112
 9664TIP3   OH228955   7.166   2.800   0.918 -0.3553  0.2401 -0.4032
 9664TIP3    H128956   7.203   2.837   0.838  1.8007 -0.0493  0.3896
 9664TIP3    H228957   7.136   2.876   0.968  1.1829  0.7066 -0.1475
 9665TIP3   OH228958   6.311   2.354   0.588 -0.4894 -0.0537 -0.5129
 9665TIP3    H128959   6.283   2.332   0.499  0.5595  0.6221 -1.0411
 9665TIP3    H228960   6.383   2.294   0.606  1.8715  2.2168 -1.6617
 9666TIP3   OH228961   1.486   6.029   0.951  0.6026  0.1214 -0.5173
 9666TIP3    H128962   1.491   6.114   0.993  1.1113  0.0023 -0.3245
 9666TIP3    H228963   1.392   6.008   0.949  0.5145  0.4737 -0.1459
 9667TIP3   OH228964   2.655   3.715   2.450 -0.1584 -0.3755  0.2588
 9667TIP3    H128965   2.704   3.658   2.509  1.3799  2.3568  1.8290
 9667TIP3    H228966   2.568   3.722   2.490 -0.9256 -2.7385 -0.8237
 9668TIP3   OH228967   1.116   3.239   5.068  0.0445  0.0580  0.7518
 9668TIP3    H128968   1.177   3.276   5.132  2.2286 -1.2098 -0.4501
 9668TIP3    H228969   1.095   3.152   5.102  0.8318 -0.4296  0.0476
 9669TIP3   OH228970   4.841   4.009   5.835 -0.0256  0.2839  0.2943
 9669TIP3    H128971   4.844   3.971   5.747  0.6975 -0.4383  0.6113
 9669TIP3    H228972   4.894   4.088   5.830  1.2738 -0.5419  0.4158
 9670TIP3   OH228973   4.360   4.649   3.501  0.4052  0.3121 -0.1868
 9670TIP3    H128974   4.359   4.734   3.455  0.4799  0.5039  0.1654
 9670TIP3    H228975   4.351   4.585   3.431  2.6729  0.5009 -0.7188
 9671TIP3   OH228976   5.077   0.868   3.352 -0.1088 -0.1006  0.1444
 9671TIP3    H128977   5.120   0.925   3.416  0.7562 -0.3123 -0.2420
 9671TIP3    H228978   5.074   0.783   3.394 -0.5964  0.0221  0.3645
 9672TIP3   OH228979   3.649   5.352   0.009  0.2802  0.1201 -0.7964
 9672TIP3    H128980   3.585   5.423   0.021 -0.4187 -0.1834 -2.4742
 9672TIP3    H228981   3.733   5.397   0.003  0.0128  0.6891 -0.4306
 9673TIP3   OH228982   3.687   4.981   5.505 -0.0805 -0.2583  0.4918
 9673TIP3    H128983   3.690   5.065   5.459 -0.9806 -0.7496 -0.5033
 9673TIP3    H228984   3.769   4.978   5.555  0.8408  0.3858 -0.9251
 9674TIP3   OH228985   3.011   3.195   5.166 -0.0458  0.2785  0.3999
 9674TIP3    H128986   3.002   3.120   5.107  1.8071  0.8889 -0.7293
 9674TIP3    H228987   2.935   3.250   5.147 -1.6134 -1.3849  1.4731
 9675TIP3   OH228988   3.672   3.446   2.615  0.2713 -0.3287 -0.2190
 9675TIP3    H128989   3.666   3.520   2.675  1.7758 -0.0303 -0.4062
 9675TIP3    H228990   3.603   3.463   2.550 -0.5695 -0.0315  0.7190
 9676TIP3   OH228991   4.255   5.660   2.446 -0.6737 -0.2412 -0.0410
 9676TIP3    H128992   4.274   5.721   2.517 -0.7201 -1.4334  1.0421
 9676TIP3    H228993   4.164   5.633   2.462 -1.5747  1.3430 -2.0328
 9677TIP3   OH228994   1.928   3.700   0.845  1.2767 -0.0129  0.2289
 9677TIP3    H128995   1.945   3.760   0.773  2.6890 -0.1240  0.4479
 9677TIP3    H228996   1.861   3.641   0.812  0.9391  0.7669 -0.5092
 9678TIP3   OH228997   5.090   0.370   3.973 -0.8567  0.1093 -0.1271
 9678TIP3    H128998   5.154   0.301   3.987 -0.9978 -0.2000 -0.9164
 9678TIP3    H228999   5.115   0.408   3.888 -2.0289 -0.3843 -0.7136
 9679TIP3   OH229000   4.666   0.049   5.469 -0.4549 -0.1729 -0.0028
 9679TIP3    H129001   4.744  -0.001   5.443  0.0651  0.9398 -0.6410
 9679TIP3    H229002   4.681   0.070   5.562 -0.1013 -0.1683 -0.0593
 9680TIP3   OH229003   1.544   1.046   1.627 -0.5069 -0.0001 -0.5485
 9680TIP3    H129004   1.579   1.067   1.541  1.3205 -1.8699 -0.3408
 9680TIP3    H229005   1.504   1.127   1.657  0.2560  1.1559 -2.4684
 9681TIP3   OH229006   6.569   2.078   1.097 -0.1418  0.6670 -0.0241
 9681TIP3    H129007   6.561   2.007   1.033 -1.2615  0.3711  0.4279
 9681TIP3    H229008   6.654   2.064   1.138 -0.4968 -0.6353  0.3112
 9682TIP3   OH229009   0.139   3.553   1.914  0.7209  0.5863  0.0360
 9682TIP3    H129010   0.154   3.580   2.004  0.6848 -0.7494  0.4562
 9682TIP3    H229011   0.218   3.581   1.867  0.6358  1.4991  0.4151
 9683TIP3   OH229012   0.368   3.875   4.251 -0.4538  0.1669  0.2781
 9683TIP3    H129013   0.447   3.895   4.202 -1.3608 -0.1930 -1.4129
 9683TIP3    H229014   0.399   3.853   4.339  1.2965  0.1012 -0.3161
 9684TIP3   OH229015   6.567   3.093   1.255  0.0292 -0.0043  0.7083
 9684TIP3    H129016   6.596   3.135   1.174  1.3118  0.0155  1.1581
 9684TIP3    H229017   6.634   3.028   1.274 -0.7407 -0.6613  1.2668
 9685TIP3   OH229018   6.017   1.471   0.844 -0.1005 -0.7823 -0.0177
 9685TIP3    H129019   6.069   1.549   0.864  0.8429 -1.4163  0.0685
 9685TIP3    H229020   6.080   1.409   0.807 -0.9074 -1.3714 -0.4415
 9686TIP3   OH229021   3.836   4.820   2.564  0.0996 -0.4473 -0.2279
 9686TIP3    H129022   3.824   4.907   2.525  2.4257 -0.3135 -0.7782
 9686TIP3    H229023   3.915   4.828   2.618 -1.2011 -1.5227  1.9709
 9687TIP3   OH229024   6.790   2.223   4.297  0.0358  0.5951 -0.0646
 9687TIP3    H129025   6.793   2.130   4.321  0.0088  0.7932  0.7573
 9687TIP3    H229026   6.833   2.268   4.370 -0.1145  1.2454 -0.3668
 9688TIP3   OH229027   1.700   6.467   2.115 -0.0221  0.1647 -0.0869
 9688TIP3    H129028   1.722   6.398   2.177 -0.7083  0.5443  0.5851
 9688TIP3    H229029   1.785   6.505   2.092  0.3142 -0.5498 -0.0629
 9689TIP3   OH229030   7.172   4.379   2.635 -0.2016 -0.3526 -0.1682
 9689TIP3    H129031   7.128   4.333   2.707  0.6351 -0.7400  0.1056
 9689TIP3    H229032   7.178   4.313   2.566 -0.0420 -0.3032 -0.2004
 9690TIP3   OH229033   2.574   1.971   4.685 -0.4693 -0.4087 -0.3863
 9690TIP3    H129034   2.664   1.938   4.691 -0.4285 -0.1352  0.5623
 9690TIP3    H229035   2.533   1.946   4.768 -1.7566 -1.8779 -1.3989
 9691TIP3   OH229036   4.406   0.200   4.052  0.4990  0.8026 -0.1512
 9691TIP3    H129037   4.389   0.113   4.017  1.2035  0.6021 -0.0139
 9691TIP3    H229038   4.320   0.243   4.053 -0.2398 -0.5591  1.6256
 9692TIP3   OH229039   5.735   4.050   1.300 -0.2609 -0.3842 -0.8018
 9692TIP3    H129040   5.667   4.096   1.350 -0.9397  0.2480 -2.2328
 9692TIP3    H229041   5.686   4.007   1.229  0.6209 -1.5911 -0.7031
 9693TIP3   OH229042   1.207   5.253   3.357 -0.0020 -0.2741 -0.3476
 9693TIP3    H129043   1.282   5.290   3.312 -1.3180  0.8134 -1.7528
 9693TIP3    H229044   1.227   5.160   3.366  2.7662  0.4173  1.9870
 9694TIP3   OH229045   3.667   1.357   4.665 -0.3397 -0.7631  0.1061
 9694TIP3    H129046   3.572   1.348   4.658 -0.1657 -1.3778 -2.7141
 9694TIP3    H229047   3.683   1.451   4.671 -1.1121 -0.6764  0.9234
 9695TIP3   OH229048   5.109   0.923   5.780 -0.9099  0.1977  0.9588
 9695TIP3    H129049   5.037   0.982   5.758  0.0824  0.5116 -1.7893
 9695TIP3    H229050   5.072   0.835   5.771 -0.8322  0.3362 -1.2589
 9696TIP3   OH229051   4.285   4.394   3.816  0.3407 -0.7316 -0.0210
 9696TIP3    H129052   4.284   4.385   3.911 -0.7112 -0.7378 -0.0160
 9696TIP3    H229053   4.257   4.484   3.799 -1.7257 -1.3662 -0.3389
 9697TIP3   OH229054   1.310   5.215   4.241  0.1916  0.4554  0.3347
 9697TIP3    H129055   1.354   5.238   4.159 -0.2296 -0.6837 -0.2309
 9697TIP3    H229056   1.381   5.210   4.305  0.7291 -0.0655 -0.2842
 9698TIP3   OH229057   6.673   3.235   2.892 -0.0840  0.3151 -0.0622
 9698TIP3    H129058   6.586   3.229   2.853  0.3523 -0.8117 -0.8961
 9698TIP3    H229059   6.689   3.329   2.899 -0.6502  0.5413 -1.5300
 9699TIP3   OH229060   1.709   4.624   3.881  0.0774 -0.6670 -0.1960
 9699TIP3    H129061   1.803   4.629   3.867  0.0528 -0.4954 -0.3094
 9699TIP3    H229062   1.674   4.699   3.834  0.1535  0.9649  2.1501
 9700TIP3   OH229063   0.654   0.490   0.473 -0.3638 -0.6287 -0.3770
 9700TIP3    H129064   0.668   0.576   0.435 -1.9286 -0.6498 -1.0803
 9700TIP3    H229065   0.638   0.432   0.398  1.4366 -1.7223  0.0256
 9701TIP3   OH229066   6.750   5.211   0.767  0.0487  0.2512 -0.3277
 9701TIP3    H129067   6.771   5.118   0.757 -3.2549 -0.5947 -0.3305
 9701TIP3    H229068   6.714   5.238   0.683 -0.6794  1.0646  0.2248
 9702TIP3   OH229069   5.927   0.971   4.998 -0.1854  0.8087 -0.4357
 9702TIP3    H129070   5.873   0.985   5.075 -1.8290  1.3122 -1.6221
 9702TIP3    H229071   5.937   1.058   4.959  0.2472  0.5054 -1.0194
 9703TIP3   OH229072   5.001   2.600   1.080 -0.4668  0.2473 -0.7094
 9703TIP3    H129073   5.022   2.640   0.995 -0.1850  1.1935 -0.2100
 9703TIP3    H229074   4.908   2.578   1.073  0.2717 -3.0269 -2.5627
 9704TIP3   OH229075   2.520   2.868   3.394  0.4300  0.0366 -0.0182
 9704TIP3    H129076   2.589   2.933   3.403  0.4057  0.0814 -0.1616
 9704TIP3    H229077   2.563   2.793   3.351 -0.5269  1.5788 -4.1448
 9705TIP3   OH229078   6.225   3.152   5.343 -0.2534 -0.0926 -0.0018
 9705TIP3    H129079   6.198   3.081   5.285 -1.8405  0.3696  0.1354
 9705TIP3    H229080   6.187   3.231   5.305 -1.1470  0.2508  1.5043
 9706TIP3   OH229081   2.526   3.590   3.849  0.3464 -0.2964 -0.0256
 9706TIP3    H129082   2.584   3.525   3.809 -1.2175 -0.7516 -1.6957
 9706TIP3    H229083   2.462   3.539   3.898  0.4963  0.1275  0.6296
 9707TIP3   OH229084   5.856   1.942   5.488 -0.4950  0.1488  0.4679
 9707TIP3    H129085   5.769   1.909   5.465 -1.0242  1.0038  1.1993
 9707TIP3    H229086   5.882   1.891   5.564 -0.0777 -0.5275 -0.1114
 9708TIP3   OH229087   4.556   1.329   2.632 -1.0510  0.7195 -0.7561
 9708TIP3    H129088   4.498   1.368   2.566 -0.2167  0.6390 -1.5621
 9708TIP3    H229089   4.582   1.402   2.688 -1.5688  0.8362 -0.6633
 9709TIP3   OH229090   4.599   5.858  -0.008 -0.0265  0.1715 -0.5099
 9709TIP3    H129091   4.533   5.807   0.040  0.8834 -2.6050 -1.9725
 9709TIP3    H229092   4.671   5.868   0.055 -0.8462  1.1198  0.3132
 9710TIP3   OH229093   1.387   0.725   0.040 -0.0658 -0.0860  0.5471
 9710TIP3    H129094   1.343   0.670  -0.025  1.1283 -0.9987  0.4786
 9710TIP3    H229095   1.360   0.690   0.124  0.0425 -0.2534  0.5130
 9711TIP3   OH229096   0.755   2.894   0.543 -0.3257 -0.2433  0.1666
 9711TIP3    H129097   0.796   2.926   0.624  1.0475 -0.9723 -0.2136
 9711TIP3    H229098   0.686   2.958   0.525  0.2323  0.6879  1.1725
 9712TIP3   OH229099   3.958   2.378   2.257 -0.2162 -0.2875  0.1424
 9712TIP3    H129100   4.024   2.310   2.267  0.0163 -0.1474 -0.4116
 9712TIP3    H229101   3.963   2.404   2.165 -0.6546  0.1192  0.2250
 9713TIP3   OH229102   1.656   4.884   0.989 -0.4980  0.8790  0.1284
 9713TIP3    H129103   1.650   4.955   1.053 -0.0684  1.3312 -0.3182
 9713TIP3    H229104   1.627   4.806   1.036 -0.5690  1.2751  0.7527
 9714TIP3   OH229105   5.841   4.313   2.043 -0.0463 -0.0718 -0.2425
 9714TIP3    H129106   5.839   4.407   2.061 -3.3140 -0.2179  0.6891
 9714TIP3    H229107   5.925   4.284   2.078  0.9059  2.4223 -0.2590
 9715TIP3   OH229108   1.203   5.723   3.524  0.0275  0.3461  0.1408
 9715TIP3    H129109   1.165   5.696   3.441 -0.3416  1.9003 -0.2304
 9715TIP3    H229110   1.211   5.642   3.574  0.4531 -0.6470 -1.4672
 9716TIP3   OH229111   4.860   5.742   4.294 -0.2142  0.0499  0.4150
 9716TIP3    H129112   4.930   5.778   4.240  0.0016  1.3311  1.5026
 9716TIP3    H229113   4.789   5.723   4.233  0.0480  1.4060 -0.3282
 9717TIP3   OH229114   6.561   5.905   1.594 -0.2187 -0.4322  0.6772
 9717TIP3    H129115   6.499   5.832   1.604  0.9809 -1.5563  0.2770
 9717TIP3    H229116   6.634   5.882   1.651 -0.9357  1.8270  2.6576
 9718TIP3   OH229117   5.189   2.873   2.994 -0.4555  0.0982 -0.1286
 9718TIP3    H129118   5.134   2.930   3.047 -1.6502 -1.7096  0.6436
 9718TIP3    H229119   5.250   2.933   2.950  0.3063  1.7247  2.8790
 9719TIP3   OH229120   5.266   4.560   5.586 -0.0679 -0.1578  0.6670
 9719TIP3    H129121   5.269   4.557   5.490  1.5450 -0.8305  0.7020
 9719TIP3    H229122   5.197   4.497   5.609  1.3324 -2.0465 -0.0223
 9720TIP3   OH229123   1.502   5.215   1.060  0.7595  0.1973  0.0277
 9720TIP3    H129124   1.592   5.236   1.039  0.5478 -0.5226 -1.7641
 9720TIP3    H229125   1.498   5.119   1.058  0.4053  0.1260  2.2018
 9721TIP3   OH229126   5.774   5.623   0.527  0.1902  0.5126  0.1046
 9721TIP3    H129127   5.775   5.537   0.484  0.1368  0.8631 -0.6131
 9721TIP3    H229128   5.794   5.604   0.618 -1.3850 -0.4498  0.2960
 9722TIP3   OH229129   4.870   3.395   2.622 -0.4946 -0.7768  0.0077
 9722TIP3    H129130   4.930   3.325   2.644 -1.1728 -1.6022 -0.6931
 9722TIP3    H229131   4.914   3.475   2.651 -0.0413 -1.5415  1.4927
 9723TIP3   OH229132   1.038   4.985   4.839 -0.3470  0.0549  0.0415
 9723TIP3    H129133   1.051   5.013   4.749 -1.9814  0.5596 -0.0708
 9723TIP3    H229134   1.111   4.925   4.857 -0.0430 -0.1031 -1.6225
 9724TIP3   OH229135   0.253   1.726   5.097 -0.3584  0.9690 -0.2764
 9724TIP3    H129136   0.298   1.766   5.023  0.3673 -0.4391 -0.6234
 9724TIP3    H229137   0.222   1.641   5.064 -0.3533  0.4761  0.9206
 9725TIP3   OH229138   5.097   1.495  -0.012 -0.5718 -0.3078 -0.7083
 9725TIP3    H129139   5.141   1.578  -0.024  1.0572 -0.9675  0.4412
 9725TIP3    H229140   5.062   1.498   0.077  0.1822 -1.1514 -0.3749
 9726TIP3   OH229141   6.454   5.922   0.931  0.0819 -0.0586  0.3145
 9726TIP3    H129142   6.492   5.869   1.001  0.0527 -0.4961  0.0001
 9726TIP3    H229143   6.377   5.962   0.970  0.3075  0.0390  0.6603
 9727TIP3   OH229144   0.290   6.798   0.288 -0.1657  0.3684  0.4746
 9727TIP3    H129145   0.214   6.787   0.344 -0.3343  0.6016  0.2939
 9727TIP3    H229146   0.352   6.731   0.317 -0.5139  0.0569  0.4962
 9728TIP3   OH229147   3.274   6.012   3.477 -0.1929  0.3157  0.0002
 9728TIP3    H129148   3.366   6.029   3.494 -0.2248 -1.5498  2.6420
 9728TIP3    H229149   3.231   6.097   3.491  0.8819  0.7137  1.0739
 9729TIP3   OH229150   1.417   3.985   3.434 -0.2981  0.2507  0.2502
 9729TIP3    H129151   1.416   4.050   3.504 -0.0742  0.9927 -0.4182
 9729TIP3    H229152   1.328   3.987   3.398 -0.3956 -0.0841  0.4695
 9730TIP3   OH229153   3.541   1.461   5.468  0.2534  0.4878  0.4102
 9730TIP3    H129154   3.631   1.492   5.482  0.2435  0.8986 -0.3873
 9730TIP3    H229155   3.547   1.366   5.481  0.9925  0.3979 -0.4731
 9731TIP3   OH229156   2.018   4.404   3.879  0.0213  0.4000  0.2322
 9731TIP3    H129157   1.929   4.369   3.884 -0.5960  2.0630  2.3084
 9731TIP3    H229158   2.011   4.480   3.822  0.4151 -0.2477 -0.6900
 9732TIP3   OH229159   3.364   1.964   5.514  0.0638  0.4402  0.5786
 9732TIP3    H129160   3.315   1.901   5.565  0.2933 -1.5232 -1.4694
 9732TIP3    H229161   3.390   1.917   5.435  1.8742  2.5526 -0.2214
 9733TIP3   OH229162   5.904   5.593   5.192 -0.1290 -0.2270 -0.2604
 9733TIP3    H129163   5.970   5.662   5.189  0.8902 -1.1644 -0.1321
 9733TIP3    H229164   5.863   5.602   5.279  0.1061  0.1112 -0.1849
 9734TIP3   OH229165   6.251   6.418   1.194  0.1336  0.0822  0.5960
 9734TIP3    H129166   6.313   6.378   1.255 -0.9078 -0.1308  1.5526
 9734TIP3    H229167   6.252   6.511   1.217 -1.7281 -0.2532  2.3932
 9735TIP3   OH229168   3.572   1.205   5.228  0.3378  0.4885  0.6183
 9735TIP3    H129169   3.601   1.190   5.318  1.1406  1.5462  0.5520
 9735TIP3    H229170   3.477   1.202   5.232  0.3060 -2.9201  0.8929
 9736TIP3   OH229171   5.225   1.672   3.427 -0.3210  0.1823  0.0335
 9736TIP3    H129172   5.168   1.717   3.489 -0.0865  0.6732 -0.1003
 9736TIP3    H229173   5.262   1.742   3.373 -0.9670 -0.2809 -1.0524
 9737TIP3   OH229174   6.241   2.978   2.504 -0.0745  0.5797  0.1640
 9737TIP3    H129175   6.318   2.923   2.487  0.9090  1.2892  2.0548
 9737TIP3    H229176   6.179   2.919   2.548 -0.2578  0.2364 -0.5433
 9738TIP3   OH229177   5.086   2.696   1.886 -0.0517 -0.2183 -0.2533
 9738TIP3    H129178   5.156   2.747   1.847 -1.5111  1.4967 -0.7812
 9738TIP3    H229179   5.116   2.678   1.975  1.3978 -0.3043 -0.7346
 9739TIP3   OH229180   6.974   4.619   3.558 -0.6694 -0.0235 -0.0975
 9739TIP3    H129181   6.940   4.550   3.615  1.2699 -0.1368  1.0178
 9739TIP3    H229182   6.981   4.696   3.615 -1.4452  0.7069 -0.9609
 9740TIP3   OH229183   4.334   4.863   4.291 -0.7465 -0.1286 -0.2612
 9740TIP3    H129184   4.335   4.879   4.385 -0.7781 -2.8478  0.2797
 9740TIP3    H229185   4.247   4.827   4.273 -1.2218  1.5636 -1.6098
 9741TIP3   OH229186   1.690   5.676   1.277 -0.1770 -0.2582  0.0394
 9741TIP3    H129187   1.637   5.694   1.355  1.6008 -0.4904  1.3544
 9741TIP3    H229188   1.637   5.614   1.227 -2.0345  1.0453  0.2647
 9742TIP3   OH229189   2.442   1.539   1.517  0.1061  0.7584 -0.0540
 9742TIP3    H129190   2.523   1.502   1.551 -1.8079 -1.5742  2.4659
 9742TIP3    H229191   2.415   1.476   1.449 -0.0327  1.0397 -0.2593
 9743TIP3   OH229192   4.251   1.730   3.844 -0.3191  0.3024  0.2587
 9743TIP3    H129193   4.302   1.778   3.909 -1.0294  0.6557  0.5757
 9743TIP3    H229194   4.231   1.795   3.777  2.0916 -0.5243 -1.3714
 9744TIP3   OH229195   4.754   2.547   4.932  0.8883  0.2080 -0.1782
 9744TIP3    H129196   4.753   2.493   5.011  0.2083  0.1624 -0.2128
 9744TIP3    H229197   4.744   2.636   4.964 -1.6191  0.0531 -0.2914
 9745TIP3   OH229198   0.584   2.483   0.827 -0.2073 -0.4678  0.5055
 9745TIP3    H129199   0.562   2.563   0.780 -2.0388 -2.2686 -1.9641
 9745TIP3    H229200   0.678   2.472   0.813  0.0493  1.1016  0.7464
 9746TIP3   OH229201   0.671   2.517   3.614  0.0496 -0.1695  0.3595
 9746TIP3    H129202   0.664   2.598   3.664  1.3366 -0.6131  1.3138
 9746TIP3    H229203   0.759   2.485   3.632 -0.1457 -1.3655 -0.6562
 9747TIP3   OH229204   4.544   4.246   0.239  0.4086  0.0577 -0.4392
 9747TIP3    H129205   4.633   4.242   0.206  1.1292 -2.1226  1.4313
 9747TIP3    H229206   4.526   4.156   0.270 -1.1160  1.1708  2.3330
 9748TIP3   OH229207   4.950   0.023   2.203 -0.0595  0.2122  0.1018
 9748TIP3    H129208   5.001   0.058   2.276 -0.0750  1.2573 -0.3686
 9748TIP3    H229209   5.016  -0.002   2.138 -0.1115  2.3516 -0.8577
 9749TIP3   OH229210   1.145   4.784   5.351  0.1662  0.2893 -0.1900
 9749TIP3    H129211   1.091   4.720   5.398 -0.0173  0.9021  0.4641
 9749TIP3    H229212   1.207   4.731   5.301 -1.2826 -0.4431 -1.2899
   7.21853   6.80572   5.89391   0.00000   0.00000  -2.40618   0.00000  -2.40618  -3.40285
