Title
29212
    1ASP      N    1   2.484   3.594   3.744 -0.0675  0.3209 -0.1380
    1ASP    HT1    2   2.450   3.615   3.648  0.1004 -1.9513 -0.7611
    1ASP    HT2    3   2.573   3.541   3.732  0.6684  1.2155  1.1338
    1ASP    HT3    4   2.492   3.680   3.803 -0.4546  1.5782 -1.8487
    1ASP     CA    5   2.376   3.525   3.820 -0.3447 -0.5034 -0.1373
    1ASP     HA    6   2.425   3.496   3.912  0.2322 -1.6251 -0.7700
    1ASP     CB    7   2.256   3.623   3.844 -0.0877  0.1918 -0.6403
    1ASP    HB1    8   2.178   3.561   3.892  0.7112 -2.0238 -2.0513
    1ASP    HB2    9   2.204   3.646   3.748  0.0812 -0.4715 -0.8991
    1ASP     CG   10   2.290   3.750   3.918 -0.6074 -0.1426  0.4260
    1ASP    OD1   11   2.199   3.815   3.978 -0.2501  0.1303 -1.4815
    1ASP    OD2   12   2.409   3.789   3.918 -0.1140  0.2125 -0.2804
    1ASP      C   13   2.336   3.403   3.744 -0.1389 -0.0148  0.4773
    1ASP      O   14   2.392   3.374   3.638 -0.1409  0.2993 -0.1667
    2GLY      N   15   2.227   3.328   3.775 -0.4474  0.2895 -0.1194
    2GLY     HN   16   2.175   3.356   3.855  0.3036 -0.3022  0.5845
    2GLY     CA   17   2.183   3.201   3.710 -0.2743  0.3048  0.2607
    2GLY    HA1   18   2.156   3.244   3.615  0.7501  0.4355  0.0183
    2GLY    HA2   19   2.099   3.160   3.766  0.1424  0.7662  1.2497
    2GLY      C   20   2.293   3.096   3.710 -0.6576  0.2429 -0.5016
    2GLY      O   21   2.394   3.103   3.785  0.6154 -0.4453 -0.4854
    3ASP      N   22   2.284   3.000   3.620 -0.0657  0.4017  0.0207
    3ASP     HN   23   2.203   3.005   3.561 -0.3168  1.2103  0.4182
    3ASP     CA   24   2.371   2.885   3.616 -0.5019 -1.0953 -0.8114
    3ASP     HA   25   2.392   2.853   3.717 -1.6055 -0.5748 -0.3952
    3ASP     CB   26   2.308   2.763   3.550  0.0434 -0.0436  0.0436
    3ASP    HB1   27   2.377   2.680   3.577  3.9204  3.0282  0.5117
    3ASP    HB2   28   2.299   2.777   3.440  0.3393 -0.9803 -0.1090
    3ASP     CG   29   2.171   2.733   3.614  0.3742  0.8208 -0.0684
    3ASP    OD1   30   2.161   2.725   3.742 -0.5671 -0.4487  0.5681
    3ASP    OD2   31   2.081   2.686   3.535 -0.1592 -0.1146 -0.4739
    3ASP      C   32   2.507   2.904   3.547 -0.2822  0.3122  0.2669
    3ASP      O   33   2.512   2.962   3.437 -0.3237 -0.1140 -0.1436
    4GLY      N   34   2.624   2.856   3.603 -0.4631  0.5250 -0.5579
    4GLY     HN   35   2.623   2.812   3.692  3.2466 -0.6467 -0.9396
    4GLY     CA   36   2.749   2.850   3.528  0.2473  0.3771  0.4256
    4GLY    HA1   37   2.816   2.795   3.592  0.8906 -0.5875 -1.0052
    4GLY    HA2   38   2.783   2.948   3.498  1.2301 -0.1859 -0.3770
    4GLY      C   39   2.742   2.759   3.406  0.5881  0.4455  0.2816
    4GLY      O   40   2.639   2.692   3.380 -0.3022  0.3692  0.0056
    5PRO      N   41   2.845   2.759   3.321 -0.3578  0.2166 -0.0581
    5PRO     CD   42   2.965   2.837   3.343 -0.2721  0.7949  0.0300
    5PRO    HD1   43   3.024   2.797   3.429  1.2343 -0.1077 -1.3669
    5PRO    HD2   44   2.946   2.943   3.371  0.2366  0.8422  0.2117
    5PRO     CA   45   2.857   2.673   3.205 -0.6292  0.2926 -0.2859
    5PRO     HA   46   2.777   2.708   3.141  1.0740  1.0646 -2.0800
    5PRO     CB   47   3.001   2.690   3.160  0.1638  0.1113  0.0257
    5PRO    HB1   48   3.016   2.674   3.051  0.2981 -0.4132  0.1160
    5PRO    HB2   49   3.056   2.613   3.217 -1.4564 -0.1316  1.3529
    5PRO     CG   50   3.039   2.829   3.208 -0.0779  0.2739 -0.6717
    5PRO    HG1   51   3.148   2.846   3.214 -0.0988  0.0036  1.1536
    5PRO    HG2   52   2.998   2.905   3.137 -0.5669 -0.0126 -0.7029
    5PRO      C   53   2.825   2.525   3.225 -0.1610  0.4319 -0.6426
    5PRO      O   54   2.855   2.467   3.332  0.5865  0.0811 -0.0367
    6GLY      N   55   2.764   2.462   3.122  0.4366  0.3768  0.6398
    6GLY     HN   56   2.747   2.510   3.037 -1.0865 -2.5558 -0.8692
    6GLY     CA   57   2.713   2.318   3.123 -0.4809 -0.5719 -0.3063
    6GLY    HA1   58   2.685   2.299   3.020 -1.2274 -1.5646  0.0694
    6GLY    HA2   59   2.635   2.306   3.196 -2.0252  0.0380 -1.7708
    6GLY      C   60   2.827   2.218   3.158  0.5162 -0.2862 -0.4390
    6GLY      O   61   2.949   2.244   3.150  0.4000 -0.1375  0.5407
    7ASP      N   62   2.781   2.103   3.199  0.0073  0.6644  0.1679
    7ASP     HN   63   2.686   2.075   3.187 -0.2623  1.8457 -0.6687
    7ASP     CA   64   2.871   1.988   3.224 -0.5287  0.3248  0.4390
    7ASP     HA   65   2.942   2.006   3.304  0.1434 -1.2848  0.2305
    7ASP     CB   66   2.799   1.869   3.296  0.2558  0.1170 -0.0598
    7ASP    HB1   67   2.879   1.795   3.317  0.8566  0.8680  0.3088
    7ASP    HB2   68   2.712   1.830   3.238 -0.7139  0.1957  1.2987
    7ASP     CG   69   2.750   1.921   3.427 -0.6499  1.1446 -0.1757
    7ASP    OD1   70   2.660   1.856   3.482  0.0232 -0.0359  0.6261
    7ASP    OD2   71   2.807   2.020   3.477  0.4733 -0.3284 -0.4450
    7ASP      C   72   2.944   1.938   3.094 -0.7644  0.3387 -0.0693
    7ASP      O   73   2.871   1.903   3.003 -0.3350  0.1711 -0.1547
    8PRO      N   74   3.076   1.928   3.082 -0.0964 -0.0755  0.1647
    8PRO     CD   75   3.170   1.971   3.187  0.4304 -0.3312 -0.1187
    8PRO    HD1   76   3.189   1.884   3.253 -2.7508  0.6836  2.4430
    8PRO    HD2   77   3.132   2.054   3.251 -0.1427 -0.0479 -0.8206
    8PRO     CA   78   3.153   1.907   2.959  0.1758 -0.3075 -0.1380
    8PRO     HA   79   3.158   1.998   2.901  1.7577 -0.8546 -0.9109
    8PRO     CB   80   3.293   1.889   3.014 -0.3580 -0.1582  0.6747
    8PRO    HB1   81   3.370   1.905   2.935 -0.6048 -2.2714 -0.0640
    8PRO    HB2   82   3.304   1.785   3.053  1.5846  0.2231  1.2607
    8PRO     CG   83   3.300   1.996   3.116 -0.4553 -0.1128  0.2584
    8PRO    HG1   84   3.391   1.988   3.179  1.7874  0.4973 -2.6753
    8PRO    HG2   85   3.291   2.100   3.078 -1.9265  0.1863  1.3216
    8PRO      C   86   3.113   1.794   2.864  0.2838 -0.6254  0.3183
    8PRO      O   87   3.086   1.687   2.916 -0.8113 -0.1431  0.1593
    9GLY      N   88   3.111   1.818   2.727  0.0460  0.2940 -0.2074
    9GLY     HN   89   3.122   1.910   2.690 -0.6704  0.6895  0.5324
    9GLY     CA   90   3.102   1.712   2.635  0.4151  0.4405 -0.5880
    9GLY    HA1   91   3.081   1.757   2.539 -1.3092  0.7054 -0.1158
    9GLY    HA2   92   3.017   1.656   2.670  0.5261 -0.1770 -1.2842
    9GLY      C   93   3.225   1.620   2.630  0.3223 -0.0301  0.4272
    9GLY      O   94   3.322   1.640   2.704  0.3029 -0.3487 -0.0509
   10ASP      N   95   3.218   1.514   2.546 -0.1086  0.7210 -0.6164
   10ASP     HN   96   3.138   1.493   2.491  1.0349  0.2815 -2.1948
   10ASP     CA   97   3.321   1.413   2.537  0.1538  0.3184 -0.3071
   10ASP     HA   98   3.337   1.371   2.635  1.6808 -1.3175 -1.1883
   10ASP     CB   99   3.274   1.299   2.449  0.2722  1.0398 -0.3525
   10ASP    HB1  100   3.360   1.237   2.418  0.0826  1.0760 -0.9633
   10ASP    HB2  101   3.226   1.352   2.364  0.6033  0.8138 -0.6774
   10ASP     CG  102   3.170   1.208   2.512  0.4037  0.2392  0.1276
   10ASP    OD1  103   3.113   1.122   2.435  0.3951 -0.6619 -0.0820
   10ASP    OD2  104   3.135   1.226   2.633 -0.5926 -0.3079 -0.4383
   10ASP      C  105   3.461   1.457   2.489 -0.8481  0.3934 -0.1876
   10ASP      O  106   3.561   1.411   2.546  0.5079  0.5682  0.2807
   11GLY      N  107   3.475   1.537   2.384 -0.2134  0.0138  0.4951
   11GLY     HN  108   3.398   1.575   2.333  2.4716  1.4765 -2.8821
   11GLY     CA  109   3.605   1.577   2.324  1.0583  0.0153 -0.5805
   11GLY    HA1  110   3.676   1.496   2.318 -0.4753 -1.5678  1.0624
   11GLY    HA2  111   3.651   1.651   2.388  1.9026  0.4832 -1.7012
   11GLY      C  112   3.574   1.644   2.189 -0.9850  0.0298 -0.5834
   11GLY    OT1  113   3.596   1.770   2.178 -0.2323 -0.1727  0.1185
   11GLY    OT2  114   3.553   1.572   2.088  0.4446  0.0227 -0.0571
   12SOD    SOD  115   1.456   3.508   2.190 -0.1803 -0.0417  0.1740
   13SOD    SOD  116   2.561   5.167   4.165  0.2313  0.0610 -0.3188
   14SOD    SOD  117   3.545   0.071   2.410  0.6829 -0.1511 -0.0620
   15SOD    SOD  118   6.583   4.118   3.369  0.3032  0.1042 -0.2683
   16SOD    SOD  119   5.771   3.025   4.954  0.2495 -0.1563 -0.2979
   17SOD    SOD  120   2.320   1.830   1.226  0.0581 -0.3281  0.0388
   18SOD    SOD  121   3.792   0.394   3.871 -0.0850 -0.2015 -0.6932
   19SOD    SOD  122   0.231   5.161   0.074 -0.2275  0.2589 -0.3888
   20SOD    SOD  123   4.197   6.724   2.721 -0.3148  0.1296 -0.1306
   21SOD    SOD  124   5.934   0.900   4.624 -0.0515 -0.0124 -0.0395
   22SOD    SOD  125   2.615   0.694   3.750 -0.0348  0.3248  0.1386
   23SOD    SOD  126   4.445   1.154   2.584 -0.4421 -0.4608 -0.2051
   24SOD    SOD  127   3.782   4.591   3.931  0.5943 -0.7196  0.0923
   25SOD    SOD  128   0.317   6.570   1.247 -0.3138 -0.4529  0.1076
   26SOD    SOD  129   0.083   4.115   1.908 -0.4848 -0.2996  0.5086
   27SOD    SOD  130   0.210   3.604   4.398 -0.2309  0.1007  0.3426
   28SOD    SOD  131   3.520   1.363   1.543 -0.0923 -0.0342  0.1263
   29SOD    SOD  132   1.767   2.265   2.951 -0.3786  0.3023 -0.4747
   30SOD    SOD  133   4.705   1.432   3.638 -0.1301 -0.0633  0.3597
   31SOD    SOD  134   2.681   1.155   3.335 -0.0930  0.0507  0.0478
   32SOD    SOD  135   1.714   4.336   2.846  0.5615 -0.4004  0.0214
   33SOD    SOD  136   3.639   3.806   3.200 -0.3497 -0.5585  0.3632
   34SOD    SOD  137   1.597   2.952   4.679  0.0677  0.0693 -0.1437
   35SOD    SOD  138   2.477   2.219   4.086  0.1995  0.2740 -0.5234
   36SOD    SOD  139   6.035   5.115   1.217 -0.1399 -0.0640  0.0703
   37SOD    SOD  140   3.900   1.928   3.274  0.0525  0.2146 -0.4400
   38SOD    SOD  141   6.898   2.753   5.194 -0.3161 -0.0018  0.3363
   39SOD    SOD  142   1.383   0.211   4.567 -0.1540  0.3540 -0.1892
   40SOD    SOD  143   2.655   5.528   5.566 -0.0598 -0.4440  0.0140
   41SOD    SOD  144   4.352   0.329   1.970 -0.0818  0.1202 -0.3570
   42SOD    SOD  145   5.856   1.030   5.775  0.0780 -0.5981  0.2228
   43CLA    CLA  146   6.570   4.485   1.968 -0.0396 -0.0047 -0.4258
   44CLA    CLA  147   1.183   0.746   0.613 -0.0156 -0.0173 -0.1223
   45CLA    CLA  148   6.516   3.188   5.357  0.1305 -0.5488 -0.4054
   46CLA    CLA  149   6.533   1.877   3.291 -0.1294  0.1281 -0.1055
   47CLA    CLA  150   7.192   3.163   4.715  0.2188 -0.1803 -0.1292
   48CLA    CLA  151   6.018   3.732   4.414  0.0451 -0.1052 -0.2474
   49CLA    CLA  152   4.329   3.866   3.615  0.2588 -0.2394 -0.2005
   50CLA    CLA  153   4.284   1.340   2.666 -0.3722 -0.1312  0.6155
   51CLA    CLA  154   3.249   2.038   5.679  0.6281  0.4766  0.0101
   52CLA    CLA  155   3.810   5.835   5.832  0.2148 -0.1131 -0.2193
   53CLA    CLA  156   4.979   5.653   5.215  0.0642 -0.7736 -0.0262
   54CLA    CLA  157   2.534   4.000   3.321 -0.0927  0.4269  0.1178
   55CLA    CLA  158   6.674   5.834   0.994  0.1162  0.1747 -0.4360
   56CLA    CLA  159   2.081   3.946   2.588  0.2022  0.1853  0.1333
   57CLA    CLA  160   0.408   4.561   3.720 -0.1402  0.1729  0.4359
   58CLA    CLA  161   4.433   4.698   3.662 -0.0923 -0.1370  0.1047
   59CLA    CLA  162   6.503   2.130   5.151  0.1693  0.1529 -0.0136
   60CLA    CLA  163   3.939   0.610   3.283  0.2561 -0.3356  0.3344
   61CLA    CLA  164   6.130   0.450   2.158  0.1118 -0.1904  0.2621
   62CLA    CLA  165   6.726   0.857   5.154 -0.5612 -0.0573  0.0981
   63CLA    CLA  166   5.161   3.312   4.509 -0.4540 -0.1359  0.1186
   64CLA    CLA  167   3.517   3.192   1.732 -0.2686 -0.6055 -0.6477
   65CLA    CLA  168   2.580   4.422   1.599  0.1118 -0.0782 -0.2109
   66CLA    CLA  169   7.104   2.125   3.721  0.1313  0.0445  0.2945
   67CLA    CLA  170   5.851   1.649   4.697 -0.4542  0.0200  0.3759
   68CLA    CLA  171   5.462   4.747   3.187 -0.0407 -0.2945  0.0699
   69CLA    CLA  172   4.222   0.116   2.057 -0.1979 -0.1482  0.0324
   70TIP3   OH2  173   4.349   4.658   4.908  0.2002  0.0037 -0.1000
   70TIP3    H1  174   4.280   4.662   4.974  0.4680  1.6994  0.0991
   70TIP3    H2  175   4.319   4.716   4.838 -0.5153 -2.4241 -1.9567
   71TIP3   OH2  176   4.048   1.253   0.169  0.1840 -0.0235  0.6478
   71TIP3    H1  177   4.073   1.324   0.109 -0.8272 -0.0100  0.2312
   71TIP3    H2  178   3.959   1.230   0.144  1.1899 -2.9668 -0.7101
   72TIP3   OH2  179   1.924   6.425   5.765 -0.4759 -0.4931  0.1163
   72TIP3    H1  180   1.997   6.450   5.708  0.4990 -0.4904  1.3276
   72TIP3    H2  181   1.916   6.330   5.752  0.0003 -0.5564  0.2442
   73TIP3   OH2  182   6.963   3.615   4.517  0.2807 -0.3870 -0.2044
   73TIP3    H1  183   6.963   3.526   4.553 -1.7409 -0.5821 -0.5882
   73TIP3    H2  184   6.908   3.610   4.439  0.0219  1.2301 -0.1648
   74TIP3   OH2  185   4.476   1.022   1.598  0.6505  0.5196 -0.1511
   74TIP3    H1  186   4.563   1.001   1.564  1.3838  1.7908  0.8810
   74TIP3    H2  187   4.492   1.073   1.677 -1.0014 -1.4698  1.5874
   75TIP3   OH2  188   7.147   5.616   0.884  0.7749  0.3606 -0.3280
   75TIP3    H1  189   7.108   5.621   0.796 -1.0122 -2.4089  0.1912
   75TIP3    H2  190   7.114   5.534   0.920  2.9635  0.4996  2.2709
   76TIP3   OH2  191   6.586   3.524   5.561  0.3587 -0.2101  0.4595
   76TIP3    H1  192   6.645   3.449   5.573  0.3130 -0.5869 -1.3813
   76TIP3    H2  193   6.502   3.493   5.596  0.5418 -0.7225  0.4664
   77TIP3   OH2  194   3.034   1.753   0.977  0.3039  0.6727  0.8248
   77TIP3    H1  195   3.091   1.708   1.040 -0.2260  0.5232  1.2086
   77TIP3    H2  196   3.093   1.780   0.906  0.8003  0.2665  1.0737
   78TIP3   OH2  197   3.783   0.073   4.995  0.3390  0.5315 -0.3560
   78TIP3    H1  198   3.691   0.051   4.985  1.0379 -2.2578 -1.9482
   78TIP3    H2  199   3.809   0.031   5.077  0.4917 -0.0551 -0.6939
   79TIP3   OH2  200   0.561   0.778   0.575 -0.2215  1.1687 -0.0703
   79TIP3    H1  201   0.585   0.694   0.537 -1.0579 -0.0686  1.9919
   79TIP3    H2  202   0.543   0.834   0.499  2.3420  0.1615 -1.5538
   80TIP3   OH2  203   6.441   5.843   2.292  0.1043  0.6910  0.3926
   80TIP3    H1  204   6.512   5.837   2.356 -0.1810  0.6917  0.7159
   80TIP3    H2  205   6.368   5.797   2.333  0.4651 -0.9885 -0.7370
   81TIP3   OH2  206   4.561   2.470   0.627 -0.2419 -0.6345 -0.6955
   81TIP3    H1  207   4.486   2.414   0.608 -0.2875 -0.7688 -0.1332
   81TIP3    H2  208   4.569   2.468   0.722  0.6008 -0.7859 -0.7639
   82TIP3   OH2  209   2.495   2.914   0.235  0.0333  0.1212  0.3067
   82TIP3    H1  210   2.538   2.830   0.253 -0.0638  0.2719  1.3313
   82TIP3    H2  211   2.507   2.964   0.315  0.4596  1.2582 -0.4454
   83TIP3   OH2  212   6.608   6.447   3.053  0.0584 -0.1436 -0.1471
   83TIP3    H1  213   6.641   6.534   3.028  1.0859 -0.4936 -0.0636
   83TIP3    H2  214   6.687   6.396   3.072 -0.4679 -1.4488 -1.2858
   84TIP3   OH2  215   5.211   2.647  -0.000 -0.1212 -1.1374  0.4282
   84TIP3    H1  216   5.240   2.662   0.090  2.9593 -0.1145 -0.6066
   84TIP3    H2  217   5.160   2.725  -0.022 -0.7317 -1.3076  1.1959
   85TIP3   OH2  218   4.533   5.193   5.548  0.0541 -0.1863  0.4760
   85TIP3    H1  219   4.480   5.149   5.614 -0.1515 -0.1220  0.3516
   85TIP3    H2  220   4.491   5.171   5.465 -0.1015  0.3235  0.4198
   86TIP3   OH2  221   4.711   4.949   1.151  0.0187 -0.1904 -0.2193
   86TIP3    H1  222   4.722   4.900   1.232  0.3873  1.0930  0.5286
   86TIP3    H2  223   4.798   4.951   1.111 -0.1643 -0.8328 -0.6726
   87TIP3   OH2  224   2.412   3.615   3.476  0.7054  0.2104 -0.4853
   87TIP3    H1  225   2.410   3.661   3.392  0.9217 -1.0870 -1.2269
   87TIP3    H2  226   2.330   3.566   3.478  1.7295 -1.6024 -1.0320
   88TIP3   OH2  227   3.527   6.435   5.812 -0.0468 -0.3171  0.7496
   88TIP3    H1  228   3.595   6.382   5.853 -1.5993 -2.5750  0.5928
   88TIP3    H2  229   3.446   6.405   5.853 -1.1568  0.8763 -0.4728
   89TIP3   OH2  230   0.669   1.128   4.560  0.7862 -0.4256 -0.2272
   89TIP3    H1  231   0.747   1.106   4.611  2.0993  1.6116 -1.2409
   89TIP3    H2  232   0.671   1.070   4.485  1.7219  0.0486 -0.5828
   90TIP3   OH2  233   1.006   6.693   5.799 -0.2737  1.1344  0.2810
   90TIP3    H1  234   0.938   6.704   5.865  0.2804 -1.0590  1.2845
   90TIP3    H2  235   0.993   6.605   5.765  0.2759  1.7452 -1.6431
   91TIP3   OH2  236   2.552   4.276   5.627 -0.4757  0.2845 -0.3230
   91TIP3    H1  237   2.637   4.239   5.602  0.2517  0.1824  2.0201
   91TIP3    H2  238   2.492   4.202   5.622  0.0804 -0.2219  0.1974
   92TIP3   OH2  239   0.439   5.529   0.718  0.4478 -0.4527 -0.1418
   92TIP3    H1  240   0.355   5.514   0.762  0.3405 -0.6900 -0.4325
   92TIP3    H2  241   0.419   5.592   0.649  0.7433  0.4528  0.5631
   93TIP3   OH2  242   7.217   6.831   2.363  0.6413  0.2314 -0.0447
   93TIP3    H1  243   7.265   6.752   2.388  1.0055 -0.2792 -2.1295
   93TIP3    H2  244   7.127   6.814   2.390  0.3722 -1.6704 -1.8627
   94TIP3   OH2  245   6.855   5.275   2.943 -0.2141  0.0042  0.3800
   94TIP3    H1  246   6.946   5.248   2.953 -0.4607 -1.8842 -1.7558
   94TIP3    H2  247   6.827   5.297   3.032  1.4019 -2.5012  1.6401
   95TIP3   OH2  248   2.305   0.569   3.508  0.2979  0.6236 -0.1710
   95TIP3    H1  249   2.217   0.554   3.474  0.3308  1.1527 -0.5036
   95TIP3    H2  250   2.357   0.494   3.477  0.1717  0.7645 -0.7238
   96TIP3   OH2  251   1.713   5.621   0.876 -0.3527  0.1628 -0.4295
   96TIP3    H1  252   1.729   5.569   0.797 -0.8760  0.5145 -0.7755
   96TIP3    H2  253   1.667   5.562   0.935  2.2209 -0.9232  0.6532
   97TIP3   OH2  254   3.992   2.799   4.662  0.4532  0.0577 -0.2794
   97TIP3    H1  255   3.993   2.881   4.613  0.7699 -0.4067 -1.0746
   97TIP3    H2  256   3.901   2.790   4.692  0.8660  1.7129  1.6236
   98TIP3   OH2  257   2.913   5.376   3.890 -0.4593 -0.1142  0.1620
   98TIP3    H1  258   2.886   5.464   3.916 -0.2735  0.1745 -0.6025
   98TIP3    H2  259   2.870   5.361   3.806 -0.0367 -0.5321  0.0179
   99TIP3   OH2  260   1.563   3.142   2.877  0.0533  0.0210  0.3216
   99TIP3    H1  261   1.621   3.140   2.801 -1.2505  1.0180 -0.7502
   99TIP3    H2  262   1.622   3.147   2.952  1.3650 -0.4276 -0.6397
  100TIP3   OH2  263   0.815   4.722   5.700  0.4021  0.1845  0.6153
  100TIP3    H1  264   0.807   4.629   5.721  1.1931  0.2305  1.1457
  100TIP3    H2  265   0.902   4.731   5.663 -0.1760  0.4899 -0.7426
  101TIP3   OH2  266   0.200   1.262   4.080  0.4122 -0.1333  0.5539
  101TIP3    H1  267   0.225   1.296   3.994  0.6494 -1.6340  0.0004
  101TIP3    H2  268   0.166   1.338   4.127  2.7429  1.2691  0.0863
  102TIP3   OH2  269   4.275   4.778   1.126  0.5669 -0.0835 -0.3879
  102TIP3    H1  270   4.237   4.828   1.053 -0.1419  1.4232  0.9414
  102TIP3    H2  271   4.316   4.844   1.181  0.1206 -1.0322  1.1409
  103TIP3   OH2  272   5.886   5.599   0.849 -0.3105  0.4992 -0.2882
  103TIP3    H1  273   5.928   5.514   0.837  0.3359  0.8399 -0.4742
  103TIP3    H2  274   5.869   5.605   0.943  0.2942  0.4630 -0.1710
  104TIP3   OH2  275   4.693   2.910   1.358 -0.3321 -0.2490 -0.4506
  104TIP3    H1  276   4.611   2.942   1.321 -0.2323 -1.4375 -1.8050
  104TIP3    H2  277   4.693   2.816   1.338  1.1964 -0.3339 -0.1710
  105TIP3   OH2  278   0.820   3.338   4.061  0.2214 -0.2840 -0.5477
  105TIP3    H1  279   0.870   3.418   4.043  2.6361 -0.8836  2.6294
  105TIP3    H2  280   0.870   3.268   4.020 -1.2435 -0.3886 -2.2852
  106TIP3   OH2  281   5.110   1.794   5.581  0.3959 -0.0780  0.1555
  106TIP3    H1  282   5.106   1.736   5.505 -0.5220 -0.8617  0.7708
  106TIP3    H2  283   5.191   1.771   5.625  0.1389 -0.7714  0.2837
  107TIP3   OH2  284   7.149   3.310   5.744 -0.6835 -0.4886  0.4082
  107TIP3    H1  285   7.112   3.273   5.663  0.1750  0.0274 -0.2328
  107TIP3    H2  286   7.088   3.282   5.812 -1.5251 -0.7896 -0.4359
  108TIP3   OH2  287   3.745   1.648   4.013 -0.1133 -0.2963  0.3236
  108TIP3    H1  288   3.772   1.679   4.100 -1.2272  0.5443  0.3896
  108TIP3    H2  289   3.712   1.559   4.029  1.9208 -1.0987  0.3382
  109TIP3   OH2  290   2.975   3.433   0.338  0.2847 -0.3510 -0.5024
  109TIP3    H1  291   3.030   3.403   0.266 -1.5733 -1.7986 -1.3970
  109TIP3    H2  292   2.900   3.476   0.296 -2.1610 -3.4397  0.2866
  110TIP3   OH2  293   4.217   0.585   4.912 -0.9644  0.2820  0.6098
  110TIP3    H1  294   4.282   0.629   4.858 -0.3987  1.1596  1.9379
  110TIP3    H2  295   4.133   0.622   4.885 -0.8328 -0.1944 -0.4876
  111TIP3   OH2  296   2.586   5.037   4.833  0.4128 -0.2027 -0.0725
  111TIP3    H1  297   2.543   4.981   4.769  0.3630  0.3660 -0.5509
  111TIP3    H2  298   2.516   5.062   4.894 -0.0773  1.1119 -1.1237
  112TIP3   OH2  299   5.330   4.884   0.308  0.1719  0.0979 -0.2270
  112TIP3    H1  300   5.378   4.801   0.304 -1.5889 -1.0464  0.9600
  112TIP3    H2  301   5.240   4.861   0.285 -0.7896  1.2701  2.0845
  113TIP3   OH2  302   6.807   2.061   1.724 -0.1377 -0.4783 -0.1202
  113TIP3    H1  303   6.728   2.114   1.728  0.9236  1.1103  1.0947
  113TIP3    H2  304   6.789   1.986   1.780 -0.5429  0.2346  0.7232
  114TIP3   OH2  305   0.971   4.780   0.434 -0.3880  0.4248 -0.1830
  114TIP3    H1  306   0.919   4.719   0.487  1.8887 -1.0737  0.4814
  114TIP3    H2  307   1.005   4.727   0.362  3.4557  0.0791  1.5794
  115TIP3   OH2  308   4.313   3.102   4.601 -0.3704 -0.7842 -0.0078
  115TIP3    H1  309   4.348   3.018   4.572 -2.0576 -2.1972  1.8138
  115TIP3    H2  310   4.298   3.091   4.695 -1.8881  1.0751  0.0286
  116TIP3   OH2  311   1.314   4.223   5.182  0.4486 -0.1661 -0.9368
  116TIP3    H1  312   1.286   4.246   5.270  0.4817  0.2643 -1.0359
  116TIP3    H2  313   1.242   4.170   5.147  0.9241 -1.2937 -0.2610
  117TIP3   OH2  314   6.194   4.279   2.768  0.3154 -0.4818  0.5698
  117TIP3    H1  315   6.230   4.333   2.838  0.5985 -0.9770  0.8138
  117TIP3    H2  316   6.258   4.209   2.757  0.8712  0.2170 -0.9827
  118TIP3   OH2  317   4.165   0.879   0.563 -0.1785 -0.6466  0.6375
  118TIP3    H1  318   4.141   0.971   0.562 -0.9513 -0.8312  0.8546
  118TIP3    H2  319   4.176   0.858   0.656  0.6830 -0.6054  0.5452
  119TIP3   OH2  320   5.911   1.976   4.007  0.3319  0.1671 -0.6793
  119TIP3    H1  321   5.859   2.009   4.080 -0.2461 -0.8415 -0.6275
  119TIP3    H2  322   5.866   2.009   3.929 -0.7637 -1.1714 -0.6579
  120TIP3   OH2  323   1.024   5.137   0.962 -0.1207 -0.5145 -0.1696
  120TIP3    H1  324   0.976   5.145   0.880 -1.4659 -1.4671  0.4908
  120TIP3    H2  325   1.034   5.227   0.993  0.8867 -0.0960 -1.6188
  121TIP3   OH2  326   3.330   6.717   5.232 -0.0818 -0.0816  0.2415
  121TIP3    H1  327   3.412   6.669   5.231  0.8379  1.4241 -1.6615
  121TIP3    H2  328   3.263   6.649   5.242  1.1809 -1.7549 -1.7386
  122TIP3   OH2  329   7.125   1.717   0.845 -0.0605  0.4214 -0.0346
  122TIP3    H1  330   7.083   1.791   0.888  1.7841  0.6516  1.4897
  122TIP3    H2  331   7.121   1.646   0.909  0.2696 -0.1020 -0.5749
  123TIP3   OH2  332   2.469   4.232   2.481  0.2171  0.0023  0.1579
  123TIP3    H1  333   2.500   4.166   2.544  1.4330  0.3174 -0.0952
  123TIP3    H2  334   2.545   4.286   2.463  0.3905 -1.0678 -2.8922
  124TIP3   OH2  335   1.929   6.765   5.547 -0.0266 -0.1389  0.1486
  124TIP3    H1  336   1.839   6.779   5.516 -0.4249  0.5322  1.5312
  124TIP3    H2  337   1.975   6.845   5.522 -0.5292  0.7243  1.8175
  125TIP3   OH2  338   4.655   4.349   4.236 -0.5146 -0.3145  0.1316
  125TIP3    H1  339   4.596   4.276   4.218  0.2644 -1.0101  0.3443
  125TIP3    H2  340   4.721   4.312   4.295 -0.2256  0.6149  0.4005
  126TIP3   OH2  341   0.203   1.639   5.666  0.4608 -0.4028  0.5526
  126TIP3    H1  342   0.193   1.727   5.701 -0.6236 -0.7563  1.1883
  126TIP3    H2  343   0.194   1.581   5.742  0.6661 -1.0753  0.0742
  127TIP3   OH2  344   0.638   5.604   4.815  0.1791  0.2092  0.1109
  127TIP3    H1  345   0.640   5.639   4.904 -0.9760 -2.1037  1.1364
  127TIP3    H2  346   0.660   5.512   4.825 -2.6864 -0.7985 -1.5771
  128TIP3   OH2  347   5.037   5.548   4.087  0.3365 -0.4455 -0.0319
  128TIP3    H1  348   5.019   5.639   4.063 -1.4879 -1.0743 -1.2057
  128TIP3    H2  349   5.080   5.554   4.173 -1.7082  1.4371  0.9591
  129TIP3   OH2  350   5.675   2.605   5.209  0.0289 -0.3963 -0.0082
  129TIP3    H1  351   5.646   2.533   5.265 -1.5011 -0.2492 -0.5621
  129TIP3    H2  352   5.608   2.611   5.141  0.3944  1.2232 -0.2650
  130TIP3   OH2  353   1.576   2.200   3.926 -0.2992 -0.0261 -0.7218
  130TIP3    H1  354   1.540   2.187   3.838  0.5450  0.6854 -1.1925
  130TIP3    H2  355   1.575   2.113   3.965 -3.1757  0.0502 -0.4128
  131TIP3   OH2  356   6.863   0.234   3.498 -0.5392 -0.6086  0.1981
  131TIP3    H1  357   6.828   0.287   3.570 -0.3453 -0.5356  0.2393
  131TIP3    H2  358   6.785   0.202   3.452 -0.7558  2.9825 -2.3349
  132TIP3   OH2  359   5.933   5.152   3.720 -0.4390  0.0149 -0.4962
  132TIP3    H1  360   5.964   5.201   3.797 -1.1573  1.8680 -1.3363
  132TIP3    H2  361   6.004   5.159   3.657 -0.6510  0.2359 -0.7157
  133TIP3   OH2  362   5.966   4.586   3.101 -0.2222  0.2459 -0.6566
  133TIP3    H1  363   5.921   4.515   3.147  0.2581  0.9203  0.9412
  133TIP3    H2  364   5.896   4.638   3.062 -0.6106 -0.6800 -1.2307
  134TIP3   OH2  365   4.198   4.336   0.428 -0.2095  0.4880  0.1430
  134TIP3    H1  366   4.160   4.412   0.385 -1.3772  1.0561  2.0631
  134TIP3    H2  367   4.293   4.344   0.414 -0.3424  2.1637  0.1147
  135TIP3   OH2  368   5.965   3.633   3.862  0.1157  0.1842 -0.3322
  135TIP3    H1  369   5.947   3.662   3.952 -2.2749 -3.8822  0.7160
  135TIP3    H2  370   5.888   3.659   3.812 -0.3433 -0.9350 -0.2367
  136TIP3   OH2  371   6.102   0.930   5.731  0.2701  0.6689 -0.0926
  136TIP3    H1  372   6.152   0.907   5.653  1.9976  1.1357  0.8156
  136TIP3    H2  373   6.168   0.947   5.798 -1.1449  0.3013  1.4841
  137TIP3   OH2  374   1.433   4.407   1.185  0.1529  0.1396  0.4668
  137TIP3    H1  375   1.398   4.322   1.159  1.4175  0.0009 -0.9358
  137TIP3    H2  376   1.386   4.469   1.129  0.1639  0.2357  0.5650
  138TIP3   OH2  377   4.276   1.103   0.752  0.5788 -0.1510  0.0306
  138TIP3    H1  378   4.318   1.018   0.770 -0.3878 -1.0368 -1.6460
  138TIP3    H2  379   4.254   1.138   0.839  2.3342 -0.8932  0.8323
  139TIP3   OH2  380   2.928   5.385   1.138 -0.8960 -0.2591  0.2636
  139TIP3    H1  381   2.910   5.320   1.206  0.0926  0.5521  1.3672
  139TIP3    H2  382   3.022   5.402   1.146 -0.4336 -1.2289 -2.3477
  140TIP3   OH2  383   5.465   5.477   0.840 -0.0669 -0.4907 -0.0613
  140TIP3    H1  384   5.413   5.400   0.817  2.2932 -1.8677 -1.0653
  140TIP3    H2  385   5.436   5.545   0.778  0.0801 -1.5523 -1.3294
  141TIP3   OH2  386   5.306   1.969   5.090 -0.3485  0.1931  0.1421
  141TIP3    H1  387   5.396   1.954   5.119 -0.7820  1.1631  2.1794
  141TIP3    H2  388   5.252   1.926   5.157 -1.4315 -1.2093 -1.5652
  142TIP3   OH2  389   1.506   6.013   4.790 -0.2784  0.1622  0.3709
  142TIP3    H1  390   1.545   6.030   4.875  1.3893  1.0036 -0.5252
  142TIP3    H2  391   1.569   5.956   4.745 -1.0932 -0.2130 -0.3434
  143TIP3   OH2  392   0.665   1.040   0.892  0.1262  0.1582  0.2036
  143TIP3    H1  393   0.613   1.117   0.917 -1.6637  0.4576 -3.6300
  143TIP3    H2  394   0.618   0.966   0.931  0.0586  0.7757  1.3402
  144TIP3   OH2  395   2.986   2.461   5.445 -0.1758 -0.1922  0.4086
  144TIP3    H1  396   3.078   2.440   5.457  0.0798 -0.1025 -1.2103
  144TIP3    H2  397   2.976   2.474   5.350 -1.8163 -0.0734  0.5659
  145TIP3   OH2  398   0.126   6.064   4.105  0.2754 -0.5441 -0.2880
  145TIP3    H1  399   0.055   6.091   4.047  0.1235  0.5125  0.3802
  145TIP3    H2  400   0.128   5.968   4.095 -1.2769 -0.6151 -0.2823
  146TIP3   OH2  401   2.034   3.338   3.357 -0.3839  0.0438 -0.4235
  146TIP3    H1  402   2.008   3.310   3.269  1.6022  0.6228 -1.2528
  146TIP3    H2  403   2.130   3.339   3.355 -0.2781  2.6684  0.8856
  147TIP3   OH2  404   3.377   3.894   3.613 -0.0772  0.0168  0.0455
  147TIP3    H1  405   3.321   3.899   3.536  1.3866 -1.0220 -1.1533
  147TIP3    H2  406   3.381   3.801   3.634  1.8850 -0.0791 -0.4971
  148TIP3   OH2  407   4.379   4.127   5.808 -0.2538  0.1321  0.0340
  148TIP3    H1  408   4.430   4.175   5.742 -1.4722  0.0742 -0.9848
  148TIP3    H2  409   4.325   4.193   5.851  1.0057  0.2778  1.4855
  149TIP3   OH2  410   4.660   6.153   4.963 -0.1797 -0.7526 -0.5678
  149TIP3    H1  411   4.656   6.210   4.886  1.5693  0.6208  0.3105
  149TIP3    H2  412   4.582   6.098   4.955  0.1601 -0.9764 -3.5531
  150TIP3   OH2  413   6.555   2.853   2.068  0.2106  0.4478  0.4087
  150TIP3    H1  414   6.502   2.810   2.135  0.2145 -0.5691 -0.2213
  150TIP3    H2  415   6.637   2.803   2.067  0.0260  0.1410 -0.6804
  151TIP3   OH2  416   4.767   0.447   1.790 -0.9371 -0.0782 -0.3551
  151TIP3    H1  417   4.816   0.369   1.815  1.0076  1.0679 -0.3363
  151TIP3    H2  418   4.787   0.460   1.697 -1.2211  0.4170 -0.3523
  152TIP3   OH2  419   2.602   3.936   4.383  0.3830  0.3265 -0.0049
  152TIP3    H1  420   2.686   3.921   4.427  1.6045  0.5009 -2.1404
  152TIP3    H2  421   2.591   3.861   4.325 -1.4405 -0.1590  0.8943
  153TIP3   OH2  422   1.193   4.586   0.048  0.0971 -0.2093 -0.1770
  153TIP3    H1  423   1.199   4.524   0.121  1.3484 -0.8320 -0.7803
  153TIP3    H2  424   1.206   4.672   0.088 -1.2375 -0.3412  0.6090
  154TIP3   OH2  425   3.160   0.330   1.605  0.1290 -0.1057 -0.3173
  154TIP3    H1  426   3.248   0.336   1.570  0.0038 -1.6551 -0.9499
  154TIP3    H2  427   3.116   0.410   1.574  1.0643  0.2817 -0.6565
  155TIP3   OH2  428   2.788   4.224   0.585 -0.0315  0.4687 -0.0428
  155TIP3    H1  429   2.835   4.154   0.631 -0.5911  0.1509  0.0555
  155TIP3    H2  430   2.843   4.301   0.596  0.3228  0.1677  0.3218
  156TIP3   OH2  431   5.089   3.995   3.216  0.5725  0.1770  0.4904
  156TIP3    H1  432   5.066   4.074   3.264 -0.2950  0.9018 -1.0298
  156TIP3    H2  433   5.066   4.015   3.125  0.3305 -1.8213  0.0637
  157TIP3   OH2  434   6.020   4.994   2.852  0.0525  0.2190  0.0513
  157TIP3    H1  435   5.991   4.972   2.941 -1.1968 -0.0868 -0.4165
  157TIP3    H2  436   6.063   5.079   2.862  1.0103 -0.3597  1.1388
  158TIP3   OH2  437   4.357   5.497   5.064 -0.2316  0.1296  0.5356
  158TIP3    H1  438   4.370   5.527   4.974  1.3479 -3.0639 -0.4591
  158TIP3    H2  439   4.359   5.577   5.116 -1.5610  2.1433 -2.2342
  159TIP3   OH2  440   3.422   6.465   3.457 -0.2782  0.7306  0.2532
  159TIP3    H1  441   3.435   6.522   3.381  0.0130  1.2447  0.6825
  159TIP3    H2  442   3.497   6.482   3.513  0.1682 -0.5765  0.0902
  160TIP3   OH2  443   1.333   4.185   2.993  0.2095  0.0556 -0.4633
  160TIP3    H1  444   1.307   4.275   2.976  1.5385  0.5858  0.1829
  160TIP3    H2  445   1.262   4.132   2.957 -0.5670  1.3526 -0.8868
  161TIP3   OH2  446   3.171   6.029   3.349  0.4374  0.2392 -0.6367
  161TIP3    H1  447   3.143   6.111   3.310 -1.4688 -0.5887 -1.1503
  161TIP3    H2  448   3.218   5.984   3.279  1.0621  0.6768 -0.5041
  162TIP3   OH2  449   5.150   4.881   2.302 -0.4042 -0.5285  0.0918
  162TIP3    H1  450   5.209   4.830   2.246 -0.5897  0.0469 -0.6463
  162TIP3    H2  451   5.185   4.971   2.298  1.2544 -0.8890  3.1312
  163TIP3   OH2  452   5.918   1.952   1.925 -0.0788  0.3617 -0.4006
  163TIP3    H1  453   5.915   1.856   1.932  0.7601  0.4293  1.9210
  163TIP3    H2  454   6.011   1.972   1.913 -0.0582  0.9128  0.5762
  164TIP3   OH2  455   1.477   4.767   4.300 -0.0821 -0.0651 -0.1867
  164TIP3    H1  456   1.562   4.723   4.300  0.8657  1.5949 -2.3937
  164TIP3    H2  457   1.421   4.710   4.246  0.7744  0.6744 -1.9407
  165TIP3   OH2  458   3.546   3.208   3.036  0.3152  0.3193  0.5910
  165TIP3    H1  459   3.573   3.209   2.944  0.5502  0.4748  0.6609
  165TIP3    H2  460   3.619   3.167   3.082 -1.3212 -3.4107  0.2430
  166TIP3   OH2  461   4.082   1.432   3.328  0.8872 -0.4001 -0.1222
  166TIP3    H1  462   4.168   1.466   3.350  0.0058  1.6284  0.4346
  166TIP3    H2  463   4.097   1.376   3.252  2.6182  0.3101 -0.3461
  167TIP3   OH2  464   1.143   5.117   5.519 -0.4254  0.8037 -0.3791
  167TIP3    H1  465   1.235   5.134   5.503 -0.1463 -0.3228 -0.0672
  167TIP3    H2  466   1.118   5.052   5.453 -1.3729  2.0925 -1.3525
  168TIP3   OH2  467   3.933   1.415   2.366 -0.2265 -0.1237 -0.2449
  168TIP3    H1  468   3.991   1.345   2.395  0.3007  0.7474  0.8568
  168TIP3    H2  469   3.974   1.449   2.286 -0.4888 -1.0462 -0.7861
  169TIP3   OH2  470   1.401   3.777   0.770  0.1210  0.7160  0.0721
  169TIP3    H1  471   1.453   3.741   0.842  0.2730 -0.5449 -0.6260
  169TIP3    H2  472   1.431   3.728   0.693 -1.5180  0.5356 -0.4835
  170TIP3   OH2  473   4.988   3.591   0.532 -0.2996  0.1874 -0.2310
  170TIP3    H1  474   4.898   3.558   0.531 -0.3107  0.1102 -2.5365
  170TIP3    H2  475   4.979   3.683   0.558 -0.9150 -0.0868  0.5797
  171TIP3   OH2  476   1.100   3.385   0.517  0.3066  0.6949  0.6111
  171TIP3    H1  477   1.181   3.372   0.567  1.0294  1.2884 -0.3550
  171TIP3    H2  478   1.107   3.475   0.485 -0.0407  0.2657 -0.7137
  172TIP3   OH2  479   4.049   1.602   3.783 -0.0380 -0.3828 -0.4470
  172TIP3    H1  480   4.061   1.599   3.878  1.4035 -2.0844 -0.6327
  172TIP3    H2  481   3.955   1.615   3.771 -0.0713  1.4052  1.1803
  173TIP3   OH2  482   6.156   3.560   1.939  0.1441 -0.3228 -0.2752
  173TIP3    H1  483   6.128   3.589   2.025  1.5283  1.9054 -0.4980
  173TIP3    H2  484   6.195   3.474   1.954  0.5510  0.1145  1.3634
  174TIP3   OH2  485   3.852   3.851   1.058 -0.3340 -0.5329  0.3211
  174TIP3    H1  486   3.883   3.889   0.976  0.4148 -0.3589  0.6795
  174TIP3    H2  487   3.887   3.762   1.059 -1.0307 -0.8235  0.0789
  175TIP3   OH2  488   2.146   5.564   0.686  0.8242  0.6332 -0.1100
  175TIP3    H1  489   2.208   5.622   0.642  0.5360 -0.2068 -1.7025
  175TIP3    H2  490   2.152   5.481   0.637 -2.6397  0.9503 -1.3598
  176TIP3   OH2  491   4.055   0.650   3.572 -0.4584 -0.2072  0.4711
  176TIP3    H1  492   4.150   0.652   3.585 -0.2902  3.3680 -0.1796
  176TIP3    H2  493   4.044   0.648   3.477 -1.0450 -0.6679  0.5469
  177TIP3   OH2  494   0.699   0.040   4.244 -0.0429 -0.4147  0.6408
  177TIP3    H1  495   0.713   0.134   4.242  0.8744 -0.5123 -2.3892
  177TIP3    H2  496   0.769   0.006   4.300  1.1169  0.5418 -0.1961
  178TIP3   OH2  497   0.094   0.169   2.110 -0.0143  0.6944 -0.5645
  178TIP3    H1  498   0.124   0.255   2.141 -1.3749  1.3101 -0.8938
  178TIP3    H2  499   0.168   0.136   2.059  1.3259  0.7444  1.2389
  179TIP3   OH2  500   2.903   2.912   4.371  0.4089  0.0750  0.2513
  179TIP3    H1  501   2.904   2.893   4.464  1.2447  1.4465  0.5398
  179TIP3    H2  502   2.810   2.913   4.347  0.2193 -2.7748  0.4854
  180TIP3   OH2  503   4.898   5.681   3.584 -0.1245 -0.3737  0.1064
  180TIP3    H1  504   4.907   5.709   3.493  1.8611  2.2436  0.9701
  180TIP3    H2  505   4.967   5.616   3.595 -0.8451 -1.2386 -0.4252
  181TIP3   OH2  506   5.692   5.798   4.104 -0.1879  0.3850 -0.1260
  181TIP3    H1  507   5.650   5.864   4.048 -3.3946  0.1686  1.7585
  181TIP3    H2  508   5.638   5.720   4.094  0.4155 -0.3033  1.6216
  182TIP3   OH2  509   0.779   2.953   1.355  0.1693  0.5614  0.0644
  182TIP3    H1  510   0.799   2.909   1.272 -2.5830  0.4827 -0.6637
  182TIP3    H2  511   0.803   2.889   1.422 -1.0908 -0.9767 -0.8614
  183TIP3   OH2  512   3.882   1.241   4.010 -0.1774 -0.3333 -0.3268
  183TIP3    H1  513   3.891   1.210   3.920 -1.6686 -0.0209 -0.6081
  183TIP3    H2  514   3.949   1.192   4.059  2.1522  1.0476 -1.9317
  184TIP3   OH2  515   1.061   6.153   3.702  0.0346 -0.4314  0.0491
  184TIP3    H1  516   1.021   6.232   3.666  0.2071 -0.6117 -0.5475
  184TIP3    H2  517   1.053   6.163   3.797  0.5099  0.5441 -0.0016
  185TIP3   OH2  518   6.790   0.191   3.044 -0.0031  0.1848  0.3324
  185TIP3    H1  519   6.869   0.209   2.993  0.1406  3.0326  1.3715
  185TIP3    H2  520   6.724   0.167   2.979  1.2830 -0.7357 -0.6959
  186TIP3   OH2  521   4.072   1.057   3.305  0.0481 -0.9341 -0.0739
  186TIP3    H1  522   3.981   1.084   3.290  0.6209  1.9214  0.7978
  186TIP3    H2  523   4.117   1.076   3.222  0.0861 -1.0422 -0.0776
  187TIP3   OH2  524   2.326   4.616   3.355 -0.4924 -0.5781 -0.1612
  187TIP3    H1  525   2.293   4.603   3.266  0.4040  0.2948 -0.6430
  187TIP3    H2  526   2.301   4.705   3.377  0.7351 -0.1982 -0.2065
  188TIP3   OH2  527   1.368   4.731   3.309  0.1188  0.0135 -0.1201
  188TIP3    H1  528   1.398   4.820   3.291  0.5309  0.1796  1.2837
  188TIP3    H2  529   1.282   4.726   3.267  1.4889 -0.0826 -3.1789
  189TIP3   OH2  530   3.797   2.252   0.760  0.1828 -0.3674 -0.0289
  189TIP3    H1  531   3.782   2.287   0.673 -0.6305 -0.7410 -0.0504
  189TIP3    H2  532   3.876   2.296   0.791  0.1178  0.2318 -0.7019
  190TIP3   OH2  533   6.245   0.205   2.756  0.8507  0.8790  0.0105
  190TIP3    H1  534   6.171   0.254   2.719 -0.2374 -0.5175  0.2893
  190TIP3    H2  535   6.307   0.273   2.781  0.0469  2.0475 -1.0250
  191TIP3   OH2  536   1.518   2.685   0.650  0.1128  0.0477  0.1370
  191TIP3    H1  537   1.603   2.689   0.605 -0.3898 -2.4425 -1.2374
  191TIP3    H2  538   1.541   2.678   0.743  1.3602  0.5600 -0.1046
  192TIP3   OH2  539   4.900   3.523   2.921  0.5930  0.1335  0.4609
  192TIP3    H1  540   4.908   3.481   2.835  1.0032  0.9905  0.0751
  192TIP3    H2  541   4.985   3.565   2.935  0.2481  0.6787  0.9275
  193TIP3   OH2  542   4.872   4.219   1.726 -0.6668 -0.0867 -0.0212
  193TIP3    H1  543   4.919   4.165   1.789  0.7091  0.5582 -0.4703
  193TIP3    H2  544   4.807   4.266   1.779  0.1704  0.1163  0.8523
  194TIP3   OH2  545   1.944   1.310   5.231 -0.3514 -0.4062  0.0340
  194TIP3    H1  546   1.903   1.242   5.285  0.0460 -0.5525  0.1555
  194TIP3    H2  547   1.894   1.310   5.150  1.5896 -3.1236 -1.3338
  195TIP3   OH2  548   2.921   3.922   0.407  0.0325  0.3104  0.3945
  195TIP3    H1  549   2.866   3.948   0.334 -0.7337 -2.0347  0.0536
  195TIP3    H2  550   3.006   3.960   0.388 -0.7579  1.7757 -0.4240
  196TIP3   OH2  551   6.799   0.253   0.444 -0.2819  0.5844 -1.1849
  196TIP3    H1  552   6.888   0.288   0.454  0.0214 -0.1734 -1.1637
  196TIP3    H2  553   6.782   0.207   0.525 -1.1378  1.6541 -0.7391
  197TIP3   OH2  554   2.330   0.849   0.368 -0.4364 -0.2263 -0.5612
  197TIP3    H1  555   2.386   0.924   0.346 -3.3674  2.3422  0.1163
  197TIP3    H2  556   2.366   0.816   0.450  0.7611  0.5760 -0.7291
  198TIP3   OH2  557   4.439   0.759   1.881 -0.1424 -0.2510 -0.0816
  198TIP3    H1  558   4.408   0.674   1.852  0.0468 -0.3043 -0.1286
  198TIP3    H2  559   4.532   0.746   1.900 -0.0456  0.0114 -0.3623
  199TIP3   OH2  560   3.089   2.410   3.589  0.0208  0.3320 -0.0136
  199TIP3    H1  561   3.077   2.411   3.494 -0.5894 -1.6175 -0.0114
  199TIP3    H2  562   3.063   2.497   3.618 -3.5629 -0.1588 -1.2682
  200TIP3   OH2  563   6.475   6.114   3.762 -0.2068  0.0323 -0.1054
  200TIP3    H1  564   6.410   6.184   3.747  0.1937  0.5226  0.4202
  200TIP3    H2  565   6.446   6.071   3.842  0.3021  0.4722  0.3206
  201TIP3   OH2  566   4.235   6.749   3.161 -0.1856  0.3639 -0.6209
  201TIP3    H1  567   4.266   6.687   3.094 -1.1068 -0.6853 -0.1090
  201TIP3    H2  568   4.149   6.778   3.129 -0.1693  0.6580 -0.4009
  202TIP3   OH2  569   3.771   3.619   0.548 -0.5488 -0.5358  0.0432
  202TIP3    H1  570   3.789   3.711   0.532 -1.5582 -0.0869  1.3805
  202TIP3    H2  571   3.707   3.595   0.481 -0.3603 -0.2551 -0.2432
  203TIP3   OH2  572   1.932   5.568   1.223  0.5009  0.0784 -0.4095
  203TIP3    H1  573   1.986   5.584   1.300 -1.4857  3.9561  0.4441
  203TIP3    H2  574   1.992   5.580   1.149  1.6487  0.1446  0.4985
  204TIP3   OH2  575   2.152   2.301   3.224  0.5210 -0.1513  0.0004
  204TIP3    H1  576   2.229   2.278   3.276  0.0243  1.3584  1.4791
  204TIP3    H2  577   2.133   2.391   3.248 -1.0206 -0.1092 -1.2364
  205TIP3   OH2  578   0.746   5.467   1.676  0.7214  0.1692  0.4731
  205TIP3    H1  579   0.715   5.523   1.747  0.4384 -0.9568  1.2575
  205TIP3    H2  580   0.801   5.525   1.622 -1.4575  1.8586 -0.1216
  206TIP3   OH2  581   6.093   4.623   1.428  0.2655  0.4971 -0.3169
  206TIP3    H1  582   6.125   4.614   1.518  1.0752  0.5281 -0.5875
  206TIP3    H2  583   6.085   4.533   1.396  0.7018  0.5015 -0.4498
  207TIP3   OH2  584   6.062   2.517   5.473 -0.0463 -0.2396  0.5896
  207TIP3    H1  585   6.156   2.499   5.471 -0.3814 -2.2171  0.7002
  207TIP3    H2  586   6.043   2.532   5.566  0.1632  0.3289  0.5490
  208TIP3   OH2  587   2.025   2.845   0.292  0.3990  0.3185 -0.0583
  208TIP3    H1  588   2.092   2.840   0.224 -0.7842  2.2030 -1.4915
  208TIP3    H2  589   2.060   2.909   0.355  0.3996  0.5202 -0.2616
  209TIP3   OH2  590   3.616   4.697   2.257 -0.6371 -0.3986  0.4147
  209TIP3    H1  591   3.652   4.634   2.195  0.0143  1.3276 -1.0268
  209TIP3    H2  592   3.678   4.769   2.257 -0.6256 -0.3015  3.0928
  210TIP3   OH2  593   2.577   1.698   1.587 -0.1068  0.0906  0.4064
  210TIP3    H1  594   2.622   1.613   1.591  1.8213  1.0850  1.2064
  210TIP3    H2  595   2.548   1.713   1.677 -0.7649  0.1278  0.1913
  211TIP3   OH2  596   1.426   0.045   2.725  0.2144 -0.2568  0.6257
  211TIP3    H1  597   1.459  -0.008   2.653 -0.9678 -0.5000  0.2399
  211TIP3    H2  598   1.350   0.090   2.688  0.9082  1.3489  1.0804
  212TIP3   OH2  599   1.000   0.933   1.630 -0.3942  0.3278  0.0232
  212TIP3    H1  600   1.085   0.892   1.645 -0.2990 -0.3614 -2.0138
  212TIP3    H2  601   0.998   1.009   1.689  1.0708 -0.3866  1.0304
  213TIP3   OH2  602   2.596   6.507   5.811 -0.3557  0.0502 -0.0637
  213TIP3    H1  603   2.639   6.531   5.729  0.3498  0.4391  0.4092
  213TIP3    H2  604   2.515   6.464   5.784  0.3975 -0.8506 -0.9888
  214TIP3   OH2  605   6.332   0.061   2.984  0.3378  0.2933 -0.0937
  214TIP3    H1  606   6.259   0.018   3.027 -1.4784  1.0692 -2.2308
  214TIP3    H2  607   6.311   0.154   2.988  1.7241  0.6256  0.1205
  215TIP3   OH2  608   0.614   3.593   3.475 -0.3716 -0.4557  0.2241
  215TIP3    H1  609   0.525   3.622   3.455 -0.4429  0.7040  1.9702
  215TIP3    H2  610   0.643   3.546   3.397 -1.0870  2.4445 -1.9316
  216TIP3   OH2  611   0.082   3.919   4.723  0.4716  0.1454 -0.2203
  216TIP3    H1  612   0.121   3.966   4.649  1.5362  0.0281  0.2484
  216TIP3    H2  613   0.027   3.983   4.766  0.5687  0.4754 -0.5801
  217TIP3   OH2  614   4.714   4.141   2.567  0.2469 -0.4038 -0.4763
  217TIP3    H1  615   4.752   4.228   2.562 -2.0706  0.8182  1.2102
  217TIP3    H2  616   4.625   4.151   2.534 -0.6117 -1.7033  1.2179
  218TIP3   OH2  617   1.019   0.275   1.358 -0.3727  0.2751 -0.0410
  218TIP3    H1  618   0.964   0.268   1.436 -1.0188 -0.6707 -0.5683
  218TIP3    H2  619   1.024   0.185   1.324  1.5711  0.2987  0.0369
  219TIP3   OH2  620   5.106   3.768   4.084  0.3676  0.6982  0.0444
  219TIP3    H1  621   5.012   3.787   4.086 -0.0115 -0.7083 -1.7440
  219TIP3    H2  622   5.133   3.770   4.176 -1.0415  2.6867  0.4780
  220TIP3   OH2  623   4.251   4.301   3.366  0.5836 -0.0723 -0.0142
  220TIP3    H1  624   4.284   4.218   3.399  0.9472 -0.2901 -0.8840
  220TIP3    H2  625   4.316   4.329   3.301 -0.9520 -0.5741 -1.8497
  221TIP3   OH2  626   0.620   1.889   2.952 -0.2772 -0.2717 -0.2258
  221TIP3    H1  627   0.567   1.837   2.891  0.0956  1.4068 -2.0683
  221TIP3    H2  628   0.711   1.867   2.929 -0.0728  2.0908 -1.9575
  222TIP3   OH2  629   6.962   5.758   1.075 -0.8904  0.4499  0.8776
  222TIP3    H1  630   6.995   5.697   1.010  2.0396  0.5815  2.0654
  222TIP3    H2  631   6.879   5.789   1.040 -0.7212 -1.4653 -1.4549
  223TIP3   OH2  632   3.222   4.157   2.314  0.0453  0.5714 -1.3471
  223TIP3    H1  633   3.305   4.201   2.294  0.0948  0.6988 -0.8746
  223TIP3    H2  634   3.155   4.216   2.280  0.0658  1.5336  0.1647
  224TIP3   OH2  635   6.947   2.133   2.494  0.1279  0.1810  0.4658
  224TIP3    H1  636   6.918   2.054   2.450 -0.0054 -1.3609  3.1187
  224TIP3    H2  637   7.021   2.105   2.547  0.1950  1.8811  1.3449
  225TIP3   OH2  638   1.617   6.241   2.220 -0.1273  0.1329 -0.4325
  225TIP3    H1  639   1.651   6.186   2.149 -0.1920 -1.4662  0.7431
  225TIP3    H2  640   1.693   6.294   2.246 -0.0851  0.7091 -1.6209
  226TIP3   OH2  641   2.546   1.563   3.138  0.1807  0.1777  0.0382
  226TIP3    H1  642   2.611   1.560   3.208 -0.5201 -0.0031  0.6959
  226TIP3    H2  643   2.508   1.475   3.137  0.4184  0.0692 -0.8122
  227TIP3   OH2  644   5.883   2.368   4.769 -0.0332  0.0590 -0.7996
  227TIP3    H1  645   5.919   2.421   4.698  1.1752  1.8089  1.0184
  227TIP3    H2  646   5.847   2.431   4.831 -4.0428 -1.5084 -1.2613
  228TIP3   OH2  647   6.834   0.119   4.745  0.0925  0.3315  0.0052
  228TIP3    H1  648   6.844   0.041   4.801 -0.2385 -0.3323 -0.8374
  228TIP3    H2  649   6.824   0.191   4.807  2.2377 -0.0001  0.8637
  229TIP3   OH2  650   4.096   0.765   1.923  0.2232 -0.5169  1.0187
  229TIP3    H1  651   4.118   0.819   1.999  0.5757 -0.4089  0.8413
  229TIP3    H2  652   4.054   0.687   1.960 -2.6512  0.9621  1.1828
  230TIP3   OH2  653   6.166   1.911   4.839  0.5910  0.2110 -0.0956
  230TIP3    H1  654   6.102   1.975   4.870 -1.6602 -1.8861 -0.0718
  230TIP3    H2  655   6.147   1.900   4.746  1.9656  0.6252 -0.4565
  231TIP3   OH2  656   1.321   2.052   0.299  0.3814  0.0705  0.1558
  231TIP3    H1  657   1.302   2.079   0.209 -1.5175  0.8031  0.7464
  231TIP3    H2  658   1.409   2.085   0.315 -0.1609  2.0486 -0.6529
  232TIP3   OH2  659   5.239   2.271   2.415 -0.1679  0.3168  0.1380
  232TIP3    H1  660   5.144   2.267   2.427 -0.1166  0.8073  0.7322
  232TIP3    H2  661   5.251   2.272   2.320 -0.6772 -1.5440  0.0044
  233TIP3   OH2  662   3.062   1.905   3.516  0.0198  0.5171  0.4523
  233TIP3    H1  663   2.985   1.958   3.494  0.4134  0.6288 -0.7324
  233TIP3    H2  664   3.126   1.968   3.548 -0.1865  0.4971  0.9071
  234TIP3   OH2  665   2.149   6.592   2.988  0.2289 -0.2528  0.4010
  234TIP3    H1  666   2.142   6.533   2.914 -0.3813 -0.8585  0.9240
  234TIP3    H2  667   2.068   6.643   2.986 -0.2922 -1.0043  1.2431
  235TIP3   OH2  668   5.653   4.952   0.416  0.1957  0.5418 -0.2467
  235TIP3    H1  669   5.657   4.858   0.395 -2.0790  0.7283 -1.9314
  235TIP3    H2  670   5.678   4.995   0.334 -1.1781  1.3537 -0.2641
  236TIP3   OH2  671   6.569   0.956   2.010 -0.4190 -0.7293 -0.5362
  236TIP3    H1  672   6.594   0.933   1.920 -0.3375 -0.8514 -0.4811
  236TIP3    H2  673   6.646   0.936   2.063 -0.6416 -1.1236 -0.3637
  237TIP3   OH2  674   3.833   2.255   4.593 -0.2460 -0.2902  0.2913
  237TIP3    H1  675   3.785   2.328   4.553 -0.8472 -1.3733 -1.0776
  237TIP3    H2  676   3.803   2.253   4.684 -1.1521  0.4097  0.0228
  238TIP3   OH2  677   4.766   3.759   4.950  0.0177 -0.3964 -0.3821
  238TIP3    H1  678   4.712   3.833   4.923 -1.8952 -1.3147  0.7136
  238TIP3    H2  679   4.736   3.739   5.038 -1.3921 -4.0608 -1.5273
  239TIP3   OH2  680   7.082   5.179   3.981  0.1541  0.6712  0.0905
  239TIP3    H1  681   7.093   5.210   3.891  0.7711 -0.5265 -0.2660
  239TIP3    H2  682   7.170   5.153   4.009 -0.3878 -1.3551  0.1146
  240TIP3   OH2  683   0.169   1.887   2.035  0.1922 -0.3997  0.1203
  240TIP3    H1  684   0.261   1.907   2.054  0.3212 -1.0101  0.1438
  240TIP3    H2  685   0.172   1.819   1.968 -0.2642  1.2987 -1.7157
  241TIP3   OH2  686   6.632   0.297   2.303  0.6442 -0.1072  0.0228
  241TIP3    H1  687   6.654   0.375   2.354 -0.5356 -0.0572  0.4721
  241TIP3    H2  688   6.715   0.271   2.263  1.3419  0.5632  0.9838
  242TIP3   OH2  689   2.768   5.770   2.932  0.5289  0.1896  0.1754
  242TIP3    H1  690   2.739   5.688   2.973 -0.3372 -0.2351 -1.2309
  242TIP3    H2  691   2.850   5.791   2.977  0.0598 -0.7013  1.5206
  243TIP3   OH2  692   2.166   3.175   4.159 -0.0089 -0.2263  0.0095
  243TIP3    H1  693   2.114   3.222   4.224  0.4263 -1.5775  1.3786
  243TIP3    H2  694   2.101   3.144   4.095 -0.6079 -0.0295  0.5084
  244TIP3   OH2  695   3.368   4.519   2.753  0.1283  0.0989 -0.5794
  244TIP3    H1  696   3.360   4.464   2.674  1.3647 -0.0910 -0.5976
  244TIP3    H2  697   3.398   4.458   2.821 -1.2883  0.1814  0.1615
  245TIP3   OH2  698   6.566   6.281   4.924 -0.2367 -0.1657 -0.0731
  245TIP3    H1  699   6.640   6.304   4.980 -0.3317  1.4512 -0.5763
  245TIP3    H2  700   6.605   6.226   4.855  0.2191 -0.5417  0.4749
  246TIP3   OH2  701   3.883   1.886   0.805 -0.2312 -0.2020  0.7795
  246TIP3    H1  702   3.845   1.915   0.722  1.5354  1.7767  0.5857
  246TIP3    H2  703   3.925   1.802   0.784 -2.5488 -1.3842  0.5266
  247TIP3   OH2  704   6.912   2.584   1.806 -0.5918  0.0468 -0.5283
  247TIP3    H1  705   6.830   2.621   1.839 -0.5216 -1.0186  0.9161
  247TIP3    H2  706   6.884   2.517   1.744 -0.7442  0.9542 -1.4860
  248TIP3   OH2  707   0.596   6.509   3.658  0.1558  0.2670  0.2432
  248TIP3    H1  708   0.634   6.519   3.746  0.5208  1.2105 -0.0117
  248TIP3    H2  709   0.553   6.424   3.660  1.0593 -0.1860  1.0104
  249TIP3   OH2  710   3.546   1.923   2.397 -0.4443  0.5380  0.0293
  249TIP3    H1  711   3.559   2.016   2.378  0.2047  0.3613 -0.4156
  249TIP3    H2  712   3.550   1.880   2.312  1.6495 -0.1648  0.4230
  250TIP3   OH2  713   3.853   2.004   3.771  0.3709 -0.2389 -0.4658
  250TIP3    H1  714   3.948   1.990   3.771  0.3092 -1.1852 -3.0814
  250TIP3    H2  715   3.820   1.937   3.711 -1.8642  0.7200 -0.3584
  251TIP3   OH2  716   4.856   4.003   0.878 -0.4370  0.0586  0.2164
  251TIP3    H1  717   4.830   3.927   0.929  0.8729 -0.4885  0.1094
  251TIP3    H2  718   4.945   4.023   0.909 -1.1385  2.2241  1.0265
  252TIP3   OH2  719   0.200   3.247   0.347 -0.0996 -0.2275 -0.0536
  252TIP3    H1  720   0.296   3.243   0.341 -0.0456  0.9231 -0.0174
  252TIP3    H2  721   0.173   3.299   0.272 -0.8333 -1.7358 -0.8958
  253TIP3   OH2  722   6.125   5.191   3.514 -0.1008  0.1304  0.4238
  253TIP3    H1  723   6.179   5.266   3.493 -2.4105  1.9694  0.6466
  253TIP3    H2  724   6.180   5.115   3.492  1.9140  1.8372 -0.8580
  254TIP3   OH2  725   5.326   2.033   0.746  0.0499 -0.9154  0.2838
  254TIP3    H1  726   5.339   1.978   0.824  0.9777 -1.5210 -0.2831
  254TIP3    H2  727   5.304   1.971   0.677 -1.3398 -0.3262  0.1701
  255TIP3   OH2  728   6.890   0.725   3.641 -0.3397 -0.2921  0.4266
  255TIP3    H1  729   6.815   0.777   3.669 -1.9860 -0.7612 -2.6226
  255TIP3    H2  730   6.854   0.638   3.623  1.5320 -1.3647  1.5233
  256TIP3   OH2  731   6.935   4.782   1.081  0.4311 -0.0739 -0.0347
  256TIP3    H1  732   6.948   4.870   1.045  0.5018 -0.5974 -1.3473
  256TIP3    H2  733   6.869   4.794   1.150  0.8947  1.0956  0.2280
  257TIP3   OH2  734   2.302   4.745   2.064 -0.2897 -0.4889 -0.0701
  257TIP3    H1  735   2.359   4.706   2.130  0.0245  0.7353  0.4099
  257TIP3    H2  736   2.330   4.705   1.981  0.4019 -0.8445  0.3287
  258TIP3   OH2  737   0.463   0.345   5.649 -0.1422 -0.2916  0.1748
  258TIP3    H1  738   0.462   0.441   5.645 -1.6049 -0.2621  0.8059
  258TIP3    H2  739   0.533   0.324   5.711 -2.0252  0.5335  2.7558
  259TIP3   OH2  740   3.544   5.822   5.103  0.7014 -0.0136  0.0663
  259TIP3    H1  741   3.610   5.809   5.171  0.4603 -3.1846 -0.1616
  259TIP3    H2  742   3.503   5.736   5.092 -1.9686  1.3198 -1.3569
  260TIP3   OH2  743   6.918   3.893   4.270 -0.3558  0.3130  0.1589
  260TIP3    H1  744   6.870   3.921   4.192 -0.2259 -0.6765 -0.2919
  260TIP3    H2  745   6.850   3.869   4.333 -0.5295  3.0916  1.1742
  261TIP3   OH2  746   1.281   0.299   0.822  0.0886  0.2732 -0.3682
  261TIP3    H1  747   1.259   0.276   0.732  1.3742  1.3812 -1.0064
  261TIP3    H2  748   1.350   0.365   0.813  0.6483 -0.0299  1.4469
  262TIP3   OH2  749   0.242   1.866   5.818  0.3362  0.4100 -0.4901
  262TIP3    H1  750   0.157   1.906   5.799  0.4367  0.2873 -1.2104
  262TIP3    H2  751   0.302   1.906   5.755  0.2970 -1.4072 -1.7363
  263TIP3   OH2  752   1.621   2.556   1.858 -0.3155  0.0578 -0.0457
  263TIP3    H1  753   1.694   2.615   1.877 -0.6096  1.0307 -1.7595
  263TIP3    H2  754   1.658   2.468   1.863  0.7643  0.5029 -0.0909
  264TIP3   OH2  755   5.558   0.833   4.230  0.2331 -0.3923  0.0738
  264TIP3    H1  756   5.590   0.840   4.140 -0.1027 -0.5678 -0.0611
  264TIP3    H2  757   5.579   0.743   4.256 -0.3623 -0.5877 -0.1016
  265TIP3   OH2  758   6.960   3.627   1.263  0.0128  0.1117 -0.2576
  265TIP3    H1  759   6.867   3.652   1.263  0.4127  1.6958 -0.2673
  265TIP3    H2  760   6.985   3.630   1.171  0.1029 -0.2597 -0.2476
  266TIP3   OH2  761   1.898   6.147   5.705  0.1803  0.4549 -0.3675
  266TIP3    H1  762   1.911   6.058   5.739  0.1284  0.3876 -0.5244
  266TIP3    H2  763   1.812   6.173   5.738 -0.6642 -0.2739 -1.8750
  267TIP3   OH2  764   6.957   4.054   4.908  0.1428  0.1708 -0.2305
  267TIP3    H1  765   6.999   3.999   4.842 -0.3247 -0.8622  0.3137
  267TIP3    H2  766   6.890   3.998   4.947  0.6269  0.6357  1.3525
  268TIP3   OH2  767   1.342   5.578   5.827  0.5052 -0.0475 -0.7941
  268TIP3    H1  768   1.296   5.565   5.909  0.5542  0.6074 -0.6574
  268TIP3    H2  769   1.371   5.490   5.801  0.5452 -0.2448 -0.0887
  269TIP3   OH2  770   4.549   2.150   1.016 -0.5432 -0.0915  0.2277
  269TIP3    H1  771   4.586   2.063   1.035 -1.9184 -1.0040 -1.0639
  269TIP3    H2  772   4.524   2.185   1.101 -0.4557 -1.1959  0.7224
  270TIP3   OH2  773   1.788   3.792   1.266 -0.0398  0.4395  0.0159
  270TIP3    H1  774   1.850   3.736   1.219  1.2858  2.2026 -0.4321
  270TIP3    H2  775   1.744   3.843   1.198  0.9344  2.0601  0.5477
  271TIP3   OH2  776   3.485   3.940   0.514 -0.3783  0.2842  0.4743
  271TIP3    H1  777   3.498   3.871   0.580 -0.6992  0.8086  1.0932
  271TIP3    H2  778   3.573   3.957   0.481 -0.3375 -0.6804  0.0398
  272TIP3   OH2  779   0.151   5.121   4.639  0.3679 -0.0571 -0.2839
  272TIP3    H1  780   0.070   5.071   4.638  1.8387 -2.6806  0.2664
  272TIP3    H2  781   0.216   5.063   4.599  2.0254  1.8790 -0.6136
  273TIP3   OH2  782   1.427   6.055   3.400 -0.9109  0.1300  0.3439
  273TIP3    H1  783   1.507   6.002   3.404 -0.4284  0.8302  0.1832
  273TIP3    H2  784   1.384   6.027   3.319  0.7373  1.8778 -1.2624
  274TIP3   OH2  785   1.070   5.173   4.907 -0.0892  0.2140 -0.0641
  274TIP3    H1  786   0.978   5.182   4.933 -0.4008 -2.5116  0.1613
  274TIP3    H2  787   1.119   5.181   4.989 -0.3964 -0.7839  0.2393
  275TIP3   OH2  788   2.900   6.387   2.688  0.0747  0.0794  0.0862
  275TIP3    H1  789   2.922   6.309   2.638 -1.5159 -0.2974 -0.0796
  275TIP3    H2  790   2.984   6.420   2.719  0.7865 -1.6842  0.1497
  276TIP3   OH2  791   5.838   0.854   2.456 -0.3685  0.0264 -0.2285
  276TIP3    H1  792   5.828   0.827   2.547 -1.7397  2.6886  0.5080
  276TIP3    H2  793   5.857   0.773   2.409 -3.6562 -2.1678  1.8102
  277TIP3   OH2  794   6.425   4.823   1.063 -0.1739  0.3023 -0.2844
  277TIP3    H1  795   6.361   4.795   1.128  1.3268 -0.5877  0.8972
  277TIP3    H2  796   6.394   4.786   0.981 -0.7048 -0.8985  0.4327
  278TIP3   OH2  797   0.688   3.176   1.193  0.3552  0.4124  0.4808
  278TIP3    H1  798   0.619   3.145   1.134 -1.7827  1.1481  2.4334
  278TIP3    H2  799   0.707   3.102   1.249  2.5660 -0.3645 -1.1720
  279TIP3   OH2  800   4.187   4.231   5.577  0.1787  0.5581 -0.2012
  279TIP3    H1  801   4.098   4.260   5.558  0.3327  0.7608 -0.6228
  279TIP3    H2  802   4.176   4.155   5.635 -0.4117 -1.2777 -2.5442
  280TIP3   OH2  803   5.542   4.236   2.422  0.0648 -0.4963  0.1156
  280TIP3    H1  804   5.558   4.305   2.487 -0.6602 -0.1234 -0.0885
  280TIP3    H2  805   5.468   4.269   2.370 -1.2583 -2.0242  0.9161
  281TIP3   OH2  806   4.097   4.012   5.762  0.0698 -0.3509  0.2299
  281TIP3    H1  807   4.051   3.929   5.761 -0.0091 -0.3074  0.0465
  281TIP3    H2  808   4.176   3.996   5.812 -0.6693 -0.1384  1.5035
  282TIP3   OH2  809   1.381   4.853   0.628 -0.5077  0.0205  0.1760
  282TIP3    H1  810   1.401   4.810   0.711  0.6450 -1.2750 -0.7204
  282TIP3    H2  811   1.288   4.876   0.634 -0.8749 -1.5356  1.1943
  283TIP3   OH2  812   0.544   6.766   2.726 -0.1187 -0.8675  0.0805
  283TIP3    H1  813   0.588   6.683   2.743 -1.1136 -1.5218 -0.4260
  283TIP3    H2  814   0.453   6.741   2.710 -0.2168  0.2144 -1.1513
  284TIP3   OH2  815   3.280   1.337   4.668  0.0328 -0.0799  0.9742
  284TIP3    H1  816   3.356   1.370   4.621 -0.6990 -1.0969 -1.0921
  284TIP3    H2  817   3.244   1.413   4.714  2.2629  0.4056  2.0038
  285TIP3   OH2  818   2.407   4.445   5.133 -0.0089  0.2252  0.2357
  285TIP3    H1  819   2.463   4.407   5.200  0.7592  1.9800  0.6535
  285TIP3    H2  820   2.318   4.433   5.167  0.1357 -1.6939  0.0377
  286TIP3   OH2  821   3.311   0.765   4.784 -0.0648 -0.0668  0.9316
  286TIP3    H1  822   3.245   0.729   4.843 -0.4285 -1.1730 -0.1170
  286TIP3    H2  823   3.262   0.822   4.725  0.1528  0.2967  1.1018
  287TIP3   OH2  824   2.914   0.666   5.691  0.2520  0.3284 -0.3924
  287TIP3    H1  825   2.883   0.619   5.769  1.0119  0.9612  0.3125
  287TIP3    H2  826   2.834   0.697   5.649 -0.1500  0.9279  0.7505
  288TIP3   OH2  827   6.604   4.539   3.964  0.2818 -0.1939  0.0366
  288TIP3    H1  828   6.584   4.460   4.015  0.8468  0.8672  2.0007
  288TIP3    H2  829   6.519   4.582   3.953 -0.2036 -1.5454 -1.9777
  289TIP3   OH2  830   4.675   2.962   0.055 -0.4175 -0.3157  0.5267
  289TIP3    H1  831   4.725   2.880   0.051  0.5641  0.2219  1.3637
  289TIP3    H2  832   4.629   2.966  -0.029  2.3719  0.0230 -1.0988
  290TIP3   OH2  833   0.565   5.178   1.122  0.1555 -0.1183  0.0404
  290TIP3    H1  834   0.509   5.134   1.186  0.4663 -0.1520  0.2885
  290TIP3    H2  835   0.542   5.138   1.039 -0.1257 -0.1962  0.1538
  291TIP3   OH2  836   2.646   4.753   0.895 -0.3539 -0.5277  0.4574
  291TIP3    H1  837   2.583   4.774   0.826  0.6445  1.8966  0.1741
  291TIP3    H2  838   2.635   4.822   0.960  1.9794 -0.0093  0.3818
  292TIP3   OH2  839   2.968   1.949   5.741 -0.0501 -0.2116 -0.2104
  292TIP3    H1  840   2.995   1.884   5.806  0.8727  1.6068  1.3460
  292TIP3    H2  841   3.050   1.994   5.718 -0.6700  0.4570 -1.1738
  293TIP3   OH2  842   6.499   4.907   3.660 -0.2375  0.7159  0.2352
  293TIP3    H1  843   6.534   4.847   3.726 -0.1494  0.6439  0.1235
  293TIP3    H2  844   6.511   4.994   3.698 -0.8275  0.6362  0.6144
  294TIP3   OH2  845   1.802   4.689   2.254 -0.0723 -0.1798  0.5455
  294TIP3    H1  846   1.896   4.674   2.253 -0.0100  0.2190 -0.2927
  294TIP3    H2  847   1.790   4.769   2.204 -0.7022  0.7740  2.1409
  295TIP3   OH2  848   6.925   3.357   3.953 -0.2071  0.2159  0.3742
  295TIP3    H1  849   6.950   3.365   3.861  1.5804 -0.3321  0.7708
  295TIP3    H2  850   6.836   3.321   3.951 -0.8592  1.7735 -1.1254
  296TIP3   OH2  851   6.168   5.901   2.238 -0.1414  0.1223  0.3591
  296TIP3    H1  852   6.242   5.930   2.290  0.9869 -0.3033 -0.9475
  296TIP3    H2  853   6.180   5.942   2.152 -0.8205 -0.7823 -0.1986
  297TIP3   OH2  854   5.864   5.570   0.118 -0.1705  0.5605  0.1906
  297TIP3    H1  855   5.780   5.606   0.092 -0.4626  1.1298  1.7674
  297TIP3    H2  856   5.872   5.594   0.211  1.6498  0.3729  0.1137
  298TIP3   OH2  857   3.272   0.181   4.131  0.7499 -0.0697  0.6203
  298TIP3    H1  858   3.283   0.113   4.065  1.0254  0.2542  0.3323
  298TIP3    H2  859   3.299   0.139   4.213 -1.1306 -0.9981  0.8262
  299TIP3   OH2  860   2.297   3.904   4.898 -0.2472 -0.2548 -0.5864
  299TIP3    H1  861   2.268   3.944   4.980 -0.1464 -0.5619 -0.4005
  299TIP3    H2  862   2.387   3.876   4.915  0.1860  0.7393 -1.1787
  300TIP3   OH2  863   5.869   1.311   4.209 -0.1434 -0.4278  0.7512
  300TIP3    H1  864   5.814   1.356   4.145  1.0713 -0.3675 -0.2679
  300TIP3    H2  865   5.809   1.293   4.282 -1.0569  1.3318  0.4925
  301TIP3   OH2  866   0.768   4.440   4.119 -0.2903  0.1852  0.0545
  301TIP3    H1  867   0.693   4.457   4.063 -1.1523  1.2641  1.4710
  301TIP3    H2  868   0.803   4.356   4.088 -2.1851 -0.4402 -0.5301
  302TIP3   OH2  869   5.615   0.585   4.613  0.0449  0.3717 -0.1719
  302TIP3    H1  870   5.568   0.589   4.531 -1.7533 -1.4002  0.6738
  302TIP3    H2  871   5.641   0.493   4.621 -1.6687 -0.0211  2.1265
  303TIP3   OH2  872   2.939   4.939   2.454 -0.0461 -0.0862 -0.2751
  303TIP3    H1  873   3.014   4.979   2.410 -0.0351 -1.6810 -1.8064
  303TIP3    H2  874   2.883   5.013   2.476  1.1572  0.9887 -0.6631
  304TIP3   OH2  875   3.237   5.405   5.156 -0.2954  0.3714 -0.4689
  304TIP3    H1  876   3.173   5.370   5.218 -0.5784  0.9869 -0.4069
  304TIP3    H2  877   3.231   5.346   5.080  1.2243 -1.3973  0.6736
  305TIP3   OH2  878   3.851   2.710   5.426 -0.2672 -0.4163  0.6355
  305TIP3    H1  879   3.842   2.716   5.521  1.0347 -1.2224  0.8454
  305TIP3    H2  880   3.855   2.616   5.409  0.0730 -0.2664 -0.1405
  306TIP3   OH2  881   5.553   2.511   3.928 -0.1105  0.0024 -0.1809
  306TIP3    H1  882   5.566   2.503   4.023 -1.4435 -0.3349 -0.0065
  306TIP3    H2  883   5.468   2.554   3.919 -0.6091 -1.1267 -1.2075
  307TIP3   OH2  884   3.534   6.672   4.600  0.0059 -0.3074 -0.4850
  307TIP3    H1  885   3.503   6.628   4.521 -0.8027 -1.8200  0.6316
  307TIP3    H2  886   3.619   6.708   4.575  0.4463 -2.0120 -1.6485
  308TIP3   OH2  887   4.886   2.606   5.579 -0.2053  0.2545  0.4650
  308TIP3    H1  888   4.952   2.537   5.574  0.6671  1.1507 -1.4907
  308TIP3    H2  889   4.836   2.586   5.658  1.5460 -1.2153  1.2652
  309TIP3   OH2  890   3.047   6.109   1.721 -0.1987 -0.6520 -0.1913
  309TIP3    H1  891   2.984   6.112   1.649  0.2065 -0.9592 -0.5647
  309TIP3    H2  892   3.040   6.019   1.754  0.2541 -0.7786 -0.4298
  310TIP3   OH2  893   1.605   3.581   2.368 -0.4086 -0.1784  0.3839
  310TIP3    H1  894   1.677   3.618   2.318  0.4871 -1.0812  0.9539
  310TIP3    H2  895   1.587   3.646   2.436  0.2053 -0.1673  0.5365
  311TIP3   OH2  896   4.517   1.449   5.587 -0.4849  0.6707 -0.1403
  311TIP3    H1  897   4.509   1.353   5.580  1.3327  0.2092  2.3927
  311TIP3    H2  898   4.449   1.483   5.529  0.3069 -2.0917 -2.9477
  312TIP3   OH2  899   6.745   3.765   2.050  0.2435  0.2920  0.1721
  312TIP3    H1  900   6.772   3.714   2.127  0.5448 -0.6972 -0.5629
  312TIP3    H2  901   6.653   3.744   2.039  0.4652 -0.4635 -0.3754
  313TIP3   OH2  902   3.426   0.507   3.833  0.0431  0.5887 -0.0504
  313TIP3    H1  903   3.397   0.578   3.776 -1.1607 -0.9176 -1.4219
  313TIP3    H2  904   3.362   0.437   3.818  1.5115 -0.9995  0.7953
  314TIP3   OH2  905   5.417   0.991   2.522  0.2461 -0.0690  0.3407
  314TIP3    H1  906   5.467   1.058   2.569 -1.3295  0.1107  1.8681
  314TIP3    H2  907   5.420   0.915   2.580  0.9191 -0.9304 -0.7847
  315TIP3   OH2  908   3.797   0.662   2.544  0.2643 -0.4436  0.4140
  315TIP3    H1  909   3.777   0.584   2.492 -1.6774 -0.2925  0.8667
  315TIP3    H2  910   3.752   0.733   2.499 -0.1014 -0.0308  1.4022
  316TIP3   OH2  911   4.654   1.065   0.219 -0.1408 -0.0009 -0.6512
  316TIP3    H1  912   4.737   1.019   0.227 -0.6552 -1.3080 -2.3930
  316TIP3    H2  913   4.588   1.001   0.244 -0.7112  0.6597 -0.4197
  317TIP3   OH2  914   0.286   4.849   2.930 -0.3348  0.3289  0.0151
  317TIP3    H1  915   0.206   4.854   2.878 -0.7839  1.4937  0.7785
  317TIP3    H2  916   0.357   4.866   2.868 -0.7847  0.7047 -0.3954
  318TIP3   OH2  917   4.712   4.681   3.971 -0.4262  0.2833  0.0564
  318TIP3    H1  918   4.737   4.726   3.890 -0.6165 -0.9689 -0.7129
  318TIP3    H2  919   4.750   4.594   3.964 -0.3078  0.2017  1.4005
  319TIP3   OH2  920   3.443   2.636   0.220  0.7124  0.3655  0.2584
  319TIP3    H1  921   3.492   2.606   0.297  1.4145  1.1802  0.1362
  319TIP3    H2  922   3.486   2.717   0.194  0.0914  0.4210 -0.6308
  320TIP3   OH2  923   1.874   4.880   4.145  0.2831 -0.1466 -0.0856
  320TIP3    H1  924   1.841   4.831   4.220  0.1636 -1.3333 -0.8826
  320TIP3    H2  925   1.957   4.838   4.123 -0.7123 -1.2704 -1.9393
  321TIP3   OH2  926   1.070   6.161   0.040 -0.1789  0.0633 -0.4903
  321TIP3    H1  927   1.059   6.182   0.132 -0.9554 -0.1374 -0.5362
  321TIP3    H2  928   1.164   6.145   0.031 -0.2588 -1.2129  0.5555
  322TIP3   OH2  929   6.937   6.595   3.172 -0.3077 -0.2086  0.4464
  322TIP3    H1  930   6.851   6.572   3.136  0.6848 -0.7124 -1.7901
  322TIP3    H2  931   6.955   6.682   3.137  0.7089 -0.7246 -0.3861
  323TIP3   OH2  932   4.342   6.262   1.561 -0.2953 -0.2359 -0.2891
  323TIP3    H1  933   4.258   6.248   1.605 -1.2387 -0.5681 -2.0936
  323TIP3    H2  934   4.394   6.186   1.584 -0.2145  0.2745  1.3655
  324TIP3   OH2  935   2.927   5.786   2.293 -0.2023 -0.2069  0.5415
  324TIP3    H1  936   2.834   5.776   2.272 -0.0838 -0.1107 -0.0641
  324TIP3    H2  937   2.935   5.874   2.328 -0.2090  0.1003 -0.2109
  325TIP3   OH2  938   6.479   0.799   0.365 -0.4487 -0.0675 -0.4681
  325TIP3    H1  939   6.450   0.820   0.454 -1.1267  0.2893 -0.7681
  325TIP3    H2  940   6.574   0.788   0.373 -0.5869 -0.7171  0.4238
  326TIP3   OH2  941   2.685   3.105   1.869 -0.0511  0.1981  0.0865
  326TIP3    H1  942   2.717   3.015   1.875 -0.3233 -0.0612 -1.7867
  326TIP3    H2  943   2.752   3.152   1.820  0.5308  1.2928  1.8186
  327TIP3   OH2  944   6.128   2.495   0.331  0.3963 -0.2653  0.4107
  327TIP3    H1  945   6.055   2.556   0.325  1.5428  1.2669  1.0887
  327TIP3    H2  946   6.088   2.409   0.334 -1.2887  0.4314 -0.7828
  328TIP3   OH2  947   4.871   1.822   2.286 -0.3098 -0.5844  0.2503
  328TIP3    H1  948   4.965   1.814   2.274 -0.3073  0.4238 -0.5202
  328TIP3    H2  949   4.835   1.743   2.245  0.1193 -0.3236 -0.6403
  329TIP3   OH2  950   1.116   0.231   1.731 -0.2029 -0.4181 -0.5954
  329TIP3    H1  951   1.115   0.146   1.687  2.7138 -0.8335 -0.0744
  329TIP3    H2  952   1.115   0.295   1.660  2.1050 -1.0463 -1.2963
  330TIP3   OH2  953   6.235   6.411   0.727 -0.0426  0.7357 -0.6658
  330TIP3    H1  954   6.318   6.388   0.685  0.0482  0.1144 -0.1482
  330TIP3    H2  955   6.260   6.463   0.803 -0.0600 -0.2393  0.0271
  331TIP3   OH2  956   1.080   0.265   2.404  0.6413 -0.0315  0.2546
  331TIP3    H1  957   1.053   0.200   2.339 -0.7740  0.5310  0.2372
  331TIP3    H2  958   1.124   0.333   2.353 -1.5345  1.0150 -0.3818
  332TIP3   OH2  959   5.409   0.362   2.533  0.3183  0.3423 -0.5240
  332TIP3    H1  960   5.422   0.267   2.534 -0.5383  0.2220  0.2127
  332TIP3    H2  961   5.496   0.397   2.512  0.5593 -0.6077 -1.2163
  333TIP3   OH2  962   1.173   0.888   3.065  0.0414 -0.0461  0.1674
  333TIP3    H1  963   1.111   0.816   3.072 -0.7562  0.4716 -1.1327
  333TIP3    H2  964   1.132   0.961   3.112 -0.9124  0.6242 -1.5983
  334TIP3   OH2  965   4.099   1.347   1.785  0.1114  0.0602  0.4708
  334TIP3    H1  966   4.129   1.438   1.795 -0.5391  0.6605 -2.1085
  334TIP3    H2  967   4.014   1.345   1.827  0.2369  0.5852  0.7624
  335TIP3   OH2  968   0.230   5.335   4.469 -0.2376 -0.3604 -0.2121
  335TIP3    H1  969   0.254   5.277   4.542  0.4438 -1.0218 -0.9407
  335TIP3    H2  970   0.158   5.289   4.425  0.4530 -0.7987 -0.9250
  336TIP3   OH2  971   2.000   6.335   1.677  0.4372  0.2125  0.0063
  336TIP3    H1  972   2.072   6.385   1.714  1.1078 -0.4009 -0.4603
  336TIP3    H2  973   1.921   6.375   1.715  0.9282  1.8305 -0.6285
  337TIP3   OH2  974   4.593   0.797   3.687  0.5153  0.2614  0.0195
  337TIP3    H1  975   4.626   0.841   3.765  1.9337  0.3604 -0.6073
  337TIP3    H2  976   4.619   0.854   3.615  0.2519 -0.4124 -0.6197
  338TIP3   OH2  977   5.475   5.788   5.784 -0.1186  0.7320 -0.0100
  338TIP3    H1  978   5.381   5.781   5.799 -0.0833  0.8598  0.2829
  338TIP3    H2  979   5.496   5.879   5.808  0.5647 -0.0523  2.7226
  339TIP3   OH2  980   6.168   1.021   0.079 -0.5301  0.0352 -0.4209
  339TIP3    H1  981   6.123   0.980   0.005 -1.1296 -0.5349  0.2394
  339TIP3    H2  982   6.238   0.960   0.102  1.1279  1.2584 -1.9108
  340TIP3   OH2  983   0.247   3.127   5.182 -0.0611  0.0747 -0.4835
  340TIP3    H1  984   0.193   3.205   5.196 -0.8091 -0.7469  1.5357
  340TIP3    H2  985   0.298   3.119   5.262  0.7186 -0.9856 -1.0685
  341TIP3   OH2  986   5.294   5.312   3.780 -0.1737 -0.1312  0.3909
  341TIP3    H1  987   5.273   5.221   3.798 -1.4366  0.3900  1.7279
  341TIP3    H2  988   5.312   5.351   3.866 -0.3644  1.0456 -0.0713
  342TIP3   OH2  989   5.456   2.205   3.948  0.0049 -0.1582 -0.0274
  342TIP3    H1  990   5.541   2.187   3.910  0.3538 -3.0107  1.8457
  342TIP3    H2  991   5.475   2.257   4.027  0.4007 -2.6635  1.6628
  343TIP3   OH2  992   7.083   2.993   2.584 -0.3924 -0.8271  0.3372
  343TIP3    H1  993   7.068   2.911   2.537 -1.2663 -1.3569  1.4878
  343TIP3    H2  994   7.066   2.971   2.676  0.8231  0.2810  0.8624
  344TIP3   OH2  995   1.898   0.131   2.043 -0.5242 -0.0540 -0.5019
  344TIP3    H1  996   1.976   0.185   2.029  0.2763 -1.0708 -0.0790
  344TIP3    H2  997   1.838   0.188   2.092  0.1147  0.6003 -0.4711
  345TIP3   OH2  998   0.617   4.096   5.587  0.1081  0.1812  0.3033
  345TIP3    H1  999   0.585   4.178   5.550 -1.5816 -0.5476  0.0659
  345TIP3    H2 1000   0.563   4.081   5.665 -0.4644 -1.2987 -0.3394
  346TIP3   OH2 1001   5.029   0.519   0.026 -0.3218  0.3313 -0.0288
  346TIP3    H1 1002   5.099   0.454   0.027 -0.6640 -0.0531  1.2757
  346TIP3    H2 1003   5.075   0.603   0.030  0.1029  0.1384 -0.7753
  347TIP3   OH2 1004   1.245   5.986   1.263 -0.2205 -0.0360 -0.2890
  347TIP3    H1 1005   1.169   6.041   1.285 -1.2373 -1.6545  0.4685
  347TIP3    H2 1006   1.320   6.031   1.301 -1.1546  0.3483  1.1566
  348TIP3   OH2 1007   5.898   5.819   2.722 -0.3002 -0.2827  0.1905
  348TIP3    H1 1008   5.981   5.839   2.766  0.5985  1.3668 -2.0730
  348TIP3    H2 1009   5.913   5.843   2.631 -3.1463 -0.4088 -0.3915
  349TIP3   OH2 1010   5.387   0.224   1.959  0.7750 -0.1717  0.0786
  349TIP3    H1 1011   5.394   0.316   1.987  0.1110  0.6324 -2.1996
  349TIP3    H2 1012   5.475   0.188   1.973  1.3642  1.1404 -0.0763
  350TIP3   OH2 1013   0.340   3.574   2.832 -0.1464 -0.1237  0.2048
  350TIP3    H1 1014   0.256   3.561   2.876  0.8133  0.9049  2.5592
  350TIP3    H2 1015   0.343   3.668   2.815  0.2860 -0.2412 -0.3794
  351TIP3   OH2 1016   6.653   3.522   3.869 -0.0681  0.2688 -0.4703
  351TIP3    H1 1017   6.716   3.563   3.928 -0.3659 -0.3783  0.3203
  351TIP3    H2 1018   6.572   3.517   3.920 -0.1201 -1.0244 -0.6451
  352TIP3   OH2 1019   0.569   6.534   1.457 -0.3394  0.2152 -0.0607
  352TIP3    H1 1020   0.651   6.496   1.489 -0.4744 -0.5160 -0.5668
  352TIP3    H2 1021   0.592   6.574   1.373 -0.1483  1.4747  0.5754
  353TIP3   OH2 1022   3.565   6.225   3.206 -0.6716  0.0552 -0.1771
  353TIP3    H1 1023   3.476   6.249   3.178 -0.5184  0.0393 -0.6955
  353TIP3    H2 1024   3.596   6.300   3.256 -0.7094  0.3615 -0.6100
  354TIP3   OH2 1025   0.833   1.437   4.425 -0.8379 -0.1125 -0.0976
  354TIP3    H1 1026   0.863   1.504   4.363 -0.8819 -0.0018  0.0006
  354TIP3    H2 1027   0.819   1.359   4.371 -0.6713 -0.0775 -0.1941
  355TIP3   OH2 1028   7.133   4.391   0.506  0.0398 -0.3792  0.1957
  355TIP3    H1 1029   7.180   4.349   0.434  0.0237 -0.1165  0.0336
  355TIP3    H2 1030   7.176   4.358   0.585  0.8978  0.3291  0.0338
  356TIP3   OH2 1031   6.281   6.056   0.355  0.4855 -0.3916 -0.1220
  356TIP3    H1 1032   6.285   6.148   0.332  1.2130 -0.1580  0.8800
  356TIP3    H2 1033   6.368   6.036   0.391  0.2355 -1.3766 -0.0346
  357TIP3   OH2 1034   7.129   5.057   5.377  0.3320  0.4646 -0.6292
  357TIP3    H1 1035   7.103   4.972   5.340  0.5779  0.0998  0.0267
  357TIP3    H2 1036   7.224   5.056   5.375  0.4104 -0.2187  1.4311
  358TIP3   OH2 1037   5.100   5.087   2.875 -0.0300  0.2270 -0.6430
  358TIP3    H1 1038   5.137   5.020   2.932 -0.1376  1.4004  0.8637
  358TIP3    H2 1039   5.018   5.049   2.844  0.6807 -0.9664 -1.1539
  359TIP3   OH2 1040   4.016   0.838   0.989  0.6140  0.0026 -0.1741
  359TIP3    H1 1041   4.052   0.909   1.042 -1.3965  0.5482  0.5602
  359TIP3    H2 1042   3.965   0.882   0.921  1.6696 -0.7353 -1.4911
  360TIP3   OH2 1043   5.826   6.269   2.376  0.1403 -0.1546 -0.4806
  360TIP3    H1 1044   5.852   6.313   2.295  2.1336 -1.3292 -0.5736
  360TIP3    H2 1045   5.733   6.285   2.384  0.4081  2.3469 -1.5253
  361TIP3   OH2 1046   1.025   3.574   5.590 -0.2819  0.1657  0.0030
  361TIP3    H1 1047   1.109   3.606   5.556 -0.7614  2.2206  0.5969
  361TIP3    H2 1048   1.030   3.591   5.684 -2.0121  2.1051 -0.1656
  362TIP3   OH2 1049   5.268   4.881   3.939 -0.4662 -0.7507  0.0846
  362TIP3    H1 1050   5.197   4.817   3.944 -1.3673  0.2345  0.2950
  362TIP3    H2 1051   5.289   4.901   4.030 -2.6004  1.7830  0.1446
  363TIP3   OH2 1052   5.804   5.266   3.049 -0.1632  0.6388  0.1923
  363TIP3    H1 1053   5.825   5.243   3.139  1.4045  1.8996  0.1985
  363TIP3    H2 1054   5.806   5.362   3.048  0.0468  0.6427 -1.2207
  364TIP3   OH2 1055   1.369   0.659   4.057 -0.3564 -0.9370 -0.0099
  364TIP3    H1 1056   1.397   0.576   4.017 -1.6895 -2.7854  2.5865
  364TIP3    H2 1057   1.274   0.660   4.046 -0.2784  0.7196 -0.7551
  365TIP3   OH2 1058   5.859   3.808   2.048 -0.1522 -0.6848  0.2803
  365TIP3    H1 1059   5.885   3.791   1.958  0.0775  2.3883 -0.3457
  365TIP3    H2 1060   5.933   3.778   2.101  0.6350 -0.5830 -0.7377
  366TIP3   OH2 1061   1.139   3.006   3.145  0.4030 -0.1655 -0.5457
  366TIP3    H1 1062   1.105   3.070   3.083  0.6795  0.5825  0.0572
  366TIP3    H2 1063   1.208   3.053   3.193  0.6543 -0.9297 -0.1301
  367TIP3   OH2 1064   3.696   3.855   5.203  0.1037  0.2270  0.4972
  367TIP3    H1 1065   3.781   3.882   5.168 -0.3612 -0.1498 -0.9672
  367TIP3    H2 1066   3.698   3.759   5.197 -1.3020  0.2760 -1.7749
  368TIP3   OH2 1067   2.980   2.903   5.076  0.7949 -0.0614 -0.4177
  368TIP3    H1 1068   3.018   2.923   5.162 -1.1863  1.6036  0.1538
  368TIP3    H2 1069   3.044   2.935   5.013  1.9490 -0.6465  0.4153
  369TIP3   OH2 1070   4.013   5.804   0.338 -0.4290  0.4024 -0.1477
  369TIP3    H1 1071   3.987   5.874   0.399 -4.1450  2.0236 -3.1895
  369TIP3    H2 1072   3.950   5.733   0.355  0.7605 -0.6039  0.1921
  370TIP3   OH2 1073   1.831   0.599   0.961  0.4264  0.1752  0.5841
  370TIP3    H1 1074   1.911   0.644   0.933 -1.4193  1.9351 -2.4301
  370TIP3    H2 1075   1.849   0.506   0.948  1.5787  0.6200 -1.3512
  371TIP3   OH2 1076   2.369   2.959   4.656 -0.2493  0.0486  0.0548
  371TIP3    H1 1077   2.359   2.884   4.713 -0.7960  0.8831  1.0937
  371TIP3    H2 1078   2.357   3.035   4.713 -0.0952  0.9247 -1.0301
  372TIP3   OH2 1079   3.676   1.475   1.389  0.8635 -0.6002 -0.1544
  372TIP3    H1 1080   3.770   1.460   1.380  0.5644 -1.7298 -1.8980
  372TIP3    H2 1081   3.644   1.482   1.299 -0.5163  1.3786  0.4248
  373TIP3   OH2 1082   5.048   3.853   2.027 -0.2478  0.6020 -0.7071
  373TIP3    H1 1083   5.120   3.907   1.996  0.1458 -0.4987 -1.7690
  373TIP3    H2 1084   5.089   3.785   2.081 -0.7642  1.4853  0.8650
  374TIP3   OH2 1085   4.635   2.092   2.447 -0.1000  0.2217  0.1061
  374TIP3    H1 1086   4.721   2.094   2.405 -0.1447  1.5568  0.0238
  374TIP3    H2 1087   4.580   2.147   2.391 -0.4696  1.0590  1.2565
  375TIP3   OH2 1088   4.582   1.892   4.676  0.5170  0.1185  0.5059
  375TIP3    H1 1089   4.524   1.906   4.751  1.7031  2.0329  1.1419
  375TIP3    H2 1090   4.533   1.833   4.619 -0.9122 -0.4558  2.2226
  376TIP3   OH2 1091   6.120   0.395   3.858 -0.3352 -0.3591  0.2454
  376TIP3    H1 1092   6.041   0.363   3.903 -0.8772 -0.1490 -0.5329
  376TIP3    H2 1093   6.160   0.455   3.920 -1.3625  0.3357  0.2693
  377TIP3   OH2 1094   1.498   1.034   2.737 -0.3672 -0.0166  0.4222
  377TIP3    H1 1095   1.478   1.011   2.827  2.9490  0.5493  1.4240
  377TIP3    H2 1096   1.507   1.130   2.737 -2.5139  0.2653 -1.0854
  378TIP3   OH2 1097   1.995   3.503   1.366 -0.0197  0.5738 -0.2959
  378TIP3    H1 1098   1.977   3.454   1.286 -1.6934 -0.8068  0.8619
  378TIP3    H2 1099   2.079   3.469   1.397  0.2094  0.5021 -0.9726
  379TIP3   OH2 1100   6.698   0.995   1.742 -0.8132 -0.6750 -0.4667
  379TIP3    H1 1101   6.702   0.900   1.729  0.9953 -0.4088 -2.2740
  379TIP3    H2 1102   6.633   1.025   1.678  1.6054 -0.3303 -2.9219
  380TIP3   OH2 1103   2.995   4.088   2.965 -0.2891  0.9272  0.3561
  380TIP3    H1 1104   2.929   4.024   2.992  1.3887 -0.2575  1.9218
  380TIP3    H2 1105   3.071   4.035   2.941  1.4129  2.2557  2.3937
  381TIP3   OH2 1106   2.937   6.179   3.945  0.2724  0.7226 -0.7326
  381TIP3    H1 1107   2.887   6.125   3.883 -0.4473  0.3218  0.1809
  381TIP3    H2 1108   3.026   6.179   3.910  0.7581 -2.6188  0.1589
  382TIP3   OH2 1109   6.693   5.459   3.306  0.0444 -0.5126 -0.4054
  382TIP3    H1 1110   6.643   5.458   3.224 -0.0394  0.6120 -0.3767
  382TIP3    H2 1111   6.631   5.488   3.372  0.5064  0.0742 -0.2189
  383TIP3   OH2 1112   5.502   2.394   5.336 -0.2822  0.5000  0.0669
  383TIP3    H1 1113   5.505   2.308   5.295  1.2589  0.8262 -0.5559
  383TIP3    H2 1114   5.428   2.438   5.293 -0.3077 -0.0797 -0.5031
  384TIP3   OH2 1115   0.412   1.979   5.369 -0.0512 -0.1985 -0.1627
  384TIP3    H1 1116   0.440   1.962   5.279  1.6894  0.9674  0.1274
  384TIP3    H2 1117   0.396   2.073   5.372 -0.4173 -0.2799  0.6785
  385TIP3   OH2 1118   1.308   5.865   4.425  0.1867  0.1059  0.6340
  385TIP3    H1 1119   1.346   5.945   4.390  0.9283 -0.4076  0.2252
  385TIP3    H2 1120   1.366   5.795   4.393  0.8150 -0.4155  2.7492
  386TIP3   OH2 1121   1.398   5.125   3.796 -0.0707 -0.1473 -0.0946
  386TIP3    H1 1122   1.492   5.139   3.791 -0.0783 -0.0904 -0.0864
  386TIP3    H2 1123   1.372   5.167   3.878  0.1878 -1.8342  0.8823
  387TIP3   OH2 1124   4.976   1.179   0.097  0.0634 -0.0954 -0.5296
  387TIP3    H1 1125   4.885   1.210   0.106 -0.5045 -1.7620 -0.2352
  387TIP3    H2 1126   5.028   1.260   0.092 -1.4751  0.9030 -1.2958
  388TIP3   OH2 1127   1.218   2.748   3.046  0.2292 -0.2643  0.1073
  388TIP3    H1 1128   1.308   2.743   3.078 -0.1560 -1.4778  1.1193
  388TIP3    H2 1129   1.182   2.827   3.085  0.5938 -0.2686  0.4498
  389TIP3   OH2 1130   4.915   5.065   5.153  0.4174 -0.2301 -0.4645
  389TIP3    H1 1131   4.828   5.068   5.192  0.5441 -2.6497  0.1449
  389TIP3    H2 1132   4.902   5.019   5.070  1.3319 -2.4907  0.5488
  390TIP3   OH2 1133   1.391   2.778   5.665  0.3628  0.4024  0.5782
  390TIP3    H1 1134   1.408   2.860   5.712  0.3460  0.6934  0.0901
  390TIP3    H2 1135   1.306   2.749   5.697 -0.1698  1.1935 -0.0945
  391TIP3   OH2 1136   1.758   3.015   2.401 -0.2160 -0.0673 -0.3713
  391TIP3    H1 1137   1.689   3.045   2.342 -0.6804  1.0750  0.7101
  391TIP3    H2 1138   1.825   3.082   2.398 -1.3750  1.3830  2.2567
  392TIP3   OH2 1139   5.241   1.133   4.473  0.1280 -0.4329 -0.3324
  392TIP3    H1 1140   5.245   1.106   4.565  0.6077  1.1617  0.1499
  392TIP3    H2 1141   5.149   1.156   4.458  0.1670 -0.0752 -0.0458
  393TIP3   OH2 1142   1.460   5.677   3.897 -0.6116 -0.3640  0.6406
  393TIP3    H1 1143   1.411   5.746   3.942  0.4535  0.3168  0.7754
  393TIP3    H2 1144   1.483   5.715   3.812 -1.4992 -1.1862  0.0123
  394TIP3   OH2 1145   6.392   1.705   5.231 -0.1456 -0.6288 -0.1663
  394TIP3    H1 1146   6.457   1.640   5.258  1.6202  1.0952 -0.0483
  394TIP3    H2 1147   6.421   1.734   5.145 -0.4637  0.5167  0.0918
  395TIP3   OH2 1148   6.453   5.132   5.555 -0.0768  0.1447  0.3752
  395TIP3    H1 1149   6.376   5.174   5.517  0.4034 -0.3554 -1.1815
  395TIP3    H2 1150   6.420   5.087   5.633 -1.0499  1.2407  0.6286
  396TIP3   OH2 1151   1.607   5.052   2.750  0.3078 -0.3892  0.2070
  396TIP3    H1 1152   1.608   4.958   2.771 -0.2428 -0.5941 -0.6270
  396TIP3    H2 1153   1.542   5.060   2.681  0.6462  0.5538 -0.0156
  397TIP3   OH2 1154   0.227   4.238   4.022  0.0699 -0.0382  0.0420
  397TIP3    H1 1155   0.186   4.152   4.019  0.5953 -0.3148  0.5616
  397TIP3    H2 1156   0.183   4.283   4.094  0.1045 -0.0342  0.0608
  398TIP3   OH2 1157   5.994   6.389   2.855  0.0479  0.2235 -0.2292
  398TIP3    H1 1158   6.061   6.421   2.916  0.8223 -0.8628 -0.4763
  398TIP3    H2 1159   5.967   6.467   2.806  1.3127  0.6559 -0.2865
  399TIP3   OH2 1160   1.329   6.019   2.451  0.2848 -0.0287  0.1621
  399TIP3    H1 1161   1.328   6.075   2.529  0.8382  1.0030 -0.5409
  399TIP3    H2 1162   1.240   5.985   2.445 -0.4627  1.8270 -0.0883
  400TIP3   OH2 1163   5.839   4.269   1.961  0.0657  0.4248  0.0256
  400TIP3    H1 1164   5.808   4.342   2.014 -0.3616  0.5025 -0.3299
  400TIP3    H2 1165   5.785   4.194   1.989 -1.2401  0.8090 -1.3874
  401TIP3   OH2 1166   4.558   2.791   1.974 -0.0084 -0.2965 -0.3065
  401TIP3    H1 1167   4.538   2.781   2.067 -2.1049  1.4386 -0.4882
  401TIP3    H2 1168   4.569   2.885   1.962  0.0948 -0.4727 -1.8389
  402TIP3   OH2 1169   6.347   5.834   4.469 -0.4404 -0.4833  0.0174
  402TIP3    H1 1170   6.359   5.750   4.513 -1.2807  0.4869  2.2679
  402TIP3    H2 1171   6.256   5.833   4.439 -0.0718 -0.8662 -1.1164
  403TIP3   OH2 1172   5.692   0.378   1.352 -0.3519 -0.2442 -0.2869
  403TIP3    H1 1173   5.623   0.313   1.366 -1.1629  0.6662  0.1176
  403TIP3    H2 1174   5.652   0.444   1.295  0.3530  0.0425 -0.4600
  404TIP3   OH2 1175   3.711   2.526   3.962 -0.2138 -0.3581 -0.0093
  404TIP3    H1 1176   3.796   2.515   3.920  0.5380  0.6663  1.1875
  404TIP3    H2 1177   3.659   2.577   3.899  0.1169 -0.8002 -0.6509
  405TIP3   OH2 1178   5.300   5.786   4.807 -0.7961  0.1566 -0.0889
  405TIP3    H1 1179   5.314   5.693   4.826 -1.5118  0.6933  4.0188
  405TIP3    H2 1180   5.383   5.814   4.768  0.3481 -1.7501  0.7674
  406TIP3   OH2 1181   7.121   6.711   2.750  0.2144  0.4654 -0.0725
  406TIP3    H1 1182   7.047   6.654   2.730  1.8862 -3.0452  2.5887
  406TIP3    H2 1183   7.184   6.694   2.680 -0.0064  0.4320 -0.2640
  407TIP3   OH2 1184   0.815   3.379   1.860  0.3727  0.4732  0.0279
  407TIP3    H1 1185   0.769   3.432   1.924  0.7221  1.5806 -0.6046
  407TIP3    H2 1186   0.837   3.440   1.790  0.0283 -0.6975 -1.1390
  408TIP3   OH2 1187   1.562   5.972   2.307  0.3570  0.1189 -0.3392
  408TIP3    H1 1188   1.571   6.056   2.262  0.1321  0.3283  0.0072
  408TIP3    H2 1189   1.503   5.990   2.380  0.9392 -0.1560  0.2077
  409TIP3   OH2 1190   0.999   1.152   5.346  0.5216  0.3892 -0.2128
  409TIP3    H1 1191   1.002   1.127   5.438  0.1871 -2.1794 -0.8084
  409TIP3    H2 1192   0.908   1.137   5.319  0.8419  0.1048 -1.1890
  410TIP3   OH2 1193   3.274   3.962   1.914 -0.2339  0.2392 -0.8965
  410TIP3    H1 1194   3.351   3.907   1.901 -1.0786 -0.7939 -1.7403
  410TIP3    H2 1195   3.225   3.956   1.832 -1.3229  0.7068 -0.3160
  411TIP3   OH2 1196   6.232   2.136   4.511 -0.1783 -0.1237 -0.2979
  411TIP3    H1 1197   6.199   2.055   4.549  0.3184  0.1726  0.8010
  411TIP3    H2 1198   6.153   2.189   4.496 -0.3261  0.1203  1.2213
  412TIP3   OH2 1199   4.438   6.510   0.942 -0.1147 -0.4106 -0.5257
  412TIP3    H1 1200   4.346   6.492   0.959 -0.3692  2.0653  1.2566
  412TIP3    H2 1201   4.484   6.479   1.019  0.1417  0.9472 -0.0995
  413TIP3   OH2 1202   3.398   6.451   2.232 -0.3032 -0.5732 -0.1951
  413TIP3    H1 1203   3.309   6.481   2.251  0.3272 -0.0150  2.1398
  413TIP3    H2 1204   3.416   6.383   2.297  2.1671  1.8044  1.8702
  414TIP3   OH2 1205   6.065   1.302   1.149  0.7250 -1.1471  0.3051
  414TIP3    H1 1206   6.068   1.381   1.203 -0.3770 -1.5140  0.9242
  414TIP3    H2 1207   6.054   1.230   1.211 -0.6902 -1.5648 -0.3856
  415TIP3   OH2 1208   2.231   1.312   0.234 -0.0088 -0.0944  0.1711
  415TIP3    H1 1209   2.183   1.240   0.275  1.0548 -1.0338 -0.1858
  415TIP3    H2 1210   2.175   1.341   0.162 -1.1369  0.4725  1.2373
  416TIP3   OH2 1211   1.572   0.675   3.771  0.0833 -0.3704 -0.3101
  416TIP3    H1 1212   1.607   0.703   3.686 -0.7017  2.0620  0.0933
  416TIP3    H2 1213   1.589   0.748   3.830 -2.8325 -0.3349  0.6493
  417TIP3   OH2 1214   2.444   1.940   1.931  0.5644 -0.1937 -0.0388
  417TIP3    H1 1215   2.467   2.002   1.861  1.3494 -0.4053  0.0119
  417TIP3    H2 1216   2.527   1.923   1.975  0.5346 -1.8931 -0.5614
  418TIP3   OH2 1217   0.615   5.501   5.880 -0.3335 -0.2775 -0.3424
  418TIP3    H1 1218   0.597   5.561   5.807  1.9202  1.1135  0.1619
  418TIP3    H2 1219   0.649   5.423   5.837  0.7344  0.4311 -0.8274
  419TIP3   OH2 1220   3.923   0.403   4.070 -0.0066 -0.1385  0.7011
  419TIP3    H1 1221   3.861   0.400   4.142  1.1326  0.5979  1.7536
  419TIP3    H2 1222   3.969   0.486   4.081 -0.0442  0.1568 -1.1000
  420TIP3   OH2 1223   0.213   3.361   3.538 -0.1801 -0.4076  0.2385
  420TIP3    H1 1224   0.154   3.318   3.600 -0.8226 -0.2846 -0.2772
  420TIP3    H2 1225   0.277   3.407   3.594 -1.4055  0.6294  0.8376
  421TIP3   OH2 1226   0.838   5.373   0.045 -0.0947  0.0975 -0.4167
  421TIP3    H1 1227   0.914   5.428   0.027  0.2017  0.2353  1.1315
  421TIP3    H2 1228   0.871   5.283   0.038 -0.3267  0.1043 -1.8869
  422TIP3   OH2 1229   4.090   0.217   4.260 -0.0862 -0.4324 -0.1410
  422TIP3    H1 1230   4.087   0.255   4.348 -2.2596  0.3362 -0.4750
  422TIP3    H2 1231   4.076   0.291   4.201 -0.2720 -1.1591 -1.0360
  423TIP3   OH2 1232   1.979   5.366   4.036 -0.4582  0.0312 -0.2454
  423TIP3    H1 1233   1.931   5.301   4.088 -0.0471 -0.2940 -0.2644
  423TIP3    H2 1234   2.059   5.382   4.085 -0.5099  0.4526 -0.2935
  424TIP3   OH2 1235   6.765   1.680   4.336  0.0384 -0.0632  0.2207
  424TIP3    H1 1236   6.707   1.699   4.409 -0.8389  0.8156 -0.6665
  424TIP3    H2 1237   6.785   1.587   4.345  0.2939  0.1232  1.8028
  425TIP3   OH2 1238   1.184   5.536   5.006 -0.3329  0.0462 -0.2762
  425TIP3    H1 1239   1.168   5.630   5.015  2.3199  0.5524 -0.0154
  425TIP3    H2 1240   1.207   5.508   5.095  0.9505 -0.3612 -0.7185
  426TIP3   OH2 1241   5.120   1.339   5.485  0.4617 -0.1012 -0.6365
  426TIP3    H1 1242   5.172   1.303   5.557 -1.6211  0.5558  1.3217
  426TIP3    H2 1243   5.051   1.274   5.471  0.1198  0.3739 -1.1728
  427TIP3   OH2 1244   3.497   1.083   3.880 -0.4962 -0.4249  0.2031
  427TIP3    H1 1245   3.456   1.084   3.794  0.4273 -0.8047 -0.2528
  427TIP3    H2 1246   3.559   1.010   3.876  0.2627  0.1736  0.8507
  428TIP3   OH2 1247   1.567   3.603   0.614 -0.2153 -0.6064 -0.5678
  428TIP3    H1 1248   1.623   3.674   0.583 -0.3681 -1.0552 -1.9415
  428TIP3    H2 1249   1.516   3.578   0.537 -1.3897 -1.0603  0.3338
  429TIP3   OH2 1250   0.656   2.260   5.032  0.2268 -0.0192  0.4423
  429TIP3    H1 1251   0.571   2.278   5.073  0.1904  3.5722 -0.9323
  429TIP3    H2 1252   0.646   2.172   4.995 -2.7665  0.1606  0.5872
  430TIP3   OH2 1253   4.452   3.006   3.269  0.1548  0.2368 -0.1694
  430TIP3    H1 1254   4.493   3.070   3.210  0.1689  2.5304  2.1541
  430TIP3    H2 1255   4.524   2.975   3.325  0.0607 -1.5830 -0.9633
  431TIP3   OH2 1256   6.089   3.105   2.892 -0.1385  0.3740 -0.1968
  431TIP3    H1 1257   6.145   3.158   2.949 -1.3807  1.2720  0.2272
  431TIP3    H2 1258   6.104   3.140   2.804  0.4401  0.1680 -0.1876
  432TIP3   OH2 1259   2.895   6.311   5.561 -0.2152  0.6092 -0.2897
  432TIP3    H1 1260   2.971   6.253   5.561  0.6359  1.6955  0.3924
  432TIP3    H2 1261   2.827   6.261   5.607 -0.0077 -0.4574 -1.1055
  433TIP3   OH2 1262   2.417   5.524   5.510  0.6127  0.2396 -0.1193
  433TIP3    H1 1263   2.383   5.437   5.533  0.8676  0.1881  0.0675
  433TIP3    H2 1264   2.340   5.575   5.487  0.3144  0.3880  1.1453
  434TIP3   OH2 1265   3.260   2.334   2.745 -0.5696 -0.6473 -0.5796
  434TIP3    H1 1266   3.173   2.306   2.772 -0.3548 -0.7936 -0.0228
  434TIP3    H2 1267   3.250   2.426   2.722 -0.9402 -0.7509 -0.8431
  435TIP3   OH2 1268   7.005   5.043   1.663 -0.1897 -0.6218 -0.2927
  435TIP3    H1 1269   7.060   5.084   1.596 -0.8037  0.0140 -0.4119
  435TIP3    H2 1270   7.064   5.028   1.737  0.0949  0.2496 -0.3398
  436TIP3   OH2 1271   6.378   5.239   2.174  0.1669 -0.2792 -0.7301
  436TIP3    H1 1272   6.448   5.214   2.113  2.4164  0.3488  1.4070
  436TIP3    H2 1273   6.401   5.329   2.200 -0.6203 -0.5810  1.1076
  437TIP3   OH2 1274   1.274   6.489   2.651 -0.2647 -0.5417  0.4079
  437TIP3    H1 1275   1.243   6.424   2.588  0.7165 -0.4187 -0.2166
  437TIP3    H2 1276   1.195   6.514   2.700 -1.0871 -0.5461 -0.8600
  438TIP3   OH2 1277   0.927   0.863   2.553  0.1072 -0.2107 -0.0136
  438TIP3    H1 1278   0.852   0.808   2.530 -1.2574  2.1083 -1.4946
  438TIP3    H2 1279   0.949   0.909   2.471  2.3221  0.1796  0.7184
  439TIP3   OH2 1280   1.741   6.534   0.760 -0.5879  0.4539  0.8109
  439TIP3    H1 1281   1.772   6.605   0.704 -0.8300  0.5506  0.7986
  439TIP3    H2 1282   1.799   6.461   0.740 -1.3018  0.1707 -0.3178
  440TIP3   OH2 1283   4.557   3.790   1.270  0.0350  0.2513  0.0709
  440TIP3    H1 1284   4.607   3.847   1.327  2.3159  0.0138 -1.5627
  440TIP3    H2 1285   4.492   3.847   1.229 -0.8490  0.6479  1.9236
  441TIP3   OH2 1286   5.418   6.727   4.005 -0.5079 -0.4403  0.2360
  441TIP3    H1 1287   5.429   6.822   4.009 -0.9476 -0.4218  1.1823
  441TIP3    H2 1288   5.462   6.694   4.084  0.7568 -1.1423 -0.7233
  442TIP3   OH2 1289   0.051   0.545   2.222 -0.1668  0.0012  0.5501
  442TIP3    H1 1290   0.086   0.629   2.252 -0.1675  0.4783 -0.7453
  442TIP3    H2 1291   0.022   0.561   2.133 -0.2075 -1.3722  0.2902
  443TIP3   OH2 1292   0.136   0.974   1.019 -0.1676  0.2808  0.2567
  443TIP3    H1 1293   0.046   0.970   1.049 -0.2162  1.2859  0.2548
  443TIP3    H2 1294   0.188   0.951   1.096 -0.4651 -3.7850 -0.5063
  444TIP3   OH2 1295   1.768   5.337   2.147  0.7258  0.7102 -0.1274
  444TIP3    H1 1296   1.789   5.348   2.240 -1.1044 -0.0673  0.4253
  444TIP3    H2 1297   1.786   5.423   2.108 -1.3652  2.0293  1.5749
  445TIP3   OH2 1298   6.962   1.893   4.372  0.2469  0.2609 -0.2788
  445TIP3    H1 1299   7.021   1.905   4.298  0.6166 -1.5475 -0.3374
  445TIP3    H2 1300   6.885   1.851   4.334 -1.0776  2.4379 -0.1704
  446TIP3   OH2 1301   2.529   1.690   5.254  0.7911 -0.5268  0.1411
  446TIP3    H1 1302   2.437   1.671   5.234  0.5614 -1.3421  1.7887
  446TIP3    H2 1303   2.578   1.622   5.209  0.3789 -1.5724  1.2164
  447TIP3   OH2 1304   5.633   0.692   0.968  0.3429  0.0106 -0.3831
  447TIP3    H1 1305   5.708   0.682   0.909 -0.7697 -1.0297 -1.6856
  447TIP3    H2 1306   5.614   0.785   0.967  1.8322  0.3525  0.2730
  448TIP3   OH2 1307   6.056   2.433   1.034 -0.4474  0.0019  0.2155
  448TIP3    H1 1308   6.128   2.417   1.094 -0.5309  0.0154  0.3205
  448TIP3    H2 1309   5.978   2.409   1.084 -0.4417 -1.0626 -0.2582
  449TIP3   OH2 1310   2.595   1.397   1.346 -0.1779  0.3246 -0.0203
  449TIP3    H1 1311   2.633   1.415   1.432  0.3601 -0.2165 -0.1383
  449TIP3    H2 1312   2.590   1.302   1.340  0.8883  0.3042 -1.0399
  450TIP3   OH2 1313   1.376   2.761   3.689  0.2300  0.4608  0.1079
  450TIP3    H1 1314   1.442   2.696   3.711 -0.7565 -1.2622 -1.6772
  450TIP3    H2 1315   1.358   2.806   3.771 -0.2218 -2.6363  1.8587
  451TIP3   OH2 1316   4.204   2.660   3.529  0.2814  0.2148  0.4461
  451TIP3    H1 1317   4.253   2.663   3.447  1.1495  1.9979  0.9614
  451TIP3    H2 1318   4.143   2.587   3.519  4.3115 -3.5479  0.4886
  452TIP3   OH2 1319   1.338   0.522   1.850  0.4059  0.6405 -0.0258
  452TIP3    H1 1320   1.354   0.452   1.788  1.9060  0.0944  0.9115
  452TIP3    H2 1321   1.255   0.500   1.892  0.2783  0.0667 -0.5811
  453TIP3   OH2 1322   3.902   2.936   2.508  0.5712 -0.1359 -0.3468
  453TIP3    H1 1323   3.857   2.988   2.441 -0.4892 -0.1936  0.2912
  453TIP3    H2 1324   3.896   2.846   2.477  2.2348  0.0563 -1.3549
  454TIP3   OH2 1325   1.374   3.213   3.563  0.4155  0.1555 -0.7462
  454TIP3    H1 1326   1.315   3.152   3.607  0.6171 -0.6718 -1.6084
  454TIP3    H2 1327   1.460   3.196   3.602  0.6273 -0.7001 -1.5579
  455TIP3   OH2 1328   6.549   3.812   4.987  0.5796  0.7423 -0.1978
  455TIP3    H1 1329   6.597   3.770   5.058 -1.3733 -1.5303 -0.0968
  455TIP3    H2 1330   6.538   3.743   4.921 -2.6487  0.9930 -0.0884
  456TIP3   OH2 1331   6.265   0.015   3.981  0.0080  0.4903  0.6549
  456TIP3    H1 1332   6.305   0.101   3.971 -1.1753  1.1101  1.1008
  456TIP3    H2 1333   6.329  -0.046   3.945  0.7930  1.5717  0.1958
  457TIP3   OH2 1334   4.740   1.519   5.220 -0.4330  0.1487  0.2971
  457TIP3    H1 1335   4.714   1.434   5.256 -0.3765 -1.3177 -2.7805
  457TIP3    H2 1336   4.833   1.509   5.200 -0.3155  1.0977  0.3348
  458TIP3   OH2 1337   6.183   4.039   3.107 -0.4115 -1.0948 -0.3197
  458TIP3    H1 1338   6.209   4.124   3.143  1.6518 -1.8700  0.1407
  458TIP3    H2 1339   6.102   4.017   3.153  0.3819 -0.5175  1.4301
  459TIP3   OH2 1340   4.724   0.501   1.153 -0.5024  0.6588 -0.3033
  459TIP3    H1 1341   4.648   0.549   1.187 -0.4973  0.1193  0.4837
  459TIP3    H2 1342   4.796   0.563   1.159 -0.6343  0.7752  0.0763
  460TIP3   OH2 1343   6.833   1.218   2.242 -0.2333 -0.3286 -0.2760
  460TIP3    H1 1344   6.898   1.216   2.173 -0.2776  0.9616 -0.3801
  460TIP3    H2 1345   6.853   1.297   2.292 -0.9186 -0.6109  0.4683
  461TIP3   OH2 1346   0.566   3.122   1.892  0.0161 -1.0993  0.2205
  461TIP3    H1 1347   0.582   3.215   1.876 -0.4200 -1.1916 -0.8532
  461TIP3    H2 1348   0.605   3.105   1.978  1.2091 -0.2097 -0.1173
  462TIP3   OH2 1349   5.937   3.673   1.790 -0.8285 -0.1538 -0.6980
  462TIP3    H1 1350   5.965   3.693   1.701 -1.1428 -0.5028 -0.8776
  462TIP3    H2 1351   6.011   3.625   1.828  0.0390  1.5142 -0.1782
  463TIP3   OH2 1352   1.947   3.039   2.074  0.6232  0.1177 -0.2946
  463TIP3    H1 1353   1.965   3.115   2.128 -0.0955 -1.4478  2.3339
  463TIP3    H2 1354   1.862   3.058   2.033  0.3554  0.6743  0.4962
  464TIP3   OH2 1355   0.633   5.815   5.368 -0.0066  0.5590  0.1869
  464TIP3    H1 1356   0.558   5.869   5.392  0.1071  0.4896  0.7073
  464TIP3    H2 1357   0.705   5.877   5.354 -0.0164  0.5813  0.2370
  465TIP3   OH2 1358   3.059   3.424   1.698  0.5516 -0.1841  0.2271
  465TIP3    H1 1359   3.045   3.492   1.632 -0.6039  1.6452  2.2169
  465TIP3    H2 1360   3.145   3.443   1.735  1.2972 -1.3419 -0.8207
  466TIP3   OH2 1361   4.856   6.152   3.776 -0.3307  0.0692  0.0529
  466TIP3    H1 1362   4.851   6.060   3.748  0.4470 -0.4057  1.3343
  466TIP3    H2 1363   4.766   6.177   3.793 -0.5420 -0.5109 -0.1711
  467TIP3   OH2 1364   0.999   0.748   5.397 -0.1670 -0.9053 -0.9074
  467TIP3    H1 1365   0.937   0.694   5.445 -0.1046 -1.1898 -1.1374
  467TIP3    H2 1366   0.992   0.717   5.306 -0.5214 -0.1550 -1.1402
  468TIP3   OH2 1367   3.702   1.627   0.781 -0.3258  0.3255  0.1946
  468TIP3    H1 1368   3.797   1.617   0.774 -0.3867  0.7153 -1.8009
  468TIP3    H2 1369   3.687   1.721   0.771 -0.9293  0.3115  0.8346
  469TIP3   OH2 1370   6.945   2.777   0.044 -0.0655 -0.5846 -0.0220
  469TIP3    H1 1371   6.881   2.758  -0.024  0.0859 -2.7598  0.3886
  469TIP3    H2 1372   7.027   2.792  -0.004 -0.5327  0.7969 -0.4496
  470TIP3   OH2 1373   0.618   5.305   0.718 -0.2355 -0.2387  0.5953
  470TIP3    H1 1374   0.582   5.227   0.674  0.7615 -1.0801  1.2392
  470TIP3    H2 1375   0.556   5.375   0.696  0.8807 -0.2481 -3.2970
  471TIP3   OH2 1376   1.829   2.607   4.495  0.2941  0.0801 -0.2536
  471TIP3    H1 1377   1.750   2.556   4.481  0.0836  0.2580  0.2389
  471TIP3    H2 1378   1.890   2.546   4.537 -0.5550  0.6510  1.9450
  472TIP3   OH2 1379   5.861   5.165   5.279  0.6415 -0.3976 -0.1360
  472TIP3    H1 1380   5.902   5.098   5.224  3.2177  0.5727  0.4225
  472TIP3    H2 1381   5.910   5.245   5.259 -2.0278  1.2677 -0.4401
  473TIP3   OH2 1382   0.304   3.417   5.617  0.3580  0.3125 -0.0612
  473TIP3    H1 1383   0.257   3.428   5.700  1.6630  0.5672  0.6604
  473TIP3    H2 1384   0.395   3.436   5.638  1.2503 -2.5242 -0.8753
  474TIP3   OH2 1385   4.694   6.656   1.494  0.1632  0.6928 -0.0161
  474TIP3    H1 1386   4.775   6.678   1.539  0.1221  1.4127 -0.2844
  474TIP3    H2 1387   4.674   6.567   1.523  0.2862  1.0302  1.1610
  475TIP3   OH2 1388   1.242   1.411   0.333  0.3980  0.3926 -0.3723
  475TIP3    H1 1389   1.167   1.464   0.359  0.8096  1.6922 -1.7094
  475TIP3    H2 1390   1.319   1.465   0.351  0.8375  0.2112 -1.5630
  476TIP3   OH2 1391   5.170   1.110   2.470  0.0095  0.0233  0.0727
  476TIP3    H1 1392   5.112   1.056   2.524  0.0540  2.4339  2.7368
  476TIP3    H2 1393   5.258   1.084   2.496  0.1478 -1.0739 -1.3299
  477TIP3   OH2 1394   3.012   3.259   1.998 -0.6350  0.2369  0.1071
  477TIP3    H1 1395   2.972   3.256   1.911 -0.1651 -1.5723 -0.0810
  477TIP3    H2 1396   3.106   3.254   1.981 -0.5627 -0.6622  0.7340
  478TIP3   OH2 1397   2.605   4.842   3.538  0.1427 -0.0077  0.2513
  478TIP3    H1 1398   2.589   4.878   3.625 -2.5715 -0.2809 -0.0378
  478TIP3    H2 1399   2.582   4.749   3.546  1.2163 -0.3518 -0.4442
  479TIP3   OH2 1400   3.728   1.535   3.016 -0.3076  0.1487  0.4228
  479TIP3    H1 1401   3.766   1.605   2.963  0.6000 -0.7811 -0.2045
  479TIP3    H2 1402   3.641   1.521   2.980  0.3139 -0.5073 -0.9237
  480TIP3   OH2 1403   3.994   0.327   5.705 -0.1928  0.7552  0.3812
  480TIP3    H1 1404   3.946   0.340   5.623 -0.3430  1.2307  0.5420
  480TIP3    H2 1405   4.085   0.312   5.677 -0.4941 -0.5680  0.0541
  481TIP3   OH2 1406   0.968   2.205   3.722  0.5827 -0.0844 -0.3883
  481TIP3    H1 1407   0.953   2.131   3.665 -0.6087  1.4307 -2.1615
  481TIP3    H2 1408   0.948   2.282   3.668  1.1314  1.5106  1.5385
  482TIP3   OH2 1409   1.091   2.156   5.405  0.0476  0.4789 -0.3598
  482TIP3    H1 1410   1.094   2.247   5.375 -1.4976  0.6956  0.0707
  482TIP3    H2 1411   1.121   2.105   5.329  1.9505  1.3672 -0.2775
  483TIP3   OH2 1412   5.017   0.036   0.917  0.8955  0.4128 -0.4359
  483TIP3    H1 1413   4.986   0.073   1.000 -0.7288  0.3858 -0.9879
  483TIP3    H2 1414   5.058   0.110   0.872 -0.1265  0.9812 -0.4844
  484TIP3   OH2 1415   5.539   2.455   1.226  0.5410 -0.5195  0.0672
  484TIP3    H1 1416   5.453   2.488   1.252 -0.4519 -0.6425 -2.7038
  484TIP3    H2 1417   5.597   2.530   1.236 -0.3066  0.1537  0.1078
  485TIP3   OH2 1418   2.039   6.186   5.392 -0.6849  0.0517  0.2232
  485TIP3    H1 1419   2.054   6.221   5.304 -1.7520 -2.1399 -0.9054
  485TIP3    H2 1420   1.978   6.248   5.432 -0.3222  0.9865 -0.6113
  486TIP3   OH2 1421   1.106   1.847   4.944  0.3302  0.2193 -0.2613
  486TIP3    H1 1422   1.043   1.917   4.928  0.3912  0.5515  0.8715
  486TIP3    H2 1423   1.162   1.846   4.866 -0.2784  0.7651 -0.7142
  487TIP3   OH2 1424   4.332   3.857   2.933  0.0209  0.3331 -0.3328
  487TIP3    H1 1425   4.370   3.858   2.845 -0.1546 -0.1764 -0.4157
  487TIP3    H2 1426   4.404   3.883   2.991  0.5634 -0.8244 -0.4644
  488TIP3   OH2 1427   6.204   3.359   3.479  0.3945 -0.1852  0.0025
  488TIP3    H1 1428   6.146   3.426   3.514  0.0091 -0.4989 -0.0204
  488TIP3    H2 1429   6.253   3.327   3.555  2.2778  1.6989 -0.3089
  489TIP3   OH2 1430   0.813   0.438   5.304  0.5052  0.0197 -0.0830
  489TIP3    H1 1431   0.850   0.497   5.239  0.4598  2.0300  1.6387
  489TIP3    H2 1432   0.731   0.478   5.330 -0.9097 -2.2233 -0.7790
  490TIP3   OH2 1433   2.145   3.588   3.488  0.1456 -0.1554 -0.2876
  490TIP3    H1 1434   2.086   3.518   3.459 -1.2414  1.3095 -1.1240
  490TIP3    H2 1435   2.091   3.643   3.545  0.8643  0.8886 -0.5926
  491TIP3   OH2 1436   6.873   1.385   3.424  0.0381 -0.4728 -0.3636
  491TIP3    H1 1437   6.811   1.314   3.410 -1.2753  0.8791 -1.8422
  491TIP3    H2 1438   6.825   1.464   3.401  2.3519  0.6244 -1.8342
  492TIP3   OH2 1439   0.449   5.213   4.644 -0.9406  0.0692 -0.0839
  492TIP3    H1 1440   0.388   5.185   4.713  0.4301 -0.0594  1.1121
  492TIP3    H2 1441   0.499   5.134   4.624  0.1557  0.6447  0.3500
  493TIP3   OH2 1442   0.353   6.022   0.748 -0.4562 -0.6030  0.3550
  493TIP3    H1 1443   0.393   5.971   0.819 -0.3894 -0.5066  0.3853
  493TIP3    H2 1444   0.289   5.962   0.709 -0.1436 -0.8239  0.1794
  494TIP3   OH2 1445   6.626   1.286   3.584  0.2529 -0.6363  0.6526
  494TIP3    H1 1446   6.617   1.221   3.653  1.3891  0.6259  2.0489
  494TIP3    H2 1447   6.641   1.369   3.630 -0.0252  0.4386 -1.0881
  495TIP3   OH2 1448   3.273   4.556   1.190  0.8277  0.1987  0.0490
  495TIP3    H1 1449   3.179   4.576   1.200  0.8732  0.1692  0.5943
  495TIP3    H2 1450   3.292   4.574   1.098  0.2233 -0.0605 -0.1280
  496TIP3   OH2 1451   3.882   0.999   4.319 -0.4257 -0.4329  0.3188
  496TIP3    H1 1452   3.843   1.083   4.296  1.2034  0.2426 -0.1410
  496TIP3    H2 1453   3.867   0.943   4.243  2.6192  0.9745 -1.5209
  497TIP3   OH2 1454   6.930   3.351   4.639 -0.2406  0.1609  0.4031
  497TIP3    H1 1455   7.015   3.309   4.649 -0.3833 -0.2277  0.0058
  497TIP3    H2 1456   6.869   3.280   4.619 -0.5752  0.4889  0.2274
  498TIP3   OH2 1457   5.765   5.042   0.194 -0.0794  0.6913  0.0405
  498TIP3    H1 1458   5.816   4.971   0.155 -0.7657  0.4460 -0.4390
  498TIP3    H2 1459   5.820   5.120   0.185 -0.0452  0.5505 -1.0217
  499TIP3   OH2 1460   5.550   0.121   3.755  0.1585  0.0667 -0.4759
  499TIP3    H1 1461   5.634   0.095   3.719  0.2395  0.0012 -0.2414
  499TIP3    H2 1462   5.554   0.216   3.762 -0.0245  0.1175 -1.0533
  500TIP3   OH2 1463   0.271   2.523   4.863  0.3123  0.3767 -0.1349
  500TIP3    H1 1464   0.202   2.495   4.923  1.4499 -2.6698 -0.0777
  500TIP3    H2 1465   0.228   2.528   4.777 -0.3008  0.0642  0.1498
  501TIP3   OH2 1466   5.892   3.327   2.591  0.2246 -0.4661  0.2377
  501TIP3    H1 1467   5.881   3.233   2.605  0.1465 -0.1272  2.9608
  501TIP3    H2 1468   5.804   3.357   2.566  0.1659 -1.0311 -0.2735
  502TIP3   OH2 1469   5.836   3.302   3.528  0.3123  0.1083 -0.4634
  502TIP3    H1 1470   5.898   3.364   3.566  1.2327  0.5552 -2.5461
  502TIP3    H2 1471   5.890   3.241   3.479 -0.7628 -0.9192 -0.3935
  503TIP3   OH2 1472   4.408   5.728   2.105 -0.4440  0.0595 -0.1089
  503TIP3    H1 1473   4.346   5.669   2.061 -0.8915 -1.1406  1.9887
  503TIP3    H2 1474   4.455   5.672   2.166 -0.3012  1.7229  1.3861
  504TIP3   OH2 1475   0.282   0.253   5.426 -0.4323 -0.4195  0.4108
  504TIP3    H1 1476   0.314   0.297   5.504 -0.4436  0.7749 -0.2392
  504TIP3    H2 1477   0.191   0.282   5.417 -0.1075  0.3503 -0.6441
  505TIP3   OH2 1478   5.189   4.894   3.077 -0.6305 -0.2271 -0.7615
  505TIP3    H1 1479   5.275   4.913   3.116 -1.2463  0.3206  0.3772
  505TIP3    H2 1480   5.193   4.802   3.053  0.3666 -0.1425 -0.9768
  506TIP3   OH2 1481   1.674   4.616   5.189  0.2731  0.0289 -0.0725
  506TIP3    H1 1482   1.603   4.551   5.194 -1.4297  1.8553  0.9884
  506TIP3    H2 1483   1.696   4.621   5.096 -3.0620  1.4526 -0.9189
  507TIP3   OH2 1484   4.189   3.656   3.434 -0.2402  0.0916  0.2849
  507TIP3    H1 1485   4.136   3.689   3.362  1.3757 -1.4271 -1.7084
  507TIP3    H2 1486   4.232   3.733   3.470  1.1122  0.6304 -2.2828
  508TIP3   OH2 1487   3.255   1.107   1.245 -0.6829  0.1198 -0.4340
  508TIP3    H1 1488   3.319   1.107   1.173 -0.2481  0.4102 -0.0525
  508TIP3    H2 1489   3.298   1.156   1.315 -0.5808 -1.2105  0.4831
  509TIP3   OH2 1490   4.563   5.213   1.156  0.5172  0.6983  0.1429
  509TIP3    H1 1491   4.626   5.184   1.091  0.7686 -0.6832  0.9612
  509TIP3    H2 1492   4.608   5.204   1.240 -0.6793 -0.1122  0.7277
  510TIP3   OH2 1493   1.872   6.309   4.750 -0.2615  0.0590  0.2432
  510TIP3    H1 1494   1.844   6.399   4.770 -2.0695 -0.5856  0.7783
  510TIP3    H2 1495   1.805   6.276   4.690  0.7691 -0.7160 -0.5002
  511TIP3   OH2 1496   5.655   3.409   3.349 -0.5561  0.2234  0.0527
  511TIP3    H1 1497   5.676   3.496   3.381 -1.1836  0.5559 -0.4132
  511TIP3    H2 1498   5.723   3.352   3.386 -0.0435  0.9344  0.2208
  512TIP3   OH2 1499   4.591   3.001   2.308 -0.4023 -0.2655  0.0865
  512TIP3    H1 1500   4.657   3.070   2.310  0.9059 -1.3485 -2.1845
  512TIP3    H2 1501   4.607   2.949   2.387 -0.6750  1.2990  1.2216
  513TIP3   OH2 1502   3.662   6.096   5.739  0.2700 -0.0094  0.7776
  513TIP3    H1 1503   3.695   6.011   5.769 -0.1823 -0.2654  0.5525
  513TIP3    H2 1504   3.704   6.160   5.797 -0.2040 -0.4567  1.6289
  514TIP3   OH2 1505   3.253   4.005   2.822 -0.0414 -0.1384  0.3216
  514TIP3    H1 1506   3.250   3.917   2.784  1.9129  0.7086 -2.0267
  514TIP3    H2 1507   3.346   4.021   2.837 -0.4454  1.2349  1.5186
  515TIP3   OH2 1508   6.026   3.228   5.670 -0.1920 -0.2240  0.3404
  515TIP3    H1 1509   6.064   3.295   5.613 -0.1338  2.1376  2.9424
  515TIP3    H2 1510   5.944   3.204   5.627 -0.0151  1.2210 -0.8919
  516TIP3   OH2 1511   1.276   1.859   3.357 -0.0528  0.4173  0.4283
  516TIP3    H1 1512   1.334   1.829   3.287  0.0790  0.7388  0.4014
  516TIP3    H2 1513   1.217   1.920   3.315  0.9673  1.7569  0.8835
  517TIP3   OH2 1514   4.399   0.198   0.663  0.3755 -0.0853 -0.0449
  517TIP3    H1 1515   4.416   0.225   0.573  0.7016 -2.4451 -0.7719
  517TIP3    H2 1516   4.483   0.167   0.696  0.0404 -0.2215  0.7224
  518TIP3   OH2 1517   0.266   3.968   2.939  0.0276 -0.0786 -0.3270
  518TIP3    H1 1518   0.194   3.908   2.919 -0.2715  0.0894  0.2251
  518TIP3    H2 1519   0.298   3.995   2.853 -0.5104 -0.2291 -0.5840
  519TIP3   OH2 1520   2.133   5.928   3.133  0.3115 -1.0061 -0.3308
  519TIP3    H1 1521   2.108   5.932   3.041  0.0596  0.2863 -0.2283
  519TIP3    H2 1522   2.054   5.900   3.179 -0.8701  2.2870 -0.0948
  520TIP3   OH2 1523   3.481   3.412   5.615 -0.2295 -0.0763  0.2208
  520TIP3    H1 1524   3.391   3.439   5.629 -0.5947 -0.8061 -0.5542
  520TIP3    H2 1525   3.532   3.457   5.682 -1.0571  0.9777  0.1551
  521TIP3   OH2 1526   7.000   5.869   1.762  0.0904 -0.6108  0.1640
  521TIP3    H1 1527   7.018   5.889   1.670 -0.8392 -0.6874 -0.0513
  521TIP3    H2 1528   7.085   5.852   1.801  0.6192  0.5671 -0.4136
  522TIP3   OH2 1529   1.425   5.246   5.103 -0.3124 -0.0559 -0.1661
  522TIP3    H1 1530   1.450   5.306   5.173 -3.6021  0.1943  0.9333
  522TIP3    H2 1531   1.336   5.220   5.123 -1.9509  0.8877 -4.8185
  523TIP3   OH2 1532   6.453   1.546   0.444 -0.6675 -0.3739 -0.2736
  523TIP3    H1 1533   6.451   1.462   0.397 -1.6800  0.1254 -1.1805
  523TIP3    H2 1534   6.456   1.522   0.536 -0.7233 -1.4156 -0.5335
  524TIP3   OH2 1535   2.258   2.992   0.472 -0.1885  0.0201  0.6657
  524TIP3    H1 1536   2.275   2.898   0.467  0.9430  0.2541 -0.1548
  524TIP3    H2 1537   2.344   3.032   0.476 -0.6126  1.0861 -0.2382
  525TIP3   OH2 1538   5.833   0.032   3.916 -0.3097 -0.0683 -0.3176
  525TIP3    H1 1539   5.894   0.027   3.841  1.8772  2.4194  1.1161
  525TIP3    H2 1540   5.877  -0.017   3.986 -0.2106  1.2557  0.5704
  526TIP3   OH2 1541   5.494   3.427   4.980  0.2056 -0.6621  0.1471
  526TIP3    H1 1542   5.450   3.367   5.040 -0.4331 -1.8692 -1.4616
  526TIP3    H2 1543   5.440   3.427   4.902  0.4286  1.7238 -0.0707
  527TIP3   OH2 1544   5.872   3.187   0.229  0.4328  0.4978 -0.0545
  527TIP3    H1 1545   5.787   3.228   0.214 -0.0714 -0.8659 -1.1029
  527TIP3    H2 1546   5.931   3.260   0.248 -0.5476  1.6597 -1.2939
  528TIP3   OH2 1547   1.803   4.941   0.854  0.2961  0.1339  0.0198
  528TIP3    H1 1548   1.868   4.926   0.922 -1.0477  0.5333  1.4440
  528TIP3    H2 1549   1.772   4.854   0.830  0.1188  0.0466  0.5734
  529TIP3   OH2 1550   7.119   5.400   5.295 -0.3834  0.3015  0.3038
  529TIP3    H1 1551   7.189   5.342   5.264 -0.2043 -0.5024  2.1124
  529TIP3    H2 1552   7.150   5.432   5.380 -1.0779  2.0236 -0.0406
  530TIP3   OH2 1553   5.712   2.103   1.272 -0.7640 -0.0351  0.6002
  530TIP3    H1 1554   5.625   2.136   1.247 -0.0476  1.8732  0.4040
  530TIP3    H2 1555   5.695   2.022   1.320 -2.4952 -0.9169 -1.3839
  531TIP3   OH2 1556   0.318   6.666   5.174 -0.2403  0.4819  0.4331
  531TIP3    H1 1557   0.284   6.698   5.257 -0.9095  2.1639 -0.4364
  531TIP3    H2 1558   0.346   6.577   5.192 -0.4163  0.7926  2.4379
  532TIP3   OH2 1559   6.113   2.186   0.627 -0.8881 -0.0471  0.3964
  532TIP3    H1 1560   6.084   2.260   0.679 -1.5659 -0.0177 -0.0002
  532TIP3    H2 1561   6.205   2.205   0.606 -1.3999  1.3355 -0.7842
  533TIP3   OH2 1562   6.583   2.978   4.242 -0.0746 -0.2367 -0.3208
  533TIP3    H1 1563   6.599   2.883   4.240  0.4300 -0.1481 -0.6504
  533TIP3    H2 1564   6.512   2.988   4.305  1.3765 -0.6235  1.4960
  534TIP3   OH2 1565   6.393   0.905   2.206 -0.6082  0.6085  0.1113
  534TIP3    H1 1566   6.373   0.812   2.194  0.1791  0.5812 -1.1295
  534TIP3    H2 1567   6.439   0.930   2.126  2.2296  1.2117  1.8024
  535TIP3   OH2 1568   3.695   5.343   5.346  0.2994 -0.2969 -0.3919
  535TIP3    H1 1569   3.600   5.359   5.339  0.2671 -0.5936 -0.7088
  535TIP3    H2 1570   3.701   5.250   5.369  0.5054 -0.1773  0.0289
  536TIP3   OH2 1571   7.162   2.720   1.783  0.1936 -0.1481  0.8956
  536TIP3    H1 1572   7.111   2.645   1.813 -1.0828  0.4181  0.2093
  536TIP3    H2 1573   7.096   2.783   1.752  1.2283  1.2177  1.3668
  537TIP3   OH2 1574   3.730   3.067   2.296 -0.1710  0.0007 -0.1723
  537TIP3    H1 1575   3.679   3.147   2.310 -1.7239 -0.7775 -1.0920
  537TIP3    H2 1576   3.759   3.073   2.205  0.3263 -0.1513 -0.0252
  538TIP3   OH2 1577   3.010   5.382   5.332  0.0585 -0.1484  0.0105
  538TIP3    H1 1578   2.982   5.350   5.417 -0.5625  1.1755  0.3289
  538TIP3    H2 1579   2.930   5.408   5.287  0.4479 -0.0107 -0.6299
  539TIP3   OH2 1580   2.066   0.564   1.282  0.5296 -0.3709  0.6778
  539TIP3    H1 1581   1.974   0.557   1.305  0.8307 -1.1082  1.7593
  539TIP3    H2 1582   2.099   0.637   1.335  0.6834 -0.4797  0.7337
  540TIP3   OH2 1583   2.452   3.265   3.002  0.0762 -0.2324 -0.1587
  540TIP3    H1 1584   2.401   3.187   3.022  0.2679  0.3442  2.9509
  540TIP3    H2 1585   2.483   3.297   3.087  3.6730  0.7709 -1.6236
  541TIP3   OH2 1586   0.861   3.322   3.572 -0.2283 -0.4359 -0.1422
  541TIP3    H1 1587   0.889   3.249   3.516  0.8245 -0.0415 -0.1600
  541TIP3    H2 1588   0.925   3.323   3.643  0.8056  1.5110 -1.0332
  542TIP3   OH2 1589   3.564   4.991   4.407  0.2333 -0.2620  0.4388
  542TIP3    H1 1590   3.527   5.038   4.332 -1.2615 -0.7059  0.8691
  542TIP3    H2 1591   3.588   4.905   4.373 -3.0712 -1.5419  0.9656
  543TIP3   OH2 1592   4.786   6.249   1.209 -0.4586  0.2941  0.3320
  543TIP3    H1 1593   4.752   6.336   1.228  0.5856  0.8124 -0.0546
  543TIP3    H2 1594   4.867   6.266   1.160 -1.4254 -0.9193 -1.8292
  544TIP3   OH2 1595   6.432   0.926   1.603 -0.2033  0.0020 -0.1001
  544TIP3    H1 1596   6.498   0.893   1.543  1.3456  0.9843  0.9874
  544TIP3    H2 1597   6.423   1.019   1.580 -0.2831  0.1633  0.5417
  545TIP3   OH2 1598   4.771   5.448   4.048 -0.0004 -0.0768  0.1424
  545TIP3    H1 1599   4.857   5.466   4.086  0.6307  1.4405 -1.8681
  545TIP3    H2 1600   4.761   5.353   4.057  2.2548 -0.4084 -0.2875
  546TIP3   OH2 1601   0.155   0.417   3.970  0.1726  0.0405 -0.1693
  546TIP3    H1 1602   0.144   0.398   3.877  1.8168  0.2938 -0.4306
  546TIP3    H2 1603   0.141   0.511   3.978  0.8346  0.1489 -0.2891
  547TIP3   OH2 1604   1.317   1.818   5.838 -0.0005 -0.7072  0.2654
  547TIP3    H1 1605   1.378   1.861   5.779 -0.1097  0.0618  0.6954
  547TIP3    H2 1606   1.234   1.863   5.823 -0.2177 -1.0626  0.4076
  548TIP3   OH2 1607   4.161   0.983   3.023 -0.4615  0.1797  0.3627
  548TIP3    H1 1608   4.076   0.952   3.053 -0.1678  0.0444  1.0960
  548TIP3    H2 1609   4.223   0.948   3.087  0.1494  0.2391 -0.1856
  549TIP3   OH2 1610   0.771   5.733   5.045  0.7873 -0.8771  0.7924
  549TIP3    H1 1611   0.748   5.819   5.008  0.8947 -1.4400 -0.6257
  549TIP3    H2 1612   0.864   5.723   5.027  0.7932 -1.2498  1.0254
  550TIP3   OH2 1613   5.481   0.361   1.658 -0.1134 -0.0795  0.6079
  550TIP3    H1 1614   5.496   0.295   1.727  1.1850 -1.6355 -1.0688
  550TIP3    H2 1615   5.540   0.432   1.680  1.8208 -1.4382  0.0643
  551TIP3   OH2 1616   2.144   3.025   0.725 -0.9190  0.1077  0.6845
  551TIP3    H1 1617   2.049   3.024   0.742 -1.3087  1.0076 -1.2307
  551TIP3    H2 1618   2.152   3.044   0.632  1.1627 -0.4960  0.6870
  552TIP3   OH2 1619   2.287   5.788   1.767 -0.2004  0.0163  0.3386
  552TIP3    H1 1620   2.324   5.836   1.841 -1.2918 -0.4635  1.2269
  552TIP3    H2 1621   2.305   5.696   1.787 -0.0439 -0.0848 -0.2555
  553TIP3   OH2 1622   2.527   1.582   0.380  0.4449  0.2027 -0.4442
  553TIP3    H1 1623   2.553   1.519   0.312 -1.7097 -0.9609 -0.2629
  553TIP3    H2 1624   2.499   1.659   0.330  1.9384  0.6222 -0.7058
  554TIP3   OH2 1625   3.480   0.601   3.551  0.1051  0.5942 -0.0882
  554TIP3    H1 1626   3.510   0.597   3.460  4.1371 -2.6673  1.0827
  554TIP3    H2 1627   3.421   0.527   3.560  0.9823 -0.0792  0.2588
  555TIP3   OH2 1628   1.541   4.488   3.984 -0.5356  0.1796  0.5701
  555TIP3    H1 1629   1.559   4.556   3.920  1.1472 -0.5598  0.2101
  555TIP3    H2 1630   1.472   4.525   4.039 -1.7470  0.9851 -1.3848
  556TIP3   OH2 1631   0.354   2.044   0.167 -0.5995  0.3039 -0.7193
  556TIP3    H1 1632   0.392   2.085   0.245 -2.9309 -0.9245  1.1952
  556TIP3    H2 1633   0.338   1.954   0.193 -0.7720 -0.3479 -2.9253
  557TIP3   OH2 1634   6.786   0.034   5.845  0.1268  0.2794 -0.0016
  557TIP3    H1 1635   6.737  -0.026   5.903  0.4663  0.4085  0.4268
  557TIP3    H2 1636   6.731   0.043   5.768  0.2435 -0.8975 -0.2374
  558TIP3   OH2 1637   0.408   0.522   3.991 -0.1073 -0.0066  0.1435
  558TIP3    H1 1638   0.327   0.486   3.955 -0.5462  2.6692 -1.9151
  558TIP3    H2 1639   0.459   0.546   3.914  1.8752  0.0268  1.4092
  559TIP3   OH2 1640   5.027   5.257   5.678  0.3511  0.5044  0.3019
  559TIP3    H1 1641   4.939   5.239   5.713  0.6214  1.7193  1.6929
  559TIP3    H2 1642   5.014   5.328   5.615  0.3022  0.4166  0.2107
  560TIP3   OH2 1643   0.758   3.544   0.105  0.3719  0.2557 -0.7115
  560TIP3    H1 1644   0.770   3.600   0.027  2.5697  0.9267  0.0389
  560TIP3    H2 1645   0.777   3.602   0.179 -1.0614 -0.5435  0.3343
  561TIP3   OH2 1646   2.173   3.124   1.047  0.0862  0.2371 -0.5268
  561TIP3    H1 1647   2.235   3.197   1.041  0.6551 -0.2681 -0.8940
  561TIP3    H2 1648   2.172   3.087   0.959  1.7294 -1.7530  0.2084
  562TIP3   OH2 1649   5.806   1.477  -0.004  0.4465 -0.5075 -0.0400
  562TIP3    H1 1650   5.807   1.569  -0.033 -1.3120 -1.0536 -2.0706
  562TIP3    H2 1651   5.822   1.482   0.091  0.7348  1.8464 -0.1494
  563TIP3   OH2 1652   2.548   2.221   3.853 -0.6033 -0.5429  0.5200
  563TIP3    H1 1653   2.610   2.158   3.818 -1.4114 -0.9729 -0.1807
  563TIP3    H2 1654   2.531   2.282   3.782 -2.5683 -1.6619 -0.0680
  564TIP3   OH2 1655   4.641   3.822   5.538 -0.1560  0.3757 -0.3112
  564TIP3    H1 1656   4.619   3.870   5.458 -1.0051  1.8426  0.7397
  564TIP3    H2 1657   4.637   3.888   5.607 -1.3427 -1.2033  1.2307
  565TIP3   OH2 1658   4.802   2.797   5.103 -0.5311 -0.4118 -0.7993
  565TIP3    H1 1659   4.745   2.720   5.096 -1.5265 -0.1330  2.4140
  565TIP3    H2 1660   4.743   2.871   5.101  0.2588  0.2203 -2.1375
  566TIP3   OH2 1661   7.054   4.245   1.547 -0.3241 -0.7284 -0.1092
  566TIP3    H1 1662   7.081   4.155   1.527  0.1542 -0.6168  0.0300
  566TIP3    H2 1663   6.969   4.235   1.591  0.1657 -1.1712  0.7604
  567TIP3   OH2 1664   0.660   0.639   5.009  0.3465  0.0931  0.1479
  567TIP3    H1 1665   0.637   0.546   5.009 -0.9800  0.3823  1.4359
  567TIP3    H2 1666   0.695   0.655   4.921  0.0630 -1.4783 -0.2852
  568TIP3   OH2 1667   2.919   0.980   4.275 -0.2151 -0.4998 -0.2791
  568TIP3    H1 1668   2.897   1.000   4.366 -0.2777  1.7740 -0.7335
  568TIP3    H2 1669   3.013   1.000   4.268  0.1306 -2.0081 -0.4166
  569TIP3   OH2 1670   5.807   0.210   2.698 -0.3462  0.3792 -0.0101
  569TIP3    H1 1671   5.806   0.237   2.789  1.7499 -0.8750  0.4485
  569TIP3    H2 1672   5.752   0.132   2.696  0.0838  0.0647  0.3138
  570TIP3   OH2 1673   5.944   1.570   0.552 -0.6128  0.3262 -0.0004
  570TIP3    H1 1674   5.988   1.598   0.632  0.1170 -2.3837  0.6397
  570TIP3    H2 1675   6.008   1.586   0.482  0.4778 -1.2675  0.5854
  571TIP3   OH2 1676   7.192   4.189   2.894 -0.3629 -0.0441  0.3157
  571TIP3    H1 1677   7.105   4.160   2.870 -0.2637  0.2346 -0.3849
  571TIP3    H2 1678   7.246   4.170   2.817  0.0846  0.2730  0.5494
  572TIP3   OH2 1679   5.370   5.300   1.364 -0.1208 -0.1890  0.5418
  572TIP3    H1 1680   5.443   5.320   1.423 -1.0949  0.5666  1.5505
  572TIP3    H2 1681   5.386   5.353   1.286  0.9701 -0.8810  0.2800
  573TIP3   OH2 1682   6.885   5.997   3.782 -0.2823  0.0826 -0.0219
  573TIP3    H1 1683   6.918   6.071   3.731  0.8558 -0.3423  0.0816
  573TIP3    H2 1684   6.806   5.970   3.736  0.5003 -0.0290 -1.3449
  574TIP3   OH2 1685   7.136   2.613   5.795  0.1556  0.5368 -0.2789
  574TIP3    H1 1686   7.197   2.556   5.841 -0.3963 -1.8630 -2.2893
  574TIP3    H2 1687   7.053   2.600   5.841 -0.0013 -0.4781 -0.8099
  575TIP3   OH2 1688   2.069   1.989   4.104 -0.5162  0.2405 -0.3379
  575TIP3    H1 1689   2.044   1.897   4.103 -0.4811  0.2344 -0.7207
  575TIP3    H2 1690   2.012   2.031   4.040  0.3409  0.2478 -1.1152
  576TIP3   OH2 1691   4.195   0.866   5.238 -0.4696  0.0800 -0.1693
  576TIP3    H1 1692   4.283   0.890   5.209 -0.4491 -0.2834 -0.4081
  576TIP3    H2 1693   4.138   0.893   5.166 -0.5697  0.4239  0.0353
  577TIP3   OH2 1694   4.104   1.870   5.237  0.7055 -0.3039 -0.0607
  577TIP3    H1 1695   4.117   1.953   5.282 -0.5638  0.9583 -1.9099
  577TIP3    H2 1696   4.174   1.866   5.171  0.5696 -0.5468 -0.1950
  578TIP3   OH2 1697   0.870   6.481   2.126 -0.5961 -0.7800  0.2383
  578TIP3    H1 1698   0.937   6.425   2.086 -2.0379 -0.9923 -2.0982
  578TIP3    H2 1699   0.873   6.562   2.076 -1.0162 -0.1884  1.1482
  579TIP3   OH2 1700   5.805   1.461   3.513 -0.1060  0.4752 -0.1085
  579TIP3    H1 1701   5.837   1.523   3.447  0.0250  1.0237  0.4606
  579TIP3    H2 1702   5.831   1.499   3.597 -0.4607 -0.1047  0.2774
  580TIP3   OH2 1703   4.589   1.355   4.217  0.2704 -0.4487 -0.2098
  580TIP3    H1 1704   4.628   1.439   4.242 -0.9127  0.2384 -0.6064
  580TIP3    H2 1705   4.496   1.365   4.235 -0.1396 -1.0995 -1.7405
  581TIP3   OH2 1706   3.222   5.621   3.050  0.8618  0.2529 -0.8071
  581TIP3    H1 1707   3.267   5.625   2.966  0.3929 -1.5288 -1.1822
  581TIP3    H2 1708   3.293   5.617   3.115  1.2227  1.3247 -1.1166
  582TIP3   OH2 1709   6.027   5.578   2.497  0.5223  0.2304 -0.2561
  582TIP3    H1 1710   6.004   5.486   2.507 -0.8420  0.2374 -2.6638
  582TIP3    H2 1711   6.122   5.579   2.493  0.5642 -1.0195  0.1754
  583TIP3   OH2 1712   6.848   2.394   1.607 -0.6415  0.1528  0.4336
  583TIP3    H1 1713   6.932   2.412   1.563  0.3881 -1.5952  1.5823
  583TIP3    H2 1714   6.811   2.320   1.558 -1.2152  0.4980  0.3383
  584TIP3   OH2 1715   0.426   0.773   1.798 -0.0077  0.1110  0.3211
  584TIP3    H1 1716   0.361   0.770   1.869 -0.5182 -2.1805 -0.1705
  584TIP3    H2 1717   0.504   0.732   1.836  0.7145  1.5048  0.4257
  585TIP3   OH2 1718   2.478   1.216   0.172  0.3124  0.2094  0.8436
  585TIP3    H1 1719   2.397   1.255   0.203  0.4459  1.0662  0.1347
  585TIP3    H2 1720   2.538   1.289   0.162  0.5278 -0.1315 -0.6266
  586TIP3   OH2 1721   6.183   1.248   3.471 -1.0008  0.6149 -0.1711
  586TIP3    H1 1722   6.103   1.241   3.524  0.0873  0.5132  1.5342
  586TIP3    H2 1723   6.227   1.164   3.483 -0.2202  0.9849 -0.3928
  587TIP3   OH2 1724   6.362   3.168   2.333  0.0191 -0.2665  0.0357
  587TIP3    H1 1725   6.298   3.238   2.326  0.1291 -0.1529  0.1540
  587TIP3    H2 1726   6.321   3.104   2.392  0.7843  0.6883  1.6943
  588TIP3   OH2 1727   3.811   4.062   0.035  0.3368 -0.2688 -0.0917
  588TIP3    H1 1728   3.738   4.054  -0.027 -0.2517  0.7949  0.4423
  588TIP3    H2 1729   3.857   3.979   0.028 -0.0180 -0.3746 -1.5849
  589TIP3   OH2 1730   3.371   1.096   0.409 -0.5950 -0.0084  0.4498
  589TIP3    H1 1731   3.368   1.169   0.471 -1.9177  0.2946  0.0429
  589TIP3    H2 1732   3.317   1.028   0.449 -2.9571  0.8281 -1.1217
  590TIP3   OH2 1733   7.208   6.506   1.680  0.1929 -0.1756 -0.0405
  590TIP3    H1 1734   7.263   6.574   1.719  2.0371  0.0511 -2.7637
  590TIP3    H2 1735   7.145   6.554   1.626 -0.4798 -0.5639  0.3843
  591TIP3   OH2 1736   6.191   1.347   3.771 -0.1534  0.0825  0.0209
  591TIP3    H1 1737   6.194   1.419   3.708  1.8482 -0.6583 -0.8082
  591TIP3    H2 1738   6.247   1.376   3.844 -0.7703  0.0817  0.5009
  592TIP3   OH2 1739   1.454   2.800   1.800 -0.2909  0.3899 -0.5715
  592TIP3    H1 1740   1.361   2.793   1.820 -0.1771 -0.1584 -0.2242
  592TIP3    H2 1741   1.498   2.750   1.869  0.1190 -1.2368 -1.9428
  593TIP3   OH2 1742   5.194   6.643   1.098 -1.0137  0.3181 -0.6243
  593TIP3    H1 1743   5.173   6.606   1.013 -3.1103 -1.2285  0.4637
  593TIP3    H2 1744   5.109   6.664   1.136 -0.0305  3.0268  0.2582
  594TIP3   OH2 1745   2.689   2.768   0.776  0.1136 -0.1379  0.5219
  594TIP3    H1 1746   2.730   2.854   0.785 -0.6209  0.4620 -1.3170
  594TIP3    H2 1747   2.625   2.764   0.846  0.6417  0.5142  1.0540
  595TIP3   OH2 1748   6.902   4.897   5.638 -0.4268 -0.8837 -0.4309
  595TIP3    H1 1749   6.946   4.972   5.599  1.1511 -0.8489  1.2896
  595TIP3    H2 1750   6.822   4.933   5.677 -0.1119 -0.2568 -0.3642
  596TIP3   OH2 1751   3.901   0.573   3.799 -0.3830  0.7632  0.1163
  596TIP3    H1 1752   3.943   0.613   3.722  1.1780 -0.7746  0.1081
  596TIP3    H2 1753   3.951   0.606   3.873  1.1959 -1.3455  0.0823
  597TIP3   OH2 1754   3.183   2.806   5.595  0.0728  0.0620  0.3240
  597TIP3    H1 1755   3.214   2.891   5.563 -0.3419  0.7007  1.5524
  597TIP3    H2 1756   3.261   2.764   5.630  0.2044  0.1257  0.1062
  598TIP3   OH2 1757   2.574   5.339   5.255 -0.1344 -0.1228 -0.3411
  598TIP3    H1 1758   2.486   5.376   5.269  0.2228  0.5176  0.2390
  598TIP3    H2 1759   2.594   5.293   5.337  0.2557  0.1195 -0.2986
  599TIP3   OH2 1760   3.802   5.031   5.695 -0.1744 -0.2081  0.2417
  599TIP3    H1 1761   3.843   5.052   5.610 -1.5074 -0.2428 -0.4302
  599TIP3    H2 1762   3.729   5.092   5.702 -0.6160 -0.8167  0.9536
  600TIP3   OH2 1763   2.904   4.294   0.901 -0.5047  0.2849  0.0687
  600TIP3    H1 1764   2.855   4.374   0.921 -0.1937  0.7491 -0.9810
  600TIP3    H2 1765   2.840   4.237   0.859 -0.3017  0.6496 -0.7383
  601TIP3   OH2 1766   2.531   6.179   1.174 -0.3055  0.3461 -0.0577
  601TIP3    H1 1767   2.496   6.131   1.099 -0.1945 -1.4878  1.0123
  601TIP3    H2 1768   2.483   6.145   1.249  0.7025  0.9739  0.9048
  602TIP3   OH2 1769   0.133   0.137   5.699  0.7149 -0.3540 -0.8116
  602TIP3    H1 1770   0.136   0.062   5.639 -0.6012 -0.0538 -1.2742
  602TIP3    H2 1771   0.113   0.099   5.784  1.3718 -0.6599 -0.7902
  603TIP3   OH2 1772   1.690   2.031   4.336  0.1532  0.2822  0.0355
  603TIP3    H1 1773   1.773   1.993   4.367  0.0419  0.7893  0.9984
  603TIP3    H2 1774   1.634   1.956   4.320  0.7692 -0.0663 -0.5663
  604TIP3   OH2 1775   0.672   2.539   3.192 -0.2184 -0.3549 -0.7080
  604TIP3    H1 1776   0.645   2.631   3.196  0.7452 -0.0656 -0.7187
  604TIP3    H2 1777   0.729   2.534   3.116 -0.4477 -1.0227 -0.8435
  605TIP3   OH2 1778   4.488   4.248   5.579 -0.4238  0.3375 -0.3227
  605TIP3    H1 1779   4.567   4.277   5.533 -0.5237 -1.2263 -1.5693
  605TIP3    H2 1780   4.451   4.181   5.522 -1.7615 -0.1244  1.0430
  606TIP3   OH2 1781   3.011   3.949   5.346  0.3986 -0.4558  0.2113
  606TIP3    H1 1782   2.937   3.900   5.380  0.8119 -1.2736 -0.0543
  606TIP3    H2 1783   3.067   3.884   5.305  0.8627  0.2622 -0.3256
  607TIP3   OH2 1784   5.030   1.493   3.386  0.3407  0.1799 -0.5062
  607TIP3    H1 1785   5.001   1.461   3.472 -0.5488  0.1784 -0.7964
  607TIP3    H2 1786   5.125   1.502   3.394  0.1764  0.9966  0.7495
  608TIP3   OH2 1787   5.466   5.093   1.096  0.3218  0.2847 -0.3189
  608TIP3    H1 1788   5.560   5.076   1.098  0.2538 -0.0755  0.8094
  608TIP3    H2 1789   5.433   5.057   1.179 -0.8073  0.4183 -0.6823
  609TIP3   OH2 1790   4.830   6.465   4.020 -0.4791 -0.0091  0.2721
  609TIP3    H1 1791   4.790   6.526   4.082 -3.6047 -0.1955 -1.3358
  609TIP3    H2 1792   4.795   6.379   4.045  1.6685 -0.7720  0.8233
  610TIP3   OH2 1793   2.693   6.158   0.728 -0.1231  0.1652 -0.1739
  610TIP3    H1 1794   2.786   6.168   0.706  0.0741 -0.0584  0.5437
  610TIP3    H2 1795   2.651   6.131   0.646  0.2990  1.1285 -0.7193
  611TIP3   OH2 1796   6.968   6.077   5.091 -0.1381  0.1275  0.1293
  611TIP3    H1 1797   7.002   6.002   5.042 -0.7608 -0.4649  0.5833
  611TIP3    H2 1798   7.043   6.135   5.101  0.3377 -0.3957 -0.2996
  612TIP3   OH2 1799   2.830   3.559   3.164  0.2225  0.0745 -0.0025
  612TIP3    H1 1800   2.770   3.527   3.231 -1.2419  0.0023 -1.2957
  612TIP3    H2 1801   2.793   3.528   3.081  0.9697  1.6787 -0.9991
  613TIP3   OH2 1802   2.627   2.447   1.953  0.4096  0.6166  0.2824
  613TIP3    H1 1803   2.651   2.355   1.955  0.5798  0.6642  0.4518
  613TIP3    H2 1804   2.630   2.471   1.861  1.3770  0.7219  0.3363
  614TIP3   OH2 1805   5.819   3.144   4.098  0.0461  0.2178 -0.0341
  614TIP3    H1 1806   5.732   3.148   4.058  0.5451 -2.0881 -1.5594
  614TIP3    H2 1807   5.872   3.202   4.043 -0.0005 -0.3500 -0.6967
  615TIP3   OH2 1808   5.947   3.027   4.528  0.1322  0.0225 -0.2128
  615TIP3    H1 1809   5.917   3.107   4.485 -1.0792 -0.2185  0.1594
  615TIP3    H2 1810   5.962   2.965   4.457  0.5080  0.3954 -0.4594
  616TIP3   OH2 1811   3.829   1.289   4.526 -0.0377 -0.6955  0.3292
  616TIP3    H1 1812   3.853   1.380   4.506  2.6757 -0.9728  1.9197
  616TIP3    H2 1813   3.794   1.292   4.615 -0.8454 -1.1238  0.0424
  617TIP3   OH2 1814   5.215   2.909   0.578 -0.5491  0.4231  0.6088
  617TIP3    H1 1815   5.202   2.987   0.523 -0.4978  0.9868  1.3752
  617TIP3    H2 1816   5.183   2.936   0.665  1.6016  0.3790  1.4710
  618TIP3   OH2 1817   2.973   6.574   1.791 -0.2073  0.3862  0.4872
  618TIP3    H1 1818   3.005   6.487   1.766  0.2375  1.1731 -2.0874
  618TIP3    H2 1819   3.039   6.607   1.853  0.4491 -0.5372  0.3020
  619TIP3   OH2 1820   7.066   5.965   2.091  0.3413 -0.2360 -0.1149
  619TIP3    H1 1821   6.971   5.967   2.091  0.3188 -1.0591  0.4717
  619TIP3    H2 1822   7.091   6.026   2.021 -0.5797  0.8683  0.4895
  620TIP3   OH2 1823   5.032   5.284   0.601  0.4790 -0.1678  0.0037
  620TIP3    H1 1824   4.951   5.242   0.572 -0.6507  0.8869  1.4626
  620TIP3    H2 1825   5.092   5.211   0.617 -0.3695 -1.0106 -0.5512
  621TIP3   OH2 1826   6.226   1.050   1.980 -0.4624  0.1611 -0.3924
  621TIP3    H1 1827   6.139   1.016   1.959 -0.5160 -0.5409  0.8467
  621TIP3    H2 1828   6.284   0.976   1.966 -0.1985  0.3508 -0.3075
  622TIP3   OH2 1829   1.094   6.659   2.367  0.0511 -0.2409 -0.5543
  622TIP3    H1 1830   1.001   6.639   2.357 -0.3586  1.7699 -1.5078
  622TIP3    H2 1831   1.139   6.576   2.354 -1.6225 -1.2864  0.1478
  623TIP3   OH2 1832   3.884   3.416   1.933  0.0282  0.3502  0.1786
  623TIP3    H1 1833   3.972   3.392   1.903 -0.3245 -1.3239  0.3673
  623TIP3    H2 1834   3.837   3.439   1.853  0.1077 -0.6488 -0.1733
  624TIP3   OH2 1835   0.454   2.800   2.611  0.0409 -0.1419 -0.1357
  624TIP3    H1 1836   0.536   2.778   2.656 -0.5259  0.2545  1.1498
  624TIP3    H2 1837   0.386   2.756   2.662 -0.4543 -1.8274 -2.1304
  625TIP3   OH2 1838   4.084   5.244   5.446  0.3579 -0.0434 -0.1243
  625TIP3    H1 1839   4.176   5.271   5.445  0.1360  0.7375 -0.7209
  625TIP3    H2 1840   4.035   5.326   5.445 -0.3472 -0.4534  0.1050
  626TIP3   OH2 1841   6.111   6.092   1.651  0.0917 -0.1836 -0.2665
  626TIP3    H1 1842   6.094   6.144   1.729 -0.2912 -0.2651 -0.2945
  626TIP3    H2 1843   6.190   6.132   1.613  1.4440 -1.3331  1.1887
  627TIP3   OH2 1844   2.378   2.522   2.735  0.2722  0.5764 -0.2902
  627TIP3    H1 1845   2.363   2.554   2.824  0.2290  1.5790 -0.6447
  627TIP3    H2 1846   2.293   2.487   2.708 -0.1161  1.5948 -0.4465
  628TIP3   OH2 1847   6.365   2.965   4.422  0.0848 -0.2631 -0.2785
  628TIP3    H1 1848   6.303   3.000   4.358  0.3316 -1.9081 -1.4895
  628TIP3    H2 1849   6.312   2.945   4.499 -0.1864  1.9314  0.1758
  629TIP3   OH2 1850   6.277   1.279   0.978  0.0759  0.1707 -0.1378
  629TIP3    H1 1851   6.228   1.280   1.061 -2.2934 -0.8558 -1.4367
  629TIP3    H2 1852   6.241   1.352   0.928  1.6605  0.9311 -0.2240
  630TIP3   OH2 1853   1.434   5.655   5.219  0.4190 -0.1772 -0.5968
  630TIP3    H1 1854   1.424   5.700   5.135  0.3192  0.9388 -0.0109
  630TIP3    H2 1855   1.463   5.724   5.279  1.4258 -1.1569  0.0755
  631TIP3   OH2 1856   2.439   5.425   4.679 -0.1973  0.2922  0.0368
  631TIP3    H1 1857   2.459   5.506   4.634 -2.4825  0.8155 -0.1504
  631TIP3    H2 1858   2.344   5.418   4.676 -0.1866 -1.4896  1.6274
  632TIP3   OH2 1859   0.803   6.425   1.609 -0.6122  0.3637  0.9489
  632TIP3    H1 1860   0.870   6.462   1.551 -0.6597  0.2828  0.8408
  632TIP3    H2 1861   0.842   6.427   1.696 -0.4731  0.3260  0.8868
  633TIP3   OH2 1862   5.040   3.209   2.415  0.2579  0.8619 -0.4619
  633TIP3    H1 1863   5.115   3.176   2.464  0.8054  2.6284 -0.0475
  633TIP3    H2 1864   5.060   3.186   2.324  1.2072  1.1343 -0.3366
  634TIP3   OH2 1865   3.941   4.649   1.205 -0.3359  0.4992 -0.2520
  634TIP3    H1 1866   4.010   4.705   1.240  1.2935 -0.9602 -0.9858
  634TIP3    H2 1867   3.977   4.614   1.124 -1.0147 -2.0388  0.4362
  635TIP3   OH2 1868   2.092   5.429   3.030 -0.3514  0.5448  0.1033
  635TIP3    H1 1869   2.160   5.437   3.097  0.0858  1.0188 -0.3887
  635TIP3    H2 1870   2.122   5.485   2.958 -0.9333  0.2349 -0.3930
  636TIP3   OH2 1871   1.771   0.817   5.510  0.4761 -0.0349 -0.4945
  636TIP3    H1 1872   1.836   0.763   5.555  1.1719 -0.6494 -2.1827
  636TIP3    H2 1873   1.771   0.900   5.558  3.7733  0.6525 -1.4240
  637TIP3   OH2 1874   2.593   6.188   3.334 -0.0665 -0.1320 -0.2875
  637TIP3    H1 1875   2.502   6.213   3.316  0.0391  0.7129  0.3108
  637TIP3    H2 1876   2.646   6.256   3.292  0.3183 -0.8800 -1.0468
  638TIP3   OH2 1877   6.541   1.171   5.744 -0.4016 -0.1393  0.3092
  638TIP3    H1 1878   6.539   1.251   5.691  3.7382  0.4660  0.7819
  638TIP3    H2 1879   6.575   1.200   5.829 -0.9150 -2.1108  1.2404
  639TIP3   OH2 1880   5.269   2.483   1.774  0.0626  0.4964  0.0959
  639TIP3    H1 1881   5.202   2.420   1.798  0.2084  0.1256 -0.4476
  639TIP3    H2 1882   5.352   2.440   1.797  0.1272  0.8696  0.5824
  640TIP3   OH2 1883   4.654   5.435   5.613 -0.1831  0.4660  0.8181
  640TIP3    H1 1884   4.619   5.346   5.601  1.4337 -0.1584  0.4897
  640TIP3    H2 1885   4.652   5.473   5.525 -0.4713  0.6121  0.8851
  641TIP3   OH2 1886   3.617   3.679   4.359  0.7487 -0.4487  0.2436
  641TIP3    H1 1887   3.697   3.730   4.372  0.7767 -0.5046  0.2893
  641TIP3    H2 1888   3.571   3.725   4.288  0.5162 -0.0547  0.6450
  642TIP3   OH2 1889   1.977   5.524   5.827  0.4584  0.1427 -0.3265
  642TIP3    H1 1890   1.918   5.469   5.878 -0.8883 -0.5024 -2.4513
  642TIP3    H2 1891   2.009   5.589   5.889 -3.0842  1.0096  0.8351
  643TIP3   OH2 1892   5.351   2.033   5.631 -0.7264  0.0901  0.5527
  643TIP3    H1 1893   5.322   2.011   5.543  1.3045  1.4795 -0.5148
  643TIP3    H2 1894   5.324   2.124   5.644  1.6461  0.9178  0.1132
  644TIP3   OH2 1895   0.965   1.158   3.265 -0.1827  0.2883  0.2875
  644TIP3    H1 1896   0.961   1.252   3.278 -0.0657  0.3581 -0.1450
  644TIP3    H2 1897   0.935   1.145   3.175  0.9018  0.0230 -0.0539
  645TIP3   OH2 1898   0.597   6.634   1.970 -0.0617 -0.0889  0.1959
  645TIP3    H1 1899   0.545   6.563   2.006  0.1944 -1.3004 -1.6839
  645TIP3    H2 1900   0.688   6.608   1.984  0.0357 -0.2528 -0.6716
  646TIP3   OH2 1901   2.471   1.567   4.697 -0.0031  0.1155 -0.0115
  646TIP3    H1 1902   2.542   1.607   4.647 -1.3383 -0.6963 -2.7889
  646TIP3    H2 1903   2.513   1.499   4.749  1.1429 -2.3822 -3.7659
  647TIP3   OH2 1904   4.784   4.732   2.834 -0.0061 -0.5854  0.6220
  647TIP3    H1 1905   4.748   4.741   2.922  1.5545  0.6720  1.1869
  647TIP3    H2 1906   4.860   4.674   2.844  0.2664 -0.3244  0.1499
  648TIP3   OH2 1907   4.482   1.185   4.024 -0.6779  0.4336 -0.0945
  648TIP3    H1 1908   4.540   1.249   4.065  0.5223 -1.3247  1.1475
  648TIP3    H2 1909   4.541   1.126   3.977 -1.5451 -0.6622  0.1369
  649TIP3   OH2 1910   0.020   6.391   4.865 -0.1857 -0.1310  0.1161
  649TIP3    H1 1911   0.026   6.438   4.782 -2.1135  0.4056  0.2374
  649TIP3    H2 1912   0.076   6.441   4.925  1.8214 -0.9490 -0.9848
  650TIP3   OH2 1913   6.999   5.096   0.165  0.0769  0.4902 -0.0527
  650TIP3    H1 1914   6.927   5.154   0.141 -0.4274 -0.0508  0.1508
  650TIP3    H2 1915   6.984   5.016   0.115 -0.6230 -0.4010  1.5106
  651TIP3   OH2 1916   2.160   3.838   1.826  0.0346 -0.1257  0.0890
  651TIP3    H1 1917   2.248   3.835   1.788  0.6557  0.7605  1.3976
  651TIP3    H2 1918   2.118   3.758   1.794  1.3843 -0.6748 -0.3989
  652TIP3   OH2 1919   4.676   2.838   3.337 -0.2743 -0.1700 -0.5818
  652TIP3    H1 1920   4.697   2.768   3.275  1.0033 -0.7675  0.4826
  652TIP3    H2 1921   4.691   2.800   3.423  0.2244  1.3244  0.0345
  653TIP3   OH2 1922   5.030   5.494   3.037  0.3849 -0.2513  0.6860
  653TIP3    H1 1923   5.061   5.438   3.108 -1.4790 -0.3036  1.5151
  653TIP3    H2 1924   5.037   5.583   3.071  1.2410 -0.1266  0.2109
  654TIP3   OH2 1925   0.422   3.869   0.477 -0.2995 -0.6470 -0.1322
  654TIP3    H1 1926   0.367   3.921   0.536 -1.2871 -0.9673 -0.7567
  654TIP3    H2 1927   0.476   3.815   0.536  0.9826  1.2711  0.5450
  655TIP3   OH2 1928   0.321   0.180   1.916  0.2073  0.4359 -0.2231
  655TIP3    H1 1929   0.385   0.248   1.936 -0.0525  0.5844  0.1120
  655TIP3    H2 1930   0.368   0.098   1.934 -0.5023  0.5448  2.7273
  656TIP3   OH2 1931   0.963   3.811   3.819  0.2406 -0.2009  0.0876
  656TIP3    H1 1932   1.014   3.734   3.794  0.6266  0.0554  0.0848
  656TIP3    H2 1933   0.966   3.868   3.742 -0.4062 -0.3639 -0.0679
  657TIP3   OH2 1934   2.679   6.463   2.439 -0.0778  0.4296 -0.3819
  657TIP3    H1 1935   2.628   6.415   2.505 -0.3205 -2.5081 -2.5157
  657TIP3    H2 1936   2.619   6.473   2.365  0.3284  3.2449 -0.4419
  658TIP3   OH2 1937   4.689   0.993   3.481 -0.1865 -0.5705  0.8229
  658TIP3    H1 1938   4.779   0.971   3.456  0.0052  0.8107  0.2219
  658TIP3    H2 1939   4.646   1.013   3.398 -0.3353  1.2650  1.3035
  659TIP3   OH2 1940   4.394   5.385   3.994  0.2702 -0.3566 -0.0251
  659TIP3    H1 1941   4.374   5.295   3.967  2.4824 -0.7942 -0.4053
  659TIP3    H2 1942   4.308   5.428   3.999 -0.6283 -1.4537 -3.3894
  660TIP3   OH2 1943   4.808   6.327   1.736  0.0124  0.1259 -0.5204
  660TIP3    H1 1944   4.815   6.266   1.662 -1.2592 -1.1757  0.3902
  660TIP3    H2 1945   4.715   6.344   1.744  0.2676  1.4596 -0.1405
  661TIP3   OH2 1946   1.780   4.274   4.341 -0.0926  0.0520  0.1143
  661TIP3    H1 1947   1.703   4.218   4.334  1.0034 -1.6397  1.0482
  661TIP3    H2 1948   1.762   4.347   4.280 -2.4949 -0.1528  0.4857
  662TIP3   OH2 1949   5.307   4.244   1.064 -0.3766 -0.0951  0.6344
  662TIP3    H1 1950   5.379   4.241   1.002  0.4076 -1.4114  1.5484
  662TIP3    H2 1951   5.349   4.251   1.150 -1.3284 -0.8208  1.1857
  663TIP3   OH2 1952   6.956   0.060   4.510  0.2970 -0.0469  0.4546
  663TIP3    H1 1953   6.927   0.079   4.599 -0.5869 -0.6072  0.2902
  663TIP3    H2 1954   6.973  -0.034   4.509  0.7429  0.0310  0.1470
  664TIP3   OH2 1955   4.742   5.528   1.075  0.1155 -0.7042 -0.4928
  664TIP3    H1 1956   4.680   5.557   1.143 -0.2496  0.6416 -1.3701
  664TIP3    H2 1957   4.732   5.432   1.074 -0.8253 -0.6385  0.4452
  665TIP3   OH2 1958   0.086   6.214   0.933  0.0729 -0.3623  0.0453
  665TIP3    H1 1959   0.043   6.150   0.876  0.6489 -0.3484 -0.4196
  665TIP3    H2 1960   0.110   6.165   1.011  0.8211 -0.8122 -0.4496
  666TIP3   OH2 1961   4.364   0.169   3.039 -0.6844  0.2079 -0.1985
  666TIP3    H1 1962   4.354   0.076   3.022  0.2106 -0.2091  1.3522
  666TIP3    H2 1963   4.276   0.199   3.064 -1.0438 -0.1268 -1.0403
  667TIP3   OH2 1964   1.038   6.801   0.562  0.1583  0.5174  0.2217
  667TIP3    H1 1965   1.088   6.735   0.514  0.8614  1.8253 -0.9301
  667TIP3    H2 1966   1.007   6.861   0.494 -1.3793  0.7886  1.1292
  668TIP3   OH2 1967   0.745   0.324   0.904  0.1621 -0.4266 -0.2659
  668TIP3    H1 1968   0.744   0.387   0.831 -1.2950  4.0515  3.1489
  668TIP3    H2 1969   0.838   0.312   0.923  0.5460 -1.1151 -2.2892
  669TIP3   OH2 1970   0.768   3.488   3.244  0.5648 -0.4077  0.4749
  669TIP3    H1 1971   0.864   3.487   3.240  0.5398 -0.2971 -0.2726
  669TIP3    H2 1972   0.740   3.508   3.154 -0.1294  0.8763  0.9353
  670TIP3   OH2 1973   5.554   3.898   3.796  0.1371  0.0186 -0.3037
  670TIP3    H1 1974   5.551   3.980   3.845 -0.0911 -0.7397  0.9703
  670TIP3    H2 1975   5.467   3.860   3.807  0.8391 -1.3488  0.8037
  671TIP3   OH2 1976   3.450   3.269   0.627 -0.1020  0.4461  0.0057
  671TIP3    H1 1977   3.416   3.304   0.544  0.2588  0.9793  0.0831
  671TIP3    H2 1978   3.489   3.344   0.671  1.1313 -0.1410 -0.0513
  672TIP3   OH2 1979   5.929   5.344   2.618 -0.0287 -0.7739  0.5144
  672TIP3    H1 1980   5.850   5.398   2.614  0.1274 -0.6412 -2.2837
  672TIP3    H2 1981   5.898   5.255   2.599  0.3770 -0.8561  0.2250
  673TIP3   OH2 1982   1.439   6.667   1.947 -0.0540  0.2877  0.4412
  673TIP3    H1 1983   1.493   6.626   2.014  0.6523  0.7367  0.1590
  673TIP3    H2 1984   1.501   6.711   1.889 -0.7790  1.6956  0.6928
  674TIP3   OH2 1985   2.655   0.402   2.490 -1.2447 -0.2894  0.3414
  674TIP3    H1 1986   2.651   0.497   2.489 -0.5548 -0.2548  0.0033
  674TIP3    H2 1987   2.639   0.376   2.399  1.0152 -0.3430 -0.1218
  675TIP3   OH2 1988   5.453   1.422   4.809 -0.5778 -0.0794 -0.1646
  675TIP3    H1 1989   5.421   1.345   4.855  0.0542 -0.2087  0.0665
  675TIP3    H2 1990   5.509   1.466   4.872  1.1729 -0.8301 -1.1330
  676TIP3   OH2 1991   1.319   1.254   1.330  0.2880  0.0738  0.4317
  676TIP3    H1 1992   1.250   1.192   1.352  0.4122 -0.0832  0.3798
  676TIP3    H2 1993   1.275   1.339   1.325  0.0877 -0.0370  0.3335
  677TIP3   OH2 1994   5.275   2.257   2.117 -0.1061  0.1928 -0.4324
  677TIP3    H1 1995   5.226   2.186   2.076  0.4831 -0.1955 -0.4912
  677TIP3    H2 1996   5.216   2.331   2.116 -0.4511 -0.0772 -1.1214
  678TIP3   OH2 1997   1.472   1.443   3.054  0.1021  0.4010 -0.1453
  678TIP3    H1 1998   1.496   1.391   2.978 -1.3328 -2.4113  1.1801
  678TIP3    H2 1999   1.550   1.494   3.075  1.2541 -0.4658 -2.1185
  679TIP3   OH2 2000   2.907   4.931   0.749 -0.4679 -0.0967  0.1587
  679TIP3    H1 2001   2.893   4.999   0.815 -0.4361  0.0587  0.0064
  679TIP3    H2 2002   2.824   4.926   0.701 -1.3419 -1.8923  1.7441
  680TIP3   OH2 2003   0.294   3.094   3.404 -0.3466 -0.1257 -0.2781
  680TIP3    H1 2004   0.270   3.184   3.426  0.6962  0.2518 -0.6624
  680TIP3    H2 2005   0.220   3.042   3.435 -0.5259  0.7608  0.8441
  681TIP3   OH2 2006   0.901   5.683   2.909  0.3092  0.6391 -0.7363
  681TIP3    H1 2007   0.922   5.589   2.913  1.7305  0.8960 -1.5383
  681TIP3    H2 2008   0.824   5.688   2.852  0.7641  0.0293 -1.4226
  682TIP3   OH2 2009   0.867   4.386   2.939  0.0436 -0.0606  0.1527
  682TIP3    H1 2010   0.818   4.343   3.010 -2.6206  3.2021  0.5438
  682TIP3    H2 2011   0.954   4.403   2.977 -0.0845 -1.6796  1.2523
  683TIP3   OH2 2012   0.076   0.304   4.342  0.0449  0.0808  0.2725
  683TIP3    H1 2013   0.155   0.353   4.321  1.0889 -1.2723  0.9501
  683TIP3    H2 2014   0.011   0.372   4.364  1.5179  1.1505  1.4756
  684TIP3   OH2 2015   1.651   1.833   0.371 -0.7017  0.2603  0.6324
  684TIP3    H1 2016   1.555   1.831   0.378 -0.7201  2.5352  2.4976
  684TIP3    H2 2017   1.679   1.873   0.453  1.7300  1.3405 -0.6390
  685TIP3   OH2 2018   7.079   1.972   1.275  0.0936  0.5655  0.4073
  685TIP3    H1 2019   7.127   2.048   1.309  1.7046 -0.8806  1.5520
  685TIP3    H2 2020   7.010   1.958   1.339  0.2057  0.6720  0.5537
  686TIP3   OH2 2021   5.383   3.340   1.332 -0.3151 -0.1441 -0.7594
  686TIP3    H1 2022   5.470   3.300   1.333 -0.4727 -0.4899  0.6289
  686TIP3    H2 2023   5.324   3.269   1.355 -0.8178  0.4299 -0.2679
  687TIP3   OH2 2024   3.458   1.594   1.666  0.3052 -0.6015  0.4564
  687TIP3    H1 2025   3.398   1.657   1.627  1.2355 -0.6344 -1.1318
  687TIP3    H2 2026   3.408   1.552   1.735 -0.4010  1.7633  1.5055
  688TIP3   OH2 2027   4.591   3.944   1.576  0.9977 -0.3228  0.1764
  688TIP3    H1 2028   4.567   3.930   1.668  2.6307  1.4423  0.9393
  688TIP3    H2 2029   4.680   3.909   1.570  0.2379 -2.1634 -1.2785
  689TIP3   OH2 2030   0.898   2.235   0.888 -0.5383  0.2776 -0.2836
  689TIP3    H1 2031   0.840   2.300   0.928 -0.4507  2.3726 -3.2741
  689TIP3    H2 2032   0.978   2.283   0.867  0.4472 -1.3978 -0.5612
  690TIP3   OH2 2033   5.152   3.491   1.002 -0.6914 -0.3573  0.0988
  690TIP3    H1 2034   5.059   3.486   0.980 -0.7102  1.0115 -0.2345
  690TIP3    H2 2035   5.157   3.466   1.094 -1.6258  1.1402  0.5909
  691TIP3   OH2 2036   4.519   3.256   3.161 -0.3238  0.0089  1.2803
  691TIP3    H1 2037   4.429   3.269   3.191 -0.3743 -0.0365  1.1465
  691TIP3    H2 2038   4.573   3.289   3.233 -0.4479  0.4838  1.1553
  692TIP3   OH2 2039   2.066   6.172   0.287 -0.3395  0.6522  0.1954
  692TIP3    H1 2040   2.107   6.188   0.372  1.0445 -1.0627 -0.0975
  692TIP3    H2 2041   2.012   6.094   0.302  0.4517 -0.0775 -0.6257
  693TIP3   OH2 2042   6.130   4.776   1.961 -0.4893 -0.0683 -0.1505
  693TIP3    H1 2043   6.125   4.818   1.875  2.1321 -1.2249 -0.9884
  693TIP3    H2 2044   6.102   4.686   1.945 -0.5842 -0.1274  0.3420
  694TIP3   OH2 2045   2.562   4.335   4.563  0.3037  0.0863 -0.4522
  694TIP3    H1 2046   2.501   4.382   4.505  0.1761  0.1545 -0.2628
  694TIP3    H2 2047   2.576   4.251   4.520 -0.6867 -0.3170 -0.0087
  695TIP3   OH2 2048   4.810   5.912   4.696 -0.3783 -0.1492 -0.4206
  695TIP3    H1 2049   4.858   5.872   4.623 -1.3353 -0.1515 -1.0672
  695TIP3    H2 2050   4.768   5.838   4.740  1.3616 -0.3259  1.0550
  696TIP3   OH2 2051   2.489   3.635   1.968 -0.5743 -0.2686 -0.3251
  696TIP3    H1 2052   2.492   3.709   1.907 -1.4347 -1.7762 -2.2765
  696TIP3    H2 2053   2.539   3.566   1.925 -1.6852 -1.5647  0.3848
  697TIP3   OH2 2054   2.196   0.036   1.909 -0.8528 -0.1178 -0.6091
  697TIP3    H1 2055   2.155  -0.025   1.971 -0.8080 -0.9555 -1.3965
  697TIP3    H2 2056   2.174   0.123   1.944  1.2700 -0.5241  2.0017
  698TIP3   OH2 2057   0.857   5.284   0.376  0.4229 -0.3606  0.8635
  698TIP3    H1 2058   0.895   5.199   0.401  2.4985 -0.2720 -1.6125
  698TIP3    H2 2059   0.884   5.297   0.285 -2.5850  1.5136  0.1006
  699TIP3   OH2 2060   0.684   6.263   0.525  0.2512  0.3542  0.4359
  699TIP3    H1 2061   0.604   6.271   0.578 -0.7639  1.6525 -1.1868
  699TIP3    H2 2062   0.673   6.329   0.456  0.8761 -2.0955 -2.1697
  700TIP3   OH2 2063   0.958   2.397   0.651 -0.8088 -0.5451  0.2290
  700TIP3    H1 2064   1.036   2.341   0.660 -0.3770 -0.7840 -3.3115
  700TIP3    H2 2065   0.993   2.486   0.653 -0.2276 -0.6575 -1.9561
  701TIP3   OH2 2066   2.795   6.103   2.148  0.3190  0.1102 -0.3271
  701TIP3    H1 2067   2.798   6.196   2.126  0.1653 -0.1471 -1.4844
  701TIP3    H2 2068   2.862   6.092   2.215 -0.7850  1.3659  1.0536
  702TIP3   OH2 2069   0.781   0.787   5.761 -0.1703  0.2344  0.7256
  702TIP3    H1 2070   0.789   0.706   5.711  1.4474  0.0781  1.1764
  702TIP3    H2 2071   0.773   0.758   5.852 -0.7678  0.5564  0.7766
  703TIP3   OH2 2072   6.851   5.784   4.288 -0.5182 -0.0214  0.6430
  703TIP3    H1 2073   6.920   5.851   4.290  0.7641 -1.2457 -0.0215
  703TIP3    H2 2074   6.828   5.770   4.379  1.9176 -1.2931  1.1514
  704TIP3   OH2 2075   4.116   1.629   1.438  0.0680  0.0240 -0.5948
  704TIP3    H1 2076   4.212   1.631   1.433  0.2548  1.9732  1.8878
  704TIP3    H2 2077   4.089   1.717   1.410 -0.9430 -0.2104 -0.3738
  705TIP3   OH2 2078   0.026   5.521   3.388  0.2387  0.2280 -0.1768
  705TIP3    H1 2079  -0.048   5.464   3.366  1.6099 -1.6476 -0.0829
  705TIP3    H2 2080   0.065   5.481   3.466  0.5741  1.9710  0.6078
  706TIP3   OH2 2081   2.071   3.215   2.277  0.1600 -0.2094  0.3217
  706TIP3    H1 2082   2.138   3.204   2.345  0.1873  1.1806  0.5379
  706TIP3    H2 2083   2.011   3.280   2.313 -0.7361 -0.6757 -0.3088
  707TIP3   OH2 2084   4.851   0.268   2.018  0.0343  0.5783  0.1957
  707TIP3    H1 2085   4.826   0.335   2.081 -0.4412 -0.0727  0.7081
  707TIP3    H2 2086   4.946   0.275   2.011 -0.0489  1.5485 -0.0370
  708TIP3   OH2 2087   5.420   6.660   0.258 -0.5489  0.3162 -0.2167
  708TIP3    H1 2088   5.359   6.588   0.243 -0.3693  0.2241 -0.5361
  708TIP3    H2 2089   5.367   6.739   0.256 -0.7530  0.1903  0.1721
  709TIP3   OH2 2090   5.322   5.403   2.270 -0.0789  0.1109  0.2721
  709TIP3    H1 2091   5.399   5.437   2.317  0.3171 -0.5369  0.0970
  709TIP3    H2 2092   5.247   5.440   2.317  0.3312  1.2879  0.0575
  710TIP3   OH2 2093   3.139   2.361   3.303  0.3882 -0.1188 -0.2165
  710TIP3    H1 2094   3.065   2.349   3.244  0.5620  0.0822 -0.4745
  710TIP3    H2 2095   3.216   2.349   3.248  0.5557  0.5691 -0.1398
  711TIP3   OH2 2096   6.796   5.847   2.836  0.6584 -0.5988 -0.6100
  711TIP3    H1 2097   6.715   5.845   2.786  0.4708 -0.9249 -0.2936
  711TIP3    H2 2098   6.816   5.756   2.854  0.1780 -0.4529  0.7720
  712TIP3   OH2 2099   6.790   4.000   4.030  0.0191  0.2881  0.2560
  712TIP3    H1 2100   6.864   3.960   3.984 -0.0746 -0.4343  0.7220
  712TIP3    H2 2101   6.803   4.094   4.019  0.3234  0.1423 -0.7327
  713TIP3   OH2 2102   1.922   0.995   3.462 -0.2667 -0.3413 -0.2117
  713TIP3    H1 2103   1.900   1.059   3.530 -0.9375 -1.7468  0.9601
  713TIP3    H2 2104   1.848   0.998   3.401 -1.5435 -1.7060  1.1836
  714TIP3   OH2 2105   4.034   4.953   5.874 -0.4378 -0.1044 -0.2023
  714TIP3    H1 2106   3.994   4.958   5.787 -2.3093  0.1834  0.6258
  714TIP3    H2 2107   4.014   4.864   5.904  2.2664 -1.0709 -0.9366
  715TIP3   OH2 2108   7.098   4.668   1.944  0.0523 -0.4235  0.4487
  715TIP3    H1 2109   7.171   4.653   2.003 -0.1562 -0.8035  0.6142
  715TIP3    H2 2110   7.136   4.716   1.870  0.2428  0.3671  1.0490
  716TIP3   OH2 2111   4.683   5.716   4.826 -0.5840 -0.4218 -0.1689
  716TIP3    H1 2112   4.609   5.761   4.866 -1.4220 -0.1536 -1.9362
  716TIP3    H2 2113   4.646   5.633   4.794 -0.4509  0.1851 -2.0559
  717TIP3   OH2 2114   5.952   4.730   4.681  0.2583  0.2220 -0.5818
  717TIP3    H1 2115   5.950   4.820   4.647  0.3735  0.3708 -0.1990
  717TIP3    H2 2116   6.041   4.719   4.714  0.0956  0.1445 -0.1594
  718TIP3   OH2 2117   3.803   3.902   3.308  0.5690  0.2169 -0.7832
  718TIP3    H1 2118   3.882   3.883   3.359  0.9702  0.9994 -1.0887
  718TIP3    H2 2119   3.764   3.977   3.352 -0.3674 -0.5644 -0.2546
  719TIP3   OH2 2120   0.332   3.603   4.205 -0.2005  0.1425  0.0512
  719TIP3    H1 2121   0.409   3.558   4.169 -1.0701 -1.3411 -0.0281
  719TIP3    H2 2122   0.336   3.691   4.167  2.5693  0.8166  1.6562
  720TIP3   OH2 2123   2.924   4.139   3.847 -0.1724 -0.6580 -0.4327
  720TIP3    H1 2124   2.882   4.057   3.874 -1.8057  0.1274 -0.4596
  720TIP3    H2 2125   2.951   4.124   3.756 -0.6265 -1.1143 -0.4970
  721TIP3   OH2 2126   2.338   5.424   2.809 -0.3876 -0.0999 -0.3631
  721TIP3    H1 2127   2.319   5.338   2.770 -0.7593 -0.0482 -0.2986
  721TIP3    H2 2128   2.419   5.410   2.859 -1.2388 -0.8123  0.8866
  722TIP3   OH2 2129   0.788   4.172   3.639  0.3080 -0.0232  0.0853
  722TIP3    H1 2130   0.847   4.179   3.713 -1.5671  1.0319  1.5742
  722TIP3    H2 2131   0.710   4.129   3.673 -1.0416  1.4590 -0.9343
  723TIP3   OH2 2132   0.906   1.785   0.733  0.6611  0.3072 -0.3579
  723TIP3    H1 2133   0.945   1.741   0.657  1.6833  1.3302 -0.4561
  723TIP3    H2 2134   0.892   1.875   0.705 -0.6575  0.2596  0.0963
  724TIP3   OH2 2135   2.287   6.302   2.951  0.8396  0.2399 -0.0586
  724TIP3    H1 2136   2.192   6.305   2.941  0.7155 -0.1347  0.9717
  724TIP3    H2 2137   2.310   6.212   2.928  0.8123  0.0151  0.7797
  725TIP3   OH2 2138   0.057   4.999   0.210  0.3407  0.1730 -0.4630
  725TIP3    H1 2139   0.056   4.916   0.256 -0.4322  1.1576  1.4351
  725TIP3    H2 2140  -0.034   5.011   0.181  0.3237  0.5958 -0.2448
  726TIP3   OH2 2141   3.381   2.505   1.552 -0.0215 -0.3033 -0.3832
  726TIP3    H1 2142   3.428   2.511   1.635 -1.8795  1.7348  0.6183
  726TIP3    H2 2143   3.450   2.500   1.486  1.6050  0.8936  1.1201
  727TIP3   OH2 2144   5.412   1.162   3.853  0.2604  0.0355  0.1095
  727TIP3    H1 2145   5.495   1.117   3.834 -0.4834 -2.3171  1.8580
  727TIP3    H2 2146   5.424   1.250   3.818  2.8967 -0.6820 -1.0883
  728TIP3   OH2 2147   3.905   0.526   0.821  0.3395 -0.1924 -0.1315
  728TIP3    H1 2148   3.839   0.580   0.865 -0.4621 -0.7506 -0.6096
  728TIP3    H2 2149   3.972   0.511   0.888 -1.2524 -1.7168  1.2378
  729TIP3   OH2 2150   6.433   0.621   1.148  0.3845  0.1324  0.2279
  729TIP3    H1 2151   6.407   0.645   1.059  2.1802 -1.6233 -0.8537
  729TIP3    H2 2152   6.525   0.646   1.154  0.9931 -1.9597  0.6654
  730TIP3   OH2 2153   5.604   0.398   0.897  0.4454 -0.2325 -0.8135
  730TIP3    H1 2154   5.604   0.469   0.961 -0.5570 -0.8681 -0.0814
  730TIP3    H2 2155   5.513   0.369   0.893  0.6582 -0.8185 -1.8496
  731TIP3   OH2 2156   7.211   2.760   0.326 -0.2794  0.9636  0.0358
  731TIP3    H1 2157   7.179   2.813   0.253  0.8157 -0.6713 -1.7342
  731TIP3    H2 2158   7.145   2.691   0.337 -1.1534  1.9934  1.6010
  732TIP3   OH2 2159   0.610   3.546   0.412 -0.3225  0.4565  0.8864
  732TIP3    H1 2160   0.665   3.614   0.373 -0.3405  0.5822  1.0780
  732TIP3    H2 2161   0.671   3.486   0.453 -0.2514 -0.1564 -0.0864
  733TIP3   OH2 2162   4.626   4.060   0.044 -0.5404 -0.3627  0.8837
  733TIP3    H1 2163   4.579   4.000  -0.014 -1.4832 -0.6289  1.8938
  733TIP3    H2 2164   4.607   4.028   0.132  2.2257 -0.9977  1.3443
  734TIP3   OH2 2165   6.582   5.242   3.578 -0.0939  0.1407  0.0685
  734TIP3    H1 2166   6.577   5.285   3.664 -1.3015  1.9924 -0.8668
  734TIP3    H2 2167   6.675   5.224   3.566 -0.0295 -1.5301  2.3654
  735TIP3   OH2 2168   4.951   1.109   5.554 -0.3206  0.1981  0.7183
  735TIP3    H1 2169   5.007   1.051   5.605  0.2090  0.4388  0.4196
  735TIP3    H2 2170   4.864   1.070   5.562 -0.1758 -0.0042  1.4499
  736TIP3   OH2 2171   1.760   4.929   1.415  0.1326  0.0927  0.3756
  736TIP3    H1 2172   1.828   4.927   1.482 -0.2782  2.5195  0.9514
  736TIP3    H2 2173   1.687   4.976   1.455 -1.1737 -0.7696 -0.8806
  737TIP3   OH2 2174   1.163   6.739   5.596  0.1790 -0.3810 -0.2968
  737TIP3    H1 2175   1.104   6.763   5.525 -0.2346 -2.2001 -0.6029
  737TIP3    H2 2176   1.105   6.720   5.670  0.3452 -1.9835 -0.5441
  738TIP3   OH2 2177   1.543   4.041   2.446  0.0621 -0.2055  0.3592
  738TIP3    H1 2178   1.587   4.098   2.382  0.1333 -2.2906 -1.5897
  738TIP3    H2 2179   1.454   4.033   2.414 -0.1037 -0.7125  0.9280
  739TIP3   OH2 2180   4.157   3.885   3.875 -0.2859 -0.2261 -0.1476
  739TIP3    H1 2181   4.218   3.861   3.804  0.6287 -2.9209  1.3782
  739TIP3    H2 2182   4.072   3.889   3.832  0.5663  0.9006 -1.8585
  740TIP3   OH2 2183   6.005   2.438   5.220  0.0254 -0.3603 -0.1597
  740TIP3    H1 2184   6.041   2.350   5.221  0.6542 -0.1112 -0.4020
  740TIP3    H2 2185   6.022   2.472   5.308 -1.7299 -1.0610  0.5051
  741TIP3   OH2 2186   5.545   1.561   3.259  0.4425  0.2266 -0.4937
  741TIP3    H1 2187   5.616   1.604   3.306  0.6636  0.3273 -0.9170
  741TIP3    H2 2188   5.528   1.617   3.184  1.9355 -1.2744 -2.0388
  742TIP3   OH2 2189   0.481   4.353   1.198  0.1580 -0.4709 -0.9532
  742TIP3    H1 2190   0.471   4.448   1.204 -0.1363 -0.6060  2.1521
  742TIP3    H2 2191   0.561   4.334   1.246 -0.5649 -1.8957 -0.2550
  743TIP3   OH2 2192   4.150   3.083   0.875  0.1612  0.2283 -0.2913
  743TIP3    H1 2193   4.106   3.137   0.940  1.1166  0.1573  0.4346
  743TIP3    H2 2194   4.242   3.086   0.899  0.4637 -0.2617 -1.3149
  744TIP3   OH2 2195   6.295   4.748   5.708 -0.2355 -0.0276  0.2158
  744TIP3    H1 2196   6.341   4.666   5.727 -0.0370  0.3693  1.5211
  744TIP3    H2 2197   6.322   4.770   5.619  0.0633 -1.1473  0.0128
  745TIP3   OH2 2198   2.478   0.603   0.108  0.7306  0.3514 -0.2604
  745TIP3    H1 2199   2.416   0.675   0.105 -0.3863 -0.4720  1.4658
  745TIP3    H2 2200   2.538   0.620   0.035  0.5798  3.0296  0.1498
  746TIP3   OH2 2201   1.423   3.762   4.072  0.2081  0.5049  0.0592
  746TIP3    H1 2202   1.392   3.834   4.017 -1.4864 -0.3382 -0.1570
  746TIP3    H2 2203   1.449   3.694   4.010 -1.2134 -0.2484  0.2451
  747TIP3   OH2 2204   3.346   2.891   0.483  0.2232 -0.0849 -0.0883
  747TIP3    H1 2205   3.270   2.919   0.535  0.3846  0.4348 -0.1211
  747TIP3    H2 2206   3.315   2.893   0.392 -0.1602 -1.3232 -0.0024
  748TIP3   OH2 2207   1.606   6.411   3.106  0.0749 -0.0319 -0.1501
  748TIP3    H1 2208   1.625   6.459   3.026  1.2883  0.2748  0.3101
  748TIP3    H2 2209   1.534   6.460   3.146  1.2118  1.3827  0.2602
  749TIP3   OH2 2210   1.505   5.519   1.461 -0.4385  0.1794 -0.0386
  749TIP3    H1 2211   1.503   5.442   1.517  1.4979 -0.1650 -0.3874
  749TIP3    H2 2212   1.544   5.488   1.379 -0.6474  1.3013 -0.5789
  750TIP3   OH2 2213   6.138   2.817   2.028  0.4299 -0.0540  0.6785
  750TIP3    H1 2214   6.209   2.763   2.062  1.2191 -1.2106 -2.5199
  750TIP3    H2 2215   6.074   2.754   1.995  0.1132  0.9355 -0.6784
  751TIP3   OH2 2216   5.007   2.019   1.181 -0.2181 -0.4177 -0.6696
  751TIP3    H1 2217   4.981   1.932   1.149 -1.0425 -1.6332  2.8425
  751TIP3    H2 2218   4.957   2.030   1.262  2.3422  1.8998  0.7396
  752TIP3   OH2 2219   1.037   4.554   0.296 -0.3034  0.1976 -0.3718
  752TIP3    H1 2220   1.096   4.489   0.334 -1.4282 -0.5032  0.2196
  752TIP3    H2 2221   1.055   4.551   0.202  0.0262 -0.5895 -0.2914
  753TIP3   OH2 2222   5.020   4.907   1.953 -0.1389  0.2290  0.1767
  753TIP3    H1 2223   4.967   4.987   1.958 -0.8610 -0.2487  0.3449
  753TIP3    H2 2224   5.100   4.935   1.908  0.1247  1.2944  1.2419
  754TIP3   OH2 2225   2.935   4.220   2.383 -0.1059 -0.1846 -0.2691
  754TIP3    H1 2226   3.002   4.185   2.442  0.5851  0.2139 -0.8011
  754TIP3    H2 2227   2.868   4.151   2.380  0.4903 -0.7871 -0.0832
  755TIP3   OH2 2228   0.753   4.320   1.299  0.4121 -0.0733  0.0909
  755TIP3    H1 2229   0.830   4.376   1.294  0.7707 -0.6465 -2.4570
  755TIP3    H2 2230   0.782   4.244   1.350  1.0759  0.3771  0.3955
  756TIP3   OH2 2231   6.450   5.158   3.843 -0.2059  0.6212  0.3409
  756TIP3    H1 2232   6.543   5.170   3.860 -0.1057  0.4380 -0.0572
  756TIP3    H2 2233   6.406   5.215   3.905  0.1194 -0.4245  1.5646
  757TIP3   OH2 2234   7.112   0.976   0.102  0.3179 -0.4347  0.6083
  757TIP3    H1 2235   7.193   1.006   0.059  0.2867 -0.4815  0.5168
  757TIP3    H2 2236   7.042   1.005   0.043  0.2798 -0.5653  0.5906
  758TIP3   OH2 2237   5.297   0.275   3.868 -0.1704  0.3123 -0.1559
  758TIP3    H1 2238   5.307   0.339   3.938  1.6327 -0.3067  0.1957
  758TIP3    H2 2239   5.295   0.327   3.788 -1.0389  0.9375  0.2590
  759TIP3   OH2 2240   1.351   1.302   4.509 -0.2825 -0.0931 -0.4843
  759TIP3    H1 2241   1.421   1.283   4.571 -0.3151  0.3669 -0.3020
  759TIP3    H2 2242   1.396   1.333   4.431 -0.2443 -0.6143 -0.6716
  760TIP3   OH2 2243   1.583   4.716   3.866 -0.1116  0.2263  0.6646
  760TIP3    H1 2244   1.543   4.751   3.787 -0.9114 -0.4897  0.7439
  760TIP3    H2 2245   1.583   4.790   3.927  1.5395  1.1159 -0.3360
  761TIP3   OH2 2246   6.931   4.997   0.821  0.0777 -0.1606 -0.2964
  761TIP3    H1 2247   6.847   4.954   0.832  0.6388 -0.9579  1.0913
  761TIP3    H2 2248   6.909   5.088   0.801 -1.1360  0.0177  1.6162
  762TIP3   OH2 2249   3.283   3.399   2.241  0.4521  0.5508  0.2532
  762TIP3    H1 2250   3.218   3.419   2.308  0.6901  0.9053  0.3793
  762TIP3    H2 2251   3.309   3.484   2.206  1.5252  0.4877  0.8505
  763TIP3   OH2 2252   5.397   2.102   4.806  0.0968  0.2821 -0.4546
  763TIP3    H1 2253   5.326   2.122   4.868  1.1963 -0.4138  1.0917
  763TIP3    H2 2254   5.465   2.166   4.826  0.7978 -0.4791 -0.3712
  764TIP3   OH2 2255   4.117   4.554   0.268  0.2463  0.5709  0.0794
  764TIP3    H1 2256   4.056   4.627   0.271 -0.0758  0.3036  0.0974
  764TIP3    H2 2257   4.142   4.546   0.176 -0.7231 -0.1145 -0.1385
  765TIP3   OH2 2258   6.313   4.314   5.632  0.4813  0.3227 -0.6560
  765TIP3    H1 2259   6.401   4.345   5.614  0.7331 -0.4644 -0.7882
  765TIP3    H2 2260   6.325   4.226   5.668 -0.3106 -0.2917 -1.8572
  766TIP3   OH2 2261   6.851   5.626   0.233  0.3753 -0.4657 -0.1701
  766TIP3    H1 2262   6.850   5.718   0.207  0.1027 -0.1650  0.8619
  766TIP3    H2 2263   6.830   5.578   0.153  0.6212  0.3603 -0.7385
  767TIP3   OH2 2264   3.773   1.877   1.400 -0.2786 -0.6352  0.0329
  767TIP3    H1 2265   3.806   1.949   1.454  0.2706 -0.1075 -0.9806
  767TIP3    H2 2266   3.731   1.817   1.462 -0.2491  0.2813  0.9563
  768TIP3   OH2 2267   1.301   3.194   5.599  0.1752  0.5807  0.0041
  768TIP3    H1 2268   1.293   3.145   5.681 -1.2893  0.4784 -0.1623
  768TIP3    H2 2269   1.214   3.232   5.586  0.6537  1.3639 -1.0259
  769TIP3   OH2 2270   0.777   2.442   3.861 -0.4353  0.2565 -0.9141
  769TIP3    H1 2271   0.718   2.366   3.864 -0.2536  0.1432 -0.0421
  769TIP3    H2 2272   0.821   2.434   3.777  2.2916 -2.6954  0.6064
  770TIP3   OH2 2273   6.868   0.573   1.764 -0.4639 -0.5707 -0.5741
  770TIP3    H1 2274   6.897   0.600   1.851  0.0107  0.2436 -0.9744
  770TIP3    H2 2275   6.858   0.478   1.770  1.2860 -0.7509 -0.1332
  771TIP3   OH2 2276   7.201   5.243   4.363 -0.8666 -0.6516  0.0141
  771TIP3    H1 2277   7.195   5.161   4.412 -0.6351 -0.4206  0.4334
  771TIP3    H2 2278   7.111   5.275   4.359 -0.8653 -0.5844  0.4411
  772TIP3   OH2 2279   6.608   1.750   4.551  0.2150 -0.0219 -0.0689
  772TIP3    H1 2280   6.582   1.734   4.642  2.0639  1.2680  0.7353
  772TIP3    H2 2281   6.551   1.822   4.522  0.2163  0.1593  0.3724
  773TIP3   OH2 2282   7.133   0.248   1.223  0.1843  0.2348 -0.3965
  773TIP3    H1 2283   7.182   0.166   1.233  0.3266  0.5207  1.4181
  773TIP3    H2 2284   7.041   0.220   1.217  0.3408 -0.1326 -1.2298
  774TIP3   OH2 2285   5.784   6.049   1.530 -0.2650  0.5508 -0.5613
  774TIP3    H1 2286   5.839   5.974   1.509  0.4493  1.2025 -1.0658
  774TIP3    H2 2287   5.725   6.017   1.598  0.3380 -0.3312 -0.4351
  775TIP3   OH2 2288   6.739   4.500   4.605  0.0724  0.5799 -0.2261
  775TIP3    H1 2289   6.698   4.426   4.650 -0.7897  1.0897 -0.1533
  775TIP3    H2 2290   6.755   4.564   4.674  0.8428  0.4651 -0.2853
  776TIP3   OH2 2291   5.456   3.935   2.463  0.6223  0.2396  0.1982
  776TIP3    H1 2292   5.511   3.965   2.390 -0.6443 -0.1941 -0.9775
  776TIP3    H2 2293   5.370   3.970   2.443  0.4647  0.9780  2.0628
  777TIP3   OH2 2294   3.120   6.704   2.267 -0.0516 -0.7529  0.4020
  777TIP3    H1 2295   3.175   6.772   2.306 -1.4940  1.1393 -0.7106
  777TIP3    H2 2296   3.131   6.628   2.325  2.2626  0.1204  1.2120
  778TIP3   OH2 2297   6.722   0.122   5.069  0.1366 -0.0757  0.2448
  778TIP3    H1 2298   6.787   0.150   5.133 -1.4740  1.5482  1.2823
  778TIP3    H2 2299   6.691   0.203   5.029  0.0418 -0.9541 -1.5594
  779TIP3   OH2 2300   5.660   6.650   0.059  0.1868 -0.0135 -0.0568
  779TIP3    H1 2301   5.574   6.641   0.100  1.2037  0.4601  2.3809
  779TIP3    H2 2302   5.720   6.607   0.120  1.7149 -0.3115 -1.6756
  780TIP3   OH2 2303   1.175   3.649   4.165  0.1530  0.0869  0.6912
  780TIP3    H1 2304   1.173   3.647   4.261  1.0563  0.3456  0.7226
  780TIP3    H2 2305   1.252   3.702   4.143 -1.6985  2.5951 -0.1851
  781TIP3   OH2 2306   4.391   2.215   5.295  0.5055  0.5246  0.0686
  781TIP3    H1 2307   4.377   2.122   5.274 -0.1427  0.4263  0.9064
  781TIP3    H2 2308   4.347   2.262   5.224  1.3146  0.1987 -0.6639
  782TIP3   OH2 2309   3.540   4.298   1.788 -0.5305  0.0942 -0.0217
  782TIP3    H1 2310   3.623   4.284   1.833 -0.4402  0.4250 -0.0826
  782TIP3    H2 2311   3.555   4.376   1.735 -0.6615 -0.2297 -0.5550
  783TIP3   OH2 2312   2.175   5.298   4.262 -0.6611  0.3541 -0.2689
  783TIP3    H1 2313   2.196   5.363   4.328 -1.7412  1.8366 -1.3139
  783TIP3    H2 2314   2.160   5.217   4.311 -0.8522  1.2672  1.2289
  784TIP3   OH2 2315   3.057   3.824   2.423 -0.7046 -0.0585  0.2671
  784TIP3    H1 2316   3.054   3.750   2.363 -1.3395  0.3219 -0.1946
  784TIP3    H2 2317   3.007   3.893   2.378  0.0486  0.7150  0.5949
  785TIP3   OH2 2318   7.080   1.487   0.366  0.4016 -0.0644 -0.0590
  785TIP3    H1 2319   7.057   1.543   0.440  0.7525  0.5571 -0.4131
  785TIP3    H2 2320   7.132   1.416   0.404 -1.2922 -0.9945  0.6196
  786TIP3   OH2 2321   5.257   3.829   3.420 -0.4390 -0.2274 -0.5399
  786TIP3    H1 2322   5.201   3.755   3.443 -1.4000  0.8678  0.8231
  786TIP3    H2 2323   5.198   3.905   3.420  1.0719  1.0439  1.4177
  787TIP3   OH2 2324   3.733   3.878   5.778 -0.2517 -0.3250 -0.2459
  787TIP3    H1 2325   3.752   3.971   5.779  2.3164 -0.7483 -1.8366
  787TIP3    H2 2326   3.716   3.856   5.869 -0.3297  1.5578  0.2338
  788TIP3   OH2 2327   1.965   1.724   3.876 -0.5824  0.6016 -0.2095
  788TIP3    H1 2328   1.951   1.665   3.802 -0.9198  0.1220  0.2329
  788TIP3    H2 2329   2.052   1.701   3.909 -0.6254  0.5001 -0.1680
  789TIP3   OH2 2330   2.932   1.341   1.574  0.3470  0.2524 -0.0259
  789TIP3    H1 2331   2.953   1.369   1.663 -3.1991 -0.5993  1.2325
  789TIP3    H2 2332   2.985   1.262   1.560 -0.3380 -0.6343  2.0700
  790TIP3   OH2 2333   3.659   2.773   1.504 -0.1512 -0.0274  0.3278
  790TIP3    H1 2334   3.571   2.807   1.521  0.1163  0.7057  0.2764
  790TIP3    H2 2335   3.645   2.702   1.442 -0.8298 -0.7202  1.2554
  791TIP3   OH2 2336   5.576   6.683   3.182  0.2781  0.4189  0.7521
  791TIP3    H1 2337   5.516   6.621   3.225  0.9196 -1.0423 -0.3420
  791TIP3    H2 2338   5.663   6.652   3.207  0.6140  1.7861  1.3383
  792TIP3   OH2 2339   4.428   1.396   0.343  0.2733 -0.2566  0.3901
  792TIP3    H1 2340   4.353   1.455   0.340 -0.7873 -1.5862  0.1663
  792TIP3    H2 2341   4.440   1.368   0.252  0.3419 -0.9268  0.6037
  793TIP3   OH2 2342   3.475   6.638   2.607  0.1097 -0.6254 -0.3694
  793TIP3    H1 2343   3.492   6.668   2.518  0.0311 -0.3059 -0.2773
  793TIP3    H2 2344   3.535   6.688   2.661 -1.4092  0.8633  0.0146
  794TIP3   OH2 2345   3.409   3.375   3.582  0.4190 -0.0743 -0.3036
  794TIP3    H1 2346   3.422   3.282   3.562 -2.2185 -0.6358  0.2340
  794TIP3    H2 2347   3.377   3.414   3.501 -3.4134 -0.8445  0.6317
  795TIP3   OH2 2348   2.509   3.472   2.222  0.2531 -0.4407  0.0564
  795TIP3    H1 2349   2.520   3.544   2.160  1.0017 -0.9137 -0.3725
  795TIP3    H2 2350   2.506   3.393   2.168  0.9942 -0.8715  0.6172
  796TIP3   OH2 2351   4.480   3.442   1.331  0.3088  0.1052 -0.0713
  796TIP3    H1 2352   4.541   3.461   1.260  1.2968 -0.3666  0.6203
  796TIP3    H2 2353   4.502   3.353   1.359 -0.4178  0.0826  0.4739
  797TIP3   OH2 2354   0.195   4.223   4.811  0.0237 -0.1732 -0.0073
  797TIP3    H1 2355   0.103   4.210   4.789 -0.2327 -1.1537  1.4642
  797TIP3    H2 2356   0.202   4.318   4.826 -0.6898 -0.0544 -0.3630
  798TIP3   OH2 2357   2.763   5.614   1.169  0.2282  0.1941  0.2969
  798TIP3    H1 2358   2.826   5.542   1.166 -1.4178 -1.2573 -1.7990
  798TIP3    H2 2359   2.698   5.587   1.233 -1.6713 -1.4673 -2.1331
  799TIP3   OH2 2360   4.702   4.944   5.465  0.5993 -0.0059  0.4584
  799TIP3    H1 2361   4.713   4.987   5.380 -2.0103 -0.9026 -0.4003
  799TIP3    H2 2362   4.635   4.996   5.510  0.2537 -0.8929  0.9981
  800TIP3   OH2 2363   0.289   3.964   3.811 -0.4589  0.0266  0.0621
  800TIP3    H1 2364   0.345   3.971   3.888  1.8657 -0.6736 -1.4704
  800TIP3    H2 2365   0.297   4.049   3.767 -2.4199  0.7222  0.9266
  801TIP3   OH2 2366   0.570   5.910   3.815 -0.1489 -0.3358 -0.0409
  801TIP3    H1 2367   0.570   5.833   3.872 -0.1987  0.4966  1.1206
  801TIP3    H2 2368   0.478   5.924   3.794 -0.5983  1.4338  2.6476
  802TIP3   OH2 2369   3.839   5.039   4.514 -0.1039  0.3780  0.0810
  802TIP3    H1 2370   3.780   5.115   4.509 -1.3194 -0.5954 -3.0818
  802TIP3    H2 2371   3.810   4.982   4.442  3.7415 -0.9017 -0.6796
  803TIP3   OH2 2372   4.203   3.090   0.578 -0.1457  0.2487 -0.1958
  803TIP3    H1 2373   4.183   3.116   0.668 -1.6511 -0.6894 -0.2094
  803TIP3    H2 2374   4.118   3.061   0.543  0.2739  1.2585 -2.1492
  804TIP3   OH2 2375   5.671   2.780   2.501  0.5505 -0.4385 -0.1534
  804TIP3    H1 2376   5.758   2.766   2.537  0.2456  0.7423  1.1037
  804TIP3    H2 2377   5.620   2.705   2.531  0.5592  0.0279  1.0550
  805TIP3   OH2 2378   1.293   4.394   4.874  0.5690 -0.4207  0.5283
  805TIP3    H1 2379   1.319   4.312   4.833  1.5224 -0.7220  1.6624
  805TIP3    H2 2380   1.211   4.374   4.918  0.3687 -0.5342  0.1023
  806TIP3   OH2 2381   6.250   5.782   4.832 -0.1543 -0.1720  0.3865
  806TIP3    H1 2382   6.340   5.758   4.809  0.2155 -0.2723  1.8297
  806TIP3    H2 2383   6.219   5.710   4.887 -0.2251  0.9913  1.9419
  807TIP3   OH2 2384   3.246   5.874   0.166 -0.1450  0.2958  0.0759
  807TIP3    H1 2385   3.295   5.805   0.121  1.1801  0.4516  1.2259
  807TIP3    H2 2386   3.205   5.830   0.240  0.0505  0.5818  0.3565
  808TIP3   OH2 2387   1.888   2.490   2.100  0.7127 -0.4552 -0.3353
  808TIP3    H1 2388   1.875   2.417   2.039 -0.2186 -0.4889 -0.1144
  808TIP3    H2 2389   1.857   2.567   2.052 -4.0335 -0.9490  1.3423
  809TIP3   OH2 2390   6.343   1.947   0.410 -0.0277  0.4926 -0.1852
  809TIP3    H1 2391   6.336   2.008   0.484 -0.6454 -0.0007  0.1737
  809TIP3    H2 2392   6.279   1.878   0.430  0.0552  0.1701 -1.0049
  810TIP3   OH2 2393   4.382   5.893   1.379  0.2757  0.3359 -0.0865
  810TIP3    H1 2394   4.422   5.958   1.321 -1.0259  0.4638 -0.8778
  810TIP3    H2 2395   4.338   5.832   1.320 -0.0886 -0.2113  0.7280
  811TIP3   OH2 2396   1.781   2.719   0.548 -0.3759 -0.1000 -0.6276
  811TIP3    H1 2397   1.859   2.722   0.493 -0.1403 -0.1738 -0.3024
  811TIP3    H2 2398   1.779   2.804   0.592 -1.0652  0.3103 -1.4241
  812TIP3   OH2 2399   4.792   3.389   3.599  0.6162  0.2718  0.2554
  812TIP3    H1 2400   4.814   3.414   3.509 -0.0427  0.6025  0.1770
  812TIP3    H2 2401   4.876   3.366   3.639  0.6838 -2.4261 -1.1930
  813TIP3   OH2 2402   2.509   5.259   4.368  0.1398  0.0263 -0.0531
  813TIP3    H1 2403   2.586   5.270   4.425 -0.1560  1.3613  0.1305
  813TIP3    H2 2404   2.435   5.257   4.429 -0.0838  0.1811 -0.3210
  814TIP3   OH2 2405   2.803   2.247   1.333 -0.1299  0.5597 -0.0435
  814TIP3    H1 2406   2.863   2.174   1.315 -1.4196 -0.7126  0.5645
  814TIP3    H2 2407   2.717   2.215   1.303 -0.9607  1.2876  1.4454
  815TIP3   OH2 2408   4.299   0.931   4.189  0.3306 -0.6184  0.3646
  815TIP3    H1 2409   4.365   0.978   4.138  0.5148 -2.1391 -0.8773
  815TIP3    H2 2410   4.215   0.959   4.152  0.3625 -0.2548  0.5568
  816TIP3   OH2 2411   2.515   2.498   3.839 -0.3788  0.2638 -0.2024
  816TIP3    H1 2412   2.541   2.455   3.921  0.3243  0.0110 -0.5485
  816TIP3    H2 2413   2.598   2.528   3.801 -0.6021 -0.4558 -1.2846
  817TIP3   OH2 2414   2.713   5.956   0.524  0.2836  0.0158 -0.1235
  817TIP3    H1 2415   2.707   5.905   0.443  2.4821 -0.0447 -0.3071
  817TIP3    H2 2416   2.763   5.901   0.584 -0.7386  0.3464  1.0559
  818TIP3   OH2 2417   4.259   5.710   5.905 -0.0812  0.6782  0.5133
  818TIP3    H1 2418   4.284   5.802   5.910  2.6772  0.1434 -1.0934
  818TIP3    H2 2419   4.311   5.675   5.833 -1.1370 -2.1352  0.9804
  819TIP3   OH2 2420   7.125   2.754   3.777 -0.5195  0.1951 -0.2851
  819TIP3    H1 2421   7.050   2.771   3.721 -0.1069  1.1629 -0.5649
  819TIP3    H2 2422   7.090   2.760   3.866 -0.7852  0.6330 -0.4132
  820TIP3   OH2 2423   0.376   4.488   4.226 -0.4999 -0.0127 -0.9739
  820TIP3    H1 2424   0.399   4.529   4.309 -0.5580  2.8764 -2.2822
  820TIP3    H2 2425   0.284   4.461   4.238 -1.4732  2.9657 -0.9361
  821TIP3   OH2 2426   2.688   3.992   0.016  0.2165  0.3192 -0.1973
  821TIP3    H1 2427   2.606   4.039   0.033 -0.5987 -1.0060 -0.4007
  821TIP3    H2 2428   2.662   3.901   0.003  1.4670  0.2030 -2.3829
  822TIP3   OH2 2429   1.893   2.619   0.169 -0.6698  0.7646 -0.5173
  822TIP3    H1 2430   1.902   2.711   0.191 -0.4537  0.3127  1.4366
  822TIP3    H2 2431   1.941   2.609   0.086  1.1382  1.9994  0.3179
  823TIP3   OH2 2432   6.353   0.257   5.068  0.3952 -0.0641  0.4635
  823TIP3    H1 2433   6.346   0.163   5.053 -1.2927  0.2881 -1.5309
  823TIP3    H2 2434   6.291   0.275   5.138 -2.0860 -0.0551 -1.5826
  824TIP3   OH2 2435   6.420   3.385   3.677 -0.2153 -0.0436  0.1733
  824TIP3    H1 2436   6.358   3.437   3.729 -1.2339 -0.0370 -0.9910
  824TIP3    H2 2437   6.469   3.449   3.626  0.5025 -0.0727  0.8183
  825TIP3   OH2 2438   0.161   5.644   2.424 -0.1065 -0.1439 -0.2572
  825TIP3    H1 2439   0.135   5.714   2.484  0.6319 -1.2706  1.4457
  825TIP3    H2 2440   0.171   5.687   2.339  0.8106  1.9112  0.8324
  826TIP3   OH2 2441   0.657   2.147   4.490  0.6771 -0.0456  0.6568
  826TIP3    H1 2442   0.694   2.185   4.411  1.3826 -1.4294  0.2838
  826TIP3    H2 2443   0.563   2.160   4.482  0.8342  0.8835  0.1808
  827TIP3   OH2 2444   0.666   5.069   0.126 -0.7546  0.2301 -0.6673
  827TIP3    H1 2445   0.647   5.010   0.052 -1.3145 -2.5979  1.5459
  827TIP3    H2 2446   0.760   5.087   0.118 -0.0638 -2.6881 -0.4055
  828TIP3   OH2 2447   4.039   2.009   3.456 -0.2742 -0.2897 -0.4647
  828TIP3    H1 2448   4.126   2.013   3.417 -0.7438 -1.7220 -1.7954
  828TIP3    H2 2449   4.054   1.970   3.542  0.3980 -0.7171 -0.7594
  829TIP3   OH2 2450   3.287   0.724   0.272  0.0038 -0.2016  0.0434
  829TIP3    H1 2451   3.213   0.782   0.255  0.5435  0.5041  0.0522
  829TIP3    H2 2452   3.248   0.649   0.318 -0.7660 -0.0479 -0.3396
  830TIP3   OH2 2453   5.987   1.894   0.380 -0.2611  0.3546  0.2307
  830TIP3    H1 2454   6.015   1.804   0.361 -1.0365  0.4209 -1.4297
  830TIP3    H2 2455   5.973   1.895   0.475  0.6851 -1.0013  0.4090
  831TIP3   OH2 2456   0.632   6.459   5.731 -0.5600  0.2958 -0.0268
  831TIP3    H1 2457   0.551   6.474   5.779 -0.5740 -1.1255  0.4184
  831TIP3    H2 2458   0.612   6.389   5.670 -0.1651  1.1750 -1.2117
  832TIP3   OH2 2459   1.814   0.656   0.572 -0.3285 -0.0630  0.3902
  832TIP3    H1 2460   1.846   0.696   0.652  1.0634 -0.0166 -0.1753
  832TIP3    H2 2461   1.789   0.567   0.598 -0.4631  0.1433  0.9825
  833TIP3   OH2 2462   6.243   4.549   0.031 -0.1756 -0.1432  0.0104
  833TIP3    H1 2463   6.270   4.637   0.005  0.8932 -0.2441  0.7008
  833TIP3    H2 2464   6.320   4.494   0.015  0.7257 -0.1633  3.5077
  834TIP3   OH2 2465   0.783   1.122   0.332 -0.0912  0.7133  0.3297
  834TIP3    H1 2466   0.831   1.073   0.398 -0.0149 -0.3427 -0.4690
  834TIP3    H2 2467   0.845   1.188   0.300 -0.0959  1.1517  1.2043
  835TIP3   OH2 2468   4.872   4.054   5.128 -0.8922 -0.6940  0.6608
  835TIP3    H1 2469   4.881   3.973   5.177  0.6822 -1.3261 -0.5878
  835TIP3    H2 2470   4.895   4.031   5.038  3.8842  1.8445  0.8966
  836TIP3   OH2 2471   5.168   4.872   4.628  0.0186  0.1650 -0.3214
  836TIP3    H1 2472   5.107   4.816   4.676  0.8631 -0.2757  0.2760
  836TIP3    H2 2473   5.191   4.821   4.550  1.8880 -1.0342  0.9111
  837TIP3   OH2 2474   6.068   2.803   3.383 -0.1275 -0.3752  0.6099
  837TIP3    H1 2475   5.979   2.834   3.363 -0.2177 -0.3314  1.0700
  837TIP3    H2 2476   6.118   2.882   3.401 -0.2832 -0.4751  1.4886
  838TIP3   OH2 2477   4.129   1.532   4.697  0.7852  0.0078 -0.1075
  838TIP3    H1 2478   4.146   1.442   4.725  0.9905  0.5579  1.6206
  838TIP3    H2 2479   4.054   1.525   4.639  0.1742 -1.1749  0.7828
  839TIP3   OH2 2480   2.118   4.038   0.600 -0.5068  0.0241  0.1993
  839TIP3    H1 2481   2.170   3.993   0.534  3.1417  4.1137 -0.1657
  839TIP3    H2 2482   2.035   4.057   0.555 -0.7967 -2.9571 -0.7521
  840TIP3   OH2 2483   0.613   5.660   0.897 -0.8729  0.6839 -0.1170
  840TIP3    H1 2484   0.699   5.634   0.864 -0.4595  3.8074 -1.9208
  840TIP3    H2 2485   0.552   5.635   0.827 -1.7442 -2.4278  1.5651
  841TIP3   OH2 2486   2.767   0.765   3.047 -0.3790 -0.9012 -0.2516
  841TIP3    H1 2487   2.803   0.796   2.964  0.0273 -2.0667 -0.5229
  841TIP3    H2 2488   2.795   0.674   3.053  0.3286 -0.6160  1.5666
  842TIP3   OH2 2489   1.606   1.925   4.035 -0.4420  0.5521 -0.0528
  842TIP3    H1 2490   1.662   1.909   3.959 -0.6054 -0.4728  0.0276
  842TIP3    H2 2491   1.644   1.871   4.105 -1.1927  0.2872  0.1590
  843TIP3   OH2 2492   1.964   6.590   2.428  0.0129 -0.1371 -0.3461
  843TIP3    H1 2493   1.981   6.646   2.503  0.1334 -1.6583  0.8071
  843TIP3    H2 2494   1.917   6.646   2.366  0.3017  1.2695  0.6608
  844TIP3   OH2 2495   6.039   0.308   2.603  0.5701  0.1118  0.1428
  844TIP3    H1 2496   5.951   0.288   2.636 -1.0013  1.8216 -2.5985
  844TIP3    H2 2497   6.032   0.396   2.567  2.5546 -0.7480 -2.7708
  845TIP3   OH2 2498   1.321   6.126   4.307  0.0611  0.0791 -0.5507
  845TIP3    H1 2499   1.259   6.163   4.370  0.2338  1.6196 -1.2658
  845TIP3    H2 2500   1.277   6.131   4.223  0.8152  0.3760 -0.9360
  846TIP3   OH2 2501   3.046   4.997   3.661  0.2640 -0.2423 -0.9927
  846TIP3    H1 2502   3.046   5.086   3.698  2.1553 -0.2787 -0.8145
  846TIP3    H2 2503   3.012   5.008   3.572 -2.2012  0.1916 -0.0857
  847TIP3   OH2 2504   6.837   0.809   2.774 -0.2193 -0.6145 -0.4970
  847TIP3    H1 2505   6.827   0.741   2.841 -0.3182  0.1251  0.2471
  847TIP3    H2 2506   6.932   0.815   2.762 -0.2505 -2.3919 -2.1583
  848TIP3   OH2 2507   1.114   5.570   0.564 -0.3903  0.0059  0.0144
  848TIP3    H1 2508   1.019   5.577   0.553 -0.5222  0.5001  1.2651
  848TIP3    H2 2509   1.140   5.655   0.601  0.7989  0.4944 -1.7763
  849TIP3   OH2 2510   0.830   1.172   4.009 -0.0192  0.1315 -0.0704
  849TIP3    H1 2511   0.806   1.126   3.929  0.7682  1.1048 -0.8938
  849TIP3    H2 2512   0.889   1.241   3.980  0.9433 -0.0014  1.4467
  850TIP3   OH2 2513   4.822   1.573   2.153  0.1980  0.5058  0.1411
  850TIP3    H1 2514   4.731   1.543   2.159 -0.9098  3.2597 -1.2549
  850TIP3    H2 2515   4.863   1.514   2.091 -1.1245  0.2039 -0.4763
  851TIP3   OH2 2516   4.707   3.498   2.033 -0.2224  0.6846  0.5891
  851TIP3    H1 2517   4.738   3.508   2.123  0.5747  0.2719  0.3695
  851TIP3    H2 2518   4.780   3.526   1.979 -0.2209 -0.2930  0.0524
  852TIP3   OH2 2519   0.166   5.629   2.860 -0.3805 -0.5302  0.5862
  852TIP3    H1 2520   0.142   5.676   2.780 -1.1042 -3.5019 -1.0980
  852TIP3    H2 2521   0.086   5.583   2.886  0.1436 -0.4974  2.4003
  853TIP3   OH2 2522   6.230   0.397   1.168 -0.3472 -0.6382  0.0130
  853TIP3    H1 2523   6.311   0.448   1.181 -0.3898 -0.5099 -0.2167
  853TIP3    H2 2524   6.201   0.377   1.257 -1.0342  0.8647  0.1652
  854TIP3   OH2 2525   1.010   2.732   2.863  0.4817  0.2843 -0.1881
  854TIP3    H1 2526   1.077   2.732   2.931  0.0566  1.6074  0.2642
  854TIP3    H2 2527   1.032   2.807   2.808 -0.6686  0.8086  0.0370
  855TIP3   OH2 2528   4.195   6.183   2.313  1.1157  0.1344 -0.1697
  855TIP3    H1 2529   4.167   6.163   2.402 -1.5627  0.4461 -0.8670
  855TIP3    H2 2530   4.231   6.100   2.281 -0.0248 -0.6282  0.4522
  856TIP3   OH2 2531   5.426   3.762   4.313  0.1877  0.5993 -0.2223
  856TIP3    H1 2532   5.390   3.673   4.305  0.6782  0.5261 -2.3188
  856TIP3    H2 2533   5.407   3.788   4.403  0.2631 -1.7307  0.5303
  857TIP3   OH2 2534   6.525   6.356   0.950  0.4250  0.0169  0.1537
  857TIP3    H1 2535   6.571   6.362   0.867 -1.0809 -0.6305 -0.7724
  857TIP3    H2 2536   6.525   6.262   0.971  1.1423  0.2149  1.1081
  858TIP3   OH2 2537   1.346   3.116   1.578 -0.0467  1.0363 -0.2263
  858TIP3    H1 2538   1.264   3.068   1.589  0.5718 -0.2986 -1.1266
  858TIP3    H2 2539   1.354   3.131   1.484  1.3577 -0.0492 -0.3203
  859TIP3   OH2 2540   2.548   5.066   1.836  0.0143  0.4351 -0.1385
  859TIP3    H1 2541   2.602   4.989   1.819 -1.6938 -0.2511 -3.2050
  859TIP3    H2 2542   2.480   5.035   1.896 -0.2477 -0.2944 -0.7920
  860TIP3   OH2 2543   2.494   0.755   3.570  0.3602 -0.2330 -0.2703
  860TIP3    H1 2544   2.534   0.762   3.483  1.4786 -1.2282  0.1318
  860TIP3    H2 2545   2.419   0.697   3.558  1.4767 -1.7420 -0.3105
  861TIP3   OH2 2546   0.484   0.448   0.241 -0.7584 -0.0190  0.4255
  861TIP3    H1 2547   0.533   0.486   0.168 -0.9260  0.6265  0.6472
  861TIP3    H2 2548   0.403   0.417   0.200 -0.5494 -0.3080  0.2164
  862TIP3   OH2 2549   2.330   3.730   1.613 -0.2629 -0.2140 -0.0772
  862TIP3    H1 2550   2.371   3.653   1.574  0.6266  0.0488  0.3105
  862TIP3    H2 2551   2.251   3.745   1.561 -1.0297 -2.0119  0.4979
  863TIP3   OH2 2552   4.763   5.378   4.840 -0.2490  0.5729  0.1313
  863TIP3    H1 2553   4.818   5.302   4.857  1.9248  2.2965  1.2827
  863TIP3    H2 2554   4.679   5.356   4.882  1.0127 -0.3585  2.3159
  864TIP3   OH2 2555   0.843   2.930   3.531  0.3233 -0.4138 -0.0144
  864TIP3    H1 2556   0.892   2.983   3.468 -0.4199 -2.3085 -2.3004
  864TIP3    H2 2557   0.760   2.977   3.542  0.6604  0.1947 -0.0088
  865TIP3   OH2 2558   0.758   0.626   4.762 -0.2572 -0.1152  0.6489
  865TIP3    H1 2559   0.740   0.551   4.706  1.0417  0.2037 -0.2437
  865TIP3    H2 2560   0.814   0.683   4.709 -0.5829  1.1217  1.5778
  866TIP3   OH2 2561   4.299   4.360   4.429 -0.3569 -0.5069  0.0865
  866TIP3    H1 2562   4.290   4.455   4.420  0.8781 -0.4310 -0.4970
  866TIP3    H2 2563   4.378   4.348   4.482 -0.0664 -1.2213 -0.4892
  867TIP3   OH2 2564   0.588   1.823   3.210 -0.2565  0.3692  0.3181
  867TIP3    H1 2565   0.514   1.858   3.260 -0.5206  0.3251 -0.0337
  867TIP3    H2 2566   0.584   1.870   3.127 -0.2859 -0.1048  0.0502
  868TIP3   OH2 2567   0.831   6.002   1.739  0.4726 -0.3062  0.4777
  868TIP3    H1 2568   0.762   5.950   1.697  0.5939 -0.1215  0.0376
  868TIP3    H2 2569   0.907   5.992   1.681  1.1808 -1.4438  1.5528
  869TIP3   OH2 2570   5.913   6.596   5.314 -0.8257  0.1954  0.4159
  869TIP3    H1 2571   5.862   6.677   5.314 -1.9895 -0.4967 -0.8901
  869TIP3    H2 2572   5.933   6.580   5.222  1.8665  0.4671  0.8871
  870TIP3   OH2 2573   4.876   3.929   4.350  0.0000  1.1860 -1.3830
  870TIP3    H1 2574   4.969   3.951   4.349  0.9651 -2.2630  0.1391
  870TIP3    H2 2575   4.862   3.878   4.270  0.4587 -1.5460  0.1575
  871TIP3   OH2 2576   4.391   4.577   3.254  0.2988 -0.2944  0.3546
  871TIP3    H1 2577   4.314   4.595   3.308  1.4439  1.7447  1.4254
  871TIP3    H2 2578   4.361   4.593   3.164 -0.0107  2.9641  0.8984
  872TIP3   OH2 2579   4.746   6.553   3.410 -0.2113 -0.1870  0.4686
  872TIP3    H1 2580   4.775   6.619   3.475 -1.1965 -0.2666  1.0078
  872TIP3    H2 2581   4.760   6.596   3.326  1.2455 -0.1352  0.6960
  873TIP3   OH2 2582   1.731   1.380   2.269 -0.3060  0.3227 -0.2226
  873TIP3    H1 2583   1.708   1.337   2.351 -0.9805 -0.3184 -0.7382
  873TIP3    H2 2584   1.674   1.340   2.204  0.5803  0.4545 -1.0991
  874TIP3   OH2 2585   5.370   4.316   3.625 -0.0673  0.6836  0.1785
  874TIP3    H1 2586   5.297   4.255   3.629 -0.4433  1.0843 -0.4124
  874TIP3    H2 2587   5.330   4.402   3.640  0.1654  0.9882 -0.8733
  875TIP3   OH2 2588   4.334   3.752   5.698 -0.0269 -0.3053  0.7047
  875TIP3    H1 2589   4.306   3.767   5.789  1.0762 -1.0788  1.1956
  875TIP3    H2 2590   4.430   3.748   5.703 -0.0100 -2.1566 -0.2030
  876TIP3   OH2 2591   0.721   6.589   4.535  0.0861 -0.4391  0.2720
  876TIP3    H1 2592   0.712   6.664   4.594 -1.6111  0.8662 -1.5166
  876TIP3    H2 2593   0.815   6.583   4.518  0.3204  0.9020  0.9415
  877TIP3   OH2 2594   2.926   3.240   0.097 -0.3741  0.0255  0.4280
  877TIP3    H1 2595   2.837   3.208   0.112  0.3361 -1.8558  0.9877
  877TIP3    H2 2596   2.918   3.303   0.025 -2.4557  1.6528  1.9619
  878TIP3   OH2 2597   6.447   0.649   3.315  0.6528  0.1637 -0.4787
  878TIP3    H1 2598   6.372   0.695   3.352  1.2362  1.3829 -0.7690
  878TIP3    H2 2599   6.493   0.715   3.263  0.2835 -1.2986 -2.7885
  879TIP3   OH2 2600   6.749   5.040   5.204  0.7503  0.2552 -0.5091
  879TIP3    H1 2601   6.678   4.987   5.167  1.6891 -1.5287  0.1454
  879TIP3    H2 2602   6.816   5.040   5.135 -0.0826  2.5331 -1.4210
  880TIP3   OH2 2603   5.677   4.300   0.410  0.2630 -0.3067 -0.7460
  880TIP3    H1 2604   5.773   4.305   0.413  0.2183  0.0868  1.0499
  880TIP3    H2 2605   5.653   4.255   0.491 -1.0725 -0.6235 -1.2950
  881TIP3   OH2 2606   5.553   4.208   4.958 -0.3225 -0.4683 -0.1588
  881TIP3    H1 2607   5.549   4.140   5.025 -0.6182  0.1414  0.4492
  881TIP3    H2 2608   5.644   4.236   4.958 -0.3699 -0.3078  0.1578
  882TIP3   OH2 2609   1.919   5.251   3.219  0.7793  0.2564  0.3339
  882TIP3    H1 2610   1.982   5.308   3.175  0.3571  0.4615 -0.0101
  882TIP3    H2 2611   1.851   5.310   3.252 -0.0984 -0.1154 -0.7666
  883TIP3   OH2 2612   0.231   4.196   2.067 -0.0037  0.6405 -0.3940
  883TIP3    H1 2613   0.244   4.274   2.120  2.8284 -0.1375  0.2397
  883TIP3    H2 2614   0.304   4.139   2.090 -1.3038 -1.7344 -1.6951
  884TIP3   OH2 2615   1.105   0.139   3.421 -0.0157 -0.4599 -0.9024
  884TIP3    H1 2616   1.055   0.219   3.405 -0.8550 -0.6210  0.6914
  884TIP3    H2 2617   1.196   0.164   3.405 -0.2027  0.9775  0.0050
  885TIP3   OH2 2618   3.451   3.060   3.632  0.1025 -0.4340  0.8028
  885TIP3    H1 2619   3.424   3.088   3.720 -0.9286  0.8764  0.1226
  885TIP3    H2 2620   3.535   3.103   3.617  0.4940 -1.0175  1.3061
  886TIP3   OH2 2621   7.053   2.199   4.406 -0.0200 -0.3976 -0.1836
  886TIP3    H1 2622   6.988   2.138   4.440 -2.2021  1.6020 -0.5487
  886TIP3    H2 2623   7.037   2.203   4.312  0.9206 -0.1653 -0.3493
  887TIP3   OH2 2624   0.465   6.217   2.106 -0.1065 -0.0641 -0.1679
  887TIP3    H1 2625   0.490   6.158   2.034 -0.8786 -1.8725  0.9762
  887TIP3    H2 2626   0.546   6.231   2.154  0.0553 -0.3480 -0.3528
  888TIP3   OH2 2627   5.214   1.133   0.433 -0.3379 -0.5305 -0.5522
  888TIP3    H1 2628   5.259   1.054   0.462 -1.2876 -1.3577 -1.2990
  888TIP3    H2 2629   5.285   1.190   0.401  0.5651 -0.2570  1.7284
  889TIP3   OH2 2630   6.039   2.207   1.473  0.0631 -0.2486  0.0277
  889TIP3    H1 2631   6.037   2.218   1.568  1.5141  1.0790 -0.0461
  889TIP3    H2 2632   5.964   2.257   1.441  2.1484  3.3622  0.2588
  890TIP3   OH2 2633   3.669   4.114   1.203 -0.2603 -0.1786  0.2861
  890TIP3    H1 2634   3.602   4.148   1.144  0.6554  1.6384  0.2213
  890TIP3    H2 2635   3.710   4.043   1.154 -2.0972 -1.3362  0.3410
  891TIP3   OH2 2636   6.758   2.422   0.551 -0.0695 -0.8905 -0.0374
  891TIP3    H1 2637   6.760   2.436   0.456  0.2912  0.3435  0.1374
  891TIP3    H2 2638   6.833   2.366   0.568  0.2170 -0.6238 -0.4083
  892TIP3   OH2 2639   3.445   4.870   4.053  0.4413 -0.1982  0.2766
  892TIP3    H1 2640   3.496   4.947   4.028  0.1185 -0.2000 -0.4054
  892TIP3    H2 2641   3.404   4.840   3.972 -0.5707 -0.2417  0.7791
  893TIP3   OH2 2642   7.151   3.749   4.990 -0.7147  0.1866  0.4157
  893TIP3    H1 2643   7.056   3.738   4.992 -0.8371  1.0303 -0.0799
  893TIP3    H2 2644   7.182   3.684   4.927 -1.0470  0.3986  0.0256
  894TIP3   OH2 2645   3.584   5.472   3.816 -0.0199 -0.2100  0.3204
  894TIP3    H1 2646   3.672   5.443   3.841  0.7489  0.1292 -1.7907
  894TIP3    H2 2647   3.575   5.558   3.856 -0.1423 -0.9750  2.0368
  895TIP3   OH2 2648   4.298   1.437   5.032  0.1453 -0.3217 -0.2498
  895TIP3    H1 2649   4.364   1.410   4.968 -0.1483 -0.2285 -0.5996
  895TIP3    H2 2650   4.326   1.398   5.114  0.1295 -1.0593 -0.5909
  896TIP3   OH2 2651   2.086   3.768   3.267  0.1292  0.4790 -0.3201
  896TIP3    H1 2652   2.169   3.729   3.239 -0.6478 -1.1080 -0.5428
  896TIP3    H2 2653   2.112   3.841   3.323  1.6845 -1.0153  1.0306
  897TIP3   OH2 2654   3.104   0.493   0.129  0.4953 -0.2225 -0.2230
  897TIP3    H1 2655   3.123   0.481   0.036 -0.9755 -1.2526 -0.4248
  897TIP3    H2 2656   3.042   0.566   0.131 -0.6809 -1.1952 -0.2235
  898TIP3   OH2 2657   0.855   3.103   0.738 -0.0167  0.1707  0.0500
  898TIP3    H1 2658   0.879   3.071   0.651 -1.6588 -0.9630 -0.0313
  898TIP3    H2 2659   0.892   3.038   0.798  0.8430  0.7843  0.2020
  899TIP3   OH2 2660   2.156   6.463   1.166  0.2363 -0.4794 -0.1994
  899TIP3    H1 2661   2.234   6.439   1.116  1.2395  2.5882 -0.3634
  899TIP3    H2 2662   2.173   6.431   1.254  1.0424 -1.0649 -0.5571
  900TIP3   OH2 2663   3.137   1.456   2.136  0.2195  0.4608  0.7754
  900TIP3    H1 2664   3.146   1.533   2.192  3.4933 -0.0226  1.1379
  900TIP3    H2 2665   3.196   1.473   2.062 -0.1023 -1.0718  0.1342
  901TIP3   OH2 2666   5.108   1.200   4.818  0.1754  0.0898 -0.1260
  901TIP3    H1 2667   5.115   1.281   4.767 -0.7514 -1.2280 -2.5194
  901TIP3    H2 2668   5.162   1.137   4.770 -0.7707 -1.2360  0.4839
  902TIP3   OH2 2669   5.470   0.772   3.646  0.2301  0.0215 -0.5984
  902TIP3    H1 2670   5.485   0.859   3.608  1.8260  0.3152  0.5879
  902TIP3    H2 2671   5.556   0.746   3.679  0.0776 -2.5351 -1.9476
  903TIP3   OH2 2672   1.048   2.201   2.225 -0.0900  0.4757 -0.2851
  903TIP3    H1 2673   1.001   2.264   2.171 -1.4010  0.8107  1.1759
  903TIP3    H2 2674   1.128   2.184   2.177 -0.4738  1.9703 -1.5484
  904TIP3   OH2 2675   7.104   0.445   3.737 -0.9023  0.1713  0.0647
  904TIP3    H1 2676   7.011   0.462   3.725 -0.6602  1.8511  0.3576
  904TIP3    H2 2677   7.142   0.530   3.760  0.8699 -0.2409 -1.0466
  905TIP3   OH2 2678   2.625   6.495   3.655  0.2219  0.9389  0.5218
  905TIP3    H1 2679   2.615   6.424   3.718  1.3906 -0.3346 -0.6601
  905TIP3    H2 2680   2.536   6.528   3.641 -0.5284 -1.0549  0.2833
  906TIP3   OH2 2681   0.465   4.312   4.519 -0.5900  0.3008  0.1501
  906TIP3    H1 2682   0.520   4.238   4.493 -1.0181 -0.7534  1.9808
  906TIP3    H2 2683   0.482   4.322   4.613 -0.9686  2.1852  0.0452
  907TIP3   OH2 2684   3.766   3.379   1.689  0.8648  0.1560  0.2855
  907TIP3    H1 2685   3.687   3.332   1.716  1.0423  0.6743  1.8049
  907TIP3    H2 2686   3.768   3.371   1.594 -0.7161 -0.3425  0.2764
  908TIP3   OH2 2687   2.042   5.017   0.647  0.6723  0.2772  0.9172
  908TIP3    H1 2688   2.051   4.978   0.734 -0.5488 -0.7394  0.6225
  908TIP3    H2 2689   1.992   5.098   0.662  0.7748  0.2857  1.2068
  909TIP3   OH2 2690   2.706   1.642   2.717  0.1971  0.3985  0.7289
  909TIP3    H1 2691   2.704   1.702   2.791 -0.8671  2.8089 -1.0892
  909TIP3    H2 2692   2.746   1.693   2.646  0.6196 -1.5719 -0.5304
  910TIP3   OH2 2693   5.624   2.801   4.852 -0.2166 -0.3344  0.3183
  910TIP3    H1 2694   5.597   2.803   4.944  0.1177  0.7702  0.4126
  910TIP3    H2 2695   5.575   2.728   4.814 -2.0847  0.5826  0.8523
  911TIP3   OH2 2696   0.206   4.169   4.465  0.0479  0.2335 -0.7023
  911TIP3    H1 2697   0.298   4.194   4.471  0.7409 -2.0319 -0.6830
  911TIP3    H2 2698   0.164   4.213   4.539  0.7915  2.4026 -1.5114
  912TIP3   OH2 2699   3.475   6.108   5.521  0.6439  0.2021 -0.2624
  912TIP3    H1 2700   3.521   6.073   5.444  0.8118  0.6966 -0.3890
  912TIP3    H2 2701   3.539   6.099   5.592 -0.2517 -2.3133  0.3442
  913TIP3   OH2 2702   5.003   6.676   2.151  0.5002  0.0597 -0.8159
  913TIP3    H1 2703   4.912   6.699   2.136  0.6509  0.1992 -1.5713
  913TIP3    H2 2704   5.029   6.728   2.228 -0.2165 -0.4422 -0.2302
  914TIP3   OH2 2705   2.948   3.482   3.676 -0.2520 -0.2858 -0.8692
  914TIP3    H1 2706   3.000   3.401   3.679  0.3685  0.1395  1.3412
  914TIP3    H2 2707   3.009   3.548   3.644  0.3664  0.0276  0.8652
  915TIP3   OH2 2708   5.995   0.987   1.358  0.1737  0.3563 -0.3017
  915TIP3    H1 2709   5.971   0.970   1.267 -0.3292 -0.7548  0.0196
  915TIP3    H2 2710   5.916   0.967   1.408  0.2788  1.4773  0.3418
  916TIP3   OH2 2711   5.093   2.203   0.889 -0.2465  0.3591  0.4898
  916TIP3    H1 2712   5.123   2.206   0.980 -0.8293  2.0715  0.6585
  916TIP3    H2 2713   5.168   2.233   0.838 -0.9444  2.6550  0.7325
  917TIP3   OH2 2714   2.179   2.733   1.263 -0.3539 -0.3940 -0.2081
  917TIP3    H1 2715   2.095   2.692   1.286  0.0841 -2.4669 -1.9681
  917TIP3    H2 2716   2.236   2.659   1.241  2.1866  0.8986  1.5415
  918TIP3   OH2 2717   1.494   5.996   2.833  0.4617 -0.1165  0.2748
  918TIP3    H1 2718   1.427   6.052   2.792  0.9560  1.3679  1.3940
  918TIP3    H2 2719   1.465   5.907   2.815 -1.7549  0.4816  0.6007
  919TIP3   OH2 2720   6.444   0.299   1.917 -0.1040  0.4905 -0.6868
  919TIP3    H1 2721   6.361   0.260   1.889  1.0452 -2.0279 -0.8517
  919TIP3    H2 2722   6.483   0.233   1.973  1.3623  2.0624  0.2236
  920TIP3   OH2 2723   0.823   5.507   1.026  0.4624 -0.1327  0.3856
  920TIP3    H1 2724   0.843   5.593   1.064  0.2039 -0.1370  0.5336
  920TIP3    H2 2725   0.743   5.479   1.071  0.8748 -0.7229  0.7751
  921TIP3   OH2 2726   5.710   0.145   5.363 -0.2165 -0.5926 -0.1590
  921TIP3    H1 2727   5.730   0.062   5.321 -2.1264 -2.0798  1.6757
  921TIP3    H2 2728   5.743   0.136   5.452  0.1031  0.8797 -0.0967
  922TIP3   OH2 2729   0.147   2.569   0.861  0.4487 -0.3067 -0.5329
  922TIP3    H1 2730   0.163   2.516   0.939  2.0720 -0.7188 -1.1089
  922TIP3    H2 2731   0.196   2.525   0.792 -1.6686 -0.4742 -2.0278
  923TIP3   OH2 2732   1.055   2.688   0.447 -0.7153 -0.2729  0.3916
  923TIP3    H1 2733   1.042   2.612   0.389 -0.6867 -1.2181  1.5878
  923TIP3    H2 2734   1.133   2.666   0.497 -0.4748  0.7434  0.4636
  924TIP3   OH2 2735   1.145   0.703   4.397 -0.0529  0.3395 -0.2162
  924TIP3    H1 2736   1.131   0.633   4.333  2.7064 -0.3066 -0.2587
  924TIP3    H2 2737   1.123   0.783   4.349  1.6998 -0.1485 -2.0007
  925TIP3   OH2 2738   3.914   0.634   2.122 -0.3838  0.1546 -0.5064
  925TIP3    H1 2739   3.844   0.681   2.168 -1.1293  0.0541 -1.4955
  925TIP3    H2 2740   3.976   0.609   2.191 -1.1006  0.6320  0.3322
  926TIP3   OH2 2741   1.398   0.142   3.410  0.4398 -0.0790 -0.1886
  926TIP3    H1 2742   1.432   0.095   3.334  0.9684  0.3074 -0.1949
  926TIP3    H2 2743   1.422   0.087   3.485 -0.9084 -0.9421 -0.3540
  927TIP3   OH2 2744   4.787   0.276   0.438 -0.0922  0.1964  0.1670
  927TIP3    H1 2745   4.836   0.313   0.512  1.8061 -0.6789 -0.5663
  927TIP3    H2 2746   4.779   0.183   0.459  1.8021 -0.3826 -1.3110
  928TIP3   OH2 2747   7.070   2.992   1.577 -0.7386  0.3827 -0.3564
  928TIP3    H1 2748   7.112   2.971   1.493 -0.0406 -1.4939  0.4289
  928TIP3    H2 2749   7.118   3.068   1.609  0.6638 -0.4001 -0.5091
  929TIP3   OH2 2750   1.270   6.664   5.246 -0.1821 -0.2661  0.1441
  929TIP3    H1 2751   1.267   6.611   5.326  0.2953 -0.0630  0.2972
  929TIP3    H2 2752   1.301   6.604   5.179 -1.6207 -0.7396 -0.1422
  930TIP3   OH2 2753   6.366   1.048   3.594  0.4704  0.0260  0.0938
  930TIP3    H1 2754   6.324   1.124   3.634 -0.0250 -0.2928  0.1873
  930TIP3    H2 2755   6.320   0.973   3.631  1.1177 -0.3261  0.1831
  931TIP3   OH2 2756   1.061   6.109   5.321  0.1802  0.2914  0.4652
  931TIP3    H1 2757   0.996   6.106   5.250 -0.0214 -0.2744  0.6734
  931TIP3    H2 2758   1.095   6.020   5.327 -0.5373  0.0865  1.7555
  932TIP3   OH2 2759   6.781   3.929   2.583  0.3101  0.1388 -0.8600
  932TIP3    H1 2760   6.745   4.013   2.555 -0.3254 -0.3004 -1.3956
  932TIP3    H2 2761   6.726   3.864   2.540  1.4256 -0.5553 -1.2805
  933TIP3   OH2 2762   0.766   1.107   5.217  0.3396  0.1343  0.1358
  933TIP3    H1 2763   0.726   1.194   5.219  4.1606  2.1138 -0.7750
  933TIP3    H2 2764   0.766   1.082   5.125  0.5984 -0.1610  0.2135
  934TIP3   OH2 2765   2.901   1.524   2.432 -0.1846 -0.3722 -0.2418
  934TIP3    H1 2766   2.882   1.618   2.438  0.4639 -0.2937  0.8160
  934TIP3    H2 2767   2.848   1.494   2.359 -0.4747  0.8045 -0.5381
  935TIP3   OH2 2768   4.560   4.927   3.245 -0.0362  0.2041  0.1304
  935TIP3    H1 2769   4.593   4.837   3.249 -0.3590  0.1199  1.3645
  935TIP3    H2 2770   4.605   4.966   3.170 -1.1479 -1.4656 -1.4828
  936TIP3   OH2 2771   4.687   1.465   1.168  0.3212 -0.1830 -0.5787
  936TIP3    H1 2772   4.741   1.498   1.240 -0.5183  0.3291 -0.1697
  936TIP3    H2 2773   4.736   1.390   1.134 -0.1145 -1.5653  1.6905
  937TIP3   OH2 2774   3.679   4.241   2.207  0.2676 -0.0226 -0.1258
  937TIP3    H1 2775   3.693   4.196   2.290 -1.2819 -1.5394 -0.6382
  937TIP3    H2 2776   3.604   4.197   2.168 -0.1136  1.7952 -1.5554
  938TIP3   OH2 2777   4.959   3.075   4.633  0.1838 -0.2443  0.0344
  938TIP3    H1 2778   5.005   3.152   4.600  0.4860 -0.5331 -0.2173
  938TIP3    H2 2779   5.028   3.013   4.657 -0.0622 -0.9675 -1.0394
  939TIP3   OH2 2780   0.850   0.294   3.705 -0.1487 -0.3015 -0.3032
  939TIP3    H1 2781   0.812   0.247   3.779  0.6647  0.7473  0.8184
  939TIP3    H2 2782   0.878   0.225   3.645 -0.4923 -1.1897  0.5196
  940TIP3   OH2 2783   1.590   3.764   5.584  0.0729 -0.1427  0.1889
  940TIP3    H1 2784   1.541   3.830   5.535 -1.4380  0.2940  2.1809
  940TIP3    H2 2785   1.679   3.798   5.588 -0.4173  1.1832  0.1398
  941TIP3   OH2 2786   2.450   2.610   5.592  0.4588 -0.0836 -0.0955
  941TIP3    H1 2787   2.495   2.658   5.522 -1.1805 -1.6000 -2.3006
  941TIP3    H2 2788   2.393   2.548   5.547 -1.1659 -0.7295  2.6037
  942TIP3   OH2 2789   4.304   5.223   2.069 -0.0220 -0.0898  0.4740
  942TIP3    H1 2790   4.209   5.237   2.068  0.1158  0.9522  0.7451
  942TIP3    H2 2791   4.340   5.306   2.100  0.9892 -0.4375  0.2678
  943TIP3   OH2 2792   3.603   4.598   2.006 -0.1355  0.2208  0.4745
  943TIP3    H1 2793   3.636   4.523   1.956 -0.3471  0.2528  0.2823
  943TIP3    H2 2794   3.560   4.652   1.940  0.6567  0.8814  0.4876
  944TIP3   OH2 2795   0.393   3.617   0.230 -0.5726 -0.1523  0.2433
  944TIP3    H1 2796   0.453   3.622   0.305 -1.1400  2.7393  0.6385
  944TIP3    H2 2797   0.306   3.621   0.270 -1.0201 -1.9334 -0.4611
  945TIP3   OH2 2798   5.034   4.613   4.543  0.3539  0.0022 -0.2463
  945TIP3    H1 2799   4.952   4.643   4.583 -1.0631 -0.7467 -2.4033
  945TIP3    H2 2800   5.041   4.522   4.571  2.3817  0.9192  2.7527
  946TIP3   OH2 2801   5.183   1.011   2.210  0.2617  0.1739  0.0962
  946TIP3    H1 2802   5.275   0.984   2.206  0.5014  1.0431 -0.5921
  946TIP3    H2 2803   5.174   1.051   2.296  0.3827 -0.3745  0.3732
  947TIP3   OH2 2804   6.012   1.004   3.713 -0.1988 -0.1405 -0.2439
  947TIP3    H1 2805   6.035   0.969   3.627  0.2075 -1.3033  0.3135
  947TIP3    H2 2806   5.960   1.082   3.695  0.2971 -0.0955 -1.5399
  948TIP3   OH2 2807   0.136   2.491   3.979  0.1418  0.3120  0.2532
  948TIP3    H1 2808   0.100   2.559   4.035 -0.3456  1.3921 -1.3032
  948TIP3    H2 2809   0.065   2.428   3.969 -0.3529  0.9540 -0.4343
  949TIP3   OH2 2810   4.153   5.793   2.501 -0.7387  0.1453 -0.2722
  949TIP3    H1 2811   4.109   5.745   2.571 -0.7489  0.7198  0.1218
  949TIP3    H2 2812   4.083   5.832   2.449 -0.7083  1.4295  0.6166
  950TIP3   OH2 2813   3.086   4.895   3.326 -0.1839  0.0360 -0.3984
  950TIP3    H1 2814   3.082   4.871   3.234  0.5552  2.1106 -1.0177
  950TIP3    H2 2815   2.997   4.925   3.347 -0.1291  0.3747 -0.6610
  951TIP3   OH2 2816   3.457   1.929   0.213  0.3714  0.4980  0.7064
  951TIP3    H1 2817   3.397   1.920   0.287  0.3334  0.5866  0.6861
  951TIP3    H2 2818   3.401   1.925   0.136  0.4397  0.1472  0.6738
  952TIP3   OH2 2819   4.324   3.745   4.953 -0.5702  0.4115  0.0620
  952TIP3    H1 2820   4.244   3.790   4.979 -0.8551  0.3300 -0.6430
  952TIP3    H2 2821   4.385   3.816   4.932 -0.0019  0.4961  1.8581
  953TIP3   OH2 2822   1.961   5.991   1.107  0.1380 -0.0581  0.4433
  953TIP3    H1 2823   1.922   5.935   1.040 -0.2133  0.2077  0.4190
  953TIP3    H2 2824   2.044   6.020   1.069 -0.8441  1.5277 -0.6588
  954TIP3   OH2 2825   4.045   2.043   5.888  0.4642 -0.6827 -0.0721
  954TIP3    H1 2826   4.047   2.122   5.942 -1.1789 -1.3686  1.0790
  954TIP3    H2 2827   4.072   2.072   5.801  0.5634  0.9850  0.4764
  955TIP3   OH2 2828   3.001   5.019   2.075 -0.1124  0.1058  0.0258
  955TIP3    H1 2829   2.958   4.946   2.121 -0.1092 -0.2735 -0.5596
  955TIP3    H2 2830   3.094   5.007   2.094 -0.2179  0.7378  1.0247
  956TIP3   OH2 2831   6.013   6.238   3.980  0.3342 -0.3056  0.0603
  956TIP3    H1 2832   5.976   6.267   4.063 -0.6211 -0.9670 -0.1228
  956TIP3    H2 2833   6.028   6.144   3.992  0.7637 -0.2907 -0.3091
  957TIP3   OH2 2834   2.199   3.964   0.325 -0.4135 -0.0491 -0.1134
  957TIP3    H1 2835   2.263   3.915   0.274 -0.4754  0.8198 -1.0630
  957TIP3    H2 2836   2.198   4.051   0.284  0.0845  0.9321  1.8395
  958TIP3   OH2 2837   3.024   3.628   1.180 -0.3865 -0.0190  0.7829
  958TIP3    H1 2838   3.007   3.614   1.273  0.6235  0.1695  1.0081
  958TIP3    H2 2839   3.110   3.670   1.177  0.6775 -2.1305 -0.3432
  959TIP3   OH2 2840   0.157   5.025   5.115 -0.2625 -0.3476  0.3358
  959TIP3    H1 2841   0.179   5.111   5.079  1.0152 -0.6589  0.3068
  959TIP3    H2 2842   0.189   5.028   5.205  1.0031 -1.2200 -0.0599
  960TIP3   OH2 2843   2.377   2.662   2.260  0.1778  0.0646 -0.6807
  960TIP3    H1 2844   2.284   2.682   2.249 -0.1326 -1.5769 -1.3408
  960TIP3    H2 2845   2.390   2.658   2.355 -0.2521  0.9323 -0.5713
  961TIP3   OH2 2846   0.187   5.819   1.536  0.0874 -0.2578 -0.2341
  961TIP3    H1 2847   0.185   5.913   1.523 -1.5826 -0.0774  0.9697
  961TIP3    H2 2848   0.124   5.785   1.472 -0.1280 -0.4388  0.0707
  962TIP3   OH2 2849   2.240   5.793   0.216  0.6894  0.0757 -0.2329
  962TIP3    H1 2850   2.194   5.724   0.263 -1.1764  1.1885 -0.3285
  962TIP3    H2 2851   2.319   5.750   0.182  0.1799 -1.6905  0.6772
  963TIP3   OH2 2852   2.534   3.241   4.874 -0.1758 -0.2210 -0.0768
  963TIP3    H1 2853   2.528   3.289   4.791 -1.2140  0.3216  0.2963
  963TIP3    H2 2854   2.628   3.221   4.883  0.1011  0.6343 -0.8575
  964TIP3   OH2 2855   5.618   3.905   3.222 -0.0223 -0.0307  0.0932
  964TIP3    H1 2856   5.580   3.891   3.309 -0.2676 -0.1789 -0.0360
  964TIP3    H2 2857   5.645   3.997   3.222 -0.9688  0.2535 -0.0389
  965TIP3   OH2 2858   4.800   4.812   1.742  0.2153  0.0180  0.3659
  965TIP3    H1 2859   4.792   4.720   1.718 -0.4515 -0.0202  0.7170
  965TIP3    H2 2860   4.894   4.826   1.752  0.3156 -0.6474  0.4038
  966TIP3   OH2 2861   0.517   3.906   3.472  0.2572 -0.0692 -0.0692
  966TIP3    H1 2862   0.479   3.873   3.554 -0.7182 -0.2539 -0.5738
  966TIP3    H2 2863   0.476   3.852   3.404  0.2700  0.7611 -0.7525
  967TIP3   OH2 2864   1.488   1.987   5.678  0.3023  0.2757 -0.3599
  967TIP3    H1 2865   1.491   2.081   5.660  0.6038  0.6988  1.6580
  967TIP3    H2 2866   1.571   1.968   5.720  1.2169 -1.4125 -2.6917
  968TIP3   OH2 2867   3.424   2.901   1.593 -0.0464 -0.5963 -0.7298
  968TIP3    H1 2868   3.435   2.996   1.599 -1.7002 -0.2552 -2.0989
  968TIP3    H2 2869   3.401   2.874   1.681 -1.2115  0.5610 -0.6455
  969TIP3   OH2 2870   0.915   2.646   4.568  0.0002 -0.0906  0.2905
  969TIP3    H1 2871   1.006   2.653   4.594 -0.2062 -0.6334  1.1880
  969TIP3    H2 2872   0.916   2.662   4.473  0.8045  1.4695  0.5395
  970TIP3   OH2 2873   3.262   6.400   0.268  0.9805  0.0305  0.4099
  970TIP3    H1 2874   3.355   6.406   0.246  1.2315  1.6632  1.7460
  970TIP3    H2 2875   3.259   6.407   0.363 -0.5437  0.4691  0.3553
  971TIP3   OH2 2876   5.550   2.025   3.086 -0.0778 -0.2377 -0.4699
  971TIP3    H1 2877   5.574   2.075   3.164  0.8934 -0.4735 -0.6065
  971TIP3    H2 2878   5.469   1.979   3.110 -0.6522  0.9092 -0.1409
  972TIP3   OH2 2879   4.230   2.906   3.139 -0.1615  0.0529  0.2087
  972TIP3    H1 2880   4.220   2.817   3.171 -2.0991  0.3524  0.5943
  972TIP3    H2 2881   4.307   2.940   3.185  1.2227 -1.6898 -0.6900
  973TIP3   OH2 2882   6.090   6.118   4.266 -0.6366 -0.1605  0.1116
  973TIP3    H1 2883   6.042   6.126   4.348 -0.7015  0.5832  0.0098
  973TIP3    H2 2884   6.029   6.077   4.206 -0.3005 -1.5156  0.6611
  974TIP3   OH2 2885   1.601   2.678   0.917  0.1113  0.4167  0.4176
  974TIP3    H1 2886   1.686   2.712   0.943 -0.4493  2.8183 -0.6631
  974TIP3    H2 2887   1.537   2.735   0.961 -0.8594  1.7932 -2.4788
  975TIP3   OH2 2888   2.024   1.273   3.084  0.2512  0.5679  0.0415
  975TIP3    H1 2889   2.085   1.343   3.064  0.9525  0.2928  1.0883
  975TIP3    H2 2890   1.992   1.294   3.172 -1.4643  0.8965 -0.6147
  976TIP3   OH2 2891   1.951   3.794   0.880 -0.2565  0.1962 -0.0306
  976TIP3    H1 2892   1.973   3.782   0.973  0.4778 -1.7538 -0.4124
  976TIP3    H2 2893   1.978   3.884   0.861 -2.3384  1.4115  2.1195
  977TIP3   OH2 2894   1.574   4.262   3.280 -0.3661 -0.7876  0.5158
  977TIP3    H1 2895   1.519   4.322   3.329  0.5068  0.0687  0.4799
  977TIP3    H2 2896   1.594   4.308   3.198  0.1405 -1.1996  0.3986
  978TIP3   OH2 2897   0.497   2.373   4.419  0.0984  0.2756 -0.2301
  978TIP3    H1 2898   0.513   2.360   4.326  0.1853 -0.2668 -0.1439
  978TIP3    H2 2899   0.572   2.425   4.449  0.0540  0.4776 -0.4618
  979TIP3   OH2 2900   5.094   5.418   3.351 -1.0496 -0.1308  0.3220
  979TIP3    H1 2901   5.101   5.323   3.347  0.5820 -0.0947  1.3149
  979TIP3    H2 2902   5.041   5.435   3.429 -1.9731 -0.2197 -0.2740
  980TIP3   OH2 2903   6.358   5.359   3.449 -0.0056  0.5198  0.2061
  980TIP3    H1 2904   6.378   5.449   3.474 -0.6253  0.3370  1.4221
  980TIP3    H2 2905   6.425   5.306   3.492 -1.3668  0.1599  1.9620
  981TIP3   OH2 2906   2.139   0.059   5.136  0.1370  0.2652  0.5915
  981TIP3    H1 2907   2.079   0.134   5.133 -1.8702 -1.2198  1.5225
  981TIP3    H2 2908   2.100  -0.006   5.077 -0.2513 -1.4525  2.6498
  982TIP3   OH2 2909   0.233   1.021   2.477  0.4556 -0.1427 -0.2163
  982TIP3    H1 2910   0.247   1.037   2.570 -0.5789  1.2216 -0.2621
  982TIP3    H2 2911   0.291   1.083   2.433 -1.5560  1.7117 -0.4165
  983TIP3   OH2 2912   0.024   3.022   2.970  0.8104 -0.8177  0.3667
  983TIP3    H1 2913   0.048   3.110   2.999 -2.9179  0.6038 -0.2025
  983TIP3    H2 2914  -0.001   2.977   3.051  1.1119 -0.7582  0.4943
  984TIP3   OH2 2915   6.847   3.185   5.277 -0.6641 -0.5779 -0.1853
  984TIP3    H1 2916   6.753   3.200   5.284 -1.0130 -2.1509 -1.0841
  984TIP3    H2 2917   6.855   3.101   5.232  1.1679 -0.9436  0.7312
  985TIP3   OH2 2918   0.489   4.145   5.312  0.3392 -0.3488 -0.2747
  985TIP3    H1 2919   0.431   4.126   5.386  0.2126 -0.5351 -0.4232
  985TIP3    H2 2920   0.453   4.095   5.239  0.3195  0.0344 -0.5303
  986TIP3   OH2 2921   3.374   5.700   3.355  0.7434  0.5474  0.3676
  986TIP3    H1 2922   3.418   5.740   3.430  1.8997  0.9477 -0.4928
  986TIP3    H2 2923   3.281   5.717   3.369  0.9614  0.7660  1.6138
  987TIP3   OH2 2924   4.725   0.911   5.587  0.2397 -0.2682 -0.0640
  987TIP3    H1 2925   4.646   0.932   5.638  0.2364 -1.6234  0.5464
  987TIP3    H2 2926   4.693   0.863   5.512  0.4290 -0.1668 -0.2104
  988TIP3   OH2 2927   1.673   0.969   5.024  0.5231  0.2980  0.9119
  988TIP3    H1 2928   1.671   1.063   5.036  0.6027  0.3039  0.8799
  988TIP3    H2 2929   1.723   0.936   5.098 -0.6818  0.1540  1.6815
  989TIP3   OH2 2930   6.988   6.115   2.500 -0.6053  0.5637 -0.1155
  989TIP3    H1 2931   6.907   6.156   2.530 -0.6660  0.8775 -0.7018
  989TIP3    H2 2932   6.963   6.024   2.481 -0.1621 -0.2034  2.5532
  990TIP3   OH2 2933   6.637   3.677   0.984 -0.2482  0.7023 -0.0915
  990TIP3    H1 2934   6.617   3.768   0.963 -3.6858  0.2460  0.6373
  990TIP3    H2 2935   6.586   3.626   0.920  1.4252 -0.7573 -0.3421
  991TIP3   OH2 2936   5.800   6.154   0.590 -0.3047 -0.2094 -0.1733
  991TIP3    H1 2937   5.735   6.189   0.529  0.2019  0.3029 -0.4260
  991TIP3    H2 2938   5.847   6.231   0.622 -1.5457 -0.2946  2.0442
  992TIP3   OH2 2939   0.264   0.232   3.036 -0.1859  0.0993 -1.0264
  992TIP3    H1 2940   0.327   0.297   3.006  1.7134 -1.6998 -1.2349
  992TIP3    H2 2941   0.312   0.180   3.101 -1.1566 -1.8392 -1.7562
  993TIP3   OH2 2942   5.465   0.824   2.730  0.1998  0.0801  0.3440
  993TIP3    H1 2943   5.523   0.772   2.785  0.3631 -0.9939 -0.8133
  993TIP3    H2 2944   5.378   0.812   2.768  0.5182  0.6098  1.2738
  994TIP3   OH2 2945   3.253   0.639   4.132  0.9147 -0.1579  0.1342
  994TIP3    H1 2946   3.338   0.641   4.088  0.8260  0.6002 -0.0112
  994TIP3    H2 2947   3.266   0.578   4.205  0.8588 -2.0318 -1.3180
  995TIP3   OH2 2948   2.452   5.574   0.351  0.2722  0.6124  0.3568
  995TIP3    H1 2949   2.404   5.615   0.423  0.3836  1.6148 -0.1142
  995TIP3    H2 2950   2.410   5.489   0.338  0.1103  0.5225  1.4524
  996TIP3   OH2 2951   5.063   5.707   1.423  0.7863 -0.7892 -0.1266
  996TIP3    H1 2952   5.095   5.797   1.414  0.7156 -0.5424  1.6781
  996TIP3    H2 2953   4.990   5.701   1.362  0.3922  0.5802  0.1830
  997TIP3   OH2 2954   5.877   1.744   3.159  0.2495 -0.1674 -0.3694
  997TIP3    H1 2955   5.792   1.767   3.198 -0.3085  0.5214 -1.9210
  997TIP3    H2 2956   5.862   1.658   3.118 -0.0517  0.4676 -1.6258
  998TIP3   OH2 2957   1.585   4.907   4.716 -0.1623  0.1891 -0.4330
  998TIP3    H1 2958   1.571   4.939   4.627  0.5250  1.2621 -0.1747
  998TIP3    H2 2959   1.500   4.869   4.742 -0.4331  0.0781 -1.4440
  999TIP3   OH2 2960   3.564   0.846   3.639 -0.1652 -0.5040  0.3017
  999TIP3    H1 2961   3.535   0.906   3.571  0.6245  0.7442  1.0219
  999TIP3    H2 2962   3.525   0.762   3.615 -2.7037  0.6162  0.1621
 1000TIP3   OH2 2963   6.941   1.590   5.015  0.1848  0.3014  0.7326
 1000TIP3    H1 2964   7.008   1.536   4.972  0.2252 -1.6927  3.0649
 1000TIP3    H2 2965   6.980   1.677   5.019  3.1779 -0.9684  2.8325
 1001TIP3   OH2 2966   6.963   2.457   5.606 -0.2550  0.5729  0.1847
 1001TIP3    H1 2967   7.021   2.525   5.640  1.1940  0.0758 -1.1780
 1001TIP3    H2 2968   6.951   2.396   5.679  0.2700  1.1165  0.7279
 1002TIP3   OH2 2969   0.416   3.554   4.816  0.2596 -0.1738  0.1067
 1002TIP3    H1 2970   0.430   3.467   4.855 -3.3600 -1.3599 -0.8526
 1002TIP3    H2 2971   0.366   3.602   4.882  0.5912  0.5284 -0.1417
 1003TIP3   OH2 2972   3.569   2.419   2.925 -0.1206 -0.1667 -0.1638
 1003TIP3    H1 2973   3.520   2.403   3.005 -0.5805  1.7071 -0.0149
 1003TIP3    H2 2974   3.512   2.476   2.873  1.3133  0.9620 -0.5754
 1004TIP3   OH2 2975   5.947   4.949   4.108 -0.3817  0.2785 -0.1754
 1004TIP3    H1 2976   5.948   4.864   4.151 -0.1964 -0.0560 -0.8273
 1004TIP3    H2 2977   6.038   4.965   4.082 -0.7987 -0.5947 -2.4548
 1005TIP3   OH2 2978   5.864   6.585   0.263  0.3358  0.3202 -0.1303
 1005TIP3    H1 2979   5.935   6.649   0.272  0.3024  0.5790 -1.5017
 1005TIP3    H2 2980   5.845   6.558   0.353  2.2722  0.1244  0.2772
 1006TIP3   OH2 2981   5.355   2.612   3.111 -0.7153 -0.0547  0.0654
 1006TIP3    H1 2982   5.414   2.650   3.046  1.5133 -1.8054  0.9240
 1006TIP3    H2 2983   5.376   2.657   3.193  1.3458 -2.3675  0.9088
 1007TIP3   OH2 2984   2.791   0.666   1.942 -0.0967 -0.0493 -0.0908
 1007TIP3    H1 2985   2.852   0.592   1.949 -0.6838 -0.6408 -1.0439
 1007TIP3    H2 2986   2.847   0.741   1.923  0.3633 -0.5591 -0.7969
 1008TIP3   OH2 2987   0.835   4.652   2.873  0.3638  0.0226 -0.0634
 1008TIP3    H1 2988   0.784   4.698   2.939 -1.2216 -0.6920 -0.7423
 1008TIP3    H2 2989   0.833   4.560   2.900  0.6970 -0.1157 -0.4872
 1009TIP3   OH2 2990   0.274   4.619   1.849 -0.0654 -0.6629 -0.0713
 1009TIP3    H1 2991   0.342   4.562   1.885 -1.5122 -1.7215  1.0953
 1009TIP3    H2 2992   0.269   4.693   1.909 -0.5852 -1.0628  0.3867
 1010TIP3   OH2 2993   5.461   6.313   5.608  0.3947  0.1803 -0.0500
 1010TIP3    H1 2994   5.546   6.318   5.563  0.0114  0.1435 -0.7805
 1010TIP3    H2 2995   5.396   6.314   5.538 -0.3506  2.8543  0.5407
 1011TIP3   OH2 2996   1.566   5.617   0.366 -0.3022 -0.3725  0.3620
 1011TIP3    H1 2997   1.501   5.667   0.317 -0.6386 -2.1483 -1.1369
 1011TIP3    H2 2998   1.626   5.683   0.402 -2.2995  1.2332  0.8906
 1012TIP3   OH2 2999   4.170   0.588   0.006  0.4086 -0.3037 -0.2656
 1012TIP3    H1 3000   4.131   0.552   0.086 -0.1552  1.2179  0.1771
 1012TIP3    H2 3001   4.208   0.512  -0.038  0.6454 -1.2086  1.3931
 1013TIP3   OH2 3002   6.310   3.442   2.531 -0.7632  0.1285 -0.2571
 1013TIP3    H1 3003   6.279   3.406   2.448 -0.6480 -1.4994  0.3503
 1013TIP3    H2 3004   6.231   3.454   2.584 -0.9655  2.3165 -0.9763
 1014TIP3   OH2 3005   4.119   1.882   1.332 -0.3257 -0.5958 -0.1373
 1014TIP3    H1 3006   4.206   1.873   1.294  0.2090  0.5288  0.7660
 1014TIP3    H2 3007   4.076   1.949   1.279  0.5380  1.2186  1.3407
 1015TIP3   OH2 3008   1.687   2.392   2.256  0.0154  0.8507  0.1609
 1015TIP3    H1 3009   1.707   2.300   2.237 -1.0915  0.0033  2.6364
 1015TIP3    H2 3010   1.756   2.441   2.211  0.4975 -1.1440 -1.4442
 1016TIP3   OH2 3011   0.625   0.942   2.208  0.1032 -0.1720  0.1953
 1016TIP3    H1 3012   0.567   0.889   2.264  1.0152 -0.9465  0.4422
 1016TIP3    H2 3013   0.687   0.879   2.172  0.0290  0.4503 -1.0693
 1017TIP3   OH2 3014   6.021   4.195   1.752 -0.1471  0.3093 -0.1232
 1017TIP3    H1 3015   6.094   4.256   1.744  0.6404 -0.3306  1.6375
 1017TIP3    H2 3016   5.957   4.240   1.808 -0.4737  0.3094 -0.4913
 1018TIP3   OH2 3017   6.257   3.894   3.835  0.0768  0.1412 -0.1384
 1018TIP3    H1 3018   6.261   3.973   3.890 -0.8766 -0.5517  0.9823
 1018TIP3    H2 3019   6.272   3.822   3.896  1.0614 -0.5537 -1.1729
 1019TIP3   OH2 3020   0.147   5.339   2.346  0.2913  0.3719 -0.0078
 1019TIP3    H1 3021   0.137   5.245   2.329 -1.6647 -0.0898  2.9917
 1019TIP3    H2 3022   0.109   5.381   2.269 -2.1259 -1.4071  0.0774
 1020TIP3   OH2 3023   4.700   3.033   3.069  0.7222  0.4564 -0.0926
 1020TIP3    H1 3024   4.759   3.011   3.141 -1.4013  0.2801  1.7003
 1020TIP3    H2 3025   4.744   3.105   3.023  1.8094  1.1299  1.8755
 1021TIP3   OH2 3026   1.823   0.599   1.409  0.1129  0.0732 -0.4576
 1021TIP3    H1 3027   1.796   0.568   1.322  0.2821 -1.0061 -0.1350
 1021TIP3    H2 3028   1.741   0.621   1.453  0.0321  0.7396 -0.9262
 1022TIP3   OH2 3029   3.684   1.213   3.663 -0.0026 -1.1196  0.0863
 1022TIP3    H1 3030   3.654   1.160   3.590  0.6483 -0.8218 -0.4071
 1022TIP3    H2 3031   3.779   1.220   3.651 -0.1853  1.3038 -0.6777
 1023TIP3   OH2 3032   0.947   0.363   3.423  0.1474 -0.2106 -0.2567
 1023TIP3    H1 3033   0.890   0.381   3.498  1.8735 -0.2222  1.1122
 1023TIP3    H2 3034   0.943   0.443   3.370  1.3237  1.0642  1.4977
 1024TIP3   OH2 3035   5.288   1.939   1.514  0.3931  0.1303 -0.2896
 1024TIP3    H1 3036   5.271   1.929   1.608  2.8012  0.7020  0.2736
 1024TIP3    H2 3037   5.329   2.025   1.507  0.7346 -0.1426 -1.8034
 1025TIP3   OH2 3038   2.616   4.738   2.362  0.3223 -0.2929 -0.0966
 1025TIP3    H1 3039   2.595   4.748   2.454  0.5078  0.5212 -0.1369
 1025TIP3    H2 3040   2.694   4.682   2.361 -0.6304 -1.6648  0.1464
 1026TIP3   OH2 3041   1.511   2.197   2.465  0.0120 -0.7554 -0.0368
 1026TIP3    H1 3042   1.566   2.120   2.483 -0.3653 -0.6508  1.7631
 1026TIP3    H2 3043   1.571   2.261   2.427  1.1385 -0.7044  1.7086
 1027TIP3   OH2 3044   6.477   2.075   1.586  0.7111  0.2371  0.3651
 1027TIP3    H1 3045   6.473   2.052   1.679  1.5361  1.2775  0.6756
 1027TIP3    H2 3046   6.400   2.032   1.547  0.0854  0.1979  1.6018
 1028TIP3   OH2 3047   3.382   1.118   3.633  0.1287  0.2391  0.0205
 1028TIP3    H1 3048   3.319   1.049   3.613 -0.0114  0.0400  1.0961
 1028TIP3    H2 3049   3.427   1.134   3.550  0.0014 -0.9750 -0.3034
 1029TIP3   OH2 3050   0.170   3.344   5.859 -0.3018  0.4287 -0.3988
 1029TIP3    H1 3051   0.155   3.311   5.948 -0.1369  0.8462 -0.2121
 1029TIP3    H2 3052   0.085   3.336   5.816 -0.2191 -0.4222 -0.4214
 1030TIP3   OH2 3053   2.768   2.044   4.828  0.1635  0.4131  0.1363
 1030TIP3    H1 3054   2.792   2.120   4.881 -1.5799  0.3660  1.0689
 1030TIP3    H2 3055   2.811   1.970   4.871 -0.8987  0.4356  1.3155
 1031TIP3   OH2 3056   4.671   0.518   5.459  0.1207 -0.3465  0.2248
 1031TIP3    H1 3057   4.767   0.511   5.461  0.3293  1.6721 -1.0844
 1031TIP3    H2 3058   4.642   0.444   5.512  2.3130 -2.5535 -1.3968
 1032TIP3   OH2 3059   2.852   0.820   3.690 -0.4515 -0.5831 -0.0888
 1032TIP3    H1 3060   2.913   0.781   3.627 -0.8197  0.0571 -0.8525
 1032TIP3    H2 3061   2.905   0.881   3.741  0.0195 -1.6674  0.7778
 1033TIP3   OH2 3062   6.953   4.583   3.089  0.2645  0.0972 -0.1458
 1033TIP3    H1 3063   7.032   4.620   3.127  0.8145 -2.1446  1.0346
 1033TIP3    H2 3064   6.922   4.519   3.153 -1.9893  0.2172 -0.9936
 1034TIP3   OH2 3065   2.319   5.340   2.344  0.1451 -0.1784 -0.1132
 1034TIP3    H1 3066   2.327   5.251   2.311  0.5658 -1.0224  2.1087
 1034TIP3    H2 3067   2.315   5.394   2.265 -1.5336 -2.2400 -1.5437
 1035TIP3   OH2 3068   6.624   5.686   1.452 -0.1713 -0.1585  0.0655
 1035TIP3    H1 3069   6.528   5.687   1.448 -0.1854 -0.8231  0.0891
 1035TIP3    H2 3070   6.651   5.646   1.369  0.0967  0.2223 -0.0341
 1036TIP3   OH2 3071   0.540   2.163   4.204 -0.2745 -0.2395  0.5424
 1036TIP3    H1 3072   0.504   2.124   4.284 -0.2756  2.0057  1.7078
 1036TIP3    H2 3073   0.463   2.200   4.160  0.0160  0.5868  0.7192
 1037TIP3   OH2 3074   2.888   5.482   5.561  0.5735  0.4252 -0.3023
 1037TIP3    H1 3075   2.907   5.388   5.565 -0.4053  0.2311  0.2723
 1037TIP3    H2 3076   2.946   5.521   5.626  1.5598  0.3385 -1.1056
 1038TIP3   OH2 3077   0.337   5.826   3.350  0.0520 -0.5845  0.1971
 1038TIP3    H1 3078   0.333   5.783   3.436 -0.0257 -1.5226 -0.2619
 1038TIP3    H2 3079   0.428   5.854   3.342  0.2589 -1.2146  0.2560
 1039TIP3   OH2 3080   4.630   4.641   0.475 -0.1245 -0.5383  0.3991
 1039TIP3    H1 3081   4.536   4.646   0.457 -0.4721 -1.1244  1.9074
 1039TIP3    H2 3082   4.641   4.688   0.558  0.6000 -2.0958  1.2116
 1040TIP3   OH2 3083   3.277   5.034   2.124 -0.1140  0.0456  0.2001
 1040TIP3    H1 3084   3.285   5.122   2.089  3.1981  0.0446  0.6824
 1040TIP3    H2 3085   3.316   4.978   2.057 -1.8004 -1.0743  0.0829
 1041TIP3   OH2 3086   2.244   5.518   1.808  0.0097 -0.0359 -0.3425
 1041TIP3    H1 3087   2.250   5.432   1.850 -0.4562  0.5308  0.9414
 1041TIP3    H2 3088   2.154   5.547   1.824  0.2177  0.7850 -0.5738
 1042TIP3   OH2 3089   2.249   4.403   3.947 -0.1379  0.5027 -0.0561
 1042TIP3    H1 3090   2.208   4.482   3.914 -1.1474 -0.8549 -2.3156
 1042TIP3    H2 3091   2.180   4.356   3.993  0.3885  0.7882  1.0581
 1043TIP3   OH2 3092   3.039   3.288   5.790  0.1176 -0.3374  0.0066
 1043TIP3    H1 3093   3.043   3.197   5.760 -0.2529 -0.5847  0.6835
 1043TIP3    H2 3094   3.119   3.299   5.842 -0.3445 -0.6033  0.7919
 1044TIP3   OH2 3095   1.158   5.380   3.262 -0.1834  0.0073 -0.1254
 1044TIP3    H1 3096   1.119   5.387   3.350  1.6600  0.0445  0.7370
 1044TIP3    H2 3097   1.128   5.295   3.230  0.1491 -0.5971  1.0824
 1045TIP3   OH2 3098   2.928   5.986   3.505 -0.6995 -0.0522  0.0944
 1045TIP3    H1 3099   2.998   6.045   3.479 -0.1878 -1.0934 -1.0098
 1045TIP3    H2 3100   2.888   5.959   3.422 -0.8848 -1.2775  0.5614
 1046TIP3   OH2 3101   4.987   4.382   1.514  0.1555  0.0203  0.0916
 1046TIP3    H1 3102   4.953   4.362   1.427 -1.3491 -1.0086  0.8740
 1046TIP3    H2 3103   4.929   4.335   1.574  1.5837  0.1215  1.6258
 1047TIP3   OH2 3104   4.574   3.830   3.973 -0.1268  0.1608 -0.1373
 1047TIP3    H1 3105   4.534   3.843   4.059  2.3467 -0.6164  1.2427
 1047TIP3    H2 3106   4.509   3.780   3.923 -0.5968 -1.8672  2.2878
 1048TIP3   OH2 3107   4.322   0.971   2.473 -0.1855 -0.1839  0.5568
 1048TIP3    H1 3108   4.344   0.880   2.495  2.2314  0.5841  1.6933
 1048TIP3    H2 3109   4.247   0.991   2.530 -1.3819 -1.6731 -0.3851
 1049TIP3   OH2 3110   2.786   4.568   1.992  0.3106  0.1982  0.1042
 1049TIP3    H1 3111   2.692   4.573   2.010  0.0680 -0.6286 -0.8448
 1049TIP3    H2 3112   2.814   4.487   2.035  0.4953  0.2117  0.0086
 1050TIP3   OH2 3113   3.295   4.269   2.629 -0.5217  0.5838 -0.2843
 1050TIP3    H1 3114   3.333   4.199   2.575 -0.2570  1.0408 -0.7037
 1050TIP3    H2 3115   3.261   4.224   2.706 -2.5953 -0.3748 -1.6460
 1051TIP3   OH2 3116   2.226   0.361   0.817 -0.3766 -0.3817 -0.2175
 1051TIP3    H1 3117   2.205   0.435   0.875  0.3094 -0.7574  0.5241
 1051TIP3    H2 3118   2.159   0.365   0.749 -0.6992  0.5768  0.1341
 1052TIP3   OH2 3119   6.353   5.007   2.833  0.0815  0.0904  0.2629
 1052TIP3    H1 3120   6.305   5.028   2.753 -0.4761  0.7780  0.7691
 1052TIP3    H2 3121   6.424   4.950   2.804 -1.4858 -1.6201 -0.4041
 1053TIP3   OH2 3122   5.400   3.375   0.415  0.7455  0.6697  0.2735
 1053TIP3    H1 3123   5.408   3.456   0.467  0.5400  1.7038 -1.2335
 1053TIP3    H2 3124   5.410   3.404   0.325  0.0655 -0.9292 -0.3479
 1054TIP3   OH2 3125   5.842   2.326   1.191 -0.6164 -0.7435  0.4502
 1054TIP3    H1 3126   5.775   2.381   1.150 -0.6660 -1.2698 -0.1779
 1054TIP3    H2 3127   5.798   2.242   1.207 -0.3855 -0.7799  0.9106
 1055TIP3   OH2 3128   0.099   0.745   1.419  0.1597 -0.4357 -0.3556
 1055TIP3    H1 3129   0.098   0.830   1.374  2.1905  0.4089  1.0163
 1055TIP3    H2 3130   0.126   0.683   1.352 -0.4074  0.1584 -1.1579
 1056TIP3   OH2 3131   6.879   5.761   5.820 -0.3455 -0.3616 -0.3708
 1056TIP3    H1 3132   6.939   5.835   5.815  0.4092 -1.0264 -1.3343
 1056TIP3    H2 3133   6.849   5.761   5.911  1.6343 -0.4372  0.3074
 1057TIP3   OH2 3134   4.803   3.076   3.709 -0.1802 -0.4961 -0.1804
 1057TIP3    H1 3135   4.827   3.125   3.787 -1.2326  0.8682 -0.6785
 1057TIP3    H2 3136   4.709   3.093   3.697 -0.4762 -2.2264 -0.6801
 1058TIP3   OH2 3137   5.130   6.648   4.915  0.5545  0.1777 -0.5569
 1058TIP3    H1 3138   5.101   6.585   4.849  1.1340 -1.2574  0.4900
 1058TIP3    H2 3139   5.052   6.701   4.933 -0.5353 -1.4646 -0.1657
 1059TIP3   OH2 3140   5.371   4.757   5.040 -1.3863  0.3453  0.3550
 1059TIP3    H1 3141   5.370   4.840   5.087 -1.8261  0.4642  0.1402
 1059TIP3    H2 3142   5.444   4.708   5.079 -0.8425  0.9998  0.1739
 1060TIP3   OH2 3143   2.071   4.221   4.786 -0.0829 -0.1909 -0.4307
 1060TIP3    H1 3144   2.013   4.262   4.721 -0.1053 -0.3719 -0.5240
 1060TIP3    H2 3145   2.014   4.160   4.833 -0.3331  0.7193  0.4838
 1061TIP3   OH2 3146   6.663   1.330   4.152 -0.4203  0.0713  0.1318
 1061TIP3    H1 3147   6.673   1.321   4.057  1.8736  1.2658  0.1977
 1061TIP3    H2 3148   6.630   1.419   4.164 -0.6270 -0.0495  0.4698
 1062TIP3   OH2 3149   4.678   2.892   1.658 -0.1708 -0.0030  0.1585
 1062TIP3    H1 3150   4.664   2.971   1.711 -1.4131  0.1943 -0.4079
 1062TIP3    H2 3151   4.661   2.921   1.568  0.1899 -0.7316 -0.1509
 1063TIP3   OH2 3152   5.257   4.121   4.544  0.1353  0.4379  0.2714
 1063TIP3    H1 3153   5.313   4.101   4.620 -0.1031  0.5824  0.4851
 1063TIP3    H2 3154   5.319   4.137   4.472  0.3496 -0.4826  0.2378
 1064TIP3   OH2 3155   3.976   2.662   1.015  0.0527 -0.2221  0.3771
 1064TIP3    H1 3156   3.905   2.659   1.080  0.1241  1.0577  0.5467
 1064TIP3    H2 3157   3.935   2.701   0.937  0.0717 -1.3623 -0.2237
 1065TIP3   OH2 3158   4.982   5.000   4.050 -0.0590 -0.0673 -0.6098
 1065TIP3    H1 3159   5.052   5.048   4.094  0.2067 -1.3898  0.4708
 1065TIP3    H2 3160   5.016   4.912   4.039 -0.7467 -0.1775 -2.0517
 1066TIP3   OH2 3161   4.019   0.489   2.594 -0.0309  0.0289 -0.1904
 1066TIP3    H1 3162   4.093   0.507   2.652  0.3369 -1.1448 -0.2664
 1066TIP3    H2 3163   3.974   0.573   2.585  1.5648  0.8769 -0.5436
 1067TIP3   OH2 3164   0.883   0.648   3.707  0.0096  0.1507  0.0863
 1067TIP3    H1 3165   0.930   0.574   3.669 -0.5252 -0.2338  0.1616
 1067TIP3    H2 3166   0.864   0.705   3.633  1.9769  1.1290  0.2454
 1068TIP3   OH2 3167   3.390   2.395   4.743  0.3587  0.1897  0.0361
 1068TIP3    H1 3168   3.332   2.461   4.779 -0.6263 -0.1318 -0.8868
 1068TIP3    H2 3169   3.479   2.425   4.764 -0.1021  1.3397  0.3777
 1069TIP3   OH2 3170   5.096   6.096   0.660  0.1423  0.5518  0.2341
 1069TIP3    H1 3171   5.005   6.067   0.657 -0.1149  1.3765 -0.5163
 1069TIP3    H2 3172   5.091   6.191   0.644  1.1042  0.6513  0.4927
 1070TIP3   OH2 3173   4.298   6.113   3.661 -0.5915  0.5701  0.1565
 1070TIP3    H1 3174   4.353   6.055   3.608  1.6371  1.5019  1.2988
 1070TIP3    H2 3175   4.219   6.063   3.678  1.1886 -2.1542  1.0278
 1071TIP3   OH2 3176   3.850   0.137   4.557 -0.7256 -0.3933 -0.6864
 1071TIP3    H1 3177   3.767   0.183   4.566 -0.4644 -0.2561  1.4220
 1071TIP3    H2 3178   3.901   0.192   4.498 -0.6234  1.8346  1.3458
 1072TIP3   OH2 3179   1.024   4.239   5.700 -0.3637 -0.6083 -0.3417
 1072TIP3    H1 3180   0.999   4.158   5.654  0.4527 -1.8793  1.3487
 1072TIP3    H2 3181   0.978   4.308   5.652 -3.0276 -2.2858 -0.4274
 1073TIP3   OH2 3182   6.831   4.638   5.171  0.3376 -0.4128  0.0733
 1073TIP3    H1 3183   6.789   4.714   5.132 -0.8425  0.6336  3.1291
 1073TIP3    H2 3184   6.761   4.574   5.181  0.2298 -0.0671  1.8040
 1074TIP3   OH2 3185   3.339   3.472   1.809 -0.2755  0.3662  0.1918
 1074TIP3    H1 3186   3.373   3.382   1.808  0.0374  0.4880 -0.3896
 1074TIP3    H2 3187   3.370   3.510   1.727  0.6857  1.4159  1.0149
 1075TIP3   OH2 3188   2.275   2.160   1.961  0.1390  0.1826  0.4072
 1075TIP3    H1 3189   2.307   2.071   1.946 -0.1706  0.0827  0.3294
 1075TIP3    H2 3190   2.320   2.212   1.894 -0.8449 -0.1791 -0.5699
 1076TIP3   OH2 3191   3.819   2.753   4.375  0.0946  0.1924 -0.3281
 1076TIP3    H1 3192   3.724   2.765   4.373 -0.0394 -0.2392  1.6721
 1076TIP3    H2 3193   3.853   2.829   4.327 -1.2169  0.8425 -0.2884
 1077TIP3   OH2 3194   3.576   6.707   0.337 -0.3887 -0.1145 -0.4194
 1077TIP3    H1 3195   3.507   6.769   0.360  1.0073  0.8534  1.3544
 1077TIP3    H2 3196   3.621   6.689   0.419  0.0977 -2.4796 -1.1327
 1078TIP3   OH2 3197   1.757   4.058   3.288  0.4154  0.1037  0.5513
 1078TIP3    H1 3198   1.833   4.096   3.331  0.1324 -0.6426  1.7518
 1078TIP3    H2 3199   1.690   4.127   3.292  0.7979  0.5186  0.0760
 1079TIP3   OH2 3200   1.773   5.073   4.815  0.3414  0.5045  0.9499
 1079TIP3    H1 3201   1.703   5.013   4.789 -0.0894  1.6456 -0.7066
 1079TIP3    H2 3202   1.742   5.114   4.896  0.2580 -0.8348  1.6155
 1080TIP3   OH2 3203   3.509   5.063   0.220  0.7166 -0.5514  0.3011
 1080TIP3    H1 3204   3.471   4.986   0.263  0.4798 -1.0740 -0.7909
 1080TIP3    H2 3205   3.496   5.046   0.126  1.1751  0.5612  0.0236
 1081TIP3   OH2 3206   6.694   3.698   1.261 -0.0616  0.1397 -0.5917
 1081TIP3    H1 3207   6.665   3.695   1.170  2.7159 -0.1374 -1.5348
 1081TIP3    H2 3208   6.612   3.697   1.312 -1.7117  1.0644 -3.0454
 1082TIP3   OH2 3209   5.626   2.478   3.472  0.0404  0.0774 -0.3800
 1082TIP3    H1 3210   5.618   2.570   3.495  0.4820  0.2143 -0.7584
 1082TIP3    H2 3211   5.627   2.478   3.376  0.3915 -0.2917 -0.3760
 1083TIP3   OH2 3212   0.826   5.722   4.489 -0.2556 -0.5130 -0.1725
 1083TIP3    H1 3213   0.880   5.644   4.499 -0.7907 -0.8460  0.1726
 1083TIP3    H2 3214   0.885   5.795   4.505 -0.2733 -0.9086  1.8510
 1084TIP3   OH2 3215   0.108   4.345   1.565 -0.4879 -0.2642 -0.4033
 1084TIP3    H1 3216   0.125   4.334   1.658 -1.4802 -1.2241 -0.3097
 1084TIP3    H2 3217   0.026   4.298   1.550  0.4199 -1.4311 -2.0434
 1085TIP3   OH2 3218   0.787   1.019   3.778 -0.1870 -0.1306 -0.2657
 1085TIP3    H1 3219   0.846   1.032   3.704  0.7713 -0.9202  0.3238
 1085TIP3    H2 3220   0.737   0.941   3.755  1.6212 -1.7055  0.7716
 1086TIP3   OH2 3221   1.413   6.378   2.867 -0.6947 -0.0650 -0.0128
 1086TIP3    H1 3222   1.508   6.379   2.863 -0.5123 -2.9171  0.8269
 1086TIP3    H2 3223   1.384   6.448   2.808  1.8859  0.8744 -0.2572
 1087TIP3   OH2 3224   4.722   4.687   1.026 -0.3214  0.2140  0.1753
 1087TIP3    H1 3225   4.714   4.756   1.092  1.3276 -0.0766  0.7180
 1087TIP3    H2 3226   4.662   4.618   1.056 -1.5176  1.1290 -0.0431
 1088TIP3   OH2 3227   5.318   2.555   5.228 -0.0276 -0.5090 -0.0367
 1088TIP3    H1 3228   5.251   2.556   5.160  0.0138  1.3084 -0.0847
 1088TIP3    H2 3229   5.302   2.634   5.279  0.6792 -1.2285  1.3653
 1089TIP3   OH2 3230   2.581   3.905   0.612 -0.4282  0.3285  0.0848
 1089TIP3    H1 3231   2.570   3.969   0.541 -0.5556 -1.8927 -2.0567
 1089TIP3    H2 3232   2.524   3.833   0.587  1.5401 -1.6744  1.0364
 1090TIP3   OH2 3233   3.672   5.122   2.674 -0.1944  0.3347  0.2474
 1090TIP3    H1 3234   3.746   5.102   2.617 -0.7700  1.4004 -0.9435
 1090TIP3    H2 3235   3.696   5.205   2.716 -0.4920  0.4226  0.2483
 1091TIP3   OH2 3236   1.545   1.258   5.416  0.6304  0.2115  0.2401
 1091TIP3    H1 3237   1.562   1.279   5.508  0.5279 -1.7714  0.7535
 1091TIP3    H2 3238   1.455   1.289   5.401  0.9704  1.3679  0.5260
 1092TIP3   OH2 3239   1.811   5.871   2.570 -0.0665 -0.6472  0.1098
 1092TIP3    H1 3240   1.888   5.826   2.536 -0.0244 -0.0254 -0.6420
 1092TIP3    H2 3241   1.840   5.961   2.586 -0.1431 -0.8567  1.6186
 1093TIP3   OH2 3242   6.195   1.768   3.321 -0.1330 -0.3757  0.3250
 1093TIP3    H1 3243   6.190   1.772   3.226  1.1925 -0.4642  0.2392
 1093TIP3    H2 3244   6.273   1.818   3.344  0.4909 -1.7119  1.2394
 1094TIP3   OH2 3245   3.591   4.556   1.338 -0.1839  0.4761  0.1914
 1094TIP3    H1 3246   3.653   4.497   1.295  0.7928 -0.2880  2.5101
 1094TIP3    H2 3247   3.513   4.552   1.282  0.7808 -0.8991 -1.1673
 1095TIP3   OH2 3248   3.280   1.965   1.712  0.3639  0.4646 -0.6705
 1095TIP3    H1 3249   3.296   1.887   1.660 -0.9742  0.4792 -1.1322
 1095TIP3    H2 3250   3.361   1.979   1.760  0.8979 -0.7336 -1.1997
 1096TIP3   OH2 3251   0.364   5.246   3.033  0.3972 -0.2723  0.0276
 1096TIP3    H1 3252   0.294   5.217   2.975  0.4574 -0.9808  0.3070
 1096TIP3    H2 3253   0.323   5.256   3.118  0.5288 -0.1961  0.0833
 1097TIP3   OH2 3254   5.813   5.776   1.778  0.3146 -0.2735 -0.2645
 1097TIP3    H1 3255   5.848   5.729   1.854 -3.7593 -2.9592  0.2197
 1097TIP3    H2 3256   5.788   5.861   1.812 -0.1634 -0.9320  1.0854
 1098TIP3   OH2 3257   2.834   2.535   4.831  0.1691 -0.0820  0.6939
 1098TIP3    H1 3258   2.863   2.458   4.782  1.3498  0.9173 -0.2566
 1098TIP3    H2 3259   2.740   2.525   4.840 -0.0134 -0.5628 -1.3784
 1099TIP3   OH2 3260   1.790   2.414   5.663  0.2832 -0.3949  0.3365
 1099TIP3    H1 3261   1.880   2.445   5.668 -0.0345  0.5728  0.2806
 1099TIP3    H2 3262   1.740   2.491   5.637 -0.3839 -1.2296 -0.9570
 1100TIP3   OH2 3263   2.570   1.469   4.340  0.7306 -0.1388 -0.0687
 1100TIP3    H1 3264   2.562   1.544   4.399  3.3630 -0.0421  0.3117
 1100TIP3    H2 3265   2.558   1.393   4.396  0.2879 -0.0304 -0.0112
 1101TIP3   OH2 3266   3.645   1.265   2.776 -0.5248  0.0137 -0.2480
 1101TIP3    H1 3267   3.569   1.211   2.799 -1.0112  0.7185 -0.1717
 1101TIP3    H2 3268   3.607   1.345   2.740  0.1969 -0.2551 -1.6821
 1102TIP3   OH2 3269   1.109   3.038   2.830  0.6050 -0.3175 -0.1074
 1102TIP3    H1 3270   1.078   3.058   2.741  2.6931 -1.9916 -1.2990
 1102TIP3    H2 3271   1.204   3.045   2.825  0.8110 -0.9919  1.8739
 1103TIP3   OH2 3272   4.147   2.001   0.899 -0.0299 -0.2891  0.0024
 1103TIP3    H1 3273   4.147   2.092   0.929  1.0826 -0.5849  0.9666
 1103TIP3    H2 3274   4.059   1.988   0.863 -0.0368  1.3221 -0.6818
 1104TIP3   OH2 3275   2.607   0.260   1.875 -0.0477  0.0710  0.4092
 1104TIP3    H1 3276   2.617   0.313   1.795 -0.1260 -0.5208  0.0006
 1104TIP3    H2 3277   2.545   0.192   1.851 -1.9527  1.2640  1.6890
 1105TIP3   OH2 3278   2.693   3.287   1.249 -0.7927  0.4161 -0.0731
 1105TIP3    H1 3279   2.707   3.348   1.177  0.9565  0.1151 -0.0138
 1105TIP3    H2 3280   2.687   3.342   1.327  0.6435  0.5559 -0.0394
 1106TIP3   OH2 3281   2.785   4.274   4.800 -0.1562 -0.3064 -0.2460
 1106TIP3    H1 3282   2.732   4.304   4.726  0.2166  0.1668 -0.3262
 1106TIP3    H2 3283   2.734   4.203   4.839 -0.5615 -0.2642 -0.6897
 1107TIP3   OH2 3284   1.045   4.022   4.342 -0.8046  0.4690  0.2977
 1107TIP3    H1 3285   1.011   4.107   4.316 -1.1381  0.8369  1.8298
 1107TIP3    H2 3286   1.088   3.987   4.263 -0.0949  2.3290 -0.1795
 1108TIP3   OH2 3287   6.258   0.063   5.661  0.5002 -0.1745  0.2193
 1108TIP3    H1 3288   6.212   0.010   5.726 -0.7251 -0.1593 -0.6151
 1108TIP3    H2 3289   6.331   0.101   5.709  0.4949 -1.3617  1.2206
 1109TIP3   OH2 3290   0.797   5.510   0.501  0.0816  0.2653  0.5348
 1109TIP3    H1 3291   0.733   5.528   0.433  1.2121  0.0576 -0.6098
 1109TIP3    H2 3292   0.819   5.417   0.490  2.7858  0.9805 -1.1145
 1110TIP3   OH2 3293   6.277   0.789   3.645 -0.1823  0.1957  0.1531
 1110TIP3    H1 3294   6.221   0.813   3.572 -1.7198 -0.6251  1.0161
 1110TIP3    H2 3295   6.267   0.694   3.654  1.0698  0.0723  0.5757
 1111TIP3   OH2 3296   2.484   3.937   4.629  0.3555 -0.2106 -0.2585
 1111TIP3    H1 3297   2.418   4.004   4.647 -0.6290 -1.1719 -0.1456
 1111TIP3    H2 3298   2.524   3.964   4.546  0.5809  0.9564  0.2198
 1112TIP3   OH2 3299   4.220   4.198   2.730  0.2584 -0.2478  0.3006
 1112TIP3    H1 3300   4.232   4.284   2.689  1.0360 -0.2676  0.4854
 1112TIP3    H2 3301   4.158   4.153   2.672  0.2803  0.2269 -0.1032
 1113TIP3   OH2 3302   6.359   0.513   2.520  0.1725  0.0061  0.1999
 1113TIP3    H1 3303   6.378   0.433   2.472 -1.7233 -0.7911  0.6964
 1113TIP3    H2 3304   6.437   0.568   2.507  0.4066 -0.8022 -2.3974
 1114TIP3   OH2 3305   6.555   6.605   0.261  0.1552  0.7794  0.2148
 1114TIP3    H1 3306   6.496   6.599   0.335  1.2737 -0.6485  1.0489
 1114TIP3    H2 3307   6.630   6.551   0.285  0.7149  0.5431 -1.8128
 1115TIP3   OH2 3308   0.999   0.949   4.341  0.1325  0.3193  0.0973
 1115TIP3    H1 3309   1.018   0.944   4.247  0.6401  0.1713  0.2007
 1115TIP3    H2 3310   1.010   1.041   4.363  0.5981  0.2596  0.1241
 1116TIP3   OH2 3311   4.843   6.616   0.900  0.0512  0.4648 -0.0538
 1116TIP3    H1 3312   4.931   6.635   0.930 -0.2361 -0.0914  1.1889
 1116TIP3    H2 3313   4.802   6.568   0.972 -0.2373 -2.1469 -1.7968
 1117TIP3   OH2 3314   4.488   1.894   3.569  0.1572 -0.1170  0.0123
 1117TIP3    H1 3315   4.446   1.934   3.646 -0.6466 -0.3301 -0.3086
 1117TIP3    H2 3316   4.516   1.808   3.599 -0.9424 -0.5516 -0.1588
 1118TIP3   OH2 3317   2.355   3.877   5.282  0.1795 -0.3274 -0.5868
 1118TIP3    H1 3318   2.307   3.941   5.230 -0.0186 -0.4322 -0.5354
 1118TIP3    H2 3319   2.447   3.899   5.270  0.1208 -0.1869 -0.7667
 1119TIP3   OH2 3320   4.844   4.718   0.132 -0.6395 -0.4167 -0.4283
 1119TIP3    H1 3321   4.855   4.677   0.046 -0.1012  0.6331 -0.8826
 1119TIP3    H2 3322   4.843   4.645   0.193  2.3142 -1.0911 -0.9996
 1120TIP3   OH2 3323   5.618   0.590   1.645 -0.0076  0.5040  0.0875
 1120TIP3    H1 3324   5.679   0.658   1.674  2.8408 -1.7814 -0.0577
 1120TIP3    H2 3325   5.577   0.626   1.566  1.1601  2.1698  0.1959
 1121TIP3   OH2 3326   0.148   5.732   5.213 -0.4540  0.0255 -0.3319
 1121TIP3    H1 3327   0.053   5.743   5.210 -0.4253  0.7414  0.7326
 1121TIP3    H2 3328   0.180   5.811   5.257  0.6861  0.0264 -1.1110
 1122TIP3   OH2 3329   1.511   1.846   3.645  0.0960  0.1468 -0.1637
 1122TIP3    H1 3330   1.457   1.798   3.707 -1.1920  2.7651  0.8925
 1122TIP3    H2 3331   1.592   1.866   3.693 -1.2103  2.8441  1.0973
 1123TIP3   OH2 3332   0.371   1.810   0.333  0.1943  0.0560 -0.0710
 1123TIP3    H1 3333   0.276   1.800   0.341  0.1431 -0.8085 -1.4482
 1123TIP3    H2 3334   0.407   1.727   0.364  0.4053 -0.2018 -0.9801
 1124TIP3   OH2 3335   6.788   6.030   1.897 -0.4448  0.5495 -0.4102
 1124TIP3    H1 3336   6.860   6.003   1.841  0.6927  0.2303  1.1329
 1124TIP3    H2 3337   6.820   6.108   1.943 -2.4171  2.5869 -2.2399
 1125TIP3   OH2 3338   6.120   2.480   5.751  0.4156  1.3435  0.1635
 1125TIP3    H1 3339   6.042   2.452   5.799  0.6209 -0.1322 -0.3317
 1125TIP3    H2 3340   6.180   2.406   5.758 -0.3385  0.0152 -4.1975
 1126TIP3   OH2 3341   3.546   2.702   0.501 -0.3942  0.1272 -0.2129
 1126TIP3    H1 3342   3.472   2.761   0.486 -0.5891  0.1127  0.6470
 1126TIP3    H2 3343   3.562   2.707   0.596  0.8972  0.3616 -0.4222
 1127TIP3   OH2 3344   4.677   2.828   2.877 -0.0421 -0.0046 -0.3463
 1127TIP3    H1 3345   4.665   2.878   2.958  0.0420  0.1439 -0.4243
 1127TIP3    H2 3346   4.614   2.757   2.884 -0.0391  0.0096 -0.1521
 1128TIP3   OH2 3347   2.361   2.966   1.597  0.2437  0.1852  0.5797
 1128TIP3    H1 3348   2.419   2.933   1.666 -0.1507  0.4732  1.0581
 1128TIP3    H2 3349   2.405   3.045   1.565  0.4868 -0.0148  0.4097
 1129TIP3   OH2 3350   5.436   0.147   1.135 -0.0137  0.1280  0.2856
 1129TIP3    H1 3351   5.386   0.068   1.158  0.0306 -0.0169 -0.1159
 1129TIP3    H2 3352   5.456   0.188   1.219  0.4853 -0.6072  0.5240
 1130TIP3   OH2 3353   3.760   2.684   2.696 -0.0214 -0.7222 -0.1276
 1130TIP3    H1 3354   3.706   2.607   2.677  0.0075 -0.7951  0.0811
 1130TIP3    H2 3355   3.711   2.730   2.765  1.7590 -2.4921  2.4709
 1131TIP3   OH2 3356   2.718   4.224   1.873  0.5752  0.2577 -0.0845
 1131TIP3    H1 3357   2.811   4.206   1.862  0.3342 -0.7636 -0.6200
 1131TIP3    H2 3358   2.692   4.266   1.791 -0.0150 -2.1223 -1.2133
 1132TIP3   OH2 3359   0.502   5.155   1.892 -0.3049  0.0109 -0.1787
 1132TIP3    H1 3360   0.494   5.245   1.860 -0.9349 -0.5735 -1.7359
 1132TIP3    H2 3361   0.565   5.114   1.834  3.1673  0.4346  2.8967
 1133TIP3   OH2 3362   4.158   2.436   1.093  0.1389 -0.3672  0.2433
 1133TIP3    H1 3363   4.108   2.516   1.110 -0.2506 -0.3460 -0.8780
 1133TIP3    H2 3364   4.249   2.464   1.097  0.0085  0.1019  0.0184
 1134TIP3   OH2 3365   6.246   1.792   1.735  0.2272 -0.1453  0.9473
 1134TIP3    H1 3366   6.321   1.761   1.685 -0.3109 -1.1141  0.7290
 1134TIP3    H2 3367   6.178   1.809   1.669 -0.2340 -0.7060  1.2681
 1135TIP3   OH2 3368   1.810   1.557   5.189  0.0006  0.3194  0.1394
 1135TIP3    H1 3369   1.715   1.549   5.198 -0.1341  1.4905 -0.0218
 1135TIP3    H2 3370   1.845   1.476   5.226 -1.1465 -1.3893 -2.2391
 1136TIP3   OH2 3371   6.738   0.508   4.652 -0.0217 -0.0736  0.3749
 1136TIP3    H1 3372   6.785   0.586   4.623  1.7499 -0.7455  1.2811
 1136TIP3    H2 3373   6.785   0.436   4.611  0.2510 -0.8178  1.9268
 1137TIP3   OH2 3374   0.869   0.165   5.266 -0.3895  0.2509 -0.0535
 1137TIP3    H1 3375   0.842   0.254   5.285 -0.3755  0.1089  0.6650
 1137TIP3    H2 3376   0.953   0.174   5.221  0.8336  0.5616  2.1475
 1138TIP3   OH2 3377   4.894   3.132   2.761 -0.3751 -0.6645  0.4573
 1138TIP3    H1 3378   4.851   3.070   2.702 -1.1227  0.2909 -0.0326
 1138TIP3    H2 3379   4.868   3.218   2.728 -0.0249 -0.0976  1.6093
 1139TIP3   OH2 3380   0.067   6.598   0.718 -0.3930  0.0203 -0.1510
 1139TIP3    H1 3381   0.134   6.535   0.744 -1.0179 -0.4380  0.3775
 1139TIP3    H2 3382   0.094   6.680   0.760 -0.6969 -0.4059  0.9009
 1140TIP3   OH2 3383   1.851   1.545   0.553  0.1443 -0.1084  0.4934
 1140TIP3    H1 3384   1.863   1.475   0.488  1.1608 -0.4284  0.9934
 1140TIP3    H2 3385   1.759   1.538   0.579 -0.2989  0.0699 -0.9402
 1141TIP3   OH2 3386   0.560   2.451   4.061 -0.8284  0.3135  0.5887
 1141TIP3    H1 3387   0.646   2.469   4.024 -0.7234  1.9018  1.5031
 1141TIP3    H2 3388   0.499   2.458   3.988 -0.2121 -0.7556 -0.0502
 1142TIP3   OH2 3389   7.172   6.278   2.604 -0.4413  0.3188 -0.1065
 1142TIP3    H1 3390   7.130   6.346   2.656 -1.3669  1.1427 -1.8610
 1142TIP3    H2 3391   7.100   6.227   2.567  0.2114 -0.7767  0.0634
 1143TIP3   OH2 3392   6.074   0.825   4.784 -0.4120 -0.9221  0.3006
 1143TIP3    H1 3393   6.129   0.747   4.782 -1.5696 -1.7561 -0.6803
 1143TIP3    H2 3394   6.014   0.809   4.857  0.2420 -0.2908  0.9889
 1144TIP3   OH2 3395   6.716   4.776   3.876 -0.0002 -0.3761  0.3024
 1144TIP3    H1 3396   6.656   4.710   3.910 -0.0863 -0.7454 -0.5349
 1144TIP3    H2 3397   6.720   4.843   3.944 -0.2776 -1.0205  0.9604
 1145TIP3   OH2 3398   0.641   5.275   5.709  0.2979 -0.1067  0.1454
 1145TIP3    H1 3399   0.574   5.208   5.719  1.3175 -0.9976  1.4872
 1145TIP3    H2 3400   0.714   5.230   5.665  0.4862  0.4961 -0.1678
 1146TIP3   OH2 3401   3.737   2.121   5.249 -0.2923 -0.0644 -0.6859
 1146TIP3    H1 3402   3.671   2.187   5.270  1.1136  0.4433  2.7263
 1146TIP3    H2 3403   3.696   2.038   5.274  0.5413  0.3344  2.3804
 1147TIP3   OH2 3404   6.157   2.784   1.562 -0.2484 -0.6673 -0.6071
 1147TIP3    H1 3405   6.085   2.721   1.572 -1.0798  0.2707 -0.5458
 1147TIP3    H2 3406   6.116   2.869   1.574  0.5832 -0.0156 -2.1309
 1148TIP3   OH2 3407   6.593   2.459   1.667 -0.2476 -0.2768 -0.1186
 1148TIP3    H1 3408   6.687   2.446   1.653 -0.5514 -1.3368 -1.3586
 1148TIP3    H2 3409   6.585   2.476   1.761  1.0402 -1.9024  0.3372
 1149TIP3   OH2 3410   0.410   3.508   2.532  0.2663 -0.3985 -0.3392
 1149TIP3    H1 3411   0.328   3.459   2.532 -0.7039  1.1363  0.8368
 1149TIP3    H2 3412   0.419   3.542   2.621  0.3652  2.3292 -1.2743
 1150TIP3   OH2 3413   3.029   4.147   3.334 -0.6455  0.3773  0.0426
 1150TIP3    H1 3414   2.947   4.130   3.288 -1.1674 -0.2907  1.1762
 1150TIP3    H2 3415   3.063   4.228   3.295 -1.8011  0.6085 -0.5002
 1151TIP3   OH2 3416   4.799   0.595   5.116  0.0346 -0.5695 -0.3996
 1151TIP3    H1 3417   4.852   0.516   5.115  0.8627 -0.0728  1.1463
 1151TIP3    H2 3418   4.862   0.667   5.113 -0.5711  0.0277  0.7041
 1152TIP3   OH2 3419   1.665   5.190   3.779  0.0789 -0.2074  0.1608
 1152TIP3    H1 3420   1.695   5.279   3.801  1.4059 -0.5497 -0.1789
 1152TIP3    H2 3421   1.735   5.133   3.810 -1.5713 -1.3341  2.0758
 1153TIP3   OH2 3422   3.511   1.271   4.944 -0.8994  0.4220  0.5661
 1153TIP3    H1 3423   3.555   1.234   5.020 -0.6471 -0.2169  0.1208
 1153TIP3    H2 3424   3.466   1.349   4.977  0.0482  0.7385  1.1577
 1154TIP3   OH2 3425   2.687   2.752   0.397  0.1084  0.1520  0.2339
 1154TIP3    H1 3426   2.755   2.781   0.459  2.3353 -2.2851 -0.8517
 1154TIP3    H2 3427   2.717   2.783   0.312 -0.0732 -0.9981 -0.2713
 1155TIP3   OH2 3428   3.678   0.865   2.399  0.5833 -0.1986 -0.1408
 1155TIP3    H1 3429   3.684   0.936   2.334 -0.2555  2.1736  2.1896
 1155TIP3    H2 3430   3.615   0.897   2.464  1.4356 -2.3822  1.9102
 1156TIP3   OH2 3431   4.360   3.048   0.018  0.1777  0.4551  0.1135
 1156TIP3    H1 3432   4.326   2.964   0.051 -0.5091  0.1399 -1.2792
 1156TIP3    H2 3433   4.444   3.026  -0.022  0.5072  0.6393  0.6954
 1157TIP3   OH2 3434   1.254   0.694   0.238  0.0678 -0.7471  0.6201
 1157TIP3    H1 3435   1.327   0.723   0.182 -1.3087 -1.2375 -1.5519
 1157TIP3    H2 3436   1.252   0.599   0.227 -1.8820 -0.6069 -0.7363
 1158TIP3   OH2 3437   4.641   5.799   2.991  0.0763  0.2402  0.1834
 1158TIP3    H1 3438   4.679   5.726   3.040  1.8526 -0.5025 -2.0738
 1158TIP3    H2 3439   4.668   5.782   2.900 -1.6772  2.3515 -0.8046
 1159TIP3   OH2 3440   5.728   4.963   2.808 -0.2579 -0.1876  0.2635
 1159TIP3    H1 3441   5.815   4.974   2.844  0.1113 -1.0067 -0.3617
 1159TIP3    H2 3442   5.673   5.021   2.861  1.0221  2.0968 -0.7591
 1160TIP3   OH2 3443   5.061   4.071   2.937  0.2129 -0.3265  0.4471
 1160TIP3    H1 3444   5.113   3.999   2.901 -1.0740 -1.5294  0.9009
 1160TIP3    H2 3445   4.981   4.070   2.885 -0.7956 -0.7524  1.9285
 1161TIP3   OH2 3446   1.268   3.572   3.044 -0.7200 -0.5051  0.7407
 1161TIP3    H1 3447   1.245   3.548   2.954  0.4067  2.5377 -0.4778
 1161TIP3    H2 3448   1.349   3.622   3.036 -1.0091  0.5603  3.3755
 1162TIP3   OH2 3449   2.999   3.770   3.253  0.1694 -0.0392 -0.3723
 1162TIP3    H1 3450   2.963   3.685   3.230  1.7034 -0.8045 -0.0690
 1162TIP3    H2 3451   2.929   3.832   3.233 -1.4263 -1.4649  0.5330
 1163TIP3   OH2 3452   3.463   2.493   5.706 -0.3840 -0.1954  0.3844
 1163TIP3    H1 3453   3.528   2.486   5.776  0.5968 -1.8892 -0.6406
 1163TIP3    H2 3454   3.379   2.485   5.751  0.2354 -1.4523  1.3754
 1164TIP3   OH2 3455   5.678   3.558   1.708  0.9326  0.2975  0.2912
 1164TIP3    H1 3456   5.675   3.646   1.745  1.3598  0.5146 -0.1843
 1164TIP3    H2 3457   5.765   3.526   1.729  1.1379  0.3763 -0.4117
 1165TIP3   OH2 3458   7.059   1.679   5.361  0.0312 -0.8435 -0.0296
 1165TIP3    H1 3459   7.154   1.671   5.371  0.2157  1.9918  1.7447
 1165TIP3    H2 3460   7.023   1.644   5.443 -0.4087 -1.1268 -0.3380
 1166TIP3   OH2 3461   1.038   6.132   2.280  0.4880  0.0136  0.5732
 1166TIP3    H1 3462   0.982   6.060   2.309 -1.2529  0.4274 -1.4590
 1166TIP3    H2 3463   1.055   6.112   2.187  0.6844  1.7766  0.2000
 1167TIP3   OH2 3464   1.003   5.307   4.062  0.0649  0.0266 -0.3806
 1167TIP3    H1 3465   1.094   5.290   4.039 -0.0353  0.1550 -0.8664
 1167TIP3    H2 3466   0.993   5.266   4.148  0.3775 -0.6309 -0.6464
 1168TIP3   OH2 3467   7.184   6.654   5.766 -0.1992 -0.3715  0.7189
 1168TIP3    H1 3468   7.257   6.716   5.768 -0.7364  0.2500  1.6224
 1168TIP3    H2 3469   7.155   6.648   5.857 -1.2172 -0.6819  0.3861
 1169TIP3   OH2 3470   5.416   2.890   1.916  0.3351 -0.3110  1.2117
 1169TIP3    H1 3471   5.425   2.952   1.988  0.6141  1.1388 -0.0234
 1169TIP3    H2 3472   5.410   2.945   1.837 -0.2110 -1.8322  0.1471
 1170TIP3   OH2 3473   4.092   6.477   4.936  0.2734  0.1724  0.6013
 1170TIP3    H1 3474   4.094   6.567   4.905 -2.6680 -0.0793 -0.6485
 1170TIP3    H2 3475   4.175   6.439   4.907  0.2598  1.6571 -1.6127
 1171TIP3   OH2 3476   3.547   4.497   0.235  0.0902  0.4464 -0.1727
 1171TIP3    H1 3477   3.531   4.412   0.275 -1.6132 -0.0371 -1.7180
 1171TIP3    H2 3478   3.531   4.483   0.141 -0.5713  2.5248 -0.4282
 1172TIP3   OH2 3479   3.621   4.423   3.889 -0.2456  0.1715 -0.3276
 1172TIP3    H1 3480   3.639   4.329   3.885  3.0182  0.6588  0.2996
 1172TIP3    H2 3481   3.529   4.428   3.915 -0.3646 -2.8423  0.2678
 1173TIP3   OH2 3482   0.308   6.644   2.133 -0.0195  0.1691  0.0010
 1173TIP3    H1 3483   0.303   6.706   2.206  3.3632 -0.5062  0.9461
 1173TIP3    H2 3484   0.328   6.699   2.056 -1.2743  0.6298 -0.0245
 1174TIP3   OH2 3485   5.682   4.905   4.491  0.1639  0.1440 -0.0090
 1174TIP3    H1 3486   5.707   4.853   4.414  0.7607 -0.7874  0.7971
 1174TIP3    H2 3487   5.766   4.932   4.529 -0.1285  0.2852  0.5319
 1175TIP3   OH2 3488   4.652   5.932   2.522  0.1313 -0.2458  0.1943
 1175TIP3    H1 3489   4.725   5.952   2.463  0.3423 -3.2339 -0.7194
 1175TIP3    H2 3490   4.578   5.916   2.463 -0.3654 -0.6163  0.9112
 1176TIP3   OH2 3491   0.390   0.194   4.348 -0.3914 -0.0930 -0.5699
 1176TIP3    H1 3492   0.361   0.118   4.399 -0.7285  0.6696  0.4000
 1176TIP3    H2 3493   0.350   0.182   4.262  0.4608 -1.5801 -0.7861
 1177TIP3   OH2 3494   3.602   6.066   4.727 -0.7795  0.0235 -0.0660
 1177TIP3    H1 3495   3.541   5.993   4.740  3.0141 -3.3958  0.6796
 1177TIP3    H2 3496   3.657   6.039   4.653  2.1938  0.9093  1.6098
 1178TIP3   OH2 3497   5.335   0.137   2.262  0.4111 -0.0354 -0.2028
 1178TIP3    H1 3498   5.414   0.091   2.233  0.3519  0.6497 -1.5102
 1178TIP3    H2 3499   5.266   0.071   2.258  0.7223 -0.3722 -0.0586
 1179TIP3   OH2 3500   2.145   4.094   1.485 -0.2448 -0.4095  0.5543
 1179TIP3    H1 3501   2.177   4.023   1.430  0.8473  0.7075 -0.3225
 1179TIP3    H2 3502   2.211   4.102   1.555  2.1313  2.4461 -1.7180
 1180TIP3   OH2 3503   5.538   3.337   1.785 -0.3049  0.3387 -0.5492
 1180TIP3    H1 3504   5.599   3.381   1.727  2.1336 -0.6303  1.1097
 1180TIP3    H2 3505   5.554   3.244   1.771  0.4565  0.0764  1.6706
 1181TIP3   OH2 3506   2.477   5.631   2.665 -0.0815 -0.3375 -0.3819
 1181TIP3    H1 3507   2.432   5.589   2.738  1.3920 -0.3123  0.5897
 1181TIP3    H2 3508   2.439   5.719   2.660 -0.2211 -0.3495  0.3453
 1182TIP3   OH2 3509   1.041   5.724   0.905 -0.8170 -0.0610 -0.5386
 1182TIP3    H1 3510   0.982   5.706   0.832  1.1870 -1.3677 -1.9557
 1182TIP3    H2 3511   1.124   5.747   0.864  0.7498 -2.0531  1.2296
 1183TIP3   OH2 3512   0.867   6.377   2.801 -0.5298 -0.3037 -0.1602
 1183TIP3    H1 3513   0.926   6.451   2.816 -0.2441 -0.5465 -0.0954
 1183TIP3    H2 3514   0.779   6.415   2.807 -0.3807  0.2760 -1.3329
 1184TIP3   OH2 3515   4.315   0.518   2.427 -0.0503 -0.6136 -0.5671
 1184TIP3    H1 3516   4.272   0.458   2.487  0.1560  1.0183  1.3113
 1184TIP3    H2 3517   4.408   0.496   2.433  0.0033 -0.2529 -0.0422
 1185TIP3   OH2 3518   2.929   5.602   3.364  0.0929 -0.2311 -0.5300
 1185TIP3    H1 3519   2.893   5.610   3.452  1.6673  2.4837 -0.0476
 1185TIP3    H2 3520   3.021   5.626   3.372  0.4042 -0.3494 -2.8586
 1186TIP3   OH2 3521   1.621   6.821   1.376 -0.1191 -0.2340  0.1485
 1186TIP3    H1 3522   1.592   6.732   1.398  1.0846 -1.2847 -2.1092
 1186TIP3    H2 3523   1.705   6.831   1.422 -1.0245  0.4397  1.7421
 1187TIP3   OH2 3524   6.897   1.462   1.812  0.1516  0.6199  0.3116
 1187TIP3    H1 3525   6.906   1.515   1.891  1.3582  0.6111  0.1879
 1187TIP3    H2 3526   6.891   1.372   1.845  0.0608  0.6660  0.4223
 1188TIP3   OH2 3527   4.100   5.677   3.123  0.2732  0.6132 -0.6899
 1188TIP3    H1 3528   4.167   5.725   3.075  0.7406  1.2316  0.5458
 1188TIP3    H2 3529   4.135   5.588   3.131  1.1827  1.0389  0.3375
 1189TIP3   OH2 3530   0.847   5.213   1.408 -0.1589 -0.1137  0.3041
 1189TIP3    H1 3531   0.918   5.264   1.446 -2.1092  1.8555  1.5955
 1189TIP3    H2 3532   0.848   5.236   1.315  0.9338 -0.1908  0.2921
 1190TIP3   OH2 3533   5.557   6.157   1.380 -0.1993 -0.2465  0.6219
 1190TIP3    H1 3534   5.554   6.094   1.308  1.5382 -0.0402  0.3215
 1190TIP3    H2 3535   5.636   6.133   1.429 -1.0017  0.0227  2.0879
 1191TIP3   OH2 3536   6.441   5.414   5.180 -0.4053  0.0079 -0.5755
 1191TIP3    H1 3537   6.469   5.463   5.258 -0.2839  0.7373 -1.0678
 1191TIP3    H2 3538   6.433   5.324   5.211  0.8614  0.0536 -0.0061
 1192TIP3   OH2 3539   4.877   4.979   2.770  0.1579 -0.5838 -0.1759
 1192TIP3    H1 3540   4.836   4.892   2.769 -1.7805  0.2701 -1.4338
 1192TIP3    H2 3541   4.916   4.989   2.684 -0.5582  0.1741 -0.4299
 1193TIP3   OH2 3542   5.910   5.901   0.982 -0.1167 -0.2872 -0.2652
 1193TIP3    H1 3543   5.875   5.823   0.939  1.3035 -2.0310  1.5658
 1193TIP3    H2 3544   5.880   5.973   0.927 -2.4217 -1.9879 -1.4491
 1194TIP3   OH2 3545   2.889   0.799   2.767  0.4565  0.1310 -0.0058
 1194TIP3    H1 3546   2.893   0.769   2.677 -0.4522  0.2936 -0.1089
 1194TIP3    H2 3547   2.913   0.892   2.763 -0.0387  0.2530 -0.1435
 1195TIP3   OH2 3548   6.839   5.164   4.130  0.2241 -0.2358  0.1502
 1195TIP3    H1 3549   6.811   5.231   4.067  0.4547 -0.7678 -0.5365
 1195TIP3    H2 3550   6.932   5.151   4.110 -0.0505 -1.4658 -0.3964
 1196TIP3   OH2 3551   4.833   6.387   2.955 -0.0093  0.5181 -0.5642
 1196TIP3    H1 3552   4.917   6.347   2.975  0.3626  1.8094  0.5428
 1196TIP3    H2 3553   4.786   6.319   2.905  1.4852 -0.3827 -0.8001
 1197TIP3   OH2 3554   5.704   5.347   5.883 -0.1705  0.1058 -0.2878
 1197TIP3    H1 3555   5.611   5.343   5.863  0.0395 -3.1763 -1.1848
 1197TIP3    H2 3556   5.733   5.430   5.846 -2.3347  0.2464 -1.8492
 1198TIP3   OH2 3557   3.375   4.757   5.357  0.3068 -0.4274 -0.1746
 1198TIP3    H1 3558   3.398   4.672   5.394  0.1276  0.0734  1.1151
 1198TIP3    H2 3559   3.300   4.786   5.408 -1.0528 -0.4598 -2.0366
 1199TIP3   OH2 3560   3.057   3.599   1.478 -0.2926  0.3660  0.7695
 1199TIP3    H1 3561   3.139   3.640   1.450 -0.1181 -0.4151  0.0859
 1199TIP3    H2 3562   3.010   3.668   1.526  0.4544  1.0253  0.5681
 1200TIP3   OH2 3563   5.964   2.720   2.396  0.3318  0.2019 -0.3935
 1200TIP3    H1 3564   6.051   2.712   2.435  0.7085  0.8424 -1.0661
 1200TIP3    H2 3565   5.942   2.813   2.406  0.4804  0.4066 -1.7394
 1201TIP3   OH2 3566   2.666   4.707   0.336 -0.2291 -0.0359  0.9578
 1201TIP3    H1 3567   2.628   4.642   0.277 -1.7243 -0.0397  1.8678
 1201TIP3    H2 3568   2.709   4.769   0.279 -1.6752 -0.0099 -0.1687
 1202TIP3   OH2 3569   4.425   5.572   4.803  0.0403  0.4961  0.3770
 1202TIP3    H1 3570   4.474   5.617   4.735 -0.5803  1.2901  0.4390
 1202TIP3    H2 3571   4.339   5.614   4.803 -0.6492 -0.8548  0.2675
 1203TIP3   OH2 3572   1.062   0.920   1.060 -0.0838  0.2270  0.5127
 1203TIP3    H1 3573   1.093   0.942   0.972  1.7102 -0.9882  0.8088
 1203TIP3    H2 3574   1.135   0.876   1.102 -1.9319 -2.0423  1.5682
 1204TIP3   OH2 3575   1.918   2.968   2.830 -0.7077 -0.0703  0.0617
 1204TIP3    H1 3576   1.949   3.044   2.780  1.6015 -0.8764  0.1281
 1204TIP3    H2 3577   1.930   2.992   2.921 -0.4434 -0.3201  0.0945
 1205TIP3   OH2 3578   5.833   0.514   2.221 -0.3868  0.0334 -0.5502
 1205TIP3    H1 3579   5.925   0.498   2.237  0.2088  1.6884 -1.9721
 1205TIP3    H2 3580   5.821   0.496   2.128 -1.5793 -0.4774 -0.3142
 1206TIP3   OH2 3581   0.753   3.095   3.793  0.4682 -0.0074 -0.1731
 1206TIP3    H1 3582   0.792   3.182   3.802 -2.6593  1.5495 -0.2431
 1206TIP3    H2 3583   0.722   3.092   3.703  1.2150 -1.5515 -0.4042
 1207TIP3   OH2 3584   6.990   5.348   4.999 -0.1631 -0.0088 -0.1475
 1207TIP3    H1 3585   6.945   5.403   4.934  0.0979 -0.7591 -0.9890
 1207TIP3    H2 3586   7.079   5.384   5.003 -0.0300 -0.2729 -0.6025
 1208TIP3   OH2 3587   4.043   2.283   0.894 -0.3303 -0.2586 -0.2986
 1208TIP3    H1 3588   4.089   2.334   0.960  0.5806 -2.2747  0.7352
 1208TIP3    H2 3589   3.978   2.233   0.943 -0.2929 -1.0732 -1.0478
 1209TIP3   OH2 3590   2.511   0.898   2.263  0.3142  0.5881 -0.0298
 1209TIP3    H1 3591   2.456   0.885   2.340  1.4195  1.6635  0.9821
 1209TIP3    H2 3592   2.591   0.937   2.297  1.1044  0.4636 -1.6541
 1210TIP3   OH2 3593   4.863   3.231   1.827  0.6319 -0.1986 -0.6318
 1210TIP3    H1 3594   4.838   3.311   1.872 -0.5639 -0.0407 -1.5245
 1210TIP3    H2 3595   4.790   3.171   1.842  0.1222 -0.0872 -2.4208
 1211TIP3   OH2 3596   6.087   4.111   5.077 -0.1540  0.0126 -0.2793
 1211TIP3    H1 3597   6.045   4.112   5.163 -0.5189 -0.2338 -0.4535
 1211TIP3    H2 3598   6.181   4.100   5.096 -0.2941 -0.6570  0.0654
 1212TIP3   OH2 3599   4.295   0.299   4.918 -0.0514  0.3336 -0.6375
 1212TIP3    H1 3600   4.390   0.311   4.924 -0.0655  0.2186 -0.1023
 1212TIP3    H2 3601   4.260   0.388   4.918 -0.0084  0.3598  0.4806
 1213TIP3   OH2 3602   4.501   6.786   3.688 -0.4880 -0.1883 -0.1317
 1213TIP3    H1 3603   4.551   6.837   3.625 -1.5281 -1.1861 -1.8541
 1213TIP3    H2 3604   4.563   6.721   3.721  0.0096  0.2035 -0.2872
 1214TIP3   OH2 3605   6.638   4.643   5.492 -0.6125 -0.3074  0.6399
 1214TIP3    H1 3606   6.720   4.617   5.450 -0.4788 -0.1164  0.7797
 1214TIP3    H2 3607   6.656   4.634   5.586 -1.0713 -1.2195  0.6498
 1215TIP3   OH2 3608   4.517   2.727   0.512 -0.1742  0.3829  0.1960
 1215TIP3    H1 3609   4.591   2.734   0.452 -0.4577 -0.0476 -0.2117
 1215TIP3    H2 3610   4.523   2.640   0.549 -0.3113  0.4520  0.3834
 1216TIP3   OH2 3611   1.160   0.206   4.468 -0.0354 -0.5440  0.3423
 1216TIP3    H1 3612   1.168   0.246   4.381 -1.7668 -1.0965 -0.1108
 1216TIP3    H2 3613   1.069   0.223   4.494 -0.2938 -2.5857  0.9146
 1217TIP3   OH2 3614   5.711   6.472   4.209 -0.7078  0.5964 -0.2339
 1217TIP3    H1 3615   5.623   6.487   4.176 -1.5280 -0.8933  1.1655
 1217TIP3    H2 3616   5.699   6.450   4.301  0.9317 -1.6652 -0.4883
 1218TIP3   OH2 3617   3.268   2.235   3.799 -0.1782 -0.6389  0.1521
 1218TIP3    H1 3618   3.253   2.329   3.784  2.0059 -0.2302  0.2030
 1218TIP3    H2 3619   3.289   2.229   3.893 -0.4379 -1.2087  0.1766
 1219TIP3   OH2 3620   0.564   2.339   5.820  0.2352 -0.2478  0.5804
 1219TIP3    H1 3621   0.592   2.356   5.730 -0.8986  0.3450  0.3287
 1219TIP3    H2 3622   0.606   2.408   5.871  0.0646  0.0268  0.3522
 1220TIP3   OH2 3623   2.599   4.511   4.762  0.0006 -0.1855 -0.1890
 1220TIP3    H1 3624   2.632   4.490   4.850  0.5592 -1.3790 -0.6580
 1220TIP3    H2 3625   2.578   4.426   4.724 -3.5019  0.4788 -0.0228
 1221TIP3   OH2 3626   3.980   6.655   0.749  0.8768 -0.4830 -0.2113
 1221TIP3    H1 3627   4.062   6.625   0.710  1.1249 -0.6582  0.4291
 1221TIP3    H2 3628   4.008   6.718   0.816  0.6496 -2.2408  1.6055
 1222TIP3   OH2 3629   4.328   6.609   3.832 -0.6063  0.1362  0.0699
 1222TIP3    H1 3630   4.383   6.667   3.780  0.8172 -0.2532  1.0910
 1222TIP3    H2 3631   4.347   6.521   3.801 -1.2532  0.0499 -0.1024
 1223TIP3   OH2 3632   6.597   0.637   4.967  0.6115 -0.1170 -0.1240
 1223TIP3    H1 3633   6.558   0.681   4.892  0.4865  0.9866  0.5538
 1223TIP3    H2 3634   6.640   0.708   5.016 -0.2706 -0.6104  1.4312
 1224TIP3   OH2 3635   7.058   0.329   0.469 -0.2332  0.0397 -0.2873
 1224TIP3    H1 3636   7.078   0.393   0.401 -1.5828 -0.1395 -0.8889
 1224TIP3    H2 3637   7.142   0.289   0.490  0.4424  1.1935 -0.7257
 1225TIP3   OH2 3638   7.122   4.932   5.836 -0.3012 -0.1517  0.3964
 1225TIP3    H1 3639   7.077   4.866   5.889 -1.5418 -1.0389 -1.6331
 1225TIP3    H2 3640   7.071   4.937   5.756  0.3711  2.5648  0.0373
 1226TIP3   OH2 3641   3.871   0.153   1.021  0.2799 -0.1811 -0.0733
 1226TIP3    H1 3642   3.945   0.094   1.013 -0.3309 -1.0193  0.3525
 1226TIP3    H2 3643   3.894   0.210   1.095  0.6491 -0.2103 -0.1653
 1227TIP3   OH2 3644   7.165   0.456   4.557  0.0965  0.3335  0.3421
 1227TIP3    H1 3645   7.176   0.551   4.552  0.9868  0.1875 -0.8455
 1227TIP3    H2 3646   7.249   0.423   4.588  0.2009 -0.1403 -0.3962
 1228TIP3   OH2 3647   3.272   5.728   4.093 -0.2980 -0.0901  0.3663
 1228TIP3    H1 3648   3.251   5.821   4.100 -2.6525 -0.4681 -0.5616
 1228TIP3    H2 3649   3.211   5.685   4.154  0.0329 -1.0922  0.0124
 1229TIP3   OH2 3650   2.505   1.107   0.404  0.0934  0.0689 -0.2651
 1229TIP3    H1 3651   2.581   1.132   0.456  1.4553 -0.8719 -1.7011
 1229TIP3    H2 3652   2.522   1.143   0.316 -0.2255 -1.6355 -1.0719
 1230TIP3   OH2 3653   2.550   6.695   0.231 -0.8460  0.1048 -0.3192
 1230TIP3    H1 3654   2.600   6.627   0.278 -1.2794  0.2039  0.3041
 1230TIP3    H2 3655   2.606   6.772   0.234 -1.3915  0.4899  1.2046
 1231TIP3   OH2 3656   1.785   2.280   0.937 -0.7982 -0.1768  0.4784
 1231TIP3    H1 3657   1.843   2.208   0.960 -0.7284 -1.1785 -2.3797
 1231TIP3    H2 3658   1.801   2.295   0.844 -4.6180 -0.1279 -0.3576
 1232TIP3   OH2 3659   4.912   0.247   4.540  0.1279 -0.5574  0.0346
 1232TIP3    H1 3660   4.972   0.229   4.612  0.2711 -0.9641 -0.1833
 1232TIP3    H2 3661   4.919   0.171   4.483 -0.4572 -0.5257 -0.0891
 1233TIP3   OH2 3662   0.468   4.720   3.084  0.0955  0.2028 -0.5073
 1233TIP3    H1 3663   0.457   4.641   3.033 -1.5326  0.9721 -1.4326
 1233TIP3    H2 3664   0.423   4.788   3.034 -0.8098  1.1807  1.4845
 1234TIP3   OH2 3665   7.008   0.370   3.295 -0.6189  0.2088  1.0039
 1234TIP3    H1 3666   7.062   0.443   3.328 -0.3981  0.6856 -0.3229
 1234TIP3    H2 3667   6.964   0.336   3.372 -1.3324  2.2620  1.5753
 1235TIP3   OH2 3668   3.918   2.384   3.257 -0.0883  0.0169  0.0252
 1235TIP3    H1 3669   3.844   2.386   3.319  0.5070 -5.9852  1.5772
 1235TIP3    H2 3670   3.876   2.372   3.171 -0.9768 -0.6825  0.5324
 1236TIP3   OH2 3671   5.488   2.626   0.932 -0.2160  0.4879 -0.4026
 1236TIP3    H1 3672   5.467   2.599   1.021 -2.9350  0.9392 -0.8382
 1236TIP3    H2 3673   5.465   2.718   0.929  0.4402  0.6311 -1.4233
 1237TIP3   OH2 3674   4.917   4.799   0.374  0.4620  0.1249  0.6293
 1237TIP3    H1 3675   4.902   4.801   0.280 -1.2991  1.7495  0.8791
 1237TIP3    H2 3676   4.857   4.732   0.406 -0.0109  0.5776  0.7155
 1238TIP3   OH2 3677   4.159   0.341   3.623  0.7976 -0.1045 -0.2201
 1238TIP3    H1 3678   4.150   0.321   3.717  0.8598  0.9043  0.0114
 1238TIP3    H2 3679   4.092   0.407   3.606  0.0318 -1.1025 -1.1637
 1239TIP3   OH2 3680   1.056   0.323   0.228  0.1900 -0.2729 -0.2153
 1239TIP3    H1 3681   1.072   0.381   0.302 -0.3084 -0.6390  0.1809
 1239TIP3    H2 3682   0.961   0.322   0.218  0.2454 -0.3083 -0.7941
 1240TIP3   OH2 3683   3.230   1.709   2.281 -0.3501  0.1434 -0.3748
 1240TIP3    H1 3684   3.188   1.782   2.327  0.1495 -0.6204  1.3981
 1240TIP3    H2 3685   3.253   1.744   2.195  0.3166  2.2411  0.5987
 1241TIP3   OH2 3686   3.985   2.304   4.098 -0.3406  0.0289  0.1923
 1241TIP3    H1 3687   4.020   2.315   4.186  1.6342 -1.8013 -0.2798
 1241TIP3    H2 3688   3.995   2.390   4.058  2.0699  0.0595  0.6940
 1242TIP3   OH2 3689   6.402   5.584   4.588  0.3461  0.0747  0.2649
 1242TIP3    H1 3690   6.378   5.491   4.589 -1.3019  0.4681  0.9410
 1242TIP3    H2 3691   6.469   5.592   4.656  1.0739 -0.7457 -0.3388
 1243TIP3   OH2 3692   2.471   4.596   0.129 -0.0176  0.0876  0.0820
 1243TIP3    H1 3693   2.441   4.546   0.205  1.1437 -0.4377  0.2161
 1243TIP3    H2 3694   2.390   4.623   0.085 -0.6877 -0.6262  0.8339
 1244TIP3   OH2 3695   3.460   3.085   1.318  0.6582 -0.1270  0.2059
 1244TIP3    H1 3696   3.365   3.090   1.334  0.1747  0.9644 -2.3945
 1244TIP3    H2 3697   3.479   2.991   1.320 -0.6164 -0.4166  0.1290
 1245TIP3   OH2 3698   1.454   4.891   2.396 -0.4376  0.2908 -0.0022
 1245TIP3    H1 3699   1.468   4.905   2.302 -0.3967  0.4130  0.0213
 1245TIP3    H2 3700   1.361   4.909   2.409 -0.7243 -0.9687 -0.2382
 1246TIP3   OH2 3701   1.550   6.043   0.564  0.3717 -0.2833 -0.6357
 1246TIP3    H1 3702   1.500   6.114   0.523 -0.3194 -0.2393  0.2460
 1246TIP3    H2 3703   1.487   6.001   0.622  1.3053 -0.3681  0.3351
 1247TIP3   OH2 3704   3.822   4.896   1.137  0.1492  0.8275 -0.0283
 1247TIP3    H1 3705   3.885   4.920   1.069 -0.9839 -1.2657 -1.9446
 1247TIP3    H2 3706   3.826   4.801   1.141 -1.8422  0.7275  0.8166
 1248TIP3   OH2 3707   0.486   4.068   5.815 -0.2318 -0.5372  0.3651
 1248TIP3    H1 3708   0.470   3.974   5.827  2.0608 -0.9057  0.9589
 1248TIP3    H2 3709   0.532   4.095   5.894 -0.3639  0.9661 -0.0478
 1249TIP3   OH2 3710   3.823   2.906   3.834  0.2124 -0.4357  0.2555
 1249TIP3    H1 3711   3.906   2.949   3.853 -1.1013  1.7234  1.5871
 1249TIP3    H2 3712   3.814   2.912   3.739  0.2391  2.0978  0.3516
 1250TIP3   OH2 3713   0.552   3.087   2.172 -0.2512 -0.0687 -0.3977
 1250TIP3    H1 3714   0.457   3.104   2.176 -0.0064  1.9907 -1.8191
 1250TIP3    H2 3715   0.585   3.116   2.257 -0.4875  2.7281 -1.1524
 1251TIP3   OH2 3716   0.605   1.824   1.528  0.0251 -0.1870 -0.1339
 1251TIP3    H1 3717   0.699   1.815   1.538 -0.0489 -2.0806 -0.7581
 1251TIP3    H2 3718   0.585   1.782   1.445 -1.2519  1.2235 -0.6027
 1252TIP3   OH2 3719   3.862   2.338   3.687  0.5566 -0.4484 -0.1583
 1252TIP3    H1 3720   3.816   2.422   3.694  1.3826 -0.0281  0.5132
 1252TIP3    H2 3721   3.792   2.273   3.683 -0.1043  0.1891  0.5642
 1253TIP3   OH2 3722   4.451   5.590   3.214 -0.0044 -0.3570 -0.1050
 1253TIP3    H1 3723   4.442   5.502   3.178 -0.7538 -0.6073  0.6600
 1253TIP3    H2 3724   4.518   5.631   3.160 -0.5668 -0.9662 -1.2949
 1254TIP3   OH2 3725   6.904   3.944   0.302 -0.1192 -0.0644  0.1120
 1254TIP3    H1 3726   6.811   3.952   0.280 -0.6096 -1.5625  1.4406
 1254TIP3    H2 3727   6.918   3.850   0.314  1.5339  0.1495  0.1393
 1255TIP3   OH2 3728   3.628   3.475   3.730  0.2379 -0.4681  0.1976
 1255TIP3    H1 3729   3.555   3.455   3.672 -0.3205  1.7616  0.0457
 1255TIP3    H2 3730   3.663   3.558   3.697  0.2103  0.6343  2.7252
 1256TIP3   OH2 3731   4.281   5.957   3.259  0.0777  0.2022  0.2435
 1256TIP3    H1 3732   4.315   6.041   3.228 -0.7738  0.9689  1.3179
 1256TIP3    H2 3733   4.297   5.897   3.186  0.2224  1.4100 -0.7640
 1257TIP3   OH2 3734   0.636   5.647   5.640  0.3799  0.2288  0.1868
 1257TIP3    H1 3735   0.594   5.728   5.666 -0.8773 -0.0155 -0.9450
 1257TIP3    H2 3736   0.722   5.673   5.609 -0.1529  1.1874 -0.5238
 1258TIP3   OH2 3737   1.598   4.813   2.950 -0.3122 -0.1484 -0.2064
 1258TIP3    H1 3738   1.656   4.879   2.989  0.6157  0.5519 -2.6116
 1258TIP3    H2 3739   1.605   4.737   3.009  1.2532  0.7313  0.8065
 1259TIP3   OH2 3740   4.978   2.048   0.257  0.0690  0.0511  0.4827
 1259TIP3    H1 3741   4.975   2.141   0.281 -0.0618  0.0141  0.6108
 1259TIP3    H2 3742   5.067   2.034   0.225  0.4650 -0.0624  1.5808
 1260TIP3   OH2 3743   5.733   0.837   5.687 -0.4121 -0.3123 -0.3688
 1260TIP3    H1 3744   5.801   0.770   5.695 -0.9005 -0.9435 -1.3056
 1260TIP3    H2 3745   5.651   0.788   5.687 -0.9628  0.4923  1.5602
 1261TIP3   OH2 3746   1.060   6.606   2.759 -0.1497  0.6030 -0.4664
 1261TIP3    H1 3747   1.078   6.644   2.845 -0.4966 -0.1863 -0.0314
 1261TIP3    H2 3748   1.008   6.673   2.714 -0.0544  0.9806 -0.0254
 1262TIP3   OH2 3749   1.277   2.057   1.403 -0.0278 -0.1818 -0.0368
 1262TIP3    H1 3750   1.294   2.080   1.312 -0.1143 -0.1477 -0.0446
 1262TIP3    H2 3751   1.192   2.014   1.401 -0.0481 -0.1454  0.0331
 1263TIP3   OH2 3752   4.760   4.661   4.590  0.0668 -0.4477  0.1618
 1263TIP3    H1 3753   4.710   4.661   4.508  1.9831 -3.1428 -1.1643
 1263TIP3    H2 3754   4.693   4.658   4.658 -1.6038 -0.4534 -1.3930
 1264TIP3   OH2 3755   0.597   6.151   1.237 -0.0990 -0.2451  0.1487
 1264TIP3    H1 3756   0.622   6.069   1.279 -2.3006 -1.1079 -0.0911
 1264TIP3    H2 3757   0.674   6.177   1.187  1.3486 -1.0578  1.8430
 1265TIP3   OH2 3758   6.008   4.632   0.819  0.1040  0.2017  0.0492
 1265TIP3    H1 3759   6.011   4.650   0.913 -1.4393 -0.7138  0.3168
 1265TIP3    H2 3760   5.914   4.629   0.799  0.3886 -0.9844 -1.2335
 1266TIP3   OH2 3761   1.450   4.866   3.669 -0.0922 -0.3467 -0.9405
 1266TIP3    H1 3762   1.494   4.875   3.585 -0.6327  0.0096 -1.1898
 1266TIP3    H2 3763   1.420   4.955   3.690  0.7605 -0.2609  0.0267
 1267TIP3   OH2 3764   1.206   0.188   5.369  0.0232 -0.0947  0.2118
 1267TIP3    H1 3765   1.184   0.133   5.294 -0.9021  0.8768 -0.2622
 1267TIP3    H2 3766   1.287   0.150   5.404  0.4833 -0.5552 -1.2742
 1268TIP3   OH2 3767   5.785   4.291   4.560  0.1197 -0.3190 -0.3707
 1268TIP3    H1 3768   5.759   4.268   4.471  0.3521  1.5153 -0.9625
 1268TIP3    H2 3769   5.802   4.385   4.556  0.4404 -0.2564  1.5474
 1269TIP3   OH2 3770   3.135   5.708   5.874  0.7744  0.1223 -0.3276
 1269TIP3    H1 3771   3.114   5.715   5.781 -2.5990 -0.6421  0.2497
 1269TIP3    H2 3772   3.145   5.799   5.903  0.3377  0.4395 -1.1508
 1270TIP3   OH2 3773   6.018   1.055   4.348  0.3848  0.7101  0.4415
 1270TIP3    H1 3774   5.941   1.106   4.373  0.7760  1.5376 -0.0169
 1270TIP3    H2 3775   6.018   1.056   4.253  0.1592 -0.5211  0.4182
 1271TIP3   OH2 3776   2.148   6.705   0.033 -0.2202 -0.0362 -0.0262
 1271TIP3    H1 3777   2.130   6.613   0.011  1.9192 -0.4554 -0.2303
 1271TIP3    H2 3778   2.078   6.754  -0.010 -0.5837 -1.4616 -1.1443
 1272TIP3   OH2 3779   6.947   3.953   3.617  0.5778  0.3209 -0.5319
 1272TIP3    H1 3780   6.938   3.865   3.652  0.0393  0.3947 -0.4716
 1272TIP3    H2 3781   7.020   3.947   3.556 -0.1679 -0.4523 -1.3879
 1273TIP3   OH2 3782   0.076   5.459   2.634 -0.8145 -0.0985  0.1473
 1273TIP3    H1 3783   0.098   5.478   2.543  0.0863 -2.4450 -0.1933
 1273TIP3    H2 3784   0.160   5.440   2.676 -1.4811 -3.0178  0.3878
 1274TIP3   OH2 3785   1.422   4.596   2.374 -0.5301  0.2875 -0.0187
 1274TIP3    H1 3786   1.364   4.606   2.298 -3.0951 -2.4965  1.3785
 1274TIP3    H2 3787   1.506   4.569   2.336 -0.0071  4.0603 -2.0763
 1275TIP3   OH2 3788   5.789   5.653   0.373 -0.0730 -0.5541 -0.0012
 1275TIP3    H1 3789   5.787   5.614   0.460  1.1476 -0.7273 -0.0293
 1275TIP3    H2 3790   5.834   5.737   0.385 -1.1998  0.0982 -0.2245
 1276TIP3   OH2 3791   4.671   3.519   1.142  0.0776  0.3601  1.1518
 1276TIP3    H1 3792   4.667   3.606   1.183  0.0119 -0.0192  1.9449
 1276TIP3    H2 3793   4.746   3.525   1.082  0.1925  0.8998  1.3393
 1277TIP3   OH2 3794   0.417   4.512   1.505 -0.1426  0.1558  0.5502
 1277TIP3    H1 3795   0.348   4.577   1.497  1.8826  2.4299  0.4957
 1277TIP3    H2 3796   0.482   4.537   1.440  2.0660 -0.1080  2.5343
 1278TIP3   OH2 3797   3.778   4.392   1.225 -0.2509 -1.0352 -0.2197
 1278TIP3    H1 3798   3.834   4.314   1.221  0.8700 -0.2939  0.3950
 1278TIP3    H2 3799   3.808   4.447   1.153  1.4009  0.3471  1.4321
 1279TIP3   OH2 3800   2.589   0.755   3.271 -0.4392  0.0563  0.3640
 1279TIP3    H1 3801   2.661   0.751   3.209 -0.7826  1.1127 -0.1154
 1279TIP3    H2 3802   2.537   0.830   3.244 -2.1598 -1.1281  0.2358
 1280TIP3   OH2 3803   2.014   2.439   1.279  0.3698 -0.3549 -0.1761
 1280TIP3    H1 3804   1.940   2.460   1.336  0.4627 -0.8952  0.1517
 1280TIP3    H2 3805   1.974   2.406   1.199  0.2576 -0.8118  0.0665
 1281TIP3   OH2 3806   1.276   2.606   0.576 -0.0554  0.0328 -0.2740
 1281TIP3    H1 3807   1.299   2.513   0.575 -1.4602 -0.3719  1.2337
 1281TIP3    H2 3808   1.352   2.649   0.616  0.2649 -0.5784 -0.2120
 1282TIP3   OH2 3809   6.285   1.807   1.159  0.4233 -0.0810 -0.3443
 1282TIP3    H1 3810   6.271   1.802   1.254  0.2188  0.9756 -0.3111
 1282TIP3    H2 3811   6.271   1.899   1.137 -0.8581 -0.5471 -1.6240
 1283TIP3   OH2 3812   1.552   1.004   1.863  0.1361 -0.0869 -0.0071
 1283TIP3    H1 3813   1.527   1.095   1.875  0.1571  0.1252 -1.4026
 1283TIP3    H2 3814   1.645   1.007   1.840 -0.2878 -0.2666 -1.9327
 1284TIP3   OH2 3815   0.845   4.175   4.063  0.6193 -0.0786 -0.6305
 1284TIP3    H1 3816   0.872   4.170   3.971  2.3530  0.3481 -0.1786
 1284TIP3    H2 3817   0.877   4.093   4.101  0.7747  0.1790 -0.2066
 1285TIP3   OH2 3818   2.859   3.230   2.758  0.3760 -0.3530  0.0587
 1285TIP3    H1 3819   2.854   3.307   2.701 -0.3122  0.4404  1.1518
 1285TIP3    H2 3820   2.925   3.252   2.823  0.0189 -0.5790  0.5101
 1286TIP3   OH2 3821   5.749   1.011   2.242 -0.0914  0.0403  0.5941
 1286TIP3    H1 3822   5.778   0.982   2.329 -1.4043 -1.5496  0.5570
 1286TIP3    H2 3823   5.775   0.940   2.184 -2.1007 -0.4662  0.2459
 1287TIP3   OH2 3824   5.819   6.631   3.308 -0.0356 -0.1830 -0.3333
 1287TIP3    H1 3825   5.796   6.656   3.398  1.8092  1.6978 -0.3177
 1287TIP3    H2 3826   5.900   6.581   3.317 -0.6188 -1.2734 -0.8782
 1288TIP3   OH2 3827   2.469   3.494   1.595 -0.3387  0.4946 -0.0734
 1288TIP3    H1 3828   2.563   3.497   1.612 -0.3015 -0.1432 -0.1323
 1288TIP3    H2 3829   2.434   3.438   1.664 -0.5384 -0.0409 -0.5969
 1289TIP3   OH2 3830   1.621   5.444   4.650 -0.2362 -0.1695 -0.3066
 1289TIP3    H1 3831   1.530   5.426   4.674  0.0025  0.6875  1.4057
 1289TIP3    H2 3832   1.672   5.415   4.725  0.6346  1.9353 -0.0158
 1290TIP3   OH2 3833   1.856   0.868   5.220  0.0291 -0.4141 -0.0715
 1290TIP3    H1 3834   1.854   0.909   5.306 -0.2527  0.0966 -0.3165
 1290TIP3    H2 3835   1.944   0.832   5.212 -0.3305 -1.6194  0.9577
 1291TIP3   OH2 3836   0.324   0.297   1.098 -0.6335  0.1985  0.2300
 1291TIP3    H1 3837   0.304   0.261   1.184 -0.0161 -1.4933 -0.3010
 1291TIP3    H2 3838   0.276   0.241   1.037  2.1882 -1.3046 -0.7718
 1292TIP3   OH2 3839   4.209   3.845   1.160  0.1528  0.1647 -0.3037
 1292TIP3    H1 3840   4.242   3.757   1.178  0.2845 -0.0227 -1.3740
 1292TIP3    H2 3841   4.122   3.847   1.201 -0.7351 -1.2012 -1.9825
 1293TIP3   OH2 3842   5.209   5.945   1.719 -0.1041 -0.2302  0.9560
 1293TIP3    H1 3843   5.163   6.020   1.757  0.1147 -0.3560  1.4818
 1293TIP3    H2 3844   5.223   5.886   1.793  0.5791 -0.3528  0.7414
 1294TIP3   OH2 3845   4.062   6.373   0.053 -0.0859  0.0546 -0.2365
 1294TIP3    H1 3846   4.122   6.427   0.001  0.1020  0.1387  0.0675
 1294TIP3    H2 3847   3.975   6.397   0.020 -0.1094  1.5205  0.7916
 1295TIP3   OH2 3848   7.019   4.185   3.307 -0.4683 -0.1713 -0.1629
 1295TIP3    H1 3849   6.989   4.224   3.389  0.6604  0.2309  0.0590
 1295TIP3    H2 3850   7.107   4.218   3.294 -0.2933 -0.9430 -1.0839
 1296TIP3   OH2 3851   3.960   6.812   1.737  0.1081 -0.2784 -0.1307
 1296TIP3    H1 3852   3.899   6.748   1.699  0.6160 -1.2735  0.6856
 1296TIP3    H2 3853   4.039   6.804   1.685  0.2308 -0.4473  0.0793
 1297TIP3   OH2 3854   0.374   6.785   4.920  0.5736 -0.3729 -0.1829
 1297TIP3    H1 3855   0.390   6.743   5.004 -0.1547  0.2726  0.2833
 1297TIP3    H2 3856   0.302   6.846   4.936  0.4252 -0.2401 -1.2713
 1298TIP3   OH2 3857   6.746   5.948   4.091 -0.9728 -0.4976  0.6667
 1298TIP3    H1 3858   6.800   5.876   4.058 -1.6802 -0.5951 -0.3287
 1298TIP3    H2 3859   6.743   5.935   4.186  1.7651  0.2240  0.9234
 1299TIP3   OH2 3860   1.107   3.358   3.331 -0.0028  0.0365 -0.4697
 1299TIP3    H1 3861   1.066   3.403   3.257 -0.0215 -0.9239 -1.0587
 1299TIP3    H2 3862   1.187   3.408   3.348 -0.2626  0.5731 -0.7907
 1300TIP3   OH2 3863   3.768   6.059   0.113  0.2841  0.0072 -0.2008
 1300TIP3    H1 3864   3.859   6.029   0.113  0.4522  0.5125  0.1022
 1300TIP3    H2 3865   3.763   6.122   0.185 -1.0676 -2.3158  1.8745
 1301TIP3   OH2 3866   6.949   5.171   5.536  0.0375 -0.0339  0.0556
 1301TIP3    H1 3867   7.019   5.151   5.474  0.2531  0.6637  0.0707
 1301TIP3    H2 3868   6.885   5.221   5.486  1.2306  2.4610  0.8838
 1302TIP3   OH2 3869   6.659   4.425   5.206  0.5974  0.4009 -0.2499
 1302TIP3    H1 3870   6.602   4.421   5.130  0.4108 -0.7289 -0.0734
 1302TIP3    H2 3871   6.704   4.340   5.207  1.1757  0.6984  0.4549
 1303TIP3   OH2 3872   0.665   6.092   4.559 -0.0948 -0.1596 -0.4384
 1303TIP3    H1 3873   0.641   6.009   4.599  1.7120 -0.4283  0.1965
 1303TIP3    H2 3874   0.703   6.143   4.630 -2.2796  1.7308 -0.5441
 1304TIP3   OH2 3875   6.340   1.383   4.428 -0.2415  0.1773  0.0927
 1304TIP3    H1 3876   6.255   1.424   4.444 -0.3665 -0.1169  0.1835
 1304TIP3    H2 3877   6.323   1.289   4.432  0.4506  0.0827  2.1333
 1305TIP3   OH2 3878   4.585   4.998   3.801  0.4770 -0.2899  0.1556
 1305TIP3    H1 3879   4.662   5.037   3.760  1.5681 -1.6013  0.8809
 1305TIP3    H2 3880   4.587   4.906   3.775 -0.0525 -0.6533  1.3097
 1306TIP3   OH2 3881   1.033   1.208   3.629  0.0022  1.0051  0.2998
 1306TIP3    H1 3882   1.077   1.256   3.699 -0.0385  0.6453  0.5735
 1306TIP3    H2 3883   1.035   1.268   3.554  1.2655  0.8607  0.2044
 1307TIP3   OH2 3884   1.504   6.423   0.850 -0.8776  0.0981  0.4691
 1307TIP3    H1 3885   1.595   6.445   0.829 -0.7130 -0.1487  0.9210
 1307TIP3    H2 3886   1.467   6.505   0.881 -0.8564  0.2378  0.1374
 1308TIP3   OH2 3887   1.310   1.089   4.941  0.1551 -0.1190 -0.1316
 1308TIP3    H1 3888   1.377   1.069   5.007  0.1730 -1.6559 -0.5789
 1308TIP3    H2 3889   1.232   1.111   4.992  1.2759  3.1117  0.4326
 1309TIP3   OH2 3890   0.854   3.296   5.179 -0.0852 -0.4691 -0.2129
 1309TIP3    H1 3891   0.760   3.302   5.163 -0.2973  0.3516  1.2166
 1309TIP3    H2 3892   0.869   3.204   5.199 -0.2353 -1.0001 -2.3114
 1310TIP3   OH2 3893   1.854   4.260   3.881  0.7274 -0.2127  0.5233
 1310TIP3    H1 3894   1.844   4.269   3.976 -3.2757 -0.8906  0.3561
 1310TIP3    H2 3895   1.815   4.340   3.845  0.8850 -0.6014 -0.5665
 1311TIP3   OH2 3896   4.911   0.102   1.227 -0.3325  0.2808  0.2892
 1311TIP3    H1 3897   4.869   0.017   1.212 -0.3237  0.0670  1.4262
 1311TIP3    H2 3898   4.838   0.161   1.250 -0.0524 -0.1496  2.5225
 1312TIP3   OH2 3899   1.597   3.494   1.207 -0.3971  0.0876 -0.0617
 1312TIP3    H1 3900   1.586   3.403   1.235  0.3593  0.0182  0.0478
 1312TIP3    H2 3901   1.687   3.498   1.176  0.4078  1.3560  2.1684
 1313TIP3   OH2 3902   3.774   6.028   3.316  0.3763 -0.3012 -0.5480
 1313TIP3    H1 3903   3.782   5.998   3.407  0.2464  0.1998 -0.3719
 1313TIP3    H2 3904   3.693   6.078   3.314  0.5988  0.0527 -0.8407
 1314TIP3   OH2 3905   2.253   2.268   4.912 -0.6327  0.7755 -0.1965
 1314TIP3    H1 3906   2.311   2.303   4.980 -0.7874  0.9064 -0.1331
 1314TIP3    H2 3907   2.252   2.174   4.927 -1.1173  0.8615  0.3307
 1315TIP3   OH2 3908   6.161   5.846   1.551 -0.7050 -0.0326 -0.3619
 1315TIP3    H1 3909   6.129   5.930   1.584 -1.5382 -1.0998  1.7845
 1315TIP3    H2 3910   6.082   5.792   1.543 -0.0483 -0.9965 -0.4861
 1316TIP3   OH2 3911   6.853   4.812   3.463 -0.1311 -0.2039  0.5175
 1316TIP3    H1 3912   6.919   4.752   3.430  0.3247  0.7292 -0.3488
 1316TIP3    H2 3913   6.874   4.823   3.556  0.6157 -0.3318  0.3717
 1317TIP3   OH2 3914   0.988   3.906   4.951 -0.1299 -0.1973 -0.9865
 1317TIP3    H1 3915   0.943   3.969   5.006  1.4213  1.0149 -1.0329
 1317TIP3    H2 3916   0.918   3.854   4.911 -1.4420  1.3203 -0.7571
 1318TIP3   OH2 3917   2.698   6.563   5.575 -0.2395  0.0562 -0.1222
 1318TIP3    H1 3918   2.740   6.483   5.543  1.1215  0.6163  0.1823
 1318TIP3    H2 3919   2.690   6.618   5.498  0.0873  0.1591 -0.0832
 1319TIP3   OH2 3920   6.092   4.501   5.684 -0.2646  0.3232  0.0108
 1319TIP3    H1 3921   6.102   4.576   5.625 -2.6985  0.1575 -0.7395
 1319TIP3    H2 3922   6.158   4.438   5.654  0.1205  1.1674 -0.9951
 1320TIP3   OH2 3923   3.019   3.570   2.337 -0.0514  0.1422  0.2200
 1320TIP3    H1 3924   3.087   3.539   2.397  0.9274 -1.6103 -1.6516
 1320TIP3    H2 3925   2.943   3.515   2.358 -0.2109  0.5925  0.8522
 1321TIP3   OH2 3926   4.803   4.338   4.508 -0.4787  0.4531 -0.5524
 1321TIP3    H1 3927   4.834   4.399   4.574  0.9307 -0.1245 -0.6467
 1321TIP3    H2 3928   4.811   4.252   4.549  0.6073  0.0696 -1.5168
 1322TIP3   OH2 3929   3.065   2.073   2.572  0.2530  0.0356 -0.2386
 1322TIP3    H1 3930   3.130   2.044   2.508  1.7926  0.2409  1.1490
 1322TIP3    H2 3931   3.070   2.169   2.569  0.1127  0.0494 -0.0490
 1323TIP3   OH2 3932   4.392   2.107   1.887 -0.2226 -0.6394 -0.0060
 1323TIP3    H1 3933   4.381   2.015   1.864 -1.2497 -0.4551 -0.2918
 1323TIP3    H2 3934   4.477   2.131   1.849  1.2099 -2.0552  2.0468
 1324TIP3   OH2 3935   1.214   5.169   2.252  0.1424 -0.6722  0.1412
 1324TIP3    H1 3936   1.135   5.183   2.200 -1.4752 -1.3999  2.2446
 1324TIP3    H2 3937   1.222   5.073   2.256  0.7113 -0.6096  0.5375
 1325TIP3   OH2 3938   4.766   4.798   5.694  0.4635 -0.2400  0.2003
 1325TIP3    H1 3939   4.713   4.855   5.638  0.6624 -0.2323  0.0160
 1325TIP3    H2 3940   4.853   4.839   5.694  0.5117 -0.3397  0.3674
 1326TIP3   OH2 3941   4.117   6.655   2.148  0.0086  0.1649  0.6406
 1326TIP3    H1 3942   4.140   6.582   2.205 -0.4932 -1.6207 -1.3235
 1326TIP3    H2 3943   4.090   6.725   2.208  0.3331 -1.3023  2.5849
 1327TIP3   OH2 3944   3.745   4.733   4.637  0.3153 -0.3104  0.1494
 1327TIP3    H1 3945   3.815   4.784   4.678 -0.8036  0.6877  0.8919
 1327TIP3    H2 3946   3.737   4.655   4.692  1.3097 -0.7862 -0.3597
 1328TIP3   OH2 3947   5.395   5.216   0.353  0.2661  0.6328  0.0769
 1328TIP3    H1 3948   5.466   5.250   0.298 -2.2277  1.0824 -3.2163
 1328TIP3    H2 3949   5.426   5.131   0.384  2.3882  1.0135 -0.8774
 1329TIP3   OH2 3950   4.513   0.332   5.614 -0.5057  0.2423 -0.5551
 1329TIP3    H1 3951   4.436   0.351   5.667 -0.1969 -0.9755  0.3731
 1329TIP3    H2 3952   4.480   0.281   5.540 -0.4719 -1.2667  0.4357
 1330TIP3   OH2 3953   0.168   6.408   1.232 -0.0948  0.5926 -0.9471
 1330TIP3    H1 3954   0.215   6.326   1.247  1.1661  1.7525  2.4920
 1330TIP3    H2 3955   0.091   6.382   1.182  0.6951 -2.5219 -0.7861
 1331TIP3   OH2 3956   1.036   3.242   3.810  0.4247  0.1160  0.3606
 1331TIP3    H1 3957   1.112   3.297   3.832  0.8216 -0.7431  1.1983
 1331TIP3    H2 3958   1.074   3.160   3.778 -0.1158 -0.6693  1.6354
 1332TIP3   OH2 3959   1.763   6.174   0.771  0.4019  0.4134  0.2675
 1332TIP3    H1 3960   1.821   6.099   0.760 -0.3943 -0.0223 -1.2138
 1332TIP3    H2 3961   1.691   6.158   0.710 -0.4035  1.7824  0.8170
 1333TIP3   OH2 3962   2.643   5.919   1.353 -0.0460  0.9863  0.0587
 1333TIP3    H1 3963   2.685   5.942   1.270  0.9134 -1.5611 -0.2606
 1333TIP3    H2 3964   2.715   5.903   1.413 -0.6367 -0.1734  0.4910
 1334TIP3   OH2 3965   4.332   1.104   4.637  0.4326  0.1321 -0.3415
 1334TIP3    H1 3966   4.237   1.106   4.632  0.2507  1.6784  2.2057
 1334TIP3    H2 3967   4.352   1.053   4.715  2.0043 -4.0020 -3.0573
 1335TIP3   OH2 3968   4.883   5.645   2.230 -0.0563  0.0024 -0.0919
 1335TIP3    H1 3969   4.915   5.716   2.286  0.0884  1.0139 -1.4012
 1335TIP3    H2 3970   4.828   5.592   2.287  2.0211 -0.4488  1.6548
 1336TIP3   OH2 3971   3.085   6.286   0.072  0.0958  0.1683  0.2123
 1336TIP3    H1 3972   3.118   6.351   0.135 -0.1489  1.5592 -1.0365
 1336TIP3    H2 3973   3.017   6.333   0.023 -1.3244 -1.5793  0.4181
 1337TIP3   OH2 3974  -0.019   0.656   1.106 -0.1019 -0.0111 -0.3861
 1337TIP3    H1 3975  -0.015   0.749   1.128  1.3934 -0.1889  0.2016
 1337TIP3    H2 3976   0.068   0.636   1.071 -0.9219 -0.8365 -2.0667
 1338TIP3   OH2 3977   3.679   0.182   3.925 -0.5994 -0.1515 -0.4276
 1338TIP3    H1 3978   3.591   0.153   3.900  0.0012 -1.9078 -0.6490
 1338TIP3    H2 3979   3.709   0.116   3.987  1.0793 -0.3390 -1.3852
 1339TIP3   OH2 3980   6.980   0.345   4.861  0.3564  0.5914 -0.1277
 1339TIP3    H1 3981   7.039   0.419   4.869 -0.8548  1.6055 -0.3324
 1339TIP3    H2 3982   6.913   0.374   4.799 -1.8045  0.4793  2.0101
 1340TIP3   OH2 3983   5.284   6.231   4.079 -0.2234 -0.4104  0.0120
 1340TIP3    H1 3984   5.311   6.209   3.990  0.0499 -0.0061 -0.0079
 1340TIP3    H2 3985   5.189   6.217   4.080  0.0443 -2.5130  0.2727
 1341TIP3   OH2 3986   2.882   6.388   4.385 -0.2265 -0.1934  0.0883
 1341TIP3    H1 3987   2.917   6.313   4.337  0.5267  0.1493  0.0980
 1341TIP3    H2 3988   2.946   6.405   4.453 -0.3766  0.4837  0.0654
 1342TIP3   OH2 3989   0.741   2.314   3.352  0.5770 -0.6819  0.1004
 1342TIP3    H1 3990   0.658   2.290   3.393  0.4292 -1.6297 -0.7181
 1342TIP3    H2 3991   0.719   2.386   3.293  1.0052  1.5861  2.4943
 1343TIP3   OH2 3992   6.608   2.291   3.660 -0.3722  0.1662 -0.1919
 1343TIP3    H1 3993   6.526   2.271   3.615 -0.8634  0.7039  0.4421
 1343TIP3    H2 3994   6.660   2.210   3.653 -0.6318  0.0880 -1.2818
 1344TIP3   OH2 3995   6.811   6.284   3.082  0.2394  0.5887 -0.7670
 1344TIP3    H1 3996   6.809   6.205   3.027  1.3603  1.7706 -2.5911
 1344TIP3    H2 3997   6.896   6.280   3.126 -1.0088 -0.8338  1.7885
 1345TIP3   OH2 3998   2.009   3.453   5.144  0.3016  0.4622 -0.1778
 1345TIP3    H1 3999   2.090   3.504   5.142 -0.4598  1.7124  0.1885
 1345TIP3    H2 4000   1.942   3.512   5.112 -0.5768 -0.3807  0.0534
 1346TIP3   OH2 4001   6.144   5.416   5.865 -0.6873  0.1009  0.4149
 1346TIP3    H1 4002   6.153   5.339   5.809 -0.7139  1.2758 -1.2699
 1346TIP3    H2 4003   6.095   5.478   5.812 -0.4544  1.3701  1.6466
 1347TIP3   OH2 4004   2.493   0.425   5.590  0.2810  0.1914 -0.0390
 1347TIP3    H1 4005   2.493   0.520   5.576 -1.6554  0.3694  0.9592
 1347TIP3    H2 4006   2.585   0.400   5.579  0.9397  2.2645  0.3144
 1348TIP3   OH2 4007   4.760   3.041   4.442  0.0357  0.0358  0.0519
 1348TIP3    H1 4008   4.806   3.065   4.522  0.8900 -0.8848 -0.1463
 1348TIP3    H2 4009   4.729   2.952   4.458 -2.1867  0.7978  0.3876
 1349TIP3   OH2 4010   5.690   5.407   5.123  0.0556 -0.3025 -0.1542
 1349TIP3    H1 4011   5.756   5.338   5.127  0.2126 -0.1048  0.7330
 1349TIP3    H2 4012   5.682   5.439   5.213 -1.0003 -0.0879 -0.3127
 1350TIP3   OH2 4013   2.200   6.641   4.168  0.1373  0.2479  0.1738
 1350TIP3    H1 4014   2.214   6.611   4.078 -0.0919 -0.8347  0.4835
 1350TIP3    H2 4015   2.279   6.613   4.215  0.4322  1.1554  0.2341
 1351TIP3   OH2 4016   3.306   2.784   2.942  0.4847  0.5159 -0.0426
 1351TIP3    H1 4017   3.338   2.749   3.025 -2.8434 -0.5832  0.9337
 1351TIP3    H2 4018   3.280   2.874   2.962 -1.6235 -0.1702  0.6106
 1352TIP3   OH2 4019   1.541   4.241   4.689 -0.7646  0.5575  0.0211
 1352TIP3    H1 4020   1.553   4.163   4.635 -0.2683 -0.5905  1.7030
 1352TIP3    H2 4021   1.477   4.215   4.755  0.4641  1.0746  1.4834
 1353TIP3   OH2 4022   4.781   6.134   2.054  0.1337  0.6406  0.4215
 1353TIP3    H1 4023   4.863   6.184   2.061  0.6200 -0.1602  0.6288
 1353TIP3    H2 4024   4.728   6.183   1.991  0.4145  1.6469  0.9419
 1354TIP3   OH2 4025   4.423   0.024   3.835  0.4775  0.2083 -0.3409
 1354TIP3    H1 4026   4.472  -0.041   3.783 -0.2898 -0.1604 -0.6200
 1354TIP3    H2 4027   4.443   0.107   3.793 -0.1222 -0.0857 -1.2360
 1355TIP3   OH2 4028   3.316   2.381   0.200  0.0012 -0.1810  0.4026
 1355TIP3    H1 4029   3.397   2.338   0.226  0.1832 -0.1366 -0.0834
 1355TIP3    H2 4030   3.334   2.474   0.214 -0.1319 -0.2063  0.7448
 1356TIP3   OH2 4031   3.404   4.994   5.098 -0.1213  0.0665 -0.1540
 1356TIP3    H1 4032   3.476   4.974   5.157 -0.5561 -0.1299  0.3194
 1356TIP3    H2 4033   3.342   4.922   5.111  0.3684 -0.7023 -1.8426
 1357TIP3   OH2 4034   2.079   0.507   4.613 -0.1138 -0.1831  0.3184
 1357TIP3    H1 4035   2.083   0.419   4.649 -1.1526 -0.5267 -0.3475
 1357TIP3    H2 4036   2.171   0.535   4.608  0.2730 -1.3962  0.1430
 1358TIP3   OH2 4037   5.372   1.204   3.172 -0.1236  0.6295  0.4760
 1358TIP3    H1 4038   5.329   1.278   3.215  0.0036  0.0217  1.7020
 1358TIP3    H2 4039   5.465   1.217   3.189 -0.2397 -1.3096  3.3723
 1359TIP3   OH2 4040   4.484   6.182   0.651 -0.0779 -0.1095 -0.0934
 1359TIP3    H1 4041   4.467   6.112   0.714 -0.9558 -0.1910 -0.4102
 1359TIP3    H2 4042   4.417   6.248   0.670 -0.5220 -0.2582 -1.1185
 1360TIP3   OH2 4043   3.237   3.973   4.102  0.3628 -0.0540 -0.1037
 1360TIP3    H1 4044   3.323   3.987   4.062  1.1436 -0.7283  1.2627
 1360TIP3    H2 4045   3.225   3.878   4.097 -0.1437  0.0050  0.0364
 1361TIP3   OH2 4046   4.887   2.898   2.381 -0.3843  0.7710 -0.1514
 1361TIP3    H1 4047   4.906   2.988   2.355  0.1267  0.9702  0.8449
 1361TIP3    H2 4048   4.884   2.901   2.477  0.1017 -0.3617 -0.0865
 1362TIP3   OH2 4049   0.990   1.827   4.556  0.1028 -0.3917  0.5481
 1362TIP3    H1 4050   0.904   1.806   4.592 -0.3386  0.0575 -0.2246
 1362TIP3    H2 4051   0.988   1.921   4.539  1.1676 -0.1517  1.5892
 1363TIP3   OH2 4052   6.405   0.040   0.972 -0.0586 -0.0366  0.3449
 1363TIP3    H1 4053   6.363   0.052   1.057 -2.1060 -1.2692 -0.4260
 1363TIP3    H2 4054   6.394   0.125   0.929 -1.2636 -0.1266  0.4161
 1364TIP3   OH2 4055   0.936   3.449   4.960 -0.3346 -0.5263 -0.4418
 1364TIP3    H1 4056   0.858   3.413   4.918 -0.8731 -0.2194  0.2816
 1364TIP3    H2 4057   0.942   3.404   5.044 -0.4275  0.3191  0.0257
 1365TIP3   OH2 4058   1.727   1.375   0.314 -0.2872  0.1531 -0.1811
 1365TIP3    H1 4059   1.739   1.317   0.239  2.9474  0.1851  0.1992
 1365TIP3    H2 4060   1.714   1.316   0.388 -0.5508  0.0384 -0.3172
 1366TIP3   OH2 4061   3.233   2.325   5.541  0.2529 -0.0781 -0.2813
 1366TIP3    H1 4062   3.211   2.353   5.629 -0.9634  2.0201 -1.1772
 1366TIP3    H2 4063   3.229   2.230   5.544  1.5351 -0.1374  2.2049
 1367TIP3   OH2 4064   5.484   5.502   2.876  0.0664  0.0088 -0.2828
 1367TIP3    H1 4065   5.419   5.432   2.869 -0.7509  0.6860  0.3600
 1367TIP3    H2 4066   5.459   5.551   2.955  0.3524  1.3037 -0.9742
 1368TIP3   OH2 4067   3.807   0.715   5.876 -0.0604 -0.1665 -0.4117
 1368TIP3    H1 4068   3.836   0.691   5.788 -1.6636 -2.0363 -0.4938
 1368TIP3    H2 4069   3.728   0.767   5.862  0.3282  0.5317 -0.0809
 1369TIP3   OH2 4070   2.777   6.392   1.893 -0.2047 -0.4869  0.5707
 1369TIP3    H1 4071   2.821   6.309   1.878 -0.7234 -0.9072  1.3210
 1369TIP3    H2 4072   2.830   6.456   1.846  0.0372 -1.2763 -0.2634
 1370TIP3   OH2 4073   6.377   4.890   1.933 -0.0446 -0.1255  0.0743
 1370TIP3    H1 4074   6.455   4.868   1.984 -1.1897  0.2000  2.0568
 1370TIP3    H2 4075   6.309   4.832   1.967 -1.1859  1.0611 -0.1292
 1371TIP3   OH2 4076   5.798   2.169   5.263 -0.1227 -1.2429  0.3885
 1371TIP3    H1 4077   5.824   2.228   5.335  0.9516  0.0394 -0.9817
 1371TIP3    H2 4078   5.864   2.099   5.265  0.1899 -0.9554  0.3652
 1372TIP3   OH2 4079   1.651   5.524   0.039  0.3212  0.3671 -0.1610
 1372TIP3    H1 4080   1.636   5.435   0.008  1.1934  0.6297 -1.3618
 1372TIP3    H2 4081   1.685   5.513   0.128  0.1636 -0.4737 -0.1973
 1373TIP3   OH2 4082   3.885   5.659   2.378 -0.6190 -0.0874  0.3127
 1373TIP3    H1 4083   3.814   5.658   2.314  0.9827  0.1908 -1.5545
 1373TIP3    H2 4084   3.908   5.566   2.389 -1.3433 -0.1931  1.0559
 1374TIP3   OH2 4085   0.910   1.467   2.667  0.2524  0.0640 -0.5385
 1374TIP3    H1 4086   0.931   1.465   2.760 -0.5536 -1.5699 -0.3642
 1374TIP3    H2 4087   0.991   1.439   2.624  0.5691  0.6457 -0.3389
 1375TIP3   OH2 4088   6.963   1.224   1.190 -0.0920 -0.2190 -0.3931
 1375TIP3    H1 4089   6.879   1.268   1.184 -0.3357 -0.7761 -1.1263
 1375TIP3    H2 4090   6.962   1.159   1.120  0.5207 -0.9562  0.2590
 1376TIP3   OH2 4091   3.537   4.389   2.932  0.3117 -0.1317  0.1923
 1376TIP3    H1 4092   3.575   4.321   2.877 -1.3328 -0.8431 -0.1261
 1376TIP3    H2 4093   3.568   4.369   3.020 -0.2622 -1.4010  0.1292
 1377TIP3   OH2 4094   4.590   5.752   0.920  0.6598  0.4897  0.2305
 1377TIP3    H1 4095   4.562   5.661   0.907 -2.0866  1.2760 -0.0716
 1377TIP3    H2 4096   4.660   5.746   0.986  0.7085 -1.8407  0.0712
 1378TIP3   OH2 4097   3.595   4.219   5.865  0.7537 -0.1800 -0.0779
 1378TIP3    H1 4098   3.562   4.308   5.855 -0.2147 -0.5867 -0.5825
 1378TIP3    H2 4099   3.679   4.219   5.818  1.2124  0.6926  0.7015
 1379TIP3   OH2 4100   0.177   2.618   3.231  0.2967  0.5858 -0.5692
 1379TIP3    H1 4101   0.125   2.594   3.308  0.5061  0.5064 -0.4510
 1379TIP3    H2 4102   0.199   2.710   3.244  0.0070  0.6777 -0.7240
 1380TIP3   OH2 4103   6.349   4.268   1.860 -0.0084  0.5231 -0.5245
 1380TIP3    H1 4104   6.414   4.331   1.889 -0.8456  2.1298 -1.9318
 1380TIP3    H2 4105   6.400   4.193   1.828  1.0800  1.1773 -0.3465
 1381TIP3   OH2 4106   6.006   4.713   4.249 -0.4014 -0.5297 -0.1102
 1381TIP3    H1 4107   5.946   4.658   4.300  0.0241 -1.9899 -1.1101
 1381TIP3    H2 4108   6.074   4.652   4.219 -0.5984  0.2411 -2.3474
 1382TIP3   OH2 4109   2.099   5.234   3.752 -0.6314  0.0595 -0.2035
 1382TIP3    H1 4110   2.010   5.261   3.730 -0.2236  0.8835 -0.8892
 1382TIP3    H2 4111   2.139   5.312   3.790  0.4229  0.3201 -1.7765
 1383TIP3   OH2 4112   6.139   3.735   5.025 -0.4512  0.3937 -0.5634
 1383TIP3    H1 4113   6.138   3.721   5.120 -0.1618 -2.0637 -0.8831
 1383TIP3    H2 4114   6.174   3.824   5.015 -2.1330  1.4288  1.6665
 1384TIP3   OH2 4115   3.730   5.309   1.286 -0.0575 -0.0974  0.7426
 1384TIP3    H1 4116   3.650   5.354   1.258  0.6049 -0.0403 -1.1918
 1384TIP3    H2 4117   3.702   5.219   1.305 -0.8724  0.3676  1.8247
 1385TIP3   OH2 4118   1.729   1.911   2.263 -0.6340 -0.0661 -0.2230
 1385TIP3    H1 4119   1.813   1.912   2.310 -1.5907 -0.0845  1.5457
 1385TIP3    H2 4120   1.728   1.995   2.216 -0.1089  0.4536  0.6483
 1386TIP3   OH2 4121   5.105   0.601   0.811  0.5251 -0.3212  0.2625
 1386TIP3    H1 4122   5.024   0.629   0.854 -1.2424 -2.6529 -1.2606
 1386TIP3    H2 4123   5.165   0.674   0.822 -2.1729  2.0365  0.4116
 1387TIP3   OH2 4124   4.361   4.475   3.879  0.0560  0.1905 -0.1616
 1387TIP3    H1 4125   4.388   4.541   3.815 -0.6997 -1.4613 -2.2731
 1387TIP3    H2 4126   4.320   4.406   3.828  0.7266 -1.9306  1.9446
 1388TIP3   OH2 4127   2.495   3.668   4.139  0.7462  0.0296  0.5787
 1388TIP3    H1 4128   2.444   3.714   4.072 -1.2682  0.9913  2.6138
 1388TIP3    H2 4129   2.584   3.665   4.105  0.0403  1.5455 -1.5670
 1389TIP3   OH2 4130   5.728   4.677   0.797 -0.2676 -0.4623  0.2075
 1389TIP3    H1 4131   5.679   4.626   0.733  0.4353 -0.1889 -0.5746
 1389TIP3    H2 4132   5.665   4.698   0.865 -0.8536 -1.3760 -0.0389
 1390TIP3   OH2 4133   6.365   4.676   4.301 -0.4441  0.7818 -0.7851
 1390TIP3    H1 4134   6.323   4.638   4.378 -0.6032  1.1499 -0.6897
 1390TIP3    H2 4135   6.452   4.635   4.298  0.1699  1.8972  0.4858
 1391TIP3   OH2 4136   3.772   3.308   0.938  0.1335 -0.0701 -0.5185
 1391TIP3    H1 4137   3.773   3.248   0.864  1.0017 -1.6635  0.7166
 1391TIP3    H2 4138   3.855   3.294   0.982 -1.5464 -1.5301  2.5126
 1392TIP3   OH2 4139   4.419   0.775   5.516  0.5762  0.5912  0.2918
 1392TIP3    H1 4140   4.331   0.740   5.531  0.3693  0.9036 -0.1831
 1392TIP3    H2 4141   4.442   0.746   5.428  1.9960 -1.6880  1.3000
 1393TIP3   OH2 4142   3.165   5.786   1.347 -0.4252 -0.2928 -0.8249
 1393TIP3    H1 4143   3.162   5.768   1.441 -0.2515  0.2976 -0.7059
 1393TIP3    H2 4144   3.160   5.881   1.340 -0.1389 -0.3147 -1.4036
 1394TIP3   OH2 4145   3.180   3.547   5.158 -0.1206 -0.1437  0.2488
 1394TIP3    H1 4146   3.161   3.455   5.137 -0.1032 -0.5549  1.8699
 1394TIP3    H2 4147   3.144   3.596   5.084 -1.8136 -1.3323  0.2051
 1395TIP3   OH2 4148   5.194   3.666   4.767  0.6575 -0.4918  0.1738
 1395TIP3    H1 4149   5.272   3.674   4.712  0.7052 -0.5060  0.2385
 1395TIP3    H2 4150   5.149   3.588   4.735  0.3148 -0.0980 -0.3067
 1396TIP3   OH2 4151   4.532   3.660   3.628  0.2716 -0.4228 -0.8314
 1396TIP3    H1 4152   4.479   3.739   3.614  1.7996  0.5198 -1.5783
 1396TIP3    H2 4153   4.470   3.588   3.620 -1.0149  0.6628 -1.0078
 1397TIP3   OH2 4154   6.318   3.616   2.264  0.1032 -0.0413  0.8645
 1397TIP3    H1 4155   6.300   3.654   2.350 -0.6506  0.5676  0.4415
 1397TIP3    H2 4156   6.370   3.537   2.284 -0.0404  0.1001  1.8709
 1398TIP3   OH2 4157   3.158   4.826   5.540  0.6433  0.2367  0.0186
 1398TIP3    H1 4158   3.201   4.779   5.612 -0.6457  0.0030  0.6489
 1398TIP3    H2 4159   3.065   4.814   5.555  0.3320  1.0505 -1.1336
 1399TIP3   OH2 4160   5.726   4.741   5.593  0.0821 -0.6772 -0.1017
 1399TIP3    H1 4161   5.782   4.814   5.619  0.5062 -0.7574 -0.7748
 1399TIP3    H2 4162   5.660   4.736   5.663 -0.3854  0.8088 -0.4044
 1400TIP3   OH2 4163   6.930   2.129   4.172 -0.0373  0.0835  0.2654
 1400TIP3    H1 4164   6.968   2.051   4.130 -0.7073  0.3717 -0.9346
 1400TIP3    H2 4165   6.838   2.106   4.184  0.4144 -0.6046  3.1282
 1401TIP3   OH2 4166   5.607   1.283   3.363  0.3064  0.2666  0.2208
 1401TIP3    H1 4167   5.567   1.363   3.327  0.1255  0.6523  1.2335
 1401TIP3    H2 4168   5.678   1.315   3.419  2.5021 -0.4260 -1.9915
 1402TIP3   OH2 4169   1.910   6.144   2.573  0.1161 -0.1015  0.3766
 1402TIP3    H1 4170   1.954   6.181   2.650 -0.1710 -1.8365  1.4390
 1402TIP3    H2 4171   1.836   6.202   2.557  1.1171  1.2165  0.3546
 1403TIP3   OH2 4172   2.319   5.918   5.645  0.4333  0.3454 -0.3614
 1403TIP3    H1 4173   2.240   5.871   5.619 -0.5325  1.7595 -0.0622
 1403TIP3    H2 4174   2.320   5.912   5.741  1.2626 -0.5193 -0.3987
 1404TIP3   OH2 4175   5.042   0.440   5.899  0.1762  0.2108 -0.4088
 1404TIP3    H1 4176   4.992   0.359   5.903 -0.2946  0.4977 -0.4254
 1404TIP3    H2 4177   4.981   0.505   5.865  0.7714  0.4036 -1.1473
 1405TIP3   OH2 4178   4.649   3.526   2.528  0.1875 -0.5037 -0.3916
 1405TIP3    H1 4179   4.578   3.508   2.466  0.5015 -1.4434 -0.4896
 1405TIP3    H2 4180   4.613   3.593   2.587 -0.6615 -0.7362 -0.6343
 1406TIP3   OH2 4181   1.952   5.950   1.869 -0.5572 -0.2952  0.2357
 1406TIP3    H1 4182   2.033   6.000   1.878 -0.9610  0.3859  0.1449
 1406TIP3    H2 4183   1.932   5.953   1.776 -0.0749 -1.4551  0.0774
 1407TIP3   OH2 4184   3.695   4.624   3.374 -0.6384  0.3588 -0.1353
 1407TIP3    H1 4185   3.635   4.689   3.409  0.8300  0.8542  1.6365
 1407TIP3    H2 4186   3.714   4.653   3.284 -1.0551  1.6142  0.1708
 1408TIP3   OH2 4187   3.869   2.708   5.711 -0.3104  0.1374 -0.0821
 1408TIP3    H1 4188   3.863   2.612   5.714  0.5982  0.0731  0.0631
 1408TIP3    H2 4189   3.829   2.737   5.793 -0.7846 -0.1074 -0.2245
 1409TIP3   OH2 4190   2.268   5.076   1.090  0.1642 -0.4103 -0.1725
 1409TIP3    H1 4191   2.223   5.050   1.170  2.6347  1.0531  1.8564
 1409TIP3    H2 4192   2.198   5.106   1.032 -1.6281 -0.2157  1.9529
 1410TIP3   OH2 4193   1.241   5.890   1.839  0.3493  0.5304 -0.4882
 1410TIP3    H1 4194   1.336   5.892   1.848  0.4296  0.6536 -1.3349
 1410TIP3    H2 4195   1.214   5.981   1.846  0.1308  0.3830  1.1990
 1411TIP3   OH2 4196   2.882   5.812   0.339  0.1466  0.1241  0.0477
 1411TIP3    H1 4197   2.891   5.725   0.301 -2.1608  0.0596 -0.5134
 1411TIP3    H2 4198   2.963   5.826   0.388  1.8339 -1.1112 -2.2287
 1412TIP3   OH2 4199   0.388   1.347   0.348  0.1502  0.3649 -0.0569
 1412TIP3    H1 4200   0.481   1.347   0.372 -0.5636  1.0151  3.1712
 1412TIP3    H2 4201   0.347   1.290   0.413 -2.1873  3.0692  1.0285
 1413TIP3   OH2 4202   3.248   5.272   3.607  0.0570 -0.0325 -0.1026
 1413TIP3    H1 4203   3.248   5.249   3.514 -0.7882 -0.4347 -0.0139
 1413TIP3    H2 4204   3.295   5.199   3.649  1.2289  0.5819 -0.2929
 1414TIP3   OH2 4205   3.538   1.435   3.674  0.5208  0.4597  0.0020
 1414TIP3    H1 4206   3.587   1.356   3.696 -0.5589  0.2112  1.7994
 1414TIP3    H2 4207   3.536   1.437   3.579  0.0676 -2.0292 -0.1008
 1415TIP3   OH2 4208   6.232   3.757   0.880  0.3339  0.5272  0.4349
 1415TIP3    H1 4209   6.181   3.758   0.798  0.0405  1.3131  0.6244
 1415TIP3    H2 4210   6.231   3.665   0.907 -0.3923  0.4151  0.0608
 1416TIP3   OH2 4211   5.614   3.421   5.473 -0.2260 -0.1143  0.9849
 1416TIP3    H1 4212   5.632   3.339   5.518  2.1455  1.0470  2.3151
 1416TIP3    H2 4213   5.650   3.489   5.530  0.2728  1.6646 -1.3009
 1417TIP3   OH2 4214   6.430   0.340   0.921  0.1167 -0.0093 -0.2605
 1417TIP3    H1 4215   6.520   0.362   0.944 -0.1428  0.1607  0.6453
 1417TIP3    H2 4216   6.386   0.426   0.913  0.3333 -0.0180 -2.0804
 1418TIP3   OH2 4217   5.832   2.937   0.374  0.1983 -0.1985 -0.9259
 1418TIP3    H1 4218   5.756   2.955   0.430  0.4051 -2.1836  0.0939
 1418TIP3    H2 4219   5.823   2.997   0.301 -1.9121  0.1907 -0.4108
 1419TIP3   OH2 4220   4.904   0.780   0.866 -0.1798  0.1087 -0.4574
 1419TIP3    H1 4221   4.929   0.855   0.812  0.8117  0.7037  0.7782
 1419TIP3    H2 4222   4.824   0.808   0.911  0.3082  0.5392  0.1684
 1420TIP3   OH2 4223   7.133   3.509   3.243  0.4862 -0.1612  0.0295
 1420TIP3    H1 4224   7.106   3.599   3.261 -0.4737 -0.7262  1.5592
 1420TIP3    H2 4225   7.075   3.480   3.172  0.0154  0.0536  0.3235
 1421TIP3   OH2 4226   0.657   5.875   1.285  1.1975  0.2920  0.5148
 1421TIP3    H1 4227   0.734   5.877   1.227  0.4179 -0.7074 -0.6165
 1421TIP3    H2 4228   0.652   5.784   1.314 -1.1860 -0.4169 -1.7808
 1422TIP3   OH2 4229   2.928   3.645   5.329 -0.7396  0.2969 -0.2062
 1422TIP3    H1 4230   3.023   3.630   5.331 -0.9630 -1.5087 -0.6681
 1422TIP3    H2 4231   2.900   3.635   5.419 -0.5080  0.7215 -0.0850
 1423TIP3   OH2 4232   7.093   1.122   5.409 -0.4225  0.0613  0.2885
 1423TIP3    H1 4233   7.003   1.153   5.419 -0.6835 -0.4708 -0.3420
 1423TIP3    H2 4234   7.091   1.071   5.328  0.8379  1.4925 -0.6953
 1424TIP3   OH2 4235   3.608   5.597   4.347 -0.6385 -0.3373  0.5602
 1424TIP3    H1 4236   3.539   5.532   4.340 -1.0961 -0.0110  1.7233
 1424TIP3    H2 4237   3.668   5.561   4.413 -0.4472  0.0181  0.5856
 1425TIP3   OH2 4238   5.280   5.323   0.733  0.1249 -0.0897 -0.3158
 1425TIP3    H1 4239   5.206   5.350   0.678 -0.2592  0.0164  0.2419
 1425TIP3    H2 4240   5.275   5.227   0.734 -0.3800 -0.0634  0.2175
 1426TIP3   OH2 4241   4.438   3.592   0.772 -0.2482 -0.0018  0.1180
 1426TIP3    H1 4242   4.372   3.627   0.832 -0.5092 -0.4696  0.1083
 1426TIP3    H2 4243   4.518   3.589   0.825 -0.2921  0.3307  0.2057
 1427TIP3   OH2 4244   5.049   2.044   5.029 -0.2361 -0.3729 -0.3178
 1427TIP3    H1 4245   5.060   2.139   5.029  0.1755 -0.3955  1.0528
 1427TIP3    H2 4246   5.137   2.008   5.031 -0.3215 -0.8613 -2.5630
 1428TIP3   OH2 4247   1.517   3.780   1.640  0.5337 -0.0780  0.4885
 1428TIP3    H1 4248   1.537   3.751   1.551  0.1463  0.9181  0.0621
 1428TIP3    H2 4249   1.601   3.802   1.678  0.6727 -0.1991  0.2533
 1429TIP3   OH2 4250   6.771   1.986   5.800  0.1766 -0.0749  0.3164
 1429TIP3    H1 4251   6.685   1.996   5.760 -0.7192  1.6392  2.4698
 1429TIP3    H2 4252   6.818   2.066   5.778  0.5614 -0.1991  0.6673
 1430TIP3   OH2 4253   3.345   5.295   1.714 -0.1368  0.6780  0.4116
 1430TIP3    H1 4254   3.399   5.357   1.764 -0.3952  0.1735  1.3549
 1430TIP3    H2 4255   3.406   5.226   1.688  0.0716  1.1224 -0.2947
 1431TIP3   OH2 4256   0.733   5.546   2.541 -0.2153  0.3605 -0.2636
 1431TIP3    H1 4257   0.684   5.551   2.624 -0.6859 -0.1246 -0.5070
 1431TIP3    H2 4258   0.772   5.633   2.532 -0.9423  0.7309 -0.0002
 1432TIP3   OH2 4259   0.540   3.503   3.034  1.2082  0.4357 -0.0183
 1432TIP3    H1 4260   0.466   3.506   2.973  2.3419 -0.0132 -1.4605
 1432TIP3    H2 4261   0.570   3.412   3.032  1.3168  0.4279  1.1770
 1433TIP3   OH2 4262   0.447   6.570   0.346 -0.3069  0.5360 -0.5712
 1433TIP3    H1 4263   0.518   6.635   0.354  0.3469 -0.1571 -0.6068
 1433TIP3    H2 4264   0.425   6.548   0.437  1.4869 -1.3076 -0.5070
 1434TIP3   OH2 4265   5.388   2.670   3.658  0.0911  0.0743  0.7130
 1434TIP3    H1 4266   5.350   2.627   3.582  0.9684  1.3458 -0.5000
 1434TIP3    H2 4267   5.339   2.635   3.733 -3.8716  1.9858 -0.7279
 1435TIP3   OH2 4268   6.365   6.263   2.206  0.0183 -0.1223  0.4502
 1435TIP3    H1 4269   6.420   6.197   2.164 -0.0440 -0.7338  1.3107
 1435TIP3    H2 4270   6.320   6.216   2.276 -1.6197  0.3509 -0.2367
 1436TIP3   OH2 4271   4.968   6.545   1.188  0.3578  0.0232 -0.5051
 1436TIP3    H1 4272   4.948   6.501   1.271 -1.0260 -1.3099 -1.4871
 1436TIP3    H2 4273   5.007   6.476   1.134  1.1014  0.8366 -1.0219
 1437TIP3   OH2 4274   3.657   2.801   0.132 -0.2106 -1.1787  0.2249
 1437TIP3    H1 4275   3.746   2.772   0.113  0.0501 -0.7937  0.8164
 1437TIP3    H2 4276   3.625   2.838   0.049  0.0597 -1.6155 -0.0739
 1438TIP3   OH2 4277   2.387   0.541   0.420 -0.2122 -0.5064  0.2031
 1438TIP3    H1 4278   2.296   0.549   0.390 -0.9475 -2.0266  1.8272
 1438TIP3    H2 4279   2.407   0.626   0.459 -0.8607 -0.1016 -0.3208
 1439TIP3   OH2 4280   4.788   4.334   3.499 -0.6659  0.3752 -0.0662
 1439TIP3    H1 4281   4.699   4.370   3.500 -0.1922  1.6083 -0.2089
 1439TIP3    H2 4282   4.822   4.351   3.587  0.0377  1.5599 -0.5418
 1440TIP3   OH2 4283   0.278   5.616   0.502  0.2434  0.2604  0.5054
 1440TIP3    H1 4284   0.240   5.704   0.495 -0.5204 -0.1715 -1.6169
 1440TIP3    H2 4285   0.203   5.558   0.514  0.6778 -0.1827  1.1506
 1441TIP3   OH2 4286   7.140   6.259   3.143 -0.3694 -0.3046  0.4445
 1441TIP3    H1 4287   7.174   6.335   3.095 -1.1140 -1.1622 -1.5470
 1441TIP3    H2 4288   7.203   6.190   3.127 -0.1809 -0.3857  1.4721
 1442TIP3   OH2 4289   1.735   1.692   1.570 -0.2859  0.2992 -0.1244
 1442TIP3    H1 4290   1.747   1.655   1.482 -0.6842  0.1045 -0.1018
 1442TIP3    H2 4291   1.720   1.616   1.626 -0.7748  0.4699 -0.0193
 1443TIP3   OH2 4292   6.907   2.369   4.583  0.1297  0.0942  0.0076
 1443TIP3    H1 4293   6.895   2.284   4.540 -0.2982 -0.5041  1.2378
 1443TIP3    H2 4294   6.998   2.392   4.566  0.3114 -0.7281 -0.1620
 1444TIP3   OH2 4295   3.488   2.113   4.607  0.3031  0.4409  0.0649
 1444TIP3    H1 4296   3.511   2.183   4.545 -2.0253  0.2527 -1.0996
 1444TIP3    H2 4297   3.536   2.037   4.575  1.3038  0.9931  0.1809
 1445TIP3   OH2 4298   3.811   4.622   1.686 -0.0488  0.1963  0.4986
 1445TIP3    H1 4299   3.844   4.596   1.600  0.6335 -1.4727  1.2105
 1445TIP3    H2 4300   3.716   4.609   1.681  0.0070 -0.0398  0.0467
 1446TIP3   OH2 4301   1.066   1.237   5.068  0.3841  0.7316  0.6952
 1446TIP3    H1 4302   1.058   1.200   5.156  1.2060  2.6041  1.6081
 1446TIP3    H2 4303   1.016   1.318   5.071  0.9565  1.1468 -0.3745
 1447TIP3   OH2 4304   0.782   6.011   0.611  0.0107 -0.2087 -0.0735
 1447TIP3    H1 4305   0.876   6.021   0.599  0.0017  0.9999  0.6537
 1447TIP3    H2 4306   0.743   6.081   0.558 -0.4453 -0.3107  0.1166
 1448TIP3   OH2 4307   2.870   1.648   5.116 -0.2464  0.0337 -0.0230
 1448TIP3    H1 4308   2.959   1.643   5.080 -0.2235  1.0300 -0.1354
 1448TIP3    H2 4309   2.851   1.742   5.119 -2.0314 -0.2093 -1.8016
 1449TIP3   OH2 4310   1.770   2.075   5.304  0.9074  1.0355 -0.1027
 1449TIP3    H1 4311   1.728   1.993   5.278 -0.1051  1.1432  1.0576
 1449TIP3    H2 4312   1.734   2.093   5.391  0.6132  3.0463 -0.5928
 1450TIP3   OH2 4313   5.623   0.314   4.332 -0.4187  0.0401  0.0718
 1450TIP3    H1 4314   5.632   0.231   4.286  1.0312  0.5546 -0.6104
 1450TIP3    H2 4315   5.579   0.291   4.414 -1.9388 -1.0652 -1.0026
 1451TIP3   OH2 4316   5.154   3.509   1.263 -0.5943 -0.3772 -0.6944
 1451TIP3    H1 4317   5.245   3.488   1.280 -0.4524  0.7535  0.1129
 1451TIP3    H2 4318   5.104   3.448   1.318 -0.2585  0.0777  0.1391
 1452TIP3   OH2 4319   0.488   6.262   5.622 -0.4125 -0.5820  0.6408
 1452TIP3    H1 4320   0.416   6.243   5.562  0.4721  0.0611 -0.6775
 1452TIP3    H2 4321   0.518   6.176   5.651 -0.0388 -0.9875 -0.8610
 1453TIP3   OH2 4322   1.733   2.725   2.984 -0.4244  0.2377 -0.2549
 1453TIP3    H1 4323   1.761   2.790   3.049 -2.6575 -0.8978  2.0106
 1453TIP3    H2 4324   1.661   2.767   2.938  0.9671  0.9283 -1.9315
 1454TIP3   OH2 4325   1.544   1.931   4.718 -0.1788  0.7144  0.0685
 1454TIP3    H1 4326   1.640   1.936   4.720 -0.1867  0.6345  1.8525
 1454TIP3    H2 4327   1.525   1.839   4.738 -0.6349  0.4371 -1.5056
 1455TIP3   OH2 4328   5.403   3.432   2.339  0.5042  0.2271  0.1010
 1455TIP3    H1 4329   5.309   3.418   2.330  0.2229  0.9437  1.6558
 1455TIP3    H2 4330   5.411   3.508   2.396  2.0361  0.7228 -0.7195
 1456TIP3   OH2 4331   6.245   3.927   1.425  0.3562 -0.3423  0.1648
 1456TIP3    H1 4332   6.218   3.942   1.516  1.3337  0.2385  0.3790
 1456TIP3    H2 4333   6.297   4.005   1.403  0.3886 -0.6270 -0.7889
 1457TIP3   OH2 4334   1.772   1.453   4.707  0.2201  0.0138  0.2273
 1457TIP3    H1 4335   1.728   1.514   4.648 -1.3209 -0.2241  1.0794
 1457TIP3    H2 4336   1.721   1.457   4.787  1.9959 -0.0142  1.4142
 1458TIP3   OH2 4337   0.639   3.114   3.541  0.1610 -0.3333  0.0481
 1458TIP3    H1 4338   0.656   3.167   3.463 -1.4940 -0.3033 -0.3296
 1458TIP3    H2 4339   0.558   3.149   3.577  0.8844 -0.3611  1.8013
 1459TIP3   OH2 4340   2.357   0.569   5.295  0.4913  0.4061 -0.3988
 1459TIP3    H1 4341   2.392   0.600   5.379 -1.7437 -1.8728  1.5571
 1459TIP3    H2 4342   2.287   0.508   5.320  0.8666 -1.7451 -3.9356
 1460TIP3   OH2 4343   3.935   3.085   2.075 -0.1474  0.1510 -0.2052
 1460TIP3    H1 4344   3.923   3.031   1.997 -2.6001 -0.1606  0.3182
 1460TIP3    H2 4345   3.971   3.025   2.141 -3.0521 -1.0461  0.4401
 1461TIP3   OH2 4346   4.632   2.204   5.090  0.0768 -0.0991 -0.0431
 1461TIP3    H1 4347   4.666   2.267   5.025 -0.3799  0.0295 -0.1629
 1461TIP3    H2 4348   4.656   2.242   5.174  1.0607 -0.4847 -0.1365
 1462TIP3   OH2 4349   3.978   3.929   2.794  0.3602 -0.0943 -0.0944
 1462TIP3    H1 4350   4.014   3.992   2.733 -0.8367  1.9546  1.2117
 1462TIP3    H2 4351   3.920   3.875   2.742 -0.5062  1.4961 -0.8297
 1463TIP3   OH2 4352   1.830   2.399   3.922 -0.0753 -0.4353 -0.3546
 1463TIP3    H1 4353   1.842   2.485   3.882  2.6665 -0.3818  0.3789
 1463TIP3    H2 4354   1.780   2.417   4.002 -0.3401  0.3366 -0.6855
 1464TIP3   OH2 4355   3.113   4.432   5.160 -0.1948 -0.6562 -0.5533
 1464TIP3    H1 4356   3.099   4.400   5.249 -0.2981 -0.2343 -0.4156
 1464TIP3    H2 4357   3.046   4.387   5.108 -1.5316  0.6669 -0.0552
 1465TIP3   OH2 4358   5.104   2.419   4.774 -0.8676 -0.7594 -0.5007
 1465TIP3    H1 4359   5.159   2.402   4.698 -2.2606  1.2510 -2.0692
 1465TIP3    H2 4360   5.016   2.433   4.738 -1.2580  1.9657  1.2069
 1466TIP3   OH2 4361   6.174   3.281   4.518  0.2179 -0.1162 -0.0873
 1466TIP3    H1 4362   6.086   3.279   4.480  0.5411 -0.9476 -0.8273
 1466TIP3    H2 4363   6.163   3.245   4.606 -0.4236  1.1874  0.3930
 1467TIP3   OH2 4364   1.998   2.333   4.899 -0.3645 -0.1199  0.1168
 1467TIP3    H1 4365   2.092   2.336   4.915 -0.6351  1.6827  1.7162
 1467TIP3    H2 4366   1.988   2.368   4.810  0.4082  0.5650  0.2908
 1468TIP3   OH2 4367   4.100   2.130   5.328 -0.0996  0.3395 -0.5245
 1468TIP3    H1 4368   4.020   2.097   5.369  1.1699 -1.7763  0.4273
 1468TIP3    H2 4369   4.151   2.165   5.400  0.4573  0.3176 -0.9012
 1469TIP3   OH2 4370   5.701   2.221   5.845 -0.2403 -0.4524 -0.0938
 1469TIP3    H1 4371   5.666   2.301   5.807  1.5167  0.3830 -0.0779
 1469TIP3    H2 4372   5.792   2.219   5.815 -0.0327 -2.0427  0.5525
 1470TIP3   OH2 4373   5.055   0.990   1.527  0.2871  1.0386  0.3097
 1470TIP3    H1 4374   5.014   0.979   1.612 -0.9045 -0.7743 -0.4437
 1470TIP3    H2 4375   5.142   0.951   1.537  0.8487  2.4253  1.1445
 1471TIP3   OH2 4376   5.911   4.924   3.088  0.5132 -0.2271 -0.2801
 1471TIP3    H1 4377   5.989   4.906   3.139 -0.0422  0.0005  0.6637
 1471TIP3    H2 4378   5.843   4.943   3.152  0.0639  1.1497 -1.1182
 1472TIP3   OH2 4379   2.102   1.071   0.277  0.1160 -0.5564  0.4949
 1472TIP3    H1 4380   2.179   1.067   0.221  1.1323 -0.3276  1.8303
 1472TIP3    H2 4381   2.029   1.055   0.217  0.9022  2.0692 -1.3794
 1473TIP3   OH2 4382   6.549   5.005   0.778  0.1661  0.2451  0.1308
 1473TIP3    H1 4383   6.603   5.047   0.845 -0.1008 -0.8877  1.0931
 1473TIP3    H2 4384   6.568   4.911   0.788 -1.1672 -0.0804 -0.2202
 1474TIP3   OH2 4385   3.992   6.168   2.135  0.2746 -0.1528 -0.5300
 1474TIP3    H1 4386   4.068   6.173   2.193  0.0475 -0.9331 -0.1555
 1474TIP3    H2 4387   3.965   6.259   2.124 -1.0709 -0.0650  2.4643
 1475TIP3   OH2 4388   4.194   6.171   4.993  0.4518 -0.0368 -0.9842
 1475TIP3    H1 4389   4.103   6.198   4.997  0.3923 -0.2386 -0.9596
 1475TIP3    H2 4390   4.235   6.231   4.931  0.6657  1.1051  0.2192
 1476TIP3   OH2 4391   6.596   4.487   2.455 -0.5175  0.3132 -0.5858
 1476TIP3    H1 4392   6.661   4.457   2.519 -1.0897  0.3759  0.0449
 1476TIP3    H2 4393   6.555   4.563   2.497 -1.9727 -0.5723 -0.3308
 1477TIP3   OH2 4394   1.835   0.842   4.812 -0.1269 -0.2575  0.2291
 1477TIP3    H1 4395   1.761   0.878   4.860 -0.4246 -0.7953  0.1852
 1477TIP3    H2 4396   1.864   0.768   4.865  1.4617  0.9438  1.1216
 1478TIP3   OH2 4397   0.270   0.931   1.248 -0.1078 -0.2486  0.3667
 1478TIP3    H1 4398   0.260   0.991   1.322 -1.0879 -0.5796  0.5252
 1478TIP3    H2 4399   0.364   0.927   1.232  0.0923  0.0739  1.3975
 1479TIP3   OH2 4400   7.063   4.515   4.693  0.1174  0.0713  0.4690
 1479TIP3    H1 4401   7.112   4.464   4.758 -0.2831 -1.6784 -0.5226
 1479TIP3    H2 4402   6.973   4.511   4.724 -0.2740 -1.8089 -0.7404
 1480TIP3   OH2 4403   1.256   4.230   2.132  0.3291 -0.3947 -0.3098
 1480TIP3    H1 4404   1.247   4.232   2.227  0.0627 -0.5441 -0.3298
 1480TIP3    H2 4405   1.349   4.244   2.116  0.2444  0.4772 -0.0624
 1481TIP3   OH2 4406   6.391   4.560   3.686 -0.0201 -0.6530  0.0611
 1481TIP3    H1 4407   6.390   4.610   3.768 -3.4022  2.3425 -1.5395
 1481TIP3    H2 4408   6.329   4.489   3.699 -0.7104 -0.0554  0.0565
 1482TIP3   OH2 4409   1.174   2.719   1.144 -0.6370 -0.4504 -0.1553
 1482TIP3    H1 4410   1.212   2.668   1.216 -1.2921  0.7332  1.0655
 1482TIP3    H2 4411   1.094   2.672   1.121 -0.9931 -0.2572  0.6406
 1483TIP3   OH2 4412   2.481   5.666   4.524  0.0664  0.6661  0.1202
 1483TIP3    H1 4413   2.484   5.688   4.431  2.2727  1.1134  0.2426
 1483TIP3    H2 4414   2.391   5.684   4.550 -0.7460 -0.0152 -2.0369
 1484TIP3   OH2 4415   0.210   4.828   3.551 -0.2021  0.6068 -0.7361
 1484TIP3    H1 4416   0.205   4.755   3.490 -1.4145 -0.8822  1.0520
 1484TIP3    H2 4417   0.302   4.855   3.549  0.8386 -2.4370  0.1462
 1485TIP3   OH2 4418   4.666   6.718   2.481  0.7431  0.0619  0.2507
 1485TIP3    H1 4419   4.640   6.635   2.441 -2.1178 -0.1683  2.2406
 1485TIP3    H2 4420   4.706   6.693   2.564  1.6474  0.6725  0.0187
 1486TIP3   OH2 4421   5.582   5.529   4.126  0.2843  0.7067 -0.1963
 1486TIP3    H1 4422   5.503   5.475   4.120  1.9458 -1.9483 -0.0425
 1486TIP3    H2 4423   5.609   5.522   4.218  0.5811  1.7562 -0.1951
 1487TIP3   OH2 4424   6.407   2.281   2.175  0.1573 -0.4265 -0.5494
 1487TIP3    H1 4425   6.327   2.229   2.172  0.7658 -1.3865 -0.4060
 1487TIP3    H2 4426   6.376   2.371   2.188 -0.9358 -0.6629 -1.3451
 1488TIP3   OH2 4427   6.870   0.071   5.526  0.5104 -0.1545  0.1726
 1488TIP3    H1 4428   6.934   0.109   5.585 -0.1049 -0.7255  1.2256
 1488TIP3    H2 4429   6.791   0.124   5.538  0.3748 -0.2887 -0.1185
 1489TIP3   OH2 4430   5.809   3.112   0.960  0.1445 -0.2626 -0.3330
 1489TIP3    H1 4431   5.872   3.184   0.963 -0.3200  0.1635 -0.5853
 1489TIP3    H2 4432   5.835   3.054   1.031 -0.6961  1.1967  1.2595
 1490TIP3   OH2 4433   3.455   3.537   3.978 -0.1629 -0.3904  0.0634
 1490TIP3    H1 4434   3.534   3.489   3.953  1.1306  0.2633  2.5568
 1490TIP3    H2 4435   3.447   3.606   3.913  1.4400 -0.3843 -0.1572
 1491TIP3   OH2 4436   5.080   5.192   4.218 -0.0985 -0.2113  0.1496
 1491TIP3    H1 4437   4.994   5.229   4.237 -0.2413 -0.7004  0.4505
 1491TIP3    H2 4438   5.128   5.202   4.300  0.2235  0.2981 -0.0910
 1492TIP3   OH2 4439   1.573   1.213   2.451  0.7650  0.4157 -0.2052
 1492TIP3    H1 4440   1.567   1.122   2.424  1.4828  0.0151  0.9065
 1492TIP3    H2 4441   1.486   1.249   2.437  0.3631 -0.5629 -0.2320
 1493TIP3   OH2 4442   0.434   3.757   2.192 -0.6848 -0.5867 -0.3412
 1493TIP3    H1 4443   0.408   3.666   2.180 -0.4448 -0.7920  0.5497
 1493TIP3    H2 4444   0.389   3.785   2.272 -0.9653  0.1616 -0.7533
 1494TIP3   OH2 4445   0.022   1.412   1.868  0.7595 -0.0982 -0.2642
 1494TIP3    H1 4446  -0.042   1.457   1.924 -1.6098 -1.7852 -1.4710
 1494TIP3    H2 4447   0.027   1.467   1.790  0.7614  0.0147 -0.1859
 1495TIP3   OH2 4448   4.825   0.414   2.984  0.3071  0.2316  0.1477
 1495TIP3    H1 4449   4.742   0.458   2.997 -0.0753 -0.8197  1.5389
 1495TIP3    H2 4450   4.804   0.339   2.928  0.5643  0.6412 -0.5096
 1496TIP3   OH2 4451   4.591   5.729   2.723 -0.0466  0.3049  0.2613
 1496TIP3    H1 4452   4.502   5.699   2.705  0.2445  0.1756 -1.0675
 1496TIP3    H2 4453   4.606   5.798   2.657  0.8373  0.3065  0.4582
 1497TIP3   OH2 4454   4.543   5.636   1.284 -0.0942  0.1118  0.3572
 1497TIP3    H1 4455   4.547   5.696   1.359 -0.9110 -2.6893  2.8105
 1497TIP3    H2 4456   4.455   5.649   1.248  0.6186  2.1395 -0.8467
 1498TIP3   OH2 4457   4.102   3.503   0.385 -0.8801 -0.2171 -0.2688
 1498TIP3    H1 4458   4.036   3.436   0.364 -0.2222 -0.9191 -0.1619
 1498TIP3    H2 4459   4.137   3.529   0.300  0.0784 -1.2886 -0.2220
 1499TIP3   OH2 4460   2.520   6.412   1.954 -0.9577 -0.3543 -0.1752
 1499TIP3    H1 4461   2.612   6.389   1.959 -0.9057 -0.0731  0.1417
 1499TIP3    H2 4462   2.514   6.474   1.881 -1.0204 -0.9695 -0.7024
 1500TIP3   OH2 4463   7.094   6.696   0.151  0.4916  0.1555 -0.2910
 1500TIP3    H1 4464   7.027   6.696   0.219  0.8408  0.4596  0.0593
 1500TIP3    H2 4465   7.147   6.618   0.170  1.0591  0.6664  0.2635
 1501TIP3   OH2 4466   4.964   3.327   1.378  0.1810 -0.3898 -0.0155
 1501TIP3    H1 4467   4.975   3.290   1.466  0.4687 -0.8215 -0.2336
 1501TIP3    H2 4468   4.911   3.263   1.331  1.7694 -1.1965 -0.8001
 1502TIP3   OH2 4469   0.572   2.836   5.208  0.1132  0.1114 -0.3261
 1502TIP3    H1 4470   0.646   2.883   5.249  0.1023  1.3102 -1.6129
 1502TIP3    H2 4471   0.595   2.832   5.115 -0.3436 -1.6625 -0.3920
 1503TIP3   OH2 4472   5.133   1.580   5.851  0.5433  0.0805 -0.5774
 1503TIP3    H1 4473   5.183   1.582   5.769  1.5105 -1.6391 -0.0973
 1503TIP3    H2 4474   5.063   1.517   5.835 -0.7492  1.5345 -0.8255
 1504TIP3   OH2 4475   7.108   0.830   0.603 -0.0916 -0.1753 -0.2837
 1504TIP3    H1 4476   7.114   0.791   0.690 -0.7970  0.0414 -0.1272
 1504TIP3    H2 4477   7.162   0.909   0.608  0.8413 -0.7888 -0.4156
 1505TIP3   OH2 4478   5.272   5.574   5.133 -0.3800 -0.1784  0.2834
 1505TIP3    H1 4479   5.185   5.594   5.167  0.0363  0.3263  1.1005
 1505TIP3    H2 4480   5.306   5.658   5.101 -0.5609 -0.5530 -0.9284
 1506TIP3   OH2 4481   3.867   0.953   0.758  0.3705  0.2027  0.2528
 1506TIP3    H1 4482   3.825   1.036   0.779  0.6636  0.2284  0.7531
 1506TIP3    H2 4483   3.878   0.955   0.663 -0.7920  0.1752  0.1067
 1507TIP3   OH2 4484   4.289   0.957   5.804 -0.4190 -0.3704 -0.5674
 1507TIP3    H1 4485   4.315   0.973   5.714  0.6703 -0.9559 -0.3682
 1507TIP3    H2 4486   4.318   1.035   5.852 -0.2433 -0.4337 -0.5723
 1508TIP3   OH2 4487   3.881   5.927   2.408  0.0366  0.1560 -0.1037
 1508TIP3    H1 4488   3.787   5.943   2.414 -0.2919 -1.0361 -1.5004
 1508TIP3    H2 4489   3.889   5.834   2.388  1.5376  0.1740  0.2299
 1509TIP3   OH2 4490   5.505   6.412   2.161 -0.0747  0.5006 -0.0917
 1509TIP3    H1 4491   5.589   6.373   2.138 -1.0897 -1.0957 -1.3569
 1509TIP3    H2 4492   5.489   6.385   2.251  0.7973  0.9231  0.2016
 1510TIP3   OH2 4493   2.544   2.256   0.102 -0.1638 -0.3085  0.0828
 1510TIP3    H1 4494   2.607   2.328   0.106 -1.3307  0.7054  1.2778
 1510TIP3    H2 4495   2.522   2.249   0.009  0.2112  0.6685 -0.0956
 1511TIP3   OH2 4496   6.452   5.983   0.068 -0.5232 -0.1361 -0.3206
 1511TIP3    H1 4497   6.370   6.023   0.040 -0.7436 -0.6197 -0.3806
 1511TIP3    H2 4498   6.491   6.046   0.129 -1.2241 -0.1688  0.1699
 1512TIP3   OH2 4499   4.434   4.103   2.185  0.1805  0.4498  0.0611
 1512TIP3    H1 4500   4.503   4.060   2.133 -0.3025 -0.4209  0.1182
 1512TIP3    H2 4501   4.372   4.136   2.120  1.3382  2.5132 -0.0675
 1513TIP3   OH2 4502   0.128   1.752   3.441  0.0047  0.5021  0.4468
 1513TIP3    H1 4503   0.115   1.730   3.349  0.5165  1.1182  0.2247
 1513TIP3    H2 4504   0.081   1.835   3.453  0.6337  0.8512  0.5347
 1514TIP3   OH2 4505   1.848   1.228   1.884  0.0373  0.3104 -0.4018
 1514TIP3    H1 4506   1.893   1.236   1.968 -1.2685 -0.0913  0.3649
 1514TIP3    H2 4507   1.864   1.137   1.857  1.2246  0.6972 -1.0625
 1515TIP3   OH2 4508   3.711   3.724   3.596  0.5414 -0.1632 -0.4037
 1515TIP3    H1 4509   3.655   3.743   3.520  0.0768 -2.3675 -0.6763
 1515TIP3    H2 4510   3.693   3.795   3.657 -0.5209  0.6367 -1.5934
 1516TIP3   OH2 4511   6.933   2.954   4.243  0.8138  0.5228 -0.0262
 1516TIP3    H1 4512   6.943   2.996   4.328  0.0699  0.5544  0.0493
 1516TIP3    H2 4513   6.854   2.902   4.250  0.2627  1.1901 -0.9578
 1517TIP3   OH2 4514   2.078   0.442   5.809 -0.3630  0.0832  0.3811
 1517TIP3    H1 4515   2.013   0.389   5.762 -0.2539  1.4884 -1.4950
 1517TIP3    H2 4516   2.163   0.403   5.785 -0.0890  2.3355 -2.9945
 1518TIP3   OH2 4517   1.625   4.300   3.635  0.1088  0.8052  0.3698
 1518TIP3    H1 4518   1.573   4.339   3.565 -0.9172 -1.4629 -0.2385
 1518TIP3    H2 4519   1.663   4.374   3.682  1.9365  2.4665 -3.3528
 1519TIP3   OH2 4520   1.266   6.789   2.584  0.8444 -0.0346 -0.0923
 1519TIP3    H1 4521   1.340   6.828   2.630  0.4146 -0.3249  0.8548
 1519TIP3    H2 4522   1.271   6.696   2.605  0.0389 -0.0124  0.2250
 1520TIP3   OH2 4523   2.619   3.010   5.526 -0.1202 -0.1709 -0.2393
 1520TIP3    H1 4524   2.679   3.042   5.593 -0.7083  0.1220  0.1473
 1520TIP3    H2 4525   2.538   3.058   5.541 -0.2903 -0.1672 -1.1004
 1521TIP3   OH2 4526   3.760   6.402   3.342  0.1165  0.2259  0.8079
 1521TIP3    H1 4527   3.842   6.436   3.306  1.0654 -0.7489  1.9994
 1521TIP3    H2 4528   3.718   6.478   3.382 -0.2016  0.9962 -0.9022
 1522TIP3   OH2 4529   0.523   3.429   2.276 -0.2378  0.6934  0.6493
 1522TIP3    H1 4530   0.460   3.477   2.330 -3.1722 -0.5084 -1.4611
 1522TIP3    H2 4531   0.484   3.343   2.263  1.2181  0.2905 -1.8191
 1523TIP3   OH2 4532   5.592   0.689   5.384  0.2770 -0.0334 -0.8632
 1523TIP3    H1 4533   5.546   0.652   5.309  0.8556 -1.7338 -0.4289
 1523TIP3    H2 4534   5.620   0.613   5.435  0.2728  1.0662  0.8671
 1524TIP3   OH2 4535   2.230   0.032   0.549 -0.4407  0.4238 -0.4609
 1524TIP3    H1 4536   2.195  -0.011   0.471  0.1743 -0.3355 -0.3298
 1524TIP3    H2 4537   2.300   0.088   0.516  0.2879 -0.4212 -0.4038
 1525TIP3   OH2 4538   0.222   6.758   2.790  0.2074 -0.2520 -0.0569
 1525TIP3    H1 4539   0.162   6.808   2.846 -0.1174 -0.7186  0.0125
 1525TIP3    H2 4540   0.252   6.823   2.725  1.9677  0.7519  1.6656
 1526TIP3   OH2 4541   2.342   6.451   0.227 -0.2844 -0.0063  0.0320
 1526TIP3    H1 4542   2.258   6.454   0.180  0.0297 -0.6155 -0.5804
 1526TIP3    H2 4543   2.319   6.470   0.318 -1.0322  0.2391 -0.1985
 1527TIP3   OH2 4544   1.705   4.269   2.370  0.4316  0.0944  0.0403
 1527TIP3    H1 4545   1.780   4.210   2.361  0.9110 -0.1282  3.7345
 1527TIP3    H2 4546   1.744   4.354   2.391 -0.3213  0.5665 -0.4357
 1528TIP3   OH2 4547   6.833   3.578   4.084 -0.0264  0.7629 -0.0737
 1528TIP3    H1 4548   6.882   3.496   4.088 -1.7517 -0.4778 -2.1027
 1528TIP3    H2 4549   6.880   3.632   4.021  1.3091  1.5731  1.5206
 1529TIP3   OH2 4550   0.597   4.502   0.124  0.6623  0.1051  0.0157
 1529TIP3    H1 4551   0.572   4.465   0.039  2.2196  0.3243 -0.5642
 1529TIP3    H2 4552   0.514   4.525   0.165 -0.1542 -0.5922 -1.1761
 1530TIP3   OH2 4553   3.336   0.816   3.854  1.1215  1.2013 -0.0982
 1530TIP3    H1 4554   3.247   0.796   3.824  1.5762  0.3377 -0.8901
 1530TIP3    H2 4555   3.387   0.828   3.774  2.2047 -0.4882  0.2822
 1531TIP3   OH2 4556   2.668   4.384   2.581 -0.7245 -0.4938 -0.3833
 1531TIP3    H1 4557   2.603   4.454   2.574  1.0545  1.2773 -0.2184
 1531TIP3    H2 4558   2.708   4.397   2.667  0.4533 -0.9756 -0.8434
 1532TIP3   OH2 4559   1.778   3.923   3.927 -0.2850  0.4130 -0.3137
 1532TIP3    H1 4560   1.852   3.867   3.951  0.4150  2.0997  1.7958
 1532TIP3    H2 4561   1.797   3.950   3.837  1.0176 -0.1795 -0.2480
 1533TIP3   OH2 4562   5.813   0.930   0.606  0.0054 -0.0048 -0.7544
 1533TIP3    H1 4563   5.756   0.981   0.547  1.0441  1.3469 -0.6392
 1533TIP3    H2 4564   5.798   0.968   0.692  0.0160 -0.6149 -0.4782
 1534TIP3   OH2 4565   2.834   0.299   3.268  0.2486  0.5387 -0.1041
 1534TIP3    H1 4566   2.878   0.214   3.271 -1.2854 -0.4279 -2.1499
 1534TIP3    H2 4567   2.802   0.306   3.178 -2.1048  1.9941  0.7496
 1535TIP3   OH2 4568   3.087   0.645   3.600 -0.0510 -0.5820 -0.0668
 1535TIP3    H1 4569   3.088   0.596   3.682 -0.5415 -1.9656 -0.8526
 1535TIP3    H2 4570   3.040   0.588   3.539 -1.7102  1.3870 -0.7234
 1536TIP3   OH2 4571   3.938   3.521   1.087 -0.1827 -0.4943  0.0949
 1536TIP3    H1 4572   3.972   3.432   1.098  2.0482  0.1860 -0.8497
 1536TIP3    H2 4573   3.942   3.537   0.993  2.0005  1.5032  0.4440
 1537TIP3   OH2 4574   0.001   4.793   1.749 -0.0792 -0.3944 -0.4708
 1537TIP3    H1 4575   0.051   4.758   1.675  1.5717 -3.8368  2.0276
 1537TIP3    H2 4576   0.044   4.876   1.770  3.6852 -2.3668  0.4373
 1538TIP3   OH2 4577   4.671   2.440   3.867 -0.2851  0.0195 -0.2669
 1538TIP3    H1 4578   4.701   2.359   3.826 -2.3505 -0.4379 -0.9957
 1538TIP3    H2 4579   4.731   2.507   3.834  1.2680 -1.1276  0.1081
 1539TIP3   OH2 4580   3.516   1.667   5.448  0.6983  0.3859  0.3512
 1539TIP3    H1 4581   3.461   1.607   5.499  1.0299 -1.4114 -1.3150
 1539TIP3    H2 4582   3.492   1.651   5.357  0.7939  2.8523 -0.1781
 1540TIP3   OH2 4583   5.968   5.006   4.577  0.3774 -0.2204 -0.3748
 1540TIP3    H1 4584   6.062   5.022   4.580  0.4483 -0.5575 -0.7080
 1540TIP3    H2 4585   5.928   5.091   4.596  0.7493 -0.2742  0.6717
 1541TIP3   OH2 4586   1.881   3.263   1.607 -0.9170  0.5622 -0.1783
 1541TIP3    H1 4587   1.926   3.262   1.691 -1.5608  0.4177  0.1663
 1541TIP3    H2 4588   1.946   3.298   1.546 -0.5653  1.0293  0.4477
 1542TIP3   OH2 4589   0.400   6.591   2.536 -0.0495  0.8457  0.3023
 1542TIP3    H1 4590   0.333   6.566   2.599  1.2931  1.4575  2.0651
 1542TIP3    H2 4591   0.395   6.524   2.468 -2.1921  0.7051  0.5440
 1543TIP3   OH2 4592   2.853   1.538   4.281 -0.3052 -0.1235 -0.4926
 1543TIP3    H1 4593   2.857   1.597   4.206  1.0160 -0.2226 -0.5083
 1543TIP3    H2 4594   2.759   1.520   4.292 -0.6260  1.0560 -1.1939
 1544TIP3   OH2 4595   3.311   2.586   1.186  0.5447 -0.2569  0.2113
 1544TIP3    H1 4596   3.217   2.580   1.204  0.4260  0.2836 -0.2319
 1544TIP3    H2 4597   3.339   2.495   1.177 -0.7132 -0.4492 -3.6504
 1545TIP3   OH2 4598   1.392   4.647   4.932  0.6697  0.1076 -0.3576
 1545TIP3    H1 4599   1.341   4.659   4.852 -0.5323 -1.9755  0.0361
 1545TIP3    H2 4600   1.416   4.554   4.931  0.1482 -0.1039  1.9629
 1546TIP3   OH2 4601   0.282   4.034   2.392 -0.2792  0.3759  0.4544
 1546TIP3    H1 4602   0.202   4.085   2.403 -0.6137  0.1772 -0.8833
 1546TIP3    H2 4603   0.347   4.097   2.361 -0.4048  0.2121 -0.1603
 1547TIP3   OH2 4604   3.848   6.324   5.412 -0.4559 -0.2356  0.4452
 1547TIP3    H1 4605   3.936   6.309   5.377 -0.8024 -0.1799 -0.4525
 1547TIP3    H2 4606   3.864   6.371   5.495  0.3132  1.2418 -0.4961
 1548TIP3   OH2 4607   1.243   6.376   0.687  0.6911  0.3919  0.1370
 1548TIP3    H1 4608   1.322   6.366   0.741  0.5327  0.7975  0.4500
 1548TIP3    H2 4609   1.175   6.402   0.749  0.8769  2.4698 -0.4719
 1549TIP3   OH2 4610   6.076   3.056   2.156 -0.6174 -0.2841 -0.3013
 1549TIP3    H1 4611   6.083   3.016   2.243 -1.1137  0.3970  0.0623
 1549TIP3    H2 4612   6.098   2.986   2.095  0.1411 -0.6609  0.3945
 1550TIP3   OH2 4613   1.894   5.090   3.511 -0.5649  0.4504  0.1082
 1550TIP3    H1 4614   1.895   5.095   3.416 -1.9977  0.8345  0.0974
 1550TIP3    H2 4615   1.880   5.179   3.541  1.9893  0.7193  0.7963
 1551TIP3   OH2 4616   6.843   2.403   3.105 -0.3475 -1.3568 -0.7301
 1551TIP3    H1 4617   6.906   2.333   3.124 -0.6223 -2.2387 -2.8572
 1551TIP3    H2 4618   6.896   2.482   3.103  0.4050 -1.8459 -0.7885
 1552TIP3   OH2 4619   1.165   5.170   5.152 -0.1314 -0.4729 -0.6390
 1552TIP3    H1 4620   1.151   5.100   5.215  0.7000 -0.0817  0.0031
 1552TIP3    H2 4621   1.132   5.249   5.195  1.0209 -0.0964 -0.4136
 1553TIP3   OH2 4622   5.740   3.956   4.569 -0.2092  0.2377  0.1715
 1553TIP3    H1 4623   5.778   3.912   4.493 -1.9655 -1.8170  0.4005
 1553TIP3    H2 4624   5.746   4.049   4.548  2.2091 -0.1116 -1.0532
 1554TIP3   OH2 4625   3.580   3.066   0.520  0.1744 -0.6073  0.0623
 1554TIP3    H1 4626   3.542   3.134   0.577  0.9093 -0.0002 -0.1502
 1554TIP3    H2 4627   3.507   3.007   0.501 -0.7663  0.7135 -0.6056
 1555TIP3   OH2 4628   4.365   1.559   1.421  0.3814  0.7822 -0.1557
 1555TIP3    H1 4629   4.415   1.562   1.339  4.2452  0.1683  1.9484
 1555TIP3    H2 4630   4.389   1.475   1.461 -2.1378  0.6209  1.2758
 1556TIP3   OH2 4631   6.926   0.212   2.714 -0.0161  0.0810 -0.2293
 1556TIP3    H1 4632   7.018   0.188   2.710 -0.0541 -0.3967  1.1947
 1556TIP3    H2 4633   6.927   0.305   2.739  0.0778  0.1983 -0.6629
 1557TIP3   OH2 4634   1.430   4.098   2.680 -0.2997 -0.3775  0.1070
 1557TIP3    H1 4635   1.464   4.183   2.705  0.4781 -0.3537 -0.9692
 1557TIP3    H2 4636   1.477   4.075   2.600 -1.5154 -1.1763 -0.4218
 1558TIP3   OH2 4637   1.566   4.628   3.146  0.7948 -0.1314 -0.4794
 1558TIP3    H1 4638   1.651   4.636   3.190  0.3841  0.8415  0.1714
 1558TIP3    H2 4639   1.501   4.640   3.216  0.0788 -2.3388 -0.6793
 1559TIP3   OH2 4640   5.765   0.131   2.066 -0.6832  0.2418  0.4064
 1559TIP3    H1 4641   5.715   0.200   2.022 -0.4293 -0.6524 -1.4069
 1559TIP3    H2 4642   5.811   0.175   2.137 -2.9088  1.3485  1.2562
 1560TIP3   OH2 4643   6.393   1.397   0.070  0.3927 -0.0973  0.2459
 1560TIP3    H1 4644   6.422   1.344  -0.005  0.6376 -2.7661  2.0725
 1560TIP3    H2 4645   6.301   1.417   0.050  0.5671 -0.3842 -0.9490
 1561TIP3   OH2 4646   6.314   1.891   0.136  0.8998 -0.4399 -0.1839
 1561TIP3    H1 4647   6.276   1.808   0.164 -1.6687  1.2259  1.6784
 1561TIP3    H2 4648   6.334   1.938   0.217  0.5535  1.4572 -1.1266
 1562TIP3   OH2 4649   4.664   4.962   1.917 -0.2551  0.1190  0.1590
 1562TIP3    H1 4650   4.717   4.911   1.855 -0.2293 -0.4381  0.6305
 1562TIP3    H2 4651   4.726   5.021   1.959 -0.2363  0.3551 -0.2026
 1563TIP3   OH2 4652   7.074   0.825   3.481  0.0677 -0.5936 -0.1555
 1563TIP3    H1 4653   7.002   0.810   3.543 -1.2959 -0.2419 -1.5699
 1563TIP3    H2 4654   7.143   0.865   3.534 -0.9856 -0.4313  1.1705
 1564TIP3   OH2 4655   5.862   5.891   0.510 -0.2869 -0.2682  0.6992
 1564TIP3    H1 4656   5.925   5.846   0.567 -0.6142 -1.0995  0.4257
 1564TIP3    H2 4657   5.834   5.967   0.561 -1.0748 -1.3439  1.9581
 1565TIP3   OH2 4658   5.597   3.111   4.481 -0.1129  0.0603  0.0543
 1565TIP3    H1 4659   5.632   3.159   4.556  0.3105 -0.2696  0.0745
 1565TIP3    H2 4660   5.594   3.177   4.411 -1.1788  0.5490  0.5318
 1566TIP3   OH2 4661   1.891   5.497   4.842  0.2879 -0.2251 -0.0758
 1566TIP3    H1 4662   1.894   5.402   4.831 -2.2471 -0.7946  2.8216
 1566TIP3    H2 4663   1.932   5.512   4.927 -1.6151  0.9116  0.7044
 1567TIP3   OH2 4664   1.075   5.106   3.146  0.3556  0.0203 -0.0313
 1567TIP3    H1 4665   1.055   5.052   3.223 -0.7352  0.0555 -0.2713
 1567TIP3    H2 4666   1.119   5.047   3.085  0.1179 -0.3289  0.1343
 1568TIP3   OH2 4667   2.641   4.175   5.207 -0.1287  0.5789 -0.1979
 1568TIP3    H1 4668   2.658   4.090   5.248  0.9208  0.7412 -0.2692
 1568TIP3    H2 4669   2.618   4.232   5.281  0.4635  0.5486  0.0176
 1569TIP3   OH2 4670   2.829   4.129   0.252  0.3572  0.3176 -0.7219
 1569TIP3    H1 4671   2.791   4.206   0.209 -0.1250  0.7191  0.3866
 1569TIP3    H2 4672   2.833   4.062   0.183 -0.9703  0.7496 -1.2499
 1570TIP3   OH2 4673   6.768   1.805   0.918 -0.6361 -0.1479 -0.3750
 1570TIP3    H1 4674   6.784   1.721   0.877 -1.3990 -0.5333  0.1022
 1570TIP3    H2 4675   6.854   1.831   0.952 -0.2643 -0.4111 -1.0983
 1571TIP3   OH2 4676   4.365   2.068   5.866  0.0176  0.2109 -0.3866
 1571TIP3    H1 4677   4.318   2.039   5.788 -1.0662 -0.1306  0.3752
 1571TIP3    H2 4678   4.449   2.101   5.832 -0.7306  0.7862 -1.7656
 1572TIP3   OH2 4679   0.281   5.732   0.002 -0.1670 -0.4355 -0.0509
 1572TIP3    H1 4680   0.320   5.657   0.047 -0.1012 -0.1197  0.4237
 1572TIP3    H2 4681   0.296   5.806   0.061 -2.2201 -0.4466  0.5634
 1573TIP3   OH2 4682   4.829   3.957   1.284 -0.0583 -0.2054  0.7866
 1573TIP3    H1 4683   4.838   4.036   1.232  0.4420 -0.3287  0.6828
 1573TIP3    H2 4684   4.830   3.886   1.221 -0.3940 -0.3039  0.8894
 1574TIP3   OH2 4685   1.861   2.485   3.013  0.2291 -0.1997  0.9926
 1574TIP3    H1 4686   1.950   2.517   3.000 -0.1600  1.2534  1.7059
 1574TIP3    H2 4687   1.808   2.564   3.021 -1.0324 -1.0407  1.2466
 1575TIP3   OH2 4688   0.476   3.195   0.304 -0.5142  0.3179  0.3823
 1575TIP3    H1 4689   0.569   3.205   0.327  0.0051 -2.4982 -0.2035
 1575TIP3    H2 4690   0.471   3.228   0.214  0.0367 -0.0164  0.2237
 1576TIP3   OH2 4691   1.900   6.629   4.006  0.5242 -0.7593 -0.0440
 1576TIP3    H1 4692   1.992   6.654   4.002  0.7491 -1.6727 -1.7156
 1576TIP3    H2 4693   1.858   6.683   3.939  0.0575 -1.1303 -0.0526
 1577TIP3   OH2 4694   1.851   6.302   0.986 -0.6169  0.2281  0.1695
 1577TIP3    H1 4695   1.821   6.247   0.914 -1.3634  1.1741 -0.2522
 1577TIP3    H2 4696   1.932   6.342   0.954 -2.8061  3.5859 -1.7108
 1578TIP3   OH2 4697   2.585   4.781   2.643 -0.3797  0.1700  0.2343
 1578TIP3    H1 4698   2.667   4.803   2.687 -0.3674  0.9344 -0.1358
 1578TIP3    H2 4699   2.550   4.707   2.691 -0.8041  1.5002  2.0856
 1579TIP3   OH2 4700   5.164   0.602   5.243 -0.1746  0.0489  0.0190
 1579TIP3    H1 4701   5.198   0.614   5.154  0.0324 -0.4541  0.0295
 1579TIP3    H2 4702   5.140   0.691   5.271  1.0261  0.4171 -0.0362
 1580TIP3   OH2 4703   1.361   3.455   3.391 -0.1137  0.4678  0.2393
 1580TIP3    H1 4704   1.450   3.457   3.355  0.1272  0.3604  0.8107
 1580TIP3    H2 4705   1.363   3.385   3.456 -0.6834  0.3099  0.0878
 1581TIP3   OH2 4706   1.477   5.140   1.824 -0.5994 -0.1317 -0.2033
 1581TIP3    H1 4707   1.425   5.061   1.809 -1.8515  0.3168  1.5745
 1581TIP3    H2 4708   1.414   5.212   1.823  0.1245  0.5497  0.9017
 1582TIP3   OH2 4709   5.808   2.063   2.665 -0.1749  0.4321  0.0396
 1582TIP3    H1 4710   5.793   2.137   2.724  2.9929 -0.7536  2.6140
 1582TIP3    H2 4711   5.856   2.100   2.591  0.5148  1.1132  0.8182
 1583TIP3   OH2 4712   4.834   2.503   1.198  0.2839  0.8394 -0.0814
 1583TIP3    H1 4713   4.852   2.468   1.110  2.3080  0.1052  0.5614
 1583TIP3    H2 4714   4.762   2.565   1.185  0.2608  0.4495 -2.1801
 1584TIP3   OH2 4715   2.785   4.539   2.335 -0.0008  0.1987  0.4754
 1584TIP3    H1 4716   2.759   4.480   2.406 -1.1157  0.0537 -0.0385
 1584TIP3    H2 4717   2.816   4.481   2.266  1.4557  0.3570  0.9681
 1585TIP3   OH2 4718   6.844   0.035   1.929 -0.6307 -0.0073  0.4635
 1585TIP3    H1 4719   6.858   0.115   1.878  1.1185  0.0963  1.0386
 1585TIP3    H2 4720   6.749   0.029   1.938 -0.8787  1.1635 -0.8950
 1586TIP3   OH2 4721   3.702   2.435   3.434 -0.0448  0.2264 -0.2743
 1586TIP3    H1 4722   3.656   2.397   3.509 -0.5115  0.0877 -0.6263
 1586TIP3    H2 4723   3.757   2.503   3.472 -0.5355  0.3908  0.1546
 1587TIP3   OH2 4724   1.601   2.674   4.213  0.8088 -0.8074  0.1948
 1587TIP3    H1 4725   1.696   2.670   4.209  0.8243  0.2785 -2.3920
 1587TIP3    H2 4726   1.571   2.606   4.153  0.1298  1.1764 -1.8838
 1588TIP3   OH2 4727   5.879   3.673   2.665  0.1081 -0.0108 -0.1928
 1588TIP3    H1 4728   5.825   3.639   2.737  1.9845 -1.9992  0.3691
 1588TIP3    H2 4729   5.855   3.765   2.659 -1.5260 -0.2429  1.6626
 1589TIP3   OH2 4730   3.608   5.845   5.581  0.0533  0.2178  0.1416
 1589TIP3    H1 4731   3.565   5.766   5.614 -1.7290  1.1281  0.0701
 1589TIP3    H2 4732   3.672   5.866   5.650  0.1809 -0.9567  0.4165
 1590TIP3   OH2 4733   0.207   5.309   3.508  0.0559  0.0729  0.2039
 1590TIP3    H1 4734   0.249   5.296   3.593 -0.6928 -0.0721  0.5572
 1590TIP3    H2 4735   0.255   5.381   3.468 -0.9257  1.5909  1.6572
 1591TIP3   OH2 4736   2.320   4.787   5.501  0.1066 -0.0281  0.0324
 1591TIP3    H1 4737   2.398   4.795   5.556  0.4419  0.5367 -0.5035
 1591TIP3    H2 4738   2.354   4.781   5.412 -0.4486 -0.3730 -0.1663
 1592TIP3   OH2 4739   5.338   2.827   2.467  0.4284 -0.1882  0.1291
 1592TIP3    H1 4740   5.319   2.752   2.410 -0.1396  0.4353 -0.5210
 1592TIP3    H2 4741   5.321   2.794   2.556  2.4428 -1.5130  0.0750
 1593TIP3   OH2 4742   5.208   0.782   2.813 -0.0628 -0.4589 -0.0683
 1593TIP3    H1 4743   5.233   0.708   2.758 -1.1583 -0.7288 -0.2245
 1593TIP3    H2 4744   5.120   0.761   2.843 -0.0016  0.3202  0.7001
 1594TIP3   OH2 4745   4.310   3.430   3.548 -0.3007 -0.0477 -0.5537
 1594TIP3    H1 4746   4.283   3.508   3.500 -0.0393  0.3802 -0.0250
 1594TIP3    H2 4747   4.356   3.376   3.484 -1.1079 -0.1078 -1.1001
 1595TIP3   OH2 4748   5.250   0.548   4.441 -0.0985 -0.3399 -0.0986
 1595TIP3    H1 4749   5.186   0.561   4.511  1.1332  0.2344  0.9670
 1595TIP3    H2 4750   5.291   0.634   4.429 -0.3936 -0.3875 -1.6580
 1596TIP3   OH2 4751   2.949   0.416   1.981  0.2491  0.1296  0.5075
 1596TIP3    H1 4752   3.023   0.456   2.025  0.9776  0.1585 -0.6842
 1596TIP3    H2 4753   2.988   0.346   1.927 -0.7025 -0.5105  0.6193
 1597TIP3   OH2 4754   6.625   2.258   2.043 -0.2205 -0.7327  0.0733
 1597TIP3    H1 4755   6.609   2.318   1.969  1.2306 -2.4382 -1.7330
 1597TIP3    H2 4756   6.550   2.272   2.101 -0.7043  1.7136 -0.9939
 1598TIP3   OH2 4757   5.699   0.289   3.397  0.1968  0.4052 -0.6200
 1598TIP3    H1 4758   5.665   0.377   3.382 -0.6482  0.5150  1.6350
 1598TIP3    H2 4759   5.774   0.302   3.456  0.7672 -0.3083 -1.1702
 1599TIP3   OH2 4760   4.651   6.066   0.421  0.5242 -0.0946  0.6627
 1599TIP3    H1 4761   4.601   6.029   0.349  0.4212 -2.5561  1.9011
 1599TIP3    H2 4762   4.585   6.099   0.482  0.5767  0.7926  0.2537
 1600TIP3   OH2 4763   4.504   0.652   1.190  0.2778 -0.7969 -0.1928
 1600TIP3    H1 4764   4.438   0.688   1.130  1.0766  1.1390  0.0132
 1600TIP3    H2 4765   4.470   0.566   1.213 -0.9001 -0.9132 -2.0768
 1601TIP3   OH2 4766   1.343   1.374   4.206 -0.0504 -0.0816 -0.6310
 1601TIP3    H1 4767   1.428   1.409   4.231  0.5425 -1.3016 -0.9089
 1601TIP3    H2 4768   1.361   1.313   4.135 -1.4429  1.5612 -2.5465
 1602TIP3   OH2 4769   5.410   5.685   0.627 -0.3108  0.4297  0.3602
 1602TIP3    H1 4770   5.351   5.745   0.581  0.2582  0.0631 -0.8992
 1602TIP3    H2 4771   5.425   5.614   0.564  0.3433 -0.1847  1.1960
 1603TIP3   OH2 4772   2.419   2.995   5.052 -0.0013 -0.2711  0.1454
 1603TIP3    H1 4773   2.372   3.077   5.069  0.7552  0.1419  0.2645
 1603TIP3    H2 4774   2.511   3.020   5.051  0.3093 -1.3056  1.2154
 1604TIP3   OH2 4775   4.395   1.040   4.905 -0.0657  0.2934  0.6796
 1604TIP3    H1 4776   4.358   1.067   4.989  1.9922 -0.6835  1.9853
 1604TIP3    H2 4777   4.424   0.950   4.920 -1.0726 -0.4865 -1.6161
 1605TIP3   OH2 4778   1.374   3.327   0.740 -0.2008 -0.3787  0.3636
 1605TIP3    H1 4779   1.427   3.372   0.805  0.1181  0.5955 -0.5364
 1605TIP3    H2 4780   1.332   3.256   0.788  1.3433 -0.7384  1.2577
 1606TIP3   OH2 4781   3.065   2.932   3.736 -0.0494  0.3498 -0.0555
 1606TIP3    H1 4782   3.151   2.903   3.768 -0.0891 -0.4860 -0.6617
 1606TIP3    H2 4783   3.045   2.872   3.664 -0.9370  0.8261 -0.2199
 1607TIP3   OH2 4784   2.366   2.155   0.264  0.2185 -0.5926  0.7409
 1607TIP3    H1 4785   2.430   2.139   0.333  0.9243 -0.7425  0.0601
 1607TIP3    H2 4786   2.418   2.187   0.190 -0.5990  0.1862  0.4851
 1608TIP3   OH2 4787   6.605   1.076   2.365 -0.0570 -0.2039  0.2418
 1608TIP3    H1 4788   6.675   1.121   2.318  0.3527 -0.4454  0.6025
 1608TIP3    H2 4789   6.525   1.102   2.321  0.2211  0.4396  0.1052
 1609TIP3   OH2 4790   2.786   6.566   0.325  0.2017 -0.2085  0.3536
 1609TIP3    H1 4791   2.709   6.545   0.377  1.6394 -1.4662  2.0797
 1609TIP3    H2 4792   2.859   6.531   0.375  1.8382  0.1741 -1.6473
 1610TIP3   OH2 4793   3.997   1.489   2.658  0.0075 -0.3865  0.0096
 1610TIP3    H1 4794   3.959   1.460   2.575 -0.4379 -1.9129  0.7017
 1610TIP3    H2 4795   4.084   1.449   2.660  0.9142  1.4305 -0.6516
 1611TIP3   OH2 4796   4.380   5.464   0.475  0.3913  0.4881  0.3773
 1611TIP3    H1 4797   4.408   5.446   0.385 -1.1117 -0.8148  0.1056
 1611TIP3    H2 4798   4.354   5.378   0.509  0.1795  1.0862  1.7749
 1612TIP3   OH2 4799   1.189   2.607   5.482 -0.2304 -0.4111  0.2853
 1612TIP3    H1 4800   1.211   2.539   5.418 -0.2713 -0.3757  0.2329
 1612TIP3    H2 4801   1.155   2.559   5.558 -0.3757 -0.4426  0.2002
 1613TIP3   OH2 4802   2.040   2.925   3.864 -0.7043 -0.5860 -0.4660
 1613TIP3    H1 4803   2.103   2.920   3.936 -0.8060  1.3824 -0.1983
 1613TIP3    H2 4804   2.069   2.857   3.803  0.7341 -0.7847  0.3742
 1614TIP3   OH2 4805   4.614   3.223   5.785  0.1348 -0.4379  0.3708
 1614TIP3    H1 4806   4.521   3.225   5.764  0.2427 -1.9330 -0.4123
 1614TIP3    H2 4807   4.624   3.286   5.856 -1.2283  0.7136 -0.3998
 1615TIP3   OH2 4808   0.475   4.340   5.642 -0.0961 -0.5456 -0.1198
 1615TIP3    H1 4809   0.444   4.346   5.732  0.0453 -0.6978 -0.0604
 1615TIP3    H2 4810   0.403   4.299   5.594 -1.4368  2.2620 -0.7027
 1616TIP3   OH2 4811   4.388   1.838   1.849 -0.3332  0.4526 -0.9292
 1616TIP3    H1 4812   4.409   1.799   1.764  0.5291 -0.2862 -0.3923
 1616TIP3    H2 4813   4.362   1.763   1.904  0.8293  0.6744 -0.0351
 1617TIP3   OH2 4814   5.660   3.377   2.470  0.6686 -0.3484  0.0080
 1617TIP3    H1 4815   5.707   3.381   2.387 -0.2735  1.5386 -0.4957
 1617TIP3    H2 4816   5.602   3.454   2.469  0.7313 -0.1818  2.4753
 1618TIP3   OH2 4817   1.848   0.063   0.262 -0.3688  0.1649  0.4415
 1618TIP3    H1 4818   1.812  -0.023   0.283 -1.5000  0.5404  0.1347
 1618TIP3    H2 4819   1.896   0.050   0.180 -3.2707  0.4200 -1.4404
 1619TIP3   OH2 4820   6.408   3.093   1.983 -0.3105  0.0145 -0.4202
 1619TIP3    H1 4821   6.434   3.002   1.993 -1.3994 -0.1349  1.6075
 1619TIP3    H2 4822   6.460   3.125   1.909  1.8723 -1.5760  0.3259
 1620TIP3   OH2 4823   3.959   3.930   5.169 -0.1842  0.7848 -0.1156
 1620TIP3    H1 4824   4.010   4.011   5.157  2.9730 -0.6927  1.9842
 1620TIP3    H2 4825   3.954   3.919   5.264 -0.8487 -1.3088 -0.3498
 1621TIP3   OH2 4826   2.396   1.893   0.786 -0.1888  0.9231 -0.2907
 1621TIP3    H1 4827   2.487   1.864   0.795 -0.0286  1.7998  1.2637
 1621TIP3    H2 4828   2.361   1.841   0.714  0.9611 -0.8328  0.3724
 1622TIP3   OH2 4829   0.674   1.998   2.659 -0.3597  0.1539  0.4241
 1622TIP3    H1 4830   0.675   1.902   2.660 -0.4650  0.1192  2.4860
 1622TIP3    H2 4831   0.762   2.022   2.632 -0.2575 -0.5224  0.1159
 1623TIP3   OH2 4832   5.339   3.540   1.825 -0.2422 -0.0401 -0.9007
 1623TIP3    H1 4833   5.402   3.587   1.880  0.1984 -1.2135 -0.3866
 1623TIP3    H2 4834   5.388   3.466   1.791 -0.6240  0.4339 -2.5751
 1624TIP3   OH2 4835   6.215   4.640   3.188 -0.0350 -0.1383 -0.1355
 1624TIP3    H1 4836   6.221   4.672   3.098  0.2529  1.0730  0.3058
 1624TIP3    H2 4837   6.121   4.625   3.201 -0.4281  2.2156  0.1882
 1625TIP3   OH2 4838   3.327   4.095   3.786  0.1268 -0.4771  0.7729
 1625TIP3    H1 4839   3.334   4.017   3.731 -0.7133  0.3667 -0.5825
 1625TIP3    H2 4840   3.351   4.168   3.728  0.2684  0.3399  1.8291
 1626TIP3   OH2 4841   2.674   5.814   3.854 -0.5957  0.2635  0.1433
 1626TIP3    H1 4842   2.695   5.907   3.853  2.2965 -0.2933  0.3718
 1626TIP3    H2 4843   2.619   5.802   3.931  0.6308  1.4886  1.2504
 1627TIP3   OH2 4844   0.074   5.777   0.289  0.1928  0.2018  0.2362
 1627TIP3    H1 4845   0.102   5.766   0.198  0.8874 -0.5156  0.5256
 1627TIP3    H2 4846   0.123   5.853   0.320  0.6722 -0.1222  0.2853
 1628TIP3   OH2 4847   1.101   1.206   4.431  0.3395 -0.0201 -0.1646
 1628TIP3    H1 4848   1.181   1.237   4.474 -0.6418  0.6013  1.3145
 1628TIP3    H2 4849   1.060   1.284   4.395 -0.8643  0.1075  1.3533
 1629TIP3   OH2 4850   5.154   6.550   0.839  0.1282 -0.0408 -0.0706
 1629TIP3    H1 4851   5.191   6.576   0.755  3.1364 -0.0357  1.1288
 1629TIP3    H2 4852   5.168   6.456   0.843  0.6314  0.0540  0.6616
 1630TIP3   OH2 4853   0.644   5.573   5.215  0.0312 -0.1759 -0.1735
 1630TIP3    H1 4854   0.676   5.637   5.152 -0.4299  0.0430 -0.1911
 1630TIP3    H2 4855   0.638   5.622   5.297 -0.5638 -0.1285 -0.2436
 1631TIP3   OH2 4856   5.162   0.189   1.609  0.1306  0.4445 -0.1068
 1631TIP3    H1 4857   5.215   0.269   1.605 -0.0617  0.5208 -1.7686
 1631TIP3    H2 4858   5.206   0.135   1.674  1.0720  1.3452  0.0357
 1632TIP3   OH2 4859   6.199   5.374   2.695 -0.3289  0.2554 -0.3449
 1632TIP3    H1 4860   6.112   5.376   2.656 -0.1028  0.8561 -0.8254
 1632TIP3    H2 4861   6.228   5.283   2.685 -0.7161  0.1557 -0.5855
 1633TIP3   OH2 4862   4.333   3.870   2.638 -0.6907  0.3004 -0.4845
 1633TIP3    H1 4863   4.309   3.923   2.562  0.5014 -0.4869 -1.4528
 1633TIP3    H2 4864   4.310   3.780   2.613  0.2367 -0.0438 -0.1618
 1634TIP3   OH2 4865   6.713   0.047   1.005  0.0885 -0.2028 -0.7533
 1634TIP3    H1 4866   6.770  -0.017   1.048 -0.9312 -1.5362 -1.2914
 1634TIP3    H2 4867   6.626   0.006   1.007 -0.9374  1.8756  0.2845
 1635TIP3   OH2 4868   4.715   2.114   0.742  0.1596  0.7605  0.5741
 1635TIP3    H1 4869   4.641   2.082   0.690 -0.4581  0.8143  1.3896
 1635TIP3    H2 4870   4.742   2.038   0.794  0.7064  0.7346  0.2621
 1636TIP3   OH2 4871   6.196   5.548   2.204 -0.3031 -0.6030  0.0227
 1636TIP3    H1 4872   6.228   5.517   2.289 -1.2308  1.4838  1.1913
 1636TIP3    H2 4873   6.202   5.643   2.209  0.7210 -0.4125 -2.7312
 1637TIP3   OH2 4874   6.325   5.153   0.767  0.3405 -0.1735  0.1364
 1637TIP3    H1 4875   6.400   5.093   0.771  0.2316 -0.3142  0.0950
 1637TIP3    H2 4876   6.342   5.217   0.836  0.4671 -0.2425  0.1708
 1638TIP3   OH2 4877   0.046   3.636   1.521  0.2381 -0.6851  0.3117
 1638TIP3    H1 4878  -0.004   3.559   1.493  0.1774  0.1566 -2.1906
 1638TIP3    H2 4879   0.021   3.704   1.459  2.2277  0.6123  0.8410
 1639TIP3   OH2 4880   1.476   1.905   1.782  0.5215 -0.0308 -0.3344
 1639TIP3    H1 4881   1.416   1.979   1.786 -0.4159 -0.6370 -2.0361
 1639TIP3    H2 4882   1.469   1.873   1.692  0.3064 -2.6438  0.5128
 1640TIP3   OH2 4883   4.656   6.603   3.790 -0.1246  0.2830 -0.3823
 1640TIP3    H1 4884   4.670   6.544   3.865  1.0614 -0.1583 -0.9346
 1640TIP3    H2 4885   4.735   6.594   3.737 -0.8120  0.8337 -1.5363
 1641TIP3   OH2 4886   0.425   0.837   2.382 -0.4336  0.1286 -0.1815
 1641TIP3    H1 4887   0.450   0.809   2.470  1.6576  1.8847 -0.1074
 1641TIP3    H2 4888   0.347   0.890   2.394 -1.2687 -1.1868  0.3367
 1642TIP3   OH2 4889   0.920   2.157   4.023 -0.1629 -0.3618  0.0425
 1642TIP3    H1 4890   1.009   2.122   4.018 -0.1746 -0.3151 -0.4829
 1642TIP3    H2 4891   0.898   2.182   3.933 -1.1132 -1.3775 -0.0277
 1643TIP3   OH2 4892   3.510   2.930   2.375 -0.3080 -0.1468 -0.0227
 1643TIP3    H1 4893   3.445   2.990   2.338  0.9242  0.6840 -0.9109
 1643TIP3    H2 4894   3.594   2.964   2.346  0.7165  0.0669  2.8586
 1644TIP3   OH2 4895   5.214   4.940   1.766  0.3801  0.4078  0.0612
 1644TIP3    H1 4896   5.147   4.896   1.714 -2.1242 -0.2650  3.4984
 1644TIP3    H2 4897   5.293   4.888   1.752 -0.9849 -1.5943 -0.6485
 1645TIP3   OH2 4898   0.749   0.314   4.861 -0.0338 -0.5168 -0.0600
 1645TIP3    H1 4899   0.735   0.232   4.815  0.1255 -1.6380  1.7982
 1645TIP3    H2 4900   0.708   0.302   4.947 -0.4559  1.5386  0.0956
 1646TIP3   OH2 4901   6.935   1.239   4.022  0.1488 -0.4214 -0.0687
 1646TIP3    H1 4902   7.006   1.239   3.958 -0.7395 -0.3043 -1.0793
 1646TIP3    H2 4903   6.974   1.203   4.101  1.5247  0.3355 -0.3821
 1647TIP3   OH2 4904   0.183   4.838   0.947 -0.0543 -0.6964 -0.2523
 1647TIP3    H1 4905   0.137   4.891   0.882  0.4734 -0.3546 -0.3550
 1647TIP3    H2 4906   0.114   4.791   0.993 -0.6691  1.1300  0.7907
 1648TIP3   OH2 4907   2.843   4.874   1.609  0.0286  0.0074  0.2294
 1648TIP3    H1 4908   2.808   4.789   1.632  0.4748 -0.3697 -0.4472
 1648TIP3    H2 4909   2.886   4.905   1.688 -0.5732 -0.1646  0.6293
 1649TIP3   OH2 4910   6.166   2.582   5.028  0.0187 -0.7178 -0.0115
 1649TIP3    H1 4911   6.252   2.554   5.060  1.2634  1.2420 -1.4369
 1649TIP3    H2 4912   6.106   2.560   5.099  1.9254 -0.7893  1.6654
 1650TIP3   OH2 4913   3.455   3.906   1.481  0.2175 -0.0831  0.1242
 1650TIP3    H1 4914   3.500   3.984   1.449  3.2401 -2.0919 -0.9535
 1650TIP3    H2 4915   3.516   3.867   1.543 -1.8818 -0.8956  1.8265
 1651TIP3   OH2 4916   5.411   4.942   5.516 -0.7113  0.2292 -0.4770
 1651TIP3    H1 4917   5.346   4.973   5.452 -0.7369  0.2796 -0.4264
 1651TIP3    H2 4918   5.483   5.004   5.509 -1.1974  0.9239  0.3637
 1652TIP3   OH2 4919   6.346   5.966   5.575  0.0932 -0.2908 -0.0182
 1652TIP3    H1 4920   6.297   5.885   5.590  0.0832 -0.4859 -0.9930
 1652TIP3    H2 4921   6.363   5.965   5.481  1.1392  0.2561  0.1611
 1653TIP3   OH2 4922   0.746   6.230   2.246  0.3964  0.4570  0.9152
 1653TIP3    H1 4923   0.774   6.299   2.186 -0.9871 -0.3491 -0.7351
 1653TIP3    H2 4924   0.814   6.163   2.238  1.2980  1.2257  1.8746
 1654TIP3   OH2 4925   4.252   2.632   5.130 -0.6786 -0.3261 -0.0484
 1654TIP3    H1 4926   4.313   2.699   5.099 -1.1269  0.2451  0.3069
 1654TIP3    H2 4927   4.287   2.550   5.094  0.4138 -0.0365  0.2921
 1655TIP3   OH2 4928   4.310   4.874   2.606  0.0356 -0.2515 -0.2516
 1655TIP3    H1 4929   4.256   4.801   2.633 -0.7745  0.4836  0.1652
 1655TIP3    H2 4930   4.267   4.951   2.643 -0.0323  0.6012 -1.9894
 1656TIP3   OH2 4931   7.042   5.287   1.901  0.1989  0.1722 -0.0531
 1656TIP3    H1 4932   7.073   5.345   1.831  1.7106  1.5887  1.6670
 1656TIP3    H2 4933   7.093   5.207   1.888  0.1728  0.2627 -0.8060
 1657TIP3   OH2 4934   3.079   3.980   4.940  0.2033 -0.0822 -0.3515
 1657TIP3    H1 4935   3.160   3.973   4.992  1.9164  0.3094 -2.7671
 1657TIP3    H2 4936   3.036   4.058   4.975  0.2739 -0.8840  1.6850
 1658TIP3   OH2 4937   0.095   2.494   0.196 -0.1855  0.3157 -0.2255
 1658TIP3    H1 4938   0.027   2.472   0.132 -0.0448  2.0505 -1.0482
 1658TIP3    H2 4939   0.085   2.588   0.210 -0.0113  0.0359  2.1287
 1659TIP3   OH2 4940   6.011   3.518   3.581  0.7358  0.6306  0.1798
 1659TIP3    H1 4941   6.040   3.593   3.529  0.1576  1.7404  1.4200
 1659TIP3    H2 4942   6.030   3.542   3.671 -0.3484 -0.3158  0.6856
 1660TIP3   OH2 4943   2.555   1.778   2.318  0.2765  0.1878  0.4716
 1660TIP3    H1 4944   2.482   1.834   2.292  1.2798 -0.3938 -4.4596
 1660TIP3    H2 4945   2.532   1.691   2.286  1.6210 -0.8539  2.1254
 1661TIP3   OH2 4946   2.122   0.811   5.188  0.0724  0.2799 -0.1605
 1661TIP3    H1 4947   2.181   0.815   5.113 -0.2532  0.3688 -0.4132
 1661TIP3    H2 4948   2.138   0.892   5.236  0.2383  0.2494 -0.1641
 1662TIP3   OH2 4949   2.563   4.745   5.350 -0.1359  0.1952  0.6526
 1662TIP3    H1 4950   2.567   4.662   5.304 -0.1276  0.2659  0.5260
 1662TIP3    H2 4951   2.572   4.722   5.443 -1.5220 -0.0788  0.7322
 1663TIP3   OH2 4952   2.248   2.447   3.675 -0.1024  0.1442 -0.3283
 1663TIP3    H1 4953   2.343   2.460   3.672  0.0362 -0.7513 -0.1625
 1663TIP3    H2 4954   2.213   2.533   3.698  0.7086  0.3714  0.1203
 1664TIP3   OH2 4955   5.892   5.308   1.222  0.2434  0.1487 -0.3004
 1664TIP3    H1 4956   5.816   5.289   1.277  0.3064 -0.5300 -0.4420
 1664TIP3    H2 4957   5.861   5.372   1.159 -0.3196 -0.4131 -0.5972
 1665TIP3   OH2 4958   4.175   3.854   0.678  0.3065  0.5838  0.0515
 1665TIP3    H1 4959   4.217   3.793   0.739  0.0571  0.5556  0.1968
 1665TIP3    H2 4960   4.183   3.811   0.593 -0.3775  0.0714  0.2366
 1666TIP3   OH2 4961   6.538   1.297   4.934 -0.0519  0.2477 -0.3944
 1666TIP3    H1 4962   6.585   1.379   4.948 -0.0293  0.5756 -2.1203
 1666TIP3    H2 4963   6.602   1.229   4.955 -0.4478  0.6063  2.2488
 1667TIP3   OH2 4964   1.317   0.410   3.452 -0.1466  0.3918 -0.9751
 1667TIP3    H1 4965   1.322   0.320   3.421 -0.1592  0.5516 -1.4498
 1667TIP3    H2 4966   1.344   0.405   3.544 -0.6786 -0.1734 -0.8411
 1668TIP3   OH2 4967   7.091   4.299   5.688 -0.4181  0.4312  0.3405
 1668TIP3    H1 4968   7.169   4.263   5.731 -0.1762  1.3515  0.7145
 1668TIP3    H2 4969   7.045   4.346   5.758 -2.0714 -1.2520  0.4559
 1669TIP3   OH2 4970   6.487   2.033   1.854  0.0961  0.0132 -0.3733
 1669TIP3    H1 4971   6.484   2.077   1.939  0.7090  1.0855 -0.8898
 1669TIP3    H2 4972   6.554   1.965   1.864  1.6003  1.4208 -0.5682
 1670TIP3   OH2 4973   1.670   2.160   1.260  0.2584 -0.5499  0.0016
 1670TIP3    H1 4974   1.630   2.235   1.305  0.2321 -1.7682  2.1669
 1670TIP3    H2 4975   1.595   2.112   1.225  0.2736  0.3576 -1.3743
 1671TIP3   OH2 4976   1.240   0.464   1.392  0.0052 -0.2286  0.3679
 1671TIP3    H1 4977   1.247   0.493   1.301 -0.6670 -0.3334  0.2796
 1671TIP3    H2 4978   1.178   0.391   1.390 -1.1510  0.7051  1.1112
 1672TIP3   OH2 4979   4.468   2.766   0.942  0.4754 -0.3234  0.1019
 1672TIP3    H1 4980   4.480   2.852   0.901  0.2754 -0.1764  0.3475
 1672TIP3    H2 4981   4.413   2.717   0.881 -0.1711  0.0366  0.3834
 1673TIP3   OH2 4982   1.004   4.399   1.213 -0.1872  0.1723  0.1565
 1673TIP3    H1 4983   0.951   4.372   1.138  0.0531  0.6688 -0.2002
 1673TIP3    H2 4984   1.053   4.475   1.181  0.0587  0.2710  0.7605
 1674TIP3   OH2 4985   2.972   2.264   0.579  0.3076  0.2303  0.3513
 1674TIP3    H1 4986   3.005   2.276   0.490  1.7062  0.6970  0.8976
 1674TIP3    H2 4987   2.883   2.300   0.577  1.0825  2.2987 -0.3499
 1675TIP3   OH2 4988   6.093   3.321   2.059  0.3291  0.1006 -0.3074
 1675TIP3    H1 4989   6.092   3.229   2.085 -0.0034  0.3630  0.6633
 1675TIP3    H2 4990   6.026   3.328   1.991 -0.1552 -0.2485  0.1206
 1676TIP3   OH2 4991   5.050   6.399   2.352 -0.1294  0.1448 -0.0022
 1676TIP3    H1 4992   4.966   6.409   2.398 -0.7102  1.2884 -1.2278
 1676TIP3    H2 4993   5.106   6.467   2.391 -0.1976  0.2534 -0.0934
 1677TIP3   OH2 4994   1.371   2.871   4.201  0.9771 -0.5027  0.1141
 1677TIP3    H1 4995   1.303   2.829   4.253  0.1447 -1.1753 -1.4379
 1677TIP3    H2 4996   1.450   2.822   4.221  0.7195 -0.6171  0.8792
 1678TIP3   OH2 4997   3.128   6.122   4.656  0.2622 -0.1250 -0.0711
 1678TIP3    H1 4998   3.135   6.115   4.751  0.0103  1.6081  0.1048
 1678TIP3    H2 4999   3.216   6.148   4.627  0.6434 -1.7631 -0.4583
 1679TIP3   OH2 5000   5.891   5.576   1.104 -0.0585 -0.0818 -0.3969
 1679TIP3    H1 5001   5.829   5.649   1.113 -0.2588 -0.1233 -1.3455
 1679TIP3    H2 5002   5.950   5.586   1.179 -0.2965  0.8448 -0.3165
 1680TIP3   OH2 5003   6.725   5.174   3.859 -0.1929 -0.2191 -0.1655
 1680TIP3    H1 5004   6.764   5.257   3.883 -2.1323  0.5958  0.4149
 1680TIP3    H2 5005   6.757   5.156   3.771  1.1000  0.5831  0.1248
 1681TIP3   OH2 5006   7.152   1.209   4.248  0.0088  0.0321 -0.1994
 1681TIP3    H1 5007   7.096   1.274   4.290 -0.6934 -0.0465 -0.9808
 1681TIP3    H2 5008   7.241   1.233   4.273 -0.3497  0.3205  0.8410
 1682TIP3   OH2 5009   0.967   2.828   4.860  0.3928 -0.4605 -0.3604
 1682TIP3    H1 5010   1.018   2.902   4.828  0.5263 -0.6153 -0.5111
 1682TIP3    H2 5011   1.006   2.807   4.945  0.2454 -0.2527 -0.2400
 1683TIP3   OH2 5012   5.523   4.109   5.567  0.1225 -0.1291 -0.4732
 1683TIP3    H1 5013   5.498   4.065   5.486 -0.5129  0.4328 -0.5994
 1683TIP3    H2 5014   5.594   4.167   5.542  0.7304 -0.8182 -0.3760
 1684TIP3   OH2 5015   1.353   3.064   1.913  0.3580 -0.2911  0.1106
 1684TIP3    H1 5016   1.383   3.154   1.897 -2.7610  0.9842  0.6952
 1684TIP3    H2 5017   1.326   3.033   1.827  0.5537 -0.3237  0.0598
 1685TIP3   OH2 5018   5.422   3.027   2.152  0.1062 -0.4595 -0.1820
 1685TIP3    H1 5019   5.468   2.945   2.171 -0.1971 -0.6358 -0.1891
 1685TIP3    H2 5020   5.348   3.027   2.212 -0.6654 -0.8559 -1.0931
 1686TIP3   OH2 5021   3.949   0.139   3.109  0.7892 -0.3790  0.0759
 1686TIP3    H1 5022   3.859   0.165   3.131  1.3382  1.3115  0.5114
 1686TIP3    H2 5023   3.939   0.075   3.039 -0.7431  0.1302 -0.2224
 1687TIP3   OH2 5024   0.991   0.090   0.579  0.2259 -0.0759 -0.3285
 1687TIP3    H1 5025   0.946   0.034   0.516 -1.5315  0.4556  0.3988
 1687TIP3    H2 5026   0.940   0.082   0.660  1.4421  0.5756  0.5438
 1688TIP3   OH2 5027   1.614   1.388   4.322 -0.2483 -0.3978 -0.4694
 1688TIP3    H1 5028   1.645   1.392   4.232  1.0026  0.6605 -0.0177
 1688TIP3    H2 5029   1.614   1.295   4.344 -1.6261 -0.7801 -1.8890
 1689TIP3   OH2 5030   4.162   2.666   4.251 -0.6075  0.4319 -0.1643
 1689TIP3    H1 5031   4.160   2.680   4.345 -3.6807  0.3600 -0.1233
 1689TIP3    H2 5032   4.072   2.646   4.227  0.5538 -2.9891 -2.6424
 1690TIP3   OH2 5033   6.035   2.442   0.738  0.2277 -0.2844  0.1259
 1690TIP3    H1 5034   6.009   2.433   0.829 -1.9808  0.9507 -0.3139
 1690TIP3    H2 5035   6.108   2.504   0.740  0.1241 -0.1825  1.0333
 1691TIP3   OH2 5036   0.733   4.965   3.617  0.1858 -0.1370  0.3148
 1691TIP3    H1 5037   0.817   5.008   3.633  0.1953 -0.7134  1.9821
 1691TIP3    H2 5038   0.750   4.872   3.633 -0.8615 -0.2035  1.1021
 1692TIP3   OH2 5039   1.083   4.030   1.626 -0.2447 -0.5301 -0.1819
 1692TIP3    H1 5040   1.105   3.990   1.542  1.5827  0.7617 -0.3744
 1692TIP3    H2 5041   1.163   4.025   1.677 -1.1037 -0.5572  1.1988
 1693TIP3   OH2 5042   3.667   3.254   4.023 -0.1647 -0.6374 -0.0543
 1693TIP3    H1 5043   3.650   3.263   4.117  1.8715 -3.5823  0.7478
 1693TIP3    H2 5044   3.757   3.286   4.012 -0.0734 -1.1531 -0.8253
 1694TIP3   OH2 5045   1.103   1.767   3.558  0.4719  0.1296  0.7950
 1694TIP3    H1 5046   1.035   1.835   3.558 -0.5969 -0.8893  1.5726
 1694TIP3    H2 5047   1.178   1.807   3.515  0.1535  2.0714  1.9518
 1695TIP3   OH2 5048   4.205   2.189   2.607  0.5236 -0.0759  0.0574
 1695TIP3    H1 5049   4.290   2.229   2.589 -0.1370  1.4995  0.3001
 1695TIP3    H2 5050   4.224   2.095   2.617  2.4322  0.3961  1.4375
 1696TIP3   OH2 5051   2.650   4.986   2.197  0.2809  0.0702  0.1269
 1696TIP3    H1 5052   2.672   4.915   2.258  1.7115 -0.2002 -0.6392
 1696TIP3    H2 5053   2.648   4.943   2.111 -1.7006  0.4392 -0.0633
 1697TIP3   OH2 5054   6.393   6.429   3.576 -0.1876 -0.1565  0.4413
 1697TIP3    H1 5055   6.382   6.522   3.557  2.8124  0.1190 -0.5540
 1697TIP3    H2 5056   6.370   6.385   3.494 -1.2312 -0.2877  0.7923
 1698TIP3   OH2 5057   1.048   1.906   5.820 -0.7630 -0.2232 -0.1219
 1698TIP3    H1 5058   0.965   1.915   5.774 -1.3684  0.8346  1.1177
 1698TIP3    H2 5059   1.038   1.959   5.899  1.2958  0.3926 -0.2082
 1699TIP3   OH2 5060   0.553   1.409   3.395  0.1039 -0.2097  0.1449
 1699TIP3    H1 5061   0.612   1.361   3.453 -0.4644 -1.2815 -0.1425
 1699TIP3    H2 5062   0.466   1.378   3.418 -0.2279  0.2651 -0.4512
 1700TIP3   OH2 5063   1.082   5.549   4.725  0.2410 -0.5876  0.5117
 1700TIP3    H1 5064   1.059   5.556   4.818  0.3797 -2.1142  0.6988
 1700TIP3    H2 5065   1.007   5.505   4.686  0.1080  0.2107 -0.1477
 1701TIP3   OH2 5066   6.826   6.301   1.753  0.4982  0.0856 -0.3241
 1701TIP3    H1 5067   6.841   6.289   1.847 -1.7814 -2.3001 -0.1557
 1701TIP3    H2 5068   6.907   6.269   1.712  0.5885 -1.2156  0.7892
 1702TIP3   OH2 5069   3.230   4.634   4.293  0.0112  0.3982 -0.0988
 1702TIP3    H1 5070   3.219   4.550   4.249  0.9843  0.8196 -1.1868
 1702TIP3    H2 5071   3.143   4.674   4.290 -0.2481 -0.1770 -0.3831
 1703TIP3   OH2 5072   4.987   4.545   3.848 -0.7004  0.0283  0.9920
 1703TIP3    H1 5073   4.950   4.469   3.803  0.8374 -0.4628  0.5266
 1703TIP3    H2 5074   4.997   4.611   3.779  0.4645 -0.2827  0.8559
 1704TIP3   OH2 5075   5.101   4.152   1.879  0.3204 -0.1815 -0.7253
 1704TIP3    H1 5076   5.116   4.229   1.825 -1.7961 -0.0299 -1.1667
 1704TIP3    H2 5077   5.063   4.186   1.960 -1.2332 -0.7591 -1.1687
 1705TIP3   OH2 5078   4.547   0.523   3.682 -0.0585 -0.4422  0.1531
 1705TIP3    H1 5079   4.578   0.495   3.768 -0.4329 -0.8574  0.1580
 1705TIP3    H2 5080   4.551   0.618   3.684 -2.4520 -0.2979  1.5444
 1706TIP3   OH2 5081   0.355   1.152   2.690 -0.3072  0.0768  0.4439
 1706TIP3    H1 5082   0.443   1.122   2.668  0.1096  2.2874 -1.2382
 1706TIP3    H2 5083   0.356   1.162   2.785  0.8801 -0.9268  0.5684
 1707TIP3   OH2 5084   2.131   6.372   0.840 -0.5739 -0.5852  0.0606
 1707TIP3    H1 5085   2.062   6.377   0.773 -1.0302  1.3545  0.5969
 1707TIP3    H2 5086   2.171   6.286   0.827 -1.2413 -0.6470 -2.1032
 1708TIP3   OH2 5087   7.041   2.908   5.651 -0.4265 -0.0210  0.0359
 1708TIP3    H1 5088   7.088   2.829   5.678  0.5609  0.5176 -0.0584
 1708TIP3    H2 5089   7.076   2.929   5.565 -1.9069 -0.4191 -0.7078
 1709TIP3   OH2 5090   1.960   6.111   3.721  0.2944 -0.1080  0.1164
 1709TIP3    H1 5091   1.964   6.018   3.743 -1.1671 -0.3600 -0.5981
 1709TIP3    H2 5092   1.867   6.130   3.715  0.4889  1.8988  2.2381
 1710TIP3   OH2 5093   2.401   6.756   2.323  0.3484 -0.3422 -0.0909
 1710TIP3    H1 5094   2.409   6.773   2.417 -0.0731 -0.8709  0.0452
 1710TIP3    H2 5095   2.319   6.796   2.298 -0.7093 -2.1589  0.2552
 1711TIP3   OH2 5096   4.422   3.284   1.784  0.1955  0.8528 -0.5424
 1711TIP3    H1 5097   4.443   3.376   1.768 -3.5302  2.0675  0.5515
 1711TIP3    H2 5098   4.333   3.285   1.818 -0.0139 -3.2128 -0.4552
 1712TIP3   OH2 5099   5.453   6.469   4.094 -0.2582 -0.3632  0.6497
 1712TIP3    H1 5100   5.390   6.515   4.039  0.2070 -0.3197  0.1503
 1712TIP3    H2 5101   5.413   6.383   4.108 -2.4005  0.9447  3.7433
 1713TIP3   OH2 5102   3.097   4.202   4.054 -0.1166  0.6397 -0.3734
 1713TIP3    H1 5103   3.022   4.177   4.001  0.8288  1.2424 -2.0738
 1713TIP3    H2 5104   3.139   4.119   4.076 -0.2000  0.3955 -1.0892
 1714TIP3   OH2 5105   2.985   1.896   2.277 -0.2864  0.1606 -0.0753
 1714TIP3    H1 5106   2.929   1.838   2.328  0.7282  0.8029  1.8592
 1714TIP3    H2 5107   2.949   1.983   2.292 -0.5221  0.2797 -1.2377
 1715TIP3   OH2 5108   4.098   2.983   4.254  0.2057  0.5348 -0.2278
 1715TIP3    H1 5109   4.163   3.023   4.311  0.6762 -1.1267  0.4403
 1715TIP3    H2 5110   4.014   3.008   4.292  0.4992  0.3291  0.5678
 1716TIP3   OH2 5111   1.735   3.772   0.469  0.3073  0.2945  0.3551
 1716TIP3    H1 5112   1.825   3.790   0.443  0.8269 -0.0873  1.7811
 1716TIP3    H2 5113   1.711   3.847   0.524 -0.7639  1.0981 -1.1210
 1717TIP3   OH2 5114   3.333   0.675   5.684  0.2503 -0.1737 -0.0688
 1717TIP3    H1 5115   3.369   0.605   5.739  3.2135  0.6507 -0.7664
 1717TIP3    H2 5116   3.252   0.700   5.728  0.1479 -2.6478  1.3224
 1718TIP3   OH2 5117   1.897   2.372   4.661  0.3256 -0.1914 -0.1093
 1718TIP3    H1 5118   1.976   2.356   4.610 -0.1771 -2.1252 -0.3646
 1718TIP3    H2 5119   1.845   2.292   4.650 -0.1665 -0.3694  2.7619
 1719TIP3   OH2 5120   2.336   5.326   0.314 -0.4845 -0.0146 -0.2063
 1719TIP3    H1 5121   2.342   5.307   0.408 -0.8980  0.1055 -0.1537
 1719TIP3    H2 5122   2.310   5.243   0.274 -0.9102  0.0819 -0.1396
 1720TIP3   OH2 5123   0.108   4.704   4.103  0.1150  0.3178  0.0612
 1720TIP3    H1 5124   0.050   4.780   4.102 -1.3700 -0.7435  0.5020
 1720TIP3    H2 5125   0.104   4.670   4.013 -0.9029 -0.3956  0.3498
 1721TIP3   OH2 5126   6.996   2.055   0.165  0.7069  0.6323 -0.0575
 1721TIP3    H1 5127   7.068   2.051   0.228  1.4425 -1.3030 -0.9466
 1721TIP3    H2 5128   6.927   2.000   0.203  1.6600 -1.6608 -1.4615
 1722TIP3   OH2 5129   2.742   4.111   1.406  0.3055  0.3461  0.2892
 1722TIP3    H1 5130   2.836   4.131   1.411  0.6604 -1.2706  0.3954
 1722TIP3    H2 5131   2.712   4.161   1.330  1.1565  1.2120  0.4972
 1723TIP3   OH2 5132   4.152   3.271   2.955  0.5598 -0.2097  0.3441
 1723TIP3    H1 5133   4.148   3.187   2.910  0.5167 -1.0156  1.7874
 1723TIP3    H2 5134   4.234   3.310   2.925  0.8509 -1.0139  0.0651
 1724TIP3   OH2 5135   2.503   6.680   1.856 -0.3979 -0.2628  0.1631
 1724TIP3    H1 5136   2.503   6.706   1.948  0.2396 -0.2255  0.1565
 1724TIP3    H2 5137   2.585   6.715   1.821  0.3537 -2.0097  0.0748
 1725TIP3   OH2 5138   5.625   0.555   3.400 -0.0157  0.2461 -0.3891
 1725TIP3    H1 5139   5.656   0.591   3.317  0.0126 -0.9506 -0.9107
 1725TIP3    H2 5140   5.532   0.578   3.402  0.3504  1.8034  0.0890
 1726TIP3   OH2 5141   6.057   5.901   3.004 -0.2626  0.3123  0.1678
 1726TIP3    H1 5142   6.039   5.976   2.948 -2.0103  0.3004  0.6587
 1726TIP3    H2 5143   6.031   5.929   3.091  2.0523  0.1953  0.9633
 1727TIP3   OH2 5144   2.005   1.619   1.943 -0.4619  0.3011  0.2339
 1727TIP3    H1 5145   2.015   1.567   2.022  0.7429  1.9625  1.2463
 1727TIP3    H2 5146   1.962   1.700   1.973 -0.0570  0.9255 -0.8118
 1728TIP3   OH2 5147   0.082   2.452   5.303  0.6767  0.0033  0.2544
 1728TIP3    H1 5148   0.141   2.487   5.370  0.5062  1.0017 -0.0999
 1728TIP3    H2 5149  -0.006   2.473   5.336  0.6165  1.6917 -0.8825
 1729TIP3   OH2 5150   3.998   3.881   1.367 -0.6139 -0.3407 -0.1940
 1729TIP3    H1 5151   3.929   3.821   1.395 -1.0300  0.6558  0.9790
 1729TIP3    H2 5152   4.079   3.837   1.393 -0.7394 -1.6448 -1.8246
 1730TIP3   OH2 5153   6.445   1.510   1.969  0.0314  0.3902  0.4619
 1730TIP3    H1 5154   6.368   1.487   1.916 -0.4386  2.1958  0.2823
 1730TIP3    H2 5155   6.454   1.438   2.031 -1.6331 -0.0191  0.2713
 1731TIP3   OH2 5156   5.644   3.266   0.541  0.4272  0.0972 -0.5520
 1731TIP3    H1 5157   5.595   3.341   0.507 -0.1582  0.7293  1.5093
 1731TIP3    H2 5158   5.617   3.192   0.487 -0.1186  1.0973 -1.6844
 1732TIP3   OH2 5159   6.437   6.385   5.368  0.4165 -0.3072 -0.4999
 1732TIP3    H1 5160   6.515   6.405   5.316 -0.5855  0.6528 -1.7266
 1732TIP3    H2 5161   6.368   6.438   5.327 -0.3092  1.0189  2.2210
 1733TIP3   OH2 5162   3.787   3.885   0.473 -0.1959  0.4300 -0.0293
 1733TIP3    H1 5163   3.857   3.859   0.414  0.0214 -1.4826  0.9969
 1733TIP3    H2 5164   3.829   3.944   0.535  0.3392 -0.1137  0.1355
 1734TIP3   OH2 5165   5.834   5.599   3.609 -0.6927 -0.2474  0.5511
 1734TIP3    H1 5166   5.806   5.519   3.566 -0.0787  0.4644 -1.2391
 1734TIP3    H2 5167   5.905   5.571   3.668  1.1633 -0.7537 -1.7806
 1735TIP3   OH2 5168   4.085   0.105   5.478 -0.2079 -0.1384 -0.2742
 1735TIP3    H1 5169   4.116   0.094   5.389 -1.0149  1.2144 -0.7488
 1735TIP3    H2 5170   3.991   0.086   5.474 -0.2592 -0.0434  0.2790
 1736TIP3   OH2 5171   4.767   4.149   1.452  0.2356 -0.2851 -0.1063
 1736TIP3    H1 5172   4.796   4.069   1.409 -2.3950 -1.0964 -0.5392
 1736TIP3    H2 5173   4.701   4.120   1.515 -0.9138  1.5521 -0.4071
 1737TIP3   OH2 5174   6.376   1.138   3.211  0.2594  0.3651  0.0359
 1737TIP3    H1 5175   6.379   1.150   3.116  1.7615  2.0903  0.2516
 1737TIP3    H2 5176   6.368   1.226   3.246  0.3963 -0.1969  1.5501
 1738TIP3   OH2 5177   7.207   4.739   3.062  0.4102  0.0581 -0.3908
 1738TIP3    H1 5178   7.140   4.735   2.995  1.6037  2.1527 -1.8272
 1738TIP3    H2 5179   7.276   4.680   3.031  0.9790  1.0569 -1.0487
 1739TIP3   OH2 5180   7.053   2.892   4.592 -0.3023 -0.0852 -0.2044
 1739TIP3    H1 5181   7.113   2.818   4.603 -0.6913 -0.5289 -1.0258
 1739TIP3    H2 5182   7.095   2.964   4.640 -0.2767 -1.0097  1.2353
 1740TIP3   OH2 5183   6.595   2.268   0.704 -0.0486 -0.0235 -0.2595
 1740TIP3    H1 5184   6.660   2.201   0.724  0.1774  0.2322 -0.1268
 1740TIP3    H2 5185   6.641   2.331   0.648 -0.7304 -0.8284 -1.7848
 1741TIP3   OH2 5186   3.387   5.868   1.022 -0.4385  0.0383 -0.1322
 1741TIP3    H1 5187   3.297   5.899   1.033 -0.4867 -0.8133  2.6215
 1741TIP3    H2 5188   3.387   5.825   0.936 -2.6293  0.1505 -0.2480
 1742TIP3   OH2 5189   5.069   1.893   3.151 -0.4298 -0.1227  0.1719
 1742TIP3    H1 5190   5.105   1.805   3.156  0.7231  0.2912 -0.4751
 1742TIP3    H2 5191   4.985   1.883   3.107 -1.6452 -1.2482  2.5732
 1743TIP3   OH2 5192   4.260   1.354   4.068  0.2333 -0.1826 -0.2232
 1743TIP3    H1 5193   4.351   1.327   4.057  0.1389 -0.5893 -0.0183
 1743TIP3    H2 5194   4.251   1.369   4.163 -0.7988 -3.4194  0.3094
 1744TIP3   OH2 5195   0.389   3.334   0.095 -0.1478  0.1696  0.7992
 1744TIP3    H1 5196   0.402   3.420   0.135 -1.0300 -0.2723  2.0993
 1744TIP3    H2 5197   0.294   3.327   0.084 -0.3373 -1.5250  2.8604
 1745TIP3   OH2 5198   6.557   6.161   1.251  0.6314 -0.5572 -0.3954
 1745TIP3    H1 5199   6.559   6.079   1.301 -0.6312 -0.4551 -0.1445
 1745TIP3    H2 5200   6.481   6.151   1.193  0.3692  0.5067 -0.2453
 1746TIP3   OH2 5201   2.319   4.857   4.514 -0.0504 -0.7360  0.0428
 1746TIP3    H1 5202   2.406   4.896   4.519  0.1218 -1.0138 -0.6313
 1746TIP3    H2 5203   2.322   4.783   4.574  0.0224 -0.4580  0.3834
 1747TIP3   OH2 5204   5.639   6.302   0.409 -0.7212  0.8174 -0.0288
 1747TIP3    H1 5205   5.676   6.388   0.428  1.4445  0.1946 -1.0567
 1747TIP3    H2 5206   5.651   6.291   0.314  0.7320 -1.2666  0.3141
 1748TIP3   OH2 5207   5.700   1.816   2.703  0.0283  0.0015  0.0383
 1748TIP3    H1 5208   5.609   1.839   2.685  0.0298  0.2291  0.3055
 1748TIP3    H2 5209   5.743   1.900   2.722  0.0612 -0.2062  0.9206
 1749TIP3   OH2 5210   4.913   5.588   0.084  0.5701 -0.1406 -0.1574
 1749TIP3    H1 5211   4.912   5.664   0.142  1.7356 -1.1537  1.2671
 1749TIP3    H2 5212   4.946   5.516   0.139  0.5359 -1.4309 -1.7476
 1750TIP3   OH2 5213   3.601   0.449   5.149  0.0185  0.0270 -0.9315
 1750TIP3    H1 5214   3.628   0.537   5.124 -0.5461 -0.2196 -2.5381
 1750TIP3    H2 5215   3.675   0.393   5.123 -0.3402 -0.1634 -1.5808
 1751TIP3   OH2 5216   2.630   3.104   2.855  0.1050 -0.2547  0.4145
 1751TIP3    H1 5217   2.579   3.175   2.895  1.6401  0.5837  0.9495
 1751TIP3    H2 5218   2.699   3.148   2.807 -0.2542 -1.3480 -1.1723
 1752TIP3   OH2 5219   1.774   1.393   3.784  0.6464  0.0470 -0.4183
 1752TIP3    H1 5220   1.812   1.481   3.781  0.7192  0.1100  1.3239
 1752TIP3    H2 5221   1.798   1.354   3.700 -1.0525  2.3280 -2.0809
 1753TIP3   OH2 5222   3.027   2.788   0.310  0.3502  0.1612 -0.1033
 1753TIP3    H1 5223   2.999   2.841   0.384  0.7102 -0.1196  0.2432
 1753TIP3    H2 5224   3.096   2.839   0.268 -1.1013  1.1650 -1.3660
 1754TIP3   OH2 5225   4.359   6.226   3.229  0.2445 -0.1456 -0.1905
 1754TIP3    H1 5226   4.280   6.245   3.279  0.8360 -1.0613  1.1294
 1754TIP3    H2 5227   4.420   6.296   3.253  0.2710 -0.1569 -0.2241
 1755TIP3   OH2 5228   3.295   5.441   4.052  0.0804 -0.0020  0.3332
 1755TIP3    H1 5229   3.356   5.443   3.978  0.5736  0.6270  0.7348
 1755TIP3    H2 5230   3.235   5.513   4.035  0.7987  0.7835  1.0187
 1756TIP3   OH2 5231   1.538   1.943   2.980  0.3362 -0.7189  0.4017
 1756TIP3    H1 5232   1.474   1.975   2.917 -0.5325 -1.7162  0.7387
 1756TIP3    H2 5233   1.612   2.002   2.972 -0.6102  0.4392 -0.0339
 1757TIP3   OH2 5234   0.803   1.823   1.053  0.0291  0.3182 -0.6531
 1757TIP3    H1 5235   0.870   1.890   1.046  0.9902 -0.5311 -0.0170
 1757TIP3    H2 5236   0.818   1.765   0.978  0.5252 -0.3004 -0.0935
 1758TIP3   OH2 5237   4.606   4.607   4.253  0.3986  0.1516  0.2754
 1758TIP3    H1 5238   4.612   4.514   4.273  0.8550  0.1191  0.0054
 1758TIP3    H2 5239   4.650   4.616   4.168 -0.6149  0.4427 -0.2275
 1759TIP3   OH2 5240   0.417   6.363   3.301  0.2182 -0.2170 -0.0098
 1759TIP3    H1 5241   0.370   6.407   3.230 -0.7560 -0.4295  0.4853
 1759TIP3    H2 5242   0.438   6.276   3.265  0.7217  0.0655 -0.4179
 1760TIP3   OH2 5243   1.214   5.852   3.370 -0.1826 -0.2102  0.2692
 1760TIP3    H1 5244   1.188   5.897   3.450  1.0789  0.0188  0.5707
 1760TIP3    H2 5245   1.230   5.923   3.307 -0.7718 -0.3679 -0.0593
 1761TIP3   OH2 5246   5.017   1.681   1.746 -0.0944 -0.4217  0.3503
 1761TIP3    H1 5247   5.055   1.768   1.733 -0.4996 -0.6616 -3.7649
 1761TIP3    H2 5248   4.948   1.695   1.811 -0.2953  2.3867 -0.3435
 1762TIP3   OH2 5249   4.437   0.024   0.354  0.2296 -0.2851 -0.5897
 1762TIP3    H1 5250   4.444   0.112   0.389  0.1066 -0.1741 -0.8461
 1762TIP3    H2 5251   4.524   0.005   0.320  0.2409 -0.2416 -0.5851
 1763TIP3   OH2 5252   0.870   5.780   1.134 -0.2736 -0.3844 -0.2218
 1763TIP3    H1 5253   0.949   5.782   1.188 -0.4804  2.8242  0.1191
 1763TIP3    H2 5254   0.902   5.781   1.044  0.0165 -2.2165 -0.1935
 1764TIP3   OH2 5255   3.621   3.296   2.756 -0.5608  0.7710  0.1931
 1764TIP3    H1 5256   3.591   3.330   2.672  0.2636 -0.9401 -0.8571
 1764TIP3    H2 5257   3.640   3.204   2.739  1.4735  0.8279  1.7438
 1765TIP3   OH2 5258   0.622   6.254   4.836  0.1683  0.0457  0.3132
 1765TIP3    H1 5259   0.674   6.259   4.755  0.4322  0.2676  0.4930
 1765TIP3    H2 5260   0.619   6.345   4.868  1.4864 -0.2789  1.4454
 1766TIP3   OH2 5261   4.960   0.098   2.800  0.7050  0.2649 -0.5879
 1766TIP3    H1 5262   4.904   0.069   2.871  1.4713 -1.1252 -0.5098
 1766TIP3    H2 5263   4.933   0.047   2.724 -0.6880  2.3395 -1.5927
 1767TIP3   OH2 5264   1.334   1.911   2.528 -0.0419  0.4313  0.0086
 1767TIP3    H1 5265   1.340   1.999   2.564 -2.1857 -0.1426  2.0569
 1767TIP3    H2 5266   1.331   1.923   2.433  1.3274  2.3884  0.1665
 1768TIP3   OH2 5267   3.737   5.968   3.897 -0.0644  0.0665 -0.0202
 1768TIP3    H1 5268   3.770   5.878   3.890 -0.0711  0.0824 -0.2798
 1768TIP3    H2 5269   3.712   5.991   3.808 -1.4359 -0.1818  0.2892
 1769TIP3   OH2 5270   2.095   2.856   1.944  0.0243  0.0868 -0.1200
 1769TIP3    H1 5271   2.128   2.895   1.863 -0.1326  0.5914  0.0548
 1769TIP3    H2 5272   2.045   2.927   1.986 -0.0700 -0.2337  0.3135
 1770TIP3   OH2 5273   5.144   3.006   1.898 -0.0367 -0.4427 -0.6992
 1770TIP3    H1 5274   5.173   2.977   1.985  0.5593 -0.3795 -0.8717
 1770TIP3    H2 5275   5.085   2.937   1.868 -0.4245 -0.3543 -0.1495
 1771TIP3   OH2 5276   5.425   4.886   2.557  0.2824 -0.4931 -0.4678
 1771TIP3    H1 5277   5.498   4.850   2.608  0.3810  0.5834  0.1992
 1771TIP3    H2 5278   5.458   4.888   2.467  0.8706 -0.5516 -0.2600
 1772TIP3   OH2 5279   4.406   0.476   1.561 -0.2825 -0.3038 -0.0853
 1772TIP3    H1 5280   4.452   0.555   1.535  1.9276 -1.9206 -1.5243
 1772TIP3    H2 5281   4.373   0.440   1.478 -0.5103 -1.2971  0.4237
 1773TIP3   OH2 5282   5.735   6.374   5.278  0.1694  0.2015  0.4853
 1773TIP3    H1 5283   5.735   6.461   5.238  1.8937  0.2414  0.5203
 1773TIP3    H2 5284   5.665   6.327   5.232  0.2072  1.1430 -0.5865
 1774TIP3   OH2 5285   5.597   6.519   5.028  0.2518  0.3665 -0.1749
 1774TIP3    H1 5286   5.547   6.598   5.005 -1.1494 -0.9750 -1.9412
 1774TIP3    H2 5287   5.659   6.509   4.957 -1.0460 -1.2884 -1.1384
 1775TIP3   OH2 5288   0.126   4.767   4.618  0.7378 -0.8714  0.4570
 1775TIP3    H1 5289   0.192   4.836   4.611 -1.7345  1.6897  0.5606
 1775TIP3    H2 5290   0.108   4.741   4.528  1.9063 -1.6880  0.4336
 1776TIP3   OH2 5291   2.191   3.667   2.560  0.3571 -0.0814  0.0470
 1776TIP3    H1 5292   2.182   3.762   2.563  2.1691  0.2048 -1.1653
 1776TIP3    H2 5293   2.137   3.634   2.631  0.8514  1.9538  1.4361
 1777TIP3   OH2 5294   4.296   4.752   5.172 -0.2105  0.4077 -0.2115
 1777TIP3    H1 5295   4.317   4.712   5.256  1.0372  0.5326 -0.4546
 1777TIP3    H2 5296   4.201   4.766   5.176 -0.1450  0.6047  1.2447
 1778TIP3   OH2 5297   4.313   4.161   1.946  0.0396  0.5509  0.0651
 1778TIP3    H1 5298   4.347   4.190   1.861 -0.5595  1.4710  0.1274
 1778TIP3    H2 5299   4.224   4.195   1.948  0.0772  0.5982  1.1035
 1779TIP3   OH2 5300   6.417   5.253   4.136 -0.1317 -0.0019  0.6986
 1779TIP3    H1 5301   6.406   5.160   4.115  2.0566 -0.1504 -0.0283
 1779TIP3    H2 5302   6.469   5.254   4.216  0.7235  0.5965  0.1413
 1780TIP3   OH2 5303   2.669   4.333   3.713  0.0992 -0.3848  0.3134
 1780TIP3    H1 5304   2.659   4.264   3.648 -0.8821  0.8273 -0.8674
 1780TIP3    H2 5305   2.579   4.354   3.740  0.1889  1.8994 -0.9635
 1781TIP3   OH2 5306   1.766   0.349   1.832 -0.3089  0.2302 -0.1697
 1781TIP3    H1 5307   1.838   0.314   1.884  0.3573  1.8917  0.0686
 1781TIP3    H2 5308   1.800   0.355   1.743 -0.5236 -0.0284 -0.2695
 1782TIP3   OH2 5309   4.635   5.960   5.559  0.4584  0.3577  0.5035
 1782TIP3    H1 5310   4.720   5.964   5.515  0.6038 -1.1645  0.6079
 1782TIP3    H2 5311   4.607   5.869   5.550  0.1870  0.1384  2.9816
 1783TIP3   OH2 5312   1.790   0.231   5.396  0.3140 -0.2995 -0.2113
 1783TIP3    H1 5313   1.770   0.166   5.463  2.3402 -0.1017  0.6687
 1783TIP3    H2 5314   1.799   0.313   5.445  0.0696  0.1887 -0.9735
 1784TIP3   OH2 5315   1.004   2.781   4.139 -0.4809  0.5410  0.3277
 1784TIP3    H1 5316   0.945   2.826   4.079 -0.5087  1.4914  1.0535
 1784TIP3    H2 5317   1.015   2.694   4.101 -0.3976  1.1590 -1.1180
 1785TIP3   OH2 5318   1.332   0.680   4.618 -0.5395 -0.6242  0.6000
 1785TIP3    H1 5319   1.303   0.679   4.527 -2.3833  0.7367  1.1221
 1785TIP3    H2 5320   1.380   0.762   4.627  2.1104 -2.0185  0.2206
 1786TIP3   OH2 5321   0.066   1.909   4.826 -0.2023  0.3715  0.2736
 1786TIP3    H1 5322   0.098   1.996   4.847 -1.3132  1.0710 -0.7697
 1786TIP3    H2 5323   0.075   1.902   4.731  0.2400 -0.8114  0.3870
 1787TIP3   OH2 5324   0.646   1.330   4.905 -0.1197 -0.1898 -0.0271
 1787TIP3    H1 5325   0.682   1.373   4.827 -0.2467  1.9003  1.0136
 1787TIP3    H2 5326   0.556   1.360   4.910  0.0119  0.0553  1.1621
 1788TIP3   OH2 5327   0.679   4.470   4.725 -0.5698  0.5784  0.2452
 1788TIP3    H1 5328   0.708   4.483   4.815 -0.8826 -0.8843  0.5771
 1788TIP3    H2 5329   0.589   4.441   4.732 -0.0262 -1.4097 -0.3981
 1789TIP3   OH2 5330   2.939   4.452   1.165 -0.0772  0.2198  0.2076
 1789TIP3    H1 5331   2.909   4.501   1.089 -0.6390 -0.1323  0.1983
 1789TIP3    H2 5332   2.940   4.361   1.136  1.7097  0.2719 -0.0215
 1790TIP3   OH2 5333   1.694   0.318   5.030  0.6391  0.1086  0.0388
 1790TIP3    H1 5334   1.704   0.378   4.956 -1.0610 -0.3781 -0.6228
 1790TIP3    H2 5335   1.634   0.363   5.090 -0.6067 -0.8632 -0.4395
 1791TIP3   OH2 5336   2.820   0.365   2.990  0.6769  0.3328 -0.1455
 1791TIP3    H1 5337   2.772   0.424   2.932 -2.1699 -1.0192  0.6285
 1791TIP3    H2 5338   2.877   0.315   2.933 -2.5394 -1.4677 -2.0848
 1792TIP3   OH2 5339   4.287   1.571   1.960  0.0438  0.4417  0.0776
 1792TIP3    H1 5340   4.275   1.495   2.017 -0.7052  0.8473  0.4687
 1792TIP3    H2 5341   4.200   1.609   1.951 -0.4259 -1.1024 -3.5201
 1793TIP3   OH2 5342   0.258   2.354   4.584  0.0099 -0.6173  0.0355
 1793TIP3    H1 5343   0.336   2.301   4.565 -0.1607 -1.1954  0.9100
 1793TIP3    H2 5344   0.291   2.444   4.585  0.5402 -0.8020 -0.2419
 1794TIP3   OH2 5345   0.381   3.179   1.322 -0.3772 -0.5045  0.3030
 1794TIP3    H1 5346   0.347   3.169   1.411  1.2011  0.1150  1.0133
 1794TIP3    H2 5347   0.368   3.093   1.282 -0.3752 -1.0323  1.4029
 1795TIP3   OH2 5348   1.593   2.585   3.722  0.3286  0.5149  0.5162
 1795TIP3    H1 5349   1.580   2.525   3.649 -1.0649  1.7929 -0.3459
 1795TIP3    H2 5350   1.688   2.598   3.725  0.6210 -1.2734  0.4007
 1796TIP3   OH2 5351   1.420   5.201   2.511 -0.1726  0.0982  0.1109
 1796TIP3    H1 5352   1.350   5.246   2.462 -2.1169 -1.1947  1.5681
 1796TIP3    H2 5353   1.441   5.124   2.458 -0.9101 -0.2838  0.3633
 1797TIP3   OH2 5354   0.308   0.894   4.626 -0.0025  0.5726 -0.4324
 1797TIP3    H1 5355   0.403   0.893   4.614 -0.0401  1.1548 -0.8184
 1797TIP3    H2 5356   0.294   0.853   4.712  0.6729  1.3413  0.0566
 1798TIP3   OH2 5357   2.116   2.584   0.928  0.2512  0.3199 -0.7702
 1798TIP3    H1 5358   2.168   2.572   1.007 -0.9222  0.0981 -0.0081
 1798TIP3    H2 5359   2.173   2.632   0.869  0.8801  1.1744  0.4930
 1799TIP3   OH2 5360   5.339   4.373   4.927 -0.4183  0.2948 -0.2745
 1799TIP3    H1 5361   5.368   4.447   4.874 -0.3142  0.9382  0.6484
 1799TIP3    H2 5362   5.415   4.315   4.930 -0.2669  0.4819 -0.4323
 1800TIP3   OH2 5363   7.017   6.277   2.232  0.3159  0.0932  0.6401
 1800TIP3    H1 5364   6.926   6.279   2.261 -0.2195  1.5067 -0.9697
 1800TIP3    H2 5365   7.061   6.217   2.294 -2.0689 -2.1792  0.3150
 1801TIP3   OH2 5366   4.352   3.006   2.187  0.5770  0.4224 -0.1292
 1801TIP3    H1 5367   4.423   3.008   2.252  0.3343 -0.3586  0.1767
 1801TIP3    H2 5368   4.349   2.914   2.159 -0.5819  0.3655  0.1630
 1802TIP3   OH2 5369   7.053   2.720   3.390  0.0130 -0.4705  0.6213
 1802TIP3    H1 5370   7.077   2.720   3.297 -0.2963 -2.6718  0.4683
 1802TIP3    H2 5371   6.959   2.704   3.390 -0.0286 -0.2305  1.3076
 1803TIP3   OH2 5372   6.964   2.223   1.886 -0.3109 -0.4675  0.0941
 1803TIP3    H1 5373   7.036   2.169   1.917  1.1679  1.0874 -0.4739
 1803TIP3    H2 5374   6.921   2.170   1.819 -0.2537 -1.7540  1.0409
 1804TIP3   OH2 5375   3.906   6.044   1.062 -0.0388 -0.6194 -0.5710
 1804TIP3    H1 5376   3.924   6.098   0.985 -0.6946  0.1203 -0.2249
 1804TIP3    H2 5377   3.814   6.017   1.052  0.4513 -2.1849 -1.0352
 1805TIP3   OH2 5378   3.734   4.334   4.988  0.1118  0.1878  0.8236
 1805TIP3    H1 5379   3.819   4.353   4.948 -1.5364  2.0499 -2.1649
 1805TIP3    H2 5380   3.703   4.255   4.941 -0.9744  1.2158 -0.2789
 1806TIP3   OH2 5381   3.706   6.223   2.393  0.4778  0.3900 -0.0850
 1806TIP3    H1 5382   3.677   6.213   2.302  1.8842  0.8556 -0.6137
 1806TIP3    H2 5383   3.649   6.165   2.443  0.3481 -0.6591 -1.3989
 1807TIP3   OH2 5384   6.582   5.522   2.457  0.2322  0.0722 -0.2835
 1807TIP3    H1 5385   6.626   5.584   2.516 -0.4089  0.0795  0.1952
 1807TIP3    H2 5386   6.626   5.534   2.373  1.1826  0.0541  0.1872
 1808TIP3   OH2 5387   6.734   0.411   4.311  0.4108  0.4546 -0.0583
 1808TIP3    H1 5388   6.749   0.350   4.240  0.5902  0.2486  0.1536
 1808TIP3    H2 5389   6.814   0.406   4.364 -0.3214 -0.5303  1.0017
 1809TIP3   OH2 5390   4.436   0.749   2.592 -0.5170  0.1101 -0.1995
 1809TIP3    H1 5391   4.486   0.702   2.525  1.0108 -0.1158  1.0573
 1809TIP3    H2 5392   4.477   0.725   2.675 -2.4496  0.2808  0.8644
 1810TIP3   OH2 5393   7.159   3.164   0.402 -0.0146 -0.0934  0.0959
 1810TIP3    H1 5394   7.124   3.112   0.329 -2.4493  1.6238 -0.0902
 1810TIP3    H2 5395   7.252   3.174   0.382 -0.3426 -0.7942 -2.0907
 1811TIP3   OH2 5396   6.614   3.727   1.634 -0.0637  0.0135  0.0876
 1811TIP3    H1 5397   6.541   3.705   1.692  1.3696 -0.0462  1.9417
 1811TIP3    H2 5398   6.657   3.801   1.677  0.1294  1.0223 -1.7535
 1812TIP3   OH2 5399   0.342   4.195   1.523  0.5951  0.8081  0.2323
 1812TIP3    H1 5400   0.274   4.150   1.473  2.1209 -0.2401 -1.0039
 1812TIP3    H2 5401   0.323   4.288   1.511  0.3798  0.5682 -1.5931
 1813TIP3   OH2 5402   2.283   0.822   4.323 -0.3002  0.6942  0.2248
 1813TIP3    H1 5403   2.341   0.782   4.258  0.0617  1.9996 -0.2897
 1813TIP3    H2 5404   2.343   0.862   4.386 -0.5622  2.9628 -0.8720
 1814TIP3   OH2 5405   7.124   0.584   3.374  0.0078 -0.2069  0.5042
 1814TIP3    H1 5406   7.085   0.671   3.384  1.1231  0.3157  0.4120
 1814TIP3    H2 5407   7.200   0.598   3.318 -0.7940 -1.5486 -0.9971
 1815TIP3   OH2 5408   5.317   5.019   3.460  0.3071  0.3004 -0.4287
 1815TIP3    H1 5409   5.376   5.088   3.491  0.3947  0.3947 -0.7965
 1815TIP3    H2 5410   5.338   4.943   3.515  0.6322  0.3928 -0.4216
 1816TIP3   OH2 5411   4.814   3.862   2.398 -0.7562 -0.0515 -0.1851
 1816TIP3    H1 5412   4.877   3.843   2.467 -1.7148 -3.0014 -0.0035
 1816TIP3    H2 5413   4.729   3.847   2.438 -1.3484 -1.7365 -1.9036
 1817TIP3   OH2 5414   6.866   5.470   4.782 -0.1198 -0.1272 -0.1966
 1817TIP3    H1 5415   6.908   5.534   4.724 -0.7507 -0.3963 -0.9555
 1817TIP3    H2 5416   6.850   5.394   4.727 -3.4716  0.6635 -0.5223
 1818TIP3   OH2 5417   2.135   1.798   0.337  0.4610  0.2680 -0.1968
 1818TIP3    H1 5418   2.042   1.824   0.336  1.0506  2.6287 -1.3273
 1818TIP3    H2 5419   2.160   1.804   0.429 -0.1978  0.9389 -0.0487
 1819TIP3   OH2 5420   3.907   4.337   0.100  0.1855  0.4798  0.2568
 1819TIP3    H1 5421   4.003   4.336   0.102  0.2216  1.1355 -0.5386
 1819TIP3    H2 5422   3.883   4.248   0.079  0.6531  0.4935 -0.3540
 1820TIP3   OH2 5423   3.663   2.552   0.915  0.4855 -0.0986  0.3568
 1820TIP3    H1 5424   3.637   2.518   1.000 -1.5796  0.8495  0.1603
 1820TIP3    H2 5425   3.616   2.497   0.852  1.0931 -0.0534 -0.1520
 1821TIP3   OH2 5426   6.999   2.637   0.927 -0.3476  0.1902 -0.5653
 1821TIP3    H1 5427   6.915   2.616   0.888  0.0287  0.9795 -1.8550
 1821TIP3    H2 5428   7.039   2.700   0.867  0.8665  0.3611  0.3731
 1822TIP3   OH2 5429   4.892   6.454   5.042  0.4871 -0.5602 -0.3479
 1822TIP3    H1 5430   4.954   6.388   5.012  1.0480 -0.2435  0.1003
 1822TIP3    H2 5431   4.828   6.405   5.094  2.5822 -0.4004  2.5721
 1823TIP3   OH2 5432   0.590   1.244   5.683  0.1167 -0.3648 -0.2319
 1823TIP3    H1 5433   0.640   1.182   5.629  1.2869  0.3310  0.0214
 1823TIP3    H2 5434   0.518   1.272   5.626  0.7896 -0.3560 -1.1061
 1824TIP3   OH2 5435   1.405   0.624   4.353 -0.1063 -0.2709 -0.1168
 1824TIP3    H1 5436   1.320   0.582   4.360 -0.4232  0.2363 -0.8507
 1824TIP3    H2 5437   1.417   0.641   4.260 -0.3047  1.8838  0.1909
 1825TIP3   OH2 5438   3.109   5.742   5.615  0.4232  0.0367 -0.0787
 1825TIP3    H1 5439   3.170   5.806   5.579  2.0514 -0.8331  1.0347
 1825TIP3    H2 5440   3.135   5.659   5.574 -0.1472 -0.3209  0.2733
 1826TIP3   OH2 5441   4.947   6.500   0.270 -0.3780  0.3209 -0.0097
 1826TIP3    H1 5442   4.867   6.447   0.273 -0.3301  0.0662 -2.0889
 1826TIP3    H2 5443   4.934   6.567   0.337 -1.6768 -0.6029  0.7001
 1827TIP3   OH2 5444   2.559   2.676   5.194  0.5784 -0.2588  0.2207
 1827TIP3    H1 5445   2.596   2.687   5.282 -1.1590  0.5431  0.8907
 1827TIP3    H2 5446   2.631   2.699   5.135  1.6133 -0.2689  1.4272
 1828TIP3   OH2 5447   5.814   2.308   1.908  0.1887 -0.1099  0.1649
 1828TIP3    H1 5448   5.900   2.306   1.864  0.2682 -1.8966  0.3412
 1828TIP3    H2 5449   5.756   2.261   1.848  0.1782 -2.1254  1.6806
 1829TIP3   OH2 5450   2.561   5.048   3.361  0.0629  0.0179  0.0893
 1829TIP3    H1 5451   2.621   5.078   3.292  1.5119 -0.5731  1.0270
 1829TIP3    H2 5452   2.596   4.963   3.388 -2.8561 -1.7398 -1.2184
 1830TIP3   OH2 5453   2.235   6.068   1.036 -0.0507 -0.6403 -0.2598
 1830TIP3    H1 5454   2.293   6.117   0.976 -0.6353  0.1460 -0.2017
 1830TIP3    H2 5455   2.196   6.000   0.982 -0.8700  0.3027 -0.8888
 1831TIP3   OH2 5456   4.184   2.458   5.369  0.0573 -0.3215 -0.1449
 1831TIP3    H1 5457   4.120   2.390   5.344  0.0608 -0.0970 -0.7806
 1831TIP3    H2 5458   4.187   2.516   5.293 -0.0099  0.4449  0.4306
 1832TIP3   OH2 5459   0.722   5.918   3.573 -0.1011 -0.1091 -0.2327
 1832TIP3    H1 5460   0.732   5.823   3.571  1.1591 -0.0637  1.4508
 1832TIP3    H2 5461   0.677   5.935   3.656 -0.6234  0.7650 -0.6761
 1833TIP3   OH2 5462   7.070   5.232   4.714 -0.2215 -0.1223  0.1238
 1833TIP3    H1 5463   7.097   5.305   4.660 -1.1919 -0.1194 -0.3922
 1833TIP3    H2 5464   7.129   5.233   4.789 -1.6100  2.6032  1.3244
 1834TIP3   OH2 5465   0.277   1.916   2.501 -0.2807 -0.2947  0.7083
 1834TIP3    H1 5466   0.364   1.883   2.478 -0.5889  0.7413 -2.4310
 1834TIP3    H2 5467   0.293   2.002   2.539  0.0875 -0.5237  1.0868
 1835TIP3   OH2 5468   0.489   5.967   5.168  0.3014  0.3197 -0.0041
 1835TIP3    H1 5469   0.517   6.056   5.187 -0.1596  0.3579  0.5426
 1835TIP3    H2 5470   0.570   5.916   5.163  0.4894  0.3697  1.8035
 1836TIP3   OH2 5471   0.195   5.528   0.822 -0.2174  0.1138  0.7351
 1836TIP3    H1 5472   0.116   5.581   0.820  0.0013  0.4876  1.5319
 1836TIP3    H2 5473   0.213   5.515   0.915  0.6283 -0.0055  0.5644
 1837TIP3   OH2 5474   4.295   4.830   0.779  0.0483 -0.2452 -0.1866
 1837TIP3    H1 5475   4.335   4.744   0.791  2.0438  0.5389 -0.8336
 1837TIP3    H2 5476   4.369   4.889   0.763 -1.2082  1.6979  0.7557
 1838TIP3   OH2 5477   2.524   3.068   0.461 -0.6336 -0.1233 -0.0374
 1838TIP3    H1 5478   2.611   3.093   0.432  0.1825 -2.5791  0.0907
 1838TIP3    H2 5479   2.520   3.096   0.553  0.0231 -0.0227 -0.0347
 1839TIP3   OH2 5480   7.149   0.482   5.572 -0.0302 -0.0959 -0.0253
 1839TIP3    H1 5481   7.181   0.572   5.578  0.2677 -0.2781  2.1408
 1839TIP3    H2 5482   7.208   0.440   5.510 -0.5762  1.3207 -1.5889
 1840TIP3   OH2 5483   4.203   0.614   0.474  0.2294 -0.0464 -0.0775
 1840TIP3    H1 5484   4.199   0.706   0.500 -1.1201 -0.0426 -0.2518
 1840TIP3    H2 5485   4.141   0.570   0.532 -0.0523 -0.6398 -0.8147
 1841TIP3   OH2 5486   2.439   3.234   5.575 -0.0236  0.4964  0.2512
 1841TIP3    H1 5487   2.343   3.240   5.573 -0.1619 -1.0568  0.8815
 1841TIP3    H2 5488   2.468   3.291   5.504 -1.3017  2.7732  1.4349
 1842TIP3   OH2 5489   2.153   4.256   2.756 -0.5844 -0.0243 -0.1544
 1842TIP3    H1 5490   2.134   4.194   2.685 -1.1585  0.0537 -0.0781
 1842TIP3    H2 5491   2.236   4.225   2.793 -1.5548 -1.6458  0.8186
 1843TIP3   OH2 5492   1.271   5.820   4.057  0.0637 -0.1736 -0.1207
 1843TIP3    H1 5493   1.337   5.857   4.116  0.1318 -0.4208 -0.0389
 1843TIP3    H2 5494   1.201   5.790   4.116 -0.7216  1.2503 -0.2800
 1844TIP3   OH2 5495   2.103   3.211   0.341  0.1358  0.3716  0.1099
 1844TIP3    H1 5496   2.177   3.160   0.374  0.5259  0.1959 -0.9705
 1844TIP3    H2 5497   2.028   3.180   0.390  0.3610 -1.2669 -0.5088
 1845TIP3   OH2 5498   1.419   6.398   2.334  0.1717 -0.3201  0.3348
 1845TIP3    H1 5499   1.453   6.378   2.247 -0.4703 -0.4697  0.1172
 1845TIP3    H2 5500   1.495   6.387   2.392  0.4969 -0.6463 -0.1444
 1846TIP3   OH2 5501   3.330   4.696   4.541 -0.2742  0.4491 -0.6245
 1846TIP3    H1 5502   3.318   4.791   4.536  1.2315  0.6893 -0.0713
 1846TIP3    H2 5503   3.315   4.665   4.452 -1.2569  1.1266 -0.7164
 1847TIP3   OH2 5504   2.848   5.344   3.633  0.2268  0.2055  0.0787
 1847TIP3    H1 5505   2.902   5.294   3.572 -0.9641 -2.6457  1.1835
 1847TIP3    H2 5506   2.759   5.331   3.601 -0.5513 -2.2685  2.8156
 1848TIP3   OH2 5507   3.488   4.351   4.484  0.2759 -0.1113  0.2906
 1848TIP3    H1 5508   3.460   4.385   4.399  1.5113 -1.1362 -0.5764
 1848TIP3    H2 5509   3.407   4.324   4.528 -0.2531 -2.5616 -1.9259
 1849TIP3   OH2 5510   5.111   0.189   2.049 -0.1429 -0.1625 -0.4425
 1849TIP3    H1 5511   5.205   0.195   2.034 -0.1154 -1.1831 -0.7430
 1849TIP3    H2 5512   5.096   0.097   2.074 -1.1896 -0.2831 -1.4147
 1850TIP3   OH2 5513  -0.002   2.337   2.460  0.4366 -0.4345  0.0226
 1850TIP3    H1 5514   0.090   2.325   2.436  0.0889 -0.2333 -1.4750
 1850TIP3    H2 5515  -0.044   2.255   2.435 -0.3143  0.5254 -2.0796
 1851TIP3   OH2 5516   2.602   5.807   0.301  0.1394 -0.3205 -0.6131
 1851TIP3    H1 5517   2.554   5.728   0.328 -0.3056  0.3190  0.5564
 1851TIP3    H2 5518   2.683   5.774   0.264 -0.1230 -1.3417 -0.3238
 1852TIP3   OH2 5519   5.445   5.908   0.812  0.3748 -0.3076  0.0190
 1852TIP3    H1 5520   5.396   5.836   0.773  0.8979 -1.0917  0.7817
 1852TIP3    H2 5521   5.384   5.949   0.873  0.3245 -0.6020  0.1665
 1853TIP3   OH2 5522   3.638   2.350   4.174  0.4670  0.0996  0.9142
 1853TIP3    H1 5523   3.725   2.324   4.205  0.9393  0.1444 -0.2927
 1853TIP3    H2 5524   3.656   2.401   4.094 -0.6064  1.2605  1.3860
 1854TIP3   OH2 5525   6.948   3.474   0.752 -0.3496  0.1718  0.0332
 1854TIP3    H1 5526   7.044   3.474   0.746 -0.1854 -1.9573  1.5018
 1854TIP3    H2 5527   6.922   3.385   0.729 -2.0230  0.7795 -0.5837
 1855TIP3   OH2 5528   0.851   6.554   1.334  0.3372  0.2276 -0.5718
 1855TIP3    H1 5529   0.816   6.582   1.249  0.5360 -0.0062 -0.7297
 1855TIP3    H2 5530   0.943   6.580   1.332 -0.0143  1.6843  0.2046
 1856TIP3   OH2 5531   4.029   4.867   4.120 -0.2670  0.0730  0.0145
 1856TIP3    H1 5532   4.099   4.823   4.168  0.8486  0.3401 -1.3063
 1856TIP3    H2 5533   3.963   4.887   4.187 -0.0705 -2.0656  0.9412
 1857TIP3   OH2 5534   3.806   4.478   2.204  0.0031 -0.4611  0.0601
 1857TIP3    H1 5535   3.866   4.476   2.130  0.4071 -2.0474  0.3787
 1857TIP3    H2 5536   3.749   4.402   2.190 -0.5581 -0.2010  0.8640
 1858TIP3   OH2 5537   3.882   2.677   1.315 -0.4792 -0.6133 -0.2748
 1858TIP3    H1 5538   3.901   2.712   1.402  2.0786  0.0587 -1.0290
 1858TIP3    H2 5539   3.821   2.741   1.277  0.1219  0.2901  0.2304
 1859TIP3   OH2 5540   2.145   5.754   4.257 -0.4718 -0.1394  0.2976
 1859TIP3    H1 5541   2.170   5.779   4.346 -0.1784  0.7961 -0.0429
 1859TIP3    H2 5542   2.057   5.715   4.267  0.4662 -2.1836  1.2992
 1860TIP3   OH2 5543   1.604   4.154   2.917  0.1301  0.2484 -0.1037
 1860TIP3    H1 5544   1.523   4.179   2.963  0.5595 -0.1178  0.8815
 1860TIP3    H2 5545   1.583   4.071   2.874  0.1516 -0.1624  0.6600
 1861TIP3   OH2 5546   0.348   1.345   4.969  0.3027 -0.5626  0.0400
 1861TIP3    H1 5547   0.329   1.257   5.002 -2.7469  0.6875  2.0395
 1861TIP3    H2 5548   0.278   1.364   4.907 -1.4509  1.7313  2.4839
 1862TIP3   OH2 5549   2.145   5.914   3.520 -0.2805 -0.0211 -0.3062
 1862TIP3    H1 5550   2.147   5.848   3.589 -0.9110  0.7946  0.5228
 1862TIP3    H2 5551   2.238   5.935   3.505 -0.1472  0.9308  1.4743
 1863TIP3   OH2 5552   5.844   1.228   1.462  0.1813  0.0000  0.4992
 1863TIP3    H1 5553   5.830   1.290   1.533 -1.8115  1.6279 -1.1618
 1863TIP3    H2 5554   5.924   1.258   1.419 -1.0513  1.9150 -0.6249
 1864TIP3   OH2 5555   2.080   0.989   4.449  0.1374  0.3389 -0.1039
 1864TIP3    H1 5556   2.162   0.996   4.498  0.0022  0.7335  0.0729
 1864TIP3    H2 5557   2.049   0.900   4.468  0.4995  0.2033 -0.1356
 1865TIP3   OH2 5558   6.977   5.670   3.698 -0.2751  0.5275 -0.5612
 1865TIP3    H1 5559   7.034   5.603   3.735 -2.9585 -1.3671  0.4845
 1865TIP3    H2 5560   7.034   5.722   3.641  2.5327 -0.8337  0.8178
 1866TIP3   OH2 5561   2.010   3.323   5.801  0.1613 -0.0368  0.2132
 1866TIP3    H1 5562   2.086   3.287   5.845  0.6924  0.4229 -0.3127
 1866TIP3    H2 5563   1.995   3.408   5.844 -0.8489 -0.6727  1.1854
 1867TIP3   OH2 5564   0.405   1.787   2.783 -0.1063 -0.7266 -0.3729
 1867TIP3    H1 5565   0.414   1.693   2.768  0.4236 -0.6764 -0.3692
 1867TIP3    H2 5566   0.422   1.827   2.698  0.9409 -0.5643 -0.1007
 1868TIP3   OH2 5567   3.864   5.562   0.409  0.6739 -0.1219  0.3604
 1868TIP3    H1 5568   3.785   5.525   0.447  2.3761 -1.2713  3.1690
 1868TIP3    H2 5569   3.842   5.581   0.318 -2.5836 -0.9200  0.8711
 1869TIP3   OH2 5570   2.962   2.906   2.100  0.2836  0.4251 -0.2069
 1869TIP3    H1 5571   2.994   2.907   2.191  0.5227 -0.6494 -0.2648
 1869TIP3    H2 5572   3.017   2.841   2.056 -2.4698 -2.2180 -0.1056
 1870TIP3   OH2 5573   0.055   2.420   4.994  0.1116  0.4944  0.6943
 1870TIP3    H1 5574  -0.040   2.419   4.978  0.2477  2.6084 -0.6289
 1870TIP3    H2 5575   0.063   2.410   5.089 -1.3801 -0.3763  0.7622
 1871TIP3   OH2 5576   6.826   4.180   1.662  0.4242 -0.0542 -0.1220
 1871TIP3    H1 5577   6.785   4.214   1.742  3.0303  1.1448  0.8388
 1871TIP3    H2 5578   6.768   4.110   1.633 -1.8202  0.9924  1.5071
 1872TIP3   OH2 5579   6.703   5.692   3.628  0.3244  0.1234  0.0174
 1872TIP3    H1 5580   6.789   5.687   3.668  2.0575 -0.8199 -3.4331
 1872TIP3    H2 5581   6.682   5.785   3.626  1.2530  0.3648  0.9089
 1873TIP3   OH2 5582   2.061   6.266   1.418  0.2898  0.1037  0.0309
 1873TIP3    H1 5583   2.046   6.287   1.510 -0.1353  1.7325 -0.3745
 1873TIP3    H2 5584   1.983   6.300   1.373  0.7574 -0.1395 -0.9968
 1874TIP3   OH2 5585   4.586   4.970   2.558 -0.0455  0.4636 -0.0905
 1874TIP3    H1 5586   4.601   5.012   2.642  0.9985 -2.8594  1.5501
 1874TIP3    H2 5587   4.491   4.958   2.553 -0.1916  1.4600  0.1715
 1875TIP3   OH2 5588   1.389   6.566   3.181 -0.0992 -0.4413 -0.0336
 1875TIP3    H1 5589   1.461   6.625   3.206 -0.6537  0.3875 -0.3462
 1875TIP3    H2 5590   1.380   6.507   3.256  0.0603  0.2741  0.5723
 1876TIP3   OH2 5591   0.048   3.942   3.674 -0.0892 -0.0462  0.1332
 1876TIP3    H1 5592   0.064   3.893   3.593 -0.6029 -0.6935  0.4138
 1876TIP3    H2 5593   0.114   3.909   3.736  0.1212  0.2459  0.0684
 1877TIP3   OH2 5594   1.195   4.265   2.427  0.3469 -0.6009 -0.1518
 1877TIP3    H1 5595   1.210   4.171   2.419  0.2596 -0.7241  0.9281
 1877TIP3    H2 5596   1.195   4.281   2.521  0.2339  0.4642 -0.3193
 1878TIP3   OH2 5597   3.471   6.267   4.026 -0.1334 -0.4561  0.0626
 1878TIP3    H1 5598   3.391   6.278   4.078 -0.2554 -0.1514 -0.1873
 1878TIP3    H2 5599   3.509   6.355   4.020  1.4513 -0.9422  2.1081
 1879TIP3   OH2 5600   5.976   4.137   4.843 -0.6825 -0.3929 -0.7608
 1879TIP3    H1 5601   5.951   4.046   4.829 -0.0033 -0.9163  1.1377
 1879TIP3    H2 5602   6.011   4.139   4.932  1.0471  1.3657 -1.4227
 1880TIP3   OH2 5603   6.094   2.872   3.817 -0.3866 -0.4960 -0.4438
 1880TIP3    H1 5604   6.148   2.951   3.830  0.0564 -0.9273  0.4474
 1880TIP3    H2 5605   6.025   2.900   3.758 -0.6496  0.7841  0.4157
 1881TIP3   OH2 5606   1.418   3.425   5.621  0.1276 -0.1856 -1.1333
 1881TIP3    H1 5607   1.369   3.425   5.703  1.3134 -0.1182 -0.4002
 1881TIP3    H2 5608   1.402   3.339   5.583 -0.6665 -0.1081 -0.9841
 1882TIP3   OH2 5609   1.839   3.668   5.044  0.0541 -0.0424  0.0297
 1882TIP3    H1 5610   1.844   3.740   4.980 -0.0383  0.9269  1.0753
 1882TIP3    H2 5611   1.746   3.645   5.046 -0.0992  0.5910  0.5120
 1883TIP3   OH2 5612   2.590   4.693   5.614 -0.0038  0.0590  0.5790
 1883TIP3    H1 5613   2.605   4.603   5.644 -1.5073 -0.1455  0.7717
 1883TIP3    H2 5614   2.588   4.745   5.695  0.7116  0.2621  0.4769
 1884TIP3   OH2 5615   2.545   3.953   5.789 -0.3231 -0.2808 -0.0532
 1884TIP3    H1 5616   2.460   3.981   5.754  0.3818  1.4347 -0.5023
 1884TIP3    H2 5617   2.562   3.868   5.747 -1.0001  0.2047 -1.3559
 1885TIP3   OH2 5618   6.618   2.767   5.481 -0.1226 -0.1727 -0.0137
 1885TIP3    H1 5619   6.526   2.790   5.475 -0.4680 -0.0826  3.4895
 1885TIP3    H2 5620   6.628   2.730   5.569  3.3978  0.8851  0.1931
 1886TIP3   OH2 5621   2.024   5.627   5.095  0.2941  0.6814 -0.6098
 1886TIP3    H1 5622   2.066   5.605   5.178 -1.0400  0.4697  0.0491
 1886TIP3    H2 5623   1.931   5.613   5.112 -0.0795  1.4672 -1.8953
 1887TIP3   OH2 5624   7.131   3.188   3.356 -0.6899 -0.0295  0.1541
 1887TIP3    H1 5625   7.077   3.184   3.435 -0.2510  2.1944  0.6305
 1887TIP3    H2 5626   7.184   3.266   3.367  1.8962 -1.5397 -0.7945
 1888TIP3   OH2 5627   4.930   1.122   5.272 -0.2614 -0.7240  0.0577
 1888TIP3    H1 5628   4.945   1.061   5.344  1.5520 -0.3184  0.0711
 1888TIP3    H2 5629   5.015   1.131   5.230 -0.6747  1.1254 -0.4882
 1889TIP3   OH2 5630   3.255   0.269   4.768 -0.4177  0.3771  0.6930
 1889TIP3    H1 5631   3.249   0.313   4.683  1.1972  0.0135  0.3629
 1889TIP3    H2 5632   3.343   0.289   4.799  0.4229 -2.6283  0.5021
 1890TIP3   OH2 5633   2.283   0.750   3.244  0.3155  0.1404  0.2427
 1890TIP3    H1 5634   2.335   0.716   3.317 -2.1710  1.1594  2.6613
 1890TIP3    H2 5635   2.242   0.829   3.279 -0.2628  1.2299 -2.6375
 1891TIP3   OH2 5636   6.652   0.468   0.633  0.2688 -0.0337  0.3082
 1891TIP3    H1 5637   6.734   0.499   0.672  0.7489  2.0359 -2.1036
 1891TIP3    H2 5638   6.659   0.492   0.541 -1.8227 -2.4895 -0.6161
 1892TIP3   OH2 5639   4.691   0.077   1.563  0.3664  0.6998  0.4460
 1892TIP3    H1 5640   4.737   0.160   1.554  1.9133 -0.2370 -0.7416
 1892TIP3    H2 5641   4.622   0.080   1.496  1.6764  0.2871 -0.9936
 1893TIP3   OH2 5642   1.955   4.628   4.582  0.0741  0.0128  0.4869
 1893TIP3    H1 5643   1.866   4.660   4.595  0.1579 -0.0045  1.1526
 1893TIP3    H2 5644   1.972   4.640   4.489 -1.0442 -1.0794  0.1292
 1894TIP3   OH2 5645   5.022   0.796   5.431 -0.1534  0.2459  0.5817
 1894TIP3    H1 5646   5.079   0.832   5.499  1.9613 -1.4786 -0.1688
 1894TIP3    H2 5647   4.949   0.757   5.479 -0.9133  2.6302  1.5611
 1895TIP3   OH2 5648   0.722   5.744   4.225 -0.0196 -0.6719 -0.3288
 1895TIP3    H1 5649   0.733   5.657   4.187 -2.0619 -2.1508  2.1410
 1895TIP3    H2 5650   0.757   5.737   4.314  1.7368  1.7196 -0.7263
 1896TIP3   OH2 5651   0.927   4.059   4.603  0.1488 -0.2654  0.0000
 1896TIP3    H1 5652   0.953   4.145   4.636 -1.4290  0.2291  0.0428
 1896TIP3    H2 5653   0.974   4.050   4.520  0.2869  0.6729 -0.0344
 1897TIP3   OH2 5654   4.792   6.571   4.821 -0.5270  0.1158  0.4612
 1897TIP3    H1 5655   4.832   6.656   4.841  1.8508 -0.6205 -0.8121
 1897TIP3    H2 5656   4.820   6.514   4.893  0.1592 -0.2345 -0.0751
 1898TIP3   OH2 5657   1.870   3.677   5.325 -0.0323 -0.1404 -1.0653
 1898TIP3    H1 5658   1.899   3.760   5.287 -1.9284  0.5830 -1.0048
 1898TIP3    H2 5659   1.803   3.645   5.266 -1.8943  0.1926  0.7550
 1899TIP3   OH2 5660   5.706   1.072   1.273  0.5123  0.5429 -0.2733
 1899TIP3    H1 5661   5.748   1.126   1.340  0.0216  0.3794  0.1720
 1899TIP3    H2 5662   5.687   0.989   1.317 -1.2593  0.9846 -0.1103
 1900TIP3   OH2 5663   0.126   0.862   3.389  0.2282  0.2537  0.1047
 1900TIP3    H1 5664   0.154   0.799   3.323  2.0882  1.1832 -0.0483
 1900TIP3    H2 5665   0.093   0.809   3.461 -0.2443 -0.8124 -0.8646
 1901TIP3   OH2 5666   5.897   4.301   1.286 -0.2935 -0.0146 -0.2588
 1901TIP3    H1 5667   5.902   4.209   1.313 -2.2814 -0.0207  0.2050
 1901TIP3    H2 5668   5.907   4.350   1.368 -2.6773  0.0611  0.0348
 1902TIP3   OH2 5669   0.427   2.521   2.551  0.3163  0.5963  0.9410
 1902TIP3    H1 5670   0.396   2.460   2.617  1.0546  0.9502  1.6329
 1902TIP3    H2 5671   0.364   2.515   2.480  0.7702 -1.5238  0.6649
 1903TIP3   OH2 5672   0.859   4.481   3.567 -0.2488 -0.2958  0.2630
 1903TIP3    H1 5673   0.811   4.398   3.575  2.3566 -1.7608  1.9183
 1903TIP3    H2 5674   0.935   4.460   3.514  0.5837  0.9941  0.9040
 1904TIP3   OH2 5675   2.186   1.677   3.490 -0.0123  0.3604  0.4490
 1904TIP3    H1 5676   2.124   1.743   3.460 -0.2356 -0.2009 -0.3582
 1904TIP3    H2 5677   2.272   1.708   3.460 -0.1721  0.0629 -0.3452
 1905TIP3   OH2 5678   6.099   0.381   1.417 -0.1188 -0.3589  0.0505
 1905TIP3    H1 5679   6.111   0.444   1.488  0.9521  1.0560 -1.3186
 1905TIP3    H2 5680   6.146   0.302   1.446  0.8889  0.4304  0.6174
 1906TIP3   OH2 5681   4.135   1.927   3.740 -0.2312  0.0762 -0.3029
 1906TIP3    H1 5682   4.168   1.844   3.776 -0.5180 -0.8620 -2.0846
 1906TIP3    H2 5683   4.212   1.967   3.700 -0.0546  0.7995  0.7101
 1907TIP3   OH2 5684   5.712   2.177   4.136 -0.5783  0.2456  0.9751
 1907TIP3    H1 5685   5.634   2.231   4.149 -0.6495  0.2831  0.4274
 1907TIP3    H2 5686   5.785   2.233   4.165 -0.4615  1.3496 -1.1740
 1908TIP3   OH2 5687   2.495   2.727   0.578  0.0569 -0.1795 -0.1236
 1908TIP3    H1 5688   2.524   2.750   0.490  0.0512 -2.8817 -0.8996
 1908TIP3    H2 5689   2.572   2.740   0.633  0.5350 -0.0727 -0.8088
 1909TIP3   OH2 5690   0.656   5.054   1.686 -0.2550  0.0833  0.0604
 1909TIP3    H1 5691   0.730   5.111   1.708 -0.6058  0.7268 -0.3988
 1909TIP3    H2 5692   0.682   5.013   1.603  0.3821 -1.1336  0.8237
 1910TIP3   OH2 5693   5.348   0.666   3.317 -0.5297 -0.1064 -0.3446
 1910TIP3    H1 5694   5.265   0.628   3.347 -1.0691  1.4397  0.2553
 1910TIP3    H2 5695   5.355   0.639   3.226 -1.8443 -0.0466 -0.4898
 1911TIP3   OH2 5696   5.996   5.384   5.162 -0.0002  0.0048 -0.5761
 1911TIP3    H1 5697   6.048   5.321   5.111  0.0991 -1.2954  1.0519
 1911TIP3    H2 5698   6.042   5.468   5.150  0.5221 -0.4381 -1.8651
 1912TIP3   OH2 5699   4.937   5.939   2.847  0.1338 -0.2713 -0.1849
 1912TIP3    H1 5700   5.018   5.898   2.879  0.0006 -0.4486 -0.0763
 1912TIP3    H2 5701   4.910   5.884   2.773 -0.3097 -0.6623  0.2670
 1913TIP3   OH2 5702   2.585   3.751   2.593 -0.2002  0.1735 -0.3144
 1913TIP3    H1 5703   2.497   3.751   2.629 -0.5634  2.3924 -1.0422
 1913TIP3    H2 5704   2.573   3.770   2.499  0.9910 -0.5030 -0.6231
 1914TIP3   OH2 5705   6.606   4.842   2.841 -0.5009 -0.0166  0.2515
 1914TIP3    H1 5706   6.578   4.869   2.929 -0.9485  0.6215 -0.0831
 1914TIP3    H2 5707   6.620   4.924   2.794 -1.4018 -0.3449 -0.6230
 1915TIP3   OH2 5708   4.015   5.996   4.509 -0.5737 -0.3088 -0.3431
 1915TIP3    H1 5709   4.101   5.994   4.467 -0.3932  2.8828 -0.3785
 1915TIP3    H2 5710   3.958   6.036   4.443 -1.3160  0.6128  0.8237
 1916TIP3   OH2 5711   5.539   0.531   1.152 -0.4192 -0.1522 -0.2724
 1916TIP3    H1 5712   5.454   0.566   1.181  0.2308  0.8398  0.5096
 1916TIP3    H2 5713   5.570   0.594   1.087  0.1389  0.0042  0.1371
 1917TIP3   OH2 5714   0.494   0.353   0.507  0.0207 -0.6074  0.2678
 1917TIP3    H1 5715   0.545   0.429   0.536 -0.6369 -0.8096  2.1160
 1917TIP3    H2 5716   0.478   0.369   0.414  3.2326 -0.4489 -0.3673
 1918TIP3   OH2 5717   1.634   4.028   4.495  0.4158  0.1382  0.3287
 1918TIP3    H1 5718   1.595   3.953   4.451  2.1377 -0.6512  0.0300
 1918TIP3    H2 5719   1.727   4.006   4.501  0.9782  2.2439  0.2530
 1919TIP3   OH2 5720   5.448   0.997   2.245  0.1986 -0.0297 -0.0237
 1919TIP3    H1 5721   5.542   1.008   2.230 -0.1044  2.1650 -0.6180
 1919TIP3    H2 5722   5.434   1.030   2.333  0.2346 -2.3658  0.9465
 1920TIP3   OH2 5723   6.945   1.872   5.209  0.2815  0.4237 -0.1400
 1920TIP3    H1 5724   6.944   1.800   5.272 -0.8675  1.0017  0.5291
 1920TIP3    H2 5725   7.038   1.890   5.195  0.5622 -0.1684  0.8635
 1921TIP3   OH2 5726   2.036   1.737   0.618  0.8907 -0.6675 -0.0997
 1921TIP3    H1 5727   1.992   1.777   0.692 -1.7991  1.1228 -2.4350
 1921TIP3    H2 5728   1.978   1.665   0.592  1.4302 -0.8466 -0.8565
 1922TIP3   OH2 5729   5.660   6.539   1.758 -0.2462 -0.3339 -0.1048
 1922TIP3    H1 5730   5.570   6.507   1.759  0.2613 -1.7800  0.7232
 1922TIP3    H2 5731   5.663   6.597   1.681 -1.5174 -1.3075 -0.9309
 1923TIP3   OH2 5732   2.468   0.029   1.882 -0.0088  0.0110 -0.0445
 1923TIP3    H1 5733   2.495  -0.044   1.938  0.0009 -0.6881 -0.9226
 1923TIP3    H2 5734   2.373   0.034   1.894 -0.0471 -0.3329 -0.1916
 1924TIP3   OH2 5735   5.686   5.446   2.634  0.7420 -0.5230  0.5314
 1924TIP3    H1 5736   5.600   5.488   2.630  0.1114 -1.3657  3.1643
 1924TIP3    H2 5737   5.668   5.356   2.662  2.4451 -0.8375  0.7428
 1925TIP3   OH2 5738   2.107   5.150   5.226 -0.1180  0.5918  0.0833
 1925TIP3    H1 5739   2.031   5.190   5.184 -0.4978 -0.2770 -0.0700
 1925TIP3    H2 5740   2.182   5.194   5.187 -0.4767  0.0839 -1.2149
 1926TIP3   OH2 5741   2.929   0.030   3.227 -0.2326 -0.1755  0.0761
 1926TIP3    H1 5742   2.891   0.013   3.141 -0.3530 -0.3419  0.1617
 1926TIP3    H2 5743   2.897  -0.041   3.282 -0.1438 -0.0780  0.2556
 1927TIP3   OH2 5744   6.445   6.525   3.942  0.3425 -0.0099  0.8080
 1927TIP3    H1 5745   6.464   6.448   3.996  0.5816 -0.7570 -0.2850
 1927TIP3    H2 5746   6.356   6.550   3.965 -0.5723 -1.9742 -0.3291
 1928TIP3   OH2 5747   6.948   0.648   2.037 -0.2995 -0.3055 -0.5282
 1928TIP3    H1 5748   7.043   0.645   2.025 -0.1807 -1.2084  0.4786
 1928TIP3    H2 5749   6.926   0.561   2.070 -1.3219  0.2453  0.2784
 1929TIP3   OH2 5750   1.251   0.880   3.897 -0.2481 -0.2364 -0.2226
 1929TIP3    H1 5751   1.246   0.824   3.819  0.8555  0.3028 -0.7088
 1929TIP3    H2 5752   1.333   0.854   3.939  0.3407  1.0631 -0.5217
 1930TIP3   OH2 5753   6.641   0.721   1.740 -0.0296  0.9763 -0.3294
 1930TIP3    H1 5754   6.599   0.669   1.809 -1.0024  1.5648 -0.4594
 1930TIP3    H2 5755   6.731   0.689   1.737  0.1217  1.1674  1.4270
 1931TIP3   OH2 5756   3.033   2.150   1.687  0.5377 -0.3436  0.8152
 1931TIP3    H1 5757   2.951   2.118   1.726  0.0951  1.1804  1.2212
 1931TIP3    H2 5758   3.099   2.087   1.716 -0.3723 -1.2185  1.0711
 1932TIP3   OH2 5759   3.342   6.509   3.060  0.1592  0.5223 -0.0170
 1932TIP3    H1 5760   3.274   6.490   3.125  0.3062  1.6112  0.4793
 1932TIP3    H2 5761   3.388   6.425   3.048 -1.1520 -0.1838 -0.2450
 1933TIP3   OH2 5762   0.778   4.380   0.939 -0.1738 -0.4080 -0.1867
 1933TIP3    H1 5763   0.693   4.340   0.956  0.2074 -1.4519 -0.6194
 1933TIP3    H2 5764   0.761   4.443   0.868 -0.5766 -0.6500 -0.3099
 1934TIP3   OH2 5765   2.103   4.027   0.906  0.1560  0.1854 -0.7587
 1934TIP3    H1 5766   2.122   4.038   0.813  0.1923 -1.1550 -0.9258
 1934TIP3    H2 5767   2.170   4.078   0.950  1.8952 -1.4089 -1.4167
 1935TIP3   OH2 5768   4.917   1.009   4.931 -0.0840  0.3104 -0.0863
 1935TIP3    H1 5769   4.986   1.055   4.883 -0.3915  0.7635 -0.0961
 1935TIP3    H2 5770   4.882   0.946   4.867 -0.1802  0.5941 -0.3165
 1936TIP3   OH2 5771   1.301   2.870   3.941  0.5083 -0.2416  0.3868
 1936TIP3    H1 5772   1.235   2.807   3.969 -0.5217  0.7605  0.2993
 1936TIP3    H2 5773   1.355   2.885   4.018  0.5994 -1.0181  0.4812
 1937TIP3   OH2 5774   3.122   0.240   1.870 -0.0757 -0.1960 -0.8007
 1937TIP3    H1 5775   3.099   0.283   1.787  1.2742  0.5301 -0.8252
 1937TIP3    H2 5776   3.133   0.148   1.847  0.5729  0.0419 -1.4983
 1938TIP3   OH2 5777   5.107   3.587   3.598  0.1628 -0.0964 -0.2806
 1938TIP3    H1 5778   5.091   3.624   3.685 -0.4160  0.2167 -0.5137
 1938TIP3    H2 5779   5.082   3.495   3.605 -2.0015  0.4049 -0.6744
 1939TIP3   OH2 5780   2.416   3.704   0.516  0.3245 -0.8698 -0.0242
 1939TIP3    H1 5781   2.412   3.677   0.425 -0.4797 -0.3911 -0.1310
 1939TIP3    H2 5782   2.328   3.688   0.551  0.7955 -1.6896  0.8587
 1940TIP3   OH2 5783   3.200   2.758   1.458 -0.3201  0.6039 -0.2240
 1940TIP3    H1 5784   3.243   2.843   1.465  0.9692  0.0508 -1.0580
 1940TIP3    H2 5785   3.267   2.700   1.422 -1.1255 -0.8062  0.4575
 1941TIP3   OH2 5786   6.010   4.086   5.382 -0.1841  0.2083  0.4396
 1941TIP3    H1 5787   6.000   4.014   5.445 -1.3748 -1.3543 -1.4181
 1941TIP3    H2 5788   5.924   4.095   5.342  0.4745  1.3389 -0.7832
 1942TIP3   OH2 5789   7.096   6.432   4.014 -0.4103 -0.8777 -0.3635
 1942TIP3    H1 5790   7.067   6.475   3.934 -0.1837 -0.1904 -0.0838
 1942TIP3    H2 5791   7.159   6.366   3.985  0.8025  0.3722 -0.6364
 1943TIP3   OH2 5792   7.045   6.293   4.400  0.0550 -0.2105  0.5988
 1943TIP3    H1 5793   7.122   6.324   4.447 -0.0625 -0.9142  1.2573
 1943TIP3    H2 5794   6.972   6.308   4.460 -0.1602 -0.6569  0.4522
 1944TIP3   OH2 5795   3.646   5.090   3.554 -0.6982  0.1005  0.8479
 1944TIP3    H1 5796   3.701   5.145   3.498 -1.4161 -0.9271 -0.9352
 1944TIP3    H2 5797   3.708   5.047   3.613 -0.0797  2.4412  2.0523
 1945TIP3   OH2 5798   7.096   6.130   0.260  0.2231 -0.3881  0.0886
 1945TIP3    H1 5799   7.079   6.048   0.212  0.6411 -0.6480  0.3705
 1945TIP3    H2 5800   7.167   6.107   0.321  1.7318  0.6665 -1.1798
 1946TIP3   OH2 5801   5.398   5.193   2.093  0.1461 -0.0877 -0.6089
 1946TIP3    H1 5802   5.395   5.276   2.141 -1.7352 -0.5143  0.0971
 1946TIP3    H2 5803   5.349   5.210   2.012 -0.4850 -0.5474 -0.3387
 1947TIP3   OH2 5804   0.175   2.189   5.249  0.4656 -0.3317 -0.1383
 1947TIP3    H1 5805   0.135   2.275   5.261 -0.2927 -0.5531 -0.9949
 1947TIP3    H2 5806   0.245   2.186   5.314  0.1628  0.7233  0.2548
 1948TIP3   OH2 5807   7.078   1.229   1.701  0.5442  0.3391 -0.1606
 1948TIP3    H1 5808   7.117   1.311   1.732 -0.4627  1.0045 -0.5978
 1948TIP3    H2 5809   7.003   1.215   1.759 -0.2999  0.6440 -1.1518
 1949TIP3   OH2 5810   1.029   6.119   3.197 -0.1948 -0.2915 -0.1925
 1949TIP3    H1 5811   1.015   6.039   3.146  0.8826 -1.1241  0.7624
 1949TIP3    H2 5812   1.108   6.157   3.161  1.1446 -1.4142  1.4275
 1950TIP3   OH2 5813   3.775   4.967   1.583  0.3875 -0.3383 -0.0685
 1950TIP3    H1 5814   3.870   4.956   1.582  0.2997 -1.3081 -1.5252
 1950TIP3    H2 5815   3.741   4.887   1.543 -1.0428  0.0441  0.3180
 1951TIP3   OH2 5816   1.223   1.076   3.325 -0.1867 -0.2088 -0.1518
 1951TIP3    H1 5817   1.269   1.143   3.275  0.8859 -0.0946  0.9498
 1951TIP3    H2 5818   1.130   1.100   3.317  0.1978  1.7393  0.6360
 1952TIP3   OH2 5819   5.055   5.533   0.508 -0.3947  0.5510  0.1141
 1952TIP3    H1 5820   4.985   5.598   0.516 -0.8404 -0.0170  1.0411
 1952TIP3    H2 5821   5.023   5.459   0.559  0.0846 -0.4178 -0.9604
 1953TIP3   OH2 5822   6.429   6.708   2.856  0.1345  0.1000 -0.8648
 1953TIP3    H1 5823   6.372   6.777   2.824 -0.4058 -0.4614 -1.1340
 1953TIP3    H2 5824   6.475   6.677   2.778  0.1310 -0.0752 -0.7973
 1954TIP3   OH2 5825   5.721   4.387   2.192  0.6991  0.0233 -0.4826
 1954TIP3    H1 5826   5.674   4.316   2.237 -1.9107 -0.7794 -4.0665
 1954TIP3    H2 5827   5.783   4.419   2.258 -3.1529 -0.4547  3.9297
 1955TIP3   OH2 5828   0.868   6.254   4.673  0.1370 -0.1548 -0.1666
 1955TIP3    H1 5829   0.928   6.283   4.742 -0.8401  1.5851  0.0129
 1955TIP3    H2 5830   0.906   6.288   4.592 -0.9510  1.6035  0.0304
 1956TIP3   OH2 5831   2.286   1.676   0.634 -0.0407 -0.0210 -0.3972
 1956TIP3    H1 5832   2.194   1.702   0.638  0.1214  0.4552  1.1612
 1956TIP3    H2 5833   2.291   1.611   0.564 -1.6769 -0.5159 -0.0768
 1957TIP3   OH2 5834   4.647   1.003   2.573  0.1205 -0.2845 -0.3271
 1957TIP3    H1 5835   4.707   1.035   2.641  1.3671 -1.3118 -0.9056
 1957TIP3    H2 5836   4.671   0.912   2.561 -1.4493 -0.6639 -0.7456
 1958TIP3   OH2 5837   4.516   2.607   5.730 -0.2157 -0.4220  0.5306
 1958TIP3    H1 5838   4.429   2.569   5.714  0.2630 -1.0443 -0.7281
 1958TIP3    H2 5839   4.499   2.684   5.784 -1.4738 -0.9431  0.9236
 1959TIP3   OH2 5840   0.848   2.989   4.299  0.1211 -0.1377  0.5585
 1959TIP3    H1 5841   0.758   2.956   4.304  0.9487 -2.8699 -0.9171
 1959TIP3    H2 5842   0.902   2.911   4.286  2.5941  1.5570  0.0106
 1960TIP3   OH2 5843   2.545   4.124   1.606  0.1323  0.1925  0.7922
 1960TIP3    H1 5844   2.534   4.219   1.603 -0.6363  0.0960 -0.6090
 1960TIP3    H2 5845   2.625   4.107   1.555 -0.5149  0.0130 -0.1942
 1961TIP3   OH2 5846   4.850   4.533   1.752  0.2631  0.0362 -0.0658
 1961TIP3    H1 5847   4.942   4.523   1.776  0.5592 -0.4449 -1.3317
 1961TIP3    H2 5848   4.805   4.465   1.802  0.3067  1.3544  1.8901
 1962TIP3   OH2 5849   6.314   4.240   4.273 -0.7149 -0.4836  0.5524
 1962TIP3    H1 5850   6.289   4.156   4.311 -0.0615 -1.7423 -1.5983
 1962TIP3    H2 5851   6.232   4.289   4.265 -1.1281 -0.9764  1.6805
 1963TIP3   OH2 5852   6.162   3.191   2.641 -0.1296 -0.5387 -0.2007
 1963TIP3    H1 5853   6.130   3.267   2.593  0.1560  0.6381  1.3900
 1963TIP3    H2 5854   6.257   3.198   2.637 -0.0800  0.2360  1.4468
 1964TIP3   OH2 5855   4.261   5.535   1.992 -0.0008 -0.2029  0.6085
 1964TIP3    H1 5856   4.194   5.518   2.059  0.9636 -1.0112  1.3948
 1964TIP3    H2 5857   4.274   5.451   1.949  0.7455 -0.1349  0.6871
 1965TIP3   OH2 5858   1.733   0.344   2.813  0.5669 -0.3924  0.6453
 1965TIP3    H1 5859   1.763   0.287   2.741  0.7333  1.0605 -0.4758
 1965TIP3    H2 5860   1.791   0.419   2.810  0.0499  0.0767  1.8033
 1966TIP3   OH2 5861   3.055   2.713   4.210  0.4844  0.0589  0.5017
 1966TIP3    H1 5862   3.060   2.640   4.272  1.4356 -0.2293  0.1117
 1966TIP3    H2 5863   3.008   2.782   4.257  0.6189 -0.3884  1.3095
 1967TIP3   OH2 5864   4.482   3.360   0.335  0.2018 -0.4580 -0.1449
 1967TIP3    H1 5865   4.433   3.278   0.343  0.3479 -0.5728 -0.4528
 1967TIP3    H2 5866   4.439   3.419   0.397  0.7348 -1.0748  0.8338
 1968TIP3   OH2 5867   4.624   1.544   2.728  0.2325  0.2863  0.3284
 1968TIP3    H1 5868   4.659   1.604   2.793  0.9248  0.6617 -0.3759
 1968TIP3    H2 5869   4.529   1.549   2.739  0.3505 -0.7885  2.3153
 1969TIP3   OH2 5870   2.197   2.139   2.638  0.3005  0.0052  0.4371
 1969TIP3    H1 5871   2.140   2.174   2.569 -0.4527 -0.0753  0.9998
 1969TIP3    H2 5872   2.259   2.209   2.657  0.7230 -0.0864 -0.5361
 1970TIP3   OH2 5873   3.184   1.369   2.903 -0.5017  0.4927 -0.4429
 1970TIP3    H1 5874   3.133   1.377   2.823  2.3525  2.0156 -2.2476
 1970TIP3    H2 5875   3.164   1.450   2.952 -0.1098  0.8923 -0.9443
 1971TIP3   OH2 5876   6.257   0.882   5.503  0.5248 -0.0369  0.3790
 1971TIP3    H1 5877   6.255   0.800   5.454 -0.7211  0.7554 -0.9641
 1971TIP3    H2 5878   6.322   0.936   5.457 -0.3041  0.5370 -0.1467
 1972TIP3   OH2 5879   5.745   2.426   0.048 -0.0988  0.1561 -0.3085
 1972TIP3    H1 5880   5.691   2.493   0.090 -2.1666 -1.6532  0.1065
 1972TIP3    H2 5881   5.770   2.367   0.120  0.8723 -0.0613 -0.8122
 1973TIP3   OH2 5882   3.453   6.214   3.566  0.6334  0.6329  0.1550
 1973TIP3    H1 5883   3.512   6.227   3.640 -0.7656  0.1984  1.3876
 1973TIP3    H2 5884   3.414   6.299   3.550  0.1600  0.5092  0.6176
 1974TIP3   OH2 5885   1.149   6.409   2.012 -0.2566  0.4731  0.1838
 1974TIP3    H1 5886   1.123   6.426   1.922  0.2963  0.7195  0.0628
 1974TIP3    H2 5887   1.235   6.451   2.020  0.4699 -0.9807  0.3303
 1975TIP3   OH2 5888   2.782   4.152   5.567 -0.2710  0.1350 -0.4027
 1975TIP3    H1 5889   2.801   4.174   5.658 -2.4622 -1.3398  0.4767
 1975TIP3    H2 5890   2.793   4.057   5.562 -1.0149  0.0885 -1.4576
 1976TIP3   OH2 5891   7.123   1.659   2.440 -0.3233 -0.3216 -0.0021
 1976TIP3    H1 5892   7.197   1.679   2.498 -1.6773  0.3694  1.5536
 1976TIP3    H2 5893   7.158   1.675   2.352  1.1118  0.9214  0.7359
 1977TIP3   OH2 5894   0.024   4.203   3.596  0.0994 -0.0290 -0.2788
 1977TIP3    H1 5895   0.051   4.126   3.645 -0.0509 -0.2599 -0.5559
 1977TIP3    H2 5896   0.082   4.205   3.520  1.7171  1.4770  0.9142
 1978TIP3   OH2 5897   5.149   1.015  -0.031 -0.0860 -0.1023 -0.3550
 1978TIP3    H1 5898   5.228   1.034   0.019 -0.0831 -0.4109 -0.2414
 1978TIP3    H2 5899   5.078   1.050   0.023 -0.4975 -3.8725  1.8696
 1979TIP3   OH2 5900   6.338   5.612   2.756  0.2880  0.6113  0.2488
 1979TIP3    H1 5901   6.272   5.544   2.739  0.4464  0.5820 -0.2783
 1979TIP3    H2 5902   6.314   5.647   2.841 -0.9048  1.1672 -0.2875
 1980TIP3   OH2 5903   5.202   2.554   1.027 -0.2500  0.1021  0.2401
 1980TIP3    H1 5904   5.150   2.620   0.981  0.0274  0.0331 -0.1882
 1980TIP3    H2 5905   5.232   2.495   0.957  0.7641  0.3964  0.4114
 1981TIP3   OH2 5906   0.344   4.262   0.171  0.2363 -0.0550  0.4973
 1981TIP3    H1 5907   0.314   4.178   0.205 -0.3209 -0.3047 -0.5619
 1981TIP3    H2 5908   0.341   4.251   0.076  0.1727  1.1536  0.3495
 1982TIP3   OH2 5909   3.741   5.551   5.494 -0.7117 -0.4719 -0.2115
 1982TIP3    H1 5910   3.715   5.494   5.422 -1.7185 -0.4674  0.1354
 1982TIP3    H2 5911   3.661   5.566   5.543  0.0371 -0.8884  1.2080
 1983TIP3   OH2 5912   6.937   4.445   3.800 -0.4586 -0.3276  0.0767
 1983TIP3    H1 5913   6.900   4.527   3.768  0.3952  0.2353  0.4804
 1983TIP3    H2 5914   6.893   4.430   3.884 -0.0886  0.1228  0.3592
 1984TIP3   OH2 5915   3.633   5.059   1.283 -0.3822  0.8632  0.0909
 1984TIP3    H1 5916   3.696   5.009   1.232 -1.2662  0.4716 -0.6426
 1984TIP3    H2 5917   3.609   5.001   1.355 -2.5607 -0.4841 -1.5905
 1985TIP3   OH2 5918   2.019   4.708   1.332  0.0217  0.0287  0.2664
 1985TIP3    H1 5919   1.928   4.692   1.356 -0.0639  0.7533  0.4639
 1985TIP3    H2 5920   2.070   4.662   1.398 -0.1785 -1.3004 -0.4706
 1986TIP3   OH2 5921   3.871   0.334   5.461 -0.5251  0.6532  0.0816
 1986TIP3    H1 5922   3.914   0.255   5.428  2.6404  1.9828  0.6310
 1986TIP3    H2 5923   3.777   0.317   5.450  0.0973 -2.0208 -2.3920
 1987TIP3   OH2 5924   3.151   5.555   0.846 -0.2044  0.4548 -0.3373
 1987TIP3    H1 5925   3.094   5.482   0.819 -1.4086  1.3896 -0.3987
 1987TIP3    H2 5926   3.107   5.633   0.812  0.3825  1.3225  0.8482
 1988TIP3   OH2 5927   5.576   0.694   4.955 -0.2217 -0.2425 -0.3986
 1988TIP3    H1 5928   5.620   0.609   4.956  0.2699 -0.0672 -2.4065
 1988TIP3    H2 5929   5.631   0.751   5.008  0.5528 -0.6846 -0.7151
 1989TIP3   OH2 5930   3.223   2.113   0.606  0.1934  0.0630  0.2105
 1989TIP3    H1 5931   3.141   2.156   0.581  0.4295  1.3557  1.5308
 1989TIP3    H2 5932   3.291   2.178   0.588  1.0362 -1.1915 -1.3772
 1990TIP3   OH2 5933   3.323   3.034   3.020  0.1692 -0.7480 -0.0062
 1990TIP3    H1 5934   3.266   3.075   3.085  1.5491  0.8377  0.2467
 1990TIP3    H2 5935   3.409   3.073   3.035  0.9458 -1.7907 -1.5266
 1991TIP3   OH2 5936   5.151   1.472   0.725  0.4018  0.7257  0.0416
 1991TIP3    H1 5937   5.175   1.503   0.812 -0.6380 -1.4042  1.1534
 1991TIP3    H2 5938   5.232   1.479   0.675  1.6135  0.0107  1.7924
 1992TIP3   OH2 5939   1.396   6.337   4.482 -0.1060 -0.1666 -0.1951
 1992TIP3    H1 5940   1.375   6.403   4.416 -0.4090  0.0085  0.0740
 1992TIP3    H2 5941   1.379   6.253   4.439 -2.6964 -0.0362  0.4208
 1993TIP3   OH2 5942   1.826   3.783   2.729 -0.3797  0.3529  0.0209
 1993TIP3    H1 5943   1.884   3.735   2.787  0.6867 -1.0175 -2.0320
 1993TIP3    H2 5944   1.867   3.868   2.718 -0.8161  0.7901  1.5225
 1994TIP3   OH2 5945   6.921   3.232   1.395 -0.2134  0.7892  0.8155
 1994TIP3    H1 5946   6.849   3.280   1.436  0.4151  0.3174  2.5563
 1994TIP3    H2 5947   6.892   3.141   1.396 -0.3997  0.8238 -0.3005
 1995TIP3   OH2 5948   3.277   5.524   2.436  0.4780  0.2855  0.2522
 1995TIP3    H1 5949   3.215   5.466   2.481  2.7572 -0.9273  2.0534
 1995TIP3    H2 5950   3.230   5.553   2.358 -1.4164 -2.6366  0.1420
 1996TIP3   OH2 5951   3.237   3.722   2.622  0.1269  0.4921 -0.1772
 1996TIP3    H1 5952   3.201   3.789   2.564  0.0271  1.1121  0.5719
 1996TIP3    H2 5953   3.161   3.676   2.657  0.0335  1.5701  1.1331
 1997TIP3   OH2 5954   5.126   3.506   5.754  0.1280 -0.1177  0.2288
 1997TIP3    H1 5955   5.084   3.458   5.825 -0.5080 -0.2811 -0.2472
 1997TIP3    H2 5956   5.067   3.580   5.737 -0.0311 -0.4148 -0.5286
 1998TIP3   OH2 5957   0.434   0.477   2.025 -0.0179 -0.1008  0.4635
 1998TIP3    H1 5958   0.505   0.542   2.020  0.2054 -0.4355 -1.1672
 1998TIP3    H2 5959   0.367   0.519   2.079  0.9320  0.6944  1.0636
 1999TIP3   OH2 5960   2.193   2.191   3.780  0.2347 -0.4792 -0.6446
 1999TIP3    H1 5961   2.193   2.272   3.730  0.0266  1.1031  1.7203
 1999TIP3    H2 5962   2.230   2.126   3.721  0.2887  1.2838 -2.6837
 2000TIP3   OH2 5963   7.043   2.570   0.411  0.5270  0.1164  0.0725
 2000TIP3    H1 5964   7.052   2.487   0.364 -0.9801 -0.6060  0.9733
 2000TIP3    H2 5965   7.055   2.547   0.503  1.0471  1.0814  0.2562
 2001TIP3   OH2 5966   6.673   6.428   3.532  0.0009 -0.3045  0.1422
 2001TIP3    H1 5967   6.685   6.503   3.474 -1.3923  0.6637  1.0663
 2001TIP3    H2 5968   6.590   6.445   3.577 -0.2805 -2.3395  0.4717
 2002TIP3   OH2 5969   3.169   3.130   3.427 -0.0884 -0.0370  0.4862
 2002TIP3    H1 5970   3.250   3.173   3.399 -0.8439  1.7603  0.9528
 2002TIP3    H2 5971   3.134   3.090   3.347  0.7652 -0.0505  0.1025
 2003TIP3   OH2 5972   0.278   5.234   1.009  0.4141  0.5662 -0.2880
 2003TIP3    H1 5973   0.327   5.179   0.949  1.2025  0.5341  0.3665
 2003TIP3    H2 5974   0.235   5.172   1.068 -1.1394  0.5554 -1.3683
 2004TIP3   OH2 5975   4.742   5.223   3.762  0.4105 -0.1164 -0.1862
 2004TIP3    H1 5976   4.777   5.199   3.848  0.7779 -0.0525 -0.3151
 2004TIP3    H2 5977   4.743   5.319   3.763 -1.7975 -0.0456  0.6356
 2005TIP3   OH2 5978   3.667   3.168   2.008 -0.3888  0.7904  0.2304
 2005TIP3    H1 5979   3.608   3.192   1.936 -0.2241  2.8141  0.7107
 2005TIP3    H2 5980   3.742   3.227   1.997 -0.4736  1.3125  2.1822
 2006TIP3   OH2 5981   1.948   5.975   4.818 -0.0555  0.3306 -0.1060
 2006TIP3    H1 5982   1.880   6.039   4.842 -1.3102 -0.8394 -0.4029
 2006TIP3    H2 5983   1.960   5.923   4.898 -1.8877 -1.5003 -0.9275
 2007TIP3   OH2 5984   3.283   4.155   0.613 -0.6616 -0.5024 -0.0456
 2007TIP3    H1 5985   3.212   4.170   0.551 -0.9850  0.3786  0.5096
 2007TIP3    H2 5986   3.266   4.069   0.649 -0.5358 -0.9773 -1.0844
 2008TIP3   OH2 5987   0.547   2.681   1.136 -0.1856  0.0234 -0.5293
 2008TIP3    H1 5988   0.547   2.591   1.167 -0.9578 -0.0274 -0.6378
 2008TIP3    H2 5989   0.489   2.727   1.197 -1.1103  0.0865 -1.4256
 2009TIP3   OH2 5990   3.914   4.488   4.421 -0.1261  0.0151 -0.1477
 2009TIP3    H1 5991   3.987   4.464   4.478  1.1798  0.0897 -1.7318
 2009TIP3    H2 5992   3.950   4.555   4.363 -1.2837 -0.3462 -1.3287
 2010TIP3   OH2 5993   0.782   5.531   3.181  0.1267 -0.3798  0.7613
 2010TIP3    H1 5994   0.729   5.483   3.116 -0.6369  1.7453 -0.2968
 2010TIP3    H2 5995   0.729   5.529   3.261  0.4559 -1.9012  0.9625
 2011TIP3   OH2 5996   5.913   6.573   5.035  0.1252  0.0669  0.1463
 2011TIP3    H1 5997   5.852   6.598   4.966  2.3270  0.5614 -1.7876
 2011TIP3    H2 5998   5.955   6.493   5.002  1.7905  0.7593  0.4746
 2012TIP3   OH2 5999   3.585   0.129   5.877 -0.1071  0.5216  0.8696
 2012TIP3    H1 6000   3.548   0.044   5.854  0.6655 -0.3386  2.6171
 2012TIP3    H2 6001   3.549   0.189   5.812 -1.4264 -0.9666  0.1524
 2013TIP3   OH2 6002   3.418   3.319   0.342  0.9870  0.4264 -0.0119
 2013TIP3    H1 6003   3.442   3.237   0.299  0.6455  0.3780 -0.1149
 2013TIP3    H2 6004   3.325   3.331   0.322  0.3433 -0.4827  2.1342
 2014TIP3   OH2 6005   1.518   2.618   1.539  0.1004 -0.2311 -0.5743
 2014TIP3    H1 6006   1.444   2.678   1.541  1.3137  1.3400 -0.1590
 2014TIP3    H2 6007   1.551   2.618   1.629 -0.0950 -1.8499 -0.4748
 2015TIP3   OH2 6008   0.261   2.872   3.118 -0.4038  0.1445  0.0261
 2015TIP3    H1 6009   0.265   2.963   3.148 -2.6622  0.1566  0.5099
 2015TIP3    H2 6010   0.258   2.878   3.023 -2.2142  0.7469  0.0744
 2016TIP3   OH2 6011   4.741   5.483   3.778 -0.4435 -0.0884 -0.1902
 2016TIP3    H1 6012   4.739   5.501   3.872 -0.9100  1.2235 -0.4249
 2016TIP3    H2 6013   4.772   5.565   3.739 -0.5779 -0.5029 -1.1992
 2017TIP3   OH2 6014   5.310   3.518   4.301  0.0628 -0.2103  0.1393
 2017TIP3    H1 6015   5.360   3.457   4.247  0.1948 -0.9607  1.0863
 2017TIP3    H2 6016   5.260   3.462   4.360  0.2586  0.5957  1.0902
 2018TIP3   OH2 6017   3.659   3.614   5.387  0.6071  0.1474  0.6145
 2018TIP3    H1 6018   3.594   3.555   5.350  0.0910  0.3629  1.1634
 2018TIP3    H2 6019   3.616   3.654   5.463  1.7484 -0.5452  1.6770
 2019TIP3   OH2 6020   6.826   1.213   5.457 -0.1424  0.1538  0.2344
 2019TIP3    H1 6021   6.819   1.250   5.545  2.0784 -1.3396  1.1262
 2019TIP3    H2 6022   6.805   1.285   5.398  0.0832  1.6718  1.9459
 2020TIP3   OH2 6023   0.455   5.016   5.803  0.0777 -0.1223 -0.4637
 2020TIP3    H1 6024   0.387   5.050   5.745 -0.7519 -1.5542 -0.3772
 2020TIP3    H2 6025   0.416   5.017   5.890  0.6808  0.3557 -0.1902
 2021TIP3   OH2 6026   4.013   2.802   2.774 -0.0055 -0.3864  1.3685
 2021TIP3    H1 6027   4.071   2.747   2.722 -0.0336 -0.3306  1.2768
 2021TIP3    H2 6028   3.925   2.786   2.738  0.1688  0.9097  0.2645
 2022TIP3   OH2 6029   1.831   5.161   5.477 -0.0982  0.3066  0.0156
 2022TIP3    H1 6030   1.892   5.107   5.427  0.0853  0.4899  0.0457
 2022TIP3    H2 6031   1.835   5.247   5.436  0.5834  0.6534  0.7873
 2023TIP3   OH2 6032   1.513   5.796   1.089  0.2158  0.1923  0.8947
 2023TIP3    H1 6033   1.517   5.891   1.080  0.6534  0.0828 -0.2500
 2023TIP3    H2 6034   1.591   5.773   1.138  0.5236  0.3597  0.4871
 2024TIP3   OH2 6035   0.860   2.747   0.694 -0.2032  0.3712  0.2903
 2024TIP3    H1 6036   0.782   2.704   0.658  0.8652 -2.3220  0.9999
 2024TIP3    H2 6037   0.845   2.750   0.788 -0.6118  2.4600  0.2150
 2025TIP3   OH2 6038   6.747   1.053   4.020 -0.3613 -0.3252  0.4314
 2025TIP3    H1 6039   6.810   1.125   4.018 -2.3067  1.5019 -1.7536
 2025TIP3    H2 6040   6.700   1.061   3.936 -0.9565 -3.9227  0.2811
 2026TIP3   OH2 6041   5.227   0.923   4.240  0.4336  0.7138  0.8420
 2026TIP3    H1 6042   5.254   0.886   4.324  1.4653  2.2827  1.2338
 2026TIP3    H2 6043   5.135   0.897   4.231 -0.0482  1.4286  3.0099
 2027TIP3   OH2 6044   6.550   0.397   5.200 -0.5918 -0.3757  0.0034
 2027TIP3    H1 6045   6.567   0.310   5.237 -2.3472 -0.6766  0.1502
 2027TIP3    H2 6046   6.489   0.381   5.128  0.4575  0.5521 -1.1441
 2028TIP3   OH2 6047   0.065   4.043   2.654  0.0801 -0.6943  0.6456
 2028TIP3    H1 6048   0.017   4.030   2.573  1.1902  0.8764 -0.3208
 2028TIP3    H2 6049   0.082   3.954   2.686  1.1976 -1.4798 -1.8284
 2029TIP3   OH2 6050   6.092   4.026   5.652 -0.3944  0.2996  0.0987
 2029TIP3    H1 6051   6.073   4.081   5.728  2.7685  0.9295  0.5925
 2029TIP3    H2 6052   6.155   3.961   5.685 -0.9363 -1.0850 -1.4285
 2030TIP3   OH2 6053   4.495   5.394   0.171  0.0727 -0.3302 -0.0516
 2030TIP3    H1 6054   4.406   5.426   0.154 -0.3482 -1.0486  0.7563
 2030TIP3    H2 6055   4.508   5.324   0.107 -0.3551 -0.9435  0.5160
 2031TIP3   OH2 6056   5.021   5.532   5.503 -0.4609 -0.0264  0.0578
 2031TIP3    H1 6057   5.071   5.609   5.530  0.1344  0.0567 -1.1855
 2031TIP3    H2 6058   5.021   5.536   5.407  0.4557 -2.0929 -0.0940
 2032TIP3   OH2 6059   1.494   4.095   0.242 -0.0548  0.0186  0.3994
 2032TIP3    H1 6060   1.479   4.138   0.326 -1.2694 -0.0673  0.2335
 2032TIP3    H2 6061   1.590   4.089   0.235  0.1272  2.1646  0.6623
 2033TIP3   OH2 6062   1.182   2.991   0.409 -0.4319  0.3701 -0.0503
 2033TIP3    H1 6063   1.225   2.906   0.420 -0.0944  0.4873 -0.4373
 2033TIP3    H2 6064   1.089   2.973   0.421 -0.9166 -0.8942 -4.2863
 2034TIP3   OH2 6065   6.841   6.579   1.678  0.3821  0.1986  0.5986
 2034TIP3    H1 6066   6.847   6.483   1.683  0.7927  0.1795 -0.1653
 2034TIP3    H2 6067   6.761   6.600   1.727  0.9910 -0.4138  1.9107
 2035TIP3   OH2 6068   2.119   0.780   1.961 -0.4052  0.3774 -0.2690
 2035TIP3    H1 6069   2.168   0.856   1.930 -1.1905 -0.1553 -3.0776
 2035TIP3    H2 6070   2.178   0.737   2.022  0.5688  2.4913  0.3844
 2036TIP3   OH2 6071   1.867   3.885   5.534  0.1739 -0.4413 -0.0606
 2036TIP3    H1 6072   1.913   3.968   5.520 -1.8389  0.8526  0.5934
 2036TIP3    H2 6073   1.871   3.841   5.449  0.6099  0.6907 -0.6444
 2037TIP3   OH2 6074   0.032   2.115   4.166  0.2993 -0.2528  0.1205
 2037TIP3    H1 6075   0.042   2.022   4.187  2.0142  0.0633  0.8837
 2037TIP3    H2 6076   0.040   2.159   4.251 -0.8152  0.5817 -0.1972
 2038TIP3   OH2 6077   2.140   1.775   5.584  0.1926  0.2826 -0.6672
 2038TIP3    H1 6078   2.124   1.725   5.504  2.2293  0.5948 -1.3230
 2038TIP3    H2 6079   2.179   1.857   5.553  0.3014  0.7211  0.6027
 2039TIP3   OH2 6080   5.482   6.526   5.311  0.9375 -0.3830  0.0678
 2039TIP3    H1 6081   5.463   6.438   5.344  1.1298 -0.1680  0.7678
 2039TIP3    H2 6082   5.495   6.514   5.217  0.2640 -0.9934  0.0422
 2040TIP3   OH2 6083   4.536   1.711   5.233 -0.0928  0.1958  0.5731
 2040TIP3    H1 6084   4.587   1.631   5.220 -1.0102 -0.5819  1.5066
 2040TIP3    H2 6085   4.594   1.769   5.282  0.4941  0.0204  0.1020
 2041TIP3   OH2 6086   5.224   5.928   5.760 -0.2238 -0.4321  0.2293
 2041TIP3    H1 6087   5.190   6.013   5.732  0.5036 -0.1934  0.0592
 2041TIP3    H2 6088   5.176   5.909   5.841 -0.1031  0.3333  0.4924
 2042TIP3   OH2 6089   4.002   0.072   3.562 -0.2981  0.3709  0.3668
 2042TIP3    H1 6090   4.033   0.015   3.632 -0.3474 -0.4179 -0.2456
 2042TIP3    H2 6091   3.989   0.157   3.604 -0.6699 -0.1845  1.3837
 2043TIP3   OH2 6092   0.249   5.714   4.848  0.2512 -0.1754  0.0025
 2043TIP3    H1 6093   0.185   5.675   4.908  0.1657  0.1629  0.1321
 2043TIP3    H2 6094   0.230   5.673   4.763  1.1864 -1.5969  0.4412
 2044TIP3   OH2 6095   2.800   1.845   1.096  0.3375  1.1346  0.1111
 2044TIP3    H1 6096   2.747   1.855   1.017 -0.1687  0.3106  0.3436
 2044TIP3    H2 6097   2.883   1.807   1.065 -0.1171  0.1701  0.0587
 2045TIP3   OH2 6098   1.356   6.702   0.908  0.1815 -0.1912 -0.1570
 2045TIP3    H1 6099   1.339   6.690   0.814  0.6044  2.0190 -0.5603
 2045TIP3    H2 6100   1.281   6.661   0.951  0.2893 -1.8256 -1.3921
 2046TIP3   OH2 6101   2.168   6.199   2.468  0.0199  0.2565 -0.3209
 2046TIP3    H1 6102   2.075   6.174   2.467 -0.1883  1.0237 -1.0419
 2046TIP3    H2 6103   2.173   6.273   2.408  1.2103 -0.1571 -0.7573
 2047TIP3   OH2 6104   3.459   4.800   3.801 -0.2892 -0.1820  0.0405
 2047TIP3    H1 6105   3.436   4.730   3.740  0.0600 -0.8437  0.6581
 2047TIP3    H2 6106   3.468   4.877   3.746 -1.3596 -0.4648 -0.5612
 2048TIP3   OH2 6107   0.764   4.884   5.359  0.2013  0.1698 -0.0864
 2048TIP3    H1 6108   0.774   4.842   5.274  0.3556  0.8546 -0.4211
 2048TIP3    H2 6109   0.784   4.816   5.423  0.3114 -0.2885 -0.6031
 2049TIP3   OH2 6110   4.141   4.669   2.608  0.4115 -0.1291  0.3166
 2049TIP3    H1 6111   4.115   4.619   2.686  0.1657  1.9957  1.7068
 2049TIP3    H2 6112   4.074   4.648   2.543 -0.0452 -1.0873  1.0667
 2050TIP3   OH2 6113   1.497   3.119   4.291 -0.7961  0.2590 -0.1612
 2050TIP3    H1 6114   1.479   3.189   4.228  2.3180  0.7102 -0.7293
 2050TIP3    H2 6115   1.466   3.039   4.247 -3.2216  1.0536 -0.0465
 2051TIP3   OH2 6116   5.929   4.962   1.314 -0.0288  0.4463  0.3683
 2051TIP3    H1 6117   5.933   4.867   1.299  1.8543  0.6115 -0.5198
 2051TIP3    H2 6118   5.868   4.973   1.387 -1.4375 -1.3140 -0.4740
 2052TIP3   OH2 6119   0.501   6.708   0.932 -0.1351  0.5865 -0.6627
 2052TIP3    H1 6120   0.508   6.800   0.905 -1.0516  1.1385  0.8639
 2052TIP3    H2 6121   0.415   6.680   0.901 -1.0726  1.1388  1.2453
 2053TIP3   OH2 6122   6.106   1.368   0.258 -0.3229 -0.0373 -0.2218
 2053TIP3    H1 6123   6.014   1.392   0.272 -0.2371  1.1360 -1.4266
 2053TIP3    H2 6124   6.113   1.360   0.163  0.8804  0.1205 -0.1518
 2054TIP3   OH2 6125   0.326   0.526   5.188  0.0739  0.0614  0.2172
 2054TIP3    H1 6126   0.287   0.592   5.245  0.6620  0.7004 -0.1095
 2054TIP3    H2 6127   0.252   0.488   5.140 -0.4692 -0.6959  1.6054
 2055TIP3   OH2 6128   0.631   5.392   0.221 -0.0173 -0.0258 -0.0877
 2055TIP3    H1 6129   0.686   5.371   0.145  0.0754 -1.2511  0.2976
 2055TIP3    H2 6130   0.657   5.329   0.288 -0.7097  0.4736  0.6718
 2056TIP3   OH2 6131   1.990   3.119   2.608  0.0023 -0.5781  0.2853
 2056TIP3    H1 6132   2.030   3.187   2.663 -0.8710  0.6986 -0.5932
 2056TIP3    H2 6133   2.064   3.077   2.564  0.6082 -0.6715  1.3549
 2057TIP3   OH2 6134   0.465   5.060   4.183 -0.1017  0.3582 -0.5461
 2057TIP3    H1 6135   0.421   4.975   4.177 -1.2269  0.6360  2.2313
 2057TIP3    H2 6136   0.402   5.117   4.226  1.6944  1.7545  0.3842
 2058TIP3   OH2 6137   3.732   6.587   5.607  0.0641  0.1548  0.3736
 2058TIP3    H1 6138   3.737   6.625   5.695 -1.7861  0.1993  0.4978
 2058TIP3    H2 6139   3.817   6.545   5.595  0.6116  0.7242  1.9052
 2059TIP3   OH2 6140   5.631   1.297   3.717 -0.2717 -0.0969 -0.3401
 2059TIP3    H1 6141   5.679   1.373   3.685 -1.5233  0.1571 -1.7406
 2059TIP3    H2 6142   5.611   1.317   3.808 -0.3470  1.1282 -0.6162
 2060TIP3   OH2 6143   5.731   2.746   3.074  0.1897 -0.3024  0.3714
 2060TIP3    H1 6144   5.706   2.785   3.158 -2.9737  2.2978 -1.4994
 2060TIP3    H2 6145   5.752   2.821   3.019 -0.2938 -1.6944 -1.8146
 2061TIP3   OH2 6146   6.507   0.562   1.929  0.3124 -0.1331  0.1497
 2061TIP3    H1 6147   6.484   0.471   1.948 -4.7400  0.9113  0.6853
 2061TIP3    H2 6148   6.554   0.592   2.007 -0.4337 -1.6011  1.2245
 2062TIP3   OH2 6149   0.871   5.098   3.925  0.8783  0.0492 -0.1293
 2062TIP3    H1 6150   0.914   5.036   3.983 -0.2055  0.0602  0.7406
 2062TIP3    H2 6151   0.891   5.184   3.963 -2.0814 -0.0302  2.0106
 2063TIP3   OH2 6152   1.941   0.298   0.372  0.4356  0.0958  0.2069
 2063TIP3    H1 6153   1.909   0.212   0.347 -0.7234  0.6229 -0.2163
 2063TIP3    H2 6154   2.017   0.313   0.316  1.2872 -1.0620  1.0117
 2064TIP3   OH2 6155   2.538   3.051   1.005  0.6148  0.0855  0.4614
 2064TIP3    H1 6156   2.593   3.124   1.033  0.7756  0.3894 -0.6099
 2064TIP3    H2 6157   2.482   3.033   1.081 -1.1034  2.8974 -0.0133
 2065TIP3   OH2 6158   2.753   2.301   3.514 -0.5174 -0.0195  0.6650
 2065TIP3    H1 6159   2.795   2.360   3.452 -2.5820  1.0643  0.1827
 2065TIP3    H2 6160   2.785   2.214   3.491  0.9899  0.6749  0.0125
 2066TIP3   OH2 6161   5.571   3.328   2.149 -0.0697  0.6186  0.1768
 2066TIP3    H1 6162   5.512   3.381   2.203  2.6657  1.9889  2.0948
 2066TIP3    H2 6163   5.514   3.265   2.105 -2.7930  1.0501  2.7701
 2067TIP3   OH2 6164   0.500   1.448   4.005 -0.9878 -0.0473 -0.0442
 2067TIP3    H1 6165   0.460   1.530   3.976 -0.5608  0.5059  0.8830
 2067TIP3    H2 6166   0.450   1.424   4.084 -1.5489 -1.0467 -0.6781
 2068TIP3   OH2 6167   5.040   6.496   4.717  0.4413  0.1282  0.0869
 2068TIP3    H1 6168   5.046   6.407   4.683  0.8843 -0.7427  2.3052
 2068TIP3    H2 6169   4.946   6.508   4.735  0.3650  0.1714 -0.3254
 2069TIP3   OH2 6170   6.312   6.563   0.961 -0.6465 -0.1346  0.4926
 2069TIP3    H1 6171   6.251   6.591   1.029 -0.6424 -1.2889  0.9939
 2069TIP3    H2 6172   6.344   6.478   0.990 -1.2649 -1.0591 -1.3312
 2070TIP3   OH2 6173   0.244   4.919   3.197  0.0424 -0.3559  0.1378
 2070TIP3    H1 6174   0.201   4.884   3.119 -0.2661 -2.6078  1.2460
 2070TIP3    H2 6175   0.245   4.846   3.258  0.6413  1.2343  2.1110
 2071TIP3   OH2 6176   6.506   0.831   4.770 -0.3623  0.0867 -0.3249
 2071TIP3    H1 6177   6.497   0.925   4.751 -0.0508  0.2970  0.5167
 2071TIP3    H2 6178   6.504   0.789   4.684  1.0731  0.9962 -0.8471
 2072TIP3   OH2 6179   2.691   0.037   0.320 -0.2369  0.6733 -0.0337
 2072TIP3    H1 6180   2.716   0.129   0.316 -0.0814  0.6155 -0.4574
 2072TIP3    H2 6181   2.603   0.037   0.357 -0.3387  1.0103 -0.2786
 2073TIP3   OH2 6182   3.467   5.749   1.539 -0.0822 -0.0296  0.4807
 2073TIP3    H1 6183   3.549   5.708   1.567  0.4736  1.2422  0.7938
 2073TIP3    H2 6184   3.490   5.841   1.525 -1.4973  0.3921  0.7694
 2074TIP3   OH2 6185   0.061   6.672   4.354  0.0045  0.9917 -0.4174
 2074TIP3    H1 6186  -0.023   6.634   4.381  1.2391 -1.8961 -0.3343
 2074TIP3    H2 6187   0.046   6.698   4.263 -0.6022 -0.8895 -0.9045
 2075TIP3   OH2 6188   2.432   3.220   4.028 -0.1821  0.4239  0.2106
 2075TIP3    H1 6189   2.419   3.162   3.952 -0.8820  2.2463 -1.1318
 2075TIP3    H2 6190   2.360   3.198   4.087  0.6107 -1.3147  0.5798
 2076TIP3   OH2 6191   1.667   1.349   5.657 -0.2508 -0.3590 -0.2144
 2076TIP3    H1 6192   1.744   1.378   5.705 -0.3218  0.5893 -0.6567
 2076TIP3    H2 6193   1.616   1.429   5.642 -0.6362 -0.7591 -1.1290
 2077TIP3   OH2 6194   6.963   2.217   5.787  0.4241 -0.1429  0.1824
 2077TIP3    H1 6195   7.029   2.215   5.856  0.1223 -1.7484  0.4639
 2077TIP3    H2 6196   7.005   2.178   5.711  0.2238  0.0417 -0.0247
 2078TIP3   OH2 6197   1.874   4.400   3.341  0.5647  0.6631  0.0923
 2078TIP3    H1 6198   1.804   4.382   3.404 -0.5001 -0.6650 -1.3498
 2078TIP3    H2 6199   1.942   4.336   3.362 -0.4680 -0.8814 -1.0150
 2079TIP3   OH2 6200   1.238   2.266   0.652 -0.2451 -0.3180  0.0166
 2079TIP3    H1 6201   1.259   2.175   0.673  0.1104  0.1853  2.0368
 2079TIP3    H2 6202   1.305   2.291   0.589  0.7525 -0.9565  0.7739
 2080TIP3   OH2 6203   4.241   0.516   4.364  0.4100 -0.0141 -0.4618
 2080TIP3    H1 6204   4.169   0.573   4.390  1.6478  1.1225  0.6099
 2080TIP3    H2 6205   4.234   0.440   4.422  0.7185  0.6176  0.4219
 2081TIP3   OH2 6206   2.849   4.697   2.685 -0.1576 -0.0049 -0.4622
 2081TIP3    H1 6207   2.940   4.718   2.707 -0.2642 -1.7332  2.0502
 2081TIP3    H2 6208   2.856   4.624   2.622  0.1508  0.8130 -1.4070
 2082TIP3   OH2 6209   5.883   3.738   0.969  0.2884  0.6523  0.0074
 2082TIP3    H1 6210   5.861   3.823   1.006 -0.9259 -0.1238  1.1363
 2082TIP3    H2 6211   5.957   3.707   1.021 -0.6106  0.1199  1.0065
 2083TIP3   OH2 6212   5.024   4.077   5.759  0.3352 -0.0937  0.1055
 2083TIP3    H1 6213   5.032   4.173   5.765  0.3640 -0.1337  0.7204
 2083TIP3    H2 6214   5.032   4.059   5.665 -0.9367  0.6171 -0.1676
 2084TIP3   OH2 6215   3.679   2.093   0.241 -0.0107  0.2536 -0.4631
 2084TIP3    H1 6216   3.605   2.032   0.248  0.6723 -0.4458  1.2579
 2084TIP3    H2 6217   3.707   2.086   0.149 -1.1013 -0.6405 -0.7499
 2085TIP3   OH2 6218   0.584   4.535   1.717 -0.1134  0.2067 -0.2391
 2085TIP3    H1 6219   0.525   4.505   1.648 -0.6238 -2.3749  1.1638
 2085TIP3    H2 6220   0.551   4.621   1.741 -1.4627  0.0843 -1.5062
 2086TIP3   OH2 6221   0.194   2.698   2.745 -0.5188 -0.3003  0.2136
 2086TIP3    H1 6222   0.151   2.642   2.680  0.7359 -1.7859  0.6320
 2086TIP3    H2 6223   0.235   2.638   2.807 -0.6060  1.0836  1.6967
 2087TIP3   OH2 6224   5.327   3.663   5.891 -0.3190 -0.6718  0.2605
 2087TIP3    H1 6225   5.268   3.736   5.871  0.7828  0.1429 -0.0995
 2087TIP3    H2 6226   5.304   3.596   5.826 -0.2329 -0.0049 -0.4751
 2088TIP3   OH2 6227   4.626   5.740   5.850  0.4262 -0.0683 -0.3977
 2088TIP3    H1 6228   4.690   5.732   5.779  0.4565  2.1815 -0.6984
 2088TIP3    H2 6229   4.557   5.677   5.827  1.3972 -0.8356 -1.3213
 2089TIP3   OH2 6230   4.886   2.843   5.460 -0.1366 -0.4365  0.0581
 2089TIP3    H1 6231   4.875   2.755   5.498 -0.8699 -0.0346  0.8148
 2089TIP3    H2 6232   4.946   2.830   5.387  0.2903 -1.4663  0.5634
 2090TIP3   OH2 6233   5.711   5.960   0.278 -0.2215 -0.0560 -0.3061
 2090TIP3    H1 6234   5.631   5.915   0.306  0.3112 -1.0678 -0.3389
 2090TIP3    H2 6235   5.772   5.948   0.351 -0.2519  1.1670 -0.0589
 2091TIP3   OH2 6236   3.698   3.205   3.745 -0.5654  0.1620 -0.1212
 2091TIP3    H1 6237   3.676   3.296   3.724 -1.3320 -0.0889 -0.4709
 2091TIP3    H2 6238   3.681   3.197   3.838  3.1434  1.3708  0.8501
 2092TIP3   OH2 6239   3.446   6.101   2.752  0.7966  0.5813 -0.3155
 2092TIP3    H1 6240   3.363   6.124   2.709  0.4622  0.7003  0.3869
 2092TIP3    H2 6241   3.494   6.184   2.757  0.1329  0.9046  1.0426
 2093TIP3   OH2 6242   2.270   0.988   1.360  0.5123  0.0913 -0.3697
 2093TIP3    H1 6243   2.330   1.029   1.297  0.1040  0.6770 -0.3913
 2093TIP3    H2 6244   2.194   0.963   1.307 -0.9072  2.7766  0.2200
 2094TIP3   OH2 6245   1.300   6.203   5.032  0.7189  0.0119 -0.4925
 2094TIP3    H1 6246   1.273   6.256   5.107 -0.0309  0.0710 -0.7973
 2094TIP3    H2 6247   1.330   6.266   4.967  1.7677 -0.0617 -0.0993
 2095TIP3   OH2 6248   6.293   0.814   2.753  0.3192 -0.4813 -0.0450
 2095TIP3    H1 6249   6.378   0.786   2.719  0.8788 -0.9975  1.6779
 2095TIP3    H2 6250   6.260   0.876   2.688  1.7622 -0.6772 -0.9995
 2096TIP3   OH2 6251   5.715   1.491   4.917 -0.0115  0.0222  0.3520
 2096TIP3    H1 6252   5.730   1.545   4.995  0.6419  0.8163 -0.3117
 2096TIP3    H2 6253   5.767   1.532   4.849 -0.5570 -0.6836 -0.5084
 2097TIP3   OH2 6254   0.357   3.864   1.931  0.1991  0.4377 -0.3608
 2097TIP3    H1 6255   0.433   3.920   1.919  0.1717  0.5294 -0.1101
 2097TIP3    H2 6256   0.374   3.818   2.013 -0.0763  0.5569 -0.2364
 2098TIP3   OH2 6257   5.096   0.149   2.509  0.0398  0.2595 -0.3081
 2098TIP3    H1 6258   5.117   0.057   2.524 -2.3671 -0.5582 -1.3768
 2098TIP3    H2 6259   5.178   0.188   2.479  1.2844 -1.3534  0.8367
 2099TIP3   OH2 6260   6.319   2.490   3.604 -0.5834  0.9665 -0.5880
 2099TIP3    H1 6261   6.315   2.413   3.660 -0.3264  0.8729 -0.6977
 2099TIP3    H2 6262   6.238   2.537   3.623  0.2619  1.8199  1.1173
 2100TIP3   OH2 6263   1.612   1.539   2.007 -0.1948  0.0530 -0.8030
 2100TIP3    H1 6264   1.525   1.545   2.047 -0.3335 -0.3596 -1.0365
 2100TIP3    H2 6265   1.664   1.605   2.053  0.6529 -2.6744  2.5895
 2101TIP3   OH2 6266   1.083   6.801   5.004 -0.4029 -0.1443  0.5023
 2101TIP3    H1 6267   1.087   6.717   5.049  0.9749 -1.2993 -1.6332
 2101TIP3    H2 6268   1.023   6.854   5.058  0.6858 -1.5662  3.3213
 2102TIP3   OH2 6269   1.129   5.659   4.471  0.1521  0.0188 -0.0760
 2102TIP3    H1 6270   1.128   5.641   4.565  1.7447 -1.4671 -0.2809
 2102TIP3    H2 6271   1.202   5.720   4.459 -0.6684  0.9723 -0.2393
 2103TIP3   OH2 6272   7.148   0.433   1.718 -0.3535 -0.8876  0.7039
 2103TIP3    H1 6273   7.065   0.421   1.672 -0.6688  0.1901  0.9702
 2103TIP3    H2 6274   7.203   0.361   1.687 -0.7285 -0.4838 -0.9696
 2104TIP3   OH2 6275   3.048   2.179   4.448 -0.1071 -0.3938  0.1660
 2104TIP3    H1 6276   3.064   2.144   4.536  0.4203  1.5330  0.8839
 2104TIP3    H2 6277   3.135   2.183   4.408 -0.2997 -0.9026 -0.3126
 2105TIP3   OH2 6278   5.102   3.471   1.668  0.0617 -0.3649 -0.0007
 2105TIP3    H1 6279   5.185   3.503   1.704  0.3510 -0.4556 -0.5710
 2105TIP3    H2 6280   5.114   3.376   1.661 -0.1038 -0.3825 -0.0499
 2106TIP3   OH2 6281   1.954   0.160   3.371 -0.1095 -0.2324  0.2693
 2106TIP3    H1 6282   2.032   0.212   3.390  1.1522 -1.5940 -0.8905
 2106TIP3    H2 6283   1.949   0.095   3.441  1.3202 -1.7388 -0.9506
 2107TIP3   OH2 6284   7.101   1.538   1.034 -0.2066 -1.1886 -0.1818
 2107TIP3    H1 6285   7.067   1.569   1.118 -0.3382  1.3720 -1.1015
 2107TIP3    H2 6286   7.170   1.476   1.059  2.5745  2.3675  2.0723
 2108TIP3   OH2 6287   3.252   6.487   4.741 -0.0799 -0.1885  0.6632
 2108TIP3    H1 6288   3.343   6.466   4.719  0.5885  2.0461  1.0538
 2108TIP3    H2 6289   3.245   6.467   4.834  1.0119  2.5251  1.4129
 2109TIP3   OH2 6290   6.847   6.645   2.746  0.2056  0.2511 -0.0426
 2109TIP3    H1 6291   6.797   6.605   2.675  0.5993 -0.6587  0.1766
 2109TIP3    H2 6292   6.787   6.644   2.821 -0.4129  1.7330 -0.4788
 2110TIP3   OH2 6293   1.066   4.486   4.100  0.6837 -0.3449  0.1295
 2110TIP3    H1 6294   1.049   4.480   4.006  0.1471 -1.2373  0.2687
 2110TIP3    H2 6295   0.979   4.482   4.141  1.0111 -2.1478  0.7403
 2111TIP3   OH2 6296   6.887   5.792   3.376  0.3874  0.1398  0.1821
 2111TIP3    H1 6297   6.837   5.751   3.446 -0.8435  0.9003 -0.2195
 2111TIP3    H2 6298   6.974   5.804   3.413 -0.1560  0.2554  1.4889
 2112TIP3   OH2 6299   6.613   5.456   2.189  0.3591 -0.0361  0.4238
 2112TIP3    H1 6300   6.578   5.483   2.104 -1.2267 -1.8709  0.4316
 2112TIP3    H2 6301   6.691   5.404   2.168 -0.5447 -1.2529  0.0125
 2113TIP3   OH2 6302   1.795   1.673   0.169 -0.2706  0.0751 -0.4173
 2113TIP3    H1 6303   1.734   1.720   0.225 -0.6623 -0.6583 -0.2078
 2113TIP3    H2 6304   1.740   1.611   0.121  0.1821  0.0781 -0.9520
 2114TIP3   OH2 6305   6.236   6.110   4.953  0.0655 -0.9232  0.1432
 2114TIP3    H1 6306   6.307   6.062   4.908 -0.9598 -2.2393 -0.1282
 2114TIP3    H2 6307   6.265   6.115   5.044  1.1352 -0.2225 -0.2161
 2115TIP3   OH2 6308   4.755   5.486   2.419  1.0035  0.1557  0.1478
 2115TIP3    H1 6309   4.743   5.459   2.510  3.9579 -1.0603  0.2898
 2115TIP3    H2 6310   4.728   5.410   2.367  0.5351  0.3883  0.0390
 2116TIP3   OH2 6311   5.797   3.377   1.971  0.0352 -0.4239 -0.1079
 2116TIP3    H1 6312   5.729   3.365   2.036 -0.1364  0.4809 -0.1075
 2116TIP3    H2 6313   5.758   3.346   1.889 -0.6377  0.6882 -0.2370
 2117TIP3   OH2 6314   3.106   6.701   1.996  0.6328  0.1419 -0.1230
 2117TIP3    H1 6315   3.184   6.749   1.967  1.2462 -1.2628 -0.8797
 2117TIP3    H2 6316   3.111   6.704   2.091  1.0352  0.9876 -0.1632
 2118TIP3   OH2 6317   1.923   1.581   5.651  0.3636 -0.4188  0.4491
 2118TIP3    H1 6318   1.988   1.510   5.648  1.9426  0.9829 -0.6934
 2118TIP3    H2 6319   1.971   1.658   5.619 -2.1418  0.4916 -1.3901
 2119TIP3   OH2 6320   0.797   1.356   2.932  0.1790 -0.0242 -0.2417
 2119TIP3    H1 6321   0.843   1.439   2.927  1.7442 -0.8926 -1.0015
 2119TIP3    H2 6322   0.865   1.291   2.949 -1.1080 -1.0792  1.1919
 2120TIP3   OH2 6323   1.088   4.772   5.657  0.6987  0.0804  0.1086
 2120TIP3    H1 6324   1.122   4.698   5.707  0.8116  0.9464  1.3967
 2120TIP3    H2 6325   1.062   4.835   5.725  0.1622  1.0120 -0.9398
 2121TIP3   OH2 6326   6.844   2.765   3.718 -0.1790  0.1392  0.0857
 2121TIP3    H1 6327   6.860   2.752   3.812 -1.3335 -1.2051  0.1293
 2121TIP3    H2 6328   6.813   2.680   3.687 -0.9075  0.8807 -1.2889
 2122TIP3   OH2 6329   2.145   6.631   1.718  0.5050  0.6753  0.3310
 2122TIP3    H1 6330   2.200   6.570   1.767 -0.1476 -0.0944  0.1318
 2122TIP3    H2 6331   2.065   6.638   1.769  0.2140  0.6510 -0.1114
 2123TIP3   OH2 6332   6.803   0.574   0.937  0.5245  0.0170  0.2562
 2123TIP3    H1 6333   6.778   0.483   0.957  1.2787  0.2475  2.5765
 2123TIP3    H2 6334   6.877   0.566   0.878  0.3590 -0.8676  0.1447
 2124TIP3   OH2 6335   6.267   6.471   5.130 -0.0181  0.1894  0.0200
 2124TIP3    H1 6336   6.175   6.492   5.115 -1.1547 -2.7474  1.8751
 2124TIP3    H2 6337   6.295   6.428   5.049 -0.1464  1.3640 -0.6660
 2125TIP3   OH2 6338   0.605   0.603   0.048  0.0748 -0.0937  0.0174
 2125TIP3    H1 6339   0.667   0.675   0.061 -1.1241  1.2110 -1.1411
 2125TIP3    H2 6340   0.642   0.553  -0.026 -1.0746  1.7464 -1.9187
 2126TIP3   OH2 6341   0.345   2.791   0.228 -0.5201 -0.2627  0.5457
 2126TIP3    H1 6342   0.417   2.808   0.168  0.6040  1.9877  2.3573
 2126TIP3    H2 6343   0.293   2.871   0.227 -2.6546 -1.5779 -0.1780
 2127TIP3   OH2 6344   4.861   4.319   3.764  0.4908 -0.2843 -0.3209
 2127TIP3    H1 6345   4.904   4.235   3.783 -0.8723 -1.1684 -1.0297
 2127TIP3    H2 6346   4.811   4.339   3.843  3.1730  1.4731  1.0956
 2128TIP3   OH2 6347   3.432   0.923   5.595 -0.4178  0.0564  0.5239
 2128TIP3    H1 6348   3.386   0.839   5.597  1.1326 -0.8346  1.5237
 2128TIP3    H2 6349   3.374   0.983   5.642 -1.1766 -0.6541  0.5219
 2129TIP3   OH2 6350   1.870   5.566   2.013  0.3941  0.4871 -0.0450
 2129TIP3    H1 6351   1.902   5.573   1.923 -0.6696  2.9700 -0.3180
 2129TIP3    H2 6352   1.916   5.635   2.060  3.2001 -2.6043  2.1792
 2130TIP3   OH2 6353   6.227   3.982   4.102 -0.4056  0.2438 -0.1033
 2130TIP3    H1 6354   6.273   4.062   4.078 -0.8842  0.3520 -0.6871
 2130TIP3    H2 6355   6.190   4.002   4.189 -0.7075  0.7418 -0.3397
 2131TIP3   OH2 6356   2.432   1.285   5.739 -0.2986 -0.4290  0.3736
 2131TIP3    H1 6357   2.484   1.259   5.664  0.4930 -1.6598  1.2990
 2131TIP3    H2 6358   2.416   1.379   5.727 -0.3641 -0.6326 -1.3956
 2132TIP3   OH2 6359   6.831   0.099   0.733  0.5935  0.0633  0.3733
 2132TIP3    H1 6360   6.818   0.083   0.827  0.6528 -0.5878  0.2778
 2132TIP3    H2 6361   6.916   0.059   0.714  0.9038  0.8063  0.1803
 2133TIP3   OH2 6362   0.804   6.664   4.997 -0.2415 -0.3014  0.0966
 2133TIP3    H1 6363   0.886   6.616   5.013 -0.0876  0.6734  2.7276
 2133TIP3    H2 6364   0.827   6.727   4.928  0.7353 -1.1111 -0.3584
 2134TIP3   OH2 6365   2.315   3.139   2.727 -0.1092 -0.6725  0.1039
 2134TIP3    H1 6366   2.226   3.163   2.751  0.3468  0.2073  1.0261
 2134TIP3    H2 6367   2.350   3.095   2.805  0.8081  0.5747  0.4432
 2135TIP3   OH2 6368   5.521   2.637   0.647  0.5553 -0.1125  0.2822
 2135TIP3    H1 6369   5.487   2.628   0.736 -0.2766 -0.4734 -0.0635
 2135TIP3    H2 6370   5.616   2.627   0.657  0.3439 -1.8031  0.9201
 2136TIP3   OH2 6371   0.932   5.393   5.878  0.3953  0.0715  0.6428
 2136TIP3    H1 6372   0.886   5.448   5.942 -1.3777  0.8952 -1.2129
 2136TIP3    H2 6373   0.862   5.356   5.823  1.8246 -0.3426 -0.9902
 2137TIP3   OH2 6374   2.983   0.238   2.802  0.5291 -0.2652  0.0345
 2137TIP3    H1 6375   3.045   0.237   2.729 -0.7513 -1.3814 -1.1046
 2137TIP3    H2 6376   2.966   0.145   2.819 -0.3542  0.0137  0.7139
 2138TIP3   OH2 6377   1.426   1.303   0.016  0.1297  0.5776 -1.1585
 2138TIP3    H1 6378   1.438   1.265   0.103 -2.6810  0.5247 -0.7289
 2138TIP3    H2 6379   1.431   1.227  -0.043 -0.3323  0.2583 -0.7977
 2139TIP3   OH2 6380   3.307   1.912   4.365 -0.0208  0.0393 -0.1360
 2139TIP3    H1 6381   3.223   1.870   4.386 -0.0595  0.3292  0.2988
 2139TIP3    H2 6382   3.320   1.976   4.434  0.9815 -0.6000  0.2995
 2140TIP3   OH2 6383   3.802   6.641   1.134 -0.0379 -0.0297 -0.5332
 2140TIP3    H1 6384   3.724   6.601   1.173  1.0460 -1.5907  0.1403
 2140TIP3    H2 6385   3.802   6.610   1.044  0.4841 -1.1375 -0.1712
 2141TIP3   OH2 6386   1.046   4.264   5.000 -0.1736 -0.2231  0.5950
 2141TIP3    H1 6387   0.986   4.204   5.043  0.4005 -0.0701  1.6435
 2141TIP3    H2 6388   1.081   4.318   5.071 -1.6883  2.2865 -0.4209
 2142TIP3   OH2 6389   5.155   2.902   4.694  0.3424 -0.3016 -0.1684
 2142TIP3    H1 6390   5.233   2.944   4.729  0.2507 -0.5537  0.3435
 2142TIP3    H2 6391   5.136   2.831   4.755  0.3527 -0.9369 -0.8801
 2143TIP3   OH2 6392   7.171   0.913   1.228 -0.1618 -0.3668  0.0482
 2143TIP3    H1 6393   7.131   0.968   1.295  0.2613  1.5075 -1.1887
 2143TIP3    H2 6394   7.109   0.913   1.156  0.6564  0.0270 -0.6771
 2144TIP3   OH2 6395   6.662   1.087   0.728 -0.4335  0.3967  0.3622
 2144TIP3    H1 6396   6.617   1.159   0.772  0.2437  1.8153 -1.1636
 2144TIP3    H2 6397   6.635   1.093   0.637  1.6059  0.3393 -0.3068
 2145TIP3   OH2 6398   3.613   4.389   3.449  0.1529 -0.1165 -0.3904
 2145TIP3    H1 6399   3.654   4.475   3.454 -3.4351  1.7860 -0.4727
 2145TIP3    H2 6400   3.595   4.376   3.356 -1.1164  0.0471 -0.1918
 2146TIP3   OH2 6401   5.363   5.371   4.068 -0.4745 -0.2775  1.3712
 2146TIP3    H1 6402   5.372   5.287   4.113  0.6672 -1.1044 -0.2767
 2146TIP3    H2 6403   5.270   5.391   4.071 -0.5859 -0.8917  2.9875
 2147TIP3   OH2 6404   0.280   4.802   0.361 -0.6581 -0.0241  0.2422
 2147TIP3    H1 6405   0.202   4.751   0.339 -0.1218 -1.2229  0.9786
 2147TIP3    H2 6406   0.250   4.863   0.429 -1.2750  0.5540 -0.5327
 2148TIP3   OH2 6407   1.328   6.238   3.608  0.1520  0.2755 -0.7024
 2148TIP3    H1 6408   1.346   6.187   3.530 -0.0450 -0.0675 -0.5263
 2148TIP3    H2 6409   1.261   6.188   3.655 -0.3208  0.8848 -0.7139
 2149TIP3   OH2 6410   1.581   0.202   1.223  0.6085 -0.5789 -0.4165
 2149TIP3    H1 6411   1.606   0.112   1.202  1.6644 -0.9801  2.1448
 2149TIP3    H2 6412   1.485   0.202   1.220  0.6103 -1.6562 -0.8725
 2150TIP3   OH2 6413   2.285   0.965   2.807  0.2302  0.0843 -1.1054
 2150TIP3    H1 6414   2.289   0.895   2.873  2.1101  1.7189  0.6443
 2150TIP3    H2 6415   2.192   0.977   2.791 -0.2311 -1.2221  0.3428
 2151TIP3   OH2 6416   0.297   1.210   1.140  0.7047  1.0737  0.2816
 2151TIP3    H1 6417   0.228   1.274   1.159 -0.2412  1.0747 -2.6772
 2151TIP3    H2 6418   0.249   1.128   1.125  1.0990  1.2863 -2.8294
 2152TIP3   OH2 6419   5.911   2.933   4.781  0.5514  0.2013  0.1938
 2152TIP3    H1 6420   5.925   2.949   4.688 -0.0700 -1.3197 -0.1912
 2152TIP3    H2 6421   5.960   2.852   4.799 -1.4816 -1.0051  0.5539
 2153TIP3   OH2 6422   5.578   2.802   2.212 -0.0873 -0.1937 -0.0478
 2153TIP3    H1 6423   5.631   2.742   2.160 -1.3019 -2.0110  0.7093
 2153TIP3    H2 6424   5.624   2.809   2.295  0.3452  0.4093 -0.3270
 2154TIP3   OH2 6425   6.803   4.442   2.630 -0.3283  0.5446 -0.2354
 2154TIP3    H1 6426   6.897   4.439   2.612  0.3109  0.8188  2.5967
 2154TIP3    H2 6427   6.790   4.523   2.679 -2.4135  1.4460 -2.1133
 2155TIP3   OH2 6428   3.524   6.151   5.009 -0.5560  0.2388 -0.6558
 2155TIP3    H1 6429   3.570   6.116   4.933  3.4577  4.7498 -0.7888
 2155TIP3    H2 6430   3.473   6.225   4.974 -0.7479  0.7915  0.7131
 2156TIP3   OH2 6431   3.616   5.964   2.482  0.2016 -0.2195  0.1645
 2156TIP3    H1 6432   3.571   5.935   2.403 -0.5868  0.8135  0.2063
 2156TIP3    H2 6433   3.553   5.947   2.553  0.6508 -0.5581  0.4881
 2157TIP3   OH2 6434   0.900   0.657   5.118 -0.4908 -0.0846 -0.2061
 2157TIP3    H1 6435   0.940   0.739   5.090 -0.8412  0.6717  1.4043
 2157TIP3    H2 6436   0.813   0.657   5.078 -0.8422  0.7917  0.5186
 2158TIP3   OH2 6437   1.496   6.170   3.889 -0.2408 -1.0349  0.3122
 2158TIP3    H1 6438   1.499   6.173   3.793 -1.9433  1.6462  0.2301
 2158TIP3    H2 6439   1.406   6.146   3.910 -1.0392  2.0559  1.0656
 2159TIP3   OH2 6440   3.593   0.743   1.130 -0.2173 -0.3342 -0.2313
 2159TIP3    H1 6441   3.644   0.724   1.052 -0.8808  1.6614 -1.2251
 2159TIP3    H2 6442   3.526   0.675   1.133  0.1369 -0.7249 -1.1129
 2160TIP3   OH2 6443   0.860   3.959   1.818  0.1898 -0.1186  0.3144
 2160TIP3    H1 6444   0.919   3.990   1.750  0.4111 -0.1257  0.5014
 2160TIP3    H2 6445   0.787   3.919   1.771  0.4787 -0.3749  0.0833
 2161TIP3   OH2 6446   2.979   2.552   0.156  0.2503  0.0093 -0.6363
 2161TIP3    H1 6447   3.051   2.561   0.094  0.7090 -0.1026 -0.1312
 2161TIP3    H2 6448   3.000   2.614   0.226  0.3981 -0.7576  0.0166
 2162TIP3   OH2 6449   3.827   2.996   5.635 -0.3271  0.1608  0.0060
 2162TIP3    H1 6450   3.739   3.010   5.669 -0.0822 -0.4865  0.9325
 2162TIP3    H2 6451   3.815   2.938   5.560 -0.6732 -0.1100  0.2682
 2163TIP3   OH2 6452   5.650   2.965   3.785  0.2882  0.5319 -0.0774
 2163TIP3    H1 6453   5.709   2.892   3.803 -0.2741  0.5321  1.9948
 2163TIP3    H2 6454   5.594   2.933   3.714 -0.4709 -1.4201  1.3157
 2164TIP3   OH2 6455   4.436   1.229   2.316 -0.1786  0.5020  0.2370
 2164TIP3    H1 6456   4.439   1.313   2.361  2.4600  1.7721 -1.9920
 2164TIP3    H2 6457   4.351   1.228   2.272 -1.0885  1.0296  1.8956
 2165TIP3   OH2 6458   0.147   5.800   3.993 -0.1561  0.2559  0.6147
 2165TIP3    H1 6459   0.238   5.805   3.964  0.3086 -2.0219  1.4597
 2165TIP3    H2 6460   0.097   5.837   3.921  1.3007 -0.4198 -0.8114
 2166TIP3   OH2 6461   0.291   1.548   2.070 -0.7639 -0.3257  0.0994
 2166TIP3    H1 6462   0.247   1.607   2.131  1.0325  0.6208  0.5433
 2166TIP3    H2 6463   0.263   1.460   2.097 -2.1135  0.2089  0.5230
 2167TIP3   OH2 6464   1.831   6.449   2.621 -0.0680  0.4388 -0.2561
 2167TIP3    H1 6465   1.859   6.485   2.537  1.0055  0.1713 -0.0219
 2167TIP3    H2 6466   1.735   6.459   2.620  0.0321  1.5287 -0.9927
 2168TIP3   OH2 6467   6.784   4.573   0.036 -0.4620 -0.3860 -0.4551
 2168TIP3    H1 6468   6.734   4.553   0.114  1.3978  0.3924  1.0086
 2168TIP3    H2 6469   6.745   4.653   0.002  1.4283  1.9118  2.3241
 2169TIP3   OH2 6470   0.574   4.703   0.421  0.2215 -0.2953 -0.1998
 2169TIP3    H1 6471   0.493   4.673   0.380 -0.0342 -0.3043  0.3144
 2169TIP3    H2 6472   0.581   4.795   0.397 -1.3617  0.4629  2.0005
 2170TIP3   OH2 6473   5.008   2.709   2.951 -0.0112 -0.2586  0.0096
 2170TIP3    H1 6474   4.988   2.727   2.859  0.9792 -0.2580 -0.2128
 2170TIP3    H2 6475   5.067   2.780   2.977 -1.8515  0.9076  1.2488
 2171TIP3   OH2 6476   4.834   3.451   3.337 -0.1844 -0.6447  0.2794
 2171TIP3    H1 6477   4.892   3.491   3.273  0.6706 -1.0586  0.7775
 2171TIP3    H2 6478   4.755   3.505   3.335  0.4566  0.3012  0.0424
 2172TIP3   OH2 6479   7.167   3.810   5.265 -0.1026  0.1745  0.1618
 2172TIP3    H1 6480   7.143   3.769   5.182  1.1367 -0.6861  0.2095
 2172TIP3    H2 6481   7.084   3.844   5.300 -1.0071 -1.4032 -0.3562
 2173TIP3   OH2 6482   3.935   1.318   2.036 -0.4737 -0.1472  0.3671
 2173TIP3    H1 6483   3.876   1.393   2.026  0.5620  0.7069  0.4308
 2173TIP3    H2 6484   3.879   1.241   2.024 -1.9339  0.5679  2.1897
 2174TIP3   OH2 6485   1.618   0.571   0.326 -0.2035 -0.5184  0.1251
 2174TIP3    H1 6486   1.536   0.548   0.368  0.4608 -2.7451  0.3548
 2174TIP3    H2 6487   1.682   0.574   0.398  0.0075  0.8695 -0.0884
 2175TIP3   OH2 6488   3.939   2.690   0.086 -0.0911  0.2265  0.4585
 2175TIP3    H1 6489   3.903   2.617   0.036  0.6175  0.2501 -0.0924
 2175TIP3    H2 6490   4.008   2.651   0.140  1.5146  0.7438 -1.1411
 2176TIP3   OH2 6491   0.398   1.926   2.210  0.2342  0.0575  0.4141
 2176TIP3    H1 6492   0.401   1.877   2.293  0.3948  2.9147  2.2501
 2176TIP3    H2 6493   0.488   1.923   2.178  0.4315 -0.1430  0.9636
 2177TIP3   OH2 6494   0.949   3.066   5.489 -0.5704  0.5752 -0.0896
 2177TIP3    H1 6495   1.007   3.140   5.506 -1.0310  1.3982 -1.8784
 2177TIP3    H2 6496   0.918   3.040   5.575  0.5884  1.6379  0.6889
 2178TIP3   OH2 6497   5.176   4.847   0.049  0.0280 -0.0380  0.3408
 2178TIP3    H1 6498   5.091   4.885   0.067 -1.0195 -1.1327 -1.8069
 2178TIP3    H2 6499   5.207   4.893  -0.029  0.6057 -0.7823  0.1115
 2179TIP3   OH2 6500   5.697   5.460   2.014  0.8064 -0.2276  0.5304
 2179TIP3    H1 6501   5.775   5.456   1.959  1.2586  0.0967  1.1369
 2179TIP3    H2 6502   5.722   5.414   2.094  0.7436  0.7902  1.1555
 2180TIP3   OH2 6503   5.587   5.502   4.632  0.1521 -0.2867 -0.5127
 2180TIP3    H1 6504   5.574   5.573   4.694 -0.2589 -0.2418 -0.6478
 2180TIP3    H2 6505   5.568   5.423   4.683  1.2364 -0.3572 -0.1812
 2181TIP3   OH2 6506   3.666   6.625   3.488  0.2547 -0.1864 -0.8179
 2181TIP3    H1 6507   3.716   6.604   3.566 -1.4100 -1.4951 -0.0513
 2181TIP3    H2 6508   3.672   6.720   3.480 -1.0774  0.2303  2.0227
 2182TIP3   OH2 6509   0.111   2.784   5.703  0.2828 -0.0714  0.4336
 2182TIP3    H1 6510   0.048   2.725   5.743  0.5328  0.0865  1.0770
 2182TIP3    H2 6511   0.196   2.743   5.719  0.3542 -0.2517 -0.3699
 2183TIP3   OH2 6512   2.340   1.082   0.618 -0.3982 -0.6662 -0.3865
 2183TIP3    H1 6513   2.402   1.121   0.556 -0.1941  0.0500  0.2545
 2183TIP3    H2 6514   2.290   1.155   0.652 -0.6550 -1.0763  0.1343
 2184TIP3   OH2 6515   0.065   1.521   4.090  0.6153 -0.5718  0.4054
 2184TIP3    H1 6516  -0.020   1.564   4.086  1.7163  1.7217 -0.7308
 2184TIP3    H2 6517   0.076   1.497   4.182 -0.6737  0.3849  0.8344
 2185TIP3   OH2 6518   4.488   5.440   0.803  0.2015  0.1025 -0.4977
 2185TIP3    H1 6519   4.421   5.498   0.840  0.2922 -0.8929  1.3449
 2185TIP3    H2 6520   4.443   5.357   0.790  1.1005 -0.6859  1.0971
 2186TIP3   OH2 6521   2.049   6.427   2.783  0.2765  0.3668  0.1395
 2186TIP3    H1 6522   2.009   6.356   2.834  2.1310 -1.1985 -0.4906
 2186TIP3    H2 6523   1.975   6.474   2.747 -1.0591 -1.8661 -0.2468
 2187TIP3   OH2 6524   5.487   1.487   1.074  0.2993  0.2465 -0.2183
 2187TIP3    H1 6525   5.571   1.471   1.031  0.3428  1.3930 -0.5843
 2187TIP3    H2 6526   5.497   1.573   1.115  0.4430 -0.9704  2.5544
 2188TIP3   OH2 6527   4.966   5.194   4.871  0.5161 -0.2129 -0.1370
 2188TIP3    H1 6528   5.013   5.266   4.912  0.9240  0.2037 -1.3081
 2188TIP3    H2 6529   5.027   5.120   4.874  0.6893 -0.0778 -0.3391
 2189TIP3   OH2 6530   0.744   1.982   5.767 -0.9102  0.4903  0.3355
 2189TIP3    H1 6531   0.726   2.062   5.717  0.2788  0.5666 -0.0079
 2189TIP3    H2 6532   0.774   1.919   5.701  1.6505  0.8894  1.0217
 2190TIP3   OH2 6533   3.104   1.635   5.391  0.0968 -0.2475 -0.3026
 2190TIP3    H1 6534   3.164   1.563   5.408 -0.0130 -0.2402  0.1214
 2190TIP3    H2 6535   3.083   1.671   5.477  0.4699  0.5497 -0.5345
 2191TIP3   OH2 6536   5.910   0.603   1.156  0.5650 -0.1719  1.0452
 2191TIP3    H1 6537   5.885   0.511   1.149 -0.3439 -0.0498  2.2617
 2191TIP3    H2 6538   5.951   0.623   1.073  0.1326 -1.4911  0.4827
 2192TIP3   OH2 6539   2.649   1.383   2.588  0.1800  0.1339  0.6546
 2192TIP3    H1 6540   2.621   1.473   2.569  1.0644  0.4280  0.7024
 2192TIP3    H2 6541   2.717   1.393   2.655  0.9798 -0.4922 -0.0397
 2193TIP3   OH2 6542   3.518   1.191   1.142 -0.3093 -0.2302 -0.7526
 2193TIP3    H1 6543   3.542   1.213   1.052  0.0479  1.6867 -0.2292
 2193TIP3    H2 6544   3.444   1.247   1.161 -0.9264 -1.2427 -0.1104
 2194TIP3   OH2 6545   5.124   4.221   3.657  0.3107  0.4195 -0.1715
 2194TIP3    H1 6546   5.120   4.316   3.647 -0.4868  0.1913 -2.6375
 2194TIP3    H2 6547   5.052   4.200   3.716 -0.3271  1.2540 -0.6280
 2195TIP3   OH2 6548   1.105   5.787   2.681 -0.1189 -0.2095  0.4591
 2195TIP3    H1 6549   1.192   5.811   2.713 -0.1098 -1.0837  1.1413
 2195TIP3    H2 6550   1.084   5.705   2.727 -1.9571  0.7720  1.4995
 2196TIP3   OH2 6551   5.755   3.133   1.778 -0.2249  0.0327  0.1663
 2196TIP3    H1 6552   5.739   3.108   1.870 -0.6285 -2.0097 -0.4120
 2196TIP3    H2 6553   5.840   3.096   1.758  0.5682  1.7868  0.1112
 2197TIP3   OH2 6554   5.572   0.099   1.769  0.0752 -0.0306 -0.1655
 2197TIP3    H1 6555   5.666   0.118   1.772  0.0930 -0.2047  0.4841
 2197TIP3    H2 6556   5.563   0.032   1.701  0.4733 -0.2949  0.0396
 2198TIP3   OH2 6557   5.109   6.643   0.548 -0.0907 -0.3424 -0.0352
 2198TIP3    H1 6558   5.186   6.588   0.564  0.2315 -0.1967 -1.0596
 2198TIP3    H2 6559   5.143   6.733   0.547 -0.7189  0.0034  2.3678
 2199TIP3   OH2 6560   0.134   3.637   0.321  0.1586 -0.0173 -0.0501
 2199TIP3    H1 6561   0.082   3.564   0.288  0.0626  0.3108 -0.6508
 2199TIP3    H2 6562   0.069   3.699   0.354  0.2606 -0.3938  0.8721
 2200TIP3   OH2 6563   1.417   3.273   3.900 -0.2436  0.2834  0.1420
 2200TIP3    H1 6564   1.344   3.285   3.961 -1.2669 -0.4254 -0.8763
 2200TIP3    H2 6565   1.402   3.338   3.832 -0.7694 -0.7953 -0.8091
 2201TIP3   OH2 6566   3.452   3.227   3.331  0.3472 -0.4408  0.3089
 2201TIP3    H1 6567   3.470   3.287   3.258 -0.8238  0.1350  0.4642
 2201TIP3    H2 6568   3.538   3.197   3.360  0.8942  0.3050 -0.4978
 2202TIP3   OH2 6569   2.521   5.904   0.047  0.5545 -0.0544  0.3998
 2202TIP3    H1 6570   2.514   5.849   0.125 -0.5977  1.5223  1.4718
 2202TIP3    H2 6571   2.565   5.984   0.078 -0.0939  0.6712 -0.5128
 2203TIP3   OH2 6572   2.258   1.078   5.746 -0.1025  0.6034 -0.7340
 2203TIP3    H1 6573   2.329   1.140   5.732  0.3488  0.3208  0.2285
 2203TIP3    H2 6574   2.223   1.061   5.659  1.3922  0.2873 -1.2850
 2204TIP3   OH2 6575   3.018   2.162   1.062  0.1161 -0.2530 -0.1373
 2204TIP3    H1 6576   2.969   2.103   1.004 -2.6505  0.4569  1.3292
 2204TIP3    H2 6577   3.070   2.102   1.117 -0.0643 -1.1267 -0.8859
 2205TIP3   OH2 6578   0.088   4.923   1.430 -0.4036 -0.0301 -0.5667
 2205TIP3    H1 6579   0.183   4.910   1.442 -0.5108 -0.1876  0.1309
 2205TIP3    H2 6580   0.052   4.834   1.431 -0.3963 -0.0768 -2.3534
 2206TIP3   OH2 6581   0.103   3.333   2.207  0.9863  0.4744 -0.0549
 2206TIP3    H1 6582   0.027   3.301   2.158  0.0314  1.4243  0.7470
 2206TIP3    H2 6583   0.117   3.268   2.276  1.0675  0.1764 -0.3469
 2207TIP3   OH2 6584   6.507   1.354   3.337 -0.0526  0.2007  0.4071
 2207TIP3    H1 6585   6.530   1.330   3.427  1.1643  0.9266  0.3170
 2207TIP3    H2 6586   6.575   1.314   3.284 -0.1409  0.6953 -0.0853
 2208TIP3   OH2 6587   1.121   2.599   2.042  0.2056 -0.3187  0.1031
 2208TIP3    H1 6588   1.133   2.560   2.129 -0.4686 -1.2921 -0.2238
 2208TIP3    H2 6589   1.209   2.599   2.004  0.3670 -0.7027  0.4601
 2209TIP3   OH2 6590   5.364   3.423   5.698 -0.3444 -0.1427 -0.7146
 2209TIP3    H1 6591   5.273   3.433   5.728 -0.0717  1.1947 -0.2553
 2209TIP3    H2 6592   5.411   3.396   5.777  0.0247  1.4001 -0.3703
 2210TIP3   OH2 6593   3.137   1.477   0.254  0.2795  0.5722 -0.1914
 2210TIP3    H1 6594   3.199   1.530   0.204  1.7995  0.5522  1.5615
 2210TIP3    H2 6595   3.188   1.401   0.283 -1.0337 -0.3154 -0.1015
 2211TIP3   OH2 6596   5.154   3.227   4.193  0.4699  0.8375  0.1203
 2211TIP3    H1 6597   5.117   3.245   4.279  0.6664 -3.8667  1.4611
 2211TIP3    H2 6598   5.239   3.188   4.211  1.3745  1.4854 -2.3713
 2212TIP3   OH2 6599   3.627   3.952   3.760 -0.9027  0.8889 -0.1993
 2212TIP3    H1 6600   3.606   4.012   3.832 -1.2575  0.6983 -0.1373
 2212TIP3    H2 6601   3.548   3.951   3.706 -1.3151 -0.3565  0.3961
 2213TIP3   OH2 6602   5.931   4.409   1.553 -0.3490 -0.8519 -0.5097
 2213TIP3    H1 6603   5.864   4.461   1.597  0.2069  1.3008 -2.0836
 2213TIP3    H2 6604   6.002   4.402   1.617 -0.0027  1.2694 -0.5996
 2214TIP3   OH2 6605   4.903   3.559   1.500  0.1517  0.2110  0.0038
 2214TIP3    H1 6606   4.914   3.489   1.435 -0.3913  0.2919 -0.1846
 2214TIP3    H2 6607   4.980   3.553   1.555 -0.6379 -1.5998  0.9896
 2215TIP3   OH2 6608   3.499   6.711   1.984 -0.2579 -0.1500  0.0983
 2215TIP3    H1 6609   3.559   6.755   1.924 -0.1291 -0.2504  0.1539
 2215TIP3    H2 6610   3.450   6.782   2.025 -0.4262 -0.0841 -0.2082
 2216TIP3   OH2 6611   3.531   0.484   0.297 -0.6043 -0.0012  0.0869
 2216TIP3    H1 6612   3.594   0.474   0.226 -0.4514  0.0005  0.2216
 2216TIP3    H2 6613   3.460   0.424   0.276 -0.0628 -0.7913  0.4849
 2217TIP3   OH2 6614   2.048   2.821   4.314 -0.0901  0.0801 -0.1714
 2217TIP3    H1 6615   2.111   2.829   4.242 -1.1268  1.0095 -1.0074
 2217TIP3    H2 6616   2.043   2.908   4.352 -0.2213 -0.1975  0.4648
 2218TIP3   OH2 6617   5.028   2.078   4.210  0.3510 -0.3522 -0.1644
 2218TIP3    H1 6618   5.035   2.048   4.300 -0.7974 -2.6903 -0.7774
 2218TIP3    H2 6619   5.115   2.063   4.172  0.6258 -0.0357  0.3281
 2219TIP3   OH2 6620   7.078   5.665   2.535 -0.0700 -0.1312  0.2078
 2219TIP3    H1 6621   7.092   5.575   2.565  0.7101 -0.4749 -1.1212
 2219TIP3    H2 6622   7.135   5.718   2.590  0.6674 -0.6419 -0.0507
 2220TIP3   OH2 6623   0.610   5.922   3.318  0.4044 -0.4186  0.3446
 2220TIP3    H1 6624   0.655   5.870   3.252  0.4889 -0.9022  0.7727
 2220TIP3    H2 6625   0.673   5.928   3.390  0.0695 -0.4545  0.6416
 2221TIP3   OH2 6626   0.911   3.241   4.349 -0.1644  0.4242 -0.0020
 2221TIP3    H1 6627   0.846   3.275   4.287  1.1099 -0.4892 -1.9248
 2221TIP3    H2 6628   0.911   3.147   4.335  0.8519  0.3056  0.7133
 2222TIP3   OH2 6629   6.533   0.511   0.099  0.2587 -0.0251 -0.7037
 2222TIP3    H1 6630   6.612   0.551   0.062  1.2274 -1.3649 -0.1543
 2222TIP3    H2 6631   6.462   0.551   0.050  1.2120  1.7502 -0.7388
 2223TIP3   OH2 6632   2.451   2.642   2.518  0.5191 -0.7795  0.2653
 2223TIP3    H1 6633   2.434   2.592   2.599 -1.4573 -0.3193  0.1799
 2223TIP3    H2 6634   2.464   2.732   2.548 -1.3459 -0.4024  0.0127
 2224TIP3   OH2 6635   4.414   2.573   2.855  0.2758 -0.2071  0.3424
 2224TIP3    H1 6636   4.464   2.492   2.860  1.5495  0.4773 -0.6550
 2224TIP3    H2 6637   4.442   2.623   2.931  0.3544 -0.2365  0.3330
 2225TIP3   OH2 6638   6.171   6.787   4.589  0.4366 -0.3671 -0.0962
 2225TIP3    H1 6639   6.213   6.727   4.650 -1.0313 -0.7916  0.5649
 2225TIP3    H2 6640   6.088   6.744   4.568 -0.1146  0.8780 -0.5427
 2226TIP3   OH2 6641   0.747   3.014   5.328 -0.0008 -0.2609 -0.2327
 2226TIP3    H1 6642   0.716   3.098   5.363  0.3721 -0.3134  0.2292
 2226TIP3    H2 6643   0.821   2.991   5.384  0.2397 -0.6321 -0.7033
 2227TIP3   OH2 6644   3.757   3.935   2.285 -0.1181  0.1640  0.0915
 2227TIP3    H1 6645   3.682   3.925   2.227  1.8400  3.5115 -3.4486
 2227TIP3    H2 6646   3.790   3.846   2.296 -2.3000 -0.9505 -1.4476
 2228TIP3   OH2 6647   1.875   4.223   2.736 -0.6021 -0.1160 -0.2832
 2228TIP3    H1 6648   1.965   4.251   2.720 -1.0005  0.6164 -1.3139
 2228TIP3    H2 6649   1.867   4.141   2.688 -0.0498 -0.9930  1.0606
 2229TIP3   OH2 6650   6.203   6.147   2.735  0.3968  0.1055 -0.3986
 2229TIP3    H1 6651   6.110   6.162   2.717  0.5869  3.5781  0.6054
 2229TIP3    H2 6652   6.211   6.164   2.829  2.2327  1.5349 -0.7511
 2230TIP3   OH2 6653   4.491   0.833   0.484  0.2205  0.4172  0.2172
 2230TIP3    H1 6654   4.473   0.769   0.554 -0.9586  1.2602  0.7141
 2230TIP3    H2 6655   4.405   0.853   0.448  0.8977 -1.1089 -2.5484
 2231TIP3   OH2 6656   2.814   4.304   4.252  0.6888  0.0081  0.0163
 2231TIP3    H1 6657   2.805   4.318   4.157  0.4350 -1.9618 -0.2804
 2231TIP3    H2 6658   2.724   4.290   4.282  1.0049 -2.2819  0.0200
 2232TIP3   OH2 6659   0.086   0.862   3.069 -0.4849 -0.4969 -0.1274
 2232TIP3    H1 6660   0.033   0.902   3.138 -1.3032 -0.6626 -0.6488
 2232TIP3    H2 6661   0.044   0.888   2.988 -0.6485 -1.8601 -0.4988
 2233TIP3   OH2 6662   2.888   1.258   0.898  0.1280  0.1761 -0.1424
 2233TIP3    H1 6663   2.871   1.340   0.852 -2.1657 -0.7965 -1.1531
 2233TIP3    H2 6664   2.982   1.242   0.884  0.8778  3.0272  0.8834
 2234TIP3   OH2 6665   6.753   5.221   0.084  0.5557  0.1769  0.5472
 2234TIP3    H1 6666   6.761   5.316   0.088  0.5644  0.1534  1.2413
 2234TIP3    H2 6667   6.675   5.201   0.137  1.9745 -0.3854  2.5273
 2235TIP3   OH2 6668   5.699   6.078   3.982  0.2448  0.2500  0.0185
 2235TIP3    H1 6669   5.659   6.083   4.069  0.8598  0.6483  0.2786
 2235TIP3    H2 6670   5.651   6.143   3.930  1.2626  1.5134  0.6213
 2236TIP3   OH2 6671   1.077   1.520   5.304  0.1298 -0.2889 -0.5311
 2236TIP3    H1 6672   1.096   1.566   5.385  1.5942  0.4299 -1.2392
 2236TIP3    H2 6673   0.986   1.492   5.312  0.7228 -1.7758  2.0915
 2237TIP3   OH2 6674   5.778   5.875   3.820 -0.0434  0.5096  0.3105
 2237TIP3    H1 6675   5.745   5.955   3.863  0.3363  0.9615 -0.2181
 2237TIP3    H2 6676   5.751   5.884   3.729  2.7576  1.6522 -0.5233
 2238TIP3   OH2 6677   7.155   3.549   4.338  0.7771 -0.3716 -0.6572
 2238TIP3    H1 6678   7.170   3.455   4.339  0.6360 -0.4372 -2.0858
 2238TIP3    H2 6679   7.107   3.567   4.418  0.4936 -1.5659 -0.5425
 2239TIP3   OH2 6680   0.432   1.135   2.323  0.0996  0.0598  0.1070
 2239TIP3    H1 6681   0.464   1.199   2.259 -0.1529  1.2997  1.1646
 2239TIP3    H2 6682   0.483   1.056   2.306  0.1197  0.3807 -1.5272
 2240TIP3   OH2 6683   5.927   4.401   3.571  0.5762 -0.0459  0.1843
 2240TIP3    H1 6684   5.942   4.486   3.612 -1.4947  0.9323 -0.9490
 2240TIP3    H2 6685   5.854   4.364   3.620  0.4855 -0.4986 -0.2931
 2241TIP3   OH2 6686   0.621   3.953   3.781 -0.0964 -0.0494 -0.2052
 2241TIP3    H1 6687   0.635   3.869   3.824  2.0506  0.3891  0.0479
 2241TIP3    H2 6688   0.580   4.007   3.849 -0.5513 -0.5765 -0.0496
 2242TIP3   OH2 6689   5.057   3.332   3.675  0.5206  0.0470 -0.4834
 2242TIP3    H1 6690   5.115   3.335   3.751  3.8244  1.1193 -2.8302
 2242TIP3    H2 6691   5.065   3.242   3.644 -0.2773 -0.1990 -0.0035
 2243TIP3   OH2 6692   0.518   2.656   2.904 -0.0834  0.0836  0.3710
 2243TIP3    H1 6693   0.535   2.746   2.933  1.4521 -0.3073  0.7558
 2243TIP3    H2 6694   0.475   2.615   2.979  1.4227 -0.1628  1.1344
 2244TIP3   OH2 6695   4.125   6.155   5.638 -0.3048  0.2082  0.3465
 2244TIP3    H1 6696   4.104   6.088   5.573 -1.7079 -1.1776  2.1439
 2244TIP3    H2 6697   4.122   6.110   5.722  1.0350  2.0354  1.4685
 2245TIP3   OH2 6698   4.498   4.734   2.003 -0.0686 -0.2356 -0.2136
 2245TIP3    H1 6699   4.432   4.690   1.950 -0.3310  0.2722 -0.3106
 2245TIP3    H2 6700   4.533   4.803   1.947 -0.7560  0.6765  0.4484
 2246TIP3   OH2 6701   5.076   0.514   3.911 -0.0825 -0.4874  0.3328
 2246TIP3    H1 6702   5.057   0.518   4.005 -2.0237  2.8580 -0.0090
 2246TIP3    H2 6703   5.164   0.552   3.903 -0.4076  0.3808  0.7417
 2247TIP3   OH2 6704   2.373   2.757   4.841 -0.1185  0.2651 -0.5523
 2247TIP3    H1 6705   2.401   2.808   4.917 -1.7312 -1.1677  1.0840
 2247TIP3    H2 6706   2.293   2.714   4.869  0.5594 -2.2962 -2.1960
 2248TIP3   OH2 6707   3.822   6.551   0.138 -0.2281 -0.6009 -0.2212
 2248TIP3    H1 6708   3.862   6.614   0.078 -0.5451 -0.5409 -0.3730
 2248TIP3    H2 6709   3.851   6.578   0.225 -0.3383 -0.2670 -0.2896
 2249TIP3   OH2 6710   5.480   2.859   4.271  0.3532  0.3720 -0.0590
 2249TIP3    H1 6711   5.454   2.825   4.357  2.9962 -0.1980  0.6152
 2249TIP3    H2 6712   5.479   2.783   4.213 -1.1811  0.7088 -0.5245
 2250TIP3   OH2 6713   1.895   0.302   2.489 -0.0455  0.4848  0.0468
 2250TIP3    H1 6714   1.914   0.218   2.448 -0.5337  0.1640  0.4690
 2250TIP3    H2 6715   1.980   0.345   2.496  0.1024  0.3896 -0.9473
 2251TIP3   OH2 6716   5.046   5.790   0.734 -0.0685  0.4630  0.1140
 2251TIP3    H1 6717   5.003   5.840   0.664 -1.4389  1.8543  1.8687
 2251TIP3    H2 6718   5.007   5.703   0.729  0.6262  0.2086 -1.4880
 2252TIP3   OH2 6719   0.490   1.518   0.966  0.4704  0.3756 -0.0583
 2252TIP3    H1 6720   0.526   1.486   1.048 -0.3627  2.8014  1.3387
 2252TIP3    H2 6721   0.567   1.543   0.915  0.9455  0.9053  0.8938
 2253TIP3   OH2 6722   0.372   6.019   1.907 -0.4953  0.1979 -0.1786
 2253TIP3    H1 6723   0.385   5.930   1.875 -2.4932 -0.0669 -0.3551
 2253TIP3    H2 6724   0.335   6.067   1.832 -2.5594  0.2823  0.8157
 2254TIP3   OH2 6725   0.529   4.290   1.837 -0.3186  0.0704  0.3270
 2254TIP3    H1 6726   0.492   4.329   1.916  0.9417  1.2584  0.3663
 2254TIP3    H2 6727   0.579   4.360   1.797  0.6121 -1.0463 -0.5369
 2255TIP3   OH2 6728   6.365   1.219   2.283  0.0331 -0.0963 -0.0561
 2255TIP3    H1 6729   6.297   1.153   2.272  0.6306 -0.3127 -3.7166
 2255TIP3    H2 6730   6.320   1.302   2.272  0.0630 -0.1658 -0.7590
 2256TIP3   OH2 6731   1.747   0.290   2.195  0.0420 -0.7331 -0.5180
 2256TIP3    H1 6732   1.702   0.271   2.278  2.0188 -1.6521  0.4119
 2256TIP3    H2 6733   1.689   0.351   2.150 -0.8523  0.2455  1.7889
 2257TIP3   OH2 6734   0.838   0.038   1.989  0.6825 -0.0408  0.0478
 2257TIP3    H1 6735   0.782   0.099   1.941  0.0620 -1.2696 -0.8515
 2257TIP3    H2 6736   0.777  -0.023   2.031  1.2806  0.0692  1.1289
 2258TIP3   OH2 6737   4.316   3.184   4.330 -0.1372 -0.3862 -0.2001
 2258TIP3    H1 6738   4.401   3.151   4.300  0.1722 -1.6558  1.9037
 2258TIP3    H2 6739   4.305   3.146   4.417 -2.0950  1.1386  0.2784
 2259TIP3   OH2 6740   3.273   5.584   1.935 -0.0849 -0.0246 -0.6581
 2259TIP3    H1 6741   3.311   5.669   1.913  1.3627 -0.6375 -0.6338
 2259TIP3    H2 6742   3.187   5.584   1.891  0.7690  0.6189 -2.4288
 2260TIP3   OH2 6743   0.122   2.326   0.522  0.0522  0.0694  0.2203
 2260TIP3    H1 6744   0.214   2.307   0.503 -0.1606 -0.5260 -0.2462
 2260TIP3    H2 6745   0.118   2.421   0.530  0.4318  0.2480 -1.3155
 2261TIP3   OH2 6746   4.992   3.675   0.079 -0.2880 -0.5839 -1.0049
 2261TIP3    H1 6747   4.948   3.594   0.104 -0.3283 -0.5368 -0.9248
 2261TIP3    H2 6748   4.989   3.730   0.157  1.7299 -1.3532 -0.3147
 2262TIP3   OH2 6749   2.525   6.235   2.699  0.1380  0.6951  0.1536
 2262TIP3    H1 6750   2.551   6.183   2.775  2.6747  0.1676 -0.9763
 2262TIP3    H2 6751   2.591   6.215   2.632 -1.9651  1.1252 -2.2206
 2263TIP3   OH2 6752   4.448   5.952   5.843 -0.1778  0.2744  0.0651
 2263TIP3    H1 6753   4.428   5.929   5.752  1.0587 -1.4024  0.1777
 2263TIP3    H2 6754   4.527   5.901   5.864  0.5436  1.9217  1.5545
 2264TIP3   OH2 6755   7.120   0.803   2.776  0.0743 -0.1408  0.6417
 2264TIP3    H1 6756   7.156   0.747   2.707 -1.6262 -1.0372  0.4396
 2264TIP3    H2 6757   7.183   0.875   2.783  0.1912  0.1226 -2.0189
 2265TIP3   OH2 6758   1.978   4.391   2.128 -0.0036 -0.1924  0.2977
 2265TIP3    H1 6759   2.050   4.328   2.133  2.1489  1.9728 -1.2027
 2265TIP3    H2 6760   2.014   4.471   2.167 -1.1403  1.3080 -1.5765
 2266TIP3   OH2 6761   2.534   1.736   1.123  0.6180  0.5415 -0.2167
 2266TIP3    H1 6762   2.610   1.792   1.137  0.7033  0.2577  0.4683
 2266TIP3    H2 6763   2.568   1.660   1.076  0.7254  0.4969 -0.0668
 2267TIP3   OH2 6764   5.721   3.951   1.362  0.5204  0.2285  0.3622
 2267TIP3    H1 6765   5.788   3.953   1.294 -0.6951  0.3765 -0.8727
 2267TIP3    H2 6766   5.669   3.873   1.342  0.1377  0.2739  1.1288
 2268TIP3   OH2 6767   6.563   3.815   4.073 -0.5505  0.3141 -0.3263
 2268TIP3    H1 6768   6.620   3.890   4.055 -0.3218  0.3701  0.5817
 2268TIP3    H2 6769   6.570   3.801   4.167  0.5833 -1.8005 -0.6590
 2269TIP3   OH2 6770   4.735   1.651   4.683 -0.2733 -0.2769  0.0802
 2269TIP3    H1 6771   4.709   1.743   4.680  3.3470  0.9367  0.8936
 2269TIP3    H2 6772   4.690   1.615   4.759 -1.9219  0.6797 -0.3832
 2270TIP3   OH2 6773   2.947   3.062   1.113  0.3425 -0.5880  0.2177
 2270TIP3    H1 6774   2.925   3.013   1.192  0.8885 -2.3913 -0.7074
 2270TIP3    H2 6775   3.043   3.058   1.107  0.4518  0.9610  0.3156
 2271TIP3   OH2 6776   1.381   5.420   0.199  0.9604 -0.6280 -0.2719
 2271TIP3    H1 6777   1.432   5.351   0.156  1.7230  0.3644 -0.9996
 2271TIP3    H2 6778   1.438   5.451   0.270  1.2958  0.3010 -0.9209
 2272TIP3   OH2 6779   1.624   5.480   5.691 -0.0590 -0.0943 -0.1074
 2272TIP3    H1 6780   1.672   5.431   5.757  1.7197 -0.1574 -1.3907
 2272TIP3    H2 6781   1.550   5.424   5.668  0.8396 -1.2914 -0.1270
 2273TIP3   OH2 6782   6.821   6.312   1.412 -0.3800 -0.0874  0.4391
 2273TIP3    H1 6783   6.823   6.266   1.329  1.2466 -1.9771  1.4329
 2273TIP3    H2 6784   6.907   6.353   1.420 -1.0296  1.3294  0.5780
 2274TIP3   OH2 6785   5.803   1.597   1.415 -0.2365  0.5864  0.1731
 2274TIP3    H1 6786   5.745   1.588   1.339 -0.2386  0.4359  0.1928
 2274TIP3    H2 6787   5.745   1.596   1.490 -0.0599 -1.9942  0.3627
 2275TIP3   OH2 6788   5.941   4.923   5.593 -0.2425 -0.3169 -0.2067
 2275TIP3    H1 6789   5.961   4.928   5.499 -1.4327 -0.9273 -0.5163
 2275TIP3    H2 6790   5.905   5.009   5.614 -1.4008 -0.6575 -0.6889
 2276TIP3   OH2 6791   3.124   2.818   4.603 -0.0847  0.4204 -0.0735
 2276TIP3    H1 6792   3.214   2.797   4.580  0.0611 -0.8308  1.4824
 2276TIP3    H2 6793   3.071   2.765   4.543  0.2483 -0.3118  0.2648
 2277TIP3   OH2 6794   3.188   0.914   0.530 -0.0362 -0.3791 -0.0011
 2277TIP3    H1 6795   3.181   0.846   0.462 -0.8830 -0.8947  0.5811
 2277TIP3    H2 6796   3.214   0.866   0.608  1.8217  0.3368 -0.1296
 2278TIP3   OH2 6797   6.147   4.035   2.340  0.2352  0.6761  0.2081
 2278TIP3    H1 6798   6.171   3.943   2.357  0.7480  0.6491 -0.6200
 2278TIP3    H2 6799   6.174   4.050   2.250 -1.0797  1.2485 -0.1075
 2279TIP3   OH2 6800   4.136   2.296   3.762  0.4159 -0.1871  0.0658
 2279TIP3    H1 6801   4.164   2.328   3.676  0.1133 -0.1981 -0.0356
 2279TIP3    H2 6802   4.041   2.297   3.759  0.4000  0.5318  0.6744
 2280TIP3   OH2 6803   6.601   3.776   5.689  0.6044 -0.2129 -0.2674
 2280TIP3    H1 6804   6.624   3.687   5.663  0.5811 -0.3141  0.0532
 2280TIP3    H2 6805   6.534   3.765   5.756 -1.1225  0.0883 -1.8533
 2281TIP3   OH2 6806   6.202   1.855   5.636 -0.3708  0.1479  0.5016
 2281TIP3    H1 6807   6.262   1.786   5.611 -1.2436 -0.7542  0.8255
 2281TIP3    H2 6808   6.121   1.834   5.590 -0.4109  1.4369 -0.0678
 2282TIP3   OH2 6809   7.171   2.073   0.409 -0.3995 -0.5922 -0.0312
 2282TIP3    H1 6810   7.251   2.118   0.440 -1.1488  1.3622 -0.7571
 2282TIP3    H2 6811   7.196   1.981   0.406  1.2352 -0.2876  1.5994
 2283TIP3   OH2 6812   4.958   2.662   2.680 -0.2243  0.0509  0.0466
 2283TIP3    H1 6813   5.030   2.720   2.658 -1.0855  0.6467 -1.3313
 2283TIP3    H2 6814   4.991   2.574   2.660  0.3807  0.2562  0.1478
 2284TIP3   OH2 6815   5.793   2.989   5.773 -0.0266  0.8018  0.4317
 2284TIP3    H1 6816   5.843   2.983   5.692  1.8716 -0.2014  1.6031
 2284TIP3    H2 6817   5.842   2.935   5.835 -2.0753  0.5488  1.9288
 2285TIP3   OH2 6818   2.091   6.167   2.171 -0.3804 -0.3579 -0.0378
 2285TIP3    H1 6819   2.175   6.208   2.148 -0.2035 -0.9209 -0.4464
 2285TIP3    H2 6820   2.026   6.235   2.157  0.0850  0.3164  1.0084
 2286TIP3   OH2 6821   6.693   1.660   5.451  0.0007 -0.5421 -0.1258
 2286TIP3    H1 6822   6.781   1.658   5.489  0.3060  2.5034 -0.3995
 2286TIP3    H2 6823   6.706   1.632   5.361  0.9008  0.7058 -0.4148
 2287TIP3   OH2 6824   6.902   6.601   2.005  0.2512 -0.3733  0.1818
 2287TIP3    H1 6825   6.835   6.639   1.948 -1.5957  0.5802  2.8051
 2287TIP3    H2 6826   6.938   6.528   1.954 -1.1149  0.5245 -2.2439
 2288TIP3   OH2 6827   2.158   1.188   0.991 -0.6346 -0.2396 -0.5160
 2288TIP3    H1 6828   2.229   1.232   0.944 -0.0689 -0.8518 -0.2662
 2288TIP3    H2 6829   2.089   1.253   0.998  0.8147  1.2325  1.3412
 2289TIP3   OH2 6830   3.673   3.400   3.256 -0.9020  0.4526  0.2238
 2289TIP3    H1 6831   3.696   3.431   3.168 -1.7998  2.4598  0.6476
 2289TIP3    H2 6832   3.756   3.368   3.292 -0.4810 -0.2316 -1.2697
 2290TIP3   OH2 6833   2.361   5.060   1.465  0.1771 -0.4180  0.5638
 2290TIP3    H1 6834   2.415   5.057   1.386 -0.9965  0.5922 -0.3136
 2290TIP3    H2 6835   2.400   5.130   1.517  0.5947 -0.6803  0.6058
 2291TIP3   OH2 6836   0.479   1.239   3.686  0.3914 -0.0503  0.8733
 2291TIP3    H1 6837   0.491   1.325   3.726 -1.7712  0.5983  0.2429
 2291TIP3    H2 6838   0.560   1.225   3.635  0.2722  2.2064 -0.0556
 2292TIP3   OH2 6839   4.148   1.992   1.596 -0.7669  0.4582  0.1423
 2292TIP3    H1 6840   4.229   2.019   1.554  0.0113 -0.2004  1.1717
 2292TIP3    H2 6841   4.102   1.940   1.529  1.6766 -2.8998  0.7921
 2293TIP3   OH2 6842   4.511   0.139   4.376 -0.2569 -0.0097  0.3640
 2293TIP3    H1 6843   4.572   0.096   4.316  0.2518 -0.8894  1.4844
 2293TIP3    H2 6844   4.554   0.222   4.398 -0.7966  0.6917 -1.0358
 2294TIP3   OH2 6845   0.621   5.436   1.222  0.9326 -0.6402  0.2475
 2294TIP3    H1 6846   0.617   5.405   1.312 -2.3827 -0.2499  0.3329
 2294TIP3    H2 6847   0.592   5.361   1.169 -2.6924  0.6807  0.0915
 2295TIP3   OH2 6848   4.001   5.571   2.795  0.3666  0.2289 -0.0114
 2295TIP3    H1 6849   4.004   5.667   2.802 -0.5318  0.1926  1.0813
 2295TIP3    H2 6850   4.038   5.553   2.708  2.3783  1.4268  0.5295
 2296TIP3   OH2 6851   5.089   5.424   4.978 -0.2608 -0.2681  0.1990
 2296TIP3    H1 6852   5.069   5.485   5.049  1.2036  0.2511  0.2008
 2296TIP3    H2 6853   5.152   5.471   4.923 -0.3285 -1.1779 -0.6934
 2297TIP3   OH2 6854   6.999   4.381   2.438  0.1224  0.4352  0.2122
 2297TIP3    H1 6855   7.017   4.288   2.445 -1.1018  0.1714  0.1564
 2297TIP3    H2 6856   6.944   4.389   2.361  1.4274  1.4175 -0.6621
 2298TIP3   OH2 6857   6.297   0.613   5.326  0.4926  0.0555 -0.5949
 2298TIP3    H1 6858   6.387   0.603   5.357  0.8089  1.5537 -0.9608
 2298TIP3    H2 6859   6.300   0.690   5.269 -1.5062  1.6907  1.3376
 2299TIP3   OH2 6860   0.880   2.255   2.437 -0.7264 -0.5509 -0.1870
 2299TIP3    H1 6861   0.916   2.253   2.525  1.0009 -0.9615 -0.8633
 2299TIP3    H2 6862   0.957   2.251   2.379 -1.7665  0.4225 -1.7100
 2300TIP3   OH2 6863   1.208   4.951   4.824 -1.0249 -0.4367 -0.3858
 2300TIP3    H1 6864   1.215   4.975   4.732 -0.4231 -1.0162 -0.5000
 2300TIP3    H2 6865   1.155   5.021   4.863 -0.8681  0.0764 -1.0657
 2301TIP3   OH2 6866   4.535   3.050   2.759 -0.2487 -1.0788  0.4204
 2301TIP3    H1 6867   4.587   2.982   2.800 -1.2715 -1.1372  1.6994
 2301TIP3    H2 6868   4.532   3.121   2.824 -1.7048 -1.0656  0.3769
 2302TIP3   OH2 6869   5.749   6.348   2.095  0.4027  0.4119  0.6975
 2302TIP3    H1 6870   5.752   6.273   2.037  0.9446  1.0000 -0.0485
 2302TIP3    H2 6871   5.782   6.421   2.043 -0.7365  1.3163  1.1891
 2303TIP3   OH2 6872   3.137   1.191   0.875  0.1770  0.1041 -0.2039
 2303TIP3    H1 6873   3.168   1.103   0.894 -0.6086 -0.2147 -0.3448
 2303TIP3    H2 6874   3.166   1.208   0.785  0.9340  0.2696  0.0676
 2304TIP3   OH2 6875   3.962   6.079   3.130  0.5685 -0.3600 -0.0423
 2304TIP3    H1 6876   4.013   6.157   3.152 -0.3891  0.5796 -1.0111
 2304TIP3    H2 6877   3.900   6.071   3.202 -0.2188  0.5988 -0.5861
 2305TIP3   OH2 6878   3.889   0.607   5.639  0.0861  0.2240 -0.1176
 2305TIP3    H1 6879   3.855   0.517   5.643 -0.4806  0.4847  1.4840
 2305TIP3    H2 6880   3.871   0.635   5.549 -0.2119 -1.0807 -0.4826
 2306TIP3   OH2 6881   3.672   1.227   0.190 -0.2864 -0.6689 -0.4989
 2306TIP3    H1 6882   3.643   1.307   0.146 -1.4631 -1.4173 -1.1466
 2306TIP3    H2 6883   3.736   1.189   0.130 -0.4965 -0.7268 -0.6914
 2307TIP3   OH2 6884   3.883   5.124   2.956 -0.2212  0.0083 -0.6712
 2307TIP3    H1 6885   3.807   5.103   2.901  0.2396  0.2146 -1.4005
 2307TIP3    H2 6886   3.884   5.220   2.959  0.7885  0.0483 -1.7885
 2308TIP3   OH2 6887   4.216   4.470   0.029 -0.3347 -0.3026 -0.1447
 2308TIP3    H1 6888   4.312   4.465   0.032 -0.2840 -1.1390 -1.7489
 2308TIP3    H2 6889   4.197   4.500  -0.060 -1.5892 -3.8619 -1.2617
 2309TIP3   OH2 6890   5.376   4.050   1.334  0.3077 -0.4420 -0.5409
 2309TIP3    H1 6891   5.414   4.007   1.410 -0.2576 -0.8357 -0.4740
 2309TIP3    H2 6892   5.285   4.064   1.358  0.7229  1.8844 -0.0826
 2310TIP3   OH2 6893   4.225   0.938   3.504 -0.4178 -0.6116 -0.4245
 2310TIP3    H1 6894   4.167   0.992   3.450 -1.6636 -0.1884  1.2598
 2310TIP3    H2 6895   4.273   1.001   3.558  0.9511 -1.0190 -1.0990
 2311TIP3   OH2 6896   5.429   3.826   4.581  0.4455 -0.2186  0.7476
 2311TIP3    H1 6897   5.424   3.882   4.658  0.7619  1.0077 -0.1022
 2311TIP3    H2 6898   5.522   3.825   4.557  0.0942  1.1403 -0.8337
 2312TIP3   OH2 6899   2.035   4.397   0.244  0.0166 -0.3098 -0.1834
 2312TIP3    H1 6900   1.940   4.403   0.253  0.0768 -1.4548  2.0770
 2312TIP3    H2 6901   2.048   4.328   0.179 -0.6946 -0.0736 -0.5871
 2313TIP3   OH2 6902   0.832   2.421   1.321  0.6331 -0.1115 -0.0108
 2313TIP3    H1 6903   0.743   2.429   1.289  0.2957  0.0771  0.9371
 2313TIP3    H2 6904   0.887   2.433   1.244 -0.1519 -0.0699 -0.5710
 2314TIP3   OH2 6905   6.126   4.261   0.607 -0.7219  0.0695  0.1791
 2314TIP3    H1 6906   6.119   4.195   0.676 -1.2722  0.2629  0.3132
 2314TIP3    H2 6907   6.067   4.331   0.635 -1.0325  0.1015 -0.5296
 2315TIP3   OH2 6908   3.867   1.712   5.160  0.0850 -0.3553 -0.5471
 2315TIP3    H1 6909   3.836   1.753   5.241 -0.2373 -1.5208 -0.0585
 2315TIP3    H2 6910   3.951   1.755   5.143  0.1998 -0.1499  0.4571
 2316TIP3   OH2 6911   6.577   4.658   0.237 -0.4238  0.2104 -0.4396
 2316TIP3    H1 6912   6.530   4.576   0.226  2.6181 -1.5394 -1.3365
 2316TIP3    H2 6913   6.589   4.667   0.331 -0.4141 -0.5942 -0.3605
 2317TIP3   OH2 6914   6.881   4.967   2.549  0.2906  0.4367  0.5166
 2317TIP3    H1 6915   6.949   4.968   2.617  0.1799  2.7091  0.6480
 2317TIP3    H2 6916   6.804   5.005   2.591 -1.1297 -1.9540  0.3263
 2318TIP3   OH2 6917   0.173   2.834   3.712  0.2355  0.1139 -0.2827
 2318TIP3    H1 6918   0.172   2.929   3.716 -2.2232  0.1153  1.2990
 2318TIP3    H2 6919   0.102   2.807   3.770  0.2660 -2.6597 -1.3807
 2319TIP3   OH2 6920   2.174   6.179   0.557  0.0068 -0.1495 -0.5257
 2319TIP3    H1 6921   2.223   6.114   0.508  0.9924  0.9081 -0.9936
 2319TIP3    H2 6922   2.094   6.134   0.583  1.6740 -2.3036  1.2449
 2320TIP3   OH2 6923   3.058   3.498   0.922 -0.3297 -0.6228  0.1535
 2320TIP3    H1 6924   3.049   3.525   1.013 -1.2303  0.9186 -0.3618
 2320TIP3    H2 6925   3.002   3.421   0.914  0.9611 -1.7239  1.2434
 2321TIP3   OH2 6926   3.896   1.217   2.685 -0.8110  0.1672  0.4520
 2321TIP3    H1 6927   3.802   1.218   2.703 -1.2424  2.2613 -1.3846
 2321TIP3    H2 6928   3.925   1.307   2.701  0.1294  0.4228 -2.1490
 2322TIP3   OH2 6929   2.280   3.463   4.180  0.4124 -0.3770  0.4786
 2322TIP3    H1 6930   2.270   3.450   4.274  1.8086  1.0477  0.8602
 2322TIP3    H2 6931   2.341   3.536   4.172  0.8503 -0.9031 -1.5501
 2323TIP3   OH2 6932   3.827   3.908   4.385  0.0614 -0.4205  0.2868
 2323TIP3    H1 6933   3.882   3.922   4.308 -0.5146 -1.0008 -0.2467
 2323TIP3    H2 6934   3.789   3.994   4.404  1.1526 -0.0047  0.6811
 2324TIP3   OH2 6935   4.009   4.173   3.263 -0.0954  0.1157 -0.3605
 2324TIP3    H1 6936   4.098   4.206   3.251 -0.4023  0.6372 -1.2989
 2324TIP3    H2 6937   3.964   4.194   3.182 -0.1705 -3.2306 -1.3260
 2325TIP3   OH2 6938   5.417   0.307   0.261  0.3513  0.3451 -0.1102
 2325TIP3    H1 6939   5.487   0.371   0.270  2.1640 -1.3192 -1.4863
 2325TIP3    H2 6940   5.455   0.237   0.207 -1.1928 -2.3564  2.0486
 2326TIP3   OH2 6941   2.392   3.005   2.157 -0.1288 -0.6224 -0.3448
 2326TIP3    H1 6942   2.400   2.921   2.112  1.1100 -0.9743  0.4782
 2326TIP3    H2 6943   2.342   2.984   2.237 -2.1405 -0.0407 -1.3667
 2327TIP3   OH2 6944   5.087   2.400   3.827  0.1759  0.2294  0.4170
 2327TIP3    H1 6945   5.030   2.452   3.771  0.7890  0.4288 -0.0334
 2327TIP3    H2 6946   5.028   2.361   3.892 -0.4470  0.5315  0.0410
 2328TIP3   OH2 6947   5.468   4.651   0.276  0.2366  0.1371 -0.1594
 2328TIP3    H1 6948   5.456   4.558   0.254  0.4970  0.3987 -1.4979
 2328TIP3    H2 6949   5.559   4.657   0.304  0.4875  0.1307 -0.9437
 2329TIP3   OH2 6950   4.692   5.475   4.368 -0.1872 -0.1308  0.9019
 2329TIP3    H1 6951   4.639   5.431   4.302 -0.1770 -1.4647  1.7472
 2329TIP3    H2 6952   4.701   5.565   4.336 -1.6588 -0.2798 -0.0273
 2330TIP3   OH2 6953   6.739   2.654   0.348  0.3518 -0.0453  0.1280
 2330TIP3    H1 6954   6.823   2.686   0.314  0.5052  0.0234  0.5668
 2330TIP3    H2 6955   6.749   2.658   0.443  1.3048 -3.6770  0.3227
 2331TIP3   OH2 6956   4.823   0.885   5.867  0.0434  0.4949 -0.1680
 2331TIP3    H1 6957   4.736   0.906   5.832  0.1373  0.1603 -0.6171
 2331TIP3    H2 6958   4.881   0.948   5.824 -0.0355  1.0318  0.4924
 2332TIP3   OH2 6959   3.264   6.571   4.122 -0.0804  0.2043  0.1125
 2332TIP3    H1 6960   3.173   6.600   4.132 -0.7373 -1.2774 -1.0946
 2332TIP3    H2 6961   3.280   6.573   4.028  0.3556 -1.6639  0.0993
 2333TIP3   OH2 6962   0.113   2.765   1.148 -0.2027 -0.7824  0.0646
 2333TIP3    H1 6963   0.135   2.732   1.061 -2.0514 -0.6428 -0.5136
 2333TIP3    H2 6964   0.019   2.786   1.142 -0.3984 -0.8892  2.1366
 2334TIP3   OH2 6965   2.268   2.768   0.780  0.5070 -0.5799 -0.3299
 2334TIP3    H1 6966   2.211   2.843   0.762  1.4327  0.0467 -0.7356
 2334TIP3    H2 6967   2.298   2.740   0.694 -0.0020 -1.5853 -0.2042
 2335TIP3   OH2 6968   3.947   3.306   0.238  0.7284 -0.1384 -0.2309
 2335TIP3    H1 6969   3.999   3.232   0.207  0.8465 -0.3548  0.4653
 2335TIP3    H2 6970   3.870   3.266   0.278  0.2269  0.1645 -0.8722
 2336TIP3   OH2 6971   2.283   1.257   2.561 -0.4543  0.2940 -0.0373
 2336TIP3    H1 6972   2.208   1.198   2.551 -0.0055 -0.3656  0.3932
 2336TIP3    H2 6973   2.244   1.344   2.562 -1.2140 -0.0352  0.1036
 2337TIP3   OH2 6974   3.086   5.218   4.171 -0.1776  0.0401 -0.2119
 2337TIP3    H1 6975   3.169   5.172   4.156  0.4177  0.6856  0.8999
 2337TIP3    H2 6976   3.072   5.270   4.092  0.8100  0.3941 -0.1680
 2338TIP3   OH2 6977   2.820   5.061   4.699  0.0840  0.0015 -0.1645
 2338TIP3    H1 6978   2.776   5.074   4.783  0.4625  0.2343  0.0061
 2338TIP3    H2 6979   2.901   5.015   4.722  0.3829  0.4281 -0.3461
 2339TIP3   OH2 6980   4.393   3.584   3.936  0.1770 -0.7913 -0.6783
 2339TIP3    H1 6981   4.344   3.618   4.011  2.5550  0.6179  0.3222
 2339TIP3    H2 6982   4.351   3.499   3.918 -0.7702 -0.9924  1.9476
 2340TIP3   OH2 6983   4.241   3.986   2.378  0.5780  0.5337  0.8519
 2340TIP3    H1 6984   4.315   4.026   2.332  0.2782 -1.4648 -1.5656
 2340TIP3    H2 6985   4.165   4.036   2.347  0.4347 -0.4904 -0.5547
 2341TIP3   OH2 6986   3.516   1.845   4.843  0.2292  0.1654  0.0579
 2341TIP3    H1 6987   3.448   1.838   4.775 -0.4042  0.3281  0.6635
 2341TIP3    H2 6988   3.596   1.816   4.800 -0.4779 -1.3483 -0.2740
 2342TIP3   OH2 6989   0.216   2.627   1.688 -0.2571  0.2743  0.0177
 2342TIP3    H1 6990   0.130   2.657   1.719 -1.7720 -2.8416 -0.7818
 2342TIP3    H2 6991   0.207   2.625   1.592  1.5870  2.0854 -0.2683
 2343TIP3   OH2 6992   6.478   5.304   2.863  0.2029 -0.5658 -0.3008
 2343TIP3    H1 6993   6.496   5.215   2.835  0.7343 -0.9110  1.0974
 2343TIP3    H2 6994   6.424   5.295   2.941 -0.1167  0.3413 -0.4063
 2344TIP3   OH2 6995   2.770   1.210   1.131 -0.0642 -0.1400  0.4259
 2344TIP3    H1 6996   2.839   1.165   1.179  0.0403 -0.6112 -0.1565
 2344TIP3    H2 6997   2.802   1.217   1.041 -0.3383  0.5611  0.3727
 2345TIP3   OH2 6998   3.950   4.605   2.416  0.5346 -0.4978  1.0767
 2345TIP3    H1 6999   3.901   4.559   2.347  0.7003 -0.1888  0.7490
 2345TIP3    H2 7000   3.883   4.656   2.462  0.6883  0.8573 -0.1206
 2346TIP3   OH2 7001   4.905   3.127   5.051 -0.3208  0.1472 -0.2874
 2346TIP3    H1 7002   4.842   3.057   5.033 -0.6563  0.2297  0.5175
 2346TIP3    H2 7003   4.894   3.145   5.144  0.4433  0.6128 -0.2829
 2347TIP3   OH2 7004   4.084   1.059   2.060  0.6578  0.2317 -0.2535
 2347TIP3    H1 7005   4.044   1.129   2.112  0.8303 -0.3246  0.6621
 2347TIP3    H2 7006   4.064   1.081   1.969 -1.0147  0.4065  0.1255
 2348TIP3   OH2 7007   1.935   2.304   2.802  0.4903 -0.1139  0.3997
 2348TIP3    H1 7008   1.944   2.381   2.746  1.3970 -0.7883 -0.4199
 2348TIP3    H2 7009   2.023   2.291   2.838  0.7818 -1.7328 -0.8076
 2349TIP3   OH2 7010   4.614   2.172   1.731  0.8976  0.2500 -0.1240
 2349TIP3    H1 7011   4.659   2.098   1.690  0.4519 -0.3960  0.5216
 2349TIP3    H2 7012   4.607   2.238   1.662 -0.6220 -1.1276 -1.3669
 2350TIP3   OH2 7013   2.287   4.788   1.625  0.2155  0.0507 -0.4056
 2350TIP3    H1 7014   2.226   4.860   1.643 -0.5952 -0.7227  0.0567
 2350TIP3    H2 7015   2.232   4.720   1.584  0.8471 -0.5097 -0.3465
 2351TIP3   OH2 7016   0.875   1.768   5.619  0.0316 -0.0438 -0.3991
 2351TIP3    H1 7017   0.821   1.754   5.541 -0.1915 -0.6342 -0.1393
 2351TIP3    H2 7018   0.965   1.771   5.586 -0.0043 -0.9516 -0.6038
 2352TIP3   OH2 7019   3.470   1.324   2.022  0.3287 -0.1446 -0.1566
 2352TIP3    H1 7020   3.432   1.340   1.935  1.1957  0.3782 -0.4521
 2352TIP3    H2 7021   3.504   1.410   2.049 -1.0443  0.0038  1.2620
 2353TIP3   OH2 7022   1.950   4.560   4.010 -0.2169 -0.1796 -0.2844
 2353TIP3    H1 7023   2.031   4.597   4.046 -0.4421 -0.0205  0.0619
 2353TIP3    H2 7024   1.952   4.584   3.918  0.6344 -1.0491 -0.5113
 2354TIP3   OH2 7025   1.691   4.678   4.586 -0.1141 -0.1173  0.0932
 2354TIP3    H1 7026   1.648   4.606   4.631  0.7839 -0.0438  1.0877
 2354TIP3    H2 7027   1.651   4.757   4.623  1.6759  0.0026  1.9646
 2355TIP3   OH2 7028   1.911   5.476   2.719  0.8449  0.0901 -0.3361
 2355TIP3    H1 7029   1.853   5.552   2.723 -0.2362 -0.6219 -1.5109
 2355TIP3    H2 7030   1.995   5.511   2.690  0.5174  0.9243 -0.2893
 2356TIP3   OH2 7031   4.797   1.719   1.895  0.7485 -0.1405  0.4169
 2356TIP3    H1 7032   4.733   1.652   1.873  0.8119 -0.4303  1.1077
 2356TIP3    H2 7033   4.754   1.774   1.961  0.7959  0.3387  0.0560
 2357TIP3   OH2 7034   3.344   3.375   4.834  0.1699  0.1398  0.5424
 2357TIP3    H1 7035   3.316   3.368   4.926  1.7552 -0.8069  0.9893
 2357TIP3    H2 7036   3.374   3.465   4.825  0.6874  0.0369  1.1696
 2358TIP3   OH2 7037   5.022   3.617   5.011 -0.1979  0.1144  0.1475
 2358TIP3    H1 7038   5.037   3.639   4.919  0.2962  1.7943  0.5927
 2358TIP3    H2 7039   4.954   3.679   5.040  0.0519 -0.0193  1.0595
 2359TIP3   OH2 7040   0.628   0.098   5.115 -0.6304  0.2259  0.0757
 2359TIP3    H1 7041   0.573   0.145   5.177 -0.3181  0.5579  0.1048
 2359TIP3    H2 7042   0.718   0.111   5.146 -0.5750 -0.9217  0.4435
 2360TIP3   OH2 7043   5.001   1.754   4.675  0.7419  0.3590 -0.0016
 2360TIP3    H1 7044   5.023   1.662   4.665 -0.2931 -0.1627  2.0743
 2360TIP3    H2 7045   4.910   1.754   4.704  0.6249  2.0599 -0.2572
 2361TIP3   OH2 7046   1.128   4.612   1.080  0.1662  0.2215  0.5260
 2361TIP3    H1 7047   1.100   4.684   1.025 -2.6119 -1.9087 -1.0722
 2361TIP3    H2 7048   1.180   4.556   1.022  0.9391  0.0894  1.3165
 2362TIP3   OH2 7049   3.764   0.895   3.838  0.0001 -0.2143 -0.5090
 2362TIP3    H1 7050   3.700   0.864   3.774 -0.4820  1.8851 -1.1275
 2362TIP3    H2 7051   3.841   0.919   3.786  0.4219 -0.5283 -0.0379
 2363TIP3   OH2 7052   4.469   3.603   5.423 -0.0208 -0.3142 -0.4389
 2363TIP3    H1 7053   4.393   3.661   5.418  0.7195  0.6770 -0.7628
 2363TIP3    H2 7054   4.521   3.638   5.495  0.1620 -0.9322 -0.2653
 2364TIP3   OH2 7055   2.288   1.789   4.783 -0.0239 -0.0693  0.4582
 2364TIP3    H1 7056   2.256   1.731   4.714  0.1776  0.6108 -0.2210
 2364TIP3    H2 7057   2.378   1.760   4.799 -0.6358 -1.3843  1.7180
 2365TIP3   OH2 7058   0.907   2.422   2.939  0.1438  0.3138  0.3828
 2365TIP3    H1 7059   0.822   2.445   2.901  0.3519 -0.2233 -0.4336
 2365TIP3    H2 7060   0.945   2.506   2.966  0.0435  0.7297 -0.7220
 2366TIP3   OH2 7061   4.204   2.800   5.636  0.5505 -0.0092 -0.0154
 2366TIP3    H1 7062   4.193   2.708   5.657 -0.6913 -0.0195 -0.6361
 2366TIP3    H2 7063   4.259   2.834   5.707 -0.7998 -0.7356  1.4420
 2367TIP3   OH2 7064   6.007   6.317   4.948 -0.5128 -0.0323  0.2062
 2367TIP3    H1 7065   6.072   6.252   4.975 -0.5057  0.4896  1.5013
 2367TIP3    H2 7066   5.923   6.273   4.958 -0.4083 -0.6082 -1.1882
 2368TIP3   OH2 7067   3.290   1.324   3.412 -0.3844  0.6361  0.3709
 2368TIP3    H1 7068   3.347   1.401   3.420  0.4777 -0.0532  1.1463
 2368TIP3    H2 7069   3.241   1.322   3.494 -3.5941  2.7284 -1.2934
 2369TIP3   OH2 7070   0.350   4.502   0.307 -0.3161  0.4030  0.6706
 2369TIP3    H1 7071   0.287   4.558   0.262 -1.7595 -0.2884  1.7216
 2369TIP3    H2 7072   0.339   4.416   0.267 -0.1572  0.2409  0.9661
 2370TIP3   OH2 7073   4.173   3.460   2.171  0.3339 -0.6002  0.3668
 2370TIP3    H1 7074   4.119   3.417   2.238 -0.5804  1.4108  0.9930
 2370TIP3    H2 7075   4.183   3.550   2.202  0.9691  0.0460 -1.5718
 2371TIP3   OH2 7076   6.524   2.619   2.880  0.1811 -0.4733  0.2152
 2371TIP3    H1 7077   6.603   2.649   2.835  0.6045 -1.6429  0.1445
 2371TIP3    H2 7078   6.543   2.529   2.905 -0.9103 -0.5794  0.7383
 2372TIP3   OH2 7079   0.673   1.237   3.160 -0.0738 -0.0269  0.1969
 2372TIP3    H1 7080   0.725   1.276   3.090  0.8910 -0.2741  0.7644
 2372TIP3    H2 7081   0.635   1.311   3.206  1.7464  0.3038  1.2658
 2373TIP3   OH2 7082   5.378   1.914   1.154 -0.4647  0.3519  0.2667
 2373TIP3    H1 7083   5.337   1.999   1.168  0.9550  0.9135  1.1725
 2373TIP3    H2 7084   5.339   1.882   1.072  1.3957  3.4088 -2.0438
 2374TIP3   OH2 7085   5.744   2.714   5.540 -0.0469 -0.0659 -0.0506
 2374TIP3    H1 7086   5.743   2.619   5.535  0.6315 -0.0519 -0.7139
 2374TIP3    H2 7087   5.712   2.743   5.454 -0.0241  0.2945  0.0584
 2375TIP3   OH2 7088   2.744   6.066   0.062 -0.1309  0.2234  0.0142
 2375TIP3    H1 7089   2.723   6.133   0.126 -2.4132 -1.1204  0.7897
 2375TIP3    H2 7090   2.821   6.022   0.098  1.2456  2.1843 -0.3951
 2376TIP3   OH2 7091   6.922   4.852   0.512  0.2323 -0.4729  0.1128
 2376TIP3    H1 7092   6.898   4.783   0.574  0.0521 -0.1707  0.3843
 2376TIP3    H2 7093   6.927   4.931   0.565 -1.6092  0.1224 -0.5211
 2377TIP3   OH2 7094   3.038   0.209   0.373 -0.4575  0.3629 -0.2299
 2377TIP3    H1 7095   3.109   0.264   0.339  0.8285 -1.7655 -1.2054
 2377TIP3    H2 7096   2.958   0.251   0.342  0.5082  1.2965 -1.5796
 2378TIP3   OH2 7097   3.551   3.440   0.824  0.0164 -0.7420  0.0385
 2378TIP3    H1 7098   3.589   3.393   0.898 -0.4818 -0.0335  0.7655
 2378TIP3    H2 7099   3.480   3.491   0.862  0.5213  0.5829 -0.7260
 2379TIP3   OH2 7100   5.345   2.369   2.683  0.3921 -0.2202 -0.6221
 2379TIP3    H1 7101   5.341   2.326   2.598 -0.3545  1.1995 -1.3363
 2379TIP3    H2 7102   5.419   2.329   2.727  0.6279 -1.1587 -1.8397
 2380TIP3   OH2 7103   1.068   6.153   0.593 -0.2097  0.6888 -0.1356
 2380TIP3    H1 7104   1.158   6.183   0.608 -0.1509  1.2746 -1.5520
 2380TIP3    H2 7105   1.016   6.198   0.660  0.7475 -1.0522  1.9177
 2381TIP3   OH2 7106   1.623   1.600   0.721  0.3001  0.0596  0.3501
 2381TIP3    H1 7107   1.596   1.684   0.758  2.5530 -0.2694  3.0571
 2381TIP3    H2 7108   1.558   1.538   0.754 -1.4659  0.6258 -1.7892
 2382TIP3   OH2 7109   5.453   2.711   4.517  0.2849  0.6431  0.0769
 2382TIP3    H1 7110   5.542   2.745   4.520  0.6543 -0.3368  0.9974
 2382TIP3    H2 7111   5.447   2.653   4.593 -0.1273 -1.7483 -1.6536
 2383TIP3   OH2 7112   3.717   0.699   0.446 -0.5264  0.1482  0.0842
 2383TIP3    H1 7113   3.642   0.673   0.499 -0.8594 -0.7138 -0.7751
 2383TIP3    H2 7114   3.685   0.770   0.391 -0.4377  0.4323  0.3996
 2384TIP3   OH2 7115   1.146   1.592   5.825 -0.1918 -0.3055  0.4048
 2384TIP3    H1 7116   1.110   1.672   5.787  0.2613  0.0695  0.7488
 2384TIP3    H2 7117   1.232   1.618   5.858 -0.1552 -0.8685  0.7683
 2385TIP3   OH2 7118   5.331   6.292   4.347 -0.4416  0.6560  0.4987
 2385TIP3    H1 7119   5.326   6.270   4.254 -0.5883 -0.7418  0.8062
 2385TIP3    H2 7120   5.246   6.332   4.367 -1.3050 -1.0833  0.4913
 2386TIP3   OH2 7121   6.503   1.817   3.855  0.2090  0.1483  0.8016
 2386TIP3    H1 7122   6.527   1.725   3.843 -2.4047 -0.5085 -0.0447
 2386TIP3    H2 7123   6.492   1.851   3.767  1.5405  1.4592  1.0899
 2387TIP3   OH2 7124   5.551   4.220   0.619  0.5492  0.4243 -0.1862
 2387TIP3    H1 7125   5.459   4.191   0.617  0.6187  0.1715 -2.6305
 2387TIP3    H2 7126   5.583   4.191   0.704 -0.6877 -2.6707 -0.6383
 2388TIP3   OH2 7127   0.388   2.627   5.687 -0.2838 -0.6128  0.1452
 2388TIP3    H1 7128   0.474   2.649   5.652 -0.8466  1.9670  0.1889
 2388TIP3    H2 7129   0.394   2.650   5.780 -1.3408  0.7579 -0.0984
 2389TIP3   OH2 7130   5.701   1.205   5.767  0.4409  0.8677 -0.0213
 2389TIP3    H1 7131   5.720   1.285   5.717  1.3946  1.2682  0.9432
 2389TIP3    H2 7132   5.673   1.237   5.853  0.5387  0.1570  0.2791
 2390TIP3   OH2 7133   1.448   2.130   4.876  0.2619 -0.7210  0.1439
 2390TIP3    H1 7134   1.523   2.174   4.915 -0.3271  0.8734 -0.4387
 2390TIP3    H2 7135   1.486   2.063   4.819  1.1754 -1.3011  1.3824
 2391TIP3   OH2 7136   2.046   1.102   2.518  0.6030 -0.4427 -0.0884
 2391TIP3    H1 7137   2.050   1.062   2.430 -0.7106  2.9598 -1.8711
 2391TIP3    H2 7138   1.955   1.095   2.543  0.9120 -1.0815  0.8883
 2392TIP3   OH2 7139   0.829   6.690   3.573 -0.1150  0.3738 -0.7887
 2392TIP3    H1 7140   0.753   6.638   3.597  1.2141 -1.6758 -0.8206
 2392TIP3    H2 7141   0.794   6.760   3.518 -2.2112  0.7069  0.8617
 2393TIP3   OH2 7142   1.600   5.086   0.247 -0.4648  0.5472  0.1852
 2393TIP3    H1 7143   1.609   5.153   0.315  0.4919  0.1000  0.5131
 2393TIP3    H2 7144   1.637   5.127   0.168  2.1062 -0.3040  0.8798
 2394TIP3   OH2 7145   3.833   1.023   1.687  0.4162  0.2032 -0.0436
 2394TIP3    H1 7146   3.925   1.020   1.715  0.3976  0.9979  0.1501
 2394TIP3    H2 7147   3.826   1.107   1.642 -0.9516  1.6766  2.6632
 2395TIP3   OH2 7148   2.355   2.010   2.233  0.0033 -0.0000 -0.5040
 2395TIP3    H1 7149   2.375   2.100   2.208  0.3985 -0.1212 -0.6243
 2395TIP3    H2 7150   2.290   1.981   2.169  1.3235 -0.4535 -1.6873
 2396TIP3   OH2 7151   2.243   2.124   1.604  0.0131 -0.9285  0.0089
 2396TIP3    H1 7152   2.247   2.043   1.655  2.2140 -1.7778 -1.3770
 2396TIP3    H2 7153   2.312   2.179   1.642 -0.9402  0.0359  0.4212
 2397TIP3   OH2 7154   7.018   3.828   2.746 -0.2571  0.7825 -0.1997
 2397TIP3    H1 7155   7.045   3.880   2.670 -0.3343 -0.5443 -1.1706
 2397TIP3    H2 7156   6.940   3.781   2.716 -1.1176  1.2989  1.1739
 2398TIP3   OH2 7157   1.384   2.597   1.990  0.1668 -0.1065  0.1092
 2398TIP3    H1 7158   1.442   2.546   1.934  1.3372  0.0351  1.1696
 2398TIP3    H2 7159   1.430   2.604   2.073 -1.2550  0.2382  0.9012
 2399TIP3   OH2 7160   5.379   5.439   4.419 -0.3442 -0.0880 -0.5312
 2399TIP3    H1 7161   5.469   5.465   4.438 -1.1455  3.9626 -1.1469
 2399TIP3    H2 7162   5.342   5.417   4.504  0.3838  1.6886  0.3029
 2400TIP3   OH2 7163   5.896   5.749   1.517  0.2525 -0.0168  0.5597
 2400TIP3    H1 7164   5.865   5.737   1.606  0.6752 -0.2688  0.6768
 2400TIP3    H2 7165   5.817   5.744   1.463 -0.2115  1.7281  1.0388
 2401TIP3   OH2 7166   2.483   3.359   5.354  0.1145  0.0151  0.5413
 2401TIP3    H1 7167   2.572   3.373   5.322 -0.5647  0.5735 -1.2268
 2401TIP3    H2 7168   2.435   3.437   5.328 -1.8910 -1.9782 -2.4579
 2402TIP3   OH2 7169   6.569   0.288   2.611 -0.5685  0.1222  0.2198
 2402TIP3    H1 7170   6.522   0.302   2.528 -0.6659  2.6377  0.6192
 2402TIP3    H2 7171   6.654   0.253   2.585  0.4941  3.3980 -1.3204
 2403TIP3   OH2 7172   0.358   5.064   0.241  0.0037  0.0150 -0.1414
 2403TIP3    H1 7173   0.327   4.999   0.304 -1.1263  0.9204  0.2803
 2403TIP3    H2 7174   0.428   5.110   0.287  0.6506 -0.7465 -0.3579
 2404TIP3   OH2 7175   2.732   4.657   3.084  0.6292 -0.1770  0.1731
 2404TIP3    H1 7176   2.736   4.619   3.171 -2.2152  0.3104  0.6139
 2404TIP3    H2 7177   2.788   4.734   3.088  0.5644 -0.1923  1.5505
 2405TIP3   OH2 7178   7.012   5.548   2.287 -0.7361  0.5056  0.0458
 2405TIP3    H1 7179   7.056   5.620   2.332 -0.9942  1.7892 -1.6677
 2405TIP3    H2 7180   7.084   5.491   2.258 -0.4127  0.9235  0.0153
 2406TIP3   OH2 7181   1.665   1.162   0.511  0.1267  0.4913 -0.6568
 2406TIP3    H1 7182   1.581   1.127   0.538  0.3775 -0.8129 -1.4926
 2406TIP3    H2 7183   1.723   1.086   0.505  1.5770  1.4182  0.5616
 2407TIP3   OH2 7184   3.218   5.074   5.789 -0.3286 -0.1529 -0.5247
 2407TIP3    H1 7185   3.149   5.049   5.727 -0.0550  0.4402 -1.0844
 2407TIP3    H2 7186   3.288   5.107   5.733 -0.1724  0.6248  0.1153
 2408TIP3   OH2 7187   4.164   4.958   0.383  0.0632  0.5387 -0.1042
 2408TIP3    H1 7188   4.071   4.978   0.371 -0.0421  0.4860  0.5767
 2408TIP3    H2 7189   4.205   4.989   0.303 -0.7753 -1.0757 -1.2215
 2409TIP3   OH2 7190   1.044   6.664   1.718  0.4397 -0.0763  0.6684
 2409TIP3    H1 7191   1.046   6.738   1.658 -0.2667 -0.1674  0.5213
 2409TIP3    H2 7192   1.057   6.587   1.662  1.1970 -0.0615  0.8240
 2410TIP3   OH2 7193   2.605   4.930   5.131 -0.5556 -0.2624  0.0708
 2410TIP3    H1 7194   2.681   4.934   5.073 -0.1032  1.0731  0.6996
 2410TIP3    H2 7195   2.604   4.840   5.164  2.4013  0.3228  2.1382
 2411TIP3   OH2 7196   5.084   6.666   3.042 -0.3346 -0.5662  0.8212
 2411TIP3    H1 7197   5.157   6.696   2.988  0.0786  1.6016  2.4667
 2411TIP3    H2 7198   5.013   6.651   2.980  0.5339  0.4715 -0.4719
 2412TIP3   OH2 7199   2.405   0.059   2.968 -0.2265  0.1571 -0.2126
 2412TIP3    H1 7200   2.414   0.153   2.952  1.2901  0.0859  0.0915
 2412TIP3    H2 7201   2.357   0.027   2.891 -3.5309  1.5712  1.0497
 2413TIP3   OH2 7202   2.967   1.098   1.253  0.6036 -0.1435  0.0014
 2413TIP3    H1 7203   3.056   1.112   1.221  0.5595 -0.6192 -0.3441
 2413TIP3    H2 7204   2.968   1.011   1.291  0.7498  0.5602  1.6817
 2414TIP3   OH2 7205   0.950   1.153   5.626  0.4762  0.4246 -0.4583
 2414TIP3    H1 7206   0.946   1.232   5.680 -1.2034 -0.2159  0.4166
 2414TIP3    H2 7207   0.865   1.110   5.639  1.4419 -1.6983 -0.6398
 2415TIP3   OH2 7208   2.661   1.028   5.248 -0.5732  0.1210 -0.0909
 2415TIP3    H1 7209   2.572   1.048   5.218 -0.8444 -1.1926 -0.2423
 2415TIP3    H2 7210   2.705   1.113   5.252 -2.2260  0.9757  1.2919
 2416TIP3   OH2 7211   3.596   6.501   4.929  0.2166  0.0365 -0.7772
 2416TIP3    H1 7212   3.595   6.471   5.020  0.6312  1.0909 -0.4135
 2416TIP3    H2 7213   3.673   6.557   4.922 -0.4115  0.8381 -1.4890
 2417TIP3   OH2 7214   1.889   2.722   3.959  0.2682  0.3362  0.1013
 2417TIP3    H1 7215   1.892   2.723   4.055  0.7089  0.6362  0.0875
 2417TIP3    H2 7216   1.942   2.798   3.932 -1.0280  1.1036 -0.3632
 2418TIP3   OH2 7217   1.044   3.305   5.571  0.1144  0.7420  0.5497
 2418TIP3    H1 7218   1.013   3.385   5.529 -0.9583  0.5032  0.8635
 2418TIP3    H2 7219   1.033   3.322   5.665  1.3014  0.7880  0.7024
 2419TIP3   OH2 7220   6.270   5.034   1.709 -0.5860 -0.4582  0.2640
 2419TIP3    H1 7221   6.268   5.125   1.679  0.0635 -0.5170  0.0256
 2419TIP3    H2 7222   6.354   5.025   1.754 -0.7779 -0.8601  0.5462
 2420TIP3   OH2 7223   6.026   3.503   0.605  0.0928  0.1168 -0.2033
 2420TIP3    H1 7224   6.108   3.491   0.651  0.6942 -0.7051 -1.4468
 2420TIP3    H2 7225   5.982   3.575   0.652  1.6267  0.7594  0.2997
 2421TIP3   OH2 7226   7.146   0.583   4.854  0.2010 -0.3399  0.3436
 2421TIP3    H1 7227   7.100   0.653   4.900 -1.8228 -1.7648  0.6152
 2421TIP3    H2 7228   7.158   0.616   4.765 -1.5142  0.0545  0.2281
 2422TIP3   OH2 7229   3.730   2.543   4.518 -0.8799  0.4434  0.1492
 2422TIP3    H1 7230   3.783   2.605   4.468 -1.2287  0.5715 -0.0698
 2422TIP3    H2 7231   3.694   2.594   4.590 -2.1137  0.7972 -0.6929
 2423TIP3   OH2 7232   2.358   5.691   0.585 -0.2994  0.6469 -0.3658
 2423TIP3    H1 7233   2.425   5.650   0.639 -1.2955  0.7043  0.9792
 2423TIP3    H2 7234   2.366   5.785   0.603  1.5885  1.1080 -2.9846
 2424TIP3   OH2 7235   5.165   1.318   3.679 -0.3932 -0.1551  0.0395
 2424TIP3    H1 7236   5.223   1.371   3.734 -2.5286  0.7919  1.5324
 2424TIP3    H2 7237   5.221   1.287   3.608  1.4627  2.4089  0.2379
 2425TIP3   OH2 7238   6.633   0.200   5.605 -0.1090  0.0403  0.0520
 2425TIP3    H1 7239   6.631   0.223   5.512  1.6531  0.9341  0.1838
 2425TIP3    H2 7240   6.544   0.216   5.636 -0.7062 -0.1724 -1.4310
 2426TIP3   OH2 7241   4.551   2.814   2.563 -0.0121  0.1660 -0.0637
 2426TIP3    H1 7242   4.639   2.828   2.598 -0.7398  1.7601  1.2781
 2426TIP3    H2 7243   4.536   2.720   2.568  0.5209  0.1645  2.5221
 2427TIP3   OH2 7244   6.784   4.057   3.238 -0.2949 -0.6478 -0.1381
 2427TIP3    H1 7245   6.871   4.076   3.273 -0.0940  0.3794 -1.1389
 2427TIP3    H2 7246   6.785   3.963   3.221 -0.5588 -1.3253  2.9624
 2428TIP3   OH2 7247   2.160   4.534   5.813  0.1779  0.7509  0.0469
 2428TIP3    H1 7248   2.199   4.617   5.787 -1.1270  2.5095  3.0969
 2428TIP3    H2 7249   2.069   4.557   5.835 -0.5842 -1.7664 -0.2320
 2429TIP3   OH2 7250   2.870   4.033   2.089 -0.4940 -0.4367 -0.2900
 2429TIP3    H1 7251   2.776   4.020   2.100 -0.4096  0.1354  1.3814
 2429TIP3    H2 7252   2.880   4.127   2.072 -0.0517  0.1147  2.5993
 2430TIP3   OH2 7253   1.764   2.051   2.857  0.1982 -0.3983 -0.2238
 2430TIP3    H1 7254   1.745   2.040   2.764  0.2999  2.7665 -0.7141
 2430TIP3    H2 7255   1.859   2.041   2.863  0.1502 -0.9869 -0.3843
 2431TIP3   OH2 7256   4.932   0.689   3.275 -0.2411 -0.2252  0.0145
 2431TIP3    H1 7257   4.959   0.781   3.268 -0.0074 -0.4218 -2.1671
 2431TIP3    H2 7258   4.844   0.693   3.312 -0.7631  0.9894 -1.2667
 2432TIP3   OH2 7259   1.655   2.296   3.178 -0.1733  0.0878 -0.3926
 2432TIP3    H1 7260   1.572   2.334   3.204  0.1854  0.1648  0.6928
 2432TIP3    H2 7261   1.709   2.300   3.257  0.5095 -0.9180 -0.7922
 2433TIP3   OH2 7262   6.645   6.008   5.806  0.6059 -0.1203 -0.2112
 2433TIP3    H1 7263   6.590   5.934   5.780 -0.0658 -0.0836  1.0575
 2433TIP3    H2 7264   6.602   6.084   5.766 -0.4710 -0.0525  1.0256
 2434TIP3   OH2 7265   4.308   0.382   5.430 -0.7030 -0.0057 -0.3586
 2434TIP3    H1 7266   4.277   0.443   5.497  1.3269  1.2920 -0.4935
 2434TIP3    H2 7267   4.330   0.438   5.355  0.0966 -1.0319 -0.9280
 2435TIP3   OH2 7268   2.040   3.490   0.963  0.3480  0.3148 -0.4566
 2435TIP3    H1 7269   2.130   3.460   0.950  1.0393  1.8949  0.4495
 2435TIP3    H2 7270   1.994   3.460   0.884  1.2287 -1.9754 -0.1749
 2436TIP3   OH2 7271   4.997   2.234   1.483  0.3245 -0.4239 -0.0792
 2436TIP3    H1 7272   4.985   2.139   1.474  2.9334 -0.5987 -4.6565
 2436TIP3    H2 7273   5.083   2.243   1.525  1.6597 -0.3572 -2.6114
 2437TIP3   OH2 7274   5.443   3.671   0.986  0.1087 -0.2760 -0.1730
 2437TIP3    H1 7275   5.466   3.764   0.989  2.5025 -0.7540 -1.3436
 2437TIP3    H2 7276   5.350   3.670   0.965 -0.3595  1.8483  1.4900
 2438TIP3   OH2 7277   0.999   0.328   0.940 -0.5490  0.4785 -0.2179
 2438TIP3    H1 7278   1.072   0.388   0.927  0.0075 -0.2751 -0.6702
 2438TIP3    H2 7279   1.036   0.255   0.990 -0.5101 -0.7732 -1.9973
 2439TIP3   OH2 7280   5.235   3.164   0.449 -0.3103  0.3814 -0.0495
 2439TIP3    H1 7281   5.289   3.243   0.447  0.0484  0.1962 -3.0223
 2439TIP3    H2 7282   5.155   3.188   0.403 -0.6485 -0.6763 -0.0475
 2440TIP3   OH2 7283   1.824   0.164   1.341  0.2691  0.7348  0.3104
 2440TIP3    H1 7284   1.868   0.179   1.257  0.8272 -0.3545  0.4006
 2440TIP3    H2 7285   1.731   0.177   1.321  0.0064 -2.6160 -1.2924
 2441TIP3   OH2 7286   4.676   3.295   2.937 -0.3452  0.2502  0.5333
 2441TIP3    H1 7287   4.724   3.370   2.971 -0.7260  0.9555 -0.4380
 2441TIP3    H2 7288   4.626   3.262   3.012  1.0570 -0.0464  1.3751
 2442TIP3   OH2 7289   2.860   6.642   2.198  0.0700 -0.0351 -0.4690
 2442TIP3    H1 7290   2.916   6.626   2.274  0.2199  2.2740 -0.0162
 2442TIP3    H2 7291   2.917   6.626   2.122  1.4349  2.2752 -0.0176
 2443TIP3   OH2 7292   5.174   1.467   1.589 -0.1658  0.3823  0.7933
 2443TIP3    H1 7293   5.258   1.434   1.622 -0.7207 -2.8400 -0.6500
 2443TIP3    H2 7294   5.150   1.536   1.651  2.1691 -0.5347  2.9169
 2444TIP3   OH2 7295   4.449   1.475   2.432  0.9374  0.2027 -0.4896
 2444TIP3    H1 7296   4.413   1.547   2.379  0.3869 -1.5045 -2.6225
 2444TIP3    H2 7297   4.389   1.468   2.506 -0.1907  0.6808 -1.3209
 2445TIP3   OH2 7298   0.586   4.611   2.189 -0.3276  0.0410  0.3363
 2445TIP3    H1 7299   0.581   4.518   2.211 -0.1049  0.1063  0.6692
 2445TIP3    H2 7300   0.635   4.650   2.261 -1.0947  0.5508  0.6000
 2446TIP3   OH2 7301   6.610   6.649   1.885 -0.3235  0.0703  0.1970
 2446TIP3    H1 7302   6.577   6.559   1.878  0.2181 -0.1647  0.5461
 2446TIP3    H2 7303   6.552   6.691   1.948 -0.4061 -0.1240  0.2530
 2447TIP3   OH2 7304   3.541   4.467   4.238  0.3579 -0.0987 -0.5103
 2447TIP3    H1 7305   3.613   4.526   4.218 -1.3540  2.1256 -0.5224
 2447TIP3    H2 7306   3.478   4.481   4.167 -1.1249 -0.1465  0.7338
 2448TIP3   OH2 7307   2.064   0.899   4.171  0.1407 -0.4166 -0.3292
 2448TIP3    H1 7308   2.122   0.924   4.244 -0.5969 -3.7048  1.6095
 2448TIP3    H2 7309   2.121   0.853   4.110  0.5077  1.2146 -1.2869
 2449TIP3   OH2 7310   7.174   5.239   3.119  0.5404 -0.8033 -0.0411
 2449TIP3    H1 7311   7.109   5.186   3.166  1.4329  0.1912  2.4594
 2449TIP3    H2 7312   7.259   5.206   3.149  1.2309 -1.0640 -2.0979
 2450TIP3   OH2 7313   0.092   2.933   3.454  0.2562 -0.2079 -0.6578
 2450TIP3    H1 7314   0.108   2.871   3.525  1.6465  0.5104 -0.3111
 2450TIP3    H2 7315  -0.003   2.945   3.454  0.1684 -0.7461  0.6408
 2451TIP3   OH2 7316   0.949   2.284   2.696  0.2741  0.1356  0.1665
 2451TIP3    H1 7317   0.979   2.340   2.768 -0.2656  0.5024  0.1054
 2451TIP3    H2 7318   0.934   2.199   2.738 -0.3919  0.4413  0.5717
 2452TIP3   OH2 7319   0.808   1.666   4.934  0.9215 -0.4351 -0.1470
 2452TIP3    H1 7320   0.843   1.596   4.990  3.1072 -0.1577 -1.0499
 2452TIP3    H2 7321   0.816   1.631   4.845  1.1099  0.5698 -0.5339
 2453TIP3   OH2 7322   0.874   3.621   3.506 -0.5113 -0.1525 -0.1843
 2453TIP3    H1 7323   0.847   3.695   3.559  0.4427 -0.2492  0.4508
 2453TIP3    H2 7324   0.794   3.570   3.492 -1.2549  1.1860 -0.9647
 2454TIP3   OH2 7325   4.040   1.554   4.072  0.9755  0.1616 -0.1489
 2454TIP3    H1 7326   3.955   1.517   4.097  0.0191  2.4380  0.2443
 2454TIP3    H2 7327   4.101   1.480   4.078 -0.8783 -1.4419 -0.0170
 2455TIP3   OH2 7328   2.515   4.275  -0.004  0.1190 -0.3859  0.4069
 2455TIP3    H1 7329   2.579   4.267   0.066 -0.9199  0.5791  1.5312
 2455TIP3    H2 7330   2.521   4.367  -0.032  0.8849 -0.8808 -1.1650
 2456TIP3   OH2 7331   6.215   1.136   1.432  0.3084  0.4290  0.2345
 2456TIP3    H1 7332   6.157   1.069   1.396  0.2735  0.0244  1.0064
 2456TIP3    H2 7333   6.292   1.134   1.375  0.7951 -1.0771  0.8793
 2457TIP3   OH2 7334   6.110   0.919   3.467  0.3597  0.0569 -0.4086
 2457TIP3    H1 7335   6.193   0.925   3.419  0.7351  0.8471  0.3216
 2457TIP3    H2 7336   6.048   0.884   3.403  0.8199  1.2219 -1.5244
 2458TIP3   OH2 7337   3.779   2.460   5.301 -0.0948  0.5086  0.5163
 2458TIP3    H1 7338   3.860   2.421   5.267 -0.2144 -1.3561  2.2061
 2458TIP3    H2 7339   3.710   2.418   5.249 -0.0619  1.5358 -0.4029
 2459TIP3   OH2 7340   2.932   6.424   5.295  0.3785  0.3214 -0.2015
 2459TIP3    H1 7341   2.999   6.493   5.293  1.6716 -0.8718 -0.0712
 2459TIP3    H2 7342   2.928   6.398   5.387 -0.7318  0.8025 -0.1061
 2460TIP3   OH2 7343   6.897   1.582   3.076 -0.1044 -0.8965 -0.2983
 2460TIP3    H1 7344   6.846   1.502   3.069 -0.2559 -0.7687 -0.6642
 2460TIP3    H2 7345   6.942   1.590   2.992 -0.5637 -0.2787 -0.4924
 2461TIP3   OH2 7346   2.179   5.352   4.974 -0.2614 -0.5153 -0.5541
 2461TIP3    H1 7347   2.238   5.363   5.048  0.7640  0.1914 -1.4363
 2461TIP3    H2 7348   2.095   5.385   5.005  0.3524  0.5542  0.0434
 2462TIP3   OH2 7349   4.444   1.970   4.100 -0.4285  0.0236 -0.3237
 2462TIP3    H1 7350   4.360   2.017   4.105 -0.5385 -0.2597  0.6323
 2462TIP3    H2 7351   4.419   1.877   4.105 -0.0620 -0.0609 -0.0705
 2463TIP3   OH2 7352   5.883   5.670   5.040  0.1529 -0.1653  0.1095
 2463TIP3    H1 7353   5.837   5.750   5.015 -0.8833 -0.3218  1.3989
 2463TIP3    H2 7354   5.861   5.658   5.132  1.7934 -0.9422  0.4336
 2464TIP3   OH2 7355   4.341   4.054   4.052  0.2975 -0.0170 -0.2189
 2464TIP3    H1 7356   4.366   4.093   3.968  0.1623 -1.1447 -0.7950
 2464TIP3    H2 7357   4.273   3.991   4.030  0.7422 -0.8252  0.6455
 2465TIP3   OH2 7358   4.130   3.509   0.873 -0.0711  0.3425 -0.2862
 2465TIP3    H1 7359   4.162   3.454   0.801 -1.4787 -0.6081 -0.2271
 2465TIP3    H2 7360   4.043   3.538   0.844  0.6252  2.6209 -0.3296
 2466TIP3   OH2 7361   6.285   6.792   0.765 -0.3404 -0.1289 -0.3504
 2466TIP3    H1 7362   6.287   6.720   0.828  1.3603 -0.6920 -0.9826
 2466TIP3    H2 7363   6.192   6.808   0.750 -0.7721 -1.9240  0.1267
 2467TIP3   OH2 7364   2.151   5.690   5.649 -0.0114  0.1203  0.3431
 2467TIP3    H1 7365   2.190   5.622   5.704 -0.1630  0.3837  0.7863
 2467TIP3    H2 7366   2.060   5.693   5.676  0.3580  1.6645  1.5588
 2468TIP3   OH2 7367   2.967   1.783   1.938  0.0720  0.6244  0.8382
 2468TIP3    H1 7368   3.037   1.790   2.002  0.8333 -0.0632  0.1048
 2468TIP3    H2 7369   2.991   1.708   1.884 -0.3555  1.3881 -0.4699
 2469TIP3   OH2 7370   5.803   3.126   5.178 -0.1234  0.1910 -0.1722
 2469TIP3    H1 7371   5.887   3.129   5.223 -0.0459 -0.6556 -0.2489
 2469TIP3    H2 7372   5.754   3.200   5.214  0.8432  1.0188 -0.5222
 2470TIP3   OH2 7373   0.753   3.051   2.369  0.5423  1.0866 -0.1813
 2470TIP3    H1 7374   0.758   3.066   2.463 -0.6150  1.1341 -0.1249
 2470TIP3    H2 7375   0.786   2.962   2.357  1.1489  1.2499  0.1978
 2471TIP3   OH2 7376   2.900   5.707   5.333  0.6747 -0.4918  0.3046
 2471TIP3    H1 7377   2.905   5.679   5.424  1.2951  0.4784  0.5876
 2471TIP3    H2 7378   2.813   5.680   5.304  0.6514 -1.2350  1.0323
 2472TIP3   OH2 7379   5.237   2.478   4.205  0.5805 -0.0675 -0.4486
 2472TIP3    H1 7380   5.240   2.562   4.250  2.5774 -1.1625  1.6581
 2472TIP3    H2 7381   5.184   2.422   4.261 -2.1439  0.0832 -2.6405
 2473TIP3   OH2 7382   5.615   6.766   0.430  0.5784 -0.0622 -0.1263
 2473TIP3    H1 7383   5.548   6.812   0.480  0.5707 -1.1633  0.9373
 2473TIP3    H2 7384   5.571   6.736   0.351  0.1695  0.3285 -0.0489
 2474TIP3   OH2 7385   0.782   4.709   0.113 -0.2755  0.0395 -0.0710
 2474TIP3    H1 7386   0.708   4.648   0.121  0.0411 -0.4940 -1.1083
 2474TIP3    H2 7387   0.762   4.779   0.175 -1.8088  0.0492 -0.5377
 2475TIP3   OH2 7388   4.511   4.699   2.755 -0.6875  0.1956  0.0623
 2475TIP3    H1 7389   4.559   4.768   2.801  1.3372  0.2481 -1.9302
 2475TIP3    H2 7390   4.470   4.745   2.681 -1.0565 -0.4096 -0.1129
 2476TIP3   OH2 7391   6.999   6.754   4.732 -0.4129 -0.2882 -0.0054
 2476TIP3    H1 7392   7.071   6.796   4.779 -0.1316 -0.2643 -0.4544
 2476TIP3    H2 7393   6.921   6.802   4.759 -0.3743 -0.7970  1.0804
 2477TIP3   OH2 7394   4.937   2.772   0.516 -0.5991 -0.3347 -0.0622
 2477TIP3    H1 7395   4.921   2.682   0.543  2.6640 -0.6006  1.4574
 2477TIP3    H2 7396   4.912   2.825   0.592  1.0827 -0.3543  0.5326
 2478TIP3   OH2 7397   5.271   4.145   0.733 -0.1113 -0.0459  0.0379
 2478TIP3    H1 7398   5.248   4.229   0.693  0.9264  0.1407 -0.1983
 2478TIP3    H2 7399   5.263   4.082   0.662 -1.3947 -0.2514  0.3386
 2479TIP3   OH2 7400   0.751   4.478   5.794 -0.5701 -0.3607  0.2795
 2479TIP3    H1 7401   0.721   4.430   5.716  0.2651 -2.2966  1.0782
 2479TIP3    H2 7402   0.694   4.447   5.865  2.1820 -3.0496  1.5393
 2480TIP3   OH2 7403   0.265   2.051   0.892  0.4128  0.4433 -0.4495
 2480TIP3    H1 7404   0.220   1.996   0.956 -0.8050  1.5027 -0.3476
 2480TIP3    H2 7405   0.349   2.009   0.879 -0.4685 -1.4342 -0.3715
 2481TIP3   OH2 7406   1.049   2.001   2.429 -0.5045 -0.2174 -0.3793
 2481TIP3    H1 7407   1.042   2.045   2.344 -1.1878  1.9972  0.7252
 2481TIP3    H2 7408   1.117   2.050   2.475  1.5744 -2.8568 -0.4004
 2482TIP3   OH2 7409   4.190   3.494   5.334 -0.9087 -0.6815 -0.0064
 2482TIP3    H1 7410   4.227   3.499   5.422 -0.2000  0.8851 -0.3594
 2482TIP3    H2 7411   4.115   3.553   5.336  0.5203  1.2872 -1.0532
 2483TIP3   OH2 7412   4.726   3.493   0.554 -0.2902  0.0719  0.7556
 2483TIP3    H1 7413   4.635   3.509   0.528 -0.5511  0.2500  1.7490
 2483TIP3    H2 7414   4.730   3.399   0.570 -0.5813  0.2208  1.7403
 2484TIP3   OH2 7415   4.529   3.296   3.442 -0.2869 -0.1844  0.5293
 2484TIP3    H1 7416   4.563   3.385   3.451 -0.3353 -0.0901 -0.1852
 2484TIP3    H2 7417   4.561   3.250   3.520  1.1162  0.0166  0.0914
 2485TIP3   OH2 7418   0.355   6.225   4.768  0.1240 -0.3743 -0.3863
 2485TIP3    H1 7419   0.353   6.313   4.805 -0.6848 -0.4168 -0.3062
 2485TIP3    H2 7420   0.443   6.193   4.787  1.3478  1.3743 -2.7053
 2486TIP3   OH2 7421   0.229   6.223   5.481  0.5466 -0.4888  0.1786
 2486TIP3    H1 7422   0.219   6.130   5.462 -1.4440 -0.2148 -0.3289
 2486TIP3    H2 7423   0.144   6.261   5.461  1.6181  1.6341 -0.6512
 2487TIP3   OH2 7424   4.882   4.261   0.766 -0.3693 -0.1911  0.0573
 2487TIP3    H1 7425   4.863   4.168   0.778 -0.2149 -0.1910  0.2878
 2487TIP3    H2 7426   4.934   4.286   0.842 -0.2548  0.0418 -0.0962
 2488TIP3   OH2 7427   5.436   2.186   1.819  0.0263  0.3041  0.6184
 2488TIP3    H1 7428   5.519   2.138   1.810 -0.5613 -0.6872  0.3541
 2488TIP3    H2 7429   5.453   2.249   1.890  0.8744 -0.1546  0.8459
 2489TIP3   OH2 7430   4.691   2.413   4.911  0.2596  0.4602 -0.0135
 2489TIP3    H1 7431   4.620   2.475   4.895 -2.2615 -1.5338  2.3409
 2489TIP3    H2 7432   4.719   2.431   5.001  0.5250 -0.8157  0.1820
 2490TIP3   OH2 7433   0.094   3.955   1.746 -0.5696 -0.3645 -0.2629
 2490TIP3    H1 7434   0.159   3.908   1.693  0.6444 -0.2004  1.0402
 2490TIP3    H2 7435   0.033   3.888   1.775  0.6124 -1.0158  0.7918
 2491TIP3   OH2 7436   3.310   1.015   4.973 -0.3081  0.4859  0.7348
 2491TIP3    H1 7437   3.229   1.065   4.966 -0.9330 -0.3694  1.6325
 2491TIP3    H2 7438   3.337   1.000   4.882 -1.1552  0.7654  0.4250
 2492TIP3   OH2 7439   2.009   1.905   2.350  0.6600 -0.3142 -0.1663
 2492TIP3    H1 7440   2.084   1.911   2.290  0.2512  0.9386 -0.5756
 2492TIP3    H2 7441   2.004   1.812   2.373  0.3444 -0.9728 -2.6816
 2493TIP3   OH2 7442   2.751   0.770   5.157  0.8456  0.5246  0.9511
 2493TIP3    H1 7443   2.712   0.857   5.144  1.5949  0.5466 -1.8487
 2493TIP3    H2 7444   2.706   0.714   5.093  1.1039 -0.9291  1.9978
 2494TIP3   OH2 7445   2.101   4.801   4.830 -0.5985 -0.4270  0.0204
 2494TIP3    H1 7446   2.196   4.790   4.837 -0.5432 -0.6114 -0.9155
 2494TIP3    H2 7447   2.080   4.770   4.742 -1.6069 -0.9086  0.4186
 2495TIP3   OH2 7448   2.921   6.275   2.384 -0.3465 -0.3705 -0.3335
 2495TIP3    H1 7449   2.862   6.342   2.418  1.1483  0.7210  0.2281
 2495TIP3    H2 7450   2.926   6.293   2.290 -0.0424  0.2449 -0.2030
 2496TIP3   OH2 7451   2.372   4.193   1.995 -0.0574  0.4307 -0.5653
 2496TIP3    H1 7452   2.300   4.150   2.041 -0.0776  0.6353 -0.4055
 2496TIP3    H2 7453   2.330   4.261   1.943 -0.1030 -0.2150 -1.3858
 2497TIP3   OH2 7454   6.119   2.552   3.261 -0.1798 -0.0412  0.7229
 2497TIP3    H1 7455   6.105   2.641   3.294 -2.7165  0.2018 -0.7717
 2497TIP3    H2 7456   6.039   2.506   3.283  0.7684 -1.7741  0.7242
 2498TIP3   OH2 7457   5.732   6.534   0.512  0.3052  0.0791  0.1706
 2498TIP3    H1 7458   5.780   6.532   0.595  0.1292 -1.1971  0.2640
 2498TIP3    H2 7459   5.677   6.613   0.518 -1.7084 -1.3417  2.4622
 2499TIP3   OH2 7460   5.390   0.125   5.281 -0.7337 -0.0157  0.5024
 2499TIP3    H1 7461   5.482   0.148   5.296  0.0686 -0.9252 -2.3929
 2499TIP3    H2 7462   5.363   0.181   5.208 -2.0863 -0.6822  0.4629
 2500TIP3   OH2 7463   3.699   0.759   0.877  0.2251 -0.1107 -0.1799
 2500TIP3    H1 7464   3.642   0.745   0.801  0.2163  0.5861 -0.3084
 2500TIP3    H2 7465   3.764   0.822   0.847 -0.4333  1.0242  0.7163
 2501TIP3   OH2 7466   5.856   2.224   4.480 -0.1736  0.1046 -0.3057
 2501TIP3    H1 7467   5.887   2.268   4.559  2.6014  0.3059 -1.4038
 2501TIP3    H2 7468   5.850   2.292   4.414 -1.3488 -0.2673 -0.6250
 2502TIP3   OH2 7469   1.068   2.044   1.597  0.5018  0.2749  0.0531
 2502TIP3    H1 7470   1.134   2.059   1.529  1.5270  0.0521  0.9659
 2502TIP3    H2 7471   1.038   2.131   1.622  1.8147  0.5112  0.9105
 2503TIP3   OH2 7472   6.262   4.139   2.117 -0.0394 -0.4631  0.2294
 2503TIP3    H1 7473   6.264   4.187   2.034 -1.5434  0.6965  0.8194
 2503TIP3    H2 7474   6.279   4.205   2.184 -2.7951 -0.5157  1.1081
 2504TIP3   OH2 7475   1.817   6.338   1.243 -0.6734 -0.6344  0.6561
 2504TIP3    H1 7476   1.842   6.430   1.250 -0.9448 -0.6418  1.9118
 2504TIP3    H2 7477   1.837   6.315   1.152 -1.4692  0.9110  0.0402
 2505TIP3   OH2 7478   2.928   6.802   0.726  0.1879  0.3457  0.4992
 2505TIP3    H1 7479   2.894   6.713   0.737  0.2352  0.3059  0.3363
 2505TIP3    H2 7480   2.991   6.794   0.654 -1.6933  1.0003 -1.2989
 2506TIP3   OH2 7481   2.806   5.201   2.477 -0.3425  0.2303  0.2301
 2506TIP3    H1 7482   2.844   5.179   2.393  0.7567  1.3476  0.4027
 2506TIP3    H2 7483   2.725   5.248   2.455 -1.5961 -1.9834 -0.1349
 2507TIP3   OH2 7484   3.905   5.091   5.088  0.0060 -0.4108 -0.6235
 2507TIP3    H1 7485   3.996   5.103   5.061 -0.1244  1.0324 -0.4839
 2507TIP3    H2 7486   3.857   5.084   5.006  0.2534 -1.4261 -0.6982
 2508TIP3   OH2 7487   1.962   2.011   3.583 -0.4945  0.2835 -0.1087
 2508TIP3    H1 7488   1.967   2.074   3.655 -1.6199 -0.8442  1.0220
 2508TIP3    H2 7489   2.034   1.951   3.599 -0.5518  0.2187 -0.0899
 2509TIP3   OH2 7490   6.785   4.267   0.955 -0.4690 -0.1257  0.1269
 2509TIP3    H1 7491   6.791   4.214   0.876  0.8038  0.7182 -0.3777
 2509TIP3    H2 7492   6.831   4.348   0.932 -1.2329  0.6584  1.3001
 2510TIP3   OH2 7493   0.949   4.439   2.439  0.2727 -0.1467 -0.2459
 2510TIP3    H1 7494   0.894   4.403   2.508  0.8296 -1.5900 -0.5091
 2510TIP3    H2 7495   1.012   4.369   2.420 -0.0578  0.0594 -2.4173
 2511TIP3   OH2 7496   5.982   5.865   2.466 -0.3802 -0.3561  0.2467
 2511TIP3    H1 7497   5.983   5.769   2.457 -0.0434 -0.4723  1.3909
 2511TIP3    H2 7498   6.051   5.895   2.407 -1.1377 -0.7320 -0.8659
 2512TIP3   OH2 7499   5.152   4.492   3.603 -0.4451  0.5944  0.6738
 2512TIP3    H1 7500   5.220   4.539   3.556 -0.0824  0.0445  0.6446
 2512TIP3    H2 7501   5.127   4.551   3.674  0.6346  0.4641  1.1725
 2513TIP3   OH2 7502   3.919   5.659   4.874  0.2607  0.0443  0.2345
 2513TIP3    H1 7503   3.873   5.596   4.930 -0.7720 -0.8643 -1.5509
 2513TIP3    H2 7504   3.851   5.695   4.818  1.3650  0.3169 -0.9748
 2514TIP3   OH2 7505   0.346   6.528   1.854 -0.0742  0.5180  0.2521
 2514TIP3    H1 7506   0.297   6.591   1.801 -0.2357  0.0534 -0.1520
 2514TIP3    H2 7507   0.279   6.489   1.911 -0.3879 -0.8514 -0.9958
 2515TIP3   OH2 7508   0.899   5.961   4.366  0.2578 -0.1282  0.2617
 2515TIP3    H1 7509   0.939   5.998   4.288 -1.0847  0.6141 -0.1089
 2515TIP3    H2 7510   0.809   5.995   4.365 -0.4496 -1.8848  0.9431
 2516TIP3   OH2 7511   3.398   4.966   2.475 -0.1409 -0.5262  0.0608
 2516TIP3    H1 7512   3.320   5.016   2.450 -0.9265 -0.5571  2.2585
 2516TIP3    H2 7513   3.367   4.876   2.480  0.0513 -0.5501  0.8357
 2517TIP3   OH2 7514   1.092   1.000   0.249 -0.3520 -0.2686  0.6256
 2517TIP3    H1 7515   1.130   0.914   0.227 -1.7723 -0.7270 -0.1597
 2517TIP3    H2 7516   1.026   0.981   0.315 -1.8711 -0.0511 -0.7789
 2518TIP3   OH2 7517   1.824   5.873   5.481  0.1724  0.3884 -0.4716
 2518TIP3    H1 7518   1.779   5.911   5.557  0.6715  2.1785 -1.0100
 2518TIP3    H2 7519   1.761   5.882   5.409 -0.4304 -1.6137 -0.2432
 2519TIP3   OH2 7520   2.432   1.376   1.938 -0.1020 -0.3649  0.4259
 2519TIP3    H1 7521   2.493   1.304   1.924  0.5530 -0.1025  1.7312
 2519TIP3    H2 7522   2.364   1.364   1.872  0.7957 -1.2890 -0.3598
 2520TIP3   OH2 7523   4.815   2.920   5.779 -0.2146  0.0562  0.3955
 2520TIP3    H1 7524   4.848   2.875   5.701 -0.6610 -2.0010  1.3391
 2520TIP3    H2 7525   4.856   3.006   5.775 -0.1359 -0.0177 -2.0376
 2521TIP3   OH2 7526   1.024   6.270   0.328  0.0097  0.2340  0.4078
 2521TIP3    H1 7527   1.030   6.222   0.410  1.0979 -1.6080 -0.6848
 2521TIP3    H2 7528   1.098   6.330   0.330 -0.4813  0.8325  1.1319
 2522TIP3   OH2 7529   2.470   4.843   0.693  0.0711 -0.2879 -0.1397
 2522TIP3    H1 7530   2.416   4.792   0.633  0.4341  0.9779 -1.6062
 2522TIP3    H2 7531   2.549   4.864   0.643 -0.1816  1.9105  0.2967
 2523TIP3   OH2 7532   3.797   2.409   2.514  0.1118  0.5142 -0.4030
 2523TIP3    H1 7533   3.837   2.447   2.592 -1.6741 -0.0403  0.8657
 2523TIP3    H2 7534   3.869   2.369   2.466  1.3823  1.6458  0.5097
 2524TIP3   OH2 7535   4.183   5.940   1.753  0.3177  0.1647  0.4504
 2524TIP3    H1 7536   4.251   6.007   1.746 -1.5153  2.1408  0.4850
 2524TIP3    H2 7537   4.184   5.896   1.668 -0.4836  2.3875 -0.7999
 2525TIP3   OH2 7538   1.985   3.769   3.006  0.1905 -0.2997  0.4172
 2525TIP3    H1 7539   1.937   3.852   3.006  1.3078  0.3744  0.5734
 2525TIP3    H2 7540   2.021   3.763   3.094 -0.6724 -1.4562  0.7224
 2526TIP3   OH2 7541   0.523   5.465   3.723 -0.2939 -0.7691 -0.3443
 2526TIP3    H1 7542   0.584   5.473   3.650  0.0595 -0.7940 -0.0541
 2526TIP3    H2 7543   0.540   5.378   3.760  0.3261 -0.3092  0.4732
 2527TIP3   OH2 7544   5.403   3.123   4.255 -0.0769  0.3938 -0.7447
 2527TIP3    H1 7545   5.421   3.034   4.228  2.4736  0.7689 -0.5521
 2527TIP3    H2 7546   5.408   3.121   4.351  0.0835  0.7467 -0.7414
 2528TIP3   OH2 7547   3.319   0.306   0.174 -0.9816 -0.2494  0.5526
 2528TIP3    H1 7548   3.252   0.375   0.172  1.0558  1.8451 -0.0078
 2528TIP3    H2 7549   3.305   0.258   0.092 -1.1675  0.8323 -0.0739
 2529TIP3   OH2 7550   2.775   0.098   3.687 -0.7323 -0.2187  0.2352
 2529TIP3    H1 7551   2.839   0.118   3.755  0.2138 -1.2767 -0.3061
 2529TIP3    H2 7552   2.699   0.152   3.708  0.4157  1.2517  0.7716
 2530TIP3   OH2 7553   5.827   0.420   5.428  0.6196  0.0142  0.2542
 2530TIP3    H1 7554   5.754   0.426   5.490  1.3040 -2.3034  1.3955
 2530TIP3    H2 7555   5.828   0.329   5.400  3.1545 -0.0795  0.4028
 2531TIP3   OH2 7556   5.120   1.298   1.931 -0.5848 -0.1306 -0.2767
 2531TIP3    H1 7557   5.206   1.262   1.952  0.2664  0.1448 -2.9640
 2531TIP3    H2 7558   5.132   1.393   1.932 -0.7591 -0.0993 -1.0280
 2532TIP3   OH2 7559   6.264   4.821   1.335  0.3492  0.1223  0.1363
 2532TIP3    H1 7560   6.357   4.811   1.355  0.3688 -0.0598 -0.0501
 2532TIP3    H2 7561   6.221   4.753   1.387  0.5485 -1.4698 -1.6947
 2533TIP3   OH2 7562   6.311   3.471   4.828  0.0368 -0.1754  0.1424
 2533TIP3    H1 7563   6.368   3.545   4.805  0.1757 -0.1081  0.6898
 2533TIP3    H2 7564   6.235   3.481   4.771  1.0444 -0.8845 -1.3805
 2534TIP3   OH2 7565   3.443   4.358   2.271  0.2057 -0.1573 -0.0919
 2534TIP3    H1 7566   3.437   4.447   2.237 -0.4616 -0.1161  0.1311
 2534TIP3    H2 7567   3.529   4.327   2.242 -0.2802 -0.0772 -1.6941
 2535TIP3   OH2 7568   6.068   3.301   1.540  0.6617  0.1479  0.0112
 2535TIP3    H1 7569   6.020   3.382   1.523 -0.0076 -0.1482  0.4908
 2535TIP3    H2 7570   6.154   3.331   1.572  0.1709  0.6701  0.8763
 2536TIP3   OH2 7571   2.215   3.980   3.407  0.1654 -0.0055  0.1561
 2536TIP3    H1 7572   2.293   3.936   3.443  1.2708  3.1242  1.9239
 2536TIP3    H2 7573   2.250   4.040   3.342 -0.7190  1.4163  0.9528
 2537TIP3   OH2 7574   1.425   2.842   5.130 -0.0329  0.7955 -0.4475
 2537TIP3    H1 7575   1.493   2.835   5.063  1.6920  1.5841  1.1298
 2537TIP3    H2 7576   1.462   2.798   5.206 -1.6893  0.4574  0.2132
 2538TIP3   OH2 7577   4.562   5.884   3.701  0.0600  0.6462 -0.9126
 2538TIP3    H1 7578   4.506   5.904   3.626 -0.6402  0.5281 -0.4344
 2538TIP3    H2 7579   4.516   5.814   3.747 -0.0703  1.4546  0.2176
 2539TIP3   OH2 7580   4.865   2.708   3.838 -0.3546 -0.3693  0.3797
 2539TIP3    H1 7581   4.902   2.642   3.779 -0.2873  1.9587 -2.4284
 2539TIP3    H2 7582   4.934   2.725   3.902  0.2176 -1.8537  0.1988
 2540TIP3   OH2 7583   4.329   4.034   1.453  0.1328 -0.7638  0.5248
 2540TIP3    H1 7584   4.352   4.047   1.361  0.6231 -0.4514  0.6887
 2540TIP3    H2 7585   4.409   3.999   1.493  0.8925  1.8082  1.4449
 2541TIP3   OH2 7586   1.015   6.217   5.561 -0.1035 -0.6638 -0.2806
 2541TIP3    H1 7587   1.063   6.197   5.480 -0.1891  2.8022 -1.3381
 2541TIP3    H2 7588   1.081   6.253   5.620 -0.6687  0.3080 -0.2243
 2542TIP3   OH2 7589   3.425   6.688   0.023 -0.5082  0.3503 -0.1274
 2542TIP3    H1 7590   3.461   6.727   0.102 -0.0082  2.0310 -1.1356
 2542TIP3    H2 7591   3.497   6.637  -0.013  0.7238  2.9199 -1.6198
 2543TIP3   OH2 7592   6.316   4.492   5.226  0.2812 -0.4718  0.1548
 2543TIP3    H1 7593   6.393   4.513   5.279  1.8449 -2.1332 -1.2852
 2543TIP3    H2 7594   6.270   4.425   5.276  0.7360 -0.6991  0.2793
 2544TIP3   OH2 7595   0.480   1.503   1.860 -0.2162 -0.0114  0.0423
 2544TIP3    H1 7596   0.444   1.493   1.948  1.2391  0.1023  0.6763
 2544TIP3    H2 7597   0.504   1.595   1.854  0.8369 -0.2699  0.0147
 2545TIP3   OH2 7598   3.983   4.118   2.603 -0.3043 -0.5516 -0.4895
 2545TIP3    H1 7599   4.020   4.185   2.546  1.2017 -1.5280 -0.6877
 2545TIP3    H2 7600   3.930   4.064   2.544  0.6702 -1.1347 -0.8435
 2546TIP3   OH2 7601   6.602   3.051   0.779  0.1837  0.3790  0.4086
 2546TIP3    H1 7602   6.591   3.123   0.718 -2.6500  0.6800  1.1318
 2546TIP3    H2 7603   6.666   3.082   0.842  1.9155  0.6921 -1.4013
 2547TIP3   OH2 7604   2.461   4.677   1.795  0.1785 -0.0694  0.3554
 2547TIP3    H1 7605   2.407   4.719   1.728 -0.7993 -1.0302  0.5088
 2547TIP3    H2 7606   2.491   4.596   1.754 -0.0819 -0.4586  0.9201
 2548TIP3   OH2 7607   3.586   4.839   5.833 -0.2863  0.8279 -0.9383
 2548TIP3    H1 7608   3.671   4.818   5.871 -0.5510  0.2799 -0.6324
 2548TIP3    H2 7609   3.568   4.766   5.773 -0.5985  0.8768 -0.9064
 2549TIP3   OH2 7610   4.367   6.787   4.285 -0.1493 -0.3727  0.1626
 2549TIP3    H1 7611   4.324   6.709   4.249 -1.8395  0.0915  1.0913
 2549TIP3    H2 7612   4.461   6.765   4.283 -0.5720 -2.4274  0.3919
 2550TIP3   OH2 7613   5.563   4.883   5.198 -0.1915  0.2456 -0.2867
 2550TIP3    H1 7614   5.611   4.801   5.206  0.4868  0.5323 -1.2343
 2550TIP3    H2 7615   5.598   4.938   5.268  0.2088  0.1308 -0.3935
 2551TIP3   OH2 7616   0.453   2.121   2.960 -0.0592  0.0124  0.0645
 2551TIP3    H1 7617   0.545   2.096   2.948  0.5656  0.8672  2.4969
 2551TIP3    H2 7618   0.406   2.038   2.965  0.8771 -0.5075  0.6588
 2552TIP3   OH2 7619   3.318   5.708   2.818 -0.0145  0.9062 -0.0842
 2552TIP3    H1 7620   3.389   5.766   2.791  0.1065  1.3612  1.1861
 2552TIP3    H2 7621   3.241   5.741   2.771  0.2035  1.6508  0.0747
 2553TIP3   OH2 7622   4.506   0.644   2.851 -0.0153 -0.2369 -0.5240
 2553TIP3    H1 7623   4.564   0.648   2.927  1.7410 -0.7614 -1.7542
 2553TIP3    H2 7624   4.466   0.558   2.855 -0.6326  0.0729  0.2601
 2554TIP3   OH2 7625   2.711   3.581   3.982  0.2343 -0.1429 -0.5083
 2554TIP3    H1 7626   2.733   3.488   3.972  1.4773  0.1124 -0.2273
 2554TIP3    H2 7627   2.794   3.627   3.974 -0.1609  0.8459  0.7097
 2555TIP3   OH2 7628   2.593   6.622   0.751  0.1053 -0.5439  0.1921
 2555TIP3    H1 7629   2.623   6.550   0.805 -0.9948  0.0481  1.6514
 2555TIP3    H2 7630   2.591   6.697   0.810  1.1494  0.6946 -1.2687
 2556TIP3   OH2 7631   2.361   3.404   0.353 -0.3736 -0.1010 -0.2570
 2556TIP3    H1 7632   2.267   3.423   0.355 -0.6375 -1.1384 -1.5671
 2556TIP3    H2 7633   2.367   3.315   0.318  1.1180  0.0578 -0.4643
 2557TIP3   OH2 7634   6.209   6.239   1.010 -0.0472  0.5923 -0.1658
 2557TIP3    H1 7635   6.234   6.186   0.934 -1.4787  0.3431 -0.4947
 2557TIP3    H2 7636   6.123   6.274   0.987 -0.9115 -0.1825  1.6843
 2558TIP3   OH2 7637   2.695   1.552   1.950 -0.1220  0.0210 -0.4857
 2558TIP3    H1 7638   2.609   1.546   1.909 -0.0740  0.2866 -0.6224
 2558TIP3    H2 7639   2.699   1.640   1.987 -0.2353 -0.2727  0.2504
 2559TIP3   OH2 7640   0.212   1.518   0.937  0.2198 -0.3853  0.3559
 2559TIP3    H1 7641   0.307   1.515   0.933  0.1804 -2.2019 -0.3614
 2559TIP3    H2 7642   0.188   1.446   0.996 -0.6910  0.5998  1.2175
 2560TIP3   OH2 7643   6.171   1.613   0.408 -0.4967  0.4005 -0.2393
 2560TIP3    H1 7644   6.164   1.531   0.359  0.2821  0.8553 -1.1408
 2560TIP3    H2 7645   6.265   1.628   0.417 -0.6263  1.4285 -0.4999
 2561TIP3   OH2 7646   3.013   6.435   4.973 -0.7521  0.4194 -0.3935
 2561TIP3    H1 7647   3.094   6.385   4.981 -1.6460 -1.0506 -0.2226
 2561TIP3    H2 7648   2.970   6.424   5.057 -1.5374  0.4590 -0.7882
 2562TIP3   OH2 7649   0.498   1.768   0.089 -0.0363  0.4025  0.2675
 2562TIP3    H1 7650   0.536   1.846   0.050  1.3244 -0.0855  0.5696
 2562TIP3    H2 7651   0.500   1.784   0.183 -1.8941  0.9338  0.2669
 2563TIP3   OH2 7652   5.418   6.755   5.472  0.1468  1.0794  0.0052
 2563TIP3    H1 7653   5.383   6.829   5.422 -0.3979 -0.2188 -1.6068
 2563TIP3    H2 7654   5.427   6.684   5.409  1.3569 -0.0443  1.3522
 2564TIP3   OH2 7655   2.291   5.325   0.607 -0.4131  0.1789  0.2050
 2564TIP3    H1 7656   2.329   5.411   0.627  1.0517 -0.5323  0.6056
 2564TIP3    H2 7657   2.342   5.264   0.659 -1.3256 -0.9719 -0.2109
 2565TIP3   OH2 7658   3.528   2.199   2.308 -0.7102  0.7984  0.4507
 2565TIP3    H1 7659   3.623   2.198   2.320 -0.6808 -0.9012  0.3034
 2565TIP3    H2 7660   3.514   2.262   2.237  0.5139 -0.4100 -0.9247
 2566TIP3   OH2 7661   4.165   3.389   0.626 -0.3006 -0.0094 -0.2638
 2566TIP3    H1 7662   4.072   3.411   0.631  0.0914  1.7463 -0.1108
 2566TIP3    H2 7663   4.186   3.394   0.533  0.2456  2.5790 -0.0880
 2567TIP3   OH2 7664   4.174   1.684   0.372 -0.1862 -0.4675  0.2970
 2567TIP3    H1 7665   4.175   1.603   0.423  1.8229 -1.5817 -1.3847
 2567TIP3    H2 7666   4.083   1.691   0.341 -0.5561 -1.7089  1.0103
 2568TIP3   OH2 7667   1.385   2.351   4.537  0.3377  0.3177 -0.1948
 2568TIP3    H1 7668   1.394   2.256   4.537  0.1060  0.2495 -2.0798
 2568TIP3    H2 7669   1.313   2.368   4.476  0.5674  1.7191 -0.1149
 2569TIP3   OH2 7670   4.788   0.111   3.876  0.4206 -0.0413  0.0064
 2569TIP3    H1 7671   4.779   0.078   3.787  1.1671  1.2813 -0.6008
 2569TIP3    H2 7672   4.861   0.173   3.871  0.6554 -0.1437  1.6005
 2570TIP3   OH2 7673   2.578   2.465   4.929 -0.3267 -0.3123  0.3894
 2570TIP3    H1 7674   2.517   2.539   4.931  0.8390  0.6738  0.0995
 2570TIP3    H2 7675   2.535   2.397   4.982 -1.9899  0.0964 -0.3805
 2571TIP3   OH2 7676   2.872   5.634   5.018 -0.2497 -0.1382 -0.0755
 2571TIP3    H1 7677   2.830   5.689   4.952 -0.4950 -1.3581 -0.9787
 2571TIP3    H2 7678   2.954   5.678   5.038 -0.0548  0.1257 -1.3839
 2572TIP3   OH2 7679   3.148   4.689   2.743 -0.6815  0.1116 -0.8092
 2572TIP3    H1 7680   3.190   4.753   2.800  0.4315 -0.1922 -1.2749
 2572TIP3    H2 7681   3.205   4.613   2.746 -1.5743 -0.5786 -0.9037
 2573TIP3   OH2 7682   0.550   4.479   3.975 -0.1986 -0.1590 -0.2684
 2573TIP3    H1 7683   0.526   4.498   3.884  0.2517 -2.6864 -0.9881
 2573TIP3    H2 7684   0.467   4.460   4.019 -0.3000 -0.1919 -0.4750
 2574TIP3   OH2 7685   2.868   4.160   2.685 -0.4318  0.1964 -0.5080
 2574TIP3    H1 7686   2.933   4.190   2.749  1.0558 -0.7628 -1.4974
 2574TIP3    H2 7687   2.863   4.230   2.621 -1.8896  1.1391  0.5857
 2575TIP3   OH2 7688   3.868   5.379   1.534 -0.0605 -0.1269  0.4348
 2575TIP3    H1 7689   3.943   5.325   1.558 -0.7039 -0.8175  0.9402
 2575TIP3    H2 7690   3.848   5.354   1.443  0.0730 -0.2312  0.4344
 2576TIP3   OH2 7691   1.376   5.534   1.889 -0.0434 -0.1081  0.4854
 2576TIP3    H1 7692   1.374   5.462   1.952 -1.0700 -0.8312 -0.3263
 2576TIP3    H2 7693   1.440   5.595   1.925 -0.2735 -0.6946  1.9923
 2577TIP3   OH2 7694   0.757   1.822   5.372  0.2686 -0.2298  0.6139
 2577TIP3    H1 7695   0.745   1.910   5.408  1.6785 -0.3571  1.4606
 2577TIP3    H2 7696   0.816   1.835   5.297 -1.1939 -0.2073 -0.5768
 2578TIP3   OH2 7697   0.594   2.123   0.340 -0.0921 -0.0736  0.2700
 2578TIP3    H1 7698   0.681   2.132   0.302 -0.6108  0.9763 -0.7422
 2578TIP3    H2 7699   0.601   2.047   0.398  1.6819  0.4058  0.7661
 2579TIP3   OH2 7700   1.472   0.648   1.274  0.2716 -0.4008 -0.3500
 2579TIP3    H1 7701   1.538   0.604   1.220  0.8530  1.1975 -1.0096
 2579TIP3    H2 7702   1.497   0.626   1.364  1.1651 -0.5651 -0.6273
 2580TIP3   OH2 7703   0.128   4.586   3.867 -0.2247  0.0946  0.7459
 2580TIP3    H1 7704   0.206   4.581   3.811  0.9264  1.4245  2.1455
 2580TIP3    H2 7705   0.077   4.509   3.843  1.1577 -0.4257 -0.7397
 2581TIP3   OH2 7706   4.595   5.198   0.392 -0.0556  0.1816 -0.4889
 2581TIP3    H1 7707   4.621   5.271   0.336 -1.2064  0.3941 -0.7736
 2581TIP3    H2 7708   4.637   5.122   0.354  0.9836  0.6554 -0.3188
 2582TIP3   OH2 7709   6.174   4.308   5.370  0.7466  0.3193  0.2244
 2582TIP3    H1 7710   6.232   4.310   5.447  1.0884  1.8321 -0.0329
 2582TIP3    H2 7711   6.110   4.240   5.390  0.7102  0.8135  1.9473
 2583TIP3   OH2 7712   1.647   6.103   1.750  0.2333  0.0139  0.9701
 2583TIP3    H1 7713   1.601   6.030   1.792 -1.3848 -0.0128 -0.7270
 2583TIP3    H2 7714   1.730   6.065   1.721 -1.3113 -1.7707 -1.5046
 2584TIP3   OH2 7715   4.012   4.049   2.189  0.0743  0.2210  0.2755
 2584TIP3    H1 7716   3.936   4.023   2.239 -0.4949 -0.1571 -0.7474
 2584TIP3    H2 7717   4.003   4.004   2.105  0.0157  2.2273 -0.8751
 2585TIP3   OH2 7718   2.210   4.384   1.877  0.0400 -0.7490  0.1117
 2585TIP3    H1 7719   2.251   4.412   1.796  0.9090 -0.9324  0.4753
 2585TIP3    H2 7720   2.118   4.410   1.868 -0.0156 -1.3268 -1.1794
 2586TIP3   OH2 7721   3.620   2.832   5.138 -0.1141 -0.0929 -0.0105
 2586TIP3    H1 7722   3.693   2.849   5.198 -0.5925  1.9605  0.0678
 2586TIP3    H2 7723   3.650   2.866   5.053 -0.7740  0.2679 -0.1032
 2587TIP3   OH2 7724   4.896   3.517   1.856  0.1219 -0.2546  0.2493
 2587TIP3    H1 7725   4.824   3.514   1.792 -0.5758 -0.6520  1.0292
 2587TIP3    H2 7726   4.974   3.534   1.803 -0.7137  1.6787 -0.4872
 2588TIP3   OH2 7727   5.457   6.120   0.511 -0.5392 -0.3198 -0.3757
 2588TIP3    H1 7728   5.507   6.170   0.446  1.0300 -0.0404  0.9753
 2588TIP3    H2 7729   5.512   6.043   0.529  0.3844  0.8736  2.4536
 2589TIP3   OH2 7730   2.577   1.544   5.475  0.7367  0.6087 -0.3937
 2589TIP3    H1 7731   2.656   1.528   5.424  0.1902 -0.0520 -1.0648
 2589TIP3    H2 7732   2.545   1.629   5.444  0.6061  0.3778 -0.9051
 2590TIP3   OH2 7733   4.080   3.326   1.623 -0.0462  0.3163  0.1931
 2590TIP3    H1 7734   3.986   3.319   1.639  0.1102 -0.0792  0.9874
 2590TIP3    H2 7735   4.119   3.337   1.710  0.7852 -1.3480  0.0788
 2591TIP3   OH2 7736   4.332   3.956   5.506  0.7439 -0.4555  0.2648
 2591TIP3    H1 7737   4.338   3.918   5.594 -1.3866  0.4211  0.8543
 2591TIP3    H2 7738   4.238   3.955   5.485  1.0668  0.4955 -1.4865
 2592TIP3   OH2 7739   2.220   5.775   4.518 -0.1189  0.4884  0.3273
 2592TIP3    H1 7740   2.170   5.711   4.569 -0.4700  1.6255  1.4454
 2592TIP3    H2 7741   2.182   5.860   4.541  0.1611  1.1053 -1.3211
 2593TIP3   OH2 7742   6.740   4.118   3.527 -0.1925  0.0225 -0.0700
 2593TIP3    H1 7743   6.783   4.203   3.535 -1.3833  0.7703 -1.2285
 2593TIP3    H2 7744   6.807   4.055   3.555  1.5358  1.1583 -1.4132
 2594TIP3   OH2 7745   4.294   4.208   0.065 -0.1901 -0.5476  0.1231
 2594TIP3    H1 7746   4.326   4.168  -0.016  1.3378 -0.9519  0.8734
 2594TIP3    H2 7747   4.270   4.297   0.040  2.1940  0.0079 -0.4401
 2595TIP3   OH2 7748   4.235   1.727   3.561  0.0758  1.0102  0.2821
 2595TIP3    H1 7749   4.248   1.654   3.623  0.5838  1.9096  1.2656
 2595TIP3    H2 7750   4.140   1.733   3.552 -0.0702  1.5194  1.8153
 2596TIP3   OH2 7751   6.105   0.338   1.848 -0.3140 -0.2277  0.1659
 2596TIP3    H1 7752   6.157   0.377   1.778 -1.9400 -0.9886 -1.5393
 2596TIP3    H2 7753   6.135   0.383   1.928  2.5915 -0.3303 -0.7540
 2597TIP3   OH2 7754   6.483   1.575   5.820  0.4388 -0.0566 -0.2342
 2597TIP3    H1 7755   6.565   1.543   5.859  0.5952  1.0831  0.4099
 2597TIP3    H2 7756   6.451   1.501   5.768  1.1541 -1.0047  0.6305
 2598TIP3   OH2 7757   1.099   5.824   2.410 -0.1300 -0.4201  0.3405
 2598TIP3    H1 7758   1.086   5.814   2.504 -0.7412 -1.3391  0.1631
 2598TIP3    H2 7759   1.113   5.735   2.377 -0.5374 -0.1758 -0.5298
 2599TIP3   OH2 7760   1.693   5.661   3.316 -0.3868 -0.6477  0.0706
 2599TIP3    H1 7761   1.659   5.749   3.336 -2.9902 -1.7920  1.1255
 2599TIP3    H2 7762   1.699   5.659   3.221 -3.6157 -0.3259 -0.2685
 2600TIP3   OH2 7763   0.413   3.280   3.727  0.2209  0.0710  0.5184
 2600TIP3    H1 7764   0.479   3.343   3.698  0.5310 -0.9534 -1.1508
 2600TIP3    H2 7765   0.416   3.284   3.822  1.4979  1.2574  0.4607
 2601TIP3   OH2 7766   3.107   4.756   0.265  0.3676  0.5684 -0.2649
 2601TIP3    H1 7767   3.062   4.689   0.316  0.6247  1.1163  0.7094
 2601TIP3    H2 7768   3.111   4.720   0.176 -1.0247  0.0443 -0.1476
 2602TIP3   OH2 7769   0.660   0.873   5.377  0.2745  0.2444  0.6213
 2602TIP3    H1 7770   0.703   0.920   5.305  1.3091  0.1900  1.1855
 2602TIP3    H2 7771   0.605   0.808   5.334 -0.8688  1.6803 -0.1733
 2603TIP3   OH2 7772   1.654   3.316   3.108  0.2178  0.2004 -0.3643
 2603TIP3    H1 7773   1.633   3.338   3.017  2.3287  0.3345 -0.8486
 2603TIP3    H2 7774   1.684   3.398   3.146  1.9885 -0.4077 -0.3621
 2604TIP3   OH2 7775   7.134   5.765   3.498 -0.0897 -0.0614 -0.6691
 2604TIP3    H1 7776   7.179   5.681   3.501  2.3881  1.1108  3.5788
 2604TIP3    H2 7777   7.179   5.815   3.429 -0.1637 -1.4246 -1.7407
 2605TIP3   OH2 7778   6.943   6.586   1.058 -0.1399  0.4937 -0.2083
 2605TIP3    H1 7779   7.004   6.513   1.071  0.7059  1.0972 -0.6648
 2605TIP3    H2 7780   6.952   6.608   0.965 -2.1345 -0.3178 -0.6446
 2606TIP3   OH2 7781   7.207   6.377   5.445 -0.1865  0.2491 -0.1426
 2606TIP3    H1 7782   7.154   6.302   5.473  1.0884 -0.3199  0.8454
 2606TIP3    H2 7783   7.158   6.415   5.372 -0.0785 -2.5081 -1.8012
 2607TIP3   OH2 7784   1.892   3.056   5.816  0.4912  0.3813  0.7499
 2607TIP3    H1 7785   1.938   3.018   5.891  1.5438  1.4035  0.6449
 2607TIP3    H2 7786   1.933   3.142   5.803 -0.1947  0.5453 -0.5164
 2608TIP3   OH2 7787   6.482   2.308   5.419 -0.0258  0.0015 -0.0646
 2608TIP3    H1 7788   6.464   2.250   5.345 -0.7722  0.0208  0.0886
 2608TIP3    H2 7789   6.569   2.282   5.450 -0.7625 -1.7983  0.6733
 2609TIP3   OH2 7790   0.757   0.696   2.421  0.4306 -0.3375 -0.5540
 2609TIP3    H1 7791   0.759   0.730   2.332 -0.0563 -1.7490 -1.1147
 2609TIP3    H2 7792   0.757   0.601   2.412 -1.5660 -0.5418  0.8754
 2610TIP3   OH2 7793   3.926   3.877   4.894  0.3564  0.4297  0.7697
 2610TIP3    H1 7794   4.004   3.894   4.842  0.4806 -0.4428  0.6541
 2610TIP3    H2 7795   3.942   3.924   4.976  2.2029 -1.7573  1.7941
 2611TIP3   OH2 7796   3.453   3.110   0.180 -0.0821  0.6105  0.0348
 2611TIP3    H1 7797   3.490   3.022   0.188 -0.1958  0.3259 -2.0226
 2611TIP3    H2 7798   3.521   3.161   0.138 -0.7842  0.9151 -0.7811
 2612TIP3   OH2 7799   6.986   1.869   4.824  0.2830  0.3565  0.4345
 2612TIP3    H1 7800   6.910   1.916   4.858  0.5339  0.3676  0.9833
 2612TIP3    H2 7801   7.061   1.924   4.847  0.4516  0.4100 -0.2191
 2613TIP3   OH2 7802   3.565   0.911   5.046  0.0007  0.3566  0.2100
 2613TIP3    H1 7803   3.482   0.958   5.056 -0.0325  0.0418  1.6780
 2613TIP3    H2 7804   3.545   0.838   4.987 -0.4751  0.9320 -0.3508
 2614TIP3   OH2 7805   3.423   0.089   3.861  0.2544 -0.0880  0.1059
 2614TIP3    H1 7806   3.451   0.026   3.795  0.9553  0.4340 -0.1137
 2614TIP3    H2 7807   3.329   0.099   3.846  0.2414 -0.6628 -0.2124
 2615TIP3   OH2 7808   7.151   2.478   2.975  0.0537 -0.4134  0.2598
 2615TIP3    H1 7809   7.132   2.397   2.927 -0.3915  0.6084 -1.3824
 2615TIP3    H2 7810   7.244   2.494   2.959 -0.0245 -0.2349 -0.0294
 2616TIP3   OH2 7811   6.000   6.793   5.655 -0.0744  0.0660 -0.3872
 2616TIP3    H1 7812   6.014   6.703   5.626  0.9388  0.6761 -1.9028
 2616TIP3    H2 7813   5.906   6.807   5.646 -0.2540 -0.8651 -0.0333
 2617TIP3   OH2 7814   0.156   5.017   3.976  0.3661  0.0229 -0.5520
 2617TIP3    H1 7815   0.233   4.964   3.952  0.5900 -0.2385  0.6934
 2617TIP3    H2 7816   0.189   5.107   3.977  0.7109 -0.1076  0.1731
 2618TIP3   OH2 7817   3.823   6.028   5.478 -0.6196  0.0244  0.6908
 2618TIP3    H1 7818   3.792   6.006   5.566 -0.2323  0.8543  1.0459
 2618TIP3    H2 7819   3.818   6.124   5.474 -2.4439 -0.0933 -0.8769
 2619TIP3   OH2 7820   3.811   2.158   1.024  0.2747 -0.2003 -0.2955
 2619TIP3    H1 7821   3.780   2.166   0.934 -0.6958  3.1356  0.2149
 2619TIP3    H2 7822   3.732   2.143   1.076  0.6807 -0.7974  0.1720
 2620TIP3   OH2 7823   3.697   5.297   2.377  0.1024 -0.1304  0.0649
 2620TIP3    H1 7824   3.633   5.315   2.445 -0.9112 -2.3454 -0.2475
 2620TIP3    H2 7825   3.676   5.210   2.346  1.1056  0.4491 -2.4791
 2621TIP3   OH2 7826   2.691   5.765   5.602 -0.2690  0.4132  0.0310
 2621TIP3    H1 7827   2.773   5.800   5.636  1.0070  1.3054 -3.4729
 2621TIP3    H2 7828   2.635   5.842   5.591 -1.2236 -0.0552  1.4189
 2622TIP3   OH2 7829   1.697   4.670   4.926 -0.0124  0.9581 -0.0777
 2622TIP3    H1 7830   1.741   4.733   4.868 -1.3512  0.0638 -2.1780
 2622TIP3    H2 7831   1.622   4.639   4.876 -0.6267 -0.7138  1.7375
 2623TIP3   OH2 7832   2.815   5.824   4.301  0.3798  0.4218  0.0670
 2623TIP3    H1 7833   2.861   5.855   4.379 -1.0267  1.2318  0.6025
 2623TIP3    H2 7834   2.748   5.765   4.335  2.0701 -2.1994 -0.8267
 2624TIP3   OH2 7835   3.008   1.453   3.600 -0.5385 -0.4668  0.0245
 2624TIP3    H1 7836   2.970   1.508   3.669  1.5133  2.3852 -0.9071
 2624TIP3    H2 7837   3.090   1.421   3.638 -0.1295 -0.1185 -0.5483
 2625TIP3   OH2 7838   4.018   4.821   1.646  0.0636 -0.8326 -0.2227
 2625TIP3    H1 7839   3.949   4.770   1.689 -0.0987 -1.2827 -0.9980
 2625TIP3    H2 7840   4.058   4.871   1.717 -1.6275  0.1134  0.1257
 2626TIP3   OH2 7841   1.622   3.102   2.050 -0.0492  0.1525 -0.0935
 2626TIP3    H1 7842   1.653   3.022   2.092 -1.7114 -0.2517  0.4641
 2626TIP3    H2 7843   1.565   3.071   1.979  2.5153  0.8315 -2.5930
 2627TIP3   OH2 7844   4.318   0.096   4.168 -0.1545  0.2088 -0.2495
 2627TIP3    H1 7845   4.375   0.074   4.241  0.4526  1.1526 -0.4212
 2627TIP3    H2 7846   4.246   0.145   4.208 -0.4404 -0.3119 -0.1301
 2628TIP3   OH2 7847   2.522   4.325   2.948  0.4868 -0.3695 -0.0496
 2628TIP3    H1 7848   2.573   4.394   2.905  1.1017 -0.4183  0.5701
 2628TIP3    H2 7849   2.570   4.308   3.029 -0.0220 -1.0699  0.1107
 2629TIP3   OH2 7850   6.744   1.451   1.353 -0.0506  0.1392  0.5442
 2629TIP3    H1 7851   6.649   1.456   1.359 -0.2045 -2.1180  0.7088
 2629TIP3    H2 7852   6.765   1.361   1.376  2.0443  0.2825 -0.5605
 2630TIP3   OH2 7853   2.893   1.383   0.138 -0.8292 -0.9726 -0.4222
 2630TIP3    H1 7854   2.908   1.422   0.052  1.2017 -0.2664  0.1876
 2630TIP3    H2 7855   2.974   1.398   0.186 -2.3391 -0.1317  2.0995
 2631TIP3   OH2 7856   5.264   0.782   5.800  0.1645  0.0155 -0.3971
 2631TIP3    H1 7857   5.252   0.708   5.740 -0.1835 -0.7076  0.5411
 2631TIP3    H2 7858   5.344   0.761   5.848 -0.4116 -0.1965  0.4903
 2632TIP3   OH2 7859   2.978   2.883   1.323 -0.4064  0.3856 -0.4565
 2632TIP3    H1 7860   3.052   2.825   1.341 -0.0263  0.6174 -1.2420
 2632TIP3    H2 7861   2.904   2.823   1.309  0.2776 -0.0272 -2.6736
 2633TIP3   OH2 7862   4.077   5.764   4.236 -0.0681 -0.4017 -0.8485
 2633TIP3    H1 7863   4.023   5.786   4.160  1.2911 -0.9062 -1.9916
 2633TIP3    H2 7864   4.125   5.686   4.209 -1.0065 -1.8092  1.2519
 2634TIP3   OH2 7865   2.298   1.015   5.465  0.0138  0.3006  0.7205
 2634TIP3    H1 7866   2.390   1.038   5.475  0.5908 -1.5642  0.2800
 2634TIP3    H2 7867   2.270   1.062   5.387  0.6231  0.8291  0.8147
 2635TIP3   OH2 7868   4.335   2.276   3.564  0.5649 -0.1422 -0.6068
 2635TIP3    H1 7869   4.379   2.335   3.502 -0.2720  0.1500 -0.9399
 2635TIP3    H2 7870   4.313   2.199   3.512  1.5689 -0.7267 -0.1958
 2636TIP3   OH2 7871   6.497   2.749  -0.018 -0.1623  0.3372 -0.2468
 2636TIP3    H1 7872   6.547   2.702   0.049  0.4959  0.3201 -0.7438
 2636TIP3    H2 7873   6.433   2.800   0.032 -0.6177 -0.7500  0.3287
 2637TIP3   OH2 7874   1.853   4.936   5.245 -0.1728  0.5213 -0.2888
 2637TIP3    H1 7875   1.916   4.951   5.174 -2.1482  1.6567 -1.9164
 2637TIP3    H2 7876   1.769   4.925   5.200 -1.1171 -1.2915  1.7802
 2638TIP3   OH2 7877   3.726   4.898   4.985 -0.3176 -0.1095 -0.4031
 2638TIP3    H1 7878   3.638   4.928   4.962 -0.1272  2.0938  1.4668
 2638TIP3    H2 7879   3.736   4.918   5.078  1.6670 -1.6309 -0.2092
 2639TIP3   OH2 7880   6.222   5.628   3.570  0.3631  0.0724 -0.7140
 2639TIP3    H1 7881   6.216   5.559   3.636  1.5556  0.8861  0.3185
 2639TIP3    H2 7882   6.143   5.681   3.583 -1.2627 -1.7984 -2.4356
 2640TIP3   OH2 7883   5.581   5.420   3.854  0.1776  0.3691  0.3445
 2640TIP3    H1 7884   5.525   5.489   3.819 -1.1395 -0.5389  0.5442
 2640TIP3    H2 7885   5.577   5.432   3.949 -1.0842 -0.6808  0.4601
 2641TIP3   OH2 7886   3.176   4.741   1.753 -0.4315  0.1452  0.0652
 2641TIP3    H1 7887   3.111   4.734   1.824 -0.8194  0.3494 -0.2680
 2641TIP3    H2 7888   3.141   4.809   1.696  0.3201  0.5887  0.1340
 2642TIP3   OH2 7889   5.616   5.775   2.296 -0.5387  0.0271  0.3372
 2642TIP3    H1 7890   5.683   5.766   2.364 -0.3015  1.7696  0.3941
 2642TIP3    H2 7891   5.637   5.858   2.253 -1.8099 -0.1123 -0.6179
 2643TIP3   OH2 7892   1.315   4.644   2.077  0.0908  0.1982 -0.0050
 2643TIP3    H1 7893   1.380   4.575   2.063  0.6334  0.9463 -1.3380
 2643TIP3    H2 7894   1.245   4.625   2.013 -1.6700 -1.3086  2.2192
 2644TIP3   OH2 7895   1.030   0.418   1.912  0.3042 -0.3070 -0.2649
 2644TIP3    H1 7896   1.028   0.467   1.830  4.2363  0.2742 -0.2139
 2644TIP3    H2 7897   1.059   0.330   1.887 -0.0585 -0.6086  0.3507
 2645TIP3   OH2 7898   5.935   2.278   3.027  0.5460 -0.4944  0.5500
 2645TIP3    H1 7899   5.896   2.194   3.007  0.8386 -0.2278 -1.3051
 2645TIP3    H2 7900   6.027   2.269   3.001  0.4485  0.5591 -0.2352
 2646TIP3   OH2 7901   6.571   6.494   4.624 -0.1717 -0.7491 -0.6331
 2646TIP3    H1 7902   6.561   6.480   4.718  0.8184 -0.9449 -0.5385
 2646TIP3    H2 7903   6.498   6.447   4.584  0.6429 -2.5748 -0.0814
 2647TIP3   OH2 7904   3.617   6.019   1.673 -0.6037  0.2676  0.3702
 2647TIP3    H1 7905   3.619   6.012   1.769  1.2058  1.5901  0.4914
 2647TIP3    H2 7906   3.552   6.087   1.656 -0.6667  0.2885  0.6839
 2648TIP3   OH2 7907   4.735   2.803   4.056 -0.3136  0.0271  0.2498
 2648TIP3    H1 7908   4.804   2.859   4.089 -0.2107  0.3024 -0.4140
 2648TIP3    H2 7909   4.773   2.760   3.979 -0.5938 -0.4831  0.3878
 2649TIP3   OH2 7910   7.178   5.171   1.462 -0.2939  0.2413  0.3251
 2649TIP3    H1 7911   7.203   5.251   1.416 -2.5759  1.4144  1.0052
 2649TIP3    H2 7912   7.230   5.102   1.420  1.7487  2.0421 -0.2540
 2650TIP3   OH2 7913   2.637   5.302   5.541  0.4325  0.2753 -0.2112
 2650TIP3    H1 7914   2.617   5.288   5.634 -2.0698  0.1343 -0.6975
 2650TIP3    H2 7915   2.652   5.215   5.506  1.4147  0.3313  0.0551
 2651TIP3   OH2 7916   5.276   6.522   4.587  0.6097 -0.0137 -0.8057
 2651TIP3    H1 7917   5.254   6.540   4.496  0.0095 -2.1173 -1.1159
 2651TIP3    H2 7918   5.192   6.502   4.629  0.8703  0.9943  0.2412
 2652TIP3   OH2 7919   2.418   0.072   0.314 -0.1448  0.6603 -0.8836
 2652TIP3    H1 7920   2.420   0.166   0.295  0.4559  0.6431 -0.9340
 2652TIP3    H2 7921   2.386   0.032   0.233  1.5884  0.6577 -1.6209
 2653TIP3   OH2 7922   5.717   1.300   2.644 -0.4006  0.0152  0.5254
 2653TIP3    H1 7923   5.661   1.245   2.698  0.3009 -0.3011  0.9518
 2653TIP3    H2 7924   5.719   1.384   2.689 -0.1751 -0.1138  0.7637
 2654TIP3   OH2 7925   4.529   0.178   2.555  0.7299 -0.6727  0.1882
 2654TIP3    H1 7926   4.444   0.214   2.528  0.9940  0.0139  0.2477
 2654TIP3    H2 7927   4.555   0.122   2.482  0.3101 -0.7446  0.0896
 2655TIP3   OH2 7928   7.027   4.009   3.893  0.2729 -0.1712  0.2498
 2655TIP3    H1 7929   7.032   4.024   3.798  2.2395 -0.1247  0.3256
 2655TIP3    H2 7930   7.049   4.093   3.932  0.2162 -0.3870  0.7555
 2656TIP3   OH2 7931   0.900   6.290   0.747  0.3113 -0.4271  0.5251
 2656TIP3    H1 7932   0.877   6.327   0.832  0.2535  1.2954 -0.1964
 2656TIP3    H2 7933   0.821   6.298   0.694 -0.2048 -3.0686  0.7496
 2657TIP3   OH2 7934   4.978   0.825   4.744 -0.2282  0.6216 -0.8067
 2657TIP3    H1 7935   4.953   0.821   4.652 -0.0188  0.2362 -0.8474
 2657TIP3    H2 7936   5.050   0.762   4.752 -0.2440  0.6573 -0.3816
 2658TIP3   OH2 7937   1.608   0.742   3.152  0.3276  0.1853  0.2074
 2658TIP3    H1 7938   1.654   0.661   3.129  0.2663  0.1252  0.2983
 2658TIP3    H2 7939   1.547   0.716   3.220  0.0806  0.2464  0.0079
 2659TIP3   OH2 7940   3.189   3.111   1.342 -0.4648 -0.7291 -0.2444
 2659TIP3    H1 7941   3.150   3.186   1.387 -0.0572 -1.2416  0.9991
 2659TIP3    H2 7942   3.121   3.044   1.344 -0.9400 -0.3257 -1.6211
 2660TIP3   OH2 7943   2.672   1.788   0.828  0.3707  0.8151 -0.3195
 2660TIP3    H1 7944   2.753   1.834   0.805  0.8755  0.4403  0.6679
 2660TIP3    H2 7945   2.671   1.712   0.770  1.1393  0.3931  0.2059
 2661TIP3   OH2 7946   3.254   3.042   5.444  0.2172 -0.8081 -0.0441
 2661TIP3    H1 7947   3.294   3.127   5.425 -1.4777 -0.3420 -1.9822
 2661TIP3    H2 7948   3.165   3.050   5.410  0.7361 -4.2049 -2.8353
 2662TIP3   OH2 7949   0.102   0.695   5.354  0.2450 -0.3856 -0.6259
 2662TIP3    H1 7950   0.106   0.740   5.438  1.1566 -2.7312  0.7012
 2662TIP3    H2 7951   0.009   0.694   5.331  0.1840  1.9482 -0.6642
 2663TIP3   OH2 7952   4.249   6.106   3.957 -0.2240 -0.4490  0.0594
 2663TIP3    H1 7953   4.156   6.096   3.937 -0.4568 -1.3213  1.4137
 2663TIP3    H2 7954   4.288   6.143   3.878 -1.6190 -0.6389 -0.7314
 2664TIP3   OH2 7955   5.363   1.251   2.687 -0.1064 -0.0099  0.1742
 2664TIP3    H1 7956   5.290   1.190   2.700  1.3132 -1.6630  0.7672
 2664TIP3    H2 7957   5.368   1.262   2.592 -0.9931 -0.0481  0.1126
 2665TIP3   OH2 7958   6.458   2.325   4.044 -0.4646  0.1206  0.0891
 2665TIP3    H1 7959   6.486   2.402   3.993  2.0493 -0.1928  0.8324
 2665TIP3    H2 7960   6.470   2.252   3.984 -2.6439  0.2104 -0.5420
 2666TIP3   OH2 7961   1.184   3.829   5.756  0.0337 -0.2109 -0.4253
 2666TIP3    H1 7962   1.212   3.846   5.846 -0.6745  0.9210 -0.4023
 2666TIP3    H2 7963   1.091   3.851   5.756 -0.0165 -0.4132 -1.3833
 2667TIP3   OH2 7964   2.449   4.723   4.200 -0.0175  0.1700 -0.4211
 2667TIP3    H1 7965   2.533   4.678   4.208 -0.8076 -1.9897 -2.8453
 2667TIP3    H2 7966   2.389   4.674   4.256  0.0544  0.9357  0.3339
 2668TIP3   OH2 7967   4.816   0.824   2.876  0.4266  0.3714  0.1299
 2668TIP3    H1 7968   4.841   0.916   2.868  0.1537  0.6406  1.8628
 2668TIP3    H2 7969   4.877   0.789   2.941 -0.9799 -0.0171  1.3047
 2669TIP3   OH2 7970   3.247   4.978   4.216 -0.2604  0.5992 -0.3924
 2669TIP3    H1 7971   3.165   4.950   4.176  0.3159 -0.0010 -1.1931
 2669TIP3    H2 7972   3.314   4.923   4.175  0.5745  1.2558  0.0496
 2670TIP3   OH2 7973   7.048   1.176   4.971 -0.0286  0.4766 -0.4344
 2670TIP3    H1 7974   7.081   1.264   4.986  0.0343  0.3419  0.2978
 2670TIP3    H2 7975   7.051   1.134   5.058  0.6426 -0.4812 -0.9038
 2671TIP3   OH2 7976   2.409   6.639   5.435  0.5062  0.4833  0.1443
 2671TIP3    H1 7977   2.410   6.655   5.341 -1.9051 -1.0109 -0.2343
 2671TIP3    H2 7978   2.373   6.551   5.444  1.7613  0.1313  2.4483
 2672TIP3   OH2 7979   2.308   4.242   4.951 -0.3216 -0.3174  0.4824
 2672TIP3    H1 7980   2.326   4.326   4.994  0.0233 -0.4052  0.5061
 2672TIP3    H2 7981   2.244   4.263   4.883  1.0661  0.2696 -0.6866
 2673TIP3   OH2 7982   5.394   1.524   2.134 -0.0525 -0.6594  0.2992
 2673TIP3    H1 7983   5.446   1.579   2.193 -0.4853 -0.5159  0.5461
 2673TIP3    H2 7984   5.400   1.569   2.049  0.3558 -0.7276  0.2901
 2674TIP3   OH2 7985   4.070   4.716   2.192  0.1661  0.5457 -0.1314
 2674TIP3    H1 7986   4.089   4.626   2.216 -2.0549 -0.1551 -0.7556
 2674TIP3    H2 7987   4.110   4.769   2.262  1.2506 -0.9062  0.3916
 2675TIP3   OH2 7988   6.417   3.103   0.274  0.3025  0.1195 -0.1929
 2675TIP3    H1 7989   6.507   3.105   0.242 -0.5959 -0.7030 -3.0588
 2675TIP3    H2 7990   6.386   3.194   0.265  0.3099  0.0513 -1.0065
 2676TIP3   OH2 7991   0.273   2.944   2.861 -0.4553 -0.0647 -0.0024
 2676TIP3    H1 7992   0.197   3.000   2.875 -0.9788 -0.9057  0.6532
 2676TIP3    H2 7993   0.239   2.870   2.811  0.4021  0.5877 -1.6013
 2677TIP3   OH2 7994   1.584   3.704   0.155  0.0714 -0.4227  0.3004
 2677TIP3    H1 7995   1.675   3.720   0.178 -0.0553  0.6376  0.1441
 2677TIP3    H2 7996   1.552   3.644   0.222  0.5885  0.0454  0.9842
 2678TIP3   OH2 7997   0.095   5.847   0.786 -0.4222  0.7705  0.6270
 2678TIP3    H1 7998   0.105   5.807   0.700 -1.2504 -2.8762  2.0394
 2678TIP3    H2 7999   0.014   5.897   0.780 -2.8714 -2.8951  0.2853
 2679TIP3   OH2 8000   0.270   6.303   5.865  0.0353  0.0281 -0.2892
 2679TIP3    H1 8001   0.244   6.322   5.774  1.9598 -1.7644 -1.2906
 2679TIP3    H2 8002   0.318   6.381   5.892  0.6762  0.0146 -1.3367
 2680TIP3   OH2 8003   1.904   5.583   3.848 -0.3986 -0.0929 -0.4434
 2680TIP3    H1 8004   1.860   5.541   3.774 -0.6326 -0.0968 -0.3024
 2680TIP3    H2 8005   1.875   5.533   3.924 -1.1691  0.6971 -0.1955
 2681TIP3   OH2 8006   6.607   6.569   2.664  0.3489 -0.2884  0.4029
 2681TIP3    H1 8007   6.582   6.483   2.698 -3.5150  0.6133  0.2476
 2681TIP3    H2 8008   6.620   6.556   2.570 -1.2578 -0.5521  0.2000
 2682TIP3   OH2 8009   3.961   3.746   5.679 -0.1784 -0.1166 -0.0166
 2682TIP3    H1 8010   3.877   3.775   5.714 -0.7275 -2.4178  0.7955
 2682TIP3    H2 8011   3.942   3.661   5.638  1.5884 -0.2654 -0.6217
 2683TIP3   OH2 8012   5.941   1.502   5.344 -0.2325 -0.4046 -0.3045
 2683TIP3    H1 8013   6.005   1.430   5.341 -0.8529 -0.9683 -0.2822
 2683TIP3    H2 8014   5.930   1.521   5.437 -1.2562 -1.3756 -0.2099
 2684TIP3   OH2 8015   1.064   4.172   5.364  0.6627  0.2141 -0.3770
 2684TIP3    H1 8016   1.064   4.092   5.416  0.3992  0.4383 -0.0306
 2684TIP3    H2 8017   1.016   4.149   5.284 -0.3721  0.3262  0.1960
 2685TIP3   OH2 8018   4.587   6.564   0.060 -0.3492 -0.2917  0.1734
 2685TIP3    H1 8019   4.549   6.481   0.089  1.3480 -0.7165  1.3177
 2685TIP3    H2 8020   4.661   6.539   0.006 -1.3991  0.5244 -1.7255
 2686TIP3   OH2 8021   3.372   1.759   3.933 -0.6051  0.6049 -0.4662
 2686TIP3    H1 8022   3.415   1.776   3.849 -1.4545  0.0092 -1.0335
 2686TIP3    H2 8023   3.325   1.840   3.953 -1.1636  0.4276 -1.0376
 2687TIP3   OH2 8024   6.730   2.360   2.558 -0.1234  0.5425 -0.1150
 2687TIP3    H1 8025   6.820   2.383   2.532  0.7084 -0.1032  2.0111
 2687TIP3    H2 8026   6.732   2.361   2.654 -2.1854 -0.3362 -0.0257
 2688TIP3   OH2 8027   0.480   5.496   4.600 -0.2206 -0.4536  0.4213
 2688TIP3    H1 8028   0.527   5.413   4.595 -0.3729 -0.5985  1.2594
 2688TIP3    H2 8029   0.510   5.536   4.681 -0.7777 -0.0772  0.4504
 2689TIP3   OH2 8030   3.844   0.759   5.405 -0.4893 -0.7284 -0.3019
 2689TIP3    H1 8031   3.751   0.756   5.428 -0.6145  1.0790 -0.4070
 2689TIP3    H2 8032   3.848   0.822   5.333  0.6702 -1.7793 -1.1869
 2690TIP3   OH2 8033   7.048   1.549   1.610  0.3908 -0.5284 -0.2568
 2690TIP3    H1 8034   6.990   1.513   1.677  0.9920  1.1887  1.2789
 2690TIP3    H2 8035   7.044   1.644   1.624  2.1876 -0.2621 -1.2563
 2691TIP3   OH2 8036   7.071   4.144   5.469 -0.3235 -0.0356 -0.0514
 2691TIP3    H1 8037   7.124   4.069   5.496  0.9572  0.5692 -0.8089
 2691TIP3    H2 8038   7.055   4.193   5.550 -1.5960 -1.3489  0.5370
 2692TIP3   OH2 8039   5.063   6.271   5.299  0.1991  0.5277 -0.2480
 2692TIP3    H1 8040   5.050   6.177   5.290  1.4776  0.4712 -1.8546
 2692TIP3    H2 8041   5.037   6.290   5.389 -0.6651 -1.2431 -0.0793
 2693TIP3   OH2 8042   3.146   2.110   1.429  0.0350 -0.4517 -0.2926
 2693TIP3    H1 8043   3.101   2.130   1.511 -1.4809  0.1782 -1.2363
 2693TIP3    H2 8044   3.077   2.078   1.371  0.7901  0.5351 -1.7995
 2694TIP3   OH2 8045   1.116   1.276   2.615 -0.2626 -0.2895  0.0892
 2694TIP3    H1 8046   1.209   1.270   2.594 -0.2851 -2.2918  0.2825
 2694TIP3    H2 8047   1.106   1.222   2.694 -1.2179  1.8883  1.5677
 2695TIP3   OH2 8048   3.397   6.175   1.566  0.6070 -0.0105 -0.6626
 2695TIP3    H1 8049   3.441   6.260   1.567  0.3291  0.1343  0.5820
 2695TIP3    H2 8050   3.325   6.186   1.504  1.1541  0.3465 -1.2502
 2696TIP3   OH2 8051   2.625   1.580   0.651 -0.0395 -0.2636 -0.0189
 2696TIP3    H1 8052   2.597   1.496   0.688  1.0261 -0.2497  0.8748
 2696TIP3    H2 8053   2.569   1.592   0.575  0.1501 -2.0727 -0.5086
 2697TIP3   OH2 8054   6.785   1.355   2.772  0.1526  0.0229  0.2075
 2697TIP3    H1 8055   6.795   1.266   2.805 -0.0303 -0.1846 -0.2928
 2697TIP3    H2 8056   6.715   1.350   2.707 -0.9688  0.8410  1.3098
 2698TIP3   OH2 8057   6.337   0.960   4.209 -0.1963 -0.3052 -0.3288
 2698TIP3    H1 8058   6.357   0.933   4.120 -0.3880 -3.1578  0.4044
 2698TIP3    H2 8059   6.252   0.920   4.228 -0.2532  0.4058  1.0705
 2699TIP3   OH2 8060   1.172   4.062   1.017  0.3135 -0.2786  0.2349
 2699TIP3    H1 8061   1.160   4.115   0.938  0.9231  1.8588  1.4801
 2699TIP3    H2 8062   1.098   4.001   1.016  1.5202 -1.9019 -3.0834
 2700TIP3   OH2 8063   2.707   2.394   4.419 -0.1435  0.2526 -0.1506
 2700TIP3    H1 8064   2.686   2.346   4.499  0.1253  0.1820 -0.1205
 2700TIP3    H2 8065   2.623   2.406   4.375 -0.2062 -0.2854 -0.1847
 2701TIP3   OH2 8066   2.791   2.265   2.711  0.2156  0.3803 -0.2344
 2701TIP3    H1 8067   2.743   2.343   2.740 -0.7959 -0.3861  0.2380
 2701TIP3    H2 8068   2.853   2.297   2.647 -0.1561  1.5847 -0.0185
 2702TIP3   OH2 8069   6.468   2.102   2.727  0.5582 -0.1807  0.3163
 2702TIP3    H1 8070   6.464   2.044   2.651  0.8948  2.3040 -1.7402
 2702TIP3    H2 8071   6.542   2.070   2.778  1.0954 -1.1926 -1.0466
 2703TIP3   OH2 8072   2.522   4.559   3.557 -0.1395 -0.4268  0.3079
 2703TIP3    H1 8073   2.452   4.569   3.492  0.6777  0.9272 -0.4066
 2703TIP3    H2 8074   2.488   4.493   3.618 -2.1416  0.3609  0.1372
 2704TIP3   OH2 8075   3.387   1.957   1.373 -0.9422  0.1442 -0.0115
 2704TIP3    H1 8076   3.343   2.014   1.436 -0.8479  1.9003 -1.4389
 2704TIP3    H2 8077   3.475   1.994   1.364 -0.4102 -1.0686  0.0312
 2705TIP3   OH2 8078   3.653   5.916   0.572 -0.2845 -0.5295  0.4685
 2705TIP3    H1 8079   3.712   5.964   0.630  0.5234 -1.0941  0.1217
 2705TIP3    H2 8080   3.689   5.929   0.485 -0.9490 -0.4815  0.1940
 2706TIP3   OH2 8081   5.985   6.393   0.984  0.7303  0.3712 -0.6366
 2706TIP3    H1 8082   6.017   6.440   1.060 -0.1408 -0.2675  0.1452
 2706TIP3    H2 8083   5.895   6.369   1.006  0.6714 -0.3825 -1.6019
 2707TIP3   OH2 8084   0.586   0.117   0.053  0.0553  0.6622 -0.0806
 2707TIP3    H1 8085   0.586   0.035   0.003 -0.4125  0.2266  0.6126
 2707TIP3    H2 8086   0.506   0.114   0.104  1.2813  0.3044  1.9297
 2708TIP3   OH2 8087   2.887   2.671   4.540  0.0718 -0.2421  0.1860
 2708TIP3    H1 8088   2.839   2.644   4.461 -0.2285  0.5263  0.0938
 2708TIP3    H2 8089   2.886   2.594   4.596 -3.8309  0.4356  1.4182
 2709TIP3   OH2 8090   1.118   5.869   0.083 -0.1604  0.2162 -0.0590
 2709TIP3    H1 8091   1.079   5.925   0.016 -2.7598 -2.4107 -0.9643
 2709TIP3    H2 8092   1.056   5.871   0.155 -0.6737 -1.8744 -0.3698
 2710TIP3   OH2 8093   2.004   5.658   1.792  0.4396 -0.2551 -0.1344
 2710TIP3    H1 8094   1.988   5.695   1.706 -0.0244  0.1467  0.1234
 2710TIP3    H2 8095   2.027   5.733   1.847 -0.8262 -0.2800  0.4681
 2711TIP3   OH2 8096   6.004   2.399   3.549 -0.1121 -0.4659  0.0212
 2711TIP3    H1 8097   5.987   2.490   3.571 -2.4316 -1.0581  0.9975
 2711TIP3    H2 8098   6.066   2.369   3.616 -0.8669 -0.1012  0.8980
 2712TIP3   OH2 8099   6.409   4.134   1.485  0.1728 -0.0223  0.2760
 2712TIP3    H1 8100   6.382   4.225   1.494  2.4446  0.7573 -0.3745
 2712TIP3    H2 8101   6.421   4.104   1.575  1.7007  1.0665  0.4573
 2713TIP3   OH2 8102   1.033   6.401   3.959  0.2149  0.0774 -0.1903
 2713TIP3    H1 8103   1.035   6.446   4.044 -1.7788  0.2759 -0.2062
 2713TIP3    H2 8104   1.022   6.472   3.895  0.8556 -0.1461 -0.5585
 2714TIP3   OH2 8105   5.250   4.353   2.731  0.3454  0.3586 -0.0817
 2714TIP3    H1 8106   5.277   4.420   2.668 -0.9669  0.3632 -0.6642
 2714TIP3    H2 8107   5.183   4.303   2.686  1.3370 -1.4020  0.3305
 2715TIP3   OH2 8108   0.980   1.756   2.079  0.2064 -0.0278 -0.1551
 2715TIP3    H1 8109   1.060   1.805   2.058  2.2119 -1.7760  2.7462
 2715TIP3    H2 8110   0.997   1.667   2.047 -2.2647  0.3173 -2.8951
 2716TIP3   OH2 8111   6.404   2.228   4.884 -0.3707 -0.7601  0.0919
 2716TIP3    H1 8112   6.455   2.192   4.958 -0.7093  2.1511  1.9288
 2716TIP3    H2 8113   6.313   2.224   4.914 -0.5486  0.1001 -0.3201
 2717TIP3   OH2 8114   5.305   0.607   1.723  0.2785  0.4868  0.1018
 2717TIP3    H1 8115   5.324   0.527   1.672 -2.0957  1.0757 -1.8924
 2717TIP3    H2 8116   5.329   0.584   1.813  0.4810 -2.1692 -0.5359
 2718TIP3   OH2 8117   5.909   4.569   0.134 -0.0912 -0.1544 -0.3324
 2718TIP3    H1 8118   5.882   4.511   0.205 -1.0897  1.0420  0.3109
 2718TIP3    H2 8119   6.004   4.559   0.129  0.0030 -0.2384  1.1923
 2719TIP3   OH2 8120   5.584   3.135   5.551  0.0834 -0.2368 -0.2485
 2719TIP3    H1 8121   5.533   3.060   5.520  0.9638 -0.8884 -0.1657
 2719TIP3    H2 8122   5.592   3.121   5.646  0.9146 -0.4753 -0.3422
 2720TIP3   OH2 8123   2.092   3.481   0.389 -0.3093  0.3688  0.5230
 2720TIP3    H1 8124   2.101   3.386   0.388 -0.1007  0.3705  1.4765
 2720TIP3    H2 8125   2.000   3.496   0.412 -0.4972  0.4056 -0.2158
 2721TIP3   OH2 8126   1.469   3.572   4.685  0.0822  0.6479  0.0157
 2721TIP3    H1 8127   1.448   3.554   4.593  0.6451  2.8771 -0.6254
 2721TIP3    H2 8128   1.401   3.634   4.712 -0.7135 -0.7889  1.4854
 2722TIP3   OH2 8129   5.528   3.816   5.056 -0.1662  0.0211  1.0301
 2722TIP3    H1 8130   5.617   3.843   5.078 -0.6566  1.3438  1.5240
 2722TIP3    H2 8131   5.507   3.747   5.120  0.1105  0.4984  1.6407
 2723TIP3   OH2 8132   4.444   5.040   4.629  0.1695 -0.2236  0.8859
 2723TIP3    H1 8133   4.394   5.119   4.652 -0.6808 -0.7755  0.9819
 2723TIP3    H2 8134   4.522   5.073   4.585 -0.7748  0.6357 -0.2098
 2724TIP3   OH2 8135   3.515   5.590   5.611 -0.1145 -0.3117  0.0611
 2724TIP3    H1 8136   3.480   5.564   5.696  1.2084  0.1745  0.7849
 2724TIP3    H2 8137   3.446   5.569   5.549 -1.2290 -0.3980  1.2923
 2725TIP3   OH2 8138   4.439   4.894   5.622  0.1605  0.0408  0.3031
 2725TIP3    H1 8139   4.465   4.838   5.548  1.0085  0.3863  0.3273
 2725TIP3    H2 8140   4.361   4.852   5.657  1.1860 -1.5767  0.7919
 2726TIP3   OH2 8141   4.858   3.447   0.958 -0.3355  0.0203 -0.3636
 2726TIP3    H1 8142   4.824   3.468   0.871 -0.1751  0.6763 -0.2715
 2726TIP3    H2 8143   4.906   3.365   0.945  1.3126  1.0764 -1.3102
 2727TIP3   OH2 8144   2.046   4.775   3.398  0.1978  0.2480  0.3921
 2727TIP3    H1 8145   2.018   4.839   3.333 -0.1486  0.2147  0.5099
 2727TIP3    H2 8146   2.128   4.811   3.433  0.4457  0.2152 -0.1329
 2728TIP3   OH2 8147   3.293   5.043   3.414  0.2512  0.8087  0.4586
 2728TIP3    H1 8148   3.210   4.999   3.398 -1.4015  3.3423  1.4518
 2728TIP3    H2 8149   3.343   5.031   3.333 -2.3113  1.7494 -1.4051
 2729TIP3   OH2 8150   5.776   0.835   5.072  0.2008 -0.0508 -0.6226
 2729TIP3    H1 8151   5.836   0.762   5.088 -0.4626 -0.1288  2.0083
 2729TIP3    H2 8152   5.829   0.899   5.025  1.2187 -1.6195 -1.7238
 2730TIP3   OH2 8153   1.894   5.609   3.518  0.3785 -0.8667  0.0171
 2730TIP3    H1 8154   1.823   5.629   3.457  0.7638  1.3082  0.1984
 2730TIP3    H2 8155   1.973   5.619   3.465  0.7627  1.8147  0.9524
 2731TIP3   OH2 8156   4.228   3.436   4.872 -0.0194  0.1767  0.0387
 2731TIP3    H1 8157   4.178   3.481   4.803  0.0601  0.1038 -0.0662
 2731TIP3    H2 8158   4.319   3.460   4.855 -0.1173  1.3473  0.9842
 2732TIP3   OH2 8159   5.472   4.880   3.658  0.4190 -0.3917 -0.7819
 2732TIP3    H1 8160   5.457   4.892   3.752  0.7495  0.7675 -0.8515
 2732TIP3    H2 8161   5.499   4.789   3.648 -1.0248 -0.9389  0.0523
 2733TIP3   OH2 8162   4.996   6.511   2.619  0.3277 -0.3167  0.2465
 2733TIP3    H1 8163   4.913   6.476   2.587  1.5843 -1.6171 -1.8531
 2733TIP3    H2 8164   5.025   6.446   2.684 -0.3878  0.2800  1.1847
 2734TIP3   OH2 8165   1.104   2.455   5.707 -0.3956 -0.3354  1.0247
 2734TIP3    H1 8166   1.039   2.399   5.664  1.4167 -1.3655 -0.5672
 2734TIP3    H2 8167   1.172   2.394   5.736  0.4947  0.8138  1.4401
 2735TIP3   OH2 8168   6.920   2.369   3.452 -0.3316  0.2169 -0.3248
 2735TIP3    H1 8169   6.985   2.397   3.517 -1.0266 -0.6329  0.7514
 2735TIP3    H2 8170   6.973   2.332   3.381  0.4177  0.8567 -0.1290
 2736TIP3   OH2 8171   4.464   3.094   1.323  0.0139  0.1458 -0.1179
 2736TIP3    H1 8172   4.437   3.022   1.266  1.3948 -1.1389  0.7640
 2736TIP3    H2 8173   4.384   3.124   1.364 -0.6449 -0.6560 -0.7722
 2737TIP3   OH2 8174   6.497   0.419   3.997 -0.7812  0.0551  0.5339
 2737TIP3    H1 8175   6.560   0.381   4.058 -0.8790  1.0886  1.3075
 2737TIP3    H2 8176   6.548   0.484   3.948 -1.3113  1.2776  1.5269
 2738TIP3   OH2 8177   3.241   2.854   3.488 -0.4373 -0.2403  0.0023
 2738TIP3    H1 8178   3.234   2.950   3.490  0.3915 -0.1570 -0.5834
 2738TIP3    H2 8179   3.335   2.837   3.475 -0.8194 -1.0822 -2.1224
 2739TIP3   OH2 8180   3.746   3.729   1.318 -0.2715 -0.3604  0.0299
 2739TIP3    H1 8181   3.779   3.777   1.241 -0.0894 -3.1416 -1.7598
 2739TIP3    H2 8182   3.676   3.674   1.283 -1.3567 -0.4837  2.2470
 2740TIP3   OH2 8183   4.243   3.258   3.243 -0.3486  0.5691  0.4601
 2740TIP3    H1 8184   4.251   3.186   3.306  1.9653 -0.7664 -1.2071
 2740TIP3    H2 8185   4.191   3.222   3.172 -0.2882  0.9994  0.1969
 2741TIP3   OH2 8186   2.544   0.647   4.963 -0.0053 -0.1546  0.5961
 2741TIP3    H1 8187   2.527   0.565   5.009  0.5268 -0.3457  0.4580
 2741TIP3    H2 8188   2.462   0.665   4.916  0.0494 -0.8921  0.1928
 2742TIP3   OH2 8189   1.270   4.272   5.472  0.2635 -0.0181  0.5137
 2742TIP3    H1 8190   1.284   4.366   5.465 -1.0811  0.2575  1.3455
 2742TIP3    H2 8191   1.186   4.256   5.429  0.2438 -0.7660  0.8099
 2743TIP3   OH2 8192   4.303   2.335   5.076  0.0274  0.4461  0.2311
 2743TIP3    H1 8193   4.207   2.334   5.078 -0.1097 -3.8896  0.5690
 2743TIP3    H2 8194   4.325   2.319   4.984  0.6898  4.1684 -0.4253
 2744TIP3   OH2 8195   6.864   2.372   0.892  0.0052 -0.2701  0.0026
 2744TIP3    H1 8196   6.851   2.461   0.857  0.5861 -0.8231 -1.7430
 2744TIP3    H2 8197   6.910   2.385   0.974 -0.6904  1.0831  0.2102
 2745TIP3   OH2 8198   1.845   0.173   3.109  0.0587  0.4933  0.7788
 2745TIP3    H1 8199   1.856   0.185   3.203  0.9633 -1.6413  0.9949
 2745TIP3    H2 8200   1.934   0.160   3.076 -0.3132  0.4912 -0.2622
 2746TIP3   OH2 8201   4.005   0.237   2.478 -0.1787 -0.3306  0.7210
 2746TIP3    H1 8202   3.982   0.321   2.516 -0.5921  0.2206 -0.7087
 2746TIP3    H2 8203   4.030   0.256   2.388  0.6577 -1.6161  0.6464
 2747TIP3   OH2 8204   6.049   0.087   3.429  0.1014  0.0055  0.1620
 2747TIP3    H1 8205   6.119   0.080   3.364  0.6402 -2.0587  0.8881
 2747TIP3    H2 8206   5.969   0.090   3.378  0.5691 -0.5512 -0.6304
 2748TIP3   OH2 8207   4.001   2.993   3.296 -0.6310 -0.0208  0.2530
 2748TIP3    H1 8208   4.058   2.941   3.239 -0.4522  0.0482  0.3689
 2748TIP3    H2 8209   4.060   3.027   3.364 -0.7304  0.4338  0.1089
 2749TIP3   OH2 8210   0.611   1.415   4.584 -0.0701  0.6399  0.1338
 2749TIP3    H1 8211   0.658   1.454   4.511 -1.1193  0.2098 -0.7925
 2749TIP3    H2 8212   0.646   1.326   4.590  0.2118  0.7619  0.3466
 2750TIP3   OH2 8213   3.209   5.147   1.512 -0.2140  0.1754 -0.5736
 2750TIP3    H1 8214   3.245   5.209   1.575 -0.3208 -0.8895  0.5586
 2750TIP3    H2 8215   3.272   5.147   1.440  0.1220  1.1026 -0.2940
 2751TIP3   OH2 8216   0.180   1.669   1.857 -0.4417 -0.3716  0.6118
 2751TIP3    H1 8217   0.227   1.606   1.910  1.1511  0.8571  0.7407
 2751TIP3    H2 8218   0.234   1.681   1.778 -1.0000  0.3820  0.3198
 2752TIP3   OH2 8219   0.962   0.731   3.058  0.2048  0.2330  0.0994
 2752TIP3    H1 8220   0.888   0.772   3.014 -1.5896 -1.0685  1.7676
 2752TIP3    H2 8221   0.923   0.668   3.119  2.6425  0.0832  1.6564
 2753TIP3   OH2 8222   6.387   1.961   5.386  0.1137  0.1105 -0.0506
 2753TIP3    H1 8223   6.418   2.000   5.304  0.1038  0.1984 -0.0126
 2753TIP3    H2 8224   6.357   1.874   5.361 -0.4912  0.3692 -0.2608
 2754TIP3   OH2 8225   5.829   2.165   3.801 -0.0299 -0.1296 -0.0469
 2754TIP3    H1 8226   5.879   2.152   3.720 -1.3171 -1.2269 -0.6934
 2754TIP3    H2 8227   5.766   2.233   3.779 -0.4968 -0.5547 -0.0299
 2755TIP3   OH2 8228   1.081   4.859   0.936 -0.2945  0.3613 -0.2204
 2755TIP3    H1 8229   1.083   4.953   0.917 -0.1968  0.0976 -1.6652
 2755TIP3    H2 8230   1.016   4.824   0.875 -0.9411 -0.4110  0.8702
 2756TIP3   OH2 8231   1.132   5.561   5.577 -0.2624 -0.5499 -0.1305
 2756TIP3    H1 8232   1.218   5.567   5.620 -0.0792  0.4600 -0.6251
 2756TIP3    H2 8233   1.081   5.633   5.613 -0.6398 -0.6583 -0.4348
 2757TIP3   OH2 8234   4.432   2.268   1.239  0.2904  0.3796  0.2371
 2757TIP3    H1 8235   4.416   2.361   1.221 -0.9934 -0.0136 -0.8383
 2757TIP3    H2 8236   4.413   2.259   1.332 -1.6737  0.8222 -0.0793
 2758TIP3   OH2 8237   6.739   5.525   4.181 -0.1630 -0.1117 -0.1583
 2758TIP3    H1 8238   6.805   5.594   4.172  1.0273 -1.4275 -2.8448
 2758TIP3    H2 8239   6.656   5.568   4.166  0.4128  0.9961 -0.2335
 2759TIP3   OH2 8240   2.999   6.404   3.678 -0.5040  0.2626  0.7328
 2759TIP3    H1 8241   2.922   6.348   3.676 -0.5270  0.3104  0.2989
 2759TIP3    H2 8242   3.016   6.426   3.586  0.5239 -0.4187  0.7469
 2760TIP3   OH2 8243   1.011   4.285   4.726 -0.6129  0.3061  0.0391
 2760TIP3    H1 8244   1.098   4.265   4.691 -1.0392 -0.9527 -0.3402
 2760TIP3    H2 8245   1.021   4.276   4.821 -0.1964  0.7417  0.0410
 2761TIP3   OH2 8246   5.996   4.653   0.412  0.4629 -0.4370 -0.0296
 2761TIP3    H1 8247   6.086   4.626   0.430  0.7161  0.1885 -0.3083
 2761TIP3    H2 8248   5.978   4.722   0.476  0.8795  0.8046 -1.1908
 2762TIP3   OH2 8249   6.086   0.992   5.206  0.7196 -0.4963 -0.0020
 2762TIP3    H1 8250   6.026   0.998   5.132 -0.0274  2.2648  0.7155
 2762TIP3    H2 8251   6.037   0.941   5.271 -0.6016  1.0227  0.2624
 2763TIP3   OH2 8252   5.802   4.578   3.360 -0.4081  0.8039 -0.2509
 2763TIP3    H1 8253   5.833   4.491   3.383  0.6026  0.7868 -1.5625
 2763TIP3    H2 8254   5.714   4.563   3.325 -0.5241  0.4110  0.1973
 2764TIP3   OH2 8255   0.348   1.746   1.230 -0.2159 -0.0931 -0.6980
 2764TIP3    H1 8256   0.346   1.681   1.160 -4.1472 -0.0941 -0.8128
 2764TIP3    H2 8257   0.256   1.769   1.244  0.6024  1.7885  2.7578
 2765TIP3   OH2 8258   2.784   1.691   4.710 -0.5286  0.3811 -0.4914
 2765TIP3    H1 8259   2.850   1.624   4.696  1.5517  2.0609  0.6967
 2765TIP3    H2 8260   2.757   1.717   4.622  1.2032  0.3819 -1.0574
 2766TIP3   OH2 8261   4.227   1.501   0.020 -0.5267 -0.2426 -0.5679
 2766TIP3    H1 8262   4.297   1.544   0.068  1.7848 -0.6809 -3.2514
 2766TIP3    H2 8263   4.156   1.565   0.018  1.4333  2.0457 -1.3393
 2767TIP3   OH2 8264   2.241   1.723   4.327 -0.0976 -0.4479 -0.6756
 2767TIP3    H1 8265   2.226   1.645   4.380  0.5337 -0.3659 -0.3714
 2767TIP3    H2 8266   2.154   1.749   4.297 -0.5666 -0.0337  0.9654
 2768TIP3   OH2 8267   6.827   2.006   3.843  0.0967  0.1726  0.1342
 2768TIP3    H1 8268   6.792   1.973   3.760  1.3637  0.4920 -0.5517
 2768TIP3    H2 8269   6.909   2.049   3.819  0.3122  0.5724  1.5150
 2769TIP3   OH2 8270   2.431   2.798   3.210  0.1456  0.2630 -0.6210
 2769TIP3    H1 8271   2.457   2.841   3.291 -0.4365 -1.9146  0.8190
 2769TIP3    H2 8272   2.509   2.750   3.182 -0.6998 -2.2195  0.9480
 2770TIP3   OH2 8273   5.957   6.161   4.503  0.0260  0.0320  0.2209
 2770TIP3    H1 8274   5.890   6.225   4.528  0.4597 -0.1524  2.0296
 2770TIP3    H2 8275   5.913   6.076   4.508  0.4308 -0.1269  1.8031
 2771TIP3   OH2 8276   5.900   1.244   1.986 -0.4559  0.3039 -0.4385
 2771TIP3    H1 8277   5.988   1.277   1.968  0.3476 -0.4013  1.9068
 2771TIP3    H2 8278   5.907   1.149   1.975 -1.1834  0.3182 -1.1302
 2772TIP3   OH2 8279   0.401   3.664   4.544 -0.5176 -0.3099 -0.5218
 2772TIP3    H1 8280   0.415   3.620   4.628  1.5996 -1.6242 -1.4623
 2772TIP3    H2 8281   0.489   3.670   4.506 -1.0678  2.5676 -1.5739
 2773TIP3   OH2 8282   1.306   0.404   0.161  0.2497 -0.3912  0.7285
 2773TIP3    H1 8283   1.241   0.342   0.194  0.6411 -0.9326  0.5067
 2773TIP3    H2 8284   1.388   0.378   0.204  0.4020  0.0323  0.7012
 2774TIP3   OH2 8285   6.161   5.057   5.229  1.0394  0.5449 -0.4651
 2774TIP3    H1 8286   6.110   4.982   5.261  0.5938  0.1369 -2.0307
 2774TIP3    H2 8287   6.179   5.109   5.308  0.8593 -0.8930  0.5708
 2775TIP3   OH2 8288   6.800   5.957   1.268  0.2350  0.2150  0.2010
 2775TIP3    H1 8289   6.717   5.954   1.316  0.4569  2.7285  0.8865
 2775TIP3    H2 8290   6.786   5.900   1.193 -1.8771  0.0171  0.6674
 2776TIP3   OH2 8291   4.770   4.099   4.660 -0.3470 -0.6096 -0.0836
 2776TIP3    H1 8292   4.706   4.083   4.591 -1.1503 -0.6361  0.6467
 2776TIP3    H2 8293   4.828   4.024   4.657  0.2703 -0.1182 -1.4032
 2777TIP3   OH2 8294   4.220   6.726   4.899 -0.1566 -0.5843 -0.0127
 2777TIP3    H1 8295   4.287   6.659   4.883 -0.5390 -0.5938 -1.7244
 2777TIP3    H2 8296   4.258   6.781   4.967  1.0636 -1.3182 -0.0645
 2778TIP3   OH2 8297   3.522   6.371   2.707 -0.0063  0.1094  0.1568
 2778TIP3    H1 8298   3.514   6.463   2.681 -1.3979 -0.1613 -0.4373
 2778TIP3    H2 8299   3.594   6.371   2.770  1.6137  1.2403 -1.5648
 2779TIP3   OH2 8300   3.192   2.156   3.544  0.1128  0.1570 -0.4691
 2779TIP3    H1 8301   3.230   2.168   3.631 -1.6462 -1.2431  0.5465
 2779TIP3    H2 8302   3.157   2.242   3.521  0.2327  0.4411  0.3792
 2780TIP3   OH2 8303   6.081   1.875   4.574 -0.3747  0.3367 -0.6220
 2780TIP3    H1 8304   6.028   1.902   4.499  0.3347  0.1108 -1.2159
 2780TIP3    H2 8305   6.052   1.786   4.593 -1.3622  0.7999  0.1130
 2781TIP3   OH2 8306   4.751   1.775   3.943  0.0733  0.1886  0.3747
 2781TIP3    H1 8307   4.787   1.830   4.013  0.0484 -0.2441  0.7333
 2781TIP3    H2 8308   4.665   1.749   3.976  1.2545 -2.5178  1.5840
 2782TIP3   OH2 8309   6.283   5.732   3.006  0.0474  0.5320  0.1617
 2782TIP3    H1 8310   6.201   5.780   2.997 -0.0416  0.5417  1.0165
 2782TIP3    H2 8311   6.280   5.694   3.093 -1.5371 -4.1510 -1.6226
 2783TIP3   OH2 8312   6.488   3.612   1.419 -0.2591  0.4840 -0.5280
 2783TIP3    H1 8313   6.543   3.647   1.488 -0.8776 -0.3749  0.4242
 2783TIP3    H2 8314   6.404   3.594   1.462 -0.2476 -1.2905 -1.1804
 2784TIP3   OH2 8315   0.743   1.827   0.433  0.2116  0.3060 -0.6181
 2784TIP3    H1 8316   0.775   1.912   0.403  0.5004  0.1675 -0.7002
 2784TIP3    H2 8317   0.820   1.784   0.471 -0.2195  0.6487  0.7222
 2785TIP3   OH2 8318   5.893   5.191   1.828  0.3197 -0.0778 -0.0612
 2785TIP3    H1 8319   5.801   5.219   1.829 -0.1499 -1.5531  0.1423
 2785TIP3    H2 8320   5.894   5.110   1.878  1.9505  0.4800  0.8664
 2786TIP3   OH2 8321   5.728   2.657   1.257  0.0709 -0.2197 -0.6476
 2786TIP3    H1 8322   5.726   2.749   1.285 -0.3473 -0.2794 -0.4784
 2786TIP3    H2 8323   5.813   2.647   1.215  0.1560  0.2234 -0.5860
 2787TIP3   OH2 8324   2.214   6.448   2.361  0.0096 -0.3001 -0.7185
 2787TIP3    H1 8325   2.128   6.489   2.360 -0.2306 -0.7957 -0.3885
 2787TIP3    H2 8326   2.246   6.462   2.450  0.9109  1.1845 -1.2253
 2788TIP3   OH2 8327   6.914   6.043   5.882 -0.7790  0.7531 -0.0269
 2788TIP3    H1 8328   6.961   6.045   5.799 -1.6135  1.6997 -0.4878
 2788TIP3    H2 8329   6.822   6.034   5.857 -1.1407  2.0993  0.7425
 2789TIP3   OH2 8330   1.272   0.245   4.985 -0.2288  0.4902  0.0920
 2789TIP3    H1 8331   1.207   0.262   4.916  0.0041 -0.4331 -0.3703
 2789TIP3    H2 8332   1.306   0.332   5.008 -0.6434  0.8523 -0.6260
 2790TIP3   OH2 8333   1.101   3.915   2.188  0.4423  0.5767 -0.4615
 2790TIP3    H1 8334   1.010   3.913   2.218  1.1401 -1.8543  1.8751
 2790TIP3    H2 8335   1.098   3.874   2.101 -0.7182  0.8818 -0.5879
 2791TIP3   OH2 8336   6.884   3.854   5.322 -0.0883 -0.1348  0.2156
 2791TIP3    H1 8337   6.850   3.903   5.397 -0.0963  0.3718 -0.1171
 2791TIP3    H2 8338   6.888   3.763   5.353  1.2569  0.2581  1.3271
 2792TIP3   OH2 8339   3.440   6.077   1.191 -0.2187 -0.1885 -0.6481
 2792TIP3    H1 8340   3.526   6.056   1.227  0.0431  1.3890 -0.2369
 2792TIP3    H2 8341   3.425   6.013   1.122  1.1167 -0.7208 -0.4642
 2793TIP3   OH2 8342   5.279   3.930   2.811 -0.0256  0.3302  0.0049
 2793TIP3    H1 8343   5.282   3.881   2.893  0.1566 -1.1505 -0.8402
 2793TIP3    H2 8344   5.359   3.983   2.811  0.3153 -0.1778  0.4837
 2794TIP3   OH2 8345   3.008   0.062   3.524  0.4275  0.0628  0.0685
 2794TIP3    H1 8346   3.013  -0.011   3.462  1.3123 -1.3058  1.6493
 2794TIP3    H2 8347   2.919   0.058   3.558  0.2797  0.1117 -0.3136
 2795TIP3   OH2 8348   1.962   2.125   3.064 -0.2271 -0.0347 -0.0349
 2795TIP3    H1 8349   2.032   2.063   3.079 -1.0510 -1.0638 -0.3258
 2795TIP3    H2 8350   1.992   2.206   3.105  0.3730 -0.9431  1.3928
 2796TIP3   OH2 8351   3.624   4.413   4.708 -0.3974 -0.1791  0.2665
 2796TIP3    H1 8352   3.558   4.471   4.746  0.7125  1.4549 -0.1968
 2796TIP3    H2 8353   3.609   4.418   4.614 -0.3806 -0.7752  0.2312
 2797TIP3   OH2 8354   6.227   5.546   5.039  0.0208 -0.2836 -0.0116
 2797TIP3    H1 8355   6.275   5.466   5.059 -1.5696 -1.3939 -0.4591
 2797TIP3    H2 8356   6.289   5.617   5.060  0.2767 -1.4423  3.8840
 2798TIP3   OH2 8357   0.386   2.401   0.224 -0.1674 -0.5166 -0.0923
 2798TIP3    H1 8358   0.412   2.425   0.135 -0.4092 -1.9220 -0.5757
 2798TIP3    H2 8359   0.296   2.432   0.232  0.7379  2.2468  0.7565
 2799TIP3   OH2 8360   4.694   1.062   5.098 -0.3051  0.1559  0.1224
 2799TIP3    H1 8361   4.727   1.113   5.171 -2.7107  0.1579  1.3088
 2799TIP3    H2 8362   4.758   1.075   5.028  1.1991  1.5086  1.6768
 2800TIP3   OH2 8363   5.396   5.201   4.286 -0.3338  0.1123  0.1090
 2800TIP3    H1 8364   5.418   5.140   4.356 -0.0589 -0.4687 -0.4608
 2800TIP3    H2 8365   5.398   5.287   4.326  0.9846 -0.1085  0.5494
 2801TIP3   OH2 8366   4.656   3.054   0.314  0.3705  0.3251  0.7264
 2801TIP3    H1 8367   4.668   3.012   0.229  1.2196  0.6429  0.6691
 2801TIP3    H2 8368   4.562   3.060   0.325  0.2239 -1.3173  0.6139
 2802TIP3   OH2 8369   4.693   4.277   5.108  0.6478  0.1950  0.2021
 2802TIP3    H1 8370   4.674   4.266   5.015  0.5578 -1.0093  0.3491
 2802TIP3    H2 8371   4.747   4.201   5.131  1.0155  0.6937  1.0407
 2803TIP3   OH2 8372   1.573   0.524   5.466 -0.8188  0.1438 -0.2157
 2803TIP3    H1 8373   1.565   0.476   5.383 -0.4124  0.8509 -0.6789
 2803TIP3    H2 8374   1.487   0.565   5.478 -1.5888 -1.6546  0.8209
 2804TIP3   OH2 8375   4.762   0.082   5.521  0.2188  0.0953 -0.3832
 2804TIP3    H1 8376   4.821   0.112   5.453  0.4635 -0.0177 -0.2245
 2804TIP3    H2 8377   4.764  -0.014   5.514 -0.9221  0.1061 -1.2009
 2805TIP3   OH2 8378   1.096   0.048   5.083 -0.3289 -0.0807  0.4133
 2805TIP3    H1 8379   1.116  -0.040   5.050  0.1284  0.1601  0.0401
 2805TIP3    H2 8380   1.170   0.102   5.055 -0.0690  0.2015  1.5743
 2806TIP3   OH2 8381   2.402   0.503   2.486 -0.4246 -0.0403  0.0345
 2806TIP3    H1 8382   2.458   0.427   2.500 -1.1117 -1.0084 -2.1249
 2806TIP3    H2 8383   2.462   0.573   2.461 -0.0261 -0.6247 -0.6627
 2807TIP3   OH2 8384   0.116   3.401   0.116  0.7714 -0.3500 -0.5449
 2807TIP3    H1 8385   0.110   3.483   0.066 -0.5414  0.9859  1.6466
 2807TIP3    H2 8386   0.040   3.350   0.089  1.3995 -0.7462 -1.6532
 2808TIP3   OH2 8387   2.236   3.241   4.772  0.0803  0.6704  0.4350
 2808TIP3    H1 8388   2.307   3.258   4.710 -0.3938 -0.9620 -0.6115
 2808TIP3    H2 8389   2.175   3.313   4.759  0.5703  0.9954 -0.1243
 2809TIP3   OH2 8390   5.824   1.163   3.942 -0.3150 -0.1572 -0.5563
 2809TIP3    H1 8391   5.874   1.222   3.998 -1.7289 -1.6312  2.5424
 2809TIP3    H2 8392   5.738   1.205   3.935 -0.9178 -1.1306  0.5735
 2810TIP3   OH2 8393   5.814   2.428   1.439  0.4035  0.4158  0.0325
 2810TIP3    H1 8394   5.724   2.453   1.460 -0.7186 -3.7369  1.1722
 2810TIP3    H2 8395   5.807   2.389   1.352  0.8926 -0.6495  0.4571
 2811TIP3   OH2 8396   4.173   0.280   3.245 -0.2629 -0.7600  0.0415
 2811TIP3    H1 8397   4.149   0.352   3.304  1.4612 -0.5305  0.5227
 2811TIP3    H2 8398   4.090   0.247   3.212 -1.3636 -1.1130  2.8906
 2812TIP3   OH2 8399   3.508   5.442   2.882 -0.2841 -0.4009  0.8810
 2812TIP3    H1 8400   3.536   5.503   2.950  0.2876 -0.5981  0.8297
 2812TIP3    H2 8401   3.457   5.495   2.821  2.3575  0.6353 -0.5792
 2813TIP3   OH2 8402   2.753   6.638   5.198  0.2002  0.1334 -0.5721
 2813TIP3    H1 8403   2.719   6.606   5.114 -0.1579 -1.2226  0.0553
 2813TIP3    H2 8404   2.786   6.559   5.241 -0.9065  0.5673  1.1436
 2814TIP3   OH2 8405   3.364   1.524   4.334 -0.4096  0.5049  0.0095
 2814TIP3    H1 8406   3.399   1.606   4.369 -0.3049  0.4656 -0.0019
 2814TIP3    H2 8407   3.355   1.540   4.240  2.7845 -0.5577 -0.6192
 2815TIP3   OH2 8408   1.052   5.239   4.637 -0.4388  0.1023  0.5403
 2815TIP3    H1 8409   0.964   5.277   4.635  0.3202  1.9258 -0.5793
 2815TIP3    H2 8410   1.071   5.225   4.729 -1.1986  1.4185  0.9142
 2816TIP3   OH2 8411   2.046   4.972   5.427  0.0718  0.1400  0.2063
 2816TIP3    H1 8412   2.099   4.984   5.349 -0.7299 -1.4834 -0.6494
 2816TIP3    H2 8413   1.962   4.941   5.394 -0.3616 -0.3627  1.7038
 2817TIP3   OH2 8414   1.607   0.373   5.702 -0.4845  0.2636  0.2462
 2817TIP3    H1 8415   1.557   0.297   5.675  1.5273 -0.8493 -0.5504
 2817TIP3    H2 8416   1.598   0.435   5.630 -2.0887  0.8212  0.8770
 2818TIP3   OH2 8417   3.724   6.281   1.654  0.4531  0.0356  0.6176
 2818TIP3    H1 8418   3.677   6.301   1.572  1.6174  0.7240  0.0896
 2818TIP3    H2 8419   3.728   6.186   1.657  0.2773  0.0018 -0.0731
 2819TIP3   OH2 8420   6.307   4.410   2.969 -0.3849  0.0828 -0.2077
 2819TIP3    H1 8421   6.303   4.503   2.945  2.7736  0.2380 -0.6107
 2819TIP3    H2 8422   6.397   4.397   2.999 -0.4003 -3.0692 -1.1694
 2820TIP3   OH2 8423   1.354   4.134   4.826 -0.0179 -0.2774 -0.3522
 2820TIP3    H1 8424   1.317   4.096   4.747 -1.2988 -1.6450  0.8431
 2820TIP3    H2 8425   1.348   4.065   4.891 -0.2891  1.2303  1.3171
 2821TIP3   OH2 8426   0.740   0.621   4.288  0.1525  0.3041 -0.2546
 2821TIP3    H1 8427   0.693   0.687   4.237  1.9149  0.8129 -1.3094
 2821TIP3    H2 8428   0.761   0.664   4.370  0.3565  0.7105 -0.5138
 2822TIP3   OH2 8429   4.439   4.309   0.274 -0.1619 -0.0569  0.2044
 2822TIP3    H1 8430   4.481   4.360   0.206  0.5129 -1.3215 -0.3658
 2822TIP3    H2 8431   4.374   4.256   0.228  1.0745 -1.7669  0.3115
 2823TIP3   OH2 8432   1.340   3.148   2.726  0.2179 -0.2722  0.6308
 2823TIP3    H1 8433   1.378   3.185   2.806 -2.2111 -0.2653  1.8882
 2823TIP3    H2 8434   1.339   3.221   2.664  1.4346 -0.0629  0.8279
 2824TIP3   OH2 8435   1.425   6.746   2.937  0.3357 -0.0629 -0.3034
 2824TIP3    H1 8436   1.436   6.663   2.983 -0.0453 -0.0999 -0.2774
 2824TIP3    H2 8437   1.331   6.765   2.942 -0.1362 -1.2637 -3.0921
 2825TIP3   OH2 8438   0.239   0.360   0.139  0.3142  0.1602 -0.3949
 2825TIP3    H1 8439   0.198   0.297   0.199 -0.7161 -0.1392 -1.3764
 2825TIP3    H2 8440   0.176   0.369   0.067  1.5788  0.3779 -1.5156
 2826TIP3   OH2 8441   2.044   5.001   3.207  0.0479 -0.3165 -0.2601
 2826TIP3    H1 8442   1.983   5.071   3.186 -0.8248  0.3957  3.7509
 2826TIP3    H2 8443   2.129   5.045   3.212  0.1411 -0.3517 -1.3813
 2827TIP3   OH2 8444   5.055   4.267   2.569  0.5365 -0.2920 -0.0654
 2827TIP3    H1 8445   4.979   4.271   2.628  0.6243  0.4532  0.0132
 2827TIP3    H2 8446   5.020   4.296   2.485  0.3333 -1.6878 -0.4768
 2828TIP3   OH2 8447   5.651   0.676   0.120 -0.3660 -0.1089 -0.2257
 2828TIP3    H1 8448   5.695   0.758   0.099 -0.0846 -0.4397 -0.9610
 2828TIP3    H2 8449   5.562   0.701   0.146 -0.1049  0.4658  0.1261
 2829TIP3   OH2 8450   2.173   6.760   3.432 -0.2308  0.2052  0.6110
 2829TIP3    H1 8451   2.112   6.824   3.396  0.7800  1.2860  0.7600
 2829TIP3    H2 8452   2.126   6.676   3.426 -0.2656  0.3300 -2.9151
 2830TIP3   OH2 8453   0.482   2.659   4.236  0.0251  0.0205 -0.7381
 2830TIP3    H1 8454   0.389   2.650   4.259  0.1230 -0.3697 -0.4953
 2830TIP3    H2 8455   0.499   2.588   4.175  0.4754 -0.6918  0.1910
 2831TIP3   OH2 8456   1.564   3.919   4.860  0.1208  0.2260 -0.0434
 2831TIP3    H1 8457   1.650   3.909   4.819  0.0823  0.0952 -0.0931
 2831TIP3    H2 8458   1.506   3.861   4.809  0.5021 -1.5801  1.4755
 2832TIP3   OH2 8459   6.538   0.070   0.416  0.2904 -0.3984 -0.9253
 2832TIP3    H1 8460   6.501   0.110   0.495 -0.9351 -0.7900 -1.2769
 2832TIP3    H2 8461   6.610   0.127   0.392 -0.3942  0.6838 -0.4806
 2833TIP3   OH2 8462   5.087   6.248   4.989 -0.4918  0.4695 -0.7843
 2833TIP3    H1 8463   5.097   6.216   5.078  0.8389  1.6800 -0.4544
 2833TIP3    H2 8464   5.069   6.170   4.937  0.0964 -0.4494  0.3459
 2834TIP3   OH2 8465   1.696   0.496   4.768 -0.2336 -0.5820  0.0596
 2834TIP3    H1 8466   1.668   0.566   4.709 -0.1044  0.8520  1.6609
 2834TIP3    H2 8467   1.774   0.530   4.812 -0.0692 -1.7986  0.7652
 2835TIP3   OH2 8468   1.322   3.872   1.449 -0.3778  0.2900 -0.1257
 2835TIP3    H1 8469   1.386   3.819   1.401  0.1769  0.6709  0.1753
 2835TIP3    H2 8470   1.363   3.887   1.535  0.5140  3.0431 -0.9214
 2836TIP3   OH2 8471   4.048   4.332   2.458  0.1831 -0.7842  0.0307
 2836TIP3    H1 8472   3.966   4.333   2.408 -0.7543  0.2481  1.5350
 2836TIP3    H2 8473   4.081   4.421   2.452  0.7321 -0.9731  0.1920
 2837TIP3   OH2 8474   4.710   0.354   1.510  0.2142  0.5034  0.2434
 2837TIP3    H1 8475   4.802   0.372   1.491  0.2795 -0.0145  0.0673
 2837TIP3    H2 8476   4.667   0.355   1.425  0.7552 -3.2913 -0.2426
 2838TIP3   OH2 8477   1.022   1.991   1.295  0.2316  0.1316  0.0516
 2838TIP3    H1 8478   1.011   1.976   1.201 -1.0328 -1.4981  0.4005
 2838TIP3    H2 8479   1.029   1.902   1.332 -0.0228  0.7124  1.5663
 2839TIP3   OH2 8480   5.470   0.069   0.128  0.1704  0.2217  0.0194
 2839TIP3    H1 8481   5.529  -0.001   0.100 -0.2984 -0.7832  1.4469
 2839TIP3    H2 8482   5.383   0.030   0.125 -0.2990  1.3005 -0.8437
 2840TIP3   OH2 8483   1.871   3.096   5.051 -0.4459  0.4516 -0.5080
 2840TIP3    H1 8484   1.933   3.103   4.978  1.8912  0.3541  1.3303
 2840TIP3    H2 8485   1.847   3.004   5.054  0.9065  0.0883 -0.0858
 2841TIP3   OH2 8486   0.269   0.919   4.060  0.2678 -0.4659  0.1907
 2841TIP3    H1 8487   0.311   0.952   3.981 -0.0424 -2.7188 -0.9972
 2841TIP3    H2 8488   0.310   0.969   4.131 -0.4552  2.6404 -1.4128
 2842TIP3   OH2 8489   6.905   5.879   2.432 -0.1973  0.0331 -0.3421
 2842TIP3    H1 8490   6.990   5.850   2.400 -0.7749  0.5969 -2.5851
 2842TIP3    H2 8491   6.842   5.818   2.393 -0.9751  0.9943 -0.6527
 2843TIP3   OH2 8492   5.225   1.084   0.700 -0.7709  0.2744  0.2229
 2843TIP3    H1 8493   5.210   1.137   0.622 -1.5577  0.3280  0.4062
 2843TIP3    H2 8494   5.212   0.993   0.671  0.7123  0.1466 -0.1242
 2844TIP3   OH2 8495   2.780   3.777   1.042  0.5729 -0.2745 -0.9800
 2844TIP3    H1 8496   2.866   3.818   1.051  0.2198  0.0619  1.6260
 2844TIP3    H2 8497   2.718   3.849   1.054 -0.0438 -0.8755 -0.4770
 2845TIP3   OH2 8498   3.859   3.960   3.040 -0.3065  0.3296  0.1087
 2845TIP3    H1 8499   3.923   3.926   2.978 -1.0747 -0.2257 -0.4073
 2845TIP3    H2 8500   3.895   3.939   3.126  0.2033  0.0345 -0.1727
 2846TIP3   OH2 8501   3.372   5.665   1.215  0.0723 -0.1677  0.1081
 2846TIP3    H1 8502   3.307   5.717   1.262 -0.4017 -0.5573 -0.1071
 2846TIP3    H2 8503   3.428   5.730   1.171  0.1035  0.1786  0.6470
 2847TIP3   OH2 8504   3.070   6.736   1.560 -0.5669  0.3966 -0.4286
 2847TIP3    H1 8505   3.007   6.701   1.622 -0.3955  0.7049 -0.0766
 2847TIP3    H2 8506   3.127   6.661   1.539  0.5704  0.7307  1.2834
 2848TIP3   OH2 8507   0.868   5.908   2.217  0.3103  0.6251 -0.9334
 2848TIP3    H1 8508   0.777   5.900   2.247  0.1570  0.4571 -1.4231
 2848TIP3    H2 8509   0.918   5.856   2.280 -0.2096 -1.0628 -1.8534
 2849TIP3   OH2 8510   4.905   1.614   3.164  0.2543  0.0841  0.0585
 2849TIP3    H1 8511   4.902   1.551   3.092  0.5256 -1.3448  1.2498
 2849TIP3    H2 8512   4.933   1.562   3.240 -1.0769  1.2837  1.4372
 2850TIP3   OH2 8513   5.564   6.046   1.726 -0.5360 -0.6692 -0.5791
 2850TIP3    H1 8514   5.490   6.060   1.786 -0.6396 -1.7234 -0.4443
 2850TIP3    H2 8515   5.529   5.987   1.659  0.2580 -1.3861 -0.3694
 2851TIP3   OH2 8516   5.176   4.986   4.884 -0.4554  0.4619 -0.3302
 2851TIP3    H1 8517   5.118   4.940   4.944 -0.0375  0.7495  0.3032
 2851TIP3    H2 8518   5.167   4.939   4.801 -0.0650 -0.7174  0.2892
 2852TIP3   OH2 8519   0.858   6.539   2.395  0.3296  0.1546  0.3071
 2852TIP3    H1 8520   0.869   6.511   2.304 -0.1755  0.4827  0.1386
 2852TIP3    H2 8521   0.796   6.611   2.390 -0.7588 -0.6884  1.0471
 2853TIP3   OH2 8522   0.212   0.658   0.276  0.1488 -0.3883  0.1469
 2853TIP3    H1 8523   0.249   0.571   0.262  1.0048 -0.2064  1.1873
 2853TIP3    H2 8524   0.271   0.699   0.339 -0.1117  1.0351 -0.5090
 2854TIP3   OH2 8525   4.295   6.333   4.295  0.2798  0.1907 -0.3034
 2854TIP3    H1 8526   4.233   6.322   4.368  1.5749 -1.6411  0.5952
 2854TIP3    H2 8527   4.358   6.397   4.327  0.0905  0.3920 -0.3355
 2855TIP3   OH2 8528   1.529   2.499   3.992  0.6159  0.5527 -0.1548
 2855TIP3    H1 8529   1.510   2.407   3.970  1.3361  0.3713 -0.0504
 2855TIP3    H2 8530   1.569   2.535   3.913 -0.8223  1.1486 -0.6418
 2856TIP3   OH2 8531   1.306   2.095   0.022 -0.2726  0.5951 -0.2233
 2856TIP3    H1 8532   1.385   2.043   0.016 -0.9180 -0.4352 -0.0373
 2856TIP3    H2 8533   1.336   2.186   0.013  0.8185  0.1799 -0.9435
 2857TIP3   OH2 8534   4.391   1.267   5.303 -0.2661  0.0351  0.0264
 2857TIP3    H1 8535   4.387   1.354   5.344 -2.4742  0.1599 -0.2994
 2857TIP3    H2 8536   4.484   1.245   5.302  0.1753  1.4768  2.0165
 2858TIP3   OH2 8537   2.526   0.112   4.456 -0.5353  0.1437 -0.3128
 2858TIP3    H1 8538   2.545   0.021   4.431 -0.1373 -0.0446  0.6216
 2858TIP3    H2 8539   2.431   0.115   4.465 -0.4549 -0.6908  1.3853
 2859TIP3   OH2 8540   3.003   5.499   2.589  0.4991  0.1175 -0.1983
 2859TIP3    H1 8541   2.928   5.554   2.609  1.8279  1.3981  1.6020
 2859TIP3    H2 8542   2.995   5.424   2.648  1.0706  0.7083  0.6547
 2860TIP3   OH2 8543   4.000   2.362   5.082 -0.1426 -0.5056 -0.4020
 2860TIP3    H1 8544   4.023   2.389   4.993 -0.2819 -1.6403 -0.8025
 2860TIP3    H2 8545   3.957   2.277   5.071  0.4951 -1.0117  0.8109
 2861TIP3   OH2 8546   5.924   6.116   3.200 -0.2306 -0.0134 -0.1231
 2861TIP3    H1 8547   5.851   6.122   3.263 -0.6831  1.8428 -0.7720
 2861TIP3    H2 8548   5.929   6.203   3.160 -0.4550 -1.2965 -3.2205
 2862TIP3   OH2 8549   6.442   2.002   4.440 -1.1548 -0.0445 -0.2029
 2862TIP3    H1 8550   6.498   2.048   4.377  0.1188 -0.8943  0.2713
 2862TIP3    H2 8551   6.381   2.069   4.471 -1.5851  0.4733 -2.0593
 2863TIP3   OH2 8552   1.114   4.082   0.693 -0.1862  0.3823 -0.1959
 2863TIP3    H1 8553   1.107   4.172   0.725  0.9093 -0.0437  1.3815
 2863TIP3    H2 8554   1.035   4.039   0.726  0.0494  0.3975  0.4016
 2864TIP3   OH2 8555   0.188   3.449   3.278 -0.4285 -0.1011 -0.1377
 2864TIP3    H1 8556   0.103   3.492   3.277  0.2263  1.2696  0.8542
 2864TIP3    H2 8557   0.202   3.426   3.370  1.0574  1.3443  0.0336
 2865TIP3   OH2 8558   5.818   4.567   4.356  0.1243 -0.1107  0.2465
 2865TIP3    H1 8559   5.736   4.586   4.401  0.1961  1.6939 -0.2987
 2865TIP3    H2 8560   5.791   4.528   4.273 -0.2743  1.4107 -0.3736
 2866TIP3   OH2 8561   2.207   5.991   4.108  0.3581  0.0811  0.2898
 2866TIP3    H1 8562   2.196   5.902   4.142  0.5570 -0.7593 -1.6779
 2866TIP3    H2 8563   2.287   6.024   4.150  1.3990 -1.4380 -0.4264
 2867TIP3   OH2 8564   6.390   6.576   0.472 -0.1923  0.0638  0.0034
 2867TIP3    H1 8565   6.297   6.596   0.484 -0.4418  0.3100 -2.0611
 2867TIP3    H2 8566   6.434   6.660   0.485 -0.5088  0.4459 -1.2340
 2868TIP3   OH2 8567   6.273   3.649   0.278 -0.5585 -0.7146 -0.5277
 2868TIP3    H1 8568   6.217   3.681   0.208 -1.3657 -1.1686 -0.1036
 2868TIP3    H2 8569   6.278   3.723   0.340  0.1718 -0.3074 -1.0559
 2869TIP3   OH2 8570   0.803   1.697   2.611 -0.3240  0.5573  0.3327
 2869TIP3    H1 8571   0.856   1.621   2.635  0.7839  1.1612 -0.1126
 2869TIP3    H2 8572   0.838   1.725   2.526 -2.4313  0.0194 -0.7781
 2870TIP3   OH2 8573   4.573   2.590   0.257 -0.1286  0.5080  0.0365
 2870TIP3    H1 8574   4.538   2.619   0.173  0.4502  2.7189  0.4670
 2870TIP3    H2 8575   4.570   2.495   0.254 -1.0682  0.5551 -2.0636
 2871TIP3   OH2 8576   0.621   1.783   1.263  0.2498 -0.0214 -0.3132
 2871TIP3    H1 8577   0.532   1.791   1.228  0.3688  0.0464 -0.6059
 2871TIP3    H2 8578   0.677   1.815   1.192  0.3740  2.6022  0.8388
 2872TIP3   OH2 8579   4.011   2.077   1.185  0.2137  0.0105 -0.3798
 2872TIP3    H1 8580   3.956   2.130   1.129  0.0428  0.3368  0.0859
 2872TIP3    H2 8581   4.016   2.127   1.267  1.3177  0.0583 -0.4653
 2873TIP3   OH2 8582   5.335   6.283   3.342  0.1285  0.0558  0.0543
 2873TIP3    H1 8583   5.376   6.259   3.259  1.5539 -0.8828  0.9716
 2873TIP3    H2 8584   5.253   6.325   3.318  0.5742 -0.0787 -1.8208
 2874TIP3   OH2 8585   2.339   2.015   4.136 -0.1277 -0.1229 -0.3395
 2874TIP3    H1 8586   2.353   1.980   4.049  0.5610  0.6269 -0.5427
 2874TIP3    H2 8587   2.245   2.009   4.150 -0.1534 -0.9142 -0.8414
 2875TIP3   OH2 8588   7.123   4.829   2.390 -0.3263  0.6914 -0.1478
 2875TIP3    H1 8589   7.029   4.839   2.404 -0.2742  0.7346  0.1900
 2875TIP3    H2 8590   7.161   4.911   2.422 -0.1761  0.6814 -0.2985
 2876TIP3   OH2 8591   3.700   5.270   4.429 -0.1061 -0.0489  0.2573
 2876TIP3    H1 8592   3.757   5.238   4.359  0.3298  1.1601  0.0347
 2876TIP3    H2 8593   3.612   5.239   4.405 -0.2174  1.5017 -1.6095
 2877TIP3   OH2 8594   4.278   5.552   4.205  0.2525  0.0950  0.4134
 2877TIP3    H1 8595   4.369   5.549   4.175  0.0015 -2.2040 -0.2492
 2877TIP3    H2 8596   4.281   5.518   4.294  0.0155 -0.2745  0.2831
 2878TIP3   OH2 8597   0.048   1.296   5.571 -0.1095 -0.2325  0.1084
 2878TIP3    H1 8598   0.012   1.217   5.531 -3.3059  0.7066  0.7905
 2878TIP3    H2 8599   0.089   1.343   5.499  0.7991 -1.9203 -0.5263
 2879TIP3   OH2 8600   4.728   0.106   5.165 -0.0788  0.2640 -0.3010
 2879TIP3    H1 8601   4.759   0.147   5.246  0.1938 -1.4542  0.5298
 2879TIP3    H2 8602   4.637   0.133   5.158 -0.0160  0.7041  0.4136
 2880TIP3   OH2 8603   3.402   5.041   0.885 -0.2186  0.1393 -0.5925
 2880TIP3    H1 8604   3.471   4.980   0.913 -0.9208 -1.6157 -2.4717
 2880TIP3    H2 8605   3.345   5.048   0.961 -0.1120 -1.5961 -0.2990
 2881TIP3   OH2 8606   2.888   4.761   4.486 -0.1317  0.0098 -0.9111
 2881TIP3    H1 8607   2.829   4.760   4.562  1.3997  1.5778  0.3803
 2881TIP3    H2 8608   2.901   4.669   4.465  2.0332 -0.7680  2.9439
 2882TIP3   OH2 8609   5.127   1.629   5.380 -0.0954  0.1742 -0.2629
 2882TIP3    H1 8610   5.194   1.561   5.377 -0.7234 -0.4442 -0.4909
 2882TIP3    H2 8611   5.068   1.607   5.308 -0.9161  0.3226  0.3529
 2883TIP3   OH2 8612   0.724   4.697   3.634  0.0591  0.2730  0.0516
 2883TIP3    H1 8613   0.646   4.672   3.684  0.7440  0.1728  1.1007
 2883TIP3    H2 8614   0.764   4.614   3.608 -0.7001  0.3162 -1.3621
 2884TIP3   OH2 8615   5.892   0.567   1.491  0.0073 -0.0663 -0.4632
 2884TIP3    H1 8616   5.898   0.483   1.446  0.0049 -0.0978 -0.4049
 2884TIP3    H2 8617   5.844   0.548   1.571  0.0711 -0.0243 -0.4148
 2885TIP3   OH2 8618   1.614   6.601   1.081 -0.1163  0.5151  0.6374
 2885TIP3    H1 8619   1.687   6.623   1.139 -1.2246  2.3604  1.4094
 2885TIP3    H2 8620   1.643   6.522   1.035  1.7704  0.3807  1.9493
 2886TIP3   OH2 8621   0.340   5.190   5.623  0.0455 -0.3213  0.4165
 2886TIP3    H1 8622   0.245   5.189   5.613  0.1136 -1.2764 -0.2666
 2886TIP3    H2 8623   0.367   5.278   5.596 -0.6489 -0.0108  0.7293
 2887TIP3   OH2 8624   2.810   4.448   5.359  0.0089 -0.1661 -0.0696
 2887TIP3    H1 8625   2.875   4.385   5.391 -0.4572 -1.1593 -0.9770
 2887TIP3    H2 8626   2.854   4.493   5.287 -0.0889 -0.4104 -0.2871
 2888TIP3   OH2 8627   2.186   4.703   4.073  0.1059  0.0905 -0.0244
 2888TIP3    H1 8628   2.269   4.702   4.120  0.0070  0.5576  0.1624
 2888TIP3    H2 8629   2.211   4.710   3.981  0.2587  1.5986  0.1038
 2889TIP3   OH2 8630   2.391   2.511   4.495 -0.6081 -0.3643 -0.0340
 2889TIP3    H1 8631   2.389   2.439   4.558 -2.7878 -0.3322  0.0234
 2889TIP3    H2 8632   2.311   2.500   4.443  0.1597  0.7165 -1.5405
 2890TIP3   OH2 8633   2.193   2.586   3.287  0.0945 -0.1768  0.8675
 2890TIP3    H1 8634   2.278   2.628   3.272  0.4271 -1.0032  0.3953
 2890TIP3    H2 8635   2.164   2.620   3.372  1.5494 -0.9514  1.6986
 2891TIP3   OH2 8636   0.200   2.164   4.964 -0.1579 -0.4989 -0.0875
 2891TIP3    H1 8637   0.192   2.167   5.060 -3.8574 -2.6215 -0.1526
 2891TIP3    H2 8638   0.156   2.243   4.934 -1.0056 -0.9472 -0.0450
 2892TIP3   OH2 8639   6.552   0.327   3.674  0.2564 -0.1816 -0.4045
 2892TIP3    H1 8640   6.478   0.310   3.732  1.2982 -2.2967  0.3921
 2892TIP3    H2 8641   6.512   0.338   3.588 -0.9804 -3.1255 -0.3445
 2893TIP3   OH2 8642   0.173   5.211   2.857 -0.2492 -0.0733  0.0351
 2893TIP3    H1 8643   0.172   5.147   2.785  0.7490 -0.7427  0.6003
 2893TIP3    H2 8644   0.094   5.191   2.907  0.4213 -1.3869  0.6262
 2894TIP3   OH2 8645   2.803   0.724   4.515  0.3081 -0.4967 -0.0056
 2894TIP3    H1 8646   2.838   0.642   4.550  1.6932 -0.0304 -0.2620
 2894TIP3    H2 8647   2.793   0.780   4.592 -0.0409 -0.6759  0.0848
 2895TIP3   OH2 8648   0.161   1.951   5.451  0.1434 -0.4598 -0.3094
 2895TIP3    H1 8649   0.243   1.946   5.402 -0.0640 -1.3229 -0.5794
 2895TIP3    H2 8650   0.158   2.041   5.483  0.8333 -0.2035 -0.9304
 2896TIP3   OH2 8651   0.471   3.335   2.774 -0.1339 -0.0013 -0.8500
 2896TIP3    H1 8652   0.439   3.422   2.799 -0.1332  0.2909 -1.8506
 2896TIP3    H2 8653   0.399   3.276   2.799 -0.0355  0.2434  0.0565
 2897TIP3   OH2 8654   4.425   1.480   0.612 -0.6149  0.2360  0.1080
 2897TIP3    H1 8655   4.484   1.555   0.612  2.1250 -1.7659 -0.1023
 2897TIP3    H2 8656   4.440   1.438   0.527 -2.0953 -0.5570  0.2081
 2898TIP3   OH2 8657   2.511   6.191   2.312  0.5969 -0.6063 -0.5564
 2898TIP3    H1 8658   2.584   6.154   2.362  1.0083  0.6703 -0.1750
 2898TIP3    H2 8659   2.478   6.263   2.366 -2.8828 -2.8665  0.7295
 2899TIP3   OH2 8660   0.808   1.384   0.870 -0.1081  0.4707  0.1784
 2899TIP3    H1 8661   0.830   1.339   0.951 -0.1541 -0.7213 -0.4512
 2899TIP3    H2 8662   0.868   1.347   0.805 -0.6348  0.8052 -0.5111
 2900TIP3   OH2 8663   0.161   6.768   5.406  0.1090  0.1536 -0.5934
 2900TIP3    H1 8664   0.144   6.692   5.461 -0.0586 -0.7222 -1.8038
 2900TIP3    H2 8665   0.074   6.799   5.380  0.1660  1.0265  0.2351
 2901TIP3   OH2 8666   5.844   5.783   3.390 -0.0708 -0.2807 -0.2870
 2901TIP3    H1 8667   5.834   5.847   3.460 -0.7395 -1.2739  0.5538
 2901TIP3    H2 8668   5.845   5.698   3.435 -1.3280 -0.9906 -1.5307
 2902TIP3   OH2 8669   4.229   4.474   5.400 -0.0102 -0.0504  0.4171
 2902TIP3    H1 8670   4.212   4.423   5.479 -1.1400 -1.3073 -0.5736
 2902TIP3    H2 8671   4.142   4.491   5.364  0.4432  1.2689 -0.0992
 2903TIP3   OH2 8672   4.213   5.150   5.769  0.4049 -0.6846  0.0366
 2903TIP3    H1 8673   4.175   5.101   5.842 -0.7023 -0.3232 -0.2743
 2903TIP3    H2 8674   4.218   5.086   5.698 -2.0986 -0.1550 -0.7241
 2904TIP3   OH2 8675   0.755   6.085   5.781  0.7023  0.1167  0.3742
 2904TIP3    H1 8676   0.737   6.039   5.862 -1.4002  0.2240  0.0256
 2904TIP3    H2 8677   0.783   6.172   5.808  0.6845 -0.0671  0.9922
 2905TIP3   OH2 8678   6.051   3.775   3.464  0.2848 -0.1525  0.2832
 2905TIP3    H1 8679   6.140   3.799   3.491 -0.0954  0.6046  0.8968
 2905TIP3    H2 8680   6.027   3.842   3.399 -0.9174  1.4512  2.2635
 2906TIP3   OH2 8681   3.938   5.711   1.629  0.1570  0.7801  0.7341
 2906TIP3    H1 8682   3.963   5.802   1.610  0.6243  0.2181 -1.6240
 2906TIP3    H2 8683   3.861   5.696   1.573  0.8221 -0.6230  0.1669
 2907TIP3   OH2 8684   0.373   6.572   5.785  0.2422  0.2570  0.2017
 2907TIP3    H1 8685   0.356   6.666   5.795 -1.2972 -0.0935  1.1568
 2907TIP3    H2 8686   0.315   6.545   5.714 -0.5170 -0.2676  1.0114
 2908TIP3   OH2 8687   1.318   6.470   3.983 -0.1686 -0.0443  0.2985
 2908TIP3    H1 8688   1.235   6.424   3.970 -0.2304  0.3121 -0.5720
 2908TIP3    H2 8689   1.374   6.405   4.025 -1.3670  0.1849  2.4352
 2909TIP3   OH2 8690   5.664   0.656   2.832  0.8918 -0.0857 -0.2463
 2909TIP3    H1 8691   5.732   0.604   2.874  2.1165  0.5915 -1.3240
 2909TIP3    H2 8692   5.704   0.742   2.819 -0.5981  0.7176  0.2116
 2910TIP3   OH2 8693   4.965   5.766   1.148  0.2285  0.1964  0.1921
 2910TIP3    H1 8694   4.915   5.823   1.089 -0.6487 -0.5353  0.2133
 2910TIP3    H2 8695   4.958   5.679   1.109 -0.4285 -0.3096  1.3960
 2911TIP3   OH2 8696   3.819   3.436   4.474 -0.5596  0.2067  0.2168
 2911TIP3    H1 8697   3.808   3.530   4.465 -0.1422  0.2781  0.4316
 2911TIP3    H2 8698   3.902   3.417   4.431 -0.5784 -0.0430  0.2893
 2912TIP3   OH2 8699   2.163   4.413   5.241  0.0732 -0.0637  0.3103
 2912TIP3    H1 8700   2.077   4.423   5.199 -0.3482 -2.7197  0.3880
 2912TIP3    H2 8701   2.156   4.466   5.320 -0.8016  1.2540 -0.6045
 2913TIP3   OH2 8702   4.852   5.889   0.940 -0.3555  0.2612  0.3286
 2913TIP3    H1 8703   4.788   5.898   0.870 -0.0990  0.4621  0.1176
 2913TIP3    H2 8704   4.927   5.941   0.911  0.3689 -0.9028  0.0161
 2914TIP3   OH2 8705   6.246   0.110   2.091  0.1391  0.1065  0.3970
 2914TIP3    H1 8706   6.277   0.055   2.163  1.0250  1.1648  0.8480
 2914TIP3    H2 8707   6.155   0.128   2.113 -0.1982 -1.2108  0.2042
 2915TIP3   OH2 8708   1.744   2.887   4.504  0.0218  0.7038 -0.0989
 2915TIP3    H1 8709   1.775   2.943   4.432  0.5269  0.6886  0.0970
 2915TIP3    H2 8710   1.790   2.804   4.491 -0.6698  0.3587 -0.3444
 2916TIP3   OH2 8711   3.326   1.572   1.993 -0.4323  0.5892  0.2623
 2916TIP3    H1 8712   3.294   1.661   2.000 -1.2209  0.3563 -0.2636
 2916TIP3    H2 8713   3.415   1.575   2.030 -0.1257  1.7607 -0.5297
 2917TIP3   OH2 8714   6.518   3.024   1.329  0.3626 -0.7288 -0.2112
 2917TIP3    H1 8715   6.562   3.062   1.405  2.1513 -0.9941 -1.0610
 2917TIP3    H2 8716   6.453   2.964   1.366  1.0384 -0.6785  1.1142
 2918TIP3   OH2 8717   6.712   6.640   1.171  0.3410  0.1286  0.2879
 2918TIP3    H1 8718   6.795   6.603   1.141 -0.0125 -2.2251  1.9282
 2918TIP3    H2 8719   6.729   6.666   1.262  0.1158  2.7479 -0.3217
 2919TIP3   OH2 8720   5.547   3.018   2.460  0.1444  0.0340  0.3308
 2919TIP3    H1 8721   5.607   2.953   2.496 -0.0158  0.7801  2.0472
 2919TIP3    H2 8722   5.460   2.984   2.479 -0.0800 -1.3670 -2.7337
 2920TIP3   OH2 8723   1.810   3.565   4.646 -0.4172  0.0014 -0.2611
 2920TIP3    H1 8724   1.778   3.514   4.572  1.1691  1.5127 -2.1131
 2920TIP3    H2 8725   1.789   3.656   4.623 -0.0499  0.5025  1.2625
 2921TIP3   OH2 8726   3.398   4.618   3.591  0.3825 -0.0963 -0.3533
 2921TIP3    H1 8727   3.316   4.669   3.595  0.1167 -0.3375 -1.9132
 2921TIP3    H2 8728   3.455   4.671   3.535  0.8893 -0.4764 -0.1940
 2922TIP3   OH2 8729   6.611   6.753   5.250 -0.4024  0.3405  0.2386
 2922TIP3    H1 8730   6.652   6.837   5.228 -0.3412  0.5639  1.1712
 2922TIP3    H2 8731   6.679   6.705   5.298 -1.3299  0.8612  2.1331
 2923TIP3   OH2 8732   2.488   0.700   2.054 -0.2637 -0.1610  0.5428
 2923TIP3    H1 8733   2.574   0.697   2.011  0.3563 -1.8222  1.7865
 2923TIP3    H2 8734   2.498   0.769   2.120  0.0209 -0.1617  0.5055
 2924TIP3   OH2 8735   4.933   3.399   5.219  0.2068 -0.6771  0.5662
 2924TIP3    H1 8736   4.954   3.315   5.259 -1.5374 -1.2328  0.4099
 2924TIP3    H2 8737   4.977   3.464   5.274 -0.2821 -1.5544  2.0617
 2925TIP3   OH2 8738   0.541   1.578   2.669 -0.5196  0.2942 -0.2025
 2925TIP3    H1 8739   0.629   1.611   2.652  0.2704 -1.4496  0.2801
 2925TIP3    H2 8740   0.522   1.520   2.595 -1.2158  0.5822 -0.2522
 2926TIP3   OH2 8741   1.710   0.953   3.284  0.0405  0.2652 -0.3160
 2926TIP3    H1 8742   1.672   0.872   3.251 -1.0275  0.6222 -0.0116
 2926TIP3    H2 8743   1.646   0.986   3.347  1.3178  0.3788  0.9920
 2927TIP3   OH2 8744   6.645   6.815   4.095 -0.3352  0.0705 -0.0641
 2927TIP3    H1 8745   6.571   6.778   4.047 -0.5139 -0.6407  0.7343
 2927TIP3    H2 8746   6.719   6.759   4.073 -0.4060 -0.2266  0.4410
 2928TIP3   OH2 8747   2.906   0.595   0.588 -0.0317 -0.1178 -0.1744
 2928TIP3    H1 8748   2.847   0.666   0.617 -0.2947 -0.9498  1.4853
 2928TIP3    H2 8749   2.860   0.515   0.613  1.6374 -0.8058  0.8403
 2929TIP3   OH2 8750   1.262   0.639   2.952  0.0657 -0.2075  0.3027
 2929TIP3    H1 8751   1.229   0.586   3.025 -1.6280 -0.4234 -0.5600
 2929TIP3    H2 8752   1.285   0.723   2.991  1.5011 -1.0926  1.4657
 2930TIP3   OH2 8753   1.881   5.838   0.527  0.2929 -0.4626 -0.6979
 2930TIP3    H1 8754   1.794   5.814   0.559  0.5363 -0.5709 -0.1056
 2930TIP3    H2 8755   1.916   5.757   0.490 -0.3888 -0.1037 -2.2047
 2931TIP3   OH2 8756   6.016   2.556   2.056  0.1357  0.0579  0.0175
 2931TIP3    H1 8757   6.025   2.484   2.119 -0.0960 -2.6453 -2.8073
 2931TIP3    H2 8758   5.923   2.558   2.035  0.0764  1.4821  0.3255
 2932TIP3   OH2 8759   4.400   3.232   0.715  0.3424 -0.0233 -0.7688
 2932TIP3    H1 8760   4.377   3.166   0.651  1.6673 -0.8482 -0.4257
 2932TIP3    H2 8761   4.337   3.303   0.700 -0.7418 -1.1077 -1.5116
 2933TIP3   OH2 8762   1.304   5.042   0.026 -0.0813  0.2688  0.2879
 2933TIP3    H1 8763   1.385   5.093   0.017  0.4350 -0.7345 -0.9965
 2933TIP3    H2 8764   1.284   5.046   0.119  1.5251  0.4377  0.6590
 2934TIP3   OH2 8765   5.271   0.593   3.046 -0.0414  0.3415  0.3286
 2934TIP3    H1 8766   5.178   0.597   3.024 -0.6760 -1.6313  2.3108
 2934TIP3    H2 8767   5.312   0.549   2.971 -1.2906 -1.7906  0.8338
 2935TIP3   OH2 8768   4.746   0.643   0.534  0.0991  0.1259  0.5227
 2935TIP3    H1 8769   4.732   0.578   0.603  1.4185 -0.4274  0.3060
 2935TIP3    H2 8770   4.754   0.592   0.454  0.9139  0.5606  0.3137
 2936TIP3   OH2 8771   1.782   0.557   3.329  0.1156  0.0858  0.7196
 2936TIP3    H1 8772   1.705   0.584   3.379 -0.5334 -0.5060  0.0611
 2936TIP3    H2 8773   1.755   0.478   3.284  0.7134  0.5394 -0.4884
 2937TIP3   OH2 8774   5.140   3.234   5.564 -0.5156  0.3569  0.3058
 2937TIP3    H1 8775   5.060   3.205   5.608  0.4679  0.1329  2.0466
 2937TIP3    H2 8776   5.191   3.276   5.633  0.9473  0.3455 -0.7302
 2938TIP3   OH2 8777   0.650   4.090   2.730 -0.0500  0.4831  0.4756
 2938TIP3    H1 8778   0.643   4.133   2.815  3.3703  1.5691  0.3265
 2938TIP3    H2 8779   0.711   4.018   2.744 -1.6843 -1.1979 -0.4891
 2939TIP3   OH2 8780   7.066   2.467   1.476  0.2146  0.2159 -0.1929
 2939TIP3    H1 8781   7.132   2.535   1.461 -0.2028  0.5580 -0.4758
 2939TIP3    H2 8782   7.098   2.392   1.425  0.1150  0.5522 -0.7570
 2940TIP3   OH2 8783   0.081   4.313   4.252 -0.1268 -0.4661  0.8569
 2940TIP3    H1 8784   0.120   4.241   4.302  0.8369  0.4198  1.4129
 2940TIP3    H2 8785   0.024   4.357   4.315  1.9075  1.3091  1.5910
 2941TIP3   OH2 8786   6.349   2.457   3.078  0.1947 -0.3714 -0.3416
 2941TIP3    H1 8787   6.427   2.510   3.098  0.5417 -0.8457 -0.4247
 2941TIP3    H2 8788   6.295   2.463   3.156  0.7247 -0.7613  0.0637
 2942TIP3   OH2 8789   1.166   3.815   3.107 -0.3381 -0.1690  0.4336
 2942TIP3    H1 8790   1.201   3.731   3.136 -0.8027 -0.2295  0.8475
 2942TIP3    H2 8791   1.212   3.880   3.159  1.3290 -0.0129 -1.1448
 2943TIP3   OH2 8792   1.043   2.565   5.187 -0.3673  0.1695  0.2624
 2943TIP3    H1 8793   1.106   2.525   5.127 -0.1337  0.5211  0.2691
 2943TIP3    H2 8794   1.062   2.659   5.182 -2.1402  0.5080 -1.1837
 2944TIP3   OH2 8795   6.054   5.546   0.484  0.0148 -0.5063 -0.4810
 2944TIP3    H1 8796   6.072   5.618   0.544 -0.1131  0.9558 -2.1426
 2944TIP3    H2 8797   6.058   5.468   0.540  0.4404  0.7252  1.3120
 2945TIP3   OH2 8798   3.359   4.712   5.074  0.1467 -0.0327  0.0253
 2945TIP3    H1 8799   3.410   4.639   5.041 -1.2338 -0.4100 -1.4154
 2945TIP3    H2 8800   3.348   4.694   5.168 -1.0482 -2.2621 -0.4727
 2946TIP3   OH2 8801   0.794   5.803   3.139  0.5097  0.0944  0.3367
 2946TIP3    H1 8802   0.883   5.837   3.143  1.1741 -1.4266 -0.6739
 2946TIP3    H2 8803   0.805   5.708   3.133 -1.0425  0.0144 -2.7585
 2947TIP3   OH2 8804   3.029   0.214   4.923  0.1159  0.1529 -0.6359
 2947TIP3    H1 8805   3.099   0.222   4.858 -0.8850 -2.8153 -2.2768
 2947TIP3    H2 8806   2.953   0.256   4.882 -0.1325 -0.4301 -0.7918
 2948TIP3   OH2 8807   6.923   0.051   3.237 -0.0404  0.1782  0.9905
 2948TIP3    H1 8808   6.920   0.146   3.230  0.0428  0.0862 -0.8970
 2948TIP3    H2 8809   6.845   0.021   3.190 -0.3041 -0.6916  1.9392
 2949TIP3   OH2 8810   6.034   6.442   3.332 -0.2253 -0.0993  0.1593
 2949TIP3    H1 8811   6.002   6.422   3.244  2.7131  0.5556 -1.2116
 2949TIP3    H2 8812   6.108   6.383   3.344  0.2344  0.7296  1.6432
 2950TIP3   OH2 8813   0.543   3.417   1.245 -0.5523 -0.0995 -0.4747
 2950TIP3    H1 8814   0.488   3.350   1.284 -1.3043 -0.9615 -2.8092
 2950TIP3    H2 8815   0.606   3.368   1.192  1.0084  0.9577  0.3263
 2951TIP3   OH2 8816   1.579   1.523   4.874  0.6996 -0.6275 -0.5591
 2951TIP3    H1 8817   1.504   1.581   4.861  1.9774  0.7839 -1.9938
 2951TIP3    H2 8818   1.592   1.523   4.969 -0.0052  0.5577 -0.4367
 2952TIP3   OH2 8819   5.985   5.705   4.675  0.3904 -0.0940 -0.2259
 2952TIP3    H1 8820   6.076   5.729   4.690  0.1489  0.9923 -0.3770
 2952TIP3    H2 8821   5.973   5.624   4.723  1.1254  0.3684  0.7805
 2953TIP3   OH2 8822   6.378   0.430   2.814 -0.2502 -0.4663 -0.0930
 2953TIP3    H1 8823   6.401   0.430   2.721 -0.0858 -2.8276 -0.1114
 2953TIP3    H2 8824   6.450   0.478   2.856 -0.2302  0.4591 -1.1291
 2954TIP3   OH2 8825   3.870   6.401   2.018  0.0884  0.2264  0.5907
 2954TIP3    H1 8826   3.775   6.409   2.030 -0.0667 -0.6314  0.0243
 2954TIP3    H2 8827   3.882   6.406   1.923  0.4737 -0.9525  0.5644
 2955TIP3   OH2 8828   1.476   2.792   3.161 -0.2117 -0.2772  0.4315
 2955TIP3    H1 8829   1.566   2.760   3.158 -0.4348 -1.1833  2.2374
 2955TIP3    H2 8830   1.484   2.887   3.152  0.8477 -0.4027 -0.1388
 2956TIP3   OH2 8831   7.150   3.931   1.961  0.0027  0.6322  0.0147
 2956TIP3    H1 8832   7.190   3.902   2.042  0.1206  0.6076 -0.0524
 2956TIP3    H2 8833   7.109   3.853   1.925 -1.4962  0.9721  0.8789
 2957TIP3   OH2 8834   0.971   4.497   5.479  0.3940  0.0841 -0.0431
 2957TIP3    H1 8835   0.876   4.487   5.477  0.0980  2.3953 -0.8202
 2957TIP3    H2 8836   1.003   4.448   5.403 -0.0267 -1.4401  0.7141
 2958TIP3   OH2 8837   5.893   6.305   5.490 -0.1121 -0.3944  0.0739
 2958TIP3    H1 8838   5.873   6.221   5.530 -0.3939 -0.5733 -0.4334
 2958TIP3    H2 8839   5.832   6.312   5.416 -0.4285  0.4679  0.3954
 2959TIP3   OH2 8840   0.855   2.782   1.167  0.0866 -0.3124 -0.2595
 2959TIP3    H1 8841   0.916   2.763   1.096  0.3339 -1.7590  0.3065
 2959TIP3    H2 8842   0.786   2.716   1.158 -0.0380 -0.3187  0.6598
 2960TIP3   OH2 8843   6.176   4.064   0.851  0.4489 -0.0479 -0.1062
 2960TIP3    H1 8844   6.173   3.971   0.876 -0.8880  0.0527  0.1829
 2960TIP3    H2 8845   6.132   4.110   0.922 -1.9394  0.4289 -1.7787
 2961TIP3   OH2 8846   2.150   3.290   5.569 -0.1977 -0.1921  0.1208
 2961TIP3    H1 8847   2.077   3.285   5.630  0.1100 -1.9759  0.4122
 2961TIP3    H2 8848   2.123   3.234   5.496  1.9221 -3.2263  1.4814
 2962TIP3   OH2 8849   4.673   3.429   4.495 -0.1108  0.3217  0.4938
 2962TIP3    H1 8850   4.729   3.504   4.513 -0.2860  0.3084  1.1169
 2962TIP3    H2 8851   4.721   3.378   4.430  0.1087  0.8573  0.2315
 2963TIP3   OH2 8852   6.262   4.994   3.354  0.0981  0.3643 -0.1647
 2963TIP3    H1 8853   6.223   4.907   3.359  1.0466 -0.0641 -0.0692
 2963TIP3    H2 8854   6.269   5.012   3.260  0.5636  0.0221 -0.2008
 2964TIP3   OH2 8855   0.506   6.265   3.676  0.0417 -0.1136 -0.3567
 2964TIP3    H1 8856   0.588   6.234   3.637  0.6816  2.1470 -0.9684
 2964TIP3    H2 8857   0.438   6.239   3.613  0.3668 -1.3015 -0.2393
 2965TIP3   OH2 8858   1.223   2.627   3.514 -0.2559 -0.7354  0.4790
 2965TIP3    H1 8859   1.144   2.668   3.549 -0.4418  1.2066 -1.8636
 2965TIP3    H2 8860   1.295   2.676   3.553 -0.2142 -1.7549  1.7384
 2966TIP3   OH2 8861   3.730   1.200   4.246  0.0241 -0.0150 -0.1683
 2966TIP3    H1 8862   3.732   1.268   4.313  0.0034 -0.4145  0.2426
 2966TIP3    H2 8863   3.739   1.247   4.164 -0.5051  0.5323  0.0786
 2967TIP3   OH2 8864   3.885   4.414   1.462 -0.0308  0.2769 -0.1339
 2967TIP3    H1 8865   3.930   4.331   1.447 -0.3522  0.3200 -1.4715
 2967TIP3    H2 8866   3.831   4.426   1.384 -1.0234  1.0838  0.6490
 2968TIP3   OH2 8867   2.159   1.842   2.093  0.0434 -0.4929 -0.0811
 2968TIP3    H1 8868   2.218   1.840   2.017 -0.6336 -0.2692 -0.6215
 2968TIP3    H2 8869   2.072   1.855   2.056 -0.0343  2.5364  0.8700
 2969TIP3   OH2 8870   2.505   3.978   4.072  0.4626  0.2606 -0.2087
 2969TIP3    H1 8871   2.595   3.953   4.093  0.1891  0.2406  1.0460
 2969TIP3    H2 8872   2.471   3.904   4.022  0.6215 -0.5273  0.8055
 2970TIP3   OH2 8873   2.125   2.269   0.729 -0.5405 -0.3577 -0.5703
 2970TIP3    H1 8874   2.112   2.357   0.765 -2.3702  0.2399 -2.4988
 2970TIP3    H2 8875   2.214   2.269   0.696 -0.5007  0.7558 -0.4869
 2971TIP3   OH2 8876   4.091   2.572   0.299  0.1259 -0.1643  0.3269
 2971TIP3    H1 8877   4.054   2.631   0.364  0.5763  0.2059  0.2493
 2971TIP3    H2 8878   4.168   2.535   0.342  0.4753  0.1508 -0.0321
 2972TIP3   OH2 8879   0.240   5.529   5.463  0.0700 -0.1060 -0.1759
 2972TIP3    H1 8880   0.291   5.608   5.448 -0.1381  0.0091 -0.2889
 2972TIP3    H2 8881   0.252   5.476   5.383  0.0800 -0.1143 -0.1688
 2973TIP3   OH2 8882   6.229   3.560   3.310  0.2855 -0.2693 -0.5199
 2973TIP3    H1 8883   6.213   3.471   3.339 -1.5733  0.0785 -0.3176
 2973TIP3    H2 8884   6.303   3.590   3.363 -0.6257 -0.8960  1.1948
 2974TIP3   OH2 8885   1.408   1.195   0.287 -0.8717  0.4728  0.1222
 2974TIP3    H1 8886   1.334   1.247   0.317 -1.4334 -0.7742  1.0108
 2974TIP3    H2 8887   1.437   1.148   0.365  0.0496 -0.0057 -0.4943
 2975TIP3   OH2 8888   5.682   5.135   2.399 -0.4712  0.5678  0.5327
 2975TIP3    H1 8889   5.635   5.165   2.477  0.7817 -1.2682  2.0625
 2975TIP3    H2 8890   5.623   5.073   2.357  0.0990 -0.9294  1.8688
 2976TIP3   OH2 8891   5.926   3.961   1.175 -0.2929 -0.0019 -0.7887
 2976TIP3    H1 8892   5.997   3.902   1.199 -0.4556  0.1059 -0.0215
 2976TIP3    H2 8893   5.959   4.010   1.100  0.1772 -0.4383 -0.8683
 2977TIP3   OH2 8894   3.532   4.828   3.456 -0.2961 -0.1551  0.3563
 2977TIP3    H1 8895   3.560   4.918   3.471 -0.6980  0.0536 -0.1283
 2977TIP3    H2 8896   3.461   4.835   3.392 -0.9004 -0.7362  0.9377
 2978TIP3   OH2 8897   6.206   4.715   4.754 -0.6655  0.2479 -0.2493
 2978TIP3    H1 8898   6.244   4.675   4.833 -1.5034  0.4954  0.2953
 2978TIP3    H2 8899   6.275   4.771   4.719 -0.6122  0.9137  0.8794
 2979TIP3   OH2 8900   6.673   6.066   5.089 -0.0629  0.2597  0.0179
 2979TIP3    H1 8901   6.769   6.066   5.083  0.0312 -1.3736  0.8389
 2979TIP3    H2 8902   6.655   6.019   5.171 -1.5829 -1.8126 -1.4159
 2980TIP3   OH2 8903   1.109   4.378   1.598  0.1346  0.3585 -0.4895
 2980TIP3    H1 8904   1.098   4.286   1.573  0.1338  0.7071 -1.8336
 2980TIP3    H2 8905   1.022   4.405   1.628 -0.2778  0.3556 -1.6358
 2981TIP3   OH2 8906   1.338   4.742   4.680 -0.2241 -0.2681 -0.6216
 2981TIP3    H1 8907   1.316   4.739   4.587  0.2032  3.3572 -0.9790
 2981TIP3    H2 8908   1.269   4.795   4.719 -0.1201 -1.3172  1.0711
 2982TIP3   OH2 8909   6.606   2.555   3.941  0.3122  0.7797 -0.2660
 2982TIP3    H1 8910   6.529   2.602   3.907  1.3437  2.1390 -0.7858
 2982TIP3    H2 8911   6.664   2.548   3.866  0.8502  0.0634  0.2143
 2983TIP3   OH2 8912   1.818   1.016   2.181  0.7825  0.0235 -0.3722
 2983TIP3    H1 8913   1.803   0.931   2.138  1.1019  0.2299 -0.9074
 2983TIP3    H2 8914   1.747   1.024   2.244  1.1165 -0.9419  0.1504
 2984TIP3   OH2 8915   2.745   2.067   1.739 -0.5017  0.8982  0.1452
 2984TIP3    H1 8916   2.659   2.044   1.703 -0.7150  0.2931  1.0202
 2984TIP3    H2 8917   2.725   2.120   1.816 -0.0638  1.1967  0.0598
 2985TIP3   OH2 8918   1.294   6.596   0.524  0.3010 -0.2567  0.4074
 2985TIP3    H1 8919   1.306   6.535   0.597  0.3494 -1.3784 -0.5223
 2985TIP3    H2 8920   1.382   6.621   0.498  0.3199 -0.7061  0.0341
 2986TIP3   OH2 8921   0.797   1.602   5.827 -0.1224  0.2209 -0.0308
 2986TIP3    H1 8922   0.841   1.661   5.765 -0.1465  1.0926  0.7666
 2986TIP3    H2 8923   0.713   1.583   5.785 -0.6154  1.7099  0.2148
 2987TIP3   OH2 8924   2.009   2.481   0.415  0.4045 -0.1852  0.7464
 2987TIP3    H1 8925   2.040   2.393   0.394 -0.2215 -0.2765  0.1542
 2987TIP3    H2 8926   1.965   2.510   0.334  0.0230  0.4009  1.1594
 2988TIP3   OH2 8927   4.393   2.253   0.580 -0.4015 -0.0900  0.1012
 2988TIP3    H1 8928   4.401   2.222   0.490  0.7652  0.5623 -0.0372
 2988TIP3    H2 8929   4.418   2.178   0.634  0.1194 -0.1058 -0.1582
 2989TIP3   OH2 8930   3.417   2.519   5.432 -0.6065  0.0415  0.2847
 2989TIP3    H1 8931   3.338   2.466   5.445  0.4956 -1.4362  1.4092
 2989TIP3    H2 8932   3.453   2.529   5.520  0.4667  0.6691 -0.2158
 2990TIP3   OH2 8933   6.232   0.196   1.566  0.4111 -0.1742 -0.3488
 2990TIP3    H1 8934   6.180   0.138   1.621  0.8557  1.1713  1.6088
 2990TIP3    H2 8935   6.318   0.199   1.609  0.7279  1.0486 -1.0212
 2991TIP3   OH2 8936   5.564   2.421   4.419  0.4528 -0.4588  0.2694
 2991TIP3    H1 8937   5.595   2.500   4.463 -1.0387 -0.3593  1.1889
 2991TIP3    H2 8938   5.604   2.349   4.467  0.1884 -0.3077  0.7202
 2992TIP3   OH2 8939   6.002   3.550   4.879 -0.3168 -0.6559  0.4528
 2992TIP3    H1 8940   6.066   3.602   4.928 -1.9598  2.5636 -0.5816
 2992TIP3    H2 8941   5.921   3.562   4.927 -1.3497  0.2108 -1.4152
 2993TIP3   OH2 8942   6.564   6.743   3.613 -0.3351  0.5528 -0.2908
 2993TIP3    H1 8943   6.657   6.763   3.626 -0.6808  1.1741  1.5696
 2993TIP3    H2 8944   6.539   6.794   3.536  0.4026  2.0132  0.4052
 2994TIP3   OH2 8945   5.417   5.808   3.982  0.1014  0.0582 -0.3000
 2994TIP3    H1 8946   5.447   5.756   3.908 -1.1264 -1.1153 -0.0160
 2994TIP3    H2 8947   5.353   5.868   3.945  2.3262  2.2322 -0.8240
 2995TIP3   OH2 8948   0.585   0.107   3.609  0.4516 -0.2510  0.2376
 2995TIP3    H1 8949   0.535   0.083   3.687  1.9097  0.3105  1.3900
 2995TIP3    H2 8950   0.663   0.052   3.614  1.4377  1.1221  0.1859
 2996TIP3   OH2 8951   0.665   1.634   2.328  0.3636  0.0344  0.0248
 2996TIP3    H1 8952   0.731   1.569   2.352 -0.4797 -0.5983  0.6959
 2996TIP3    H2 8953   0.694   1.668   2.244  0.3888 -1.8196 -0.7540
 2997TIP3   OH2 8954   4.610   3.605   3.377 -0.3851  0.3790  0.3135
 2997TIP3    H1 8955   4.608   3.688   3.329 -1.6293 -0.4857 -1.2232
 2997TIP3    H2 8956   4.618   3.631   3.469  0.2681  2.1542 -0.1920
 2998TIP3   OH2 8957   1.280   3.091   0.878 -1.0617 -0.9245  0.3494
 2998TIP3    H1 8958   1.244   3.079   0.966 -1.4877 -0.8257  0.1922
 2998TIP3    H2 8959   1.242   3.019   0.827  0.5189 -2.0222  0.6338
 2999TIP3   OH2 8960   3.890   2.059   5.484  0.3652 -0.1553  0.3035
 2999TIP3    H1 8961   3.818   2.122   5.477 -0.0515 -0.6961 -0.6150
 2999TIP3    H2 8962   3.852   1.977   5.451  1.3389 -0.5038  0.0318
 3000TIP3   OH2 8963   6.007   4.112   1.466 -0.0526  0.3299  0.3484
 3000TIP3    H1 8964   5.999   4.167   1.544  0.3238  1.4737 -0.3951
 3000TIP3    H2 8965   6.096   4.127   1.434 -0.1233 -0.3045 -0.1747
 3001TIP3   OH2 8966   3.304   0.028   2.631  0.2608  0.0426  0.0344
 3001TIP3    H1 8967   3.261   0.112   2.615 -0.3041 -0.5675 -1.8908
 3001TIP3    H2 8968   3.274  -0.029   2.560 -0.9233 -2.4244  2.3295
 3002TIP3   OH2 8969   6.974   0.279   0.947 -0.1251 -0.3100  0.0922
 3002TIP3    H1 8970   7.039   0.282   1.018  0.6028 -1.6451 -0.4816
 3002TIP3    H2 8971   7.011   0.334   0.879 -0.2558  0.0155  0.2797
 3003TIP3   OH2 8972   1.926   4.096   1.686 -0.0379  0.3421  0.4160
 3003TIP3    H1 8973   2.012   4.105   1.644 -0.2332 -1.8739 -0.5929
 3003TIP3    H2 8974   1.923   4.168   1.750  2.2527  0.9170 -0.0266
 3004TIP3   OH2 8975   1.276   0.848   2.289  0.1256  0.7711 -0.7479
 3004TIP3    H1 8976   1.299   0.907   2.217 -0.1339  0.0918 -1.4013
 3004TIP3    H2 8977   1.296   0.898   2.368  2.4359  0.7649 -1.2675
 3005TIP3   OH2 8978   6.552   3.666   2.905 -0.1345 -0.3023  0.2192
 3005TIP3    H1 8979   6.489   3.606   2.866  1.5789 -0.1253 -3.2748
 3005TIP3    H2 8980   6.626   3.611   2.930 -0.0957 -0.0857  0.5848
 3006TIP3   OH2 8981   1.490   4.285   0.868 -0.4616 -0.0305  0.4722
 3006TIP3    H1 8982   1.456   4.216   0.812 -0.9866  0.2559  0.4228
 3006TIP3    H2 8983   1.465   4.259   0.957 -2.0012  0.8105  0.3267
 3007TIP3   OH2 8984   1.095   2.858   5.375 -0.0441  0.5425  0.7550
 3007TIP3    H1 8985   1.034   2.910   5.427 -0.6176  0.4111  0.2245
 3007TIP3    H2 8986   1.112   2.780   5.428 -0.3826  0.5563  0.8845
 3008TIP3   OH2 8987   7.168   3.389   2.706 -0.3959  0.3224 -0.0670
 3008TIP3    H1 8988   7.076   3.396   2.680 -0.8220 -1.5912  0.7408
 3008TIP3    H2 8989   7.170   3.317   2.769  2.0124 -1.3828 -1.8830
 3009TIP3   OH2 8990   3.858   5.588   3.364 -0.1371 -0.2864  0.1795
 3009TIP3    H1 8991   3.829   5.550   3.281  0.8608  0.7096 -0.6478
 3009TIP3    H2 8992   3.930   5.531   3.392 -0.7598 -0.8852  0.6223
 3010TIP3   OH2 8993   0.387   1.124   4.200 -0.6344  1.0091  0.0569
 3010TIP3    H1 8994   0.337   1.181   4.141 -1.6057 -0.7305 -0.8668
 3010TIP3    H2 8995   0.345   1.134   4.285 -1.3683  0.9861 -0.3016
 3011TIP3   OH2 8996   1.613   0.010   2.045  0.1304  0.6847  0.1668
 3011TIP3    H1 8997   1.575   0.062   1.973 -0.8340 -0.1651  0.0385
 3011TIP3    H2 8998   1.672   0.071   2.090  0.2722  1.4126 -0.9653
 3012TIP3   OH2 8999   7.133   4.249   0.916  0.3405 -0.0043  0.1494
 3012TIP3    H1 9000   7.184   4.291   0.986 -0.5636  1.4288 -0.0095
 3012TIP3    H2 9001   7.052   4.222   0.959 -0.3692  1.1966 -0.3909
 3013TIP3   OH2 9002   0.644   6.140   0.840 -0.5320  0.1722 -0.1334
 3013TIP3    H1 9003   0.582   6.068   0.850 -0.8057  0.6912  3.0342
 3013TIP3    H2 9004   0.700   6.114   0.768 -2.3285 -1.8975 -0.8919
 3014TIP3   OH2 9005   2.273   5.312   5.573 -0.3406 -0.0585 -0.0051
 3014TIP3    H1 9006   2.264   5.313   5.668 -1.6361  0.4011 -0.1124
 3014TIP3    H2 9007   2.309   5.226   5.552  0.8152  0.1676  0.9576
 3015TIP3   OH2 9008   1.579   6.268   5.664 -0.3249 -0.1477  0.4216
 3015TIP3    H1 9009   1.631   6.237   5.739 -0.3800  0.6139  0.7851
 3015TIP3    H2 9010   1.549   6.355   5.690  0.4254  0.5310 -0.8563
 3016TIP3   OH2 9011   4.186   3.005   2.871 -0.0517 -0.1181  0.6223
 3016TIP3    H1 9012   4.198   2.978   2.962 -0.5065 -0.3335  0.6185
 3016TIP3    H2 9013   4.121   2.944   2.836 -0.1177  0.1671  0.2457
 3017TIP3   OH2 9014   6.674   3.312   1.982 -0.1708 -0.2696  0.2799
 3017TIP3    H1 9015   6.750   3.362   1.952  0.0111  0.3513  1.7147
 3017TIP3    H2 9016   6.663   3.244   1.916  0.8944  0.3592 -0.5787
 3018TIP3   OH2 9017   4.670   2.713   1.128 -0.4063  0.0518  0.3984
 3018TIP3    H1 9018   4.641   2.726   1.038  0.4135  2.8906  0.4478
 3018TIP3    H2 9019   4.589   2.694   1.177 -0.9089 -1.0783 -0.8140
 3019TIP3   OH2 9020   4.295   0.930   0.286  0.2753  0.7842  0.2113
 3019TIP3    H1 9021   4.263   0.948   0.375  1.0728 -0.9250  0.8774
 3019TIP3    H2 9022   4.216   0.915   0.235 -0.1569  0.6513  0.8992
 3020TIP3   OH2 9023   5.240   3.218   5.316 -0.3611 -0.5375 -0.2681
 3020TIP3    H1 9024   5.279   3.305   5.314  0.1702 -0.7790 -0.4661
 3020TIP3    H2 9025   5.209   3.207   5.406 -1.2978  0.2307 -0.4727
 3021TIP3   OH2 9026   0.355   6.077   3.538 -0.0270  0.2980 -0.3106
 3021TIP3    H1 9027   0.267   6.084   3.502  0.1338 -0.8378 -0.9802
 3021TIP3    H2 9028   0.398   6.011   3.484  0.8580 -0.0295  0.7463
 3022TIP3   OH2 9029   6.879   3.235   4.329  0.0874 -0.2546  0.2237
 3022TIP3    H1 9030   6.834   3.226   4.245 -0.0814 -0.7532  0.3698
 3022TIP3    H2 9031   6.825   3.187   4.391 -1.8695  3.1485  1.4126
 3023TIP3   OH2 9032   1.172   1.153   4.058 -0.0818  0.0025  0.4317
 3023TIP3    H1 9033   1.105   1.193   4.115 -0.2923 -0.5586  0.5801
 3023TIP3    H2 9034   1.130   1.075   4.023 -0.3913  0.9878 -1.5027
 3024TIP3   OH2 9035   6.033   6.728   3.100 -0.1219 -0.5963  0.3124
 3024TIP3    H1 9036   6.015   6.822   3.094 -2.0163 -1.0309 -3.4028
 3024TIP3    H2 9037   5.955   6.692   3.144 -0.4257 -0.6448 -0.2595
 3025TIP3   OH2 9038   6.816   1.412   5.212  0.6282  0.3032 -0.1557
 3025TIP3    H1 9039   6.811   1.346   5.143  0.3949  0.3107 -0.1467
 3025TIP3    H2 9040   6.907   1.443   5.210  0.8730 -0.3638  0.1561
 3026TIP3   OH2 9041   3.627   4.115   0.261  0.4869 -0.2823 -0.1914
 3026TIP3    H1 9042   3.677   4.124   0.180 -0.1668  0.3620 -0.5309
 3026TIP3    H2 9043   3.688   4.143   0.330  0.6927  0.2249 -0.5755
 3027TIP3   OH2 9044   6.780   0.421   5.719  0.2949 -0.3705 -0.3256
 3027TIP3    H1 9045   6.764   0.475   5.642  3.0665  0.6349 -0.3305
 3027TIP3    H2 9046   6.757   0.332   5.691 -1.4907  0.3434 -1.3102
 3028TIP3   OH2 9047   6.763   0.594   5.524  0.0869  0.0920  0.7554
 3028TIP3    H1 9048   6.694   0.599   5.458  2.5545 -0.5770 -2.1504
 3028TIP3    H2 9049   6.796   0.684   5.531  0.6285 -0.0300  0.0191
 3029TIP3   OH2 9050   1.415   4.516   0.501 -0.0054  0.2782  0.0452
 3029TIP3    H1 9051   1.441   4.562   0.421 -0.6979  0.6389  0.0215
 3029TIP3    H2 9052   1.367   4.582   0.551 -2.1349 -0.7676 -0.5505
 3030TIP3   OH2 9053   2.536   0.412   5.167 -0.1684  0.5206 -0.2815
 3030TIP3    H1 9054   2.618   0.441   5.207  0.8328 -0.5886 -1.4299
 3030TIP3    H2 9055   2.467   0.446   5.224  1.1259  0.5700  1.3076
 3031TIP3   OH2 9056   1.956   2.015   2.599  0.4693  0.0259 -0.0537
 3031TIP3    H1 9057   1.981   1.982   2.513 -0.0650  0.3794 -0.3495
 3031TIP3    H2 9058   2.039   2.040   2.640  0.8020 -0.8723 -0.1531
 3032TIP3   OH2 9059   0.769   6.741   4.049  1.0413 -0.2710  0.7289
 3032TIP3    H1 9060   0.724   6.727   4.133  0.5744 -1.0753  0.3555
 3032TIP3    H2 9061   0.721   6.686   3.987  1.5492  0.1157 -0.0112
 3033TIP3   OH2 9062   1.874   4.279   5.730  0.0791  0.4491  0.3286
 3033TIP3    H1 9063   1.792   4.283   5.780  0.2737 -1.6399  0.9117
 3033TIP3    H2 9064   1.897   4.186   5.728  0.5634  0.5049 -2.9285
 3034TIP3   OH2 9065   6.870   0.364   0.017 -0.1543 -0.2381  0.2132
 3034TIP3    H1 9066   6.889   0.288  -0.038  1.5152  0.7852 -0.7005
 3034TIP3    H2 9067   6.922   0.349   0.096 -0.5634 -0.4791  0.4422
 3035TIP3   OH2 9068   5.794   3.977   5.558 -0.7726  0.7842 -0.0008
 3035TIP3    H1 9069   5.787   4.072   5.549  0.0459  1.2342  3.1067
 3035TIP3    H2 9070   5.876   3.963   5.605 -1.9464 -1.2886  1.6202
 3036TIP3   OH2 9071   6.861   2.611   5.390  0.0768  0.5860  0.0288
 3036TIP3    H1 9072   6.920   2.566   5.451  0.4406  1.7785  0.5838
 3036TIP3    H2 9073   6.793   2.648   5.446 -0.0043  1.0493 -0.3758
 3037TIP3   OH2 9074   3.242   2.560   2.580  0.3873 -0.0924  1.0679
 3037TIP3    H1 9075   3.286   2.631   2.626  0.4702 -0.9315  2.3306
 3037TIP3    H2 9076   3.219   2.597   2.495  2.1809  0.8308  0.9443
 3038TIP3   OH2 9077   1.130   5.505   2.734  0.1890 -0.6499 -0.0863
 3038TIP3    H1 9078   1.092   5.480   2.650 -0.1361 -0.8179  0.1068
 3038TIP3    H2 9079   1.088   5.447   2.797 -1.2760  0.9603  0.5054
 3039TIP3   OH2 9080   5.313   3.831   0.222  0.5836 -0.4540 -0.0347
 3039TIP3    H1 9081   5.224   3.865   0.217  0.2667 -1.0509  1.2349
 3039TIP3    H2 9082   5.330   3.798   0.133 -0.2454  0.1585 -0.4414
 3040TIP3   OH2 9083   2.896   4.825   3.814  0.5068  0.1121 -0.3137
 3040TIP3    H1 9084   2.958   4.759   3.844  2.5402  1.9745 -0.1985
 3040TIP3    H2 9085   2.948   4.886   3.763 -1.5088  1.0646 -1.3556
 3041TIP3   OH2 9086   1.439   0.948   0.124 -0.8550 -0.5418  0.1063
 3041TIP3    H1 9087   1.494   0.915   0.195 -1.8520 -0.6856  0.8331
 3041TIP3    H2 9088   1.408   1.033   0.156  1.1914  0.9459 -1.4790
 3042TIP3   OH2 9089   0.564   1.375   0.716 -0.5196  0.3368  0.0532
 3042TIP3    H1 9090   0.654   1.361   0.746 -0.7775  0.4782  0.9429
 3042TIP3    H2 9091   0.511   1.321   0.775 -1.2209  2.2357  1.2694
 3043TIP3   OH2 9092   4.285   2.702   0.759  0.1223  0.8151 -0.3406
 3043TIP3    H1 9093   4.213   2.762   0.779 -0.0767  0.3181  0.5078
 3043TIP3    H2 9094   4.244   2.629   0.713 -0.2159 -0.1909  1.4561
 3044TIP3   OH2 9095   1.058   4.962   1.198  0.4508 -0.3614  0.4145
 3044TIP3    H1 9096   1.055   4.934   1.106 -0.2560 -2.6393  1.0640
 3044TIP3    H2 9097   1.026   5.052   1.196  0.0046 -0.4972 -1.5274
 3045TIP3   OH2 9098   2.122   0.595   4.276 -0.2243 -0.3109 -0.3474
 3045TIP3    H1 9099   2.072   0.610   4.356  0.5677  1.0520 -0.0718
 3045TIP3    H2 9100   2.152   0.682   4.250  1.7216 -1.0351 -0.6723
 3046TIP3   OH2 9101   3.276   3.337   4.076  0.3833  0.2638  0.4643
 3046TIP3    H1 9102   3.329   3.402   4.030  0.2550 -0.0699 -0.1642
 3046TIP3    H2 9103   3.283   3.361   4.168 -0.5048  1.8241  0.1631
 3047TIP3   OH2 9104   6.915   3.661   0.978 -0.1378 -0.3612  0.5411
 3047TIP3    H1 9105   6.820   3.664   0.987 -0.1954 -0.4205  0.0215
 3047TIP3    H2 9106   6.929   3.616   0.894  0.2723  2.1687 -0.8551
 3048TIP3   OH2 9107   3.958   4.474   5.803 -0.5441  0.1732  0.4360
 3048TIP3    H1 9108   4.053   4.459   5.797 -0.9491 -2.1457 -1.7048
 3048TIP3    H2 9109   3.928   4.410   5.868 -0.7398  0.4274  0.5981
 3049TIP3   OH2 9110   6.559   4.985   1.654  0.0965 -0.6100 -0.1723
 3049TIP3    H1 9111   6.565   5.078   1.634 -3.1741 -0.1291  0.5258
 3049TIP3    H2 9112   6.538   4.944   1.570 -2.3970 -0.1024  0.1278
 3050TIP3   OH2 9113   0.786   3.605   1.513  0.1939 -0.0025  0.1782
 3050TIP3    H1 9114   0.877   3.632   1.526  0.8234 -1.6733 -0.4216
 3050TIP3    H2 9115   0.791   3.510   1.499 -1.6336 -0.1071 -0.0349
 3051TIP3   OH2 9116   5.683   1.173   1.798 -0.1343 -0.3069  0.1498
 3051TIP3    H1 9117   5.766   1.166   1.845 -1.6101 -0.5690  2.9471
 3051TIP3    H2 9118   5.670   1.266   1.784 -0.2812 -0.1017  1.5474
 3052TIP3   OH2 9119   7.012   0.525   5.809  0.4141  0.4120 -0.7120
 3052TIP3    H1 9120   7.052   0.507   5.724 -0.5856 -0.7464 -0.9623
 3052TIP3    H2 9121   6.922   0.494   5.800  0.7762 -1.4945  1.3447
 3053TIP3   OH2 9122   0.997   3.837   1.071  0.4216  0.0351 -0.1022
 3053TIP3    H1 9123   0.904   3.853   1.059  0.0690 -0.6461  1.4326
 3053TIP3    H2 9124   1.010   3.746   1.044  0.4128 -0.1995  0.6395
 3054TIP3   OH2 9125   0.153   6.543   3.663  0.5278  0.3900  0.0895
 3054TIP3    H1 9126   0.145   6.488   3.584  0.1522  1.0549 -0.3434
 3054TIP3    H2 9127   0.241   6.581   3.657  0.3520  0.7526 -0.2190
 3055TIP3   OH2 9128   4.595   0.618   3.097  0.3836  0.0829 -0.2804
 3055TIP3    H1 9129   4.613   0.646   3.187 -0.7571  0.2564 -0.0860
 3055TIP3    H2 9130   4.580   0.523   3.104  1.1533 -0.0540 -0.4339
 3056TIP3   OH2 9131   1.480   2.138   3.686 -0.2525 -0.1179  0.5662
 3056TIP3    H1 9132   1.385   2.145   3.689 -0.1313  1.5540  1.4433
 3056TIP3    H2 9133   1.497   2.056   3.639 -2.1337 -1.9476  2.8709
 3057TIP3   OH2 9134   0.260   2.681   0.458  0.3482 -0.3395  0.2442
 3057TIP3    H1 9135   0.329   2.705   0.396 -0.4320  1.2801 -0.0348
 3057TIP3    H2 9136   0.178   2.696   0.410 -0.2662  0.8010  1.5963
 3058TIP3   OH2 9137   5.558   1.360   0.098 -0.7315  0.2355 -0.5779
 3058TIP3    H1 9138   5.536   1.351   0.006  0.9574 -0.7629 -0.9279
 3058TIP3    H2 9139   5.651   1.338   0.103 -0.5625  1.1181  1.2404
 3059TIP3   OH2 9140   6.324   1.299   0.389 -0.0432 -0.3518  0.0154
 3059TIP3    H1 9141   6.246   1.329   0.344  0.6325  2.2663  0.4276
 3059TIP3    H2 9142   6.393   1.303   0.323  0.5537  1.5569  0.7132
 3060TIP3   OH2 9143   2.976   2.713   2.702  0.3516  0.3078  0.6324
 3060TIP3    H1 9144   2.951   2.667   2.622 -0.6294  1.0986  0.4655
 3060TIP3    H2 9145   3.068   2.735   2.690 -0.3641  2.6040 -1.4086
 3061TIP3   OH2 9146   6.984   6.753   4.207 -0.2883 -0.2286  0.1185
 3061TIP3    H1 9147   6.958   6.677   4.155 -0.5062 -0.6231  0.7891
 3061TIP3    H2 9148   6.999   6.718   4.295  0.0673  0.4282  0.3300
 3062TIP3   OH2 9149   6.711   0.308   0.991 -0.4194  0.0856 -0.2924
 3062TIP3    H1 9150   6.675   0.219   0.989 -1.3491  0.4523 -2.2019
 3062TIP3    H2 9151   6.805   0.296   0.983 -0.1702 -0.8158  2.7806
 3063TIP3   OH2 9152   3.232   1.998   1.141  0.3871 -0.5554  0.2160
 3063TIP3    H1 9153   3.261   2.008   1.232 -0.7700 -1.7461  0.7443
 3063TIP3    H2 9154   3.260   1.910   1.116 -2.0772 -1.5088  0.5321
 3064TIP3   OH2 9155   3.792   0.117   1.718 -0.0538  0.6090  0.9628
 3064TIP3    H1 9156   3.880   0.097   1.749  0.6685  2.0926  0.0115
 3064TIP3    H2 9157   3.774   0.050   1.651  0.4531  0.4415  0.9893
 3065TIP3   OH2 9158   4.228   0.535   2.800 -0.0739 -0.2356  0.5231
 3065TIP3    H1 9159   4.200   0.542   2.891 -0.2921  1.2304  0.3673
 3065TIP3    H2 9160   4.244   0.625   2.772 -1.3384 -0.5055 -1.3010
 3066TIP3   OH2 9161   0.844   2.344   4.800 -0.6482  0.0542  1.0553
 3066TIP3    H1 9162   0.770   2.303   4.846  0.1796 -0.8012  1.6684
 3066TIP3    H2 9163   0.805   2.384   4.723 -1.9695  0.8040  2.0540
 3067TIP3   OH2 9164   6.639   3.691   0.329  0.1417  0.1919  0.4202
 3067TIP3    H1 9165   6.625   3.784   0.341  1.3502  0.5356 -0.6655
 3067TIP3    H2 9166   6.693   3.665   0.404 -0.3966  0.2943  0.8528
 3068TIP3   OH2 9167   6.396   2.887   5.409 -0.0362 -0.3535  0.1931
 3068TIP3    H1 9168   6.328   2.917   5.469  0.4817 -0.7817  1.0122
 3068TIP3    H2 9169   6.448   2.965   5.390  0.8144 -0.5363  1.6682
 3069TIP3   OH2 9170   6.875   2.713   3.022  0.0078  0.3374 -0.3717
 3069TIP3    H1 9171   6.801   2.705   3.083 -0.6048  3.2556 -0.5760
 3069TIP3    H2 9172   6.950   2.736   3.078  0.2013 -0.2080 -0.4047
 3070TIP3   OH2 9173   4.537   1.682   1.008 -0.0047  0.0296 -0.1709
 3070TIP3    H1 9174   4.616   1.640   1.042 -1.8766 -1.6110  2.4784
 3070TIP3    H2 9175   4.498   1.617   0.950  1.0216  1.2472 -2.3527
 3071TIP3   OH2 9176   5.192   4.368   5.449  0.0057 -0.1744 -0.8518
 3071TIP3    H1 9177   5.133   4.317   5.394 -0.6100 -0.1337 -0.2410
 3071TIP3    H2 9178   5.272   4.377   5.397 -0.0946 -1.2303 -1.2082
 3072TIP3   OH2 9179   5.194   4.420   0.248  0.2858  0.1217 -0.0416
 3072TIP3    H1 9180   5.195   4.453   0.158 -0.5846  0.7104  0.1516
 3072TIP3    H2 9181   5.282   4.384   0.261  1.3047  2.3283 -0.3043
 3073TIP3   OH2 9182   5.107   2.829   4.953  0.2305  0.2819  0.0823
 3073TIP3    H1 9183   5.147   2.908   4.989  0.7293 -0.5348  1.4125
 3073TIP3    H2 9184   5.027   2.817   5.004 -0.2577  0.3592 -0.6553
 3074TIP3   OH2 9185   3.178   0.755   1.791 -0.4143  0.2626  0.1419
 3074TIP3    H1 9186   3.242   0.815   1.829  0.1623  0.8806 -1.7240
 3074TIP3    H2 9187   3.208   0.668   1.816 -0.3212  0.6531  1.4581
 3075TIP3   OH2 9188   0.327   5.529   5.191 -0.0900  0.3007  0.1426
 3075TIP3    H1 9189   0.411   5.570   5.170  0.2534  0.6169  1.9694
 3075TIP3    H2 9190   0.263   5.599   5.181 -0.0214  0.2888 -0.4009
 3076TIP3   OH2 9191   1.699   5.082   0.656  0.2839 -0.6128 -0.1970
 3076TIP3    H1 9192   1.769   5.073   0.591  1.4814 -0.5199  1.0267
 3076TIP3    H2 9193   1.723   5.019   0.725 -0.3847  0.0217  0.6287
 3077TIP3   OH2 9194   4.491   5.329   4.241 -0.5172  0.0139  0.4042
 3077TIP3    H1 9195   4.408   5.300   4.278 -0.7699  0.1693 -0.0231
 3077TIP3    H2 9196   4.471   5.344   4.148 -0.5229  1.9059  0.6578
 3078TIP3   OH2 9197   1.101   6.698   1.239 -0.3422 -0.6162 -0.2410
 3078TIP3    H1 9198   1.191   6.730   1.230 -0.1416 -0.4691  1.7850
 3078TIP3    H2 9199   1.108   6.604   1.222  0.8093 -1.1621  2.5805
 3079TIP3   OH2 9200   4.340   0.298   0.089 -0.6125 -0.0212  0.1991
 3079TIP3    H1 9201   4.287   0.227   0.124 -3.1091  1.2050 -0.8089
 3079TIP3    H2 9202   4.322   0.372   0.148  0.8329  0.1674  0.4324
 3080TIP3   OH2 9203   5.338   0.160   4.395  0.1463  0.1783 -0.4496
 3080TIP3    H1 9204   5.323   0.066   4.404 -2.2567  0.4576 -0.8569
 3080TIP3    H2 9205   5.347   0.174   4.301 -2.4779  0.6580 -0.6993
 3081TIP3   OH2 9206   1.512   0.741   1.779 -0.3311 -0.3018 -0.2469
 3081TIP3    H1 9207   1.446   0.696   1.831 -0.9063 -0.3029 -0.9689
 3081TIP3    H2 9208   1.515   0.830   1.815  1.2833 -1.0281  1.6260
 3082TIP3   OH2 9209   3.077   3.332   2.906  0.4698  0.3312  0.7441
 3082TIP3    H1 9210   3.156   3.310   2.856 -0.6291 -1.8856 -0.1355
 3082TIP3    H2 9211   3.069   3.427   2.897  1.9443  0.3578 -0.8498
 3083TIP3   OH2 9212   5.772   5.768   4.356 -0.5413  0.3453 -0.0867
 3083TIP3    H1 9213   5.795   5.675   4.355 -0.0167  0.4729 -0.0236
 3083TIP3    H2 9214   5.745   5.787   4.267 -2.3350 -0.2751  0.2704
 3084TIP3   OH2 9215   4.046   0.495   0.240 -0.3512 -0.3943  0.4126
 3084TIP3    H1 9216   4.053   0.403   0.266 -2.5149 -0.7536 -0.0569
 3084TIP3    H2 9217   4.002   0.537   0.314  2.4143  0.7690  1.5168
 3085TIP3   OH2 9218   6.993   1.581   1.267 -0.4050  0.0706  0.1625
 3085TIP3    H1 9219   6.915   1.528   1.283 -0.7652 -0.2039 -2.1911
 3085TIP3    H2 9220   6.986   1.653   1.330 -1.8584 -0.6403  0.8752
 3086TIP3   OH2 9221   4.529   1.770   0.634  0.2230  0.0279 -0.1559
 3086TIP3    H1 9222   4.473   1.808   0.701 -1.4821 -0.1244 -1.4364
 3086TIP3    H2 9223   4.532   1.837   0.565 -0.4750 -0.9632 -1.1864
 3087TIP3   OH2 9224   1.596   2.455   4.403  0.7083 -0.0060 -0.0435
 3087TIP3    H1 9225   1.543   2.505   4.341  0.7308  0.0429 -0.0238
 3087TIP3    H2 9226   1.538   2.442   4.479  0.8774  0.4573  0.1731
 3088TIP3   OH2 9227   6.282   3.058   5.147 -0.0993 -0.0464 -0.6381
 3088TIP3    H1 9228   6.299   3.133   5.090  1.3804 -0.5484 -0.8931
 3088TIP3    H2 9229   6.353   3.059   5.211 -0.8658 -0.4157  0.2342
 3089TIP3   OH2 9230   6.736   1.992   4.821  0.2024  0.0490  0.5509
 3089TIP3    H1 9231   6.705   2.070   4.776  1.2995  0.2614  0.1552
 3089TIP3    H2 9232   6.656   1.953   4.859 -1.0632 -0.9264 -2.7448
 3090TIP3   OH2 9233   6.083   5.994   4.776  0.2990  0.2990 -0.1168
 3090TIP3    H1 9234   6.146   5.927   4.801  1.3747  0.8118 -1.3220
 3090TIP3    H2 9235   6.119   6.075   4.812  0.3191  0.5946 -0.7858
 3091TIP3   OH2 9236   6.604   6.485   1.494  0.4111 -0.5958  0.1571
 3091TIP3    H1 9237   6.652   6.425   1.436 -0.8159 -1.1111 -0.3498
 3091TIP3    H2 9238   6.661   6.562   1.500  0.1591 -0.0797 -2.5971
 3092TIP3   OH2 9239   4.887   4.664   0.797 -0.1103  0.4655  0.0578
 3092TIP3    H1 9240   4.795   4.652   0.820  0.0156  0.0726  0.3817
 3092TIP3    H2 9241   4.933   4.667   0.881  0.2482 -0.0555 -0.1109
 3093TIP3   OH2 9242   1.046   3.498   2.179  0.0335  0.6171 -0.2132
 3093TIP3    H1 9243   1.031   3.409   2.210  0.6242  0.8347  0.7249
 3093TIP3    H2 9244   0.959   3.536   2.170 -0.1860  0.1985  0.1316
 3094TIP3   OH2 9245   4.813   4.390   2.500 -0.8208  0.7131 -0.1555
 3094TIP3    H1 9246   4.739   4.407   2.441 -1.1266  0.0359  0.0106
 3094TIP3    H2 9247   4.822   4.470   2.551 -1.2325  0.9220 -0.4020
 3095TIP3   OH2 9248   6.657   2.805   0.660  0.9143  0.2913  0.2496
 3095TIP3    H1 9249   6.637   2.888   0.703  0.8016  0.3433  0.0986
 3095TIP3    H2 9250   6.575   2.779   0.618  0.3357 -0.9519  2.0172
 3096TIP3   OH2 9251   6.818   3.719   2.329 -0.1559 -0.2462  0.1174
 3096TIP3    H1 9252   6.853   3.808   2.341 -1.0108  0.4027 -1.8239
 3096TIP3    H2 9253   6.727   3.725   2.358 -0.2246 -0.4767 -0.0504
 3097TIP3   OH2 9254   5.200   5.860   4.567 -0.1395  0.2234  0.2238
 3097TIP3    H1 9255   5.220   5.830   4.655 -2.4083 -1.4463  0.2383
 3097TIP3    H2 9256   5.266   5.818   4.512 -1.1428 -2.0620  0.6827
 3098TIP3   OH2 9257   1.630   4.771   1.045 -0.2303 -0.1131  0.1282
 3098TIP3    H1 9258   1.592   4.723   1.119 -0.2354  0.3595  0.4340
 3098TIP3    H2 9259   1.716   4.799   1.075 -0.3723  0.3839  0.0855
 3099TIP3   OH2 9260   2.298   1.416   1.502  0.2012  0.4369  0.1331
 3099TIP3    H1 9261   2.370   1.354   1.491  0.6586  0.8067  0.9013
 3099TIP3    H2 9262   2.295   1.432   1.597 -0.1158  1.3313 -0.0149
 3100TIP3   OH2 9263   0.376   3.961   3.207 -0.6164 -0.3655  0.0425
 3100TIP3    H1 9264   0.354   3.929   3.120 -1.3701 -0.6776  0.3366
 3100TIP3    H2 9265   0.471   3.966   3.208 -0.4510 -2.5654 -0.0471
 3101TIP3   OH2 9266   1.471   0.372   2.246  0.2501  0.2848 -0.0811
 3101TIP3    H1 9267   1.506   0.357   2.334 -1.5102  1.2009  0.8406
 3101TIP3    H2 9268   1.451   0.465   2.244 -1.1401  0.0022 -0.8883
 3102TIP3   OH2 9269   7.123   0.251   1.933 -0.0050 -0.3615 -0.4251
 3102TIP3    H1 9270   7.141   0.269   1.840  0.2536 -0.8960 -0.4831
 3102TIP3    H2 9271   7.209   0.230   1.969 -0.1211 -0.2411 -0.0794
 3103TIP3   OH2 9272   1.684   2.020   2.567  0.1915  0.4002  0.0239
 3103TIP3    H1 9273   1.776   2.044   2.571  0.6446 -1.0279 -0.7976
 3103TIP3    H2 9274   1.685   1.927   2.544 -1.4652  0.6159 -1.0770
 3104TIP3   OH2 9275   5.634   2.028   5.638 -0.1788  0.1049 -0.1158
 3104TIP3    H1 9276   5.540   2.019   5.624 -0.3249  2.2569 -0.8740
 3104TIP3    H2 9277   5.643   2.105   5.694  1.1949  1.2078 -1.7556
 3105TIP3   OH2 9278   1.359   3.390   2.360 -0.6990  0.4130 -0.2669
 3105TIP3    H1 9279   1.362   3.403   2.454  1.2808 -1.4691  0.0005
 3105TIP3    H2 9280   1.295   3.321   2.346  0.1470 -0.4372 -0.0895
 3106TIP3   OH2 9281   4.275   4.227   5.315 -0.5550  0.1896  0.7251
 3106TIP3    H1 9282   4.290   4.321   5.324 -0.3607  0.1089  1.2603
 3106TIP3    H2 9283   4.262   4.195   5.404  0.3603 -0.4474  0.6518
 3107TIP3   OH2 9284   3.329   6.765   2.868  0.3093 -0.2091  0.4016
 3107TIP3    H1 9285   3.363   6.678   2.890 -2.0901 -1.8926 -1.8284
 3107TIP3    H2 9286   3.234   6.753   2.863  0.0040  2.1710 -1.3530
 3108TIP3   OH2 9287   2.792   3.316   4.487 -0.4317 -0.2326 -0.0368
 3108TIP3    H1 9288   2.760   3.226   4.493 -1.8644  0.3230  1.2847
 3108TIP3    H2 9289   2.871   3.317   4.540  1.0101 -1.2502 -2.0437
 3109TIP3   OH2 9290   2.720   6.370   3.191  0.1232 -0.4246  0.4485
 3109TIP3    H1 9291   2.786   6.438   3.181 -1.6967  1.4613  0.6103
 3109TIP3    H2 9292   2.658   6.385   3.119 -1.9714  0.1413  2.2535
 3110TIP3   OH2 9293   1.526   4.221   3.936  0.9034  0.1535  0.5317
 3110TIP3    H1 9294   1.529   4.200   3.843  4.6102  0.7285  0.3773
 3110TIP3    H2 9295   1.514   4.316   3.939 -3.4419 -0.1853  0.9313
 3111TIP3   OH2 9296   0.597   0.129   1.438 -0.0786 -0.5189  0.5062
 3111TIP3    H1 9297   0.647   0.126   1.357 -0.4138 -0.1126  0.2803
 3111TIP3    H2 9298   0.642   0.195   1.492 -2.1594  2.2981 -0.9408
 3112TIP3   OH2 9299   2.618   2.455   2.795 -0.1843 -0.2696 -0.0414
 3112TIP3    H1 9300   2.670   2.527   2.831 -0.0868  1.4678 -3.2353
 3112TIP3    H2 9301   2.532   2.494   2.780 -0.4339 -1.0984 -0.8478
 3113TIP3   OH2 9302   1.948   0.848   3.102  0.4700  0.3545 -0.0143
 3113TIP3    H1 9303   1.857   0.834   3.126  0.0661  1.9429 -0.5398
 3113TIP3    H2 9304   1.998   0.803   3.170 -0.6647 -1.8790 -0.5341
 3114TIP3   OH2 9305   2.074   4.624   2.227  0.1556 -0.3477  0.3543
 3114TIP3    H1 9306   2.134   4.669   2.168 -0.9360 -0.1517 -0.6610
 3114TIP3    H2 9307   2.104   4.647   2.315  0.8540  0.6815 -0.1323
 3115TIP3   OH2 9308   1.887   0.686   0.234  0.1845 -0.3985  0.4475
 3115TIP3    H1 9309   1.811   0.638   0.203  0.5776  0.6311 -2.3437
 3115TIP3    H2 9310   1.868   0.777   0.215  0.3851  0.4475  3.6508
 3116TIP3   OH2 9311   2.038   1.165   2.146 -0.3031 -0.3093  0.0336
 3116TIP3    H1 9312   2.098   1.123   2.084 -1.1980 -0.8071 -0.5204
 3116TIP3    H2 9313   1.976   1.096   2.169  0.5415 -0.4342  2.2419
 3117TIP3   OH2 9314   6.189   4.877   0.291  0.5716 -0.3626  0.2480
 3117TIP3    H1 9315   6.106   4.869   0.339 -0.1563  0.5561 -0.7955
 3117TIP3    H2 9316   6.235   4.949   0.334 -0.3469  0.8667 -0.7512
 3118TIP3   OH2 9317   0.187   3.819   3.422  0.1369  0.1307 -0.6185
 3118TIP3    H1 9318   0.234   3.750   3.468 -1.3303 -1.4955 -1.4591
 3118TIP3    H2 9319   0.255   3.881   3.395  1.8003 -1.9642 -1.5234
 3119TIP3   OH2 9320   2.173   3.630   4.895 -0.2701 -0.0604  0.2028
 3119TIP3    H1 9321   2.218   3.709   4.923  1.3999 -0.4315 -1.2514
 3119TIP3    H2 9322   2.231   3.559   4.921 -0.4604 -0.6200 -0.8331
 3120TIP3   OH2 9323   4.302   3.218   3.703  0.0204 -0.2498 -0.4265
 3120TIP3    H1 9324   4.317   3.266   3.784 -2.0368  0.3472 -0.3528
 3120TIP3    H2 9325   4.284   3.286   3.638  0.2734 -0.7925 -1.0751
 3121TIP3   OH2 9326   3.058   0.683   3.921 -0.0149  0.1966  0.0278
 3121TIP3    H1 9327   2.995   0.756   3.926 -1.1485 -0.7771  0.5183
 3121TIP3    H2 9328   3.105   0.687   4.005 -0.9280 -0.3605  0.5812
 3122TIP3   OH2 9329  -0.006   2.376   4.636  0.3880 -0.0724 -0.2459
 3122TIP3    H1 9330  -0.056   2.314   4.688 -0.3161 -0.5548 -1.4457
 3122TIP3    H2 9331   0.085   2.354   4.652  0.2080  0.0265  1.0308
 3123TIP3   OH2 9332   6.389   1.751   2.680  0.5077  0.0402  0.6780
 3123TIP3    H1 9333   6.369   1.701   2.759 -0.0186 -0.9570 -0.0726
 3123TIP3    H2 9334   6.483   1.769   2.686  0.4064  0.2883  1.6984
 3124TIP3   OH2 9335   3.838   3.560   3.990  0.1626 -0.5580  0.4321
 3124TIP3    H1 9336   3.746   3.553   4.017 -0.8600  0.5685 -2.3584
 3124TIP3    H2 9337   3.875   3.474   4.009 -1.2295 -0.8097  2.3261
 3125TIP3   OH2 9338   1.063   0.774   5.651 -0.0093  0.0836  0.3812
 3125TIP3    H1 9339   1.073   0.756   5.558  1.0663 -0.1802  0.5328
 3125TIP3    H2 9340   0.969   0.768   5.667  0.0090 -3.3977 -0.0180
 3126TIP3   OH2 9341   3.172   4.353   0.241  0.6678 -0.0247 -0.0881
 3126TIP3    H1 9342   3.249   4.320   0.286  0.0472 -0.3379  0.7750
 3126TIP3    H2 9343   3.137   4.278   0.193  0.4932 -0.0645  0.1009
 3127TIP3   OH2 9344   5.298   1.983   3.637  0.0288 -0.0706 -0.0831
 3127TIP3    H1 9345   5.278   2.077   3.637 -0.1979 -0.0994 -1.3544
 3127TIP3    H2 9346   5.367   1.974   3.702 -0.5312  0.8417  0.6658
 3128TIP3   OH2 9347   3.727   1.224   0.792 -0.8793 -0.4664 -0.4091
 3128TIP3    H1 9348   3.783   1.273   0.852  1.3900  0.0910 -2.7643
 3128TIP3    H2 9349   3.638   1.252   0.812  0.0530  1.9898  0.6303
 3129TIP3   OH2 9350   3.393   0.214   2.311  0.9251 -0.0198 -0.5448
 3129TIP3    H1 9351   3.410   0.308   2.318 -0.6330  0.1903  1.2847
 3129TIP3    H2 9352   3.319   0.208   2.250  0.0896  0.0980  0.4317
 3130TIP3   OH2 9353   1.513   0.335   5.260  0.2396  0.2704 -0.6322
 3130TIP3    H1 9354   1.606   0.319   5.279 -0.1824 -0.9905  0.5747
 3130TIP3    H2 9355   1.472   0.249   5.271 -1.4905  1.2787  1.6144
 3131TIP3   OH2 9356   2.436   0.686   1.394  0.3428 -0.1454 -0.6247
 3131TIP3    H1 9357   2.492   0.756   1.361 -1.0160  1.1268 -0.3738
 3131TIP3    H2 9358   2.394   0.650   1.316  0.0095  0.2688 -0.6413
 3132TIP3   OH2 9359   6.948   2.833   1.245 -0.0112  0.2369 -0.4159
 3132TIP3    H1 9360   7.020   2.885   1.209 -0.5745  1.7284  0.5310
 3132TIP3    H2 9361   6.874   2.852   1.187 -0.2061  0.4662 -0.0951
 3133TIP3   OH2 9362   0.612   4.842   4.413  0.0843  0.3558 -0.4857
 3133TIP3    H1 9363   0.580   4.752   4.404 -0.2640  0.3634  0.5767
 3133TIP3    H2 9364   0.676   4.851   4.343  1.7446 -1.4449  0.6978
 3134TIP3   OH2 9365   0.468   0.517   2.365 -0.1046  0.0360  0.4506
 3134TIP3    H1 9366   0.557   0.495   2.336 -0.2243 -0.0019  0.1012
 3134TIP3    H2 9367   0.457   0.608   2.340 -0.4735 -0.2095 -0.2975
 3135TIP3   OH2 9368   0.539   3.541   5.717 -0.3036 -0.1554 -0.1489
 3135TIP3    H1 9369   0.593   3.613   5.686 -0.8637  0.7240  0.8527
 3135TIP3    H2 9370   0.600   3.484   5.764  0.3882 -1.0545 -2.0140
 3136TIP3   OH2 9371   7.114   6.173   3.680 -0.1250 -0.3660 -0.1838
 3136TIP3    H1 9372   7.147   6.243   3.737 -1.3423 -1.0485  1.4229
 3136TIP3    H2 9373   7.046   6.215   3.628 -0.1835 -0.1292  0.0780
 3137TIP3   OH2 9374   2.714   6.117   2.494 -0.1060  0.7358  0.1405
 3137TIP3    H1 9375   2.803   6.136   2.463  0.9542 -1.3300  1.6669
 3137TIP3    H2 9376   2.725   6.047   2.558 -2.6943  1.5003  1.5909
 3138TIP3   OH2 9377   5.957   1.441   2.180 -0.2275 -0.0839 -0.2915
 3138TIP3    H1 9378   5.903   1.373   2.140  1.2946 -0.1744 -2.3485
 3138TIP3    H2 9379   6.027   1.392   2.224 -0.1198  0.1170 -0.2398
 3139TIP3   OH2 9380   5.515   5.593   4.906 -0.2497  0.4777  0.0648
 3139TIP3    H1 9381   5.445   5.537   4.874 -0.3162  0.9973 -0.7479
 3139TIP3    H2 9382   5.574   5.535   4.953  1.1886 -0.8749 -3.1062
 3140TIP3   OH2 9383   0.967   2.056   4.820  1.3088  0.6194 -0.3817
 3140TIP3    H1 9384   0.875   2.037   4.842  1.2787  1.1923  0.0293
 3140TIP3    H2 9385   0.965   2.076   4.727  1.1873 -0.3740 -0.5990
 3141TIP3   OH2 9386   2.460   3.375   5.850  0.3621 -0.0517 -0.1745
 3141TIP3    H1 9387   2.428   3.305   5.794  1.6054 -0.2161 -0.7094
 3141TIP3    H2 9388   2.525   3.333   5.907 -1.4489 -0.0806  2.0228
 3142TIP3   OH2 9389   2.369   3.446   2.473 -0.3904  0.0145 -0.2028
 3142TIP3    H1 9390   2.312   3.517   2.502 -1.1003 -0.3870 -0.5819
 3142TIP3    H2 9391   2.393   3.469   2.383 -0.8263 -0.3430 -0.4151
 3143TIP3   OH2 9392   2.018   4.342   2.441  0.5983 -0.9697  0.4284
 3143TIP3    H1 9393   2.105   4.355   2.403  0.0031 -3.6104 -2.1842
 3143TIP3    H2 9394   1.972   4.425   2.425  1.6622 -0.6409 -1.1009
 3144TIP3   OH2 9395   2.428   3.219   1.498  1.0579 -0.4203 -0.1733
 3144TIP3    H1 9396   2.413   3.225   1.404  1.1970 -0.0032 -0.1718
 3144TIP3    H2 9397   2.510   3.266   1.512  0.7711 -0.0293  0.2224
 3145TIP3   OH2 9398   5.136   5.785   5.560  0.0396 -0.4599  0.1051
 3145TIP3    H1 9399   5.197   5.806   5.489 -0.0434 -2.1629 -0.5042
 3145TIP3    H2 9400   5.178   5.821   5.638  0.1922  1.3455 -0.7494
 3146TIP3   OH2 9401   6.823   4.687   2.479  0.0737 -0.3583  0.3393
 3146TIP3    H1 9402   6.729   4.670   2.482  0.0339 -0.2891 -0.3932
 3146TIP3    H2 9403   6.830   4.781   2.497  0.0310 -0.4270  0.7288
 3147TIP3   OH2 9404   4.073   4.554   2.839 -0.0950  0.3893  0.4617
 3147TIP3    H1 9405   3.979   4.537   2.841 -0.2511  1.1291 -0.1765
 3147TIP3    H2 9406   4.109   4.495   2.905 -0.8246 -1.0077 -0.3474
 3148TIP3   OH2 9407   3.279   2.995   1.849 -0.0406 -0.1627  0.3527
 3148TIP3    H1 9408   3.296   2.989   1.943  1.8229  0.4700  0.0944
 3148TIP3    H2 9409   3.336   3.066   1.819 -0.9271 -0.0645 -1.2003
 3149TIP3   OH2 9410   2.757   3.611   0.332  0.1901  0.3078 -0.2533
 3149TIP3    H1 9411   2.825   3.637   0.395  1.1970 -0.1195 -1.1349
 3149TIP3    H2 9412   2.719   3.694   0.302 -0.4079  0.5130  1.0024
 3150TIP3   OH2 9413   4.319   1.179   0.134  0.3830 -0.5829  0.0604
 3150TIP3    H1 9414   4.345   1.112   0.198  0.3240 -2.0937 -1.4301
 3150TIP3    H2 9415   4.228   1.197   0.154  0.5691 -0.4986  0.8613
 3151TIP3   OH2 9416   4.911   3.788   5.571 -0.6323 -0.5396  0.7212
 3151TIP3    H1 9417   4.933   3.789   5.664 -2.1549  1.4034  1.1295
 3151TIP3    H2 9418   4.817   3.801   5.568 -0.3118  2.3031 -1.0719
 3152TIP3   OH2 9419   6.411   0.269   5.766  0.5530 -0.2379 -0.2674
 3152TIP3    H1 9420   6.377   0.355   5.738  1.6555 -0.1268 -1.3281
 3152TIP3    H2 9421   6.430   0.280   5.859  0.4500  0.6016 -0.3376
 3153TIP3   OH2 9422   6.339   5.021   2.356  0.3045 -0.6047 -0.2063
 3153TIP3    H1 9423   6.300   4.947   2.310  2.0552 -1.8398  0.1995
 3153TIP3    H2 9424   6.370   5.079   2.286  0.5739 -1.1752 -0.5711
 3154TIP3   OH2 9425   0.323   6.398   5.288  0.3946 -0.2135 -0.1393
 3154TIP3    H1 9426   0.316   6.327   5.223 -1.6978  0.8866 -1.2384
 3154TIP3    H2 9427   0.269   6.368   5.361 -1.2007  0.5291 -0.9580
 3155TIP3   OH2 9428   2.096   2.523   2.303  0.3268  0.3296  0.1269
 3155TIP3    H1 9429   2.035   2.493   2.236 -2.1182 -2.7707  3.3250
 3155TIP3    H2 9430   2.058   2.604   2.336 -1.9208 -1.1756  1.5644
 3156TIP3   OH2 9431   5.819   4.534   1.135 -0.1642  0.4952  0.2704
 3156TIP3    H1 9432   5.838   4.449   1.175  1.6995 -0.0960 -1.6433
 3156TIP3    H2 9433   5.771   4.512   1.055  2.5109  0.8988 -1.5854
 3157TIP3   OH2 9434   2.640   2.575   0.048 -0.3629 -0.1130  0.1547
 3157TIP3    H1 9435   2.675   2.663   0.059  0.2458 -0.0068 -2.0563
 3157TIP3    H2 9436   2.558   2.587  -0.000  0.4091 -0.7820 -1.4056
 3158TIP3   OH2 9437   3.919   3.130   5.010 -0.4570  0.0766 -0.3341
 3158TIP3    H1 9438   3.875   3.171   4.936  0.0899  0.0561 -0.6716
 3158TIP3    H2 9439   3.991   3.189   5.031 -2.1804  1.5508  1.9514
 3159TIP3   OH2 9440   5.425   1.491   5.752  0.2562 -0.2960  0.4906
 3159TIP3    H1 9441   5.384   1.405   5.762 -0.1222 -0.0086  1.5195
 3159TIP3    H2 9442   5.517   1.471   5.732  0.3007 -0.9539  1.2897
 3160TIP3   OH2 9443   3.325   0.447   5.045  0.7356  0.1738  0.3670
 3160TIP3    H1 9444   3.295   0.537   5.059  1.3325  0.2239  1.4593
 3160TIP3    H2 9445   3.401   0.438   5.103  0.4386 -1.1650  0.5842
 3161TIP3   OH2 9446   1.749   1.885   0.620  0.4443 -0.4822 -0.6890
 3161TIP3    H1 9447   1.792   1.801   0.639  0.8137  0.1335  1.5722
 3161TIP3    H2 9448   1.807   1.951   0.660 -1.3137  0.5755  0.2713
 3162TIP3   OH2 9449   5.988   2.700   1.159  0.2396  0.1426  0.5476
 3162TIP3    H1 9450   6.076   2.679   1.190  0.1323  0.3660  1.0098
 3162TIP3    H2 9451   5.988   2.674   1.067  0.7997  0.1723  0.5367
 3163TIP3   OH2 9452   2.140   0.273   4.731  0.2530  0.7718 -0.0984
 3163TIP3    H1 9453   2.149   0.217   4.654 -0.0818  1.3958 -0.6055
 3163TIP3    H2 9454   2.064   0.238   4.778  0.6684  0.1761  0.1412
 3164TIP3   OH2 9455   4.520   2.735   3.076  0.3550 -0.4833 -0.5006
 3164TIP3    H1 9456   4.471   2.703   3.151 -3.1655  0.1474 -2.3195
 3164TIP3    H2 9457   4.563   2.815   3.107  1.1157 -1.5692  1.4284
 3165TIP3   OH2 9458   6.317   3.947   5.053  0.0436  0.0494  0.1858
 3165TIP3    H1 9459   6.394   3.901   5.021 -0.1932 -0.5163  0.4137
 3165TIP3    H2 9460   6.337   3.967   5.144  0.0029  0.0820  0.1879
 3166TIP3   OH2 9461   1.008   4.148   3.459  0.4551 -0.4745 -0.4389
 3166TIP3    H1 9462   1.074   4.102   3.511  0.7823 -0.8823 -1.2038
 3166TIP3    H2 9463   0.939   4.169   3.522  1.4546  0.2722  0.4586
 3167TIP3   OH2 9464   0.640   5.107   2.139 -0.7991 -0.0454  0.4043
 3167TIP3    H1 9465   0.599   5.110   2.053 -0.0279 -0.6509 -0.0041
 3167TIP3    H2 9466   0.607   5.184   2.185  0.4430  1.5313 -1.2175
 3168TIP3   OH2 9467   0.340   5.001   1.245  0.0331 -0.3347 -0.2740
 3168TIP3    H1 9468   0.346   4.927   1.185 -0.5682 -0.9770  0.4369
 3168TIP3    H2 9469   0.264   5.051   1.214  1.4551  1.0000 -1.8211
 3169TIP3   OH2 9470   1.001   4.951   3.351 -0.4511  0.3440 -0.1177
 3169TIP3    H1 9471   0.906   4.941   3.347 -0.3459 -1.5619  0.8963
 3169TIP3    H2 9472   1.020   4.963   3.444  0.5683 -4.0965  0.4576
 3170TIP3   OH2 9473   5.082   4.005   4.896  0.1655  0.1154 -0.2445
 3170TIP3    H1 9474   5.162   3.961   4.925  0.3299  0.4284 -0.2207
 3170TIP3    H2 9475   5.043   3.945   4.832 -0.6323 -0.9670  1.1988
 3171TIP3   OH2 9476   5.101   6.664   4.166  0.0209 -0.1614  0.2895
 3171TIP3    H1 9477   5.052   6.744   4.147 -1.3811 -0.5599  1.9320
 3171TIP3    H2 9478   5.114   6.623   4.081 -2.3031  0.1062 -0.2668
 3172TIP3   OH2 9479   1.192   3.970   0.449  0.2336 -0.4728 -0.0637
 3172TIP3    H1 9480   1.278   3.927   0.453 -0.4096 -1.6827  1.3846
 3172TIP3    H2 9481   1.183   4.014   0.533 -0.2462  0.3250 -0.5215
 3173TIP3   OH2 9482   3.411   5.861   3.708  0.3937 -0.9499 -0.0479
 3173TIP3    H1 9483   3.409   5.955   3.725  0.7813 -1.4024  3.2596
 3173TIP3    H2 9484   3.459   5.852   3.626  2.1405  1.6807  0.5614
 3174TIP3   OH2 9485   0.448   2.115   4.876 -0.1095  0.0046  0.7789
 3174TIP3    H1 9486   0.362   2.156   4.888 -0.4501 -0.2518 -0.5912
 3174TIP3    H2 9487   0.441   2.069   4.792  2.1149  1.9425 -0.5803
 3175TIP3   OH2 9488   2.552   1.362   0.836 -0.3105  0.3038 -0.2969
 3175TIP3    H1 9489   2.604   1.386   0.913  0.1523 -0.1298 -0.4682
 3175TIP3    H2 9490   2.463   1.390   0.857 -0.0067  1.0543 -0.0003
 3176TIP3   OH2 9491   6.901   4.167   0.434 -0.1507  0.0154 -0.3681
 3176TIP3    H1 9492   6.895   4.084   0.386 -3.7721 -2.1532  3.1508
 3176TIP3    H2 9493   6.989   4.167   0.472  1.0797 -0.4628 -2.9633
 3177TIP3   OH2 9494   4.882   5.876   5.475 -0.1268 -0.1760  0.3576
 3177TIP3    H1 9495   4.955   5.830   5.517  2.2424  1.3503 -1.7376
 3177TIP3    H2 9496   4.871   5.832   5.391 -0.1259  0.8856 -0.2278
 3178TIP3   OH2 9497   0.891   0.974   3.478 -0.2747  0.2122  0.1658
 3178TIP3    H1 9498   0.967   0.943   3.528 -0.7215  0.7701  1.2174
 3178TIP3    H2 9499   0.927   1.037   3.416  0.0976  0.6301  0.8000
 3179TIP3   OH2 9500   1.150   4.939   2.850 -0.4149 -0.0661 -0.0979
 3179TIP3    H1 9501   1.213   4.980   2.909 -0.2782 -0.4400  0.0210
 3179TIP3    H2 9502   1.152   4.993   2.771  0.5636 -0.4719 -0.3587
 3180TIP3   OH2 9503   2.460   3.316   4.588  0.3960 -0.4874  0.0289
 3180TIP3    H1 9504   2.465   3.243   4.527 -3.0321  0.3322 -1.4735
 3180TIP3    H2 9505   2.522   3.381   4.554  0.5616 -1.1414 -0.9437
 3181TIP3   OH2 9506   0.277   0.256   5.034  0.4347 -0.6149  0.3983
 3181TIP3    H1 9507   0.296   0.266   4.941 -0.7057 -0.3273  0.1789
 3181TIP3    H2 9508   0.208   0.320   5.052  1.8366  0.5857  1.8477
 3182TIP3   OH2 9509   1.409   4.735   0.875 -0.9045  0.4029 -0.3224
 3182TIP3    H1 9510   1.492   4.749   0.920 -1.0244  0.5508 -0.1411
 3182TIP3    H2 9511   1.348   4.795   0.919 -0.9034  0.9297 -1.0294
 3183TIP3   OH2 9512   1.892   6.710   0.592 -0.0944  0.5550  0.6948
 3183TIP3    H1 9513   1.970   6.765   0.599  0.2789  0.0607  0.5163
 3183TIP3    H2 9514   1.870   6.711   0.499  0.9818 -1.0067  0.3705
 3184TIP3   OH2 9515   2.573   2.383   5.323  0.8813  0.0500 -0.0514
 3184TIP3    H1 9516   2.650   2.424   5.285 -0.0149  2.0864  0.1970
 3184TIP3    H2 9517   2.598   2.363   5.413  1.5849 -0.7013 -0.4051
 3185TIP3   OH2 9518   0.529   1.841   2.449  0.0281 -0.4635 -0.0171
 3185TIP3    H1 9519   0.579   1.761   2.432  0.9322  0.2894 -0.9354
 3185TIP3    H2 9520   0.570   1.908   2.395 -1.2030  0.4630  0.1554
 3186TIP3   OH2 9521   2.980   0.792   2.496  0.1547 -0.2196 -0.1698
 3186TIP3    H1 9522   2.974   0.750   2.410 -1.0707 -0.0964 -0.1563
 3186TIP3    H2 9523   3.069   0.830   2.497  0.8606 -1.7830 -0.6308
 3187TIP3   OH2 9524   0.441   2.868   1.928  0.2270 -0.0150  0.3761
 3187TIP3    H1 9525   0.524   2.835   1.961 -0.0247  0.4168  1.5061
 3187TIP3    H2 9526   0.457   2.961   1.912 -0.0755  0.1067  0.7618
 3188TIP3   OH2 9527   0.677   4.184   2.462  0.0367 -0.1985  0.1163
 3188TIP3    H1 9528   0.708   4.171   2.551 -0.0477  0.6381  0.2764
 3188TIP3    H2 9529   0.735   4.130   2.408  1.3809  0.8264  0.4789
 3189TIP3   OH2 9530   0.123   0.667   4.328 -0.3352 -0.2689  0.2414
 3189TIP3    H1 9531   0.202   0.618   4.349 -1.3040 -2.5467 -1.0289
 3189TIP3    H2 9532   0.122   0.672   4.232 -1.2985  0.5013  0.2685
 3190TIP3   OH2 9533   2.332   0.758   2.964 -0.7476 -0.1778 -0.4101
 3190TIP3    H1 9534   2.296   0.770   3.053 -1.7877 -1.1467 -0.6735
 3190TIP3    H2 9535   2.391   0.683   2.972 -0.5896 -0.0617 -0.4767
 3191TIP3   OH2 9536   3.310   0.368   4.523  0.4174 -0.1410 -0.0616
 3191TIP3    H1 9537   3.334   0.444   4.470  0.3637 -0.3214 -0.3490
 3191TIP3    H2 9538   3.372   0.300   4.495  0.1512 -0.3446 -0.1556
 3192TIP3   OH2 9539   5.942   6.490   1.518 -0.0701  0.4255  0.2280
 3192TIP3    H1 9540   5.928   6.440   1.598  0.4556  1.7936  1.2166
 3192TIP3    H2 9541   6.016   6.449   1.475 -1.3713 -1.3504 -0.4576
 3193TIP3   OH2 9542   5.961   2.238   5.529  0.1839 -0.6559  0.6388
 3193TIP3    H1 9543   5.993   2.148   5.528  0.7671 -0.4496 -0.6000
 3193TIP3    H2 9544   6.031   2.289   5.570  0.4183 -0.5768  0.1486
 3194TIP3   OH2 9545   0.809   0.836   1.192 -0.4388  0.1524  0.3297
 3194TIP3    H1 9546   0.881   0.868   1.137 -0.7984 -0.1377 -0.3123
 3194TIP3    H2 9547   0.818   0.741   1.190 -1.1706  0.0940 -0.1926
 3195TIP3   OH2 9548   0.330   5.663   3.572  0.0080 -0.4587 -0.5318
 3195TIP3    H1 9549   0.337   5.590   3.510  3.3993  1.0291 -2.1244
 3195TIP3    H2 9550   0.371   5.631   3.652  1.9635 -0.2165 -1.3957
 3196TIP3   OH2 9551   4.008   5.201   0.856 -0.4549  0.0081 -0.0372
 3196TIP3    H1 9552   3.989   5.217   0.948 -0.3809 -0.1613  0.0085
 3196TIP3    H2 9553   4.097   5.166   0.855 -0.1911  0.6661 -0.2399
 3197TIP3   OH2 9554   2.796   5.135   3.196 -0.2542 -0.2675  0.1702
 3197TIP3    H1 9555   2.824   5.226   3.189 -0.0145 -0.3396  0.1838
 3197TIP3    H2 9556   2.802   5.101   3.106 -0.6609 -0.1781  0.1082
 3198TIP3   OH2 9557   1.603   6.078   1.023  0.0363 -0.0955 -0.0097
 3198TIP3    H1 9558   1.675   6.140   1.034  1.1787 -1.2495 -0.6927
 3198TIP3    H2 9559   1.562   6.103   0.941  0.6728 -0.4033 -0.4270
 3199TIP3   OH2 9560   0.570   2.893   4.371 -0.2864 -0.0842 -0.0513
 3199TIP3    H1 9561   0.490   2.935   4.340 -1.7153 -1.5307  1.4786
 3199TIP3    H2 9562   0.569   2.806   4.330  0.9175  0.1273 -0.5866
 3200TIP3   OH2 9563   2.875   6.814   4.646 -0.1377 -0.2205  0.8769
 3200TIP3    H1 9564   2.882   6.720   4.664 -2.0791 -0.8640 -1.2678
 3200TIP3    H2 9565   2.945   6.833   4.584 -0.5269 -0.5576  0.3283
 3201TIP3   OH2 9566   3.460   3.332   1.438  0.0089 -0.0377  0.0178
 3201TIP3    H1 9567   3.496   3.251   1.402 -1.7953 -1.3333  1.0076
 3201TIP3    H2 9568   3.446   3.313   1.531 -3.3304  0.2779 -0.3003
 3202TIP3   OH2 9569   0.559   6.423   0.140 -0.2934  0.3285  0.1464
 3202TIP3    H1 9570   0.490   6.356   0.145  1.4703 -1.4949  1.2346
 3202TIP3    H2 9571   0.549   6.474   0.220 -0.8241  0.5753 -0.0677
 3203TIP3   OH2 9572   1.982   6.033   0.692  0.3462  0.1721 -0.4276
 3203TIP3    H1 9573   1.940   5.974   0.630 -0.4489  0.9696 -0.6777
 3203TIP3    H2 9574   2.032   5.976   0.750  0.1619 -0.6763 -1.0879
 3204TIP3   OH2 9575   6.767   5.679   2.591  0.6001  0.5568 -0.5252
 3204TIP3    H1 9576   6.858   5.684   2.562  0.4660  0.6532 -0.9410
 3204TIP3    H2 9577   6.768   5.618   2.665  0.9103  0.1118 -0.8937
 3205TIP3   OH2 9578   3.372   5.271   3.022  0.7508  0.5559  0.2182
 3205TIP3    H1 9579   3.442   5.326   2.989 -1.2081  2.8142 -0.5000
 3205TIP3    H2 9580   3.332   5.234   2.943  1.9410 -1.8970  0.6844
 3206TIP3   OH2 9581   7.064   4.773   4.618 -0.1037 -0.2881 -0.2944
 3206TIP3    H1 9582   7.045   4.681   4.600 -1.4306 -0.2687  0.8340
 3206TIP3    H2 9583   7.138   4.770   4.679 -0.2760 -0.6161 -0.0957
 3207TIP3   OH2 9584   1.802   1.373   1.278 -0.1509 -0.0685  0.5576
 3207TIP3    H1 9585   1.819   1.280   1.267 -0.4132 -0.2224  1.4013
 3207TIP3    H2 9586   1.726   1.377   1.336  0.1598  0.6702  0.9272
 3208TIP3   OH2 9587   4.162   0.198   1.612  0.4189  1.0943  0.0656
 3208TIP3    H1 9588   4.195   0.253   1.682  0.9282 -0.1748  0.8448
 3208TIP3    H2 9589   4.238   0.182   1.556  0.1867  1.4786 -0.3669
 3209TIP3   OH2 9590   1.470   4.508   0.177  0.0729 -0.5741 -0.5611
 3209TIP3    H1 9591   1.473   4.595   0.138  1.4192 -0.1954  0.3186
 3209TIP3    H2 9592   1.494   4.449   0.105 -0.5132 -0.1973 -1.0759
 3210TIP3   OH2 9593   3.789   3.113   3.162  0.0421  0.0094  1.0628
 3210TIP3    H1 9594   3.810   3.104   3.069  0.0172  0.7797  0.9784
 3210TIP3    H2 9595   3.846   3.050   3.206 -0.3291 -0.7405  0.4830
 3211TIP3   OH2 9596   1.054   0.545   1.668 -0.4790  0.0985 -0.8030
 3211TIP3    H1 9597   0.988   0.537   1.600 -1.5968  1.9438 -0.0123
 3211TIP3    H2 9598   1.122   0.600   1.628 -1.0275  0.9898 -0.5514
 3212TIP3   OH2 9599   3.933   5.932   0.728 -0.5714  0.0094 -0.5185
 3212TIP3    H1 9600   3.986   6.011   0.738 -1.3413  0.4222  0.5232
 3212TIP3    H2 9601   3.982   5.878   0.666 -1.0065  2.1303 -2.8535
 3213TIP3   OH2 9602   1.919   2.066   1.253  0.2351 -0.4452  0.1172
 3213TIP3    H1 9603   1.833   2.104   1.273  0.3838  0.7415 -1.2885
 3213TIP3    H2 9604   1.928   2.077   1.159  1.9362 -0.5451  0.2386
 3214TIP3   OH2 9605   4.278   5.262   1.764 -0.4903  0.3569 -0.0789
 3214TIP3    H1 9606   4.297   5.173   1.795 -0.7582  0.6170  0.8792
 3214TIP3    H2 9607   4.357   5.289   1.718  0.3702  0.3476  1.3360
 3215TIP3   OH2 9608   4.889   6.605   4.440  0.5258 -0.5306  0.1094
 3215TIP3    H1 9609   4.944   6.683   4.447  0.8357 -0.5750 -1.4235
 3215TIP3    H2 9610   4.951   6.532   4.440  0.3931 -0.6490 -0.4646
 3216TIP3   OH2 9611   6.694   6.210   4.007  0.3203  0.7721 -0.4487
 3216TIP3    H1 9612   6.718   6.118   4.002  1.1820  0.8902  0.8728
 3216TIP3    H2 9613   6.763   6.249   4.061 -1.4645  1.6686  1.3040
 3217TIP3   OH2 9614   1.541   5.386   2.656  0.6093 -0.1045 -0.5431
 3217TIP3    H1 9615   1.623   5.354   2.694  0.9536 -2.1399 -2.7400
 3217TIP3    H2 9616   1.516   5.318   2.593 -2.7491  0.4932 -0.0308
 3218TIP3   OH2 9617   3.794   3.665   2.065  0.4233  0.4250 -0.0281
 3218TIP3    H1 9618   3.850   3.667   1.987  1.2382 -2.6785  0.3302
 3218TIP3    H2 9619   3.800   3.575   2.096 -0.9488  1.2188  2.8871
 3219TIP3   OH2 9620   5.931   5.082   2.570  0.4430 -0.6363 -0.2363
 3219TIP3    H1 9621   5.887   5.025   2.508  1.0830 -0.5529 -0.7796
 3219TIP3    H2 9622   5.949   5.026   2.646 -2.3617 -0.1920  0.8802
 3220TIP3   OH2 9623   1.864   5.971   0.270 -0.2249  0.0506  0.3236
 3220TIP3    H1 9624   1.878   5.934   0.357  0.9711 -1.9514 -0.6485
 3220TIP3    H2 9625   1.797   5.915   0.230 -0.4908  0.7062 -0.1662
 3221TIP3   OH2 9626   6.519   4.996   2.565  0.4722  0.1169  0.1053
 3221TIP3    H1 9627   6.453   4.984   2.497  1.0069 -0.6141 -0.3086
 3221TIP3    H2 9628   6.540   5.089   2.564 -0.2716  0.2833 -0.0199
 3222TIP3   OH2 9629   5.593   1.946   0.495  0.4410  0.0159  0.0690
 3222TIP3    H1 9630   5.505   1.929   0.461 -0.7640  2.5143  1.5822
 3222TIP3    H2 9631   5.629   2.010   0.434  1.3011 -1.1308 -0.6399
 3223TIP3   OH2 9632   4.537   2.268   4.607 -0.0536  0.0356  0.0788
 3223TIP3    H1 9633   4.511   2.354   4.574 -2.4247 -0.3067  0.8340
 3223TIP3    H2 9634   4.627   2.257   4.577 -0.4422  1.7801 -2.0316
 3224TIP3   OH2 9635   6.050   3.518   1.281  0.5669  0.4550 -0.4615
 3224TIP3    H1 9636   5.992   3.480   1.214  1.0939 -0.4957 -0.3904
 3224TIP3    H2 9637   6.129   3.465   1.278  0.3352 -0.0746  1.4085
 3225TIP3   OH2 9638   0.044   2.790   4.114  0.7965  0.7037  0.0220
 3225TIP3    H1 9639   0.132   2.819   4.089  0.6277  2.2831  1.1735
 3225TIP3    H2 9640  -0.015   2.850   4.070  0.1616 -1.1399 -1.8285
 3226TIP3   OH2 9641   0.905   6.471   5.671  0.6147 -0.0854 -0.4201
 3226TIP3    H1 9642   0.946   6.402   5.619  2.9768  0.5144  0.5055
 3226TIP3    H2 9643   0.813   6.445   5.677  1.1550 -2.4264 -1.2139
 3227TIP3   OH2 9644   6.461   2.421   4.707  0.2571 -0.2249 -0.6841
 3227TIP3    H1 9645   6.431   2.344   4.756  0.0456  0.6368  0.5916
 3227TIP3    H2 9646   6.382   2.459   4.671  0.4419 -1.0234 -2.0048
 3228TIP3   OH2 9647   5.335   0.127   5.722  0.1140  0.0960 -0.4746
 3228TIP3    H1 9648   5.254   0.080   5.703 -0.4320  1.4785 -1.7847
 3228TIP3    H2 9649   5.311   0.189   5.792  0.0436  0.4624 -0.8196
 3229TIP3   OH2 9650   1.049   0.894   4.083  0.1396  0.4711 -0.0762
 3229TIP3    H1 9651   1.119   0.873   4.021  2.0824  1.1507  1.7726
 3229TIP3    H2 9652   0.968   0.877   4.034  1.5583 -0.5123 -2.2480
 3230TIP3   OH2 9653   5.033   3.206   0.986 -0.0925  0.2505 -0.1312
 3230TIP3    H1 9654   5.059   3.144   0.919  1.5118  1.2352 -0.4757
 3230TIP3    H2 9655   5.066   3.168   1.068  0.6354  0.4932 -0.3044
 3231TIP3   OH2 9656   1.231   5.817   2.134  0.0440 -0.3157 -0.0299
 3231TIP3    H1 9657   1.310   5.798   2.185 -0.3668  0.5205  0.9546
 3231TIP3    H2 9658   1.159   5.785   2.189 -0.3001 -1.5804 -1.1640
 3232TIP3   OH2 9659   3.863   3.538   0.816  0.0517 -0.4559 -0.5859
 3232TIP3    H1 9660   3.818   3.603   0.762  0.7099 -0.5576 -1.2751
 3232TIP3    H2 9661   3.793   3.482   0.849 -0.6588  1.1347  0.8089
 3233TIP3   OH2 9662   2.341   4.665   4.696  0.0492  0.1685 -0.6934
 3233TIP3    H1 9663   2.323   4.574   4.671  1.1285  0.2378 -1.7963
 3233TIP3    H2 9664   2.417   4.659   4.754  0.5040  0.4059 -1.2550
 3234TIP3   OH2 9665   3.532   2.425   2.146 -0.0446  0.1665 -0.1611
 3234TIP3    H1 9666   3.599   2.373   2.103 -1.2580 -0.7385 -1.0193
 3234TIP3    H2 9667   3.564   2.515   2.139  0.6668 -0.1566 -1.2992
 3235TIP3   OH2 9668   5.505   2.520   5.021 -0.0052 -0.3757 -0.0478
 3235TIP3    H1 9669   5.414   2.526   5.049  0.4748  0.0893  1.4989
 3235TIP3    H2 9670   5.520   2.426   5.008 -0.4890 -0.5297  0.4629
 3236TIP3   OH2 9671   1.873   0.247   5.702  0.4720  0.4418  0.0184
 3236TIP3    H1 9672   1.839   0.165   5.666  0.0642  1.4231 -1.9592
 3236TIP3    H2 9673   1.794   0.295   5.729  0.6879  0.3478  0.8491
 3237TIP3   OH2 9674   3.057   2.067   3.822  0.3022 -0.1110 -0.3592
 3237TIP3    H1 9675   3.106   2.139   3.783  1.3947  0.6648  2.2544
 3237TIP3    H2 9676   3.119   1.994   3.827 -0.4809 -0.9628 -1.9760
 3238TIP3   OH2 9677   5.336   0.654   1.264  0.1543  0.8206  0.4589
 3238TIP3    H1 9678   5.352   0.695   1.349  1.4570  1.2281  0.0523
 3238TIP3    H2 9679   5.277   0.714   1.219  1.5807  2.0277  0.0961
 3239TIP3   OH2 9680   6.603   5.525   2.767  0.0542 -0.3460  0.3262
 3239TIP3    H1 9681   6.566   5.440   2.790  1.2350 -0.9090  0.2673
 3239TIP3    H2 9682   6.532   5.573   2.726 -0.6424 -1.2962  0.3987
 3240TIP3   OH2 9683   3.916   6.677   0.371  0.1387  0.0611  0.4741
 3240TIP3    H1 9684   3.973   6.751   0.393 -1.1970  1.4532 -0.5718
 3240TIP3    H2 9685   3.835   6.695   0.419 -0.2126 -0.7189  0.1754
 3241TIP3   OH2 9686   4.062   0.011   2.797 -0.1001  0.1676 -0.7198
 3241TIP3    H1 9687   4.075   0.105   2.783 -0.2552  0.2158 -0.5414
 3241TIP3    H2 9688   3.972   0.004   2.830  0.0305 -0.0100 -0.3992
 3242TIP3   OH2 9689   2.970   5.218   3.416  0.2883 -0.0601 -0.3522
 3242TIP3    H1 9690   2.895   5.215   3.358  0.3692 -0.8050 -0.4331
 3242TIP3    H2 9691   3.044   5.238   3.358  0.4223 -1.1528 -0.5732
 3243TIP3   OH2 9692   3.825   5.937   4.939 -0.1305 -0.3146  0.0647
 3243TIP3    H1 9693   3.773   5.859   4.923  0.0775 -0.5730  0.6100
 3243TIP3    H2 9694   3.790   5.973   5.021 -0.3528  0.2749 -0.2781
 3244TIP3   OH2 9695   2.282   1.657   5.098  0.2146 -0.1231 -0.8742
 3244TIP3    H1 9696   2.187   1.663   5.094  0.2770  2.4376  0.0344
 3244TIP3    H2 9697   2.312   1.704   5.020  0.7287  0.3105 -0.4259
 3245TIP3   OH2 9698   2.261   1.697   2.297  0.0479 -0.2777 -0.7968
 3245TIP3    H1 9699   2.253   1.738   2.211  0.9598  0.6528 -0.4586
 3245TIP3    H2 9700   2.315   1.620   2.282  1.6954  0.8185 -0.8094
 3246TIP3   OH2 9701   4.110   2.233   0.205 -0.2032 -0.0408 -0.1385
 3246TIP3    H1 9702   4.043   2.215   0.272  0.8476  1.1292  1.2937
 3246TIP3    H2 9703   4.074   2.196   0.125 -1.2090 -2.1509  1.1978
 3247TIP3   OH2 9704   2.892   0.916   5.381 -0.5182  0.0481  0.1316
 3247TIP3    H1 9705   2.831   0.903   5.308 -0.7010  1.3584  0.0382
 3247TIP3    H2 9706   2.873   1.004   5.413  0.1838 -0.1691  1.1878
 3248TIP3   OH2 9707   1.811   6.057   1.343  1.0104 -0.1850 -0.4258
 3248TIP3    H1 9708   1.888   6.020   1.299  0.8643  0.5566 -1.3261
 3248TIP3    H2 9709   1.814   6.150   1.323 -0.0115 -0.1160 -0.3092
 3249TIP3   OH2 9710   1.842   6.422   2.049 -0.8237 -0.6316 -0.0482
 3249TIP3    H1 9711   1.812   6.412   1.959  0.1324 -0.3686 -0.4158
 3249TIP3    H2 9712   1.826   6.514   2.070 -0.9242 -0.6602 -0.0001
 3250TIP3   OH2 9713   3.222   6.448   0.535  0.3315  0.4326 -0.1367
 3250TIP3    H1 9714   3.130   6.425   0.528 -0.4403  2.8382  0.9285
 3250TIP3    H2 9715   3.253   6.400   0.611 -0.1199 -0.1253 -0.2962
 3251TIP3   OH2 9716   5.322   5.254   4.607 -0.6398  0.1235 -0.0078
 3251TIP3    H1 9717   5.237   5.226   4.573 -0.3744  0.1176 -0.6696
 3251TIP3    H2 9718   5.382   5.184   4.581  0.0873  1.3645 -1.8993
 3252TIP3   OH2 9719   5.038   1.427   2.337  0.5796  0.3379 -0.8326
 3252TIP3    H1 9720   5.012   1.493   2.273 -0.3984 -1.0130 -1.8679
 3252TIP3    H2 9721   5.039   1.345   2.289  3.0738 -0.2649  0.0990
 3253TIP3   OH2 9722   1.191   2.388   0.908 -0.2280 -0.0980  0.1746
 3253TIP3    H1 9723   1.270   2.416   0.954 -0.2960 -0.4216  0.4957
 3253TIP3    H2 9724   1.223   2.357   0.823 -0.0455  0.0705  0.1809
 3254TIP3   OH2 9725   5.793   1.549   2.720  0.2749  0.1144  0.3992
 3254TIP3    H1 9726   5.772   1.521   2.810  1.6378 -0.7203  0.4872
 3254TIP3    H2 9727   5.777   1.643   2.720 -1.3334 -0.1118  1.0288
 3255TIP3   OH2 9728   1.988   0.471   5.269 -0.0446  0.6567 -0.0046
 3255TIP3    H1 9729   1.915   0.511   5.316 -1.0394 -0.4434 -0.5575
 3255TIP3    H2 9730   2.040   0.429   5.337  1.6580  3.6797  0.7443
 3256TIP3   OH2 9731   4.802   3.626   4.716  0.6757 -0.2670 -0.3217
 3256TIP3    H1 9732   4.862   3.555   4.740  2.4747  1.1687 -0.3407
 3256TIP3    H2 9733   4.779   3.667   4.800 -0.8854 -1.2088 -0.2427
 3257TIP3   OH2 9734   3.362   1.402   0.546 -0.0799  0.6947 -0.1244
 3257TIP3    H1 9735   3.284   1.351   0.565 -1.0921  1.2942 -2.4218
 3257TIP3    H2 9736   3.423   1.378   0.616 -1.5347 -1.3945  0.5354
 3258TIP3   OH2 9737   6.729   5.084   1.007  0.0480 -0.4214 -0.2729
 3258TIP3    H1 9738   6.756   5.147   1.075 -3.4517 -1.0611  1.9884
 3258TIP3    H2 9739   6.727   5.000   1.052  1.6817 -1.7311 -2.4450
 3259TIP3   OH2 9740   0.281   1.365   3.386 -0.2001 -0.1047  0.5941
 3259TIP3    H1 9741   0.199   1.344   3.431 -0.3284 -0.4867  0.1821
 3259TIP3    H2 9742   0.307   1.284   3.343 -2.1944  1.1206 -3.4475
 3260TIP3   OH2 9743   1.262   4.034   4.605  0.5903 -0.1609 -0.3403
 3260TIP3    H1 9744   1.309   4.050   4.523  0.0673  1.0697 -0.4318
 3260TIP3    H2 9745   1.173   4.012   4.577  0.6015 -0.4745 -0.1230
 3261TIP3   OH2 9746   4.150   3.467   3.800  0.2042  0.0890 -0.0325
 3261TIP3    H1 9747   4.146   3.492   3.707  0.4386  0.1264 -0.0328
 3261TIP3    H2 9748   4.138   3.549   3.847  0.8799  0.1950 -0.0331
 3262TIP3   OH2 9749   1.350   5.719   0.231 -0.0538 -0.3205 -0.2857
 3262TIP3    H1 9750   1.357   5.687   0.141  0.4021  2.0537 -1.1612
 3262TIP3    H2 9751   1.271   5.677   0.265 -0.4318 -0.9960 -1.9090
 3263TIP3   OH2 9752   0.304   2.501   0.644  0.2752  0.1419 -0.4509
 3263TIP3    H1 9753   0.355   2.426   0.612 -0.5790 -0.2216 -1.0213
 3263TIP3    H2 9754   0.285   2.553   0.566 -1.2294 -0.3731 -0.4732
 3264TIP3   OH2 9755   4.254   4.844   4.752  0.2419  0.0013  0.3562
 3264TIP3    H1 9756   4.305   4.924   4.762 -0.6322  0.8892 -1.8251
 3264TIP3    H2 9757   4.166   4.874   4.729  0.7650 -1.4502 -4.6225
 3265TIP3   OH2 9758   3.261   3.070   4.662  0.1230  0.1142 -0.4262
 3265TIP3    H1 9759   3.340   3.029   4.697 -1.0015 -0.5540  1.4673
 3265TIP3    H2 9760   3.210   2.997   4.627  0.1609  0.5001 -1.3124
 3266TIP3   OH2 9761   0.249   5.836   3.075 -0.6074 -0.0206 -0.3825
 3266TIP3    H1 9762   0.207   5.751   3.068  1.0853 -0.7794 -2.0039
 3266TIP3    H2 9763   0.300   5.831   3.156 -0.2302 -0.6662 -0.6621
 3267TIP3   OH2 9764   6.514   0.230   0.643  0.1884 -0.0818  0.4314
 3267TIP3    H1 9765   6.561   0.311   0.626 -0.7565  0.1792 -1.0922
 3267TIP3    H2 9766   6.493   0.234   0.736 -0.9681  2.0551  0.1387
 3268TIP3   OH2 9767   0.719   3.832   1.327 -0.2678  0.2048  0.3432
 3268TIP3    H1 9768   0.631   3.796   1.338 -0.7133  1.4020  0.8350
 3268TIP3    H2 9769   0.778   3.760   1.352 -1.1365 -0.1334  1.5153
 3269TIP3   OH2 9770   5.342   5.799   4.258  0.0423  0.2000  0.2897
 3269TIP3    H1 9771   5.269   5.860   4.252  0.3865  0.7735  1.5651
 3269TIP3    H2 9772   5.376   5.793   4.168 -1.2691  0.2556 -0.2406
 3270TIP3   OH2 9773   2.043   5.322   2.078  0.1653  0.3487  0.8124
 3270TIP3    H1 9774   1.963   5.364   2.047  0.5506 -0.9502 -2.3465
 3270TIP3    H2 9775   2.015   5.235   2.107  0.2871  0.2868  0.7465
 3271TIP3   OH2 9776   1.068   1.740   1.424  0.1764 -0.5818 -0.0511
 3271TIP3    H1 9777   1.057   1.651   1.458 -0.7704 -0.1363  0.8846
 3271TIP3    H2 9778   1.003   1.792   1.472  0.6036  0.5867 -0.6942
 3272TIP3   OH2 9779   6.376   2.165   0.568 -0.2507  0.7203 -0.4129
 3272TIP3    H1 9780   6.367   2.240   0.509 -1.1136  0.7902 -0.2039
 3272TIP3    H2 9781   6.457   2.183   0.617 -0.2392  1.3197 -0.6383
 3273TIP3   OH2 9782   6.652   6.147   1.591 -0.3124  0.1435 -0.3412
 3273TIP3    H1 9783   6.671   6.200   1.514 -0.2750  0.3006 -0.2230
 3273TIP3    H2 9784   6.712   6.179   1.658  1.8955 -2.0610 -1.1000
 3274TIP3   OH2 9785   5.398   2.955   5.485 -0.1289  0.1921 -0.1238
 3274TIP3    H1 9786   5.353   2.992   5.561 -1.8564  0.2145 -1.1060
 3274TIP3    H2 9787   5.341   2.884   5.456  0.4546  0.2316 -1.4528
 3275TIP3   OH2 9788   4.622   4.840   0.683 -0.0242  0.0853  0.4275
 3275TIP3    H1 9789   4.578   4.911   0.635 -0.7784  0.0862  1.1054
 3275TIP3    H2 9790   4.682   4.885   0.742 -1.0473  0.2125  1.3983
 3276TIP3   OH2 9791   5.208   5.055   5.346  0.2728  0.3097 -0.3638
 3276TIP3    H1 9792   5.195   5.099   5.262  0.4073 -1.4874 -1.3711
 3276TIP3    H2 9793   5.122   5.019   5.368  0.0945  1.2632  0.5991
 3277TIP3   OH2 9794   3.010   3.841   1.592 -0.3477 -0.1069  0.5421
 3277TIP3    H1 9795   2.947   3.894   1.640 -0.1720  0.3429  0.2828
 3277TIP3    H2 9796   3.095   3.878   1.616 -0.2260 -0.2667  0.3599
 3278TIP3   OH2 9797   5.283   3.845   3.073 -0.1212 -0.0648  0.3399
 3278TIP3    H1 9798   5.346   3.833   3.144 -0.7400 -2.3189  0.6024
 3278TIP3    H2 9799   5.213   3.898   3.112  1.3023  1.9925  0.2059
 3279TIP3   OH2 9800   1.268   2.004   0.589  0.0233 -0.3353  0.1877
 3279TIP3    H1 9801   1.286   1.962   0.504 -0.4150  1.1229 -0.6507
 3279TIP3    H2 9802   1.354   2.008   0.632  0.3265 -0.6740 -0.3681
 3280TIP3   OH2 9803   5.063   6.159   1.784 -0.3961  0.3858 -0.3633
 3280TIP3    H1 9804   5.003   6.221   1.827 -1.1937 -0.0727 -0.8024
 3280TIP3    H2 9805   5.115   6.214   1.725 -0.3728  0.7879  0.0218
 3281TIP3   OH2 9806   1.196   4.262   4.010  0.5290  0.4262  0.1427
 3281TIP3    H1 9807   1.185   4.343   4.059 -2.1213 -0.2642  0.8899
 3281TIP3    H2 9808   1.170   4.193   4.071  3.3681 -1.1333 -0.2365
 3282TIP3   OH2 9809   3.896   3.399   3.036 -0.1144  0.7945  0.1674
 3282TIP3    H1 9810   3.908   3.384   3.130 -0.4482  0.0197  0.0970
 3282TIP3    H2 9811   3.981   3.378   2.998 -0.0596  0.8273  0.2707
 3283TIP3   OH2 9812   2.965   1.115   0.073  0.9650  0.0647 -0.1817
 3283TIP3    H1 9813   3.032   1.131   0.007  1.1571 -1.0420 -0.2688
 3283TIP3    H2 9814   2.950   1.201   0.113  1.4343  0.5904 -1.0942
 3284TIP3   OH2 9815   4.051   5.774   3.615 -0.3730 -0.1568 -0.0540
 3284TIP3    H1 9816   4.004   5.850   3.651  2.1193  1.2188  0.5238
 3284TIP3    H2 9817   4.071   5.799   3.525 -0.3148 -0.5174 -0.1407
 3285TIP3   OH2 9818   1.763   5.613   1.573 -0.1406 -0.0883 -0.1039
 3285TIP3    H1 9819   1.685   5.633   1.522 -1.1737 -1.7622  0.7252
 3285TIP3    H2 9820   1.732   5.556   1.643  1.4978  0.8498  1.4660
 3286TIP3   OH2 9821   4.618   2.385   1.556  0.3699  0.0761 -0.1794
 3286TIP3    H1 9822   4.558   2.460   1.553 -0.2158 -0.3742 -0.0380
 3286TIP3    H2 9823   4.600   2.337   1.475 -1.8466 -1.8289  1.2962
 3287TIP3   OH2 9824   5.469   0.998   1.871 -0.0315 -0.0413 -0.3768
 3287TIP3    H1 9825   5.555   0.993   1.829 -0.0029 -0.3914 -0.2804
 3287TIP3    H2 9826   5.476   1.073   1.930  0.9046 -1.3092  1.1877
 3288TIP3   OH2 9827   5.639   5.637   1.399  0.4663 -0.0444 -0.1961
 3288TIP3    H1 9828   5.672   5.590   1.476 -1.5821 -0.5202  0.4553
 3288TIP3    H2 9829   5.545   5.618   1.398  0.3044  0.6035 -2.3836
 3289TIP3   OH2 9830   4.955   2.288   0.386 -0.3690 -0.5853  0.1406
 3289TIP3    H1 9831   4.960   2.247   0.473 -2.1402 -1.5902 -0.1703
 3289TIP3    H2 9832   4.947   2.381   0.404  0.1225 -0.7037  1.0245
 3290TIP3   OH2 9833   0.495   1.035   1.893  0.1276  0.1228  0.0583
 3290TIP3    H1 9834   0.477   1.117   1.847 -0.3856  0.0124  0.0566
 3290TIP3    H2 9835   0.491   0.968   1.826 -0.7643 -0.0557  0.2745
 3291TIP3   OH2 9836   6.242   5.048   3.083  0.3507 -0.5277 -0.0946
 3291TIP3    H1 9837   6.279   5.028   2.997 -1.7148 -0.0336 -1.1664
 3291TIP3    H2 9838   6.181   5.120   3.066 -0.1075 -0.4257  1.8084
 3292TIP3   OH2 9839   2.053   4.930   0.365 -0.0461 -0.1582 -0.2992
 3292TIP3    H1 9840   2.032   4.843   0.333 -0.2711  0.1152 -0.8997
 3292TIP3    H2 9841   2.038   4.925   0.460 -5.6855  0.7043 -0.7746
 3293TIP3   OH2 9842   6.346   2.371   1.085 -0.4726 -0.7998  0.0836
 3293TIP3    H1 9843   6.436   2.381   1.055  0.0001 -3.2897  0.4349
 3293TIP3    H2 9844   6.342   2.281   1.119 -2.5465 -0.0830  1.9812
 3294TIP3   OH2 9845   3.616   3.883   0.929  0.1916  0.3963 -0.5901
 3294TIP3    H1 9846   3.630   3.844   0.844 -1.8547  0.5554 -1.0571
 3294TIP3    H2 9847   3.694   3.861   0.980 -0.1731 -2.9338 -1.3057
 3295TIP3   OH2 9848   5.050   6.014   4.838  0.3865  0.1089  0.0641
 3295TIP3    H1 9849   5.118   5.948   4.843 -0.8964 -1.2211  0.8164
 3295TIP3    H2 9850   4.970   5.965   4.820 -1.0680  1.0718  3.1624
 3296TIP3   OH2 9851   2.117   4.386   4.273 -0.1461 -0.6686 -0.3300
 3296TIP3    H1 9852   2.105   4.342   4.190  0.6948 -0.0844 -0.7772
 3296TIP3    H2 9853   2.130   4.316   4.337 -0.8275 -1.1158 -0.6787
 3297TIP3   OH2 9854   2.359   4.258   3.288  0.3379  0.0408  0.3335
 3297TIP3    H1 9855   2.411   4.324   3.242  1.6611 -1.4790 -0.4459
 3297TIP3    H2 9856   2.421   4.187   3.307 -0.7918 -0.5471  2.0834
 3298TIP3   OH2 9857   5.035   5.232   1.317 -0.2895 -0.1092  0.0629
 3298TIP3    H1 9858   5.032   5.191   1.403 -0.3700  3.2820  1.8308
 3298TIP3    H2 9859   5.129   5.246   1.300 -0.1435 -2.1726 -1.2570
 3299TIP3   OH2 9860   6.211   1.026   2.594  0.0364  0.0267 -0.1367
 3299TIP3    H1 9861   6.134   1.066   2.635  1.0819  0.8949  1.0753
 3299TIP3    H2 9862   6.197   1.036   2.500 -0.3124  2.2116  0.1081
 3300TIP3   OH2 9863   2.942   1.191   4.087 -0.3107 -0.5025 -0.3098
 3300TIP3    H1 9864   2.964   1.180   4.180 -1.2793 -0.0157 -0.0131
 3300TIP3    H2 9865   2.861   1.142   4.075 -0.7990  0.3576 -0.6305
 3301TIP3   OH2 9866   5.815   3.908  -0.020 -0.1771  0.0414 -0.1808
 3301TIP3    H1 9867   5.887   3.929   0.039  0.9586 -1.9609 -0.7617
 3301TIP3    H2 9868   5.752   3.860   0.035  0.5000 -1.0992 -0.3616
 3302TIP3   OH2 9869   6.707   2.884   5.236 -0.3406  0.9217  0.1870
 3302TIP3    H1 9870   6.630   2.903   5.183 -0.3037 -0.0365 -0.2315
 3302TIP3    H2 9871   6.673   2.838   5.313 -0.1583 -0.0194 -0.2705
 3303TIP3   OH2 9872   6.205   5.278   0.230  0.8456 -0.3634  1.0881
 3303TIP3    H1 9873   6.211   5.253   0.138  1.2542 -0.5519  1.1613
 3303TIP3    H2 9874   6.113   5.268   0.253  1.0685 -2.3358  1.2553
 3304TIP3   OH2 9875   2.335   4.411   0.699 -0.0117  0.3304 -0.5411
 3304TIP3    H1 9876   2.265   4.361   0.658  0.5945 -1.1162  0.1242
 3304TIP3    H2 9877   2.298   4.498   0.712 -1.2663 -0.0654 -1.2976
 3305TIP3   OH2 9878   0.185   0.514   2.772  0.2822 -0.2841  0.5871
 3305TIP3    H1 9879   0.225   0.428   2.780 -0.4590 -0.6894  0.0973
 3305TIP3    H2 9880   0.256   0.576   2.789  1.1893 -0.9603 -0.6031
 3306TIP3   OH2 9881   5.026   2.320   3.499  0.6836  0.4366  0.3209
 3306TIP3    H1 9882   5.033   2.236   3.544  0.0166  0.0576 -0.2663
 3306TIP3    H2 9883   5.071   2.307   3.416 -1.0657  0.0467 -0.5993
 3307TIP3   OH2 9884   3.274   2.215   4.317 -0.6841 -0.0790 -0.0351
 3307TIP3    H1 9885   3.268   2.191   4.225  1.6648  0.8537 -0.5157
 3307TIP3    H2 9886   3.326   2.295   4.318  0.4566 -0.7459  2.1618
 3308TIP3   OH2 9887   1.847   0.495   5.502  0.1353 -0.8438 -0.3234
 3308TIP3    H1 9888   1.755   0.524   5.504 -0.0218 -1.3922  1.0377
 3308TIP3    H2 9889   1.886   0.531   5.581  0.9219 -1.2056 -0.5385
 3309TIP3   OH2 9890   2.146   3.218   1.312  0.4236 -0.3530  0.6562
 3309TIP3    H1 9891   2.147   3.189   1.221  0.9102 -2.0759  1.1751
 3309TIP3    H2 9892   2.130   3.139   1.362  0.0755  0.5901  2.0769
 3310TIP3   OH2 9893   1.271   3.495   2.036  0.3946  0.1277 -0.1042
 3310TIP3    H1 9894   1.251   3.553   1.962  0.6099 -1.6304 -1.6311
 3310TIP3    H2 9895   1.186   3.475   2.074  0.3302  1.5269  0.5447
 3311TIP3   OH2 9896   6.421   1.505   4.147  0.1390  0.7962 -0.1782
 3311TIP3    H1 9897   6.381   1.484   4.231  1.3796 -0.8559  0.0425
 3311TIP3    H2 9898   6.469   1.587   4.163 -1.7977  1.9660 -0.0495
 3312TIP3   OH2 9899   2.846   2.702   2.454  0.2795  0.0370 -0.1093
 3312TIP3    H1 9900   2.865   2.637   2.387  1.3207 -0.3554  0.5291
 3312TIP3    H2 9901   2.808   2.776   2.407  1.1619 -0.1534 -1.1599
 3313TIP3   OH2 9902   5.569   6.455   4.451  0.1584 -0.4304 -0.1478
 3313TIP3    H1 9903   5.493   6.406   4.421  0.4730 -1.1536  0.1886
 3313TIP3    H2 9904   5.539   6.501   4.530 -0.1449 -0.0618 -0.4770
 3314TIP3   OH2 9905   5.288   2.243   4.407  0.2701  0.1298  0.3891
 3314TIP3    H1 9906   5.374   2.205   4.425  0.8956  1.4832  0.4274
 3314TIP3    H2 9907   5.266   2.212   4.319  0.5462 -0.6497  0.5890
 3315TIP3   OH2 9908   2.708   1.446   2.239  0.0097  0.3433  0.2731
 3315TIP3    H1 9909   2.679   1.356   2.222  0.4743  0.3553 -0.5806
 3315TIP3    H2 9910   2.760   1.470   2.163  1.1719  0.7993  1.1859
 3316TIP3   OH2 9911   1.397   6.260   0.104 -0.0126 -0.2307  0.0580
 3316TIP3    H1 9912   1.442   6.321   0.046  2.3340 -2.0504 -0.2383
 3316TIP3    H2 9913   1.368   6.313   0.178  2.2559  1.2218  0.0027
 3317TIP3   OH2 9914   0.828   2.070   0.687 -0.3417  0.0557 -0.1692
 3317TIP3    H1 9915   0.845   2.122   0.766 -2.8485 -1.4394  1.4832
 3317TIP3    H2 9916   0.782   2.131   0.628 -0.8633  0.4648  0.6459
 3318TIP3   OH2 9917   1.006   2.245   3.397 -0.0925 -0.0572 -0.4869
 3318TIP3    H1 9918   1.018   2.338   3.379  1.6088  0.3725  2.3456
 3318TIP3    H2 9919   0.911   2.232   3.396 -0.3219  1.0889 -3.2781
 3319TIP3   OH2 9920   2.554   2.790   1.785 -0.0132 -0.2949  0.2040
 3319TIP3    H1 9921   2.572   2.756   1.873 -0.0778 -1.2966 -0.1566
 3319TIP3    H2 9922   2.640   2.808   1.748  0.0660 -0.9262  0.0723
 3320TIP3   OH2 9923   2.932   2.971   2.586 -0.1557 -0.2568  0.1145
 3320TIP3    H1 9924   2.910   3.009   2.671 -0.1006 -0.7124  0.3322
 3320TIP3    H2 9925   2.897   2.882   2.589  0.0255 -0.3443 -0.2638
 3321TIP3   OH2 9926   0.308   6.248   3.853 -0.2425 -0.5778  0.4581
 3321TIP3    H1 9927   0.327   6.157   3.874  3.2753  0.1693  1.0942
 3321TIP3    H2 9928   0.373   6.271   3.786 -0.9794  1.4837  0.3922
 3322TIP3   OH2 9929   5.345   1.492   0.545 -0.2213 -0.3779  0.8599
 3322TIP3    H1 9930   5.412   1.429   0.517  0.6139  0.2005  1.5257
 3322TIP3    H2 9931   5.394   1.571   0.567 -0.8369 -0.6879  3.6632
 3323TIP3   OH2 9932   5.605   1.732   1.185 -0.1235  0.0555  0.0372
 3323TIP3    H1 9933   5.580   1.809   1.133 -1.8124  0.6113  1.5278
 3323TIP3    H2 9934   5.589   1.759   1.276  2.8348 -0.8232  0.9165
 3324TIP3   OH2 9935   1.448   1.615   4.598 -1.2513 -0.1534 -0.2616
 3324TIP3    H1 9936   1.400   1.694   4.625  0.3366  0.8298 -0.1667
 3324TIP3    H2 9937   1.382   1.547   4.594 -2.2705  0.5740  2.1790
 3325TIP3   OH2 9938   1.180   2.596   3.888  0.8017  0.1979 -0.0819
 3325TIP3    H1 9939   1.178   2.654   3.813 -0.0933  0.2590 -0.0212
 3325TIP3    H2 9940   1.195   2.509   3.851  1.4918  0.3702 -0.2250
 3326TIP3   OH2 9941   2.157   2.262   2.367  0.0852 -0.5084 -0.0959
 3326TIP3    H1 9942   2.238   2.244   2.414  0.8148  1.4771 -0.5176
 3326TIP3    H2 9943   2.158   2.356   2.352 -1.8067 -0.5912 -1.0467
 3327TIP3   OH2 9944   1.998   6.330   3.161  0.2192  0.4390  0.5582
 3327TIP3    H1 9945   2.044   6.305   3.241 -1.4888 -0.0734  1.4386
 3327TIP3    H2 9946   1.949   6.409   3.185  2.1838  2.2102 -0.9540
 3328TIP3   OH2 9947   1.064   3.324   1.400 -0.5228  0.3051  0.1647
 3328TIP3    H1 9948   0.970   3.315   1.409 -1.1595  3.8870 -1.1698
 3328TIP3    H2 9949   1.093   3.359   1.485 -0.4430 -0.3200  0.4021
 3329TIP3   OH2 9950   0.370   4.807   4.139 -0.4504 -0.0806 -0.5167
 3329TIP3    H1 9951   0.427   4.784   4.066 -0.9904  1.9029 -1.6547
 3329TIP3    H2 9952   0.292   4.753   4.127  0.3633 -1.3909 -0.0779
 3330TIP3   OH2 9953   5.165   1.467   4.363 -0.5657  0.5128 -0.1023
 3330TIP3    H1 9954   5.152   1.525   4.288  3.2350  1.4068 -0.2870
 3330TIP3    H2 9955   5.117   1.388   4.341 -0.6479  1.2375 -2.9045
 3331TIP3   OH2 9956   0.475   2.387   3.055  0.3913  0.2564  0.4712
 3331TIP3    H1 9957   0.464   2.293   3.046 -0.4238  0.5249 -2.1166
 3331TIP3    H2 9958   0.510   2.399   3.144  0.9235 -2.4761  0.7101
 3332TIP3   OH2 9959   5.825   3.901   0.667  0.3659 -0.3840  0.1617
 3332TIP3    H1 9960   5.850   3.809   0.663 -0.0231 -0.4509 -1.5045
 3332TIP3    H2 9961   5.734   3.900   0.696  0.6980 -0.4514  1.2144
 3333TIP3   OH2 9962   5.113   1.763   4.944  1.0076 -0.5496 -0.2095
 3333TIP3    H1 9963   5.053   1.836   4.936  1.9941  0.3268  0.1977
 3333TIP3    H2 9964   5.131   1.737   4.853  0.4802 -0.4443 -0.3449
 3334TIP3   OH2 9965   1.814   1.125   3.666  0.1732 -0.5103 -0.1006
 3334TIP3    H1 9966   1.731   1.160   3.698  1.9865  3.2842  1.0833
 3334TIP3    H2 9967   1.854   1.083   3.742 -0.0779 -1.2011 -0.3394
 3335TIP3   OH2 9968   1.087   4.337   0.840  0.6708 -0.3420  0.2455
 3335TIP3    H1 9969   1.154   4.405   0.845  1.1811 -0.8162  0.0021
 3335TIP3    H2 9970   1.020   4.364   0.902  1.5508 -0.3530  1.2186
 3336TIP3   OH2 9971   3.239   3.981   1.622  0.2748  0.0860 -0.1260
 3336TIP3    H1 9972   3.316   3.955   1.571  0.8608  2.0251 -0.3116
 3336TIP3    H2 9973   3.226   4.073   1.601 -0.6077  0.4570  1.8160
 3337TIP3   OH2 9974   2.880   5.324   1.755 -0.0857  0.4538 -0.4105
 3337TIP3    H1 9975   2.953   5.262   1.759  0.5604  1.1514 -1.0125
 3337TIP3    H2 9976   2.816   5.289   1.817 -0.3117 -1.5306 -1.6577
 3338TIP3   OH2 9977   5.917   2.064   4.894 -0.8279  0.7148 -0.5545
 3338TIP3    H1 9978   5.895   1.980   4.935  1.4985 -0.3233 -1.2611
 3338TIP3    H2 9979   5.857   2.070   4.819 -0.6500 -0.6267 -0.8327
 3339TIP3   OH2 9980   3.026   0.547   4.589 -0.2030 -0.1108  0.2389
 3339TIP3    H1 9981   3.099   0.600   4.556 -1.6779  0.9460 -1.5421
 3339TIP3    H2 9982   3.021   0.474   4.527 -1.5167  0.6034 -0.5314
 3340TIP3   OH2 9983   3.691   3.021   2.719 -0.6636 -0.7702 -0.2981
 3340TIP3    H1 9984   3.781   3.001   2.694 -0.8211 -0.7067 -0.9356
 3340TIP3    H2 9985   3.678   2.974   2.802  1.2687  2.4873  2.0613
 3341TIP3   OH2 9986   6.547   6.829   5.578  0.4285  0.2737 -0.1239
 3341TIP3    H1 9987   6.560   6.770   5.652  0.2385  0.8032  0.3446
 3341TIP3    H2 9988   6.476   6.789   5.528 -0.5012  0.6843  0.8247
 3342TIP3   OH2 9989   4.290   2.546   2.608  0.4385 -0.2285 -0.2216
 3342TIP3    H1 9990   4.318   2.465   2.566 -1.0439 -1.3557  0.8669
 3342TIP3    H2 9991   4.350   2.558   2.681  0.1159 -0.8243  0.1397
 3343TIP3   OH2 9992   0.016   6.605   2.494  0.0355 -0.0345 -0.4659
 3343TIP3    H1 9993   0.084   6.541   2.514 -0.7706 -0.7554  0.0828
 3343TIP3    H2 9994  -0.035   6.566   2.423 -0.8916 -0.3740  0.3442
 3344TIP3   OH2 9995   6.907   1.895   1.466  0.2757  0.1885 -0.0862
 3344TIP3    H1 9996   6.813   1.890   1.446  0.0018  0.5823  1.0426
 3344TIP3    H2 9997   6.914   1.867   1.557  1.2524  0.2454 -0.1302
 3345TIP3   OH2 9998   3.122   6.330   1.347 -0.5990 -0.0296 -0.0543
 3345TIP3    H1 9999   3.169   6.396   1.399 -1.3305  0.7521 -0.3528
 3345TIP3    H210000   3.045   6.308   1.401 -0.3682 -0.6388  0.0356
 3346TIP3   OH210001   6.975   5.375   4.315  0.5290 -0.9337  0.2584
 3346TIP3    H110002   6.902   5.339   4.264  0.7594 -0.7033 -0.2355
 3346TIP3    H210003   6.956   5.468   4.322  1.4340 -0.6356 -0.9951
 3347TIP3   OH210004   2.323   2.547   1.105  0.7716  0.4085  0.2377
 3347TIP3    H110005   2.348   2.483   1.173  1.4408  0.1616 -0.2284
 3347TIP3    H210006   2.407   2.577   1.069  0.4151 -0.1461 -1.1141
 3348TIP3   OH210007   2.838   1.911   5.092  0.1478 -0.2339  0.0284
 3348TIP3    H110008   2.744   1.904   5.113  0.4871 -1.3748  1.3398
 3348TIP3    H210009   2.869   1.985   5.144 -0.1584  0.6285 -0.9918
 3349TIP3   OH210010   5.475   5.666   1.734 -0.4246 -0.0520 -0.1611
 3349TIP3    H110011   5.389   5.690   1.767 -0.1748 -0.4319  0.7794
 3349TIP3    H210012   5.534   5.680   1.807  0.7359  2.5131 -1.4665
 3350TIP3   OH210013   7.047   0.938   5.616 -0.2503  0.3933  0.4937
 3350TIP3    H110014   7.095   1.011   5.576  0.8024 -0.0546  0.8886
 3350TIP3    H210015   6.988   0.908   5.547  0.9330  0.1667 -0.4598
 3351TIP3   OH210016   6.981   4.316   3.549 -0.0016  0.8866 -0.4638
 3351TIP3    H110017   7.064   4.270   3.563 -0.3963  0.4640  0.5898
 3351TIP3    H210018   6.976   4.379   3.621  0.8398  3.1117 -2.2299
 3352TIP3   OH210019   4.350   0.741   4.701 -0.3290 -0.2732  0.2833
 3352TIP3    H110020   4.422   0.679   4.694 -0.1489 -0.0318 -0.0087
 3352TIP3    H210021   4.328   0.763   4.611 -2.1476 -1.9276  0.2620
 3353TIP3   OH210022   7.000   4.066   4.531 -0.2381  0.1748 -0.3061
 3353TIP3    H110023   6.942   4.138   4.507 -0.1126  0.9422  1.5285
 3353TIP3    H210024   6.942   3.999   4.568 -0.2131 -0.1830 -0.8878
 3354TIP3   OH210025   4.019   2.468   3.488 -0.3569 -0.0406 -0.2933
 3354TIP3    H110026   3.966   2.409   3.542  0.0744 -0.9491 -0.8417
 3354TIP3    H210027   4.002   2.439   3.398  0.7630 -0.1001 -0.4958
 3355TIP3   OH210028   5.418   1.133   1.326  0.9142  0.2615  0.0196
 3355TIP3    H110029   5.362   1.180   1.263 -0.5505 -0.1045  0.9869
 3355TIP3    H210030   5.491   1.100   1.273  0.6527  1.4541 -1.1436
 3356TIP3   OH210031   3.854   5.372   3.903  0.2061 -0.5467 -0.4222
 3356TIP3    H110032   3.869   5.280   3.925 -1.4459 -1.0531 -1.2714
 3356TIP3    H210033   3.883   5.380   3.812  1.5358  0.1085  0.0376
 3357TIP3   OH210034   5.156   6.593   5.460 -0.2837 -0.5276  0.4687
 3357TIP3    H110035   5.163   6.562   5.369 -0.0730 -1.1613  0.6934
 3357TIP3    H210036   5.231   6.651   5.471  0.5961 -1.6616  0.6905
 3358TIP3   OH210037   2.776   3.126   0.432  0.7100 -0.5592  0.0275
 3358TIP3    H110038   2.734   3.204   0.398  0.9511  0.1133  1.2159
 3358TIP3    H210039   2.870   3.147   0.433  0.7027 -0.5246  1.1408
 3359TIP3   OH210040   4.457   0.131   5.197 -0.0891  0.1591  0.4447
 3359TIP3    H110041   4.484   0.217   5.229  0.5277  0.1269  0.0521
 3359TIP3    H210042   4.362   0.135   5.193 -0.0269  1.6295 -1.6681
 3360TIP3   OH210043   6.508   1.016   2.907 -0.3163  0.0053 -0.6596
 3360TIP3    H110044   6.491   1.006   2.813 -0.6989 -0.1206 -0.5764
 3360TIP3    H210045   6.427   1.053   2.942 -1.1726 -2.3999  0.0607
 3361TIP3   OH210046   3.772   2.463   0.540  0.0004  0.3699 -0.3115
 3361TIP3    H110047   3.779   2.452   0.445  0.1233 -0.9495 -0.1725
 3361TIP3    H210048   3.825   2.540   0.560 -1.5306  1.8092 -1.5168
 3362TIP3   OH210049  -0.028   5.491   5.553 -0.2017 -0.2504 -0.3790
 3362TIP3    H110050   0.060   5.500   5.518 -0.8891  0.9834 -1.9286
 3362TIP3    H210051  -0.027   5.539   5.635  0.3663  0.4860 -0.8011
 3363TIP3   OH210052   4.278   0.707   1.040 -0.1267  0.3210 -0.2596
 3363TIP3    H110053   4.246   0.761   0.968 -0.1087  0.2534 -0.3190
 3363TIP3    H210054   4.201   0.660   1.071 -0.3778  1.2484  0.5579
 3364TIP3   OH210055   3.890   6.480   1.717 -0.4949 -0.0320  0.1985
 3364TIP3    H110056   3.973   6.435   1.701 -0.3991 -1.0117  3.0062
 3364TIP3    H210057   3.824   6.413   1.702 -0.8820  0.7430 -2.0163
 3365TIP3   OH210058   0.975   1.499   1.519  0.4834 -0.1920 -0.5585
 3365TIP3    H110059   0.988   1.509   1.614 -2.3835 -0.8382  0.0062
 3365TIP3    H210060   0.953   1.407   1.508 -0.2280  0.1018 -1.6931
 3366TIP3   OH210061   1.516   0.456   3.923 -0.7216 -0.5700 -0.2580
 3366TIP3    H110062   1.563   0.529   3.884 -2.2214  0.7950  0.4069
 3366TIP3    H210063   1.581   0.386   3.928  0.3410  0.1752 -2.3558
 3367TIP3   OH210064   1.279   6.004   0.357  0.2833 -0.6791  0.5340
 3367TIP3    H110065   1.209   5.963   0.407 -0.9371 -0.6916 -1.0988
 3367TIP3    H210066   1.302   5.939   0.290  0.5219  0.0620 -0.1191
 3368TIP3   OH210067   5.453   4.837   0.053 -0.1791 -0.4778  0.2191
 3368TIP3    H110068   5.488   4.808   0.137 -0.9363  0.7424  0.9951
 3368TIP3    H210069   5.360   4.848   0.069 -0.0929  1.3538 -0.2725
 3369TIP3   OH210070   4.010   6.268   4.202 -0.4356  0.1447 -0.2964
 3369TIP3    H110071   4.099   6.300   4.188  0.0683 -1.6359 -1.6621
 3369TIP3    H210072   4.000   6.264   4.297  0.1004  2.4663 -0.0982
 3370TIP3   OH210073   4.083   6.602   1.235 -0.1913  0.2721  0.1309
 3370TIP3    H110074   4.011   6.649   1.194  1.2841  0.3385 -2.5668
 3370TIP3    H210075   4.043   6.558   1.311 -2.4736  2.3739  0.2622
 3371TIP3   OH210076   6.685   1.964   5.433 -0.2704 -0.4280 -0.2150
 3371TIP3    H110077   6.599   1.994   5.403  0.0309  0.9469  0.2269
 3371TIP3    H210078   6.689   1.872   5.407 -0.7641  0.1921 -2.7243
 3372TIP3   OH210079   4.463   6.013   0.230  0.2771  0.1763 -0.7244
 3372TIP3    H110080   4.510   5.974   0.156  1.4310  1.1486 -0.5361
 3372TIP3    H210081   4.380   5.966   0.233  1.2905 -1.7581 -0.9548
 3373TIP3   OH210082   2.682   4.228   1.102 -0.5700 -0.6684 -0.4376
 3373TIP3    H110083   2.648   4.139   1.099  0.2987 -0.9825 -1.6378
 3373TIP3    H210084   2.632   4.276   1.036 -0.8495 -0.3250  0.0150
 3374TIP3   OH210085   0.693   3.929   5.159  0.4065 -0.2583 -0.1127
 3374TIP3    H110086   0.645   4.001   5.117 -0.3780 -0.5105  0.3261
 3374TIP3    H210087   0.674   3.853   5.105 -1.1034 -0.7117  0.9847
 3375TIP3   OH210088   5.877   1.392   1.684  0.3340 -0.1854 -0.1882
 3375TIP3    H110089   5.882   1.395   1.780 -0.2199  2.3282 -0.1652
 3375TIP3    H210090   5.873   1.484   1.658 -2.2152 -0.8261 -2.4649
 3376TIP3   OH210091   5.516   5.096   0.023 -0.0490 -0.1876  0.1102
 3376TIP3    H110092   5.603   5.108   0.060 -0.2994 -0.8323  0.9353
 3376TIP3    H210093   5.492   5.006   0.045  0.2180 -0.9753 -2.5511
 3377TIP3   OH210094   2.270   4.895   2.925  0.5348 -0.2244  0.1866
 3377TIP3    H110095   2.327   4.850   2.863 -0.4688 -1.0347 -0.1861
 3377TIP3    H210096   2.184   4.894   2.883  0.0489  0.1028  1.1483
 3378TIP3   OH210097   4.571   1.540   1.868  0.0072 -0.3513  0.0264
 3378TIP3    H110098   4.614   1.456   1.880 -0.7263 -0.9232 -1.1348
 3378TIP3    H210099   4.480   1.525   1.895 -0.6755 -0.5814 -2.1983
 3379TIP3   OH210100   0.412   0.204   3.268 -0.3900 -0.6359  0.0676
 3379TIP3    H110101   0.506   0.200   3.253 -0.1345 -1.1749  1.6467
 3379TIP3    H210102   0.392   0.298   3.269  0.4254 -0.4560  1.2856
 3380TIP3   OH210103   5.462   1.228   0.311  0.5959  0.6215 -0.0987
 3380TIP3    H110104   5.505   1.249   0.228  2.9175 -1.0563  0.5933
 3380TIP3    H210105   5.511   1.277   0.377 -0.1783  0.6444  0.4809
 3381TIP3   OH210106   3.536   3.557   0.425 -0.1086 -0.1096 -0.8482
 3381TIP3    H110107   3.452   3.597   0.446 -0.2451 -0.9710  0.3613
 3381TIP3    H210108   3.513   3.470   0.390  0.2732 -0.2338 -0.7904
 3382TIP3   OH210109   5.175   0.041   1.294 -0.4619 -0.5145  0.1635
 3382TIP3    H110110   5.194   0.037   1.388 -2.0747  0.0889  0.5560
 3382TIP3    H210111   5.101   0.101   1.288  0.4029  0.4343 -1.6395
 3383TIP3   OH210112   2.819   3.485   4.993 -0.2211 -0.1298  0.0778
 3383TIP3    H110113   2.730   3.483   5.028  0.1944 -0.3701  1.1667
 3383TIP3    H210114   2.830   3.575   4.961 -1.3004 -0.4655 -1.3241
 3384TIP3   OH210115   5.653   2.420   2.256 -0.9717  0.4492 -0.6540
 3384TIP3    H110116   5.594   2.384   2.321 -0.5496 -0.4899 -0.7733
 3384TIP3    H210117   5.644   2.362   2.180  3.5252 -2.7433  0.8735
 3385TIP3   OH210118   5.129   4.034   0.942 -0.5912  0.0303 -0.6320
 3385TIP3    H110119   5.178   4.071   0.868  0.7423 -0.6149 -0.1152
 3385TIP3    H210120   5.160   4.083   1.018  0.6061 -1.5335 -0.0504
 3386TIP3   OH210121   6.818   6.338   5.026  0.2249  0.0441  0.3865
 3386TIP3    H110122   6.868   6.265   5.061  1.5919  1.1346  0.8161
 3386TIP3    H210123   6.876   6.377   4.960  0.7978  2.4414  2.1750
 3387TIP3   OH210124   6.163   4.679   3.563  0.0566 -0.5080  0.1306
 3387TIP3    H110125   6.103   4.722   3.503  0.8135  0.6396  0.1751
 3387TIP3    H210126   6.170   4.589   3.530 -2.3242 -0.9432  0.6383
 3388TIP3   OH210127   2.653   3.325   0.819 -0.3276  0.0404 -0.0769
 3388TIP3    H110128   2.629   3.409   0.781 -2.4760 -0.3287  0.3572
 3388TIP3    H210129   2.600   3.261   0.771  0.8800 -1.0355 -0.0482
 3389TIP3   OH210130   6.214   2.095   2.143  0.4655 -0.0958 -0.1709
 3389TIP3    H110131   6.194   2.059   2.056 -0.6446  1.0043 -0.3923
 3389TIP3    H210132   6.164   2.042   2.204  0.1409  0.0134 -0.3407
 3390TIP3   OH210133   2.022   3.254   1.847  0.3775 -0.3403  0.1145
 3390TIP3    H110134   1.965   3.307   1.903  0.9936  1.4570 -0.8961
 3390TIP3    H210135   2.085   3.214   1.908 -0.9956 -1.1727  1.0635
 3391TIP3   OH210136   5.625   6.331   3.837 -0.2407  0.3411 -0.1312
 3391TIP3    H110137   5.608   6.418   3.874 -1.4348  1.3206 -2.7035
 3391TIP3    H210138   5.545   6.311   3.787  0.9617 -1.1231 -1.5648
 3392TIP3   OH210139  -0.016   6.177   5.182 -0.1046 -0.1348 -0.4902
 3392TIP3    H110140   0.060   6.206   5.130  0.5093  0.8854  0.9076
 3392TIP3    H210141   0.021   6.117   5.246 -0.5758 -0.0812 -0.1650
 3393TIP3   OH210142   7.086   0.265   3.038  0.6233  0.3661 -0.2628
 3393TIP3    H110143   7.089   0.354   3.003 -0.6532  0.4135 -0.3040
 3393TIP3    H210144   7.071   0.277   3.132  1.4368  0.1931 -0.0988
 3394TIP3   OH210145   1.103   1.216   2.330 -0.0934  0.4701 -0.0592
 3394TIP3    H110146   1.187   1.249   2.299  0.0699 -0.1477 -0.2772
 3394TIP3    H210147   1.103   1.237   2.424 -0.2346  1.5849 -0.2957
 3395TIP3   OH210148   2.946   0.100   2.196 -0.6408  0.4677  0.6167
 3395TIP3    H110149   2.917   0.075   2.109 -0.8209 -1.2101  1.1134
 3395TIP3    H210150   2.868   0.090   2.251  0.0911 -1.1753  1.4235
 3396TIP3   OH210151   2.649   6.268   5.059  0.1837  0.5513 -0.1061
 3396TIP3    H110152   2.650   6.323   4.980 -0.8893 -0.5360 -0.9032
 3396TIP3    H210153   2.563   6.284   5.098 -1.0718 -2.1690 -1.5571
 3397TIP3   OH210154   2.595   5.388   2.910 -0.0691 -0.1257 -0.5527
 3397TIP3    H110155   2.579   5.294   2.907 -2.5650  0.1810  0.5895
 3397TIP3    H210156   2.689   5.397   2.895  0.4099 -2.8544  0.3078
 3398TIP3   OH210157   2.867   3.691   2.122  0.3910  0.2766 -0.3925
 3398TIP3    H110158   2.922   3.639   2.182  0.2229 -0.9900 -1.2875
 3398TIP3    H210159   2.778   3.678   2.154  0.5353  1.9287  0.7627
 3399TIP3   OH210160   2.370   4.682   3.827 -0.2452  0.1126 -0.2731
 3399TIP3    H110161   2.323   4.763   3.804  0.6340  0.3707 -1.2110
 3399TIP3    H210162   2.445   4.712   3.878 -0.0780 -0.1295 -0.3744
 3400TIP3   OH210163   1.775   3.983   2.085  0.0443  0.2856  0.2794
 3400TIP3    H110164   1.868   3.964   2.068  0.0199 -0.6719  1.1378
 3400TIP3    H210165   1.761   3.956   2.175 -0.4117  3.0500  1.1188
 3401TIP3   OH210166   5.060   2.428   2.606 -0.4275 -0.2029 -0.1610
 3401TIP3    H110167   5.038   2.335   2.602  1.1373 -0.5860 -0.5917
 3401TIP3    H210168   5.134   2.433   2.666 -0.2466  0.7105 -0.4437
 3402TIP3   OH210169   0.909   2.241   5.667 -0.1632  0.4182  0.5031
 3402TIP3    H110170   0.942   2.187   5.595  0.1938 -0.9475  1.6505
 3402TIP3    H210171   0.830   2.282   5.632 -0.5672 -1.0332 -0.3414
 3403TIP3   OH210172   3.536   6.440   0.291 -0.1188 -0.3477  0.5415
 3403TIP3    H110173   3.556   6.412   0.380 -0.7225  0.4846  0.9604
 3403TIP3    H210174   3.540   6.535   0.295 -1.4898 -0.2463  0.0282
 3404TIP3   OH210175   3.797   2.766   3.127  0.0575 -0.4282  0.6161
 3404TIP3    H110176   3.796   2.793   3.219  1.1478 -0.9433  0.7881
 3404TIP3    H210177   3.888   2.743   3.109  0.1709  1.0732 -1.0222
 3405TIP3   OH210178   4.180   2.009   4.095  0.1476  0.6374 -0.2584
 3405TIP3    H110179   4.199   2.095   4.058 -0.2933  0.2253 -1.4676
 3405TIP3    H210180   4.103   2.023   4.150  0.7427  1.2278  0.4423
 3406TIP3   OH210181   0.887   4.551   3.216  0.3279 -0.9307 -0.3446
 3406TIP3    H110182   0.830   4.482   3.250 -0.9659  0.2055 -0.0869
 3406TIP3    H210183   0.828   4.625   3.201  1.5631 -0.0717 -1.1956
 3407TIP3   OH210184   5.909   0.556   3.400 -0.2719  0.0519 -0.0391
 3407TIP3    H110185   5.874   0.500   3.470  1.1798 -0.4115  0.3688
 3407TIP3    H210186   5.912   0.643   3.439  1.6886 -0.4095  0.9994
 3408TIP3   OH210187   2.399   5.509   3.503 -0.3612  0.7514  0.5532
 3408TIP3    H110188   2.462   5.521   3.574  0.2767  0.5959  0.0233
 3408TIP3    H210189   2.452   5.514   3.423 -0.7908 -0.8471  0.1435
 3409TIP3   OH210190   0.524   4.910   2.824 -0.1915  0.6855 -0.1512
 3409TIP3    H110191   0.567   4.824   2.829  0.2870  0.8784 -0.8453
 3409TIP3    H210192   0.596   4.973   2.828 -0.4777  1.0363 -0.5128
 3410TIP3   OH210193   1.161   2.930   1.315 -0.1439  0.2094  0.6427
 3410TIP3    H110194   1.239   2.985   1.301 -0.4281  0.8114  1.4037
 3410TIP3    H210195   1.155   2.877   1.235  1.2860 -0.1463  0.7333
 3411TIP3   OH210196   7.170   4.387   4.923  0.1924 -0.4907 -0.0933
 3411TIP3    H110197   7.098   4.338   4.963 -1.2839  0.7592 -1.0922
 3411TIP3    H210198   7.236   4.394   4.992 -0.9320 -1.0766  1.0864
 3412TIP3   OH210199   6.135   6.658   0.525 -0.6994  0.0730  0.3909
 3412TIP3    H110200   6.090   6.721   0.469 -1.2004  0.4760  1.2183
 3412TIP3    H210201   6.098   6.674   0.612  0.6431  0.0115  0.9875
 3413TIP3   OH210202   6.601   5.833   4.376  0.3779 -0.3269  0.2345
 3413TIP3    H110203   6.598   5.756   4.319  0.6810 -2.1294  2.4781
 3413TIP3    H210204   6.518   5.830   4.424  0.6054  0.4617  0.6941
 3414TIP3   OH210205   7.020   2.315   0.575 -0.8675 -0.1310 -0.1469
 3414TIP3    H110206   7.080   2.260   0.527 -0.7013 -1.7527  1.7804
 3414TIP3    H210207   7.075   2.380   0.618 -0.5853 -0.9326  0.7293
 3415TIP3   OH210208   2.351   6.048   3.211 -0.2102 -0.7675 -0.1569
 3415TIP3    H110209   2.319   6.135   3.235 -1.1350 -0.9748 -0.5970
 3415TIP3    H210210   2.272   5.995   3.200  0.3373 -1.6365 -0.0109
 3416TIP3   OH210211   5.917   6.118   2.583  0.0309 -0.3906 -0.1826
 3416TIP3    H110212   5.897   6.200   2.538  1.0061  0.2215  0.4584
 3416TIP3    H210213   5.908   6.051   2.515  2.9839  0.6597 -1.8000
 3417TIP3   OH210214   2.551   4.828   5.850 -0.5584 -0.3222  0.8188
 3417TIP3    H110215   2.487   4.899   5.859 -0.9028 -0.7201  1.5519
 3417TIP3    H210216   2.610   4.839   5.924 -1.3258 -1.5074  1.6433
 3418TIP3   OH210217   2.092   5.931   5.431 -0.1428  0.0577 -0.6600
 3418TIP3    H110218   2.066   6.022   5.446  0.6520  0.3793 -1.1780
 3418TIP3    H210219   2.009   5.883   5.425 -0.6117  0.9641 -1.7700
 3419TIP3   OH210220   5.879   0.372   1.691 -0.4820 -0.1723 -0.0276
 3419TIP3    H110221   5.848   0.285   1.667  1.8518 -1.0573 -0.0961
 3419TIP3    H210222   5.963   0.357   1.734 -0.8765  1.9396  1.6642
 3420TIP3   OH210223   4.422   3.892   1.867 -0.6542 -0.4024  0.1245
 3420TIP3    H110224   4.433   3.969   1.924 -0.3968 -1.0702  0.9897
 3420TIP3    H210225   4.406   3.820   1.927 -1.9393 -0.8601 -0.7430
 3421TIP3   OH210226   2.851   4.914   3.433 -0.0678 -0.4583  0.4031
 3421TIP3    H110227   2.880   4.832   3.395 -0.2925 -0.2609 -0.2060
 3421TIP3    H210228   2.769   4.892   3.477 -2.1156  0.0948 -2.8245
 3422TIP3   OH210229   1.019   5.778   5.003 -0.1663 -0.0711  0.2574
 3422TIP3    H110230   1.046   5.857   4.955  0.5396  0.2824  1.1864
 3422TIP3    H210231   1.044   5.797   5.094  0.3007 -1.4992  0.4453
 3423TIP3   OH210232   1.449   5.227   1.430 -0.0404 -0.0376 -0.3782
 3423TIP3    H110233   1.463   5.194   1.342  0.1976  0.3225 -0.4753
 3423TIP3    H210234   1.514   5.181   1.484 -0.0709 -0.1288 -0.4199
 3424TIP3   OH210235   4.558   2.061   1.449 -0.3060  0.7753  0.4867
 3424TIP3    H110236   4.533   1.993   1.387  2.4899  0.1414 -0.0829
 3424TIP3    H210237   4.610   2.122   1.398 -0.5416  1.9189  1.5745
 3425TIP3   OH210238   2.665   5.283   4.590  0.3353 -0.3333 -0.7329
 3425TIP3    H110239   2.600   5.302   4.657  0.6253  0.5547 -0.6818
 3425TIP3    H210240   2.716   5.210   4.625  0.6430  0.2862  0.1421
 3426TIP3   OH210241   3.855   6.253   3.580 -0.4112  0.6657 -0.0945
 3426TIP3    H110242   3.777   6.237   3.633 -0.2883  0.1012 -0.0707
 3426TIP3    H210243   3.823   6.255   3.490 -0.4295  0.2255 -0.1006
 3427TIP3   OH210244   0.908   5.861   4.001 -0.0638  0.1409 -0.2948
 3427TIP3    H110245   0.860   5.941   3.981  0.0113  0.5298  1.0222
 3427TIP3    H210246   0.998   5.890   4.015 -0.1159 -0.1103  0.5882
 3428TIP3   OH210247   4.390   1.265   2.980  0.2978 -0.0384 -0.1680
 3428TIP3    H110248   4.404   1.360   2.975 -1.2768  0.1581 -2.7434
 3428TIP3    H210249   4.394   1.235   2.889  0.7642 -2.4619  0.5956
 3429TIP3   OH210250   7.102   2.675   2.798 -0.3108 -0.8801 -0.1037
 3429TIP3    H110251   7.134   2.593   2.836  1.2958 -0.5724 -0.7165
 3429TIP3    H210252   7.151   2.684   2.716  2.9380  2.7782  1.8706
 3430TIP3   OH210253   2.935   3.098   3.999 -0.2074 -0.4656  0.1389
 3430TIP3    H110254   2.943   3.053   3.916  0.0228  0.3337 -0.2836
 3430TIP3    H210255   2.866   3.162   3.986  0.4607  0.2971  0.2631
 3431TIP3   OH210256   3.682   1.608   0.473  0.1354 -0.0056 -0.2214
 3431TIP3    H110257   3.711   1.676   0.534 -1.6582 -1.0106  1.9185
 3431TIP3    H210258   3.739   1.533   0.492  0.3108  0.0354 -0.5897
 3432TIP3   OH210259   5.164   1.624   2.983 -0.1790  0.6950 -0.0211
 3432TIP3    H110260   5.108   1.608   2.906 -0.8574 -1.0431  0.7867
 3432TIP3    H210261   5.165   1.541   3.030  2.3520  0.9472  0.5168
 3433TIP3   OH210262   6.804   4.643   2.840 -0.0672  0.2848  0.2138
 3433TIP3    H110263   6.850   4.638   2.924  1.4228  1.1952 -0.4899
 3433TIP3    H210264   6.744   4.718   2.850 -0.5533 -0.1676  0.7488
 3434TIP3   OH210265   4.355   1.037   5.543 -0.2589  0.1247 -0.8572
 3434TIP3    H110266   4.342   1.063   5.452  2.3946 -0.3972 -1.4864
 3434TIP3    H210267   4.377   0.944   5.538 -0.1677  0.0690  0.3254
 3435TIP3   OH210268   6.006   5.468   5.471 -0.0866 -0.5733  0.1968
 3435TIP3    H110269   5.949   5.423   5.408  0.7600  0.6264 -1.5022
 3435TIP3    H210270   6.052   5.534   5.419  2.1204 -0.8243  1.6943
 3436TIP3   OH210271   0.733   5.851   2.511  0.3833 -0.5589  0.1880
 3436TIP3    H110272   0.644   5.865   2.478  0.8546 -0.0335 -0.9196
 3436TIP3    H210273   0.758   5.935   2.550 -0.6163 -1.5178  3.1213
 3437TIP3   OH210274   4.440   4.411   2.025  0.1743  0.7495  0.3544
 3437TIP3    H110275   4.364   4.361   2.053 -1.7539  2.9570 -0.6127
 3437TIP3    H210276   4.406   4.471   1.958  2.5216  2.6540  0.7402
 3438TIP3   OH210277   5.582   4.724   1.012  0.2385  0.0898  0.3032
 3438TIP3    H110278   5.633   4.773   1.077  0.2780 -0.2502  0.5311
 3438TIP3    H210279   5.562   4.641   1.055 -0.7367  0.3172  0.3314
 3439TIP3   OH210280   2.639   0.626   1.723 -0.3891  0.4968  0.2190
 3439TIP3    H110281   2.681   0.635   1.809  0.1633 -0.0799  0.0077
 3439TIP3    H210282   2.645   0.533   1.702 -2.6098  0.2060  0.6043
 3440TIP3   OH210283   6.749   0.181   3.847  0.1575 -0.4608 -0.2069
 3440TIP3    H110284   6.817   0.130   3.802  1.1923  0.4428  0.2934
 3440TIP3    H210285   6.693   0.213   3.776  1.5007  0.5701 -0.8500
 3441TIP3   OH210286   5.125   1.810   0.575 -0.4290 -0.7152  0.4278
 3441TIP3    H110287   5.124   1.874   0.646 -0.1083  1.4176 -1.3667
 3441TIP3    H210288   5.040   1.767   0.580 -0.5998 -0.2516  1.7822
 3442TIP3   OH210289   1.494   0.630   3.370 -0.4060  0.8451  0.4120
 3442TIP3    H110290   1.425   0.686   3.405 -1.1966  0.5124 -0.5658
 3442TIP3    H210291   1.469   0.542   3.395 -1.1932  0.5567 -1.2352
 3443TIP3   OH210292   5.743   0.971   4.501 -0.1298 -0.0320  0.4341
 3443TIP3    H110293   5.715   1.055   4.465  0.4777 -0.1162 -0.2578
 3443TIP3    H210294   5.693   0.906   4.454 -1.3570 -0.0397  1.6802
 3444TIP3   OH210295   6.218   2.694   2.594  0.1040 -0.2276  0.2101
 3444TIP3    H110296   6.198   2.778   2.634  0.1415 -0.3924  0.5817
 3444TIP3    H210297   6.214   2.631   2.667  0.9062 -0.4199  0.0979
 3445TIP3   OH210298   3.913   6.353   4.712 -0.1578  0.4570 -0.0695
 3445TIP3    H110299   3.943   6.275   4.758  0.3017  0.8862  0.3681
 3445TIP3    H210300   3.923   6.424   4.775 -2.1908  0.6103  0.1468
 3446TIP3   OH210301   2.604   1.439   5.084  0.1938  0.0448 -0.4887
 3446TIP3    H110302   2.674   1.375   5.083  0.6823  0.5727 -1.9621
 3446TIP3    H210303   2.628   1.503   5.018 -1.4739  0.4672 -0.7400
 3447TIP3   OH210304   2.123   1.720   3.083 -0.4965  0.5306 -0.5770
 3447TIP3    H110305   2.152   1.794   3.030  0.5272  2.1493  2.0583
 3447TIP3    H210306   2.031   1.737   3.100 -0.7213  0.2232 -1.4230
 3448TIP3   OH210307   3.640   2.538   1.389 -0.3712  0.6412  0.6990
 3448TIP3    H110308   3.719   2.484   1.386  0.8647  2.0231  3.9576
 3448TIP3    H210309   3.600   2.526   1.303  1.7285 -2.5183 -0.0158
 3449TIP3   OH210310   6.649   0.098   4.495  0.3468 -0.1926  0.2192
 3449TIP3    H110311   6.733   0.120   4.534 -0.3626  1.8966  0.6612
 3449TIP3    H210312   6.672   0.042   4.420  1.9265 -1.5401  1.6202
 3450TIP3   OH210313   1.526   4.404   5.519 -0.3676 -0.3178  0.1269
 3450TIP3    H110314   1.523   4.374   5.428  0.1074  0.3092 -0.1090
 3450TIP3    H210315   1.532   4.324   5.571  0.2575 -0.6582 -0.4471
 3451TIP3   OH210316   0.011   5.635   5.791  0.9576  0.2044  0.1049
 3451TIP3    H110317   0.065   5.687   5.849  2.1805 -0.2005 -0.6355
 3451TIP3    H210318  -0.027   5.568   5.847  2.9132 -0.7959  0.3197
 3452TIP3   OH210319   1.405   2.504   3.084 -0.0232  0.2945  0.2450
 3452TIP3    H110320   1.399   2.587   3.132  0.7332  0.5401 -0.0846
 3452TIP3    H210321   1.330   2.454   3.116 -1.4642  1.7091 -0.7284
 3453TIP3   OH210322   1.374   6.700   1.202 -0.3070  0.1302 -0.2536
 3453TIP3    H110323   1.440   6.637   1.232 -0.0807  0.6704  0.4092
 3453TIP3    H210324   1.411   6.735   1.121 -0.7523 -1.0695 -1.0020
 3454TIP3   OH210325   2.678   4.997   4.288  0.3935 -0.2213  0.2723
 3454TIP3    H110326   2.766   4.991   4.324  0.5687  3.1658  0.7258
 3454TIP3    H210327   2.621   4.966   4.358  1.0938 -0.1091  0.8947
 3455TIP3   OH210328   4.350   6.704   3.467  0.0859 -0.2003  0.5565
 3455TIP3    H110329   4.351   6.761   3.390  2.2155 -2.0131 -0.8884
 3455TIP3    H210330   4.379   6.760   3.539 -2.1139  1.5750  0.1748
 3456TIP3   OH210331   3.932   5.035   0.254  0.1693 -0.4472 -0.3311
 3456TIP3    H110332   3.902   5.026   0.345  2.1656 -0.1384  0.4157
 3456TIP3    H210333   3.868   5.093   0.213 -0.1841  0.3115  1.2152
 3457TIP3   OH210334   5.773   1.523   3.002 -0.3283  0.0313 -0.0680
 3457TIP3    H110335   5.690   1.570   2.999 -0.0515  0.5975  0.8329
 3457TIP3    H210336   5.754   1.444   3.053 -0.4735 -0.1786 -0.4447
 3458TIP3   OH210337   0.246   6.434   3.050  0.2092  0.0360  0.7890
 3458TIP3    H110338   0.237   6.382   2.969  0.7329 -0.8321  1.2724
 3458TIP3    H210339   0.181   6.504   3.041 -0.3918 -0.5995  0.0336
 3459TIP3   OH210340   0.367   2.321   1.521 -0.3347 -0.3540  0.1585
 3459TIP3    H110341   0.374   2.243   1.467 -0.2222  0.6199 -1.3057
 3459TIP3    H210342   0.454   2.361   1.516 -0.8033  0.6480 -0.4003
 3460TIP3   OH210343   0.303   0.992   0.803 -0.0407  0.2112  0.0637
 3460TIP3    H110344   0.381   0.938   0.815 -0.1184  0.3060  1.0826
 3460TIP3    H210345   0.250   0.975   0.881 -1.0670  0.1095 -0.6346
 3461TIP3   OH210346   0.230   4.408   5.378 -0.6371 -0.0249  0.0595
 3461TIP3    H110347   0.152   4.446   5.419  0.5363  1.5338  0.9584
 3461TIP3    H210348   0.235   4.319   5.412 -2.1551 -0.2453 -0.2287
 3462TIP3   OH210349   6.120   2.663   3.631 -0.1241 -0.1127 -0.3081
 3462TIP3    H110350   6.106   2.716   3.552  1.4495 -0.8599 -1.1551
 3462TIP3    H210351   6.107   2.723   3.704  0.2076  1.0761 -1.2016
 3463TIP3   OH210352   2.964   5.959   4.519 -0.0117 -0.1600  0.3003
 3463TIP3    H110353   3.018   6.031   4.552 -0.4178  0.2069  0.1726
 3463TIP3    H210354   2.889   5.957   4.579 -0.2721 -0.1202 -0.0212
 3464TIP3   OH210355   5.372   2.635   2.697  0.2413  0.5006  0.0452
 3464TIP3    H110356   5.282   2.667   2.696  0.1018  0.1562  0.7638
 3464TIP3    H210357   5.366   2.546   2.662  0.2990  0.4778  0.0927
 3465TIP3   OH210358   1.534   3.715   1.355 -0.3535  0.1542 -0.0105
 3465TIP3    H110359   1.537   3.627   1.318  1.7736  0.6153 -1.0805
 3465TIP3    H210360   1.621   3.751   1.339 -1.7244  3.1875 -1.4100
 3466TIP3   OH210361   1.933   2.788   1.586  0.5012  0.2935  0.2901
 3466TIP3    H110362   1.920   2.810   1.494  1.0139  0.4193  0.2475
 3466TIP3    H210363   1.872   2.844   1.634  0.6285  0.6212  0.0671
 3467TIP3   OH210364   4.430   3.483   5.922 -0.3606 -0.0280  0.1647
 3467TIP3    H110365   4.389   3.425   5.858  0.9427 -0.9480  0.1218
 3467TIP3    H210366   4.520   3.492   5.892 -0.2747  1.2583  0.7166
 3468TIP3   OH210367   5.910   0.282   3.985 -0.6686 -0.5163  0.0243
 3468TIP3    H110368   5.855   0.213   3.947 -0.2553 -0.9010  0.1220
 3468TIP3    H210369   5.926   0.253   4.074 -1.9440  0.5647  0.6413
 3469TIP3   OH210370   6.411   0.678   0.888 -0.1901  0.1334 -0.4678
 3469TIP3    H110371   6.335   0.729   0.859 -0.0924  1.0287  0.7599
 3469TIP3    H210372   6.484   0.713   0.836 -0.2060  0.9928  0.0491
 3470TIP3   OH210373   4.424   2.774   1.750  0.7871  0.0074 -0.3136
 3470TIP3    H110374   4.519   2.779   1.754  0.7800 -0.6141  1.1440
 3470TIP3    H210375   4.399   2.726   1.829 -0.7120 -0.1460 -0.8535
 3471TIP3   OH210376   4.017   2.408   1.604  0.0728  0.4750 -0.4519
 3471TIP3    H110377   3.953   2.469   1.567  0.8924  1.1039 -0.8759
 3471TIP3    H210378   4.054   2.454   1.679  0.4528  0.3634 -0.5662
 3472TIP3   OH210379   4.479   4.442   3.009 -0.3447  0.2616  0.6321
 3472TIP3    H110380   4.515   4.430   2.921 -1.4908  0.0402  0.1874
 3472TIP3    H210381   4.518   4.371   3.060  1.7414  1.4269  0.7851
 3473TIP3   OH210382   2.978   2.649   3.760 -0.1474  0.1589 -0.4393
 3473TIP3    H110383   2.908   2.585   3.752 -1.0404  1.0498  0.0737
 3473TIP3    H210384   2.945   2.714   3.822  1.3360  0.3277  0.2164
 3474TIP3   OH210385   1.858   4.925   2.117 -0.1796  0.5849  0.2399
 3474TIP3    H110386   1.911   4.887   2.047 -0.8525 -3.7196  1.7604
 3474TIP3    H210387   1.812   4.998   2.075  1.8963  0.3033 -2.8423
 3475TIP3   OH210388   6.487   5.783   5.787  0.2895 -0.0244 -0.0530
 3475TIP3    H110389   6.398   5.813   5.807  0.8297  1.4534  0.2585
 3475TIP3    H210390   6.480   5.687   5.784 -1.7785  0.0996 -2.3023
 3476TIP3   OH210391   3.781   1.845   3.087  0.1298  0.0720  0.5082
 3476TIP3    H110392   3.724   1.914   3.052  0.1130  0.1904  0.7720
 3476TIP3    H210393   3.808   1.795   3.009  1.2313  1.1904  0.1362
 3477TIP3   OH210394   3.250   3.842   3.128 -0.0020 -0.1625 -0.0424
 3477TIP3    H110395   3.318   3.779   3.152  1.1024  0.9969 -0.0449
 3477TIP3    H210396   3.169   3.802   3.158  0.4398 -2.3892 -1.5511
 3478TIP3   OH210397   3.239   0.119   1.029 -0.1104 -0.3788 -0.0908
 3478TIP3    H110398   3.180   0.192   1.010 -1.4593 -1.1493  0.9626
 3478TIP3    H210399   3.283   0.143   1.110 -1.0600 -1.0017  0.6281
 3479TIP3   OH210400   1.010   2.356   1.985 -0.4642 -0.0685 -0.2539
 3479TIP3    H110401   0.920   2.354   1.953 -0.3339  1.8274 -0.8714
 3479TIP3    H210402   1.027   2.449   2.003  1.6059 -0.2699 -0.8633
 3480TIP3   OH210403   5.466   1.226   5.183  0.2440 -0.0117 -0.0589
 3480TIP3    H110404   5.413   1.156   5.220 -0.2841  0.8465  0.8679
 3480TIP3    H210405   5.556   1.195   5.189 -0.0735 -1.1553 -0.9202
 3481TIP3   OH210406   5.357   3.492   5.433  0.2451 -0.2282 -0.3095
 3481TIP3    H110407   5.336   3.437   5.509  1.1462 -1.1049 -0.6619
 3481TIP3    H210408   5.452   3.482   5.423  0.2168  0.3471 -1.1922
 3482TIP3   OH210409   2.090   3.745   4.574  0.2367 -0.2207  0.0991
 3482TIP3    H110410   2.115   3.798   4.649 -0.5559 -1.0938  1.0169
 3482TIP3    H210411   2.088   3.655   4.607  0.3974 -0.6993 -1.1100
 3483TIP3   OH210412   3.722   5.231   0.260  0.1114 -0.1287 -0.3802
 3483TIP3    H110413   3.655   5.174   0.297  0.5521 -0.1520  0.3879
 3483TIP3    H210414   3.694   5.244   0.169 -0.4219 -0.9142 -0.3422
 3484TIP3   OH210415   5.454   5.938   3.439  0.7791 -0.5053  0.4946
 3484TIP3    H110416   5.411   6.003   3.495  0.7501 -0.8031  0.8158
 3484TIP3    H210417   5.384   5.898   3.389  0.5846 -1.4513  1.4856
 3485TIP3   OH210418   3.555   4.812   0.979 -0.5945 -0.2876  0.0957
 3485TIP3    H110419   3.651   4.812   0.978 -0.4890  1.4949  2.0441
 3485TIP3    H210420   3.530   4.748   0.913  1.9320 -0.6509 -0.6144
 3486TIP3   OH210421   5.035   3.813   3.775  0.4171 -0.0409  0.1591
 3486TIP3    H110422   4.958   3.756   3.778  2.1761 -2.5060  1.4797
 3486TIP3    H210423   5.000   3.900   3.796 -2.2815 -0.6290 -1.3400
 3487TIP3   OH210424   4.864   5.217   1.097 -0.3841  0.8178  0.6569
 3487TIP3    H110425   4.915   5.230   1.177 -0.7200  0.5341  0.9164
 3487TIP3    H210426   4.893   5.132   1.063 -0.4299  0.8175  0.6179
 3488TIP3   OH210427   4.795   6.419   2.469  0.0174  0.1079  0.0498
 3488TIP3    H110428   4.750   6.428   2.385  0.8544  1.0632 -0.3137
 3488TIP3    H210429   4.727   6.386   2.529 -1.1999  1.5542 -0.4708
 3489TIP3   OH210430   1.604   3.827   3.232 -0.5251 -0.0320  0.3559
 3489TIP3    H110431   1.673   3.781   3.279 -1.2317  0.0516  1.5127
 3489TIP3    H210432   1.630   3.919   3.234 -1.0400  0.1025  1.4847
 3490TIP3   OH210433   6.326   1.462   5.047 -0.1396 -0.1553 -0.1860
 3490TIP3    H110434   6.356   1.480   5.136  0.1230  1.4432 -0.5718
 3490TIP3    H210435   6.391   1.401   5.012  1.7651  1.8994 -0.4126
 3491TIP3   OH210436   2.926   5.028   5.284  0.4728  0.3517 -0.1960
 3491TIP3    H110437   2.961   4.976   5.212  0.9600  1.3437 -0.6978
 3491TIP3    H210438   2.888   5.105   5.242  2.4098  1.8663  0.6848
 3492TIP3   OH210439   6.730   6.698   2.990 -0.7511 -0.0241 -0.2194
 3492TIP3    H110440   6.646   6.744   2.992 -0.4595  0.4870  0.4715
 3492TIP3    H210441   6.796   6.767   2.985 -0.2543 -0.2490  2.0301
 3493TIP3   OH210442   4.215   3.511   5.623  0.2265  0.5075 -0.2062
 3493TIP3    H110443   4.134   3.498   5.673  0.6681 -0.0989  0.3727
 3493TIP3    H210444   4.245   3.598   5.649 -0.6750  1.1050 -1.0798
 3494TIP3   OH210445   3.344   0.383   1.283 -0.2770  0.2402  0.5156
 3494TIP3    H110446   3.418   0.427   1.240 -0.7512 -0.2486 -0.8470
 3494TIP3    H210447   3.372   0.373   1.374  1.3231  0.1232  0.0438
 3495TIP3   OH210448   6.852   3.503   1.595 -0.5167  0.1296  0.4565
 3495TIP3    H110449   6.872   3.561   1.669  2.1656  0.6494 -0.5545
 3495TIP3    H210450   6.851   3.561   1.519  0.4893 -0.8758 -0.3589
 3496TIP3   OH210451   3.551   6.810   0.943 -0.1326  0.1627  0.6893
 3496TIP3    H110452   3.462   6.799   0.909 -0.9088  0.8412  2.3579
 3496TIP3    H210453   3.605   6.753   0.890 -1.4249  0.3942 -0.9423
 3497TIP3   OH210454   3.120   4.826   3.066 -0.6953 -0.6315  0.2737
 3497TIP3    H110455   3.105   4.885   2.993 -2.0878 -0.5604  0.5974
 3497TIP3    H210456   3.106   4.738   3.030  0.5703 -0.7369 -0.0075
 3498TIP3   OH210457   3.386   1.556   5.669 -0.2796  0.3895 -0.4053
 3498TIP3    H110458   3.386   1.490   5.739  1.0417 -0.1650 -0.8784
 3498TIP3    H210459   3.296   1.586   5.664 -0.9375 -1.4077 -0.1633
 3499TIP3   OH210460   4.996   4.924   1.108 -0.8561 -0.1803 -0.1963
 3499TIP3    H110461   5.068   4.930   1.045 -0.5622  2.2960  0.2887
 3499TIP3    H210462   5.038   4.920   1.193 -1.1386  3.1507  0.2411
 3500TIP3   OH210463   2.016   3.829   3.587 -0.1456  0.4275 -0.4107
 3500TIP3    H110464   1.990   3.900   3.646 -0.2376  0.4560 -0.4850
 3500TIP3    H210465   2.101   3.857   3.552  0.1093  0.2113  0.0325
 3501TIP3   OH210466   3.517   1.740   4.394  0.6782  0.1846  0.4504
 3501TIP3    H110467   3.461   1.802   4.347 -0.8268  1.0145  3.1329
 3501TIP3    H210468   3.593   1.792   4.421  0.7157  0.1342  0.4433
 3502TIP3   OH210469   4.653   5.452   5.337  0.0517 -0.6571  0.2274
 3502TIP3    H110470   4.723   5.389   5.322  1.3015  0.5519  0.6725
 3502TIP3    H210471   4.678   5.528   5.285 -0.4751  0.1117  1.0552
 3503TIP3   OH210472   4.415   6.420   0.397 -0.1174  0.4990 -0.3733
 3503TIP3    H110473   4.376   6.404   0.482  0.9792 -0.3553 -0.0149
 3503TIP3    H210474   4.479   6.490   0.412 -1.2984  1.7528 -0.9183
 3504TIP3   OH210475   3.060   3.117   0.422  0.1101  0.1315  0.2500
 3504TIP3    H110476   3.121   3.135   0.494  1.3722 -0.6324 -0.5924
 3504TIP3    H210477   3.108   3.140   0.343 -1.1341  0.6331 -0.3899
 3505TIP3   OH210478   6.149   1.276   5.683  0.1454 -0.2720  0.0627
 3505TIP3    H110479   6.123   1.222   5.757  0.3670  0.7809  0.9494
 3505TIP3    H210480   6.100   1.357   5.694  1.2667  0.4564 -0.1146
 3506TIP3   OH210481   3.691   3.111   3.455 -0.8301 -0.6033  0.5973
 3506TIP3    H110482   3.737   3.137   3.376 -1.3372 -1.6213 -0.0520
 3506TIP3    H210483   3.731   3.164   3.525  0.3534 -0.4767 -0.1558
 3507TIP3   OH210484   2.008   5.618   0.302 -0.0132  0.2714  0.1572
 3507TIP3    H110485   1.940   5.554   0.321  0.6309 -0.4795 -0.0163
 3507TIP3    H210486   1.997   5.638   0.209 -1.0494  1.4380  0.4935
 3508TIP3   OH210487   0.997   2.502   4.075 -0.4278 -0.0849  0.1182
 3508TIP3    H110488   1.083   2.504   4.033 -0.7589  3.9821 -0.7642
 3508TIP3    H210489   0.935   2.485   4.004 -0.5713  0.4361  0.1150
 3509TIP3   OH210490   5.594   2.010   5.348 -0.2422 -0.6243  0.3711
 3509TIP3    H110491   5.654   2.007   5.274 -0.8098 -0.5396 -0.1062
 3509TIP3    H210492   5.650   2.022   5.425  0.2309  3.7105 -0.3718
 3510TIP3   OH210493   3.847   1.105   0.017 -0.1841  0.0394  0.2503
 3510TIP3    H110494   3.831   1.019   0.055  0.3531  0.0131  0.4180
 3510TIP3    H210495   3.813   1.099  -0.072  0.2562 -0.4826  0.1169
 3511TIP3   OH210496   2.002   4.780   3.045 -0.5220 -0.4096  0.2011
 3511TIP3    H110497   2.012   4.824   2.961 -1.8255 -0.3275  0.0663
 3511TIP3    H210498   2.007   4.850   3.111 -1.6457 -0.1640  0.0453
 3512TIP3   OH210499   4.058   3.916   5.461  0.5343 -0.6835  0.1487
 3512TIP3    H110500   4.028   3.842   5.514  1.2629 -1.2752 -0.2397
 3512TIP3    H210501   3.978   3.963   5.437  0.0003 -1.7047 -0.1246
 3513TIP3   OH210502   3.427   1.896   2.639  0.0331 -0.1480 -0.2213
 3513TIP3    H110503   3.389   1.815   2.673 -0.9574  0.0526 -0.8009
 3513TIP3    H210504   3.488   1.867   2.571 -0.1165 -0.4215 -0.2414
 3514TIP3   OH210505   6.176   4.345   3.695 -0.1619  0.0879  0.3029
 3514TIP3    H110506   6.216   4.270   3.738  0.5440  0.1017 -0.3223
 3514TIP3    H210507   6.113   4.307   3.634  0.7697 -0.0501 -0.6046
 3515TIP3   OH210508   0.225   3.763   5.641 -0.1192 -0.1676 -0.4520
 3515TIP3    H110509   0.259   3.759   5.730 -0.5060  2.1577 -0.1304
 3515TIP3    H210510   0.219   3.671   5.613  1.4760 -0.8692  1.3190
 3516TIP3   OH210511   3.087   6.133   5.510 -0.1642  0.0009 -0.3696
 3516TIP3    H110512   3.164   6.078   5.496  0.4960  1.4095 -2.8378
 3516TIP3    H210513   3.014   6.082   5.474  0.0804 -0.1518 -0.6467
 3517TIP3   OH210514   6.906   5.031   3.096  0.2693 -0.0097 -0.3321
 3517TIP3    H110515   6.945   5.033   3.183  0.6632  1.5207 -0.5090
 3517TIP3    H210516   6.827   5.086   3.104  1.1856  1.5262 -1.2943
 3518TIP3   OH210517   6.812   2.402   2.841  0.6258  0.1987  0.3785
 3518TIP3    H110518   6.813   2.325   2.898  0.5053  0.5264  0.8171
 3518TIP3    H210519   6.807   2.477   2.900 -1.8012  0.4892 -0.0996
 3519TIP3   OH210520   5.403   3.490   2.711 -0.0502 -0.3742  0.2486
 3519TIP3    H110521   5.443   3.551   2.649 -0.4859  0.8155  1.1107
 3519TIP3    H210522   5.450   3.408   2.697  0.0094 -0.0882 -1.5034
 3520TIP3   OH210523   2.985   3.979   1.842  0.3322 -0.2876 -0.0452
 3520TIP3    H110524   2.998   4.068   1.810  0.8993 -0.6523 -0.8766
 3520TIP3    H210525   2.947   3.990   1.929 -2.3260  0.7446 -1.2315
 3521TIP3   OH210526   3.382   3.290   4.498 -0.7014  0.0791  0.4701
 3521TIP3    H110527   3.358   3.209   4.542  0.6395 -0.5375  0.1425
 3521TIP3    H210528   3.454   3.326   4.550  0.7086 -0.5138 -0.9746
 3522TIP3   OH210529   2.550   0.892   3.854  0.6798 -0.2650  0.1665
 3522TIP3    H110530   2.515   0.978   3.832 -0.3607 -0.2216  1.8148
 3522TIP3    H210531   2.620   0.910   3.917 -0.7512 -0.6774  1.9394
 3523TIP3   OH210532   5.720   2.779   4.567 -1.0523  0.2493  0.4363
 3523TIP3    H110533   5.708   2.848   4.502 -2.6566  1.2009  1.6895
 3523TIP3    H210534   5.721   2.824   4.651  1.3248 -0.9198  1.1342
 3524TIP3   OH210535   4.205   4.066   0.309 -0.2214 -0.1953 -0.0403
 3524TIP3    H110536   4.213   4.147   0.360 -1.4861 -0.1362  0.0937
 3524TIP3    H210537   4.258   4.082   0.231  2.4916 -0.6217  1.5775
 3525TIP3   OH210538   0.420   0.893   5.853  0.6366  0.1170  0.4801
 3525TIP3    H110539   0.412   0.961   5.787 -1.9822 -0.6327 -0.0812
 3525TIP3    H210540   0.369   0.925   5.927  0.5128 -0.6466  0.7327
 3526TIP3   OH210541   4.205   3.735   1.490  0.0037 -0.3229  0.5508
 3526TIP3    H110542   4.145   3.662   1.475  0.6395 -0.9769  1.0726
 3526TIP3    H210543   4.292   3.694   1.493  0.6974  0.8210 -1.9744
 3527TIP3   OH210544   1.318   5.297   4.019 -0.1556 -0.2079 -0.9213
 3527TIP3    H110545   1.407   5.263   4.028  1.0430  2.4384 -1.7871
 3527TIP3    H210546   1.310   5.362   4.089 -1.3447 -0.2566 -0.9911
 3528TIP3   OH210547   3.050   3.314   5.114  0.5068 -0.0426 -0.3626
 3528TIP3    H110548   2.980   3.375   5.092 -0.1777 -1.4106 -2.2687
 3528TIP3    H210549   3.052   3.253   5.040  1.2266 -2.2482  1.3779
 3529TIP3   OH210550   5.984   2.221   0.343 -0.1506  0.4385  0.1013
 3529TIP3    H110551   6.012   2.137   0.380 -1.5587 -0.9497 -1.7994
 3529TIP3    H210552   5.901   2.202   0.300 -0.2743  2.7216 -0.8096
 3530TIP3   OH210553   2.963   5.523   1.427 -0.1435 -0.6649  0.2679
 3530TIP3    H110554   2.929   5.447   1.380 -1.0028  0.8227 -1.6139
 3530TIP3    H210555   3.055   5.501   1.445 -0.3315 -2.0672 -0.3546
 3531TIP3   OH210556   1.394   5.318   5.709 -0.3231 -0.2121 -0.1273
 3531TIP3    H110557   1.386   5.289   5.800 -2.7819  0.8306  0.0594
 3531TIP3    H210558   1.354   5.247   5.658  0.2607 -0.3969 -0.3388
 3532TIP3   OH210559   6.581   2.447   1.228  0.0457  0.1264 -0.4591
 3532TIP3    H110560   6.647   2.398   1.180  0.5903 -0.1986  0.5906
 3532TIP3    H210561   6.564   2.394   1.306 -1.5502  0.1449 -0.7661
 3533TIP3   OH210562   3.145   2.319   4.093  0.0052 -0.2393 -0.1980
 3533TIP3    H110563   3.129   2.298   4.185 -0.4535 -1.9900 -0.6310
 3533TIP3    H210564   3.229   2.365   4.092  0.1687 -0.4922  1.0606
 3534TIP3   OH210565   2.409   3.197   4.360 -0.1878 -0.0769  0.0903
 3534TIP3    H110566   2.374   3.260   4.297  2.3588 -0.1615 -1.5395
 3534TIP3    H210567   2.368   3.114   4.335  0.5420 -0.0463 -1.2890
 3535TIP3   OH210568   4.952   2.968   3.508 -0.1648  0.1493 -0.3577
 3535TIP3    H110569   4.909   3.016   3.579  1.8331  0.9376  0.3991
 3535TIP3    H210570   4.889   2.971   3.436 -0.8977  2.3339  0.2757
 3536TIP3   OH210571   3.632   0.663   4.335 -0.6329  0.0623  0.3501
 3536TIP3    H110572   3.612   0.730   4.268 -1.3020  0.9105  1.3695
 3536TIP3    H210573   3.647   0.713   4.415  1.1093 -0.8777  0.6559
 3537TIP3   OH210574   2.578   3.557   5.051 -0.0052  0.6552  0.6713
 3537TIP3    H110575   2.487   3.528   5.043 -0.2537  0.7951  2.5948
 3537TIP3    H210576   2.600   3.543   5.143  0.5779  4.4695  1.2719
 3538TIP3   OH210577   3.050   1.836   4.471  0.2834 -0.1696 -0.3776
 3538TIP3    H110578   3.020   1.746   4.483  0.5690 -0.0279  1.7643
 3538TIP3    H210579   2.978   1.879   4.425 -1.7748 -0.4677  2.3446
 3539TIP3   OH210580   5.659   4.063   1.678  0.7353 -0.2979  0.0068
 3539TIP3    H110581   5.714   4.136   1.705  1.1546 -0.1698 -1.1629
 3539TIP3    H210582   5.708   4.019   1.608 -1.5028  1.1059 -2.6446
 3540TIP3   OH210583   2.611   1.718   4.492  0.0530  0.0649  0.0457
 3540TIP3    H110584   2.682   1.758   4.441 -0.4167  0.0842 -0.6026
 3540TIP3    H210585   2.535   1.773   4.473  0.0789  0.6818  1.5598
 3541TIP3   OH210586   3.711   0.141   3.547 -0.3185 -0.4204 -0.5972
 3541TIP3    H110587   3.767   0.191   3.488 -1.2765 -0.2597 -1.3957
 3541TIP3    H210588   3.718   0.187   3.631  0.1702  0.0272 -0.8753
 3542TIP3   OH210589   7.031   2.927   2.849 -0.2264  0.6188 -0.4559
 3542TIP3    H110590   7.106   2.958   2.900 -0.5502  0.5476  0.0602
 3542TIP3    H210591   7.041   2.832   2.847 -0.4416  0.5896 -0.1707
 3543TIP3   OH210592   6.732   5.657   5.082 -0.4942  0.3847 -0.0972
 3543TIP3    H110593   6.739   5.566   5.111 -3.2892  0.7383  2.1934
 3543TIP3    H210594   6.802   5.702   5.129  0.1995 -0.3888 -0.3583
 3544TIP3   OH210595   2.373   1.365   5.357  0.5313 -0.0668 -0.4542
 3544TIP3    H110596   2.462   1.369   5.390  0.2875  1.7513  0.0729
 3544TIP3    H210597   2.381   1.379   5.263  0.7211  1.8967 -0.1936
 3545TIP3   OH210598   1.263   2.195   3.504  0.0027  0.0699  0.0483
 3545TIP3    H110599   1.319   2.266   3.471  1.3015 -2.2347 -3.2733
 3545TIP3    H210600   1.188   2.194   3.445 -0.4716 -0.7111  0.6519
 3546TIP3   OH210601   1.525   2.794   1.327 -0.5078 -0.0598  0.3438
 3546TIP3    H110602   1.593   2.828   1.385  0.8892 -0.6190 -0.8753
 3546TIP3    H210603   1.508   2.705   1.358 -0.8909  0.1804  0.8236
 3547TIP3   OH210604   1.775   6.229   5.438  0.2805  0.6431  0.3157
 3547TIP3    H110605   1.687   6.247   5.471 -2.1545 -2.8264 -3.3258
 3547TIP3    H210606   1.820   6.187   5.511 -1.2122  1.9910  2.1129
 3548TIP3   OH210607   2.701   1.824   2.006  0.5961  0.3270 -0.4512
 3548TIP3    H110608   2.717   1.857   2.094 -0.9132  2.9687 -1.0652
 3548TIP3    H210609   2.787   1.819   1.966  1.3147 -1.0375  1.1645
 3549TIP3   OH210610   4.189   3.654   4.471 -0.4191  0.3539  0.4078
 3549TIP3    H110611   4.279   3.633   4.496 -0.8995 -1.1521  0.9624
 3549TIP3    H210612   4.173   3.740   4.508  0.3769  0.0917  1.3973
 3550TIP3   OH210613   3.659   6.277   3.794 -0.3660 -0.6356 -0.0156
 3550TIP3    H110614   3.712   6.248   3.868 -0.7205 -0.8530  0.1594
 3550TIP3    H210615   3.592   6.334   3.833 -0.3847 -0.5244 -0.2063
 3551TIP3   OH210616   3.709   2.308   4.827  0.6604  0.4376  0.5981
 3551TIP3    H110617   3.733   2.392   4.866 -1.0088  1.1075  0.3029
 3551TIP3    H210618   3.637   2.277   4.882  0.1346  0.0377 -0.2937
 3552TIP3   OH210619   3.505   5.455   2.528  0.3694  0.3179  0.0205
 3552TIP3    H110620   3.421   5.483   2.493  0.0104  0.3527  0.8785
 3552TIP3    H210621   3.550   5.536   2.551  0.9391  0.3308 -1.0879
 3553TIP3   OH210622   6.668   2.457   2.275  0.5936 -0.3659 -0.1839
 3553TIP3    H110623   6.642   2.550   2.272  0.9830 -0.1725  1.5325
 3553TIP3    H210624   6.708   2.446   2.361 -0.0935 -2.3086 -0.0555
 3554TIP3   OH210625   5.622   4.534   4.696 -0.0594 -0.4441  0.1140
 3554TIP3    H110626   5.672   4.558   4.774 -0.7106 -1.8847  1.0260
 3554TIP3    H210627   5.532   4.561   4.717 -0.0087  0.4988 -0.7755
 3555TIP3   OH210628   5.857   2.698   2.731  0.3326  0.0006  0.4818
 3555TIP3    H110629   5.788   2.685   2.796  0.0071 -2.6217 -0.2824
 3555TIP3    H210630   5.929   2.737   2.780 -1.8571  3.8024  1.1336
 3556TIP3   OH210631   6.818   1.242   1.544  0.1144 -0.1848  0.2921
 3556TIP3    H110632   6.910   1.242   1.567  0.0238 -0.0413  0.6650
 3556TIP3    H210633   6.776   1.191   1.613 -0.1868  0.3956  0.5406
 3557TIP3   OH210634   6.413   1.779   2.096 -0.3918  0.0653 -0.1509
 3557TIP3    H110635   6.405   1.712   2.028  0.9608  0.6559 -0.9494
 3557TIP3    H210636   6.506   1.804   2.094 -0.7229  1.4713  0.5855
 3558TIP3   OH210637   4.029   3.898   4.165  0.1913 -0.4636 -0.4475
 3558TIP3    H110638   4.098   3.847   4.122  0.8421  1.0530 -1.2917
 3558TIP3    H210639   3.961   3.909   4.098  0.2700  0.1458 -0.4365
 3559TIP3   OH210640   2.766   6.279   3.562  0.1111  0.1377 -0.5036
 3559TIP3    H110641   2.723   6.357   3.597 -2.6564 -2.1760  1.7845
 3559TIP3    H210642   2.702   6.242   3.501  0.6113 -1.2134 -0.2424
 3560TIP3   OH210643   3.087   1.790   3.791 -0.0339  0.8358  0.6228
 3560TIP3    H110644   3.129   1.705   3.801  0.5227  1.1889  1.4020
 3560TIP3    H210645   3.059   1.792   3.699  1.4502  0.4760  0.1173
 3561TIP3   OH210646   1.678   6.653   2.151 -0.3965  0.4133 -0.4748
 3561TIP3    H110647   1.649   6.679   2.239 -1.1554  1.1038 -0.9129
 3561TIP3    H210648   1.704   6.735   2.110  0.7602 -0.0166 -0.6190
 3562TIP3   OH210649   1.418   6.244   1.883 -0.2001 -0.0335 -0.6372
 3562TIP3    H110650   1.486   6.206   1.827  0.1324  1.0099 -0.9759
 3562TIP3    H210651   1.420   6.192   1.963  1.7558  0.6312 -0.2076
 3563TIP3   OH210652   5.580   5.567   0.067 -0.1061  0.8553 -0.2039
 3563TIP3    H110653   5.605   5.538  -0.021  0.4138  2.2659 -0.5444
 3563TIP3    H210654   5.583   5.487   0.120  2.3619  0.4059 -0.8635
 3564TIP3   OH210655   3.137   6.454   2.407  0.5058  0.0592  0.0886
 3564TIP3    H110656   3.156   6.362   2.393  0.2774  0.1791 -1.1441
 3564TIP3    H210657   3.138   6.465   2.502 -1.1999 -1.5928  0.3613
 3565TIP3   OH210658   5.540   4.438   2.618 -0.6809 -0.1039  0.0673
 3565TIP3    H110659   5.575   4.469   2.701 -1.3319 -0.0621  0.3371
 3565TIP3    H210660   5.522   4.518   2.568  0.2562 -0.1465 -0.3516
 3566TIP3   OH210661   1.660   0.879   0.960 -0.4791  0.1306  0.1337
 3566TIP3    H110662   1.712   0.835   1.027  0.2361  1.0091  0.1723
 3566TIP3    H210663   1.719   0.945   0.923 -1.5114  1.0531  0.0753
 3567TIP3   OH210664   4.342   0.040   4.587  0.2525 -0.5929  0.8348
 3567TIP3    H110665   4.292   0.030   4.505 -0.2830 -0.6236  1.1618
 3567TIP3    H210666   4.424   0.081   4.559 -0.2581  0.1622  0.3781
 3568TIP3   OH210667   2.917   6.584   5.779 -0.3520 -0.1988  0.4212
 3568TIP3    H110668   2.860   6.613   5.708 -0.2506 -1.2536 -0.1093
 3568TIP3    H210669   2.888   6.634   5.855  0.9022  2.5534 -0.7690
 3569TIP3   OH210670   2.639   4.109   3.575  0.1810 -0.3876  0.4935
 3569TIP3    H110671   2.563   4.103   3.633 -0.2723 -0.3680 -0.0975
 3569TIP3    H210672   2.608   4.077   3.491  0.7749 -0.1951  0.1981
 3570TIP3   OH210673   3.813   0.337   4.950 -0.1320  0.1583 -0.4520
 3570TIP3    H110674   3.817   0.244   4.930  2.6873 -0.2927  1.5438
 3570TIP3    H210675   3.856   0.345   5.035 -5.4469  2.5739  2.5503
 3571TIP3   OH210676   3.845   1.764   3.576 -0.1376 -0.9571  0.0637
 3571TIP3    H110677   3.868   1.732   3.489  0.0521  0.0581 -0.2671
 3571TIP3    H210678   3.779   1.701   3.607 -0.8063 -0.8851 -1.1413
 3572TIP3   OH210679   5.169   4.358   1.705 -0.2111  0.3168  0.4485
 3572TIP3    H110680   5.162   4.452   1.720 -0.1440  0.3916  0.0005
 3572TIP3    H210681   5.131   4.343   1.619  0.9835  0.1163 -0.0645
 3573TIP3   OH210682   2.406   5.080   5.251  0.1323 -0.3234  0.1089
 3573TIP3    H110683   2.459   5.152   5.217  1.0729 -0.5899  0.9513
 3573TIP3    H210684   2.442   5.002   5.208 -1.6510 -0.2308 -1.7169
 3574TIP3   OH210685   6.942   6.373   5.713 -0.2597  0.4351 -0.0944
 3574TIP3    H110686   7.015   6.357   5.653  0.5474 -1.0799  1.2130
 3574TIP3    H210687   6.866   6.335   5.669  0.4720 -1.4142  0.1291
 3575TIP3   OH210688   4.955   4.063   3.833 -0.2273 -0.2671 -0.2733
 3575TIP3    H110689   4.863   4.040   3.848 -0.5569  0.8124 -0.5097
 3575TIP3    H210690   4.986   4.094   3.918 -1.6207  4.2688 -1.1159
 3576TIP3   OH210691   0.088   3.361   5.158  0.4147  0.2203  0.0188
 3576TIP3    H110692   0.129   3.448   5.159 -0.3188  0.5685  0.2478
 3576TIP3    H210693   0.006   3.373   5.205  0.3384 -0.6205  0.1115
 3577TIP3   OH210694   6.049   5.910   0.287 -0.3827 -0.2204  0.2303
 3577TIP3    H110695   6.134   5.953   0.285 -0.1875 -0.5860  0.5547
 3577TIP3    H210696   6.020   5.918   0.378 -1.8130  2.0557 -0.3444
 3578TIP3   OH210697   2.720   3.235   4.018  0.1432  0.3558 -0.2088
 3578TIP3    H110698   2.749   3.277   4.099  0.1211  0.4862 -0.2681
 3578TIP3    H210699   2.626   3.251   4.014  0.3337  1.4231 -0.8781
 3579TIP3   OH210700   2.993   0.012   5.240 -0.2038 -0.2226 -0.3541
 3579TIP3    H110701   2.984   0.080   5.306 -1.1208 -0.2959 -0.3885
 3579TIP3    H210702   2.904  -0.002   5.207  0.3148  0.2196 -2.0300
 3580TIP3   OH210703   1.822   1.087   1.129  0.3430 -0.5001  0.1055
 3580TIP3    H110704   1.829   1.101   1.035 -0.3491  1.6601  0.3325
 3580TIP3    H210705   1.732   1.060   1.143 -0.1819  1.2491  0.3273
 3581TIP3   OH210706   4.472   0.939   5.192 -0.5209  0.0318  0.2765
 3581TIP3    H110707   4.503   0.851   5.214 -0.4353 -0.4493 -1.5854
 3581TIP3    H210708   4.545   0.979   5.145 -0.7643  0.9071  0.6304
 3582TIP3   OH210709   1.044   5.872   1.563  0.4634  0.3515  0.0970
 3582TIP3    H110710   1.116   5.840   1.507 -0.0499  0.0567 -0.4064
 3582TIP3    H210711   1.082   5.874   1.651  1.5038  1.5020 -0.3508
 3583TIP3   OH210712   2.095   6.683   5.093 -0.6855  0.3177  1.1691
 3583TIP3    H110713   2.123   6.695   5.002  0.6284  2.6054  1.8194
 3583TIP3    H210714   2.104   6.769   5.133 -0.6557 -0.7570  3.6486
 3584TIP3   OH210715   4.101   5.006   5.550  0.0140  0.2677 -0.0640
 3584TIP3    H110716   4.055   4.943   5.493 -0.3916 -0.6455  1.2190
 3584TIP3    H210717   4.068   5.091   5.523 -1.8917 -0.3073  0.2703
 3585TIP3   OH210718   4.957   0.848   4.150  0.2175 -0.4173 -0.5457
 3585TIP3    H110719   4.882   0.788   4.147  0.5558 -0.8261 -0.9309
 3585TIP3    H210720   4.922   0.930   4.116  0.3395 -1.0582 -2.3434
 3586TIP3   OH210721   4.015   2.640   0.555  0.0018  0.0450  0.4343
 3586TIP3    H110722   4.040   2.713   0.612  1.9739 -0.6388  0.5153
 3586TIP3    H210723   4.083   2.574   0.569 -0.1920 -0.6831 -1.7178
 3587TIP3   OH210724   6.912   6.280   3.558  0.0453  0.4376 -0.3457
 3587TIP3    H110725   6.945   6.310   3.473 -2.1174  0.6330 -1.1673
 3587TIP3    H210726   6.832   6.330   3.572  0.1557  0.1440  1.6706
 3588TIP3   OH210727   0.485   4.713   4.726 -0.3842  0.0355 -0.1763
 3588TIP3    H110728   0.447   4.741   4.810  0.7241 -0.0544  0.3626
 3588TIP3    H210729   0.579   4.723   4.737 -0.2556  0.6945 -1.6658
 3589TIP3   OH210730  -0.012   1.391   3.010  0.6469 -1.0718  0.1091
 3589TIP3    H110731   0.057   1.424   2.953 -0.0272 -0.5044 -0.4044
 3589TIP3    H210732   0.029   1.321   3.061  1.1481 -1.9164 -1.4029
 3590TIP3   OH210733   6.639   3.982   0.248 -0.0527  0.4868  0.2043
 3590TIP3    H110734   6.603   4.071   0.249  2.2352  1.4996 -0.4037
 3590TIP3    H210735   6.622   3.950   0.160 -0.6382  0.4247  0.3375
 3591TIP3   OH210736   2.928   0.980   1.578 -0.0707 -0.0950  0.2953
 3591TIP3    H110737   2.900   0.896   1.541  2.3107  0.1441 -2.3300
 3591TIP3    H210738   2.931   0.964   1.673 -4.5894 -1.3253  0.4921
 3592TIP3   OH210739   5.873   2.977   2.457  0.0170  0.4636  0.0050
 3592TIP3    H110740   5.841   3.034   2.387  0.2414  1.5554  0.7615
 3592TIP3    H210741   5.803   2.979   2.523 -1.1684 -2.2425 -1.0143
 3593TIP3   OH210742   2.385   5.885   1.390  0.3645  0.2537 -0.3594
 3593TIP3    H110743   2.361   5.963   1.340  0.0681  1.5297  1.6619
 3593TIP3    H210744   2.480   5.888   1.395  0.5439 -0.8181 -2.2014
 3594TIP3   OH210745   6.346   2.812   3.458 -0.1779  0.6179  0.0548
 3594TIP3    H110746   6.367   2.725   3.493 -0.7417  0.4559  0.0089
 3594TIP3    H210747   6.350   2.802   3.363 -0.3935  0.5954  0.0454
 3595TIP3   OH210748   7.118   0.180   3.721 -0.3013 -0.1035 -0.0225
 3595TIP3    H110749   7.117   0.273   3.699 -1.5788 -0.1380 -0.1869
 3595TIP3    H210750   7.132   0.177   3.815  1.2095  0.1930 -0.2193
 3596TIP3   OH210751   2.460   2.032   3.180 -0.1609 -0.1072 -0.1210
 3596TIP3    H110752   2.368   2.040   3.202 -0.6929  2.2074 -2.6799
 3596TIP3    H210753   2.466   2.056   3.088  2.9479 -0.6463 -0.1912
 3597TIP3   OH210754   6.778   3.491   4.376  0.5642 -0.3621  0.9008
 3597TIP3    H110755   6.737   3.515   4.293 -0.9761  0.6479  1.9050
 3597TIP3    H210756   6.827   3.411   4.356  0.0089 -0.2994 -0.8950
 3598TIP3   OH210757   6.942   2.477   2.355 -0.0488 -0.3056  0.3241
 3598TIP3    H110758   6.908   2.433   2.277 -0.8477 -0.3838  0.7128
 3598TIP3    H210759   6.979   2.406   2.408 -1.0658 -0.4945  0.8099
 3599TIP3   OH210760   4.896   1.333   0.658 -0.2766  0.6315  0.1444
 3599TIP3    H110761   4.970   1.375   0.704  0.1999  0.5692 -0.5464
 3599TIP3    H210762   4.826   1.398   0.662 -0.5201  0.3146  1.6485
 3600TIP3   OH210763   2.384   6.258   5.167  0.0047  0.1842  0.5045
 3600TIP3    H110764   2.324   6.185   5.176  1.0792 -0.6781  0.9826
 3600TIP3    H210765   2.328   6.335   5.156 -1.1770 -0.9650 -2.7142
 3601TIP3   OH210766   1.520   3.126   2.329 -0.2522 -1.0347  0.5036
 3601TIP3    H110767   1.488   3.053   2.276 -0.6880 -0.2056 -0.4234
 3601TIP3    H210768   1.444   3.185   2.336  0.6621  0.3460 -0.6056
 3602TIP3   OH210769   3.105   1.376   4.338 -0.3954 -0.7979  0.2242
 3602TIP3    H110770   3.158   1.446   4.300  2.2054 -3.4027 -1.3623
 3602TIP3    H210771   3.015   1.409   4.333  0.5929  2.0370 -1.2717
 3603TIP3   OH210772   1.520   1.759   2.175 -0.1495  0.1726  0.0957
 3603TIP3    H110773   1.498   1.691   2.239 -0.5406 -0.4375 -0.6803
 3603TIP3    H210774   1.581   1.817   2.222 -1.4594  0.5047  1.4618
 3604TIP3   OH210775   5.489   1.080   4.366 -0.1442  0.2023  0.4127
 3604TIP3    H110776   5.486   1.009   4.301  1.9971  0.6537 -0.2692
 3604TIP3    H210777   5.404   1.077   4.409  0.0364 -3.1066  0.7736
 3605TIP3   OH210778   3.353   5.234   2.650  0.3976  0.2862  0.2060
 3605TIP3    H110779   3.410   5.176   2.700  0.1273 -0.7462 -0.6332
 3605TIP3    H210780   3.413   5.292   2.603  0.6854  0.3932  0.6964
 3606TIP3   OH210781   1.752   3.114   4.746  0.0353 -0.0391 -0.0516
 3606TIP3    H110782   1.709   3.146   4.825 -0.7936  0.1398 -0.5641
 3606TIP3    H210783   1.845   3.111   4.769 -0.0850  0.9190  0.6237
 3607TIP3   OH210784   5.025   4.180   4.073 -0.0373  0.4429  0.7869
 3607TIP3    H110785   5.011   4.268   4.107 -2.9419  0.5536 -0.4122
 3607TIP3    H210786   5.033   4.125   4.151  1.4857  1.6579  1.5482
 3608TIP3   OH210787   0.547   5.324   2.671 -0.5664 -0.1832  0.2342
 3608TIP3    H110788   0.530   5.395   2.609 -0.6836 -0.0967  0.3646
 3608TIP3    H210789   0.508   5.354   2.753  0.3950  0.1169  0.5988
 3609TIP3   OH210790   2.831   2.319   0.218 -0.6629  0.1847 -0.7912
 3609TIP3    H110791   2.761   2.348   0.276 -1.2322  0.4196 -1.5645
 3609TIP3    H210792   2.859   2.400   0.174 -0.5142 -0.0399 -1.1130
 3610TIP3   OH210793   5.968   0.979   1.893 -0.0418  0.5082 -0.1271
 3610TIP3    H110794   6.018   0.991   1.813 -1.3914  0.1562 -1.0598
 3610TIP3    H210795   5.931   0.891   1.885 -0.9926  0.8461  0.4222
 3611TIP3   OH210796   2.474   0.573   3.089  1.3605 -0.7273 -0.4143
 3611TIP3    H110797   2.501   0.627   3.164 -1.8181 -1.3180  1.3620
 3611TIP3    H210798   2.487   0.483   3.119 -1.2208 -1.0026  0.1050
 3612TIP3   OH210799   6.196   3.882   1.975  0.9668 -0.6754 -0.8288
 3612TIP3    H110800   6.171   3.821   2.045  0.8080 -0.9765 -1.1471
 3612TIP3    H210801   6.216   3.964   2.021 -0.7602 -0.3748 -0.5625
 3613TIP3   OH210802   1.765   0.796   1.646 -0.4341 -0.3592  0.2171
 3613TIP3    H110803   1.750   0.723   1.586  0.7549 -1.1424  0.8425
 3613TIP3    H210804   1.685   0.801   1.698 -1.2917  0.0286 -1.1008
 3614TIP3   OH210805   1.042   2.576   4.834 -0.0058 -0.5732 -0.0549
 3614TIP3    H110806   0.991   2.655   4.815  0.3184 -0.6867 -1.4964
 3614TIP3    H210807   0.976   2.507   4.840 -0.3374 -0.1603  1.6662
 3615TIP3   OH210808   4.721   5.940   2.229  0.3181 -0.3963 -0.4793
 3615TIP3    H110809   4.788   5.908   2.290 -1.3899 -1.3954  0.9712
 3615TIP3    H210810   4.763   6.012   2.183  2.7165 -1.6238 -0.3610
 3616TIP3   OH210811   1.241   1.843   2.042  0.2317  0.0773 -0.0086
 3616TIP3    H110812   1.289   1.882   1.969  1.4138 -0.6491  0.3479
 3616TIP3    H210813   1.272   1.891   2.119 -1.0523  0.8817  0.0361
 3617TIP3   OH210814   1.623   4.923   4.061  0.7829 -0.1275 -0.6504
 3617TIP3    H110815   1.572   4.894   4.137 -2.3035 -0.3458 -2.6530
 3617TIP3    H210816   1.712   4.892   4.080 -0.1995 -1.6840  2.0731
 3618TIP3   OH210817   7.151   3.479   1.849 -0.3427 -0.2314 -0.7513
 3618TIP3    H110818   7.062   3.473   1.882  0.0357  1.1107  0.6515
 3618TIP3    H210819   7.184   3.389   1.852 -0.9325 -0.4305  0.8834
 3619TIP3   OH210820   5.319   6.392   4.963  0.4020 -0.3498  0.2848
 3619TIP3    H110821   5.232   6.354   4.953  1.0555 -1.6145 -0.9967
 3619TIP3    H210822   5.307   6.484   4.942 -0.9462 -0.0849  1.9861
 3620TIP3   OH210823   5.685   3.700   5.561 -0.8528 -0.5032  0.0526
 3620TIP3    H110824   5.775   3.726   5.582 -0.6842 -1.8283  1.1240
 3620TIP3    H210825   5.667   3.740   5.477 -0.6170  3.0218  1.5159
 3621TIP3   OH210826   3.900   1.658   3.315  0.1021  0.0827 -0.0472
 3621TIP3    H110827   3.953   1.578   3.321  2.6776  1.6551 -0.2287
 3621TIP3    H210828   3.876   1.664   3.222  3.3128  1.4332 -0.9241
 3622TIP3   OH210829   4.491   2.519   4.533 -0.0142 -0.0977 -0.4216
 3622TIP3    H110830   4.541   2.568   4.468 -1.2774  0.5304 -0.9705
 3622TIP3    H210831   4.400   2.525   4.503 -0.7455  0.8140  1.7479
 3623TIP3   OH210832   5.215   3.145   1.397 -0.4357  0.1038 -0.2640
 3623TIP3    H110833   5.147   3.181   1.453 -0.6031 -0.1015 -0.3313
 3623TIP3    H210834   5.167   3.105   1.324 -0.4494 -2.3463  0.9612
 3624TIP3   OH210835   4.229   6.551   2.563  0.2973  0.8378 -0.6434
 3624TIP3    H110836   4.270   6.467   2.547 -3.1928 -0.8725 -1.6757
 3624TIP3    H210837   4.205   6.583   2.476 -2.0499  0.7902 -0.0808
 3625TIP3   OH210838   4.686   3.274   0.692  0.2280 -0.8994 -1.0061
 3625TIP3    H110839   4.594   3.248   0.692  0.2695 -1.0511 -0.7313
 3625TIP3    H210840   4.722   3.233   0.771  0.4278 -0.4754 -0.8735
 3626TIP3   OH210841   1.458   0.644   2.316 -1.0463 -0.1390  0.4524
 3626TIP3    H110842   1.383   0.692   2.350  0.0660  1.6225  0.5417
 3626TIP3    H210843   1.476   0.682   2.230 -1.1352 -1.5491 -0.2224
 3627TIP3   OH210844   5.563   4.526   0.598  0.4874 -0.4876 -0.4158
 3627TIP3    H110845   5.472   4.555   0.604  0.0889 -1.7567  0.0772
 3627TIP3    H210846   5.557   4.432   0.581  1.6522 -1.1871  2.3814
 3628TIP3   OH210847   3.171   5.060   1.076  0.0088 -0.2423  0.0830
 3628TIP3    H110848   3.113   5.095   1.007 -1.4073 -0.3990  1.1423
 3628TIP3    H210849   3.111   5.021   1.139  1.4034 -1.9540  0.4050
 3629TIP3   OH210850   1.779   1.095   2.605 -0.1381  0.3891  0.0339
 3629TIP3    H110851   1.717   1.023   2.613  0.6130 -0.2187  0.4953
 3629TIP3    H210852   1.730   1.164   2.561 -0.2576 -1.1342 -2.4001
 3630TIP3   OH210853   2.271   3.860   2.821  0.5230  0.1672 -0.1781
 3630TIP3    H110854   2.288   3.954   2.815 -0.3857  0.4524  1.3201
 3630TIP3    H210855   2.188   3.847   2.774 -2.4417  1.1416  4.2073
 3631TIP3   OH210856   5.119   1.420   0.164 -0.6282  0.5235 -0.1280
 3631TIP3    H110857   5.096   1.437   0.256  2.4576 -0.1499  0.9018
 3631TIP3    H210858   5.124   1.508   0.125 -0.4084  0.9386  0.7908
 3632TIP3   OH210859   2.334   0.620   4.567 -0.4192  0.1419 -0.0923
 3632TIP3    H110860   2.396   0.647   4.500 -0.7185  0.7252 -0.1385
 3632TIP3    H210861   2.383   0.559   4.622 -0.7990 -2.2347 -2.1731
 3633TIP3   OH210862   5.625   1.664   4.463 -0.2873 -0.6602 -0.1330
 3633TIP3    H110863   5.687   1.684   4.533 -2.4879 -0.3436  1.8462
 3633TIP3    H210864   5.581   1.584   4.493 -1.9066 -0.0132 -0.7125
 3634TIP3   OH210865   6.597   3.839   3.284  0.2712 -0.0212 -0.2374
 3634TIP3    H110866   6.663   3.803   3.225 -0.0342 -2.3970  0.7828
 3634TIP3    H210867   6.513   3.813   3.245  0.0196  0.0617  0.2433
 3635TIP3   OH210868   2.281   4.092   2.361  0.0699  0.1380 -0.2026
 3635TIP3    H110869   2.241   4.057   2.440  1.6146  0.6721  0.8756
 3635TIP3    H210870   2.341   4.160   2.392  0.8756  0.2365 -1.8134
 3636TIP3   OH210871   5.982   3.869   4.051 -0.4522  0.0216  0.5625
 3636TIP3    H110872   5.952   3.951   4.013 -1.0936 -0.7215 -0.5793
 3636TIP3    H210873   6.074   3.886   4.074  0.6638 -0.0640 -3.2083
 3637TIP3   OH210874   4.299   1.111   1.032 -0.0861 -0.5414 -0.2798
 3637TIP3    H110875   4.231   1.121   1.099 -1.4222  0.3645 -1.6874
 3637TIP3    H210876   4.381   1.122   1.079 -0.9487 -0.5250  1.2992
 3638TIP3   OH210877   0.130   1.710   2.603 -0.2046  0.3034  0.6596
 3638TIP3    H110878   0.198   1.657   2.644  0.1568 -0.4325 -0.8044
 3638TIP3    H210879   0.177   1.787   2.569 -0.3537  0.5025  0.9036
 3639TIP3   OH210880   4.578   5.748   1.559  0.6978 -0.1739 -0.7784
 3639TIP3    H110881   4.491   5.733   1.596  0.0978  2.2637 -1.0269
 3639TIP3    H210882   4.638   5.712   1.624 -0.4412 -0.4668  0.1606
 3640TIP3   OH210883   0.323   6.798   2.365 -0.2563  0.0381  0.9841
 3640TIP3    H110884   0.276   6.873   2.400 -0.3307  0.5205 -0.1047
 3640TIP3    H210885   0.318   6.732   2.434 -1.4922  0.4994  1.3626
 3641TIP3   OH210886   3.529   4.035   2.737  0.6736 -0.3905  0.0271
 3641TIP3    H110887   3.487   4.071   2.659 -2.5251 -1.4876  1.0857
 3641TIP3    H210888   3.534   3.941   2.721  1.2891 -0.4625  0.5845
 3642TIP3   OH210889   5.654   2.509   3.193 -0.2545 -0.1915  0.0266
 3642TIP3    H110890   5.735   2.457   3.201 -1.1326 -1.7374 -0.6102
 3642TIP3    H210891   5.676   2.578   3.131  0.8764  0.0668  0.6785
 3643TIP3   OH210892   6.191   5.269   4.991  0.4121  0.6710 -0.6593
 3643TIP3    H110893   6.192   5.178   5.020 -0.2093  0.8427 -0.0547
 3643TIP3    H210894   6.268   5.278   4.935  0.8167 -0.0637 -0.2319
 3644TIP3   OH210895   5.241   5.135   2.330  0.1258 -0.2595 -0.2213
 3644TIP3    H110896   5.274   5.181   2.407  0.5909 -0.5510 -0.2463
 3644TIP3    H210897   5.269   5.189   2.256 -1.1922  0.5739 -0.1591
 3645TIP3   OH210898   6.349   1.306   1.668 -0.1670  0.2435 -0.5751
 3645TIP3    H110899   6.439   1.293   1.697 -0.6779 -2.7434  0.0218
 3645TIP3    H210900   6.340   1.248   1.592 -2.6957 -3.3047  2.0917
 3646TIP3   OH210901   7.094   4.685   1.420 -0.1251  0.1595 -0.0679
 3646TIP3    H110902   7.025   4.693   1.485  0.9809 -2.5305  1.6255
 3646TIP3    H210903   7.051   4.645   1.345 -0.9846  1.3648 -0.2531
 3647TIP3   OH210904   5.017   3.357   0.375  0.0812 -1.0269 -0.4837
 3647TIP3    H110905   4.963   3.291   0.419 -0.7414  0.2194  0.4605
 3647TIP3    H210906   5.034   3.423   0.443 -0.4317  0.4901 -1.7580
 3648TIP3   OH210907   6.898   6.665   0.350 -0.2089 -0.2191 -0.2698
 3648TIP3    H110908   6.847   6.618   0.284  1.0950  0.8601 -2.1791
 3648TIP3    H210909   6.839   6.676   0.424 -1.2031 -2.9991 -0.5193
 3649TIP3   OH210910   3.546   5.287   0.803 -0.1789  0.1822 -0.6605
 3649TIP3    H110911   3.617   5.230   0.773 -0.1699 -0.3856  0.3914
 3649TIP3    H210912   3.489   5.229   0.855 -0.5308  0.9854 -0.1288
 3650TIP3   OH210913   1.038   2.300   1.688 -0.0336 -0.0100  0.4255
 3650TIP3    H110914   1.095   2.373   1.664  0.5249 -0.7363 -0.5403
 3650TIP3    H210915   1.025   2.309   1.783 -0.9420  1.9931  0.1583
 3651TIP3   OH210916   1.088   3.029   1.573  0.0204  0.2525 -0.6660
 3651TIP3    H110917   1.089   3.010   1.480 -0.7963  0.8380 -0.8023
 3651TIP3    H210918   1.000   3.005   1.602  0.3526 -0.1977  0.0210
 3652TIP3   OH210919   6.176   5.657   0.267 -0.3620 -0.3299 -0.1083
 3652TIP3    H110920   6.139   5.578   0.306  0.4735 -0.5431  0.2705
 3652TIP3    H210921   6.111   5.725   0.283 -0.5748 -0.6934  0.5760
 3653TIP3   OH210922   4.449   3.580   4.778  0.1257  0.3693  0.0036
 3653TIP3    H110923   4.540   3.558   4.797 -0.1224  0.6796  1.6744
 3653TIP3    H210924   4.423   3.641   4.847 -1.9271 -1.2237  0.7668
 3654TIP3   OH210925   0.075   5.224   4.895  0.0636  0.1238  0.1455
 3654TIP3    H110926   0.039   5.140   4.923  0.3499 -0.3809 -0.9826
 3654TIP3    H210927   0.110   5.208   4.808 -0.0144  1.4606 -0.1468
 3655TIP3   OH210928   1.286   1.172   1.853 -0.0183 -0.3720  0.2665
 3655TIP3    H110929   1.284   1.110   1.780 -1.5446 -1.4664  1.1788
 3655TIP3    H210930   1.304   1.257   1.813 -2.0063 -0.7494 -1.5587
 3656TIP3   OH210931   2.152   1.927   1.759 -0.3917 -0.6610  0.0687
 3656TIP3    H110932   2.089   1.858   1.738 -1.5235  0.0086  1.1504
 3656TIP3    H210933   2.103   1.989   1.813 -0.0824  2.1624 -2.6416
 3657TIP3   OH210934   6.340   0.306   4.802  0.2083 -0.3433 -0.4158
 3657TIP3    H110935   6.358   0.303   4.896 -1.6409 -2.8244 -0.0252
 3657TIP3    H210936   6.414   0.260   4.762  1.0795  0.8591 -0.2369
 3658TIP3   OH210937   5.279   5.927   3.735  0.2088 -0.0285  0.4567
 3658TIP3    H110938   5.299   5.836   3.714 -0.4310  0.1108 -0.8593
 3658TIP3    H210939   5.254   5.966   3.652  0.6409  1.4088  0.9656
 3659TIP3   OH210940   1.367   1.054   0.535 -0.1848 -0.5966 -0.3348
 3659TIP3    H110941   1.300   0.986   0.533 -1.4157  0.5825 -1.9169
 3659TIP3    H210942   1.416   1.037   0.615 -0.5366 -3.2151 -0.5863
 3660TIP3   OH210943   7.152   5.483   2.967  0.4269  0.3138 -0.4120
 3660TIP3    H110944   7.140   5.392   2.997  0.3170  0.0891 -1.1103
 3660TIP3    H210945   7.069   5.504   2.924  0.3469  0.8493  0.0026
 3661TIP3   OH210946   2.613   3.506   5.625 -0.2461 -0.3581 -0.2234
 3661TIP3    H110947   2.626   3.415   5.599 -1.4893 -0.9074  0.9323
 3661TIP3    H210948   2.526   3.507   5.665  0.0531  1.1963  0.4550
 3662TIP3   OH210949   3.188   6.742   0.493  0.0280 -0.0370 -0.3119
 3662TIP3    H110950   3.194   6.648   0.474  1.9385  0.3775 -2.0476
 3662TIP3    H210951   3.100   6.767   0.464  0.1057 -0.9769 -1.4030
 3663TIP3   OH210952   2.342   3.799   0.131  0.2624 -0.1679 -0.2356
 3663TIP3    H110953   2.308   3.849   0.056  0.2193  0.1231 -0.0215
 3663TIP3    H210954   2.291   3.718   0.130  1.0121 -0.6597 -1.1889
 3664TIP3   OH210955   4.340   4.981   4.303  0.1378  0.6269 -0.1520
 3664TIP3    H110956   4.272   5.009   4.365 -0.0991 -0.1153 -0.0752
 3664TIP3    H210957   4.353   5.058   4.247 -0.8710  0.7322 -0.2559
 3665TIP3   OH210958   6.833   3.192   3.045 -0.3478 -0.0342  0.1813
 3665TIP3    H110959   6.795   3.278   3.027 -1.1139 -0.1052  1.3605
 3665TIP3    H210960   6.758   3.134   3.055  0.1688 -1.1442 -1.8440
 3666TIP3   OH210961   6.664   5.747   5.589 -0.0977  0.1957 -0.0142
 3666TIP3    H110962   6.746   5.768   5.634  0.2397  0.8100 -0.8780
 3666TIP3    H210963   6.596   5.786   5.643  0.2622  0.5286  0.2015
 3667TIP3   OH210964   0.076   3.522   2.929  0.0147 -0.4020 -0.3471
 3667TIP3    H110965   0.030   3.466   2.866  1.1695 -2.0128  0.1736
 3667TIP3    H210966   0.038   3.498   3.014  1.6724 -1.6915  0.0790
 3668TIP3   OH210967   1.844   4.362   1.888  0.0920  0.6454  0.0082
 3668TIP3    H110968   1.893   4.373   1.970 -1.1776  1.4242  0.7047
 3668TIP3    H210969   1.759   4.326   1.915  0.3353 -0.9170 -1.1907
 3669TIP3   OH210970   5.724   6.219   3.612  0.4466 -0.8778  0.2895
 3669TIP3    H110971   5.697   6.277   3.683  1.2004  0.0265 -0.1406
 3669TIP3    H210972   5.819   6.230   3.607  0.3872 -0.8257 -0.9406
 3670TIP3   OH210973   6.942   0.076   5.239 -0.1028  0.1843 -0.1444
 3670TIP3    H110974   6.906   0.099   5.324 -2.2886 -1.2682 -0.5940
 3670TIP3    H210975   7.033   0.052   5.257 -0.4625  0.0829  1.7359
 3671TIP3   OH210976   0.943   5.505   2.094 -0.4040  0.1532 -0.1678
 3671TIP3    H110977   0.961   5.558   2.016 -1.5647  0.9304  0.0599
 3671TIP3    H210978   1.004   5.538   2.160 -0.5622  0.6486 -0.2671
 3672TIP3   OH210979   1.456   5.828   3.670  0.3152 -0.4041  0.0479
 3672TIP3    H110980   1.382   5.885   3.649 -0.0296 -0.6638  0.5453
 3672TIP3    H210981   1.446   5.753   3.612 -0.0641 -0.6468  0.4246
 3673TIP3   OH210982   2.570   0.677   0.921  0.1358 -0.1843  0.3377
 3673TIP3    H110983   2.622   0.627   0.858 -2.2655 -1.7633 -0.5476
 3673TIP3    H210984   2.543   0.755   0.872  0.0875 -0.3086  0.1659
 3674TIP3   OH210985   6.816   0.505   5.158  0.1538  0.0473  0.3890
 3674TIP3    H110986   6.785   0.589   5.125 -1.0258 -0.3976  0.3017
 3674TIP3    H210987   6.738   0.449   5.159  1.3825 -1.9299 -2.2204
 3675TIP3   OH210988   3.507   4.503   5.015  0.6974 -0.2231 -0.6635
 3675TIP3    H110989   3.587   4.450   5.019  0.1330 -1.0676 -0.3170
 3675TIP3    H210990   3.482   4.502   4.923  1.0636  0.0006 -0.7648
 3676TIP3   OH210991   3.256   5.544   0.391 -0.4492 -0.2719 -0.5779
 3676TIP3    H110992   3.300   5.576   0.312  1.1943 -0.9783  0.0085
 3676TIP3    H210993   3.297   5.460   0.409 -1.4319 -0.5393  0.5416
 3677TIP3   OH210994   1.302   2.219   2.103 -0.0624  0.0825 -0.4971
 3677TIP3    H110995   1.281   2.308   2.133 -0.5645  0.0189 -0.6554
 3677TIP3    H210996   1.288   2.221   2.008  0.1852 -0.0928 -0.5381
 3678TIP3   OH210997   4.814   3.143   1.240 -0.1134  0.0439  0.4080
 3678TIP3    H110998   4.837   3.128   1.148 -0.2241  1.2127  0.1821
 3678TIP3    H210999   4.856   3.070   1.287  1.2272  0.2548 -0.3920
 3679TIP3   OH211000   1.930   1.502   2.654 -0.1534 -0.0056 -0.3162
 3679TIP3    H111001   1.962   1.535   2.570 -0.9592 -1.2475 -1.1472
 3679TIP3    H211002   2.001   1.448   2.688  0.5615  1.2786  0.3082
 3680TIP3   OH211003   3.613   5.866   2.808 -0.4364 -0.3834 -0.3821
 3680TIP3    H111004   3.679   5.878   2.877  1.5572 -1.4926 -1.9899
 3680TIP3    H211005   3.587   5.955   2.785  0.8715  0.1213 -0.0293
 3681TIP3   OH211006   4.685   1.263   5.340 -0.3281  0.0766 -0.2030
 3681TIP3    H111007   4.666   1.238   5.431 -1.2396  3.0645  0.5527
 3681TIP3    H211008   4.777   1.240   5.328  0.3216  1.0667  2.1135
 3682TIP3   OH211009   1.479   5.907   5.376  0.1628  0.0946 -0.1030
 3682TIP3    H111010   1.548   5.928   5.313  1.2336 -0.2949  0.8910
 3682TIP3    H211011   1.501   5.959   5.453  0.5650 -1.5775  0.9698
 3683TIP3   OH211012   4.241   6.056   2.572 -0.0026 -0.7066 -0.4402
 3683TIP3    H111013   4.258   6.050   2.666 -0.6705  0.3605 -0.2330
 3683TIP3    H211014   4.226   5.966   2.544  2.5436 -1.3339 -0.0063
 3684TIP3   OH211015   2.383   0.675   1.125  0.3392 -0.5272 -0.2185
 3684TIP3    H111016   2.456   0.656   1.066  0.2888 -0.8081 -0.1909
 3684TIP3    H211017   2.362   0.767   1.109  0.0469 -0.7107 -0.9539
 3685TIP3   OH211018   1.543   2.349   2.890  0.5473 -0.2208 -0.1734
 3685TIP3    H111019   1.515   2.422   2.945  2.6677  1.2694 -0.9358
 3685TIP3    H211020   1.466   2.292   2.884  0.0187 -0.1972  3.7797
 3686TIP3   OH211021   1.420   1.371   0.869 -1.0194  0.2585  0.4799
 3686TIP3    H111022   1.471   1.328   0.938  1.9587 -1.3083 -2.3867
 3686TIP3    H211023   1.383   1.298   0.818 -0.7225  1.1823 -1.1466
 3687TIP3   OH211024   5.375   0.881   4.006  0.0043 -0.0242  0.5562
 3687TIP3    H111025   5.448   0.942   3.997 -0.5703  0.4651 -1.3103
 3687TIP3    H211026   5.349   0.888   4.098  0.6700  1.7380  0.6471
 3688TIP3   OH211027   1.989   1.337   1.647  0.3475  0.2482  0.3077
 3688TIP3    H111028   2.019   1.252   1.616  0.1793  0.1323  0.4661
 3688TIP3    H211029   1.931   1.318   1.720  0.4640  0.5076  0.4727
 3689TIP3   OH211030   3.117   1.563   3.168 -0.3573 -0.1501 -0.3115
 3689TIP3    H111031   3.125   1.602   3.255 -0.5193  0.9008 -0.7435
 3689TIP3    H211032   3.101   1.638   3.110 -2.6691 -1.0340 -0.9304
 3690TIP3   OH211033   6.488   6.485   4.310 -0.0364  0.2979 -0.2739
 3690TIP3    H111034   6.476   6.577   4.334 -1.0660  0.1377 -0.1582
 3690TIP3    H211035   6.435   6.436   4.373  2.3148 -0.5711  1.1712
 3691TIP3   OH211036   0.092   0.453   5.063  0.3684  0.3079 -0.2261
 3691TIP3    H111037   0.004   0.414   5.070  0.5328 -0.3336 -1.4571
 3691TIP3    H211038   0.083   0.519   4.994  0.8295  0.3190 -0.2775
 3692TIP3   OH211039   6.548   6.790   4.618  0.3910  0.1036 -0.5183
 3692TIP3    H111040   6.575   6.700   4.637  1.8990  0.8669  1.2697
 3692TIP3    H211041   6.496   6.783   4.538 -1.1080 -2.5980  0.5461
 3693TIP3   OH211042   5.611   1.905   1.461  0.5533  0.3358  0.1556
 3693TIP3    H111043   5.668   1.911   1.538  0.4925  0.0087  0.2276
 3693TIP3    H211044   5.538   1.850   1.489  1.0013 -0.5687 -0.4095
 3694TIP3   OH211045   4.185   6.301   0.283  0.6853  0.1911  0.5403
 3694TIP3    H111046   4.268   6.347   0.295  1.2202 -0.5674 -0.1478
 3694TIP3    H211047   4.162   6.318   0.191 -0.1913  0.8184  0.8615
 3695TIP3   OH211048   5.944   1.964   4.339 -0.3329 -0.4842  0.3574
 3695TIP3    H111049   5.932   2.059   4.335  0.5579 -0.3200  1.2281
 3695TIP3    H211050   6.017   1.947   4.280 -0.3190 -0.5991  0.4076
 3696TIP3   OH211051   7.188   4.981   3.550 -0.3438  0.4139 -0.1124
 3696TIP3    H111052   7.180   4.942   3.637 -1.7273  0.8756 -0.0084
 3696TIP3    H211053   7.265   4.938   3.511  0.4531  0.3918  1.4214
 3697TIP3   OH211054   0.698   2.493   2.488  0.7669  0.3096  0.2456
 3697TIP3    H111055   0.736   2.415   2.447  1.5727  0.3680  0.8502
 3697TIP3    H211056   0.605   2.472   2.499  1.2537 -1.2870  1.9627
 3698TIP3   OH211057   0.018   2.813   2.062  0.7880  0.1685 -0.9806
 3698TIP3    H111058  -0.039   2.742   2.090  1.1846  0.1571 -0.1688
 3698TIP3    H211059   0.030   2.800   1.968  0.9053 -0.8725 -0.8265
 3699TIP3   OH211060   2.108   2.243   4.569  0.0959 -0.5662 -0.2034
 3699TIP3    H111061   2.139   2.176   4.630  0.8602 -1.9304 -1.9945
 3699TIP3    H211062   2.113   2.202   4.483 -1.1291  1.2118 -1.2061
 3700TIP3   OH211063   5.041   4.034   5.482  0.4223 -0.1796 -0.1427
 3700TIP3    H111064   5.030   3.940   5.473  1.5022 -0.2260 -1.2516
 3700TIP3    H211065   4.981   4.072   5.419  0.5861 -0.1536 -0.2836
 3701TIP3   OH211066   4.307   6.565   4.099 -0.1395  0.3737 -0.8362
 3701TIP3    H111067   4.315   6.553   4.005  1.1910 -1.6769 -0.5434
 3701TIP3    H211068   4.287   6.478   4.133 -1.6717  1.2643  0.7116
 3702TIP3   OH211069   4.404   2.087   3.783  0.2172 -0.0985  0.5079
 3702TIP3    H111070   4.393   2.155   3.717  0.4991  0.6152  1.1796
 3702TIP3    H211071   4.351   2.117   3.857  1.6701  0.2563  1.4477
 3703TIP3   OH211072   4.126   4.843   1.392 -0.0114 -0.1546 -0.1091
 3703TIP3    H111073   4.089   4.836   1.480 -0.1765  0.7614 -0.0939
 3703TIP3    H211074   4.213   4.881   1.406  0.1788 -0.5092 -0.3054
 3704TIP3   OH211075   3.476   6.111   0.736 -0.3693 -0.3927  0.1321
 3704TIP3    H111076   3.500   6.059   0.659 -0.2354 -0.3097  0.1171
 3704TIP3    H211077   3.531   6.077   0.807  0.3090  0.2590 -0.0605
 3705TIP3   OH211078   0.705   6.007   4.098 -0.1669  0.3711  0.0561
 3705TIP3    H111079   0.707   5.912   4.108 -0.0700  0.2484 -0.9774
 3705TIP3    H211080   0.618   6.032   4.130 -0.3477 -0.1225 -0.0265
 3706TIP3   OH211081   2.598   5.259   3.505  0.0495 -0.2158  0.4345
 3706TIP3    H111082   2.599   5.181   3.449 -0.9040 -0.4593  0.7315
 3706TIP3    H211083   2.513   5.255   3.550 -0.2332  1.2512  0.0913
 3707TIP3   OH211084   2.158   5.421   4.608 -0.5660  0.1097 -0.8906
 3707TIP3    H111085   2.128   5.330   4.616 -0.4832  0.2235  1.0327
 3707TIP3    H211086   2.079   5.473   4.623 -0.3215  0.3666 -0.4870
 3708TIP3   OH211087   4.283   3.566   1.156 -0.0088 -0.0780  0.4731
 3708TIP3    H111088   4.251   3.484   1.119  1.3539 -0.4815  0.1238
 3708TIP3    H211089   4.341   3.539   1.227  1.0546  0.5468 -0.1354
 3709TIP3   OH211090   6.195   1.571   4.616 -0.1544 -0.3627  0.0294
 3709TIP3    H111091   6.267   1.576   4.680 -0.1616  0.2148 -0.0072
 3709TIP3    H211092   6.119   1.543   4.668 -0.3984  1.0565  0.4813
 3710TIP3   OH211093   5.466   6.131   2.030 -0.4990 -1.1041 -0.7422
 3710TIP3    H111094   5.505   6.063   2.085 -1.4153 -2.2366 -1.4569
 3710TIP3    H211095   5.489   6.213   2.074  0.0867 -1.8973  0.4829
 3711TIP3   OH211096   6.126   3.172   4.780  0.0295 -0.5098 -0.1800
 3711TIP3    H111097   6.172   3.221   4.848 -1.4098 -1.1721  1.3340
 3711TIP3    H211098   6.033   3.192   4.794 -0.2992 -0.4222 -2.1745
 3712TIP3   OH211099   6.513   1.581   3.090  0.4937 -0.2796 -0.0350
 3712TIP3    H111100   6.574   1.517   3.127 -1.4582 -0.7340  2.6546
 3712TIP3    H211101   6.503   1.647   3.158 -0.7287  0.6761 -1.0917
 3713TIP3   OH211102   2.789   6.748   3.017 -0.0944  0.2994 -0.4009
 3713TIP3    H111103   2.725   6.791   2.960  1.3269  1.6028 -1.0912
 3713TIP3    H211104   2.769   6.782   3.105  0.4614  1.7872 -0.8110
 3714TIP3   OH211105   1.122   0.664   4.798 -0.2624  0.3154 -0.4819
 3714TIP3    H111106   1.175   0.670   4.878  0.1189  0.4094 -0.7418
 3714TIP3    H211107   1.184   0.679   4.727 -0.8363  1.4748 -0.7442
 3715TIP3   OH211108   1.038   6.452   4.224  0.1512 -0.2968 -0.0110
 3715TIP3    H111109   1.133   6.435   4.228  0.1318 -0.9144 -1.4731
 3715TIP3    H211110   1.032   6.541   4.191  0.2108  0.1574  1.1580
 3716TIP3   OH211111   2.582   2.704   4.436 -0.3864 -0.5004 -0.2994
 3716TIP3    H111112   2.542   2.751   4.509  0.2192 -1.1877  0.4918
 3716TIP3    H211113   2.536   2.620   4.433  0.5197 -1.0361  0.2019
 3717TIP3   OH211114   5.858   3.258   4.875  0.1418 -0.0249 -0.3861
 3717TIP3    H111115   5.864   3.345   4.913  0.2602 -0.2940  0.2179
 3717TIP3    H211116   5.790   3.266   4.808  0.3616  0.6027 -0.5408
 3718TIP3   OH211117   1.546   3.930   5.132 -0.1392 -0.4080  0.5149
 3718TIP3    H111118   1.566   3.837   5.137 -0.1600 -0.5862 -1.6520
 3718TIP3    H211119   1.543   3.949   5.038 -0.3801  1.7306  0.8971
 3719TIP3   OH211120   0.990   5.066   3.635  0.0205  1.2031  0.1093
 3719TIP3    H111121   1.074   5.074   3.590 -0.2441 -1.2183 -1.0217
 3719TIP3    H211122   1.012   5.068   3.728  1.4189  0.1845 -0.1608
 3720TIP3   OH211123   5.658   5.831   3.139 -0.3248  0.1485  0.1386
 3720TIP3    H111124   5.691   5.813   3.227 -0.3843  3.6206  1.0392
 3720TIP3    H211125   5.708   5.772   3.082  1.9531 -0.0887  2.2109
 3721TIP3   OH211126   4.123   4.342   4.639  0.6294 -0.0552 -0.3828
 3721TIP3    H111127   4.177   4.311   4.565  0.8464 -2.7097  0.7548
 3721TIP3    H211128   4.174   4.414   4.676  2.8561 -1.6031 -0.1619
 3722TIP3   OH211129   0.856   5.240   1.761 -0.2582  0.2082 -0.0164
 3722TIP3    H111130   0.934   5.285   1.794  0.6227 -0.7717 -0.6957
 3722TIP3    H211131   0.807   5.309   1.716  0.3708  0.7803  0.1480
 3723TIP3   OH211132   5.072   3.009   1.212 -0.2393 -0.1867  0.1257
 3723TIP3    H111133   5.004   2.992   1.147 -0.9833 -1.1525  1.1224
 3723TIP3    H211134   5.116   2.925   1.223  1.2159  0.4453 -0.5781
 3724TIP3   OH211135   2.401   0.552   3.763  0.0559 -0.0972 -0.0519
 3724TIP3    H111136   2.399   0.463   3.800 -1.9323  0.2945  0.9578
 3724TIP3    H211137   2.345   0.547   3.686  0.9733  0.0014 -0.7285
 3725TIP3   OH211138   0.494   3.798   2.748  1.0417  0.1645  0.6280
 3725TIP3    H111139   0.569   3.783   2.806  1.0364  1.7860  1.1126
 3725TIP3    H211140   0.520   3.874   2.695 -0.4189  1.0765  1.1513
 3726TIP3   OH211141   4.821   0.667   3.942  0.6129  0.0332 -0.0113
 3726TIP3    H111142   4.899   0.645   3.892  1.9881 -0.4109  2.1625
 3726TIP3    H211143   4.765   0.590   3.936  0.0813  0.5207 -1.9421
 3727TIP3   OH211144   5.151   5.697   2.150  0.3294 -0.1012  0.0334
 3727TIP3    H111145   5.174   5.624   2.208 -0.2565  0.3818  0.8992
 3727TIP3    H211146   5.056   5.706   2.161  0.5638  1.5670  0.8740
 3728TIP3   OH211147   6.161   5.158   5.764  0.0763 -0.0763 -0.0013
 3728TIP3    H111148   6.207   5.086   5.808 -1.3635  0.0990  1.9451
 3728TIP3    H211149   6.068   5.132   5.767 -0.4012  1.5880  0.2205
 3729TIP3   OH211150   0.533   1.720   4.928 -0.2641 -0.3810  0.4515
 3729TIP3    H111151   0.492   1.699   4.844 -0.3447 -2.2652  0.9282
 3729TIP3    H211152   0.625   1.698   4.916 -0.0025  0.6439  0.4536
 3730TIP3   OH211153   7.082   3.202   0.046 -0.2573 -0.0611  0.0606
 3730TIP3    H111154   7.009   3.243  -0.000 -2.2999 -1.1787  2.1350
 3730TIP3    H211155   7.109   3.130  -0.010 -1.6572 -0.4622 -0.1237
 3731TIP3   OH211156   3.778   1.027   4.881  0.1439  0.7097  0.0195
 3731TIP3    H111157   3.731   1.053   4.802  0.4158 -2.7934 -1.4834
 3731TIP3    H211158   3.709   1.013   4.947 -0.5119 -0.1178 -0.8206
 3732TIP3   OH211159   5.803   3.508   5.245 -0.2009 -0.2137  0.2905
 3732TIP3    H111160   5.790   3.498   5.340  1.1630  2.2197  0.8366
 3732TIP3    H211161   5.887   3.467   5.228  0.7042  1.3688  0.6667
 3733TIP3   OH211162   6.645   3.056   2.591 -0.2193  0.0228 -0.5970
 3733TIP3    H111163   6.691   3.045   2.508  0.6513 -1.9490  0.0688
 3733TIP3    H211164   6.706   3.021   2.656 -1.9842 -1.1519  0.5163
 3734TIP3   OH211165   3.867   3.527   5.537 -0.2392 -0.1005  0.5209
 3734TIP3    H111166   3.821   3.547   5.455  1.0416 -1.3511 -0.5630
 3734TIP3    H211167   3.850   3.434   5.551  1.1051 -0.3483  0.6185
 3735TIP3   OH211168   4.657   2.339   4.174 -0.4357 -0.5552 -0.7098
 3735TIP3    H111169   4.720   2.369   4.108 -1.4686  0.7068 -1.1467
 3735TIP3    H211170   4.573   2.337   4.128 -0.8091 -1.7799 -0.0060
 3736TIP3   OH211171   6.245   0.324   3.062  0.9334  0.0477  0.1817
 3736TIP3    H111172   6.163   0.354   3.023  1.2164  0.6717  0.0543
 3736TIP3    H211173   6.306   0.397   3.050  1.1173  0.1372  1.5257
 3737TIP3   OH211174   6.339   5.008   4.973  0.3161 -0.2190 -0.0287
 3737TIP3    H111175   6.317   4.921   5.004  3.5883 -0.8063  0.9861
 3737TIP3    H211176   6.408   4.994   4.909  1.0546  1.6487  0.2926
 3738TIP3   OH211177   3.482   2.725   0.777  0.2611 -0.1423 -0.6051
 3738TIP3    H111178   3.404   2.757   0.823  0.7380 -0.3527  0.3839
 3738TIP3    H211179   3.526   2.669   0.841  2.1819  1.3991 -0.4809
 3739TIP3   OH211180   3.384   1.864   5.891  0.2458 -0.4780 -0.1625
 3739TIP3    H111181   3.466   1.828   5.860  0.7355 -0.2283  0.8092
 3739TIP3    H211182   3.357   1.925   5.822  0.7575 -0.7195 -0.5815
 3740TIP3   OH211183   6.787   0.754   0.327 -0.6382  0.3063  0.4462
 3740TIP3    H111184   6.817   0.777   0.239  0.3814 -0.2772  0.6256
 3740TIP3    H211185   6.751   0.666   0.317  2.3740 -1.1165  1.1654
 3741TIP3   OH211186   1.416   2.915   4.533  0.1070 -0.1758 -0.1443
 3741TIP3    H111187   1.396   2.999   4.490  1.4162  0.3288  0.1980
 3741TIP3    H211188   1.351   2.854   4.497  1.2357  0.1627 -3.0180
 3742TIP3   OH211189   2.445   2.647   2.966  0.3434 -0.4981 -0.0506
 3742TIP3    H111190   2.495   2.716   2.923 -0.7873 -0.5659 -1.5454
 3742TIP3    H211191   2.414   2.686   3.048  0.5870  0.4175 -0.3888
 3743TIP3   OH211192   3.782   0.837   4.099 -0.7069  0.1179  0.1878
 3743TIP3    H111193   3.690   0.859   4.118 -0.7089  1.2488 -0.9754
 3743TIP3    H211194   3.792   0.855   4.005  0.9008  0.7582  0.4464
 3744TIP3   OH211195   0.919   6.121   5.085 -0.0511  0.1142 -0.8068
 3744TIP3    H111196   0.830   6.095   5.062  0.0461 -0.5468 -0.4497
 3744TIP3    H211197   0.975   6.081   5.019 -0.0614  1.0932 -1.4374
 3745TIP3   OH211198   5.094   2.671   1.613  0.1364 -0.1165 -0.0238
 3745TIP3    H111199   5.164   2.646   1.673  0.2577 -0.7625 -0.4159
 3745TIP3    H211200   5.032   2.599   1.618 -0.8047  0.7293  0.7668
 3746TIP3   OH211201   7.093   3.437   1.418 -0.1209  0.2325 -0.5350
 3746TIP3    H111202   7.054   3.474   1.339 -3.0389 -0.4870  0.4181
 3746TIP3    H211203   7.027   3.375   1.450  1.3327 -0.1699  1.9704
 3747TIP3   OH211204   6.725   1.858   1.898  0.3863  0.1006 -0.3670
 3747TIP3    H111205   6.707   1.903   1.980 -1.7174 -0.7925 -0.2798
 3747TIP3    H211206   6.757   1.772   1.924  0.4504  0.0830 -0.5017
 3748TIP3   OH211207   5.436   2.771   3.339  0.1398  0.9301 -0.9425
 3748TIP3    H111208   5.363   2.771   3.402  1.1148  0.6868  0.2176
 3748TIP3    H211209   5.511   2.800   3.389  1.3674 -1.1041 -1.4706
 3749TIP3   OH211210   1.287   1.571   0.568  0.5387 -0.3423 -0.0403
 3749TIP3    H111211   1.286   1.641   0.502  1.4547 -0.9906 -0.7660
 3749TIP3    H211212   1.369   1.524   0.552  0.9298 -0.3279  1.7721
 3750TIP3   OH211213   0.415   0.666   2.852 -0.1874  0.1377  0.2217
 3750TIP3    H111214   0.407   0.745   2.905  0.4860  0.8858 -0.7603
 3750TIP3    H211215   0.461   0.694   2.773  3.5346 -1.9208  1.4201
 3751TIP3   OH211216   6.232   3.471   1.662 -0.1854 -0.6861 -0.0602
 3751TIP3    H111217   6.230   3.532   1.589  0.4052 -1.0015 -0.3458
 3751TIP3    H211218   6.276   3.519   1.733  0.5725 -0.8823 -0.3871
 3752TIP3   OH211219   1.398   4.754   2.768 -0.6434  0.0274  0.5304
 3752TIP3    H111220   1.317   4.769   2.817 -0.5154  0.5204  0.5945
 3752TIP3    H211221   1.467   4.768   2.832 -0.4993 -0.1966  0.4248
 3753TIP3   OH211222   6.793   2.821   4.581  0.1171 -0.0693 -0.4621
 3753TIP3    H111223   6.884   2.848   4.572  0.5751 -0.9175  1.2265
 3753TIP3    H211224   6.788   2.739   4.531  0.8794 -1.1680  1.1727
 3754TIP3   OH211225   3.368   0.069   3.119  0.1635 -0.4701  0.2601
 3754TIP3    H111226   3.305   0.007   3.154  1.5514 -1.4443  1.1682
 3754TIP3    H211227   3.381   0.132   3.189 -0.1596  0.0201 -0.1131
 3755TIP3   OH211228   1.988   1.700   4.211 -0.2077  0.2727 -0.2718
 3755TIP3    H111229   2.028   1.684   4.125 -1.6098 -1.0520 -0.7084
 3755TIP3    H211230   1.952   1.616   4.237  1.6609  0.1746  2.4717
 3756TIP3   OH211231   2.949   4.236   5.047  0.0792  0.1158 -0.2256
 3756TIP3    H111232   2.874   4.262   4.995  0.5403  2.5191  0.2189
 3756TIP3    H211233   2.911   4.198   5.127 -0.6282 -0.1477 -0.6761
 3757TIP3   OH211234   2.818   0.240   4.107  0.5964  0.5032  0.0023
 3757TIP3    H111235   2.735   0.228   4.153  0.9281 -0.6382  0.3387
 3757TIP3    H211236   2.842   0.152   4.078  0.2786  1.2002 -2.6228
 3758TIP3   OH211237   6.050   6.253   1.908  0.3563  0.1329 -0.3037
 3758TIP3    H111238   6.117   6.321   1.920  0.6440  0.2192 -2.1178
 3758TIP3    H211239   5.995   6.285   1.837  0.0447 -1.1885 -0.6911
 3759TIP3   OH211240   3.334   1.381   1.778  0.2185 -0.3092 -0.5612
 3759TIP3    H111241   3.301   1.296   1.748  0.8354 -1.1930  1.1282
 3759TIP3    H211242   3.261   1.420   1.826  0.3980 -0.5521 -0.0854
 3760TIP3   OH211243   0.643   6.184   1.866 -0.0752  0.4000  0.0921
 3760TIP3    H111244   0.698   6.127   1.812  1.5084  0.9984  1.0189
 3760TIP3    H211245   0.580   6.222   1.805  0.2626 -0.6378 -0.9240
 3761TIP3   OH211246   4.147   6.650   1.873  0.1882 -0.1538  0.6997
 3761TIP3    H111247   4.119   6.615   1.958  0.6787 -0.1907  0.8478
 3761TIP3    H211248   4.071   6.700   1.842  0.0097 -0.1311  1.1608
 3762TIP3   OH211249   5.881   1.526   3.814 -0.3129  0.1846  0.2877
 3762TIP3    H111250   5.954   1.479   3.775 -1.3740 -0.0850 -1.4969
 3762TIP3    H211251   5.912   1.617   3.822  1.3698 -0.5149  2.7716
 3763TIP3   OH211252   5.334   3.317   3.062  0.3522 -0.3154  0.2007
 3763TIP3    H111253   5.282   3.267   3.124  0.0748 -1.0874 -0.6364
 3763TIP3    H211254   5.303   3.407   3.072 -0.1794 -0.5443  0.6752
 3764TIP3   OH211255   2.399   1.931   4.414  0.2222  0.5726  0.2452
 3764TIP3    H111256   2.347   1.863   4.371  0.6253 -0.6583  1.6065
 3764TIP3    H211257   2.419   1.994   4.345 -1.0252 -0.1638 -0.8342
 3765TIP3   OH211258   1.057   3.249   2.983  0.1357 -0.4867 -0.1315
 3765TIP3    H111259   1.056   3.174   2.924 -1.1468  0.3791 -1.2610
 3765TIP3    H211260   1.056   3.325   2.925 -0.7355  0.3970  0.9945
 3766TIP3   OH211261   5.702   4.970   3.262  0.0631  0.0650 -0.4583
 3766TIP3    H111262   5.689   4.979   3.356 -0.1318  1.2768 -0.5841
 3766TIP3    H211263   5.625   4.922   3.231 -0.9700  1.5282 -0.2756
 3767TIP3   OH211264   0.410   3.000   0.467 -0.1870 -0.1619  0.4400
 3767TIP3    H111265   0.372   2.954   0.392 -1.2452 -1.0077  1.4611
 3767TIP3    H211266   0.438   3.084   0.431 -0.6494 -0.5544 -0.9148
 3768TIP3   OH211267   4.370   6.320   2.559 -0.2059 -0.1426  0.3000
 3768TIP3    H111268   4.322   6.238   2.545 -1.6862  0.6982  0.1474
 3768TIP3    H211269   4.461   6.294   2.572 -0.7214 -1.8360  0.7221
 3769TIP3   OH211270   1.747   3.159   4.413 -0.1256  0.0302 -0.2667
 3769TIP3    H111271   1.658   3.138   4.385 -0.0613  0.9965 -1.2413
 3769TIP3    H211272   1.735   3.207   4.495 -0.5200  0.3835 -0.5262
 3770TIP3   OH211273   3.665   4.371   0.793 -0.3715 -0.2353 -0.1904
 3770TIP3    H111274   3.575   4.391   0.817 -0.4739 -1.2644  0.3469
 3770TIP3    H211275   3.669   4.275   0.792  1.0355 -0.2292  1.1166
 3771TIP3   OH211276   1.762   4.411   0.218  0.0837 -0.4810 -0.2108
 3771TIP3    H111277   1.676   4.434   0.251 -0.3777 -1.0558 -0.9683
 3771TIP3    H211278   1.783   4.480   0.155 -1.5539 -2.2390 -2.9193
 3772TIP3   OH211279   0.581   0.763   4.016  0.2854  0.3739  0.8015
 3772TIP3    H111280   0.486   0.774   4.017  0.0975  0.2033 -2.6131
 3772TIP3    H211281   0.615   0.846   4.048 -1.0191  0.6600  1.5214
 3773TIP3   OH211282   3.269   3.721   1.330  0.5446 -0.2909  0.3438
 3773TIP3    H111283   3.353   3.680   1.308  1.1727  0.6254  0.9563
 3773TIP3    H211284   3.281   3.813   1.309 -0.2603 -0.1236  0.5842
 3774TIP3   OH211285   6.523   1.108   0.488 -0.0348 -0.1156 -0.0087
 3774TIP3    H111286   6.606   1.148   0.461  0.5168  0.0270  1.7367
 3774TIP3    H211287   6.458   1.145   0.429  1.0821  0.1033 -1.1466
 3775TIP3   OH211288   2.470   4.620   2.983 -0.1054  0.0199  0.6474
 3775TIP3    H111289   2.529   4.672   3.038 -1.8004  2.3818  0.3769
 3775TIP3    H211290   2.384   4.630   3.024 -1.7689  3.1087 -2.9598
 3776TIP3   OH211291   4.589   6.334   4.744  0.2569 -0.4355  0.2117
 3776TIP3    H111292   4.605   6.398   4.813  1.3139  0.4741 -0.8369
 3776TIP3    H211293   4.635   6.369   4.668  0.0744 -1.9847 -0.6457
 3777TIP3   OH211294   2.975   1.003   3.866  0.3928 -0.1421  0.2246
 3777TIP3    H111295   2.890   0.992   3.909  0.4010 -0.5142  0.1496
 3777TIP3    H211296   3.034   1.032   3.936  0.5578 -1.3757  0.6212
 3778TIP3   OH211297   1.896   6.505   5.076  0.0497 -0.0710  0.1410
 3778TIP3    H111298   1.829   6.526   5.141 -0.5581 -1.5238  0.0225
 3778TIP3    H211299   1.959   6.576   5.083 -1.8906  1.8209 -0.2977
 3779TIP3   OH211300   2.708   5.557   4.621  0.0784  0.0875  0.3154
 3779TIP3    H111301   2.686   5.464   4.617  0.8195 -0.1883  1.8431
 3779TIP3    H211302   2.626   5.602   4.599 -0.1599 -0.9066 -0.9547
 3780TIP3   OH211303   4.091   3.793   3.085  0.0112 -0.2461 -0.3930
 3780TIP3    H111304   4.125   3.818   3.000  0.2324  0.9523  0.0292
 3780TIP3    H211305   4.157   3.733   3.121 -0.0767 -0.7393 -1.0431
 3781TIP3   OH211306   4.249   3.061   3.441  0.0487 -0.3710  0.1071
 3781TIP3    H111307   4.337   3.033   3.416  0.5422  1.1907  0.0469
 3781TIP3    H211308   4.254   3.075   3.535  0.9377  3.1679 -0.3255
 3782TIP3   OH211309   3.825   0.922   5.194 -0.3554  0.2279 -0.1662
 3782TIP3    H111310   3.897   0.904   5.135 -0.3306  2.2793 -0.8347
 3782TIP3    H211311   3.746   0.909   5.141 -0.3343  2.0035 -0.7106
 3783TIP3   OH211312   3.559   4.856   3.088 -0.0881 -0.7505  0.0772
 3783TIP3    H111313   3.643   4.819   3.113  0.2269 -0.0865  0.0085
 3783TIP3    H211314   3.543   4.824   2.999 -0.2044 -1.3808  0.3241
 3784TIP3   OH211315   5.032   1.881   0.816 -0.7422  0.0349  0.1651
 3784TIP3    H111316   4.976   1.923   0.881 -0.0363  0.3932  0.5578
 3784TIP3    H211317   4.992   1.796   0.800 -0.1396 -0.6797  2.1600
 3785TIP3   OH211318   6.397   2.954   3.188 -0.2513 -0.5720  0.0390
 3785TIP3    H111319   6.321   3.012   3.192 -1.2274 -1.6865 -1.2974
 3785TIP3    H211320   6.375   2.891   3.119  2.2746 -0.3935 -1.0296
 3786TIP3   OH211321   7.071   5.718   5.214 -0.1461  0.7590 -0.0116
 3786TIP3    H111322   7.040   5.743   5.127 -2.8039  0.5919  0.8036
 3786TIP3    H211323   7.068   5.623   5.215  0.3193  0.7391  0.1482
 3787TIP3   OH211324   2.010   4.815   1.928  0.4752  0.3494 -0.4239
 3787TIP3    H111325   1.977   4.755   1.862  2.0129 -0.9222 -0.0883
 3787TIP3    H211326   2.081   4.862   1.885 -0.0792  1.2553 -0.3820
 3788TIP3   OH211327   4.243   2.658   3.898 -0.0864 -0.7665  0.3208
 3788TIP3    H111328   4.231   2.739   3.948  2.8251 -0.0808  0.0723
 3788TIP3    H211329   4.241   2.686   3.806 -0.0957 -1.1465  0.2025
 3789TIP3   OH211330   5.265   6.806   4.611 -0.3841  0.1255  0.0236
 3789TIP3    H111331   5.285   6.787   4.519 -0.2002  0.0366  0.0804
 3789TIP3    H211332   5.187   6.755   4.629 -0.1423 -0.2399  0.0510
 3790TIP3   OH211333   5.704   6.010   2.202  0.8677  0.1276  0.7636
 3790TIP3    H111334   5.725   5.980   2.113  0.9927  1.1263  0.4504
 3790TIP3    H211335   5.775   6.070   2.225  0.9736 -0.3235  1.6500
 3791TIP3   OH211336   1.228   2.192   5.626  0.3245 -0.0415  0.4036
 3791TIP3    H111337   1.300   2.246   5.593  0.8283  0.4701  2.2664
 3791TIP3    H211338   1.180   2.167   5.547  1.4952  1.0939 -0.7256
 3792TIP3   OH211339   5.933   3.577   3.226 -0.2270 -0.1053  0.0368
 3792TIP3    H111340   5.985   3.595   3.148  0.8513  0.7128  0.9080
 3792TIP3    H211341   5.993   3.592   3.299 -0.7469 -2.3283  1.0126
 3793TIP3   OH211342   1.709   5.405   1.298 -0.0815 -0.5576  0.3338
 3793TIP3    H111343   1.768   5.480   1.288 -0.9223  0.1282  0.3873
 3793TIP3    H211344   1.764   5.328   1.282  0.7333  0.0830  0.0178
 3794TIP3   OH211345   6.575   5.535   3.049 -0.2111  0.4089  0.1313
 3794TIP3    H111346   6.498   5.479   3.039  1.2300 -1.6651 -0.0105
 3794TIP3    H211347   6.613   5.540   2.962  1.1795 -0.7683  0.6121
 3795TIP3   OH211348   4.846   1.118   0.808 -0.4404  0.0827  0.3469
 3795TIP3    H111349   4.800   1.053   0.755  1.4281 -0.4726 -0.6795
 3795TIP3    H211350   4.853   1.195   0.751  0.3338 -0.0157  0.3043
 3796TIP3   OH211351   4.916   6.062   5.715 -0.4145 -0.2977 -0.2088
 3796TIP3    H111352   4.939   6.121   5.644 -1.4751 -0.8559 -1.0501
 3796TIP3    H211353   4.902   5.977   5.673  0.8914 -1.1445  0.9436
 3797TIP3   OH211354   3.807   0.827   4.508  0.0541 -0.1257 -0.0607
 3797TIP3    H111355   3.740   0.871   4.560  1.4359  0.0656  1.6341
 3797TIP3    H211356   3.836   0.893   4.446  0.6914  0.7432  1.1233
 3798TIP3   OH211357   4.158   6.055   2.895 -0.0175  0.5597  0.3665
 3798TIP3    H111358   4.128   6.024   2.980  2.1935  0.0330  1.0276
 3798TIP3    H211359   4.111   6.137   2.880  0.3480  1.2225  2.6133
 3799TIP3   OH211360   6.927   4.856   3.723 -0.3511 -0.0596  0.1978
 3799TIP3    H111361   7.011   4.839   3.764  0.3398 -0.1589 -1.1990
 3799TIP3    H211362   6.862   4.823   3.785  0.6418 -0.0487  1.2507
 3800TIP3   OH211363   6.582   0.632   5.330 -0.1392 -0.4524  0.2486
 3800TIP3    H111364   6.572   0.554   5.276  3.2691 -0.5252 -0.4865
 3800TIP3    H211365   6.605   0.702   5.268 -0.6914  0.5775  1.1610
 3801TIP3   OH211366   7.039   2.903   0.792 -0.4450 -0.2793 -0.3400
 3801TIP3    H111367   6.984   2.899   0.714 -0.3085  0.5694 -0.4899
 3801TIP3    H211368   7.128   2.907   0.757 -0.4223  1.0576 -0.1858
 3802TIP3   OH211369   1.077   0.933   4.611  0.1292  0.3236  0.4198
 3802TIP3    H111370   1.092   0.959   4.520  0.2001  0.4280  0.4595
 3802TIP3    H211371   1.165   0.932   4.650  0.0145  1.3032  0.7537
 3803TIP3   OH211372   0.147   0.155   0.290  0.2036  0.3416  0.4108
 3803TIP3    H111373   0.138   0.146   0.385 -0.6802  0.1697  0.3198
 3803TIP3    H211374   0.069   0.112   0.255  1.2106 -0.8306 -0.4604
 3804TIP3   OH211375   4.554   0.234   2.019  0.3831  0.2836 -0.1930
 3804TIP3    H111376   4.575   0.175   1.947 -1.2241 -0.5222 -0.0520
 3804TIP3    H211377   4.623   0.300   2.017  1.3562 -0.7231 -1.3396
 3805TIP3   OH211378   3.556   4.680   2.865  0.1143  0.1839 -0.8428
 3805TIP3    H111379   3.483   4.622   2.844 -0.4220  0.4124  0.2853
 3805TIP3    H211380   3.561   4.740   2.791  0.1852 -0.8223 -1.6656
 3806TIP3   OH211381   3.040   1.119   3.280  0.4866  0.3480  0.0232
 3806TIP3    H111382   3.087   1.048   3.324 -0.5191  0.1831  0.8858
 3806TIP3    H211383   3.017   1.179   3.351 -0.6462  0.3860 -0.3636
 3807TIP3   OH211384   4.447   0.218   1.699 -0.2644  0.0131  0.0886
 3807TIP3    H111385   4.455   0.292   1.639  1.1514 -0.3579 -0.2253
 3807TIP3    H211386   4.531   0.217   1.745 -0.8506 -0.4906  1.1610
 3808TIP3   OH211387   1.631   0.034   0.532 -0.8866 -0.2776 -0.2871
 3808TIP3    H111388   1.591   0.033   0.619  0.8501  0.4822  0.5807
 3808TIP3    H211389   1.589   0.107   0.487 -3.2914 -1.9282 -0.9044
 3809TIP3   OH211390   2.877   3.570   5.602  0.6310 -0.2195 -0.0484
 3809TIP3    H111391   2.788   3.543   5.625  1.4149 -2.0936  0.9534
 3809TIP3    H211392   2.903   3.628   5.673  0.5857 -0.5249  0.2192
 3810TIP3   OH211393   4.774   1.895   2.948  0.2425  0.4315 -0.3337
 3810TIP3    H111394   4.687   1.934   2.949 -0.4553 -1.0949  0.5395
 3810TIP3    H211395   4.821   1.943   2.879 -1.1400  1.5337 -0.5493
 3811TIP3   OH211396   0.775   1.596   3.500 -0.1821  0.0389 -0.0927
 3811TIP3    H111397   0.681   1.577   3.505 -0.0846 -0.9685 -1.4456
 3811TIP3    H211398   0.788   1.666   3.563 -1.9656  0.6626 -0.3379
 3812TIP3   OH211399   6.415   1.698   5.544 -0.2749  0.6513 -0.7824
 3812TIP3    H111400   6.457   1.648   5.614  0.1109  1.7460 -0.2141
 3812TIP3    H211401   6.475   1.689   5.470 -0.2537  0.2008 -0.7154
 3813TIP3   OH211402   3.408   5.885   4.755 -0.3987  0.3494 -0.0493
 3813TIP3    H111403   3.364   5.815   4.802 -0.2290 -0.1150 -0.5741
 3813TIP3    H211404   3.375   5.879   4.666 -0.0567  0.6616 -0.1990
 3814TIP3   OH211405   6.070   5.736   0.691 -0.2518  0.3330  0.0788
 3814TIP3    H111406   6.011   5.690   0.751 -1.2950 -0.6560 -1.6187
 3814TIP3    H211407   6.153   5.740   0.738 -1.1693  0.1755  1.8363
 3815TIP3   OH211408   5.963   5.652   3.857  0.0808 -0.6312 -0.0195
 3815TIP3    H111409   5.895   5.717   3.840 -1.6352 -2.4919 -0.6449
 3815TIP3    H211410   5.962   5.641   3.952 -0.1059 -0.2860  0.0218
 3816TIP3   OH211411   1.977   6.215   0.002 -0.4335 -0.3834 -0.0442
 3816TIP3    H111412   1.926   6.149  -0.046 -0.8279 -0.2296  0.1614
 3816TIP3    H211413   2.024   6.165   0.069 -0.0354 -0.5728 -0.4590
 3817TIP3   OH211414   4.540   3.095   3.674 -0.2162 -0.0258 -0.3298
 3817TIP3    H111415   4.464   3.148   3.700 -0.2192  0.6038 -1.5681
 3817TIP3    H211416   4.504   3.023   3.623 -0.1712 -1.0675  1.0274
 3818TIP3   OH211417   5.794   6.458   1.266 -0.3156  0.1121 -0.3865
 3818TIP3    H111418   5.820   6.464   1.358 -0.0331 -0.3210 -0.4356
 3818TIP3    H211419   5.806   6.366   1.244  0.4347  0.3620 -1.0876
 3819TIP3   OH211420   6.270   0.431   4.415  0.0540 -0.2350  1.1006
 3819TIP3    H111421   6.295   0.509   4.465  0.8050  0.0747  0.2594
 3819TIP3    H211422   6.344   0.371   4.426  0.3334 -0.0703  0.1727
 3820TIP3   OH211423   0.270   1.706   4.270  0.6725  0.5093  0.7434
 3820TIP3    H111424   0.283   1.679   4.179 -1.1148  2.1421 -0.0838
 3820TIP3    H211425   0.355   1.693   4.312  1.9402  0.9753 -1.5240
 3821TIP3   OH211426   2.771   5.263   4.119 -0.2251  0.3607 -0.0590
 3821TIP3    H111427   2.797   5.296   4.033  0.0896  2.4849  0.8011
 3821TIP3    H211428   2.852   5.255   4.168 -0.5970  1.3302  0.7443
 3822TIP3   OH211429   5.501   3.682   2.037 -0.3822 -0.5768  0.3866
 3822TIP3    H111430   5.553   3.732   1.974 -1.3073  0.6373  0.5419
 3822TIP3    H211431   5.542   3.699   2.121  0.2822 -1.4240  0.2427
 3823TIP3   OH211432   1.890   4.008   4.504  0.3043 -0.1954 -0.3975
 3823TIP3    H111433   1.943   3.954   4.445  1.1163 -2.4555  2.1567
 3823TIP3    H211434   1.920   4.097   4.488  1.7092 -0.9157 -2.1449
 3824TIP3   OH211435   5.098   0.737   0.202 -0.2875  1.4537  0.0570
 3824TIP3    H111436   5.047   0.661   0.230  0.6984  0.1818 -1.4073
 3824TIP3    H211437   5.051   0.812   0.238 -1.4292  0.1804  1.3691
 3825TIP3   OH211438   4.012   5.311   0.394 -0.5915 -0.3411  0.6492
 3825TIP3    H111439   3.936   5.314   0.336 -0.2724 -0.6490  0.2122
 3825TIP3    H211440   4.036   5.402   0.408 -0.4350 -0.2816 -0.0095
 3826TIP3   OH211441   6.612   1.799   1.145  0.1066  0.2841  0.0772
 3826TIP3    H111442   6.553   1.832   1.076  0.7727 -0.4723 -0.8812
 3826TIP3    H211443   6.686   1.762   1.097  0.2901 -0.8335  1.1906
 3827TIP3   OH211444   2.768   3.063   5.767 -0.4098  0.1145  0.1392
 3827TIP3    H111445   2.863   3.060   5.756 -0.1426  1.2247  1.8229
 3827TIP3    H211446   2.750   2.995   5.832 -0.8893 -0.6251 -0.7420
 3828TIP3   OH211447   3.540   2.229   3.218  0.3025  0.4318  0.8324
 3828TIP3    H111448   3.522   2.321   3.239  1.6068  0.6540  1.0903
 3828TIP3    H211449   3.532   2.184   3.303  0.2029  0.3951  0.8040
 3829TIP3   OH211450   3.111   4.348   4.520 -0.2370  0.6012 -0.1718
 3829TIP3    H111451   3.156   4.395   4.590 -0.3139 -0.2364  0.4534
 3829TIP3    H211452   3.073   4.271   4.563 -1.2773  0.6799 -0.9120
 3830TIP3   OH211453   5.826   2.777   1.854 -0.7217 -0.7615  0.0618
 3830TIP3    H111454   5.808   2.848   1.917 -1.6032 -1.3365  0.4830
 3830TIP3    H211455   5.777   2.702   1.889  0.6581 -1.7469 -0.0747
 3831TIP3   OH211456   3.324   6.713   0.753 -0.6007 -0.0589 -0.3074
 3831TIP3    H111457   3.278   6.761   0.823 -1.9926 -1.5392 -0.1377
 3831TIP3    H211458   3.259   6.704   0.684 -0.8413 -2.7133  0.1646
 3832TIP3   OH211459   6.914   2.598   4.761 -0.4276  0.0024  0.0999
 3832TIP3    H111460   6.916   2.692   4.740  1.6818  0.0321  0.2179
 3832TIP3    H211461   6.901   2.556   4.676 -2.0115  0.3719  0.1164
 3833TIP3   OH211462   0.344   3.186   2.356  0.5213 -0.2143  0.4868
 3833TIP3    H111463   0.346   3.224   2.444  1.5363 -0.4621  0.5904
 3833TIP3    H211464   0.342   3.091   2.371  1.7761 -0.2926  0.2665
 3834TIP3   OH211465   4.529   0.721   1.474  0.5969 -0.1499  0.3586
 3834TIP3    H111466   4.596   0.769   1.523  1.2317 -0.2204 -0.4083
 3834TIP3    H211467   4.558   0.727   1.383  0.2827 -1.3497  0.1673
 3835TIP3   OH211468   6.187   1.289   0.632  0.0704 -0.2842 -0.0508
 3835TIP3    H111469   6.220   1.339   0.707 -0.8784  0.9585 -0.4124
 3835TIP3    H211470   6.261   1.286   0.571  0.5836 -0.5688  0.5721
 3836TIP3   OH211471   4.817   1.258   1.047  0.3101  0.2322 -0.8983
 3836TIP3    H111472   4.814   1.207   0.966  0.0811 -1.6384  0.2115
 3836TIP3    H211473   4.851   1.196   1.112  2.0960  2.1489  0.1143
 3837TIP3   OH211474   0.745   4.932   1.181  0.3397 -0.0508 -0.3012
 3837TIP3    H111475   0.671   4.878   1.153  1.0676 -0.9063 -0.6200
 3837TIP3    H211476   0.764   4.988   1.106 -0.0834  0.2999 -0.1544
 3838TIP3   OH211477   1.738   3.175   5.273  0.4162 -0.4912 -0.0470
 3838TIP3    H111478   1.714   3.085   5.292 -1.0618 -0.2028 -0.4181
 3838TIP3    H211479   1.780   3.171   5.187 -2.4156 -0.5175 -1.5616
 3839TIP3   OH211480   6.532   1.180   1.508  0.0455  0.0910 -0.0860
 3839TIP3    H111481   6.559   1.155   1.420 -1.1107  0.1215 -0.4596
 3839TIP3    H211482   6.607   1.228   1.544  0.8339 -0.6091 -0.7449
 3840TIP3   OH211483   5.167   2.307   3.261 -0.1766 -0.5857 -0.4836
 3840TIP3    H111484   5.261   2.300   3.277  0.1776  2.6140 -0.4870
 3840TIP3    H211485   5.160   2.355   3.179 -1.7601  0.8766  0.4369
 3841TIP3   OH211486   0.445   6.748   2.992  0.5347  0.1160  0.2531
 3841TIP3    H111487   0.373   6.751   2.930 -0.6196 -0.1866  1.5137
 3841TIP3    H211488   0.522   6.724   2.940 -0.1988  0.7280 -1.1713
 3842TIP3   OH211489   3.995   3.571   1.435 -0.0050 -0.7006 -0.8136
 3842TIP3    H111490   3.924   3.589   1.375  0.3585  0.4464 -0.9124
 3842TIP3    H211491   3.994   3.475   1.445 -0.4121 -0.8611 -2.1977
 3843TIP3   OH211492   2.833   2.133   2.229 -0.2517 -0.0261 -0.2266
 3843TIP3    H111493   2.766   2.111   2.294 -0.3766 -0.4491 -0.4963
 3843TIP3    H211494   2.855   2.224   2.248 -0.7181  0.0363  0.0286
 3844TIP3   OH211495   6.738   2.164   1.180  0.6063  0.6100  0.3106
 3844TIP3    H111496   6.674   2.188   1.114  0.7112 -0.6461 -0.2763
 3844TIP3    H211497   6.822   2.189   1.142  0.5667  1.0759  0.5276
 3845TIP3   OH211498   4.156   0.852   2.775  0.3683  0.1722  0.5464
 3845TIP3    H111499   4.155   0.890   2.863  0.7955  1.7269 -0.0907
 3845TIP3    H211500   4.134   0.924   2.717 -0.9656 -1.0658 -0.5715
 3846TIP3   OH211501   3.532   0.545   0.569  0.5862  1.0773 -0.0043
 3846TIP3    H111502   3.525   0.521   0.477  0.8691 -0.7439  0.4052
 3846TIP3    H211503   3.493   0.472   0.616  0.1445  2.1289  1.3318
 3847TIP3   OH211504   7.186   3.725   1.765 -0.0214  0.0022 -0.1402
 3847TIP3    H111505   7.244   3.703   1.693  1.1339  0.7145  0.5341
 3847TIP3    H211506   7.187   3.648   1.821 -0.7970 -0.4917 -0.7925
 3848TIP3   OH211507   0.416   6.395   1.631  0.1193 -0.1218 -0.1737
 3848TIP3    H111508   0.475   6.447   1.577 -0.3033  1.9981  1.3032
 3848TIP3    H211509   0.404   6.446   1.711 -1.1979 -1.9948  0.9203
 3849TIP3   OH211510   4.672   0.366   4.508 -0.2083  0.1688  0.1915
 3849TIP3    H111511   4.733   0.325   4.570 -1.5205 -0.4476  1.1302
 3849TIP3    H211512   4.717   0.362   4.424  0.8073 -0.7777  0.7529
 3850TIP3   OH211513   1.175   1.312   3.820  0.3111 -0.1382 -0.0334
 3850TIP3    H111514   1.196   1.271   3.904 -0.0474  0.1203  0.1859
 3850TIP3    H211515   1.259   1.337   3.783  0.5151 -0.8217 -0.0405
 3851TIP3   OH211516   1.026   3.177   4.597  0.0476  0.0311  0.3350
 3851TIP3    H111517   0.957   3.114   4.616 -0.9230  1.1964  0.8391
 3851TIP3    H211518   1.006   3.208   4.508 -0.5050  0.8387  0.7173
 3852TIP3   OH211519   3.614   0.027   1.955 -0.0077  0.2790  0.2356
 3852TIP3    H111520   3.621   0.077   1.874 -1.6784 -0.0896 -0.1773
 3852TIP3    H211521   3.688  -0.033   1.953  0.6986  1.1377 -0.3831
 3853TIP3   OH211522   3.018   1.424   4.834 -0.0863 -0.0429  0.2519
 3853TIP3    H111523   3.057   1.509   4.815  0.1264 -0.3220 -0.6242
 3853TIP3    H211524   2.956   1.410   4.763  0.7478 -1.1442 -0.2806
 3854TIP3   OH211525   5.322   0.780   5.043 -0.1931  0.4640 -0.4591
 3854TIP3    H111526   5.402   0.734   5.020 -0.6439 -1.5220  1.5783
 3854TIP3    H211527   5.268   0.776   4.963  0.1674 -1.8137 -0.6570
 3855TIP3   OH211528   0.204   6.396   2.564 -0.4045 -0.5020 -0.3307
 3855TIP3    H111529   0.119   6.356   2.578  0.2294 -1.3745  1.2455
 3855TIP3    H211530   0.231   6.365   2.477 -0.9195 -1.6546 -0.0955
 3856TIP3   OH211531   6.526   3.409   2.234  0.0597 -0.0044 -0.0514
 3856TIP3    H111532   6.591   3.384   2.169 -0.0138 -0.9577  0.2270
 3856TIP3    H211533   6.488   3.326   2.263 -2.0665  0.5624 -1.0089
 3857TIP3   OH211534   0.652   2.761   2.109  0.3891 -0.4819 -0.7311
 3857TIP3    H111535   0.616   2.675   2.128  0.8169 -1.1772 -2.7578
 3857TIP3    H211536   0.707   2.782   2.184  0.2780 -1.9764 -0.2073
 3858TIP3   OH211537   0.209   1.587   0.459 -0.1272  0.6438  0.4359
 3858TIP3    H111538   0.161   1.525   0.513 -1.7488  0.8731 -0.6765
 3858TIP3    H211539   0.260   1.531   0.400 -0.2459  0.3834  0.5745
 3859TIP3   OH211540   1.453   4.456   5.182 -0.2403  0.4844 -0.1330
 3859TIP3    H111541   1.411   4.370   5.185  1.1801 -0.2752 -1.0660
 3859TIP3    H211542   1.387   4.516   5.218 -2.3511 -0.5317 -2.0848
 3860TIP3   OH211543   3.778   3.143   0.738 -0.0054 -0.3104  0.5169
 3860TIP3    H111544   3.742   3.072   0.685 -0.0909 -0.2696  0.5196
 3860TIP3    H211545   3.807   3.208   0.675 -1.6528  0.5057  0.5245
 3861TIP3   OH211546   5.507   4.976   2.259 -0.2608  0.2293  0.2202
 3861TIP3    H111547   5.469   4.902   2.212 -0.3620 -0.2411  1.0219
 3861TIP3    H211548   5.492   5.051   2.203 -0.9508 -0.2157 -0.1956
 3862TIP3   OH211549   2.053   0.024   3.888 -0.3735 -0.0269  0.2007
 3862TIP3    H111550   1.996   0.076   3.944 -0.5270 -0.0781  0.0934
 3862TIP3    H211551   2.094  -0.039   3.946 -2.1756 -1.5262 -0.0593
 3863TIP3   OH211552   0.007   0.189   1.671  0.0757  0.1262  0.4201
 3863TIP3    H111553  -0.035   0.107   1.696 -0.4408  0.2111 -0.1459
 3863TIP3    H211554   0.093   0.163   1.638 -0.6122 -0.3633 -1.1010
 3864TIP3   OH211555   3.375   2.371   1.891  0.3996  0.0431  0.4794
 3864TIP3    H111556   3.403   2.429   1.962  1.8576 -0.0066 -0.0230
 3864TIP3    H211557   3.415   2.408   1.813 -0.5854 -0.3271 -0.2247
 3865TIP3   OH211558   3.192   1.077   5.521 -0.8555  0.5232 -0.2685
 3865TIP3    H111559   3.277   1.122   5.522  0.5546 -1.9322  0.8766
 3865TIP3    H211560   3.158   1.092   5.433  1.2241  0.8490 -1.0699
 3866TIP3   OH211561   3.613   0.349   1.790 -0.5893 -0.2937  0.1592
 3866TIP3    H111562   3.668   0.273   1.769 -1.1191 -0.1773 -1.7542
 3866TIP3    H211563   3.607   0.347   1.886 -0.2191 -2.4070  0.1899
 3867TIP3   OH211564   1.886   3.058   1.398  0.7040 -0.2624 -0.3364
 3867TIP3    H111565   1.871   3.098   1.484  0.6723  0.9681 -0.8925
 3867TIP3    H211566   1.972   3.017   1.405  0.2572 -1.0938  0.5978
 3868TIP3   OH211567   6.452   5.340   4.876 -0.4388 -0.6100 -0.1418
 3868TIP3    H111568   6.474   5.347   4.969  2.0987 -1.2153 -0.6378
 3868TIP3    H211569   6.463   5.429   4.842  1.0736 -0.8325 -0.3068
 3869TIP3   OH211570   5.849   5.224   3.333 -0.5077  0.3403  0.0839
 3869TIP3    H111571   5.803   5.140   3.331  0.7279 -0.3500 -0.7452
 3869TIP3    H211572   5.916   5.214   3.400  1.0659 -0.1628 -1.4868
 3870TIP3   OH211573   5.494   0.253   2.956 -0.1103 -0.2741 -0.0876
 3870TIP3    H111574   5.487   0.330   2.899  0.7916  0.4608  0.7736
 3870TIP3    H211575   5.413   0.253   3.006  0.5617  1.0506  1.0394
 3871TIP3   OH211576   2.829   4.718   1.226  0.3152  0.4728 -0.0257
 3871TIP3    H111577   2.795   4.629   1.218  0.2272  0.4253  0.7977
 3871TIP3    H211578   2.753   4.770   1.253 -0.0742  1.1504 -2.2319
 3872TIP3   OH211579   2.281   6.113   1.302 -0.4988 -0.4837  0.4396
 3872TIP3    H111580   2.252   6.087   1.214 -0.0169  0.3623  0.0131
 3872TIP3    H211581   2.219   6.181   1.328  1.4071  1.9083 -0.8045
 3873TIP3   OH211582   6.296   0.020   4.273  0.1840  0.0454 -0.0655
 3873TIP3    H111583   6.318   0.111   4.293 -1.3224  0.6793 -1.1508
 3873TIP3    H211584   6.333   0.005   4.187  0.6861 -0.4787  0.2376
 3874TIP3   OH211585   3.995   2.858   1.503 -0.5267  0.0173 -0.1745
 3874TIP3    H111586   3.960   2.933   1.550  0.5753 -0.6959  1.9120
 3874TIP3    H211587   4.036   2.895   1.425 -1.0928  1.4280  0.1711
 3875TIP3   OH211588   1.765   5.675   5.207  0.2033 -0.4859 -0.4643
 3875TIP3    H111589   1.704   5.669   5.134  0.5104  0.4032 -0.8199
 3875TIP3    H211590   1.717   5.641   5.282  0.4479 -3.0088 -1.3755
 3876TIP3   OH211591   2.154   4.157   4.405 -0.0671  0.0178 -0.0432
 3876TIP3    H111592   2.173   4.106   4.326 -3.7752 -1.5095 -0.1683
 3876TIP3    H211593   2.191   4.104   4.476  1.9625  0.6368 -0.5808
 3877TIP3   OH211594   1.245   5.095   3.519 -0.0962  0.3966  0.4875
 3877TIP3    H111595   1.281   5.149   3.589 -0.3354  1.5202 -0.2273
 3877TIP3    H211596   1.281   5.133   3.439  1.7563 -2.0561  0.0358
 3878TIP3   OH211597   5.210   2.262   4.989  0.1858 -0.0698  0.1081
 3878TIP3    H111598   5.142   2.315   4.947 -0.0666  0.3444  1.0273
 3878TIP3    H211599   5.287   2.319   4.990  0.2715 -0.1802 -0.0215
 3879TIP3   OH211600   6.801   3.616   2.692 -0.5907 -0.2488  0.0682
 3879TIP3    H111601   6.868   3.549   2.681  0.3530  0.5719  0.6966
 3879TIP3    H211602   6.718   3.567   2.693 -0.0032 -1.2834 -0.5726
 3880TIP3   OH211603   5.490   3.253   2.657 -0.1310 -0.2792 -0.4359
 3880TIP3    H111604   5.538   3.280   2.579 -0.1673  1.6475  0.1530
 3880TIP3    H211605   5.540   3.180   2.692  1.2953  0.4320 -0.9126
 3881TIP3   OH211606   3.661   5.530   2.191 -0.3303 -0.1081 -0.0624
 3881TIP3    H111607   3.687   5.489   2.274  1.2166 -0.7695 -0.8351
 3881TIP3    H211608   3.620   5.460   2.141  0.6446 -0.2501 -0.6691
 3882TIP3   OH211609   1.259   5.956   4.696 -0.1688  0.2473  0.0101
 3882TIP3    H111610   1.270   5.914   4.610 -1.4102  0.6110 -0.3484
 3882TIP3    H211611   1.348   5.965   4.730  0.3221 -0.1553 -1.1181
 3883TIP3   OH211612   5.079   0.204   3.533  0.4857  0.3368 -0.2089
 3883TIP3    H111613   5.052   0.212   3.624  0.7293 -0.9155 -0.0094
 3883TIP3    H211614   5.139   0.130   3.532  1.9098  1.4370 -1.0898
 3884TIP3   OH211615   4.425   3.272   3.942  0.0957  0.1594 -0.0188
 3884TIP3    H111616   4.486   3.326   3.892  1.1848 -0.5101  0.5599
 3884TIP3    H211617   4.477   3.199   3.974 -1.5939 -1.9481 -1.7883
 3885TIP3   OH211618   5.118   4.477   5.067 -0.4435  0.2692 -0.0584
 3885TIP3    H111619   5.094   4.569   5.076 -0.9094  0.0935  0.6406
 3885TIP3    H211620   5.192   4.476   5.008 -0.4130  1.0992 -0.0373
 3886TIP3   OH211621   2.857   3.680   4.394 -0.5337 -0.2654 -0.3412
 3886TIP3    H111622   2.881   3.620   4.465  0.9732 -0.5576 -1.0673
 3886TIP3    H211623   2.762   3.671   4.386 -0.3065 -3.0338 -0.8406
 3887TIP3   OH211624   5.652   2.097   3.334  0.5621  0.0041  0.7385
 3887TIP3    H111625   5.577   2.124   3.386 -0.0529 -1.4018  0.6154
 3887TIP3    H211626   5.724   2.151   3.367 -0.8440  2.8234 -0.5042
 3888TIP3   OH211627   5.080   4.405   4.234 -0.6941 -0.0323  0.2371
 3888TIP3    H111628   5.132   4.394   4.313 -0.4553  0.2044  0.1145
 3888TIP3    H211629   5.010   4.466   4.260 -0.5427  0.1437  0.2328
 3889TIP3   OH211630   2.396   2.277   4.634  0.4775  0.4562  0.0361
 3889TIP3    H111631   2.357   2.189   4.636  0.2065  0.5131 -1.6915
 3889TIP3    H211632   2.377   2.313   4.720  0.2942 -1.0470  0.6662
 3890TIP3   OH211633   0.260   2.541   5.471 -0.1667 -0.5394  0.2608
 3890TIP3    H111634   0.299   2.536   5.558 -0.8360 -2.0427  0.5139
 3890TIP3    H211635   0.327   2.583   5.417  0.8285 -0.8742  1.1939
 3891TIP3   OH211636   5.463   3.404   4.072 -0.2302 -0.1375  0.1691
 3891TIP3    H111637   5.457   3.322   4.023  0.4137  0.2280 -0.5512
 3891TIP3    H211638   5.499   3.467   4.009  2.3457 -0.0619  1.5758
 3892TIP3   OH211639   2.329   5.000   1.977 -0.5434 -0.3539 -0.0221
 3892TIP3    H111640   2.334   5.042   2.063 -0.9111 -1.4468  0.5558
 3892TIP3    H211641   2.297   4.912   1.996 -1.2828 -0.3916 -1.3532
 3893TIP3   OH211642   3.779   3.024   1.606  0.1576  0.2133  0.4502
 3893TIP3    H111643   3.726   2.947   1.583 -0.2635  0.1766  1.5308
 3893TIP3    H211644   3.718   3.086   1.643  0.5681  0.9399 -0.0537
 3894TIP3   OH211645   0.621   6.752   5.634 -0.3938  0.2067 -0.3653
 3894TIP3    H111646   0.667   6.683   5.683 -0.0470  2.2525  2.4179
 3894TIP3    H211647   0.534   6.716   5.617  0.0032 -1.1670  0.3702
 3895TIP3   OH211648   3.837   0.441   2.315 -0.3522  0.3171  0.3674
 3895TIP3    H111649   3.799   0.515   2.268  0.2070  0.0330 -0.5596
 3895TIP3    H211650   3.840   0.370   2.250  0.2283 -0.1507  0.8920
 3896TIP3   OH211651   5.070   1.190   3.190  0.0863  0.0363  0.6242
 3896TIP3    H111652   5.101   1.099   3.189  0.1938  0.0670 -0.5730
 3896TIP3    H211653   5.101   1.225   3.273 -0.0110 -1.0380  1.1299
 3897TIP3   OH211654   1.658   6.445   4.952  0.0228 -0.0036  0.1010
 3897TIP3    H111655   1.742   6.483   4.979  0.1690  0.3103 -0.7507
 3897TIP3    H211656   1.650   6.470   4.859 -1.1289  0.1845  0.2400
 3898TIP3   OH211657   6.877   5.335   2.386  0.6687 -0.0536 -0.1344
 3898TIP3    H111658   6.899   5.415   2.338  2.6165  0.3052  1.2182
 3898TIP3    H211659   6.909   5.264   2.330  1.6225  0.2878 -0.0484
 3899TIP3   OH211660   3.841   5.090   3.944  0.3625 -0.0308  0.1871
 3899TIP3    H111661   3.807   5.029   3.879 -2.9942 -1.5764  3.0388
 3899TIP3    H211662   3.903   5.038   3.996 -0.1143 -0.1036  0.6973
 3900TIP3   OH211663   6.837   6.638   5.346 -0.1206 -0.0381  0.0328
 3900TIP3    H111664   6.893   6.651   5.423 -0.3678 -2.7094  0.7937
 3900TIP3    H211665   6.898   6.626   5.273  0.1470  1.1974  0.0315
 3901TIP3   OH211666   0.571   0.575   3.388  0.2285  0.2205  0.6875
 3901TIP3    H111667   0.492   0.525   3.367 -0.0263  1.2429 -0.8908
 3901TIP3    H211668   0.609   0.529   3.464  0.5287 -2.9658 -1.2163
 3902TIP3   OH211669   4.743   0.445   2.188  0.2588 -0.2014  0.1617
 3902TIP3    H111670   4.700   0.444   2.273  0.9171  1.9388  0.5846
 3902TIP3    H211671   4.825   0.493   2.204  1.4365 -1.6604 -1.2205
 3903TIP3   OH211672   0.329   1.132   5.134 -0.7285 -0.8409  0.3053
 3903TIP3    H111673   0.295   1.181   5.209 -0.8493  0.2509 -0.4332
 3903TIP3    H211674   0.309   1.041   5.154 -0.1313 -0.6453  1.9125
 3904TIP3   OH211675   2.986   2.361   2.557 -0.0960  0.3587  0.2820
 3904TIP3    H111676   3.064   2.411   2.580 -0.3985  0.4207  1.2355
 3904TIP3    H211677   2.984   2.361   2.461 -0.0457  2.1140  0.2583
 3905TIP3   OH211678   6.442   5.757   5.076  0.1882 -0.5395 -0.2542
 3905TIP3    H111679   6.444   5.840   5.028  0.9162 -0.1685  0.3958
 3905TIP3    H211680   6.533   5.727   5.077 -0.1082 -1.5300 -0.7729
 3906TIP3   OH211681   2.100   6.536   5.559 -0.3948  0.0979 -0.3298
 3906TIP3    H111682   2.049   6.617   5.554  0.3385  0.7313  1.2779
 3906TIP3    H211683   2.126   6.517   5.469  0.1166  2.1556 -0.6683
 3907TIP3   OH211684   2.859   5.459   2.110  0.3589  0.0070 -0.1532
 3907TIP3    H111685   2.850   5.368   2.138 -0.5570  0.4038  0.9179
 3907TIP3    H211686   2.946   5.485   2.141  1.3353 -0.9490 -1.9124
 3908TIP3   OH211687   3.968   5.768   5.142 -0.2375  0.4719 -0.3703
 3908TIP3    H111688   3.940   5.765   5.051 -2.0126 -3.3946  0.0904
 3908TIP3    H211689   3.888   5.750   5.192  1.4337 -2.3252  1.5784
 3909TIP3   OH211690   2.784   1.542   5.673 -0.2070 -0.0017 -0.2207
 3909TIP3    H111691   2.829   1.476   5.622 -1.1131  1.0429 -2.4902
 3909TIP3    H211692   2.719   1.580   5.613  0.7410  3.4255  0.6671
 3910TIP3   OH211693   2.512   1.194   4.760 -0.6365  0.2668  0.0840
 3910TIP3    H111694   2.511   1.099   4.772 -0.9783  0.6508  5.1552
 3910TIP3    H211695   2.433   1.225   4.805 -0.0968  3.0461 -0.6955
 3911TIP3   OH211696   4.568   6.435   5.003 -0.0559  0.4511  0.1094
 3911TIP3    H111697   4.532   6.500   5.064  1.1702  1.2078  0.0724
 3911TIP3    H211698   4.549   6.351   5.043  0.0884  0.9133  1.1847
 3912TIP3   OH211699   6.384   2.378   0.385 -0.3058 -0.0174 -0.3946
 3912TIP3    H111700   6.290   2.391   0.402  0.0348  1.4450  0.5788
 3912TIP3    H211701   6.406   2.447   0.322  0.0349 -0.6628 -0.9955
 3913TIP3   OH211702   7.033   1.454   3.628 -0.3792 -0.7302 -0.3732
 3913TIP3    H111703   6.987   1.413   3.554  2.0142  1.0820 -3.0770
 3913TIP3    H211704   7.006   1.546   3.625  1.2034 -0.2298 -0.2526
 3914TIP3   OH211705   4.858   1.358   3.144 -0.3164  0.0301  0.1593
 3914TIP3    H111706   4.802   1.320   3.076 -0.8299 -1.1241  1.1743
 3914TIP3    H211707   4.931   1.297   3.153 -0.6978 -0.2927  1.2217
 3915TIP3   OH211708   4.935   2.289   5.681 -0.2440  0.5170 -0.0319
 3915TIP3    H111709   4.988   2.288   5.761 -1.0133  0.0844  0.4824
 3915TIP3    H211710   4.966   2.213   5.631  0.2263  0.7774 -0.1350
 3916TIP3   OH211711   2.360   5.094   2.245 -0.2474 -0.4053  0.5441
 3916TIP3    H111712   2.448   5.059   2.261 -0.3674 -0.4740  1.0547
 3916TIP3    H211713   2.302   5.038   2.297 -0.5371 -0.0195  0.6388
 3917TIP3   OH211714   5.276   2.465   3.477  0.0568  0.1767  0.5992
 3917TIP3    H111715   5.305   2.414   3.401 -0.5438  0.6387  0.0531
 3917TIP3    H211716   5.195   2.423   3.504  1.1414 -1.0819  2.0980
 3918TIP3   OH211717   4.857   4.020   2.775  0.4032  0.4881 -0.0334
 3918TIP3    H111718   4.787   4.069   2.732 -0.1714  0.7879  1.1983
 3918TIP3    H211719   4.886   3.957   2.709 -1.0228  0.3613 -0.5818
 3919TIP3   OH211720   2.907   5.724   3.926  0.0587  0.0084 -0.7285
 3919TIP3    H111721   2.820   5.752   3.896  0.3574  1.2906 -0.4402
 3919TIP3    H211722   2.968   5.765   3.865  0.4862 -0.6837 -0.7790
 3920TIP3   OH211723   4.219   2.887   4.030  0.6448  0.3981  0.0779
 3920TIP3    H111724   4.157   2.899   4.102  0.3818 -0.5185  0.0154
 3920TIP3    H211725   4.305   2.904   4.070  0.4719  0.2456  0.5275
 3921TIP3   OH211726   2.539   5.055   3.736  0.2854  0.7526  0.0716
 3921TIP3    H111727   2.532   5.147   3.761  3.2204  1.0289  0.2726
 3921TIP3    H211728   2.609   5.054   3.671  0.7905 -1.4243  0.5817
 3922TIP3   OH211729   5.643   0.950   3.933  0.7458  0.3721 -0.0922
 3922TIP3    H111730   5.715   1.006   3.904 -0.1816  0.1531 -3.1087
 3922TIP3    H211731   5.654   0.869   3.884 -1.3221  0.1733 -0.3068
 3923TIP3   OH211732   2.885   5.858   1.186  0.4742 -0.3334 -0.2908
 3923TIP3    H111733   2.856   5.769   1.209  1.0903 -0.4793 -0.0545
 3923TIP3    H211734   2.947   5.881   1.255 -1.4174  1.2284  1.0161
 3924TIP3   OH211735   6.510   2.621   3.235 -0.6142 -0.1813 -0.4571
 3924TIP3    H111736   6.535   2.588   3.321  0.5584 -1.0724 -1.1105
 3924TIP3    H211737   6.547   2.709   3.232  1.2871 -0.9628 -0.8637
 3925TIP3   OH211738   4.639   1.543   4.914 -0.0533  0.5407  0.1240
 3925TIP3    H111739   4.663   1.567   5.004  1.4433 -0.9044  0.1682
 3925TIP3    H211740   4.611   1.452   4.921 -0.0818  0.4632 -0.8607
 3926TIP3   OH211741   2.479   0.240   3.804 -0.9318  0.6809  0.2691
 3926TIP3    H111742   2.432   0.160   3.826 -2.3186  1.6364  0.9580
 3926TIP3    H211743   2.482   0.289   3.887 -0.0951  1.3404 -0.1325
 3927TIP3   OH211744   3.349   4.894   0.395  0.0115 -0.4366 -0.0355
 3927TIP3    H111745   3.337   4.931   0.482  0.2683  1.7018 -0.8627
 3927TIP3    H211746   3.270   4.841   0.381  0.4910 -1.7801  1.8932
 3928TIP3   OH211747   5.400   1.737   4.956 -0.2649  0.2538 -0.3166
 3928TIP3    H111748   5.339   1.809   4.972 -0.0483  0.9724 -2.4223
 3928TIP3    H211749   5.474   1.777   4.911 -0.3902 -1.3363 -2.0860
 3929TIP3   OH211750   4.524   1.637   4.011  0.0216  0.4320 -0.3196
 3929TIP3    H111751   4.440   1.677   3.988 -1.4181 -2.4961 -0.7403
 3929TIP3    H211752   4.516   1.617   4.104  0.4922  0.6231 -0.2359
 3930TIP3   OH211753   2.182   5.034   1.739 -0.2125  0.2854  0.3987
 3930TIP3    H111754   2.204   5.044   1.831  1.6136  2.5200 -0.1975
 3930TIP3    H211755   2.245   5.089   1.693 -0.9222 -0.9388 -2.2214
 3931TIP3   OH211756   2.720   3.019   5.029  0.1919 -0.2173 -0.1595
 3931TIP3    H111757   2.769   3.081   4.975  1.7903  1.2626  2.7846
 3931TIP3    H211758   2.786   2.963   5.068 -0.8084 -0.7885  0.7862
 3932TIP3   OH211759   6.556   3.072   2.988  0.0803 -0.2771  0.5935
 3932TIP3    H111760   6.606   3.002   2.947 -1.9852 -1.8492  0.5791
 3932TIP3    H211761   6.533   3.038   3.074 -0.5894  0.5878  0.7756
 3933TIP3   OH211762   3.001   5.218   1.345 -0.0880  0.3514 -0.2427
 3933TIP3    H111763   2.946   5.140   1.355 -0.4693  0.3311 -2.1562
 3933TIP3    H211764   3.069   5.209   1.412 -0.4885 -1.3073 -0.0358
 3934TIP3   OH211765   4.555   0.049   2.258 -0.4258 -0.3160 -0.4703
 3934TIP3    H111766   4.476  -0.003   2.251 -0.3556 -0.2571 -2.4490
 3934TIP3    H211767   4.556   0.102   2.178  1.3283  0.0766 -0.2486
 3935TIP3   OH211768   0.893   0.040   5.536 -0.1977  0.3495  0.4256
 3935TIP3    H111769   0.858   0.075   5.454 -1.2025 -1.0610  0.2171
 3935TIP3    H211770   0.912  -0.051   5.517  1.6086  0.5340  1.1733
 3936TIP3   OH211771   1.341   6.590   4.720 -0.9284 -0.3337 -0.0889
 3936TIP3    H111772   1.323   6.509   4.672 -2.0085 -1.0182  1.3875
 3936TIP3    H211773   1.432   6.610   4.700 -0.8301 -1.5683 -0.9840
 3937TIP3   OH211774   5.931   3.251   0.610 -0.2255  0.6569 -0.1749
 3937TIP3    H111775   5.838   3.267   0.595 -0.0498  0.9989 -0.9878
 3937TIP3    H211776   5.971   3.338   0.603 -0.1570  0.9836  2.9559
 3938TIP3   OH211777   6.488   6.088   0.964  0.5419  0.3466  0.3291
 3938TIP3    H111778   6.538   6.011   0.990 -1.3748 -0.8062  0.8650
 3938TIP3    H211779   6.422   6.054   0.904 -0.4335  1.5333  0.6831
 3939TIP3   OH211780   5.589   5.466   2.324 -0.2060 -0.5593 -0.3242
 3939TIP3    H111781   5.629   5.552   2.333 -1.2297 -0.0667 -0.2555
 3939TIP3    H211782   5.660   5.404   2.338  0.0076  0.2243  2.8374
 3940TIP3   OH211783   2.235   6.209   5.581  0.6697 -0.2658 -0.3957
 3940TIP3    H111784   2.254   6.119   5.607  1.4566  0.0570  0.1701
 3940TIP3    H211785   2.190   6.200   5.497  0.9106 -1.1757 -0.4434
 3941TIP3   OH211786   0.144   4.735   5.218 -0.5680  0.2142 -0.2435
 3941TIP3    H111787   0.119   4.827   5.219  0.7099  0.5842  1.1401
 3941TIP3    H211788   0.134   4.706   5.309  0.2275 -0.6706 -0.4166
 3942TIP3   OH211789   6.986   3.525   2.219 -0.5115  0.5103 -0.1054
 3942TIP3    H111790   7.035   3.479   2.287  0.2997  0.9583 -0.3705
 3942TIP3    H211791   6.919   3.574   2.266 -1.6837 -1.2381  0.1555
 3943TIP3   OH211792   0.883   4.045   5.590 -0.4841  0.4502 -0.2340
 3943TIP3    H111793   0.891   3.978   5.522 -0.6747 -1.9350  1.9439
 3943TIP3    H211794   0.796   4.081   5.578 -0.1623  0.7520 -1.8067
 3944TIP3   OH211795   2.690   5.071   5.423 -0.5457 -0.2458 -0.2483
 3944TIP3    H111796   2.620   5.015   5.390 -0.3826  0.2122 -1.4151
 3944TIP3    H211797   2.770   5.037   5.383 -0.2923  0.1058 -0.0547
 3945TIP3   OH211798   7.142   5.229   3.679  0.2008  0.3979 -0.1740
 3945TIP3    H111799   7.222   5.276   3.655 -0.2225  0.4587 -1.5474
 3945TIP3    H211800   7.145   5.148   3.629  0.1895 -0.3762  1.0409
 3946TIP3   OH211801   4.581   4.421   1.131  0.3373 -0.3012 -0.0640
 3946TIP3    H111802   4.573   4.359   1.058  1.8647 -1.3003  0.5622
 3946TIP3    H211803   4.497   4.414   1.178 -0.6651  0.3524 -1.6599
 3947TIP3   OH211804   1.169   4.808   0.213 -0.2181 -0.0391 -0.5314
 3947TIP3    H111805   1.125   4.826   0.296 -0.7213 -0.6079 -0.6731
 3947TIP3    H211806   1.244   4.867   0.213 -0.8990  0.8450 -0.2289
 3948TIP3   OH211807   4.799   5.643   0.473  0.4622 -0.2360  0.2774
 3948TIP3    H111808   4.751   5.573   0.517  0.9385 -1.7631 -1.5056
 3948TIP3    H211809   4.761   5.647   0.385  1.1466  1.0432  0.0099
 3949TIP3   OH211810   5.570   6.283   2.903 -0.2194 -0.0556  0.1514
 3949TIP3    H111811   5.600   6.305   2.815  0.4302  1.3515  0.6860
 3949TIP3    H211812   5.607   6.197   2.920 -1.3336 -0.8825 -1.3766
 3950TIP3   OH211813   1.942   4.422   5.063  0.1026  0.5852 -0.1329
 3950TIP3    H111814   1.882   4.402   4.991 -1.1319  0.1429  0.9957
 3950TIP3    H211815   1.945   4.518   5.065  1.4636  0.6276 -1.8073
 3951TIP3   OH211816   5.942   5.008   4.896  0.2352  0.2142 -0.2811
 3951TIP3    H111817   5.852   5.018   4.927 -0.0880  1.1808 -1.4615
 3951TIP3    H211818   5.945   5.057   4.814  1.4613 -1.0132 -1.0107
 3952TIP3   OH211819   4.088   3.373   5.111 -0.2721 -0.4421  0.3988
 3952TIP3    H111820   4.133   3.419   5.181 -0.5075  1.6071 -0.7289
 3952TIP3    H211821   4.147   3.380   5.036 -1.5606  0.5821 -0.5637
 3953TIP3   OH211822   1.808   6.400   4.286  0.2693  0.5777 -0.0597
 3953TIP3    H111823   1.874   6.340   4.249  1.1479 -0.6526  3.1448
 3953TIP3    H211824   1.846   6.487   4.274 -0.3487  0.5337 -3.4726
 3954TIP3   OH211825   4.549   4.740   1.349 -0.3832  0.1886 -0.1709
 3954TIP3    H111826   4.496   4.813   1.319 -0.0719  0.6771  0.4436
 3954TIP3    H211827   4.510   4.663   1.308 -1.7307  0.4978  0.4925
 3955TIP3   OH211828   5.810   2.625   0.653 -0.6250 -0.4464  0.5584
 3955TIP3    H111829   5.812   2.716   0.683  0.9627 -0.3636  0.2799
 3955TIP3    H211830   5.868   2.578   0.713  1.3142 -0.5828 -1.3135
 3956TIP3   OH211831   3.288   3.058   2.268 -0.4222  0.0656 -0.3459
 3956TIP3    H111832   3.199   3.042   2.299  0.0512  1.7794  2.1859
 3956TIP3    H211833   3.288   3.151   2.245  0.0960 -0.4816 -2.8305
 3957TIP3   OH211834   2.381   3.599   5.272 -0.0693 -0.3098 -0.1584
 3957TIP3    H111835   2.291   3.579   5.295  0.0176 -0.5466 -0.0176
 3957TIP3    H211836   2.379   3.689   5.241 -0.2442 -0.0985  0.4625
 3958TIP3   OH211837   1.800   3.726   3.372  0.2157 -0.0359  0.1772
 3958TIP3    H111838   1.878   3.727   3.317 -0.2417  0.4297 -0.4795
 3958TIP3    H211839   1.827   3.769   3.453  0.7082 -0.1215  0.0637
 3959TIP3   OH211840   2.704   2.254   5.774  0.0657  0.1422 -0.1367
 3959TIP3    H111841   2.640   2.215   5.835 -0.0678 -0.3673 -0.5965
 3959TIP3    H211842   2.788   2.242   5.817 -0.0332 -0.1615 -0.0239
 3960TIP3   OH211843   4.785  -0.000   3.252 -0.5313  0.0061  0.2140
 3960TIP3    H111844   4.820   0.085   3.278  0.3636  0.1039 -1.2060
 3960TIP3    H211845   4.711  -0.015   3.311  0.6176  0.7682  1.9281
 3961TIP3   OH211846   5.017   5.426   0.263 -0.2844  0.5243 -0.3941
 3961TIP3    H111847   5.067   5.347   0.243 -0.9248  0.4459 -1.8155
 3961TIP3    H211848   5.056   5.459   0.344  2.0998  0.4719 -1.4247
 3962TIP3   OH211849   3.413   4.205   1.064  0.4415 -0.0952  0.5352
 3962TIP3    H111850   3.338   4.185   1.007 -0.1797  0.2839  1.2027
 3962TIP3    H211851   3.385   4.282   1.113  0.9468 -0.4480  1.3904
 3963TIP3   OH211852   5.853   6.336   0.167 -0.1267 -0.1835 -0.0585
 3963TIP3    H111853   5.862   6.429   0.144 -0.0750  0.0944  1.0238
 3963TIP3    H211854   5.880   6.331   0.259  0.1769 -1.3337 -0.1953
 3964TIP3   OH211855   1.471   3.675   1.028  0.4659 -0.2202  1.0112
 3964TIP3    H111856   1.491   3.610   1.096  0.6183 -1.2698 -0.0076
 3964TIP3    H211857   1.556   3.709   1.001  0.5789 -1.2319  0.0049
 3965TIP3   OH211858   5.698   3.606   0.450  0.3493 -0.6951  0.0274
 3965TIP3    H111859   5.613   3.592   0.492 -0.4755 -2.0013 -1.9386
 3965TIP3    H211860   5.761   3.603   0.522 -1.1628 -0.6711  1.4110
 3966TIP3   OH211861   2.849   3.204   3.244  0.0905 -0.1510  0.4829
 3966TIP3    H111862   2.843   3.212   3.339  0.3098  0.9616  0.4127
 3966TIP3    H211863   2.758   3.203   3.213 -0.0286 -2.0283  0.7983
 3967TIP3   OH211864   5.092   1.504   4.662  0.5755  0.4658  0.5235
 3967TIP3    H111865   5.169   1.560   4.676  1.1792 -0.3886  0.7252
 3967TIP3    H211866   5.115   1.452   4.585 -1.4172  2.9018 -1.9046
 3968TIP3   OH211867   5.509   6.583   4.733 -0.0653 -0.6401 -0.2509
 3968TIP3    H111868   5.438   6.594   4.669  0.3392  1.2619 -0.4245
 3968TIP3    H211869   5.476   6.625   4.813  0.9421  0.5427 -0.4221
 3969TIP3   OH211870   0.027   0.069   2.996  0.1975  0.2940  0.1150
 3969TIP3    H111871   0.111   0.108   2.973  0.6601  0.1909  1.5095
 3969TIP3    H211872  -0.035   0.143   2.994  0.4945  0.5396 -0.0631
 3970TIP3   OH211873   5.778   6.507   5.770 -0.1559  0.7355 -0.4874
 3970TIP3    H111874   5.777   6.511   5.674 -1.2646  0.9657 -0.4778
 3970TIP3    H211875   5.768   6.597   5.798  0.0413  0.6541 -0.1421
 3971TIP3   OH211876   2.606   2.190   0.453  0.6435 -0.1750  0.1125
 3971TIP3    H111877   2.602   2.275   0.409 -0.6312 -0.6311 -0.7002
 3971TIP3    H211878   2.618   2.211   0.545 -2.7887  1.0496  0.4086
 3972TIP3   OH211879   0.053   0.716   4.618  0.0941 -0.2098  0.5725
 3972TIP3    H111880   0.091   0.791   4.664 -0.0502  0.9027 -1.0350
 3972TIP3    H211881   0.112   0.699   4.545 -1.9155  0.9843 -1.4447
 3973TIP3   OH211882   7.090   6.108   3.995  0.2467 -0.2884  0.1456
 3973TIP3    H111883   7.046   6.179   4.042 -0.4159 -1.8619  2.0311
 3973TIP3    H211884   7.021   6.067   3.942 -0.3285 -1.8466  1.9917
 3974TIP3   OH211885   2.874   6.168   0.430  0.2388 -0.1042  0.3041
 3974TIP3    H111886   2.806   6.106   0.457 -0.4382  0.1661 -0.7214
 3974TIP3    H211887   2.900   6.138   0.343  0.9423  0.2072  0.4029
 3975TIP3   OH211888   5.306   5.104   2.645  0.1228  0.2490 -0.5128
 3975TIP3    H111889   5.339   5.026   2.601  1.9800  0.0897  1.0444
 3975TIP3    H211890   5.248   5.070   2.713  0.6310  0.2491 -0.0802
 3976TIP3   OH211891   0.531   0.223   5.344 -0.4538 -0.1613  0.1803
 3976TIP3    H111892   0.438   0.226   5.369 -0.6519  1.7944 -0.6078
 3976TIP3    H211893   0.565   0.309   5.369  0.9680 -0.5656 -0.2683
 3977TIP3   OH211894   4.429   4.930   0.236  0.3938  0.2417 -0.3562
 3977TIP3    H111895   4.392   5.018   0.243  2.2177  1.0566 -0.2152
 3977TIP3    H211896   4.391   4.882   0.309 -1.6147  0.4952 -1.1766
 3978TIP3   OH211897   4.304   4.889   1.593  0.1806 -0.2005  0.3443
 3978TIP3    H111898   4.355   4.965   1.565  1.1084 -0.9215  0.0541
 3978TIP3    H211899   4.317   4.884   1.688  0.4817 -0.2597  0.3000
 3979TIP3   OH211900   5.197   0.915   1.857 -0.1117 -0.3754 -0.3193
 3979TIP3    H111901   5.290   0.924   1.838  0.1254  0.2345  1.0591
 3979TIP3    H211902   5.176   0.990   1.913 -1.2620 -0.9013 -0.0150
 3980TIP3   OH211903   3.167   0.040   1.473 -0.0673  0.1779 -0.9139
 3980TIP3    H111904   3.103   0.001   1.532 -0.4656  0.5860 -1.0659
 3980TIP3    H211905   3.184   0.127   1.511  1.2098 -0.3268 -0.2754
 3981TIP3   OH211906   4.438   0.692   0.718 -0.2537 -0.3873  0.4051
 3981TIP3    H111907   4.523   0.648   0.726  0.0494 -0.4328 -2.2047
 3981TIP3    H211908   4.454   0.781   0.750  1.2047  0.0238 -1.2838
 3982TIP3   OH211909   1.732   1.258   0.064  0.1259  0.3775  0.5024
 3982TIP3    H111910   1.824   1.284   0.068  0.5032 -0.2883 -1.8700
 3982TIP3    H211911   1.710   1.267  -0.029 -1.1848 -2.7695  0.4064
 3983TIP3   OH211912   6.578   5.752   2.060 -0.3235  0.5097 -0.7191
 3983TIP3    H111913   6.537   5.785   1.980 -2.1637 -1.2900 -0.6152
 3983TIP3    H211914   6.516   5.775   2.130  1.0185  1.6166  0.1381
 3984TIP3   OH211915   1.192   1.515   1.285 -0.5253  0.5984  0.0878
 3984TIP3    H111916   1.145   1.503   1.203 -1.4104 -2.1861  0.8569
 3984TIP3    H211917   1.141   1.581   1.333 -0.7272  1.3109 -1.0759
 3985TIP3   OH211918   5.914   5.591   2.202  1.0154 -0.0109  1.0056
 3985TIP3    H111919   5.869   5.516   2.242  0.0527 -0.5136 -0.8980
 3985TIP3    H211920   6.004   5.561   2.192  0.8355 -0.5902  1.0503
 3986TIP3   OH211921   1.735   1.432   4.072 -0.1743  0.7792 -0.2080
 3986TIP3    H111922   1.821   1.418   4.111 -0.6205 -1.8849  0.0001
 3986TIP3    H211923   1.752   1.435   3.978  0.2088  1.1264 -0.1347
 3987TIP3   OH211924   0.421   2.608   5.260  0.1281  0.5570  0.3390
 3987TIP3    H111925   0.381   2.592   5.174 -0.9366 -0.2879  0.9619
 3987TIP3    H211926   0.467   2.692   5.250 -1.5583  1.4374 -0.5164
 3988TIP3   OH211927   3.055   2.528   1.285  0.4310  0.0714  0.5200
 3988TIP3    H111928   2.979   2.580   1.261 -0.1493 -0.2475  1.5649
 3988TIP3    H211929   3.025   2.475   1.360  1.1400 -1.3747 -0.1709
 3989TIP3   OH211930   2.403   2.262   2.473  0.0568  0.2058 -0.5406
 3989TIP3    H111931   2.436   2.259   2.563 -0.6694 -2.0352 -0.2756
 3989TIP3    H211932   2.464   2.321   2.428 -0.1047  2.1503  1.5685
 3990TIP3   OH211933   6.472   5.930   4.017 -0.2088 -0.4694  0.2239
 3990TIP3    H111934   6.444   5.978   4.094 -0.0815  1.3854 -0.8393
 3990TIP3    H211935   6.568   5.933   4.019 -0.1294 -2.2025  1.0348
 3991TIP3   OH211936   7.158   0.684   0.132 -1.0080  0.4723 -0.0551
 3991TIP3    H111937   7.169   0.748   0.062 -0.4777 -0.6318 -1.0206
 3991TIP3    H211938   7.240   0.686   0.181 -1.2047  0.9235  0.2557
 3992TIP3   OH211939   6.890   3.595   5.411 -0.1570 -0.0554 -0.1599
 3992TIP3    H111940   6.896   3.568   5.503 -0.8570 -1.6158 -0.5297
 3992TIP3    H211941   6.953   3.538   5.365  0.0353  0.5628 -0.6741
 3993TIP3   OH211942   4.522   6.257   5.743 -0.5146  0.5733  0.2046
 3993TIP3    H111943   4.519   6.167   5.709  0.3346  0.3453  0.6822
 3993TIP3    H211944   4.563   6.307   5.672  1.2207  0.1066  0.8221
 3994TIP3   OH211945   5.937   4.393   0.380 -0.1833  0.4966 -0.3399
 3994TIP3    H111946   5.979   4.465   0.426 -1.1697  0.7847  0.1457
 3994TIP3    H211947   6.005   4.356   0.324  1.5204 -0.8087  2.3882
 3995TIP3   OH211948   0.712   5.123   2.755  0.2639  0.0757  0.2016
 3995TIP3    H111949   0.649   5.192   2.733 -0.9424 -0.6462  1.2561
 3995TIP3    H211950   0.719   5.071   2.674  1.8762  1.8785 -0.8976
 3996TIP3   OH211951   0.306   5.486   4.237 -0.3310  0.4056  0.0790
 3996TIP3    H111952   0.256   5.497   4.318 -0.6941 -1.1784  0.1131
 3996TIP3    H211953   0.327   5.575   4.209  0.0148  0.9976  2.0394
 3997TIP3   OH211954   4.128   5.298   1.295 -0.2681  0.3555  0.0657
 3997TIP3    H111955   4.197   5.310   1.230 -0.2283 -0.0593  0.0257
 3997TIP3    H211956   4.100   5.207   1.284 -1.8315  0.9076 -0.9229
 3998TIP3   OH211957   2.393   2.280   0.693 -0.3039 -0.3684 -0.5339
 3998TIP3    H111958   2.418   2.190   0.714  1.4752 -0.1136 -1.4022
 3998TIP3    H211959   2.364   2.317   0.776 -1.0249 -1.7191 -0.1527
 3999TIP3   OH211960   0.103   4.261   0.698  0.5414  0.2725 -0.1592
 3999TIP3    H111961   0.169   4.312   0.746 -1.3575  1.5980  1.1958
 3999TIP3    H211962   0.027   4.259   0.756 -0.5647 -1.3893 -1.5589
 4000TIP3   OH211963   0.387   1.494   1.441 -0.0572  0.2372  0.1233
 4000TIP3    H111964   0.370   1.563   1.506 -2.5784  0.8584 -1.0512
 4000TIP3    H211965   0.427   1.540   1.367  0.8391 -0.0803  0.4055
 4001TIP3   OH211966   6.599   1.112   3.808  0.1076 -0.7991 -0.1913
 4001TIP3    H111967   6.578   1.189   3.861  0.2138 -1.2301  0.4867
 4001TIP3    H211968   6.547   1.042   3.846  1.4551 -1.4935  0.4167
 4002TIP3   OH211969   4.097   6.372   4.476  0.2824  0.0397  0.0743
 4002TIP3    H111970   4.139   6.441   4.527 -0.6879 -1.1467  2.6763
 4002TIP3    H211971   4.020   6.347   4.527 -1.8088 -0.1289 -2.8804
 4003TIP3   OH211972   3.656   0.645   2.248 -0.3774  0.4692 -0.4113
 4003TIP3    H111973   3.638   0.727   2.296 -1.8677 -0.6366  1.0309
 4003TIP3    H211974   3.630   0.665   2.158 -2.7699  1.0100  0.3170
 4004TIP3   OH211975   6.554   4.424   3.063  0.0222  0.3385 -0.0378
 4004TIP3    H111976   6.535   4.510   3.099 -0.8913 -0.2562  0.9432
 4004TIP3    H211977   6.620   4.387   3.122  1.0487  0.6783 -0.9392
 4005TIP3   OH211978   0.545   0.802   0.992 -0.5524 -0.1302  0.6536
 4005TIP3    H111979   0.524   0.710   0.977 -1.6473  0.1604  0.3119
 4005TIP3    H211980   0.524   0.817   1.084  0.9726 -0.5538  1.0991
 4006TIP3   OH211981   6.568   1.339   0.276 -0.0628  0.1408  0.5264
 4006TIP3    H111982   6.545   1.358   0.185  1.4655 -0.2150  0.0421
 4006TIP3    H211983   6.638   1.274   0.270  0.8503  0.9516  1.9150
 4007TIP3   OH211984   5.506   2.871   5.079 -0.3307 -0.3535  0.2585
 4007TIP3    H111985   5.425   2.888   5.128 -1.4243 -3.0005 -0.4339
 4007TIP3    H211986   5.571   2.851   5.147 -0.3311  1.3232  0.7991
 4008TIP3   OH211987   5.229   1.952   2.546  0.4178  0.0798  0.0992
 4008TIP3    H111988   5.314   1.972   2.586  1.3594 -2.0505 -0.7021
 4008TIP3    H211989   5.185   1.896   2.609  0.0862  0.2451  0.0144
 4009TIP3   OH211990   3.598   2.305   3.656  0.4343  0.0911  0.5808
 4009TIP3    H111991   3.584   2.221   3.700  1.0136 -0.6755 -0.6555
 4009TIP3    H211992   3.532   2.363   3.694 -0.8019 -1.2462  0.5553
 4010TIP3   OH211993   3.158   5.799   0.426  0.4251 -0.0778 -0.0140
 4010TIP3    H111994   3.208   5.825   0.504 -1.0761  0.1227  0.9294
 4010TIP3    H211995   3.176   5.706   0.416  0.7231 -0.0853  0.5187
 4011TIP3   OH211996   4.607   1.643   4.285  0.3652  0.1575  0.3925
 4011TIP3    H111997   4.548   1.702   4.330 -0.2773 -0.4259  0.3322
 4011TIP3    H211998   4.673   1.620   4.351  0.1410  0.2806  0.6617
 4012TIP3   OH211999   2.648   6.647   4.938  0.3550 -0.0839 -0.4894
 4012TIP3    H112000   2.669   6.710   4.869  0.4916 -0.0368 -0.4042
 4012TIP3    H212001   2.652   6.562   4.896  1.6855 -0.1629 -0.2495
 4013TIP3   OH212002   3.497   0.351   4.840 -0.4664 -0.8291  0.7434
 4013TIP3    H112003   3.584   0.361   4.878 -0.0163 -2.6989  0.3139
 4013TIP3    H212004   3.437   0.384   4.907  0.5165 -0.4711  1.4623
 4014TIP3   OH212005   5.953   2.992   3.614 -0.2628  0.5215 -0.1291
 4014TIP3    H112006   6.012   3.033   3.552  0.1817 -0.6034 -0.4740
 4014TIP3    H212007   5.875   3.048   3.614  0.2528  1.2533 -0.7050
 4015TIP3   OH212008   3.499   5.168   4.218 -0.1224 -0.3067 -0.0004
 4015TIP3    H112009   3.486   5.151   4.125 -1.2789  0.3976  0.0163
 4015TIP3    H212010   3.486   5.263   4.228  1.5795 -0.0950  0.6394
 4016TIP3   OH212011   1.814   2.326   4.307 -0.7013 -0.1764  0.1304
 4016TIP3    H112012   1.790   2.251   4.252 -1.0125  1.3922 -1.9837
 4016TIP3    H212013   1.732   2.354   4.347 -0.5281 -1.1333  1.1969
 4017TIP3   OH212014   3.369   5.147   1.274 -0.1261  0.1574 -0.1775
 4017TIP3    H112015   3.459   5.119   1.257  0.7049  3.2256 -1.4892
 4017TIP3    H212016   3.323   5.128   1.192  0.3100  1.9572 -0.8772
 4018TIP3   OH212017   6.047   2.247   3.987  0.5531 -0.2616  0.0385
 4018TIP3    H112018   6.032   2.227   4.079 -1.7719 -2.0412 -0.6378
 4018TIP3    H212019   5.966   2.221   3.943  0.5563  2.8985 -2.2189
 4019TIP3   OH212020   5.123   6.776   2.377 -0.1107  0.2770  0.0259
 4019TIP3    H112021   5.180   6.701   2.393 -0.2353 -0.0393 -0.9615
 4019TIP3    H212022   5.179   6.839   2.332 -0.3337  0.2740 -0.2589
 4020TIP3   OH212023   1.457   3.675   5.795 -0.3853 -0.6156  0.2970
 4020TIP3    H112024   1.389   3.740   5.813 -1.3130 -1.1807 -0.9588
 4020TIP3    H212025   1.490   3.697   5.708 -0.4576 -1.5799  0.0038
 4021TIP3   OH212026   5.857   5.933   4.918 -0.7525  0.4681 -0.0789
 4021TIP3    H112027   5.791   5.914   4.852  0.3154  0.2741 -1.1250
 4021TIP3    H212028   5.935   5.956   4.868  0.0392  0.4754  1.1183
 4022TIP3   OH212029   1.811   5.247   2.470 -0.1740 -0.0810  0.3811
 4022TIP3    H112030   1.809   5.339   2.444  0.4095 -0.3620 -0.7192
 4022TIP3    H212031   1.898   5.235   2.508 -0.3426 -0.1208  0.7561
 4023TIP3   OH212032   6.048   2.919   4.297  0.6113 -0.2737  0.1055
 4023TIP3    H112033   6.107   2.876   4.235  1.9530  1.1143  0.3636
 4023TIP3    H212034   6.003   2.986   4.245  0.8391  0.0826  0.3666
 4024TIP3   OH212035   3.720   2.874   1.193 -0.0976  0.1954 -0.1479
 4024TIP3    H112036   3.626   2.868   1.207 -0.0704  2.3840  1.6661
 4024TIP3    H212037   3.730   2.899   1.101 -1.2706 -0.2414 -0.4049
 4025TIP3   OH212038   3.693   6.757   2.728 -0.6422 -0.0857 -0.4845
 4025TIP3    H112039   3.731   6.670   2.729 -0.2666  0.0459 -1.5220
 4025TIP3    H212040   3.763   6.815   2.758 -0.4057  0.0188 -1.2222
 4026TIP3   OH212041   5.775   4.693   5.343  0.2176  0.2756  0.5747
 4026TIP3    H112042   5.840   4.623   5.353 -1.3824 -0.9992  2.7223
 4026TIP3    H212043   5.749   4.715   5.432 -1.6681  1.3672 -0.1952
 4027TIP3   OH212044   0.100   2.103   2.281  0.0626 -0.5803 -0.2261
 4027TIP3    H112045   0.031   2.051   2.240  1.2451 -1.9369 -0.5575
 4027TIP3    H212046   0.181   2.060   2.255  1.1147  1.5585 -0.6780
 4028TIP3   OH212047   6.532   0.174   1.293  0.4600 -0.0306 -0.0023
 4028TIP3    H112048   6.442   0.154   1.268  1.2918 -0.4885 -2.9893
 4028TIP3    H212049   6.530   0.266   1.321 -1.0157 -0.2512  0.6886
 4029TIP3   OH212050   0.907   3.255   2.229 -0.5645  0.0288 -0.7913
 4029TIP3    H112051   0.859   3.307   2.164  0.7791  1.1681 -0.9417
 4029TIP3    H212052   0.847   3.185   2.253 -2.3602  1.4849 -0.8102
 4030TIP3   OH212053   5.197   5.127   1.015  0.0373  0.4082  0.4075
 4030TIP3    H112054   5.189   5.221   1.002  0.9922  0.5414  0.7175
 4030TIP3    H212055   5.291   5.112   1.027 -0.1482 -0.5286  0.7792
 4031TIP3   OH212056   5.011   0.820   2.112  0.2100 -0.3033  0.2868
 4031TIP3    H112057   5.049   0.822   2.025 -0.5753 -1.9619 -0.1361
 4031TIP3    H212058   5.081   0.852   2.170  1.1149 -0.2529 -0.8106
 4032TIP3   OH212059   4.516   1.766   2.250 -0.2672 -0.5049  0.2600
 4032TIP3    H112060   4.433   1.719   2.239 -0.9828  1.0509 -1.5885
 4032TIP3    H212061   4.550   1.736   2.335 -2.0096 -2.2265  0.4178
 4033TIP3   OH212062   3.534   0.655   4.627 -0.0089  0.3460  0.3302
 4033TIP3    H112063   3.602   0.588   4.633  0.5309  0.6629 -1.5691
 4033TIP3    H212064   3.522   0.685   4.717  2.7507  0.6749  0.6806
 4034TIP3   OH212065   3.975   0.652   4.767 -0.5934  0.1175  0.0645
 4034TIP3    H112066   3.994   0.746   4.767 -2.0777  0.4613  1.8846
 4034TIP3    H212067   3.987   0.626   4.675  0.5199  1.9102 -0.3622
 4035TIP3   OH212068   6.360   0.119   3.298 -0.1191 -0.9390 -0.0340
 4035TIP3    H112069   6.325   0.160   3.219  1.4832 -2.3845 -1.5876
 4035TIP3    H212070   6.383   0.193   3.355  0.8453  0.2837 -1.8913
 4036TIP3   OH212071   0.065   3.634   3.850 -0.0954 -0.3285 -0.1917
 4036TIP3    H112072   0.060   3.718   3.895  0.7107  0.4735 -1.5243
 4036TIP3    H212073   0.067   3.569   3.920 -0.1337  0.7878  0.8774
 4037TIP3   OH212074   4.566   0.375   5.176  0.0864 -0.3161 -0.0189
 4037TIP3    H112075   4.657   0.392   5.197  0.7039 -0.8774 -2.0355
 4037TIP3    H212076   4.516   0.435   5.232  1.7344  0.9696  0.1286
 4038TIP3   OH212077   3.720   0.309   0.442 -0.3944 -0.5652 -0.1931
 4038TIP3    H112078   3.774   0.318   0.520 -0.1053 -0.5048 -0.3982
 4038TIP3    H212079   3.662   0.385   0.444 -0.6568 -0.7747  0.1701
 4039TIP3   OH212080   5.828   4.710   1.380 -0.2326  0.0576 -0.0860
 4039TIP3    H112081   5.909   4.678   1.421  1.4553  0.8100 -2.6016
 4039TIP3    H212082   5.780   4.630   1.356  1.0119 -0.4800 -0.8716
 4040TIP3   OH212083   3.246   6.508   1.542  0.1827 -0.1264  0.2302
 4040TIP3    H112084   3.340   6.497   1.561 -0.2452 -0.1530  2.6966
 4040TIP3    H212085   3.204   6.438   1.592 -1.1287 -0.9931 -1.9427
 4041TIP3   OH212086   5.806   1.987   1.642 -0.5783  0.0671  0.3663
 4041TIP3    H112087   5.851   2.000   1.558  0.2568 -2.2737  0.3783
 4041TIP3    H212088   5.816   2.072   1.687  1.0099  0.6534 -0.9540
 4042TIP3   OH212089   4.071   2.230   1.410  0.4559  0.4720  0.3386
 4042TIP3    H112090   4.160   2.246   1.380  1.4108  1.6412  3.4060
 4042TIP3    H212091   4.054   2.300   1.473 -2.1380 -0.5211  0.8678
 4043TIP3   OH212092   2.560   5.333   2.457  0.4356  0.4726  0.0338
 4043TIP3    H112093   2.570   5.409   2.513 -1.9717  0.7599  0.1796
 4043TIP3    H212094   2.475   5.345   2.414  0.7326 -1.3214 -1.2065
 4044TIP3   OH212095   0.182   2.088   3.914  0.1396  0.6161  0.5545
 4044TIP3    H112096   0.106   2.104   3.858  0.8158  1.7952 -0.0620
 4044TIP3    H212097   0.155   2.123   4.000  0.1936  1.6167  0.1812
 4045TIP3   OH212098   0.611   5.163   3.801  0.4556  0.0551  0.2134
 4045TIP3    H112099   0.601   5.084   3.747  2.9253  0.7565 -1.4248
 4045TIP3    H212100   0.687   5.145   3.856  0.0101  0.6740  1.0580
 4046TIP3   OH212101   1.104   4.712   3.250 -0.2876 -0.2951  0.0307
 4046TIP3    H112102   1.055   4.792   3.271 -0.2241 -0.6826  1.8193
 4046TIP3    H212103   1.036   4.647   3.230 -0.4911 -0.5286  1.3883
 4047TIP3   OH212104   7.204   4.721   1.125  0.0455 -0.4467 -0.2461
 4047TIP3    H112105   7.189   4.742   1.217  1.3575  0.1466 -0.1447
 4047TIP3    H212106   7.117   4.711   1.088 -0.5969  1.7961  0.4965
 4048TIP3   OH212107  -0.013   4.861   3.813  0.0965  0.3546 -0.1647
 4048TIP3    H112108   0.055   4.803   3.777 -0.6046 -0.3186 -0.4460
 4048TIP3    H212109   0.035   4.929   3.859  1.0174  0.9912 -1.9933
 4049TIP3   OH212110   6.446   4.426   1.486 -0.5930  0.0876 -1.3184
 4049TIP3    H112111   6.463   4.499   1.544 -1.4303 -0.3765 -0.4693
 4049TIP3    H212112   6.533   4.394   1.462 -0.1982 -0.6733  0.9117
 4050TIP3   OH212113   4.679   4.854   4.335 -0.2757  0.3649 -0.3412
 4050TIP3    H112114   4.629   4.776   4.313 -0.0290  0.9030 -3.2886
 4050TIP3    H212115   4.661   4.915   4.263  0.3852  2.6343  1.2867
 4051TIP3   OH212116   2.571   3.771   5.589  0.5474 -0.4693  0.1363
 4051TIP3    H112117   2.564   3.675   5.587  0.9530 -0.5309  1.0362
 4051TIP3    H212118   2.487   3.802   5.556 -0.3292 -1.1485  1.6254
 4052TIP3   OH212119   6.290   0.899   3.278 -0.7625  0.2902  0.0146
 4052TIP3    H112120   6.335   0.982   3.265  1.6403 -0.7390  1.0204
 4052TIP3    H212121   6.254   0.877   3.193  2.5344  0.2488 -1.5447
 4053TIP3   OH212122   4.105   3.116   0.131 -0.1666  0.8780 -0.0239
 4053TIP3    H112123   4.185   3.142   0.086  1.1087 -0.6186  1.2375
 4053TIP3    H212124   4.076   3.037   0.085 -0.8090  1.2848 -0.3324
 4054TIP3   OH212125   3.172   3.253   0.202 -0.2216  0.4555  0.0536
 4054TIP3    H112126   3.087   3.237   0.161  0.0941  0.6135 -0.6934
 4054TIP3    H212127   3.233   3.258   0.128  0.0045  3.1081  0.3210
 4055TIP3   OH212128   2.158   2.517   4.370  0.0023 -0.2330 -0.2338
 4055TIP3    H112129   2.119   2.513   4.283 -0.7125  2.8358 -0.1687
 4055TIP3    H212130   2.091   2.480   4.428 -1.3143  1.4740 -0.5774
 4056TIP3   OH212131   7.095   0.408   0.765 -0.1264  0.2074 -0.2546
 4056TIP3    H112132   7.060   0.399   0.676 -0.1066  0.9569 -0.3474
 4056TIP3    H212133   7.187   0.433   0.752  0.9823 -3.2295 -0.0327
 4057TIP3   OH212134   3.962   3.376   3.308 -0.1780 -0.1433 -0.3417
 4057TIP3    H112135   3.964   3.438   3.380  0.0234  0.8532 -1.1895
 4057TIP3    H212136   4.044   3.327   3.316 -0.1575 -0.0397  0.1034
 4058TIP3   OH212137   4.929   5.877   2.404 -0.2288  0.3176 -0.2486
 4058TIP3    H112138   4.980   5.957   2.407  1.2159 -0.5782  0.3281
 4058TIP3    H212139   4.951   5.831   2.485  0.0159 -1.2493 -1.1459
 4059TIP3   OH212140   4.637   6.604   4.594 -0.5002 -0.5234  0.2050
 4059TIP3    H112141   4.676   6.585   4.508 -0.7820 -1.9763  0.3735
 4059TIP3    H212142   4.712   6.629   4.648 -0.0140 -1.6374  0.0788
 4060TIP3   OH212143   1.214   3.475   5.819 -0.1041  0.2298 -0.9280
 4060TIP3    H112144   1.123   3.457   5.839  0.9917 -4.5391  1.1821
 4060TIP3    H212145   1.250   3.512   5.899  0.4741 -1.3604 -0.4158
 4061TIP3   OH212146   1.676   4.006   3.647 -0.0608 -0.3038 -0.1571
 4061TIP3    H112147   1.746   3.986   3.585 -0.4780 -0.9884 -0.4187
 4061TIP3    H212148   1.685   4.100   3.665  0.7340 -0.3285 -0.4137
 4062TIP3   OH212149   3.256   2.924   0.217 -0.6456  0.9502  0.2500
 4062TIP3    H112150   3.219   2.909   0.130 -0.7014  1.8067  0.1194
 4062TIP3    H212151   3.289   3.014   0.214 -0.2324  0.8294  0.9667
 4063TIP3   OH212152   1.942   3.278   3.032 -0.2224 -0.1013 -0.2757
 4063TIP3    H112153   1.947   3.191   3.072 -2.3720 -0.6352 -1.0478
 4063TIP3    H212154   1.849   3.302   3.038  0.3282  2.1942 -0.0217
 4064TIP3   OH212155   1.922   4.330   4.586  0.2899 -0.3287  0.2698
 4064TIP3    H112156   1.874   4.319   4.504  1.3824 -0.2213 -0.4054
 4064TIP3    H212157   1.917   4.425   4.603 -0.4589 -0.4290  0.6733
 4065TIP3   OH212158   5.946   0.187   4.983  0.2646  0.1154 -0.1612
 4065TIP3    H112159   5.955   0.263   4.926  3.3012 -1.3077 -1.8288
 4065TIP3    H212160   5.909   0.119   4.927  0.9274 -0.5992  0.2463
 4066TIP3   OH212161   3.614   2.725   4.696  0.1724 -0.2758  0.0777
 4066TIP3    H112162   3.553   2.698   4.766 -1.2268 -0.0963 -1.0259
 4066TIP3    H212163   3.685   2.769   4.742  0.1873 -1.7349  1.5420
 4067TIP3   OH212164   4.541   3.866   4.788 -0.1339 -0.1863 -0.3893
 4067TIP3    H112165   4.475   3.906   4.732 -0.4872 -0.5967 -0.2700
 4067TIP3    H212166   4.621   3.865   4.735  0.1871  1.6605 -0.0370
 4068TIP3   OH212167   3.452   2.806   1.156 -0.0166  0.5315  0.5812
 4068TIP3    H112168   3.443   2.822   1.062  0.7184  0.2651  0.4629
 4068TIP3    H212169   3.415   2.718   1.169  0.1700  0.4413  0.4938
 4069TIP3   OH212170   3.978   4.798   5.419  0.1581  0.1010  0.0705
 4069TIP3    H112171   3.884   4.802   5.438  0.4254 -1.0350  1.8986
 4069TIP3    H212172   3.985   4.741   5.342 -0.6653  0.7347 -0.4938
 4070TIP3   OH212173   5.456   5.679   5.526  0.0262 -0.2591 -0.0828
 4070TIP3    H112174   5.441   5.718   5.612 -0.1060 -0.0242 -0.2091
 4070TIP3    H212175   5.391   5.609   5.520 -0.4121  0.1483 -0.2492
 4071TIP3   OH212176   2.715   4.648   4.247 -0.3765  0.1906 -0.2606
 4071TIP3    H112177   2.765   4.580   4.293 -1.0591 -0.5870 -0.6357
 4071TIP3    H212178   2.724   4.726   4.302 -0.9307 -0.6380  1.0673
 4072TIP3   OH212179   6.959   0.862   4.086 -0.6443  0.3525  0.0310
 4072TIP3    H112180   6.890   0.910   4.039 -0.1916 -0.9657 -2.1084
 4072TIP3    H212181   7.037   0.918   4.077 -0.6369  0.2590 -0.5389
 4073TIP3   OH212182   3.206   5.288   3.269  0.3051  0.1355 -0.5126
 4073TIP3    H112183   3.243   5.201   3.284 -1.1996 -0.6900 -1.2637
 4073TIP3    H212184   3.268   5.331   3.210  1.6483  0.0360  0.7650
 4074TIP3   OH212185   5.785   0.349   0.509  0.2259  0.2597 -0.0239
 4074TIP3    H112186   5.873   0.386   0.512  0.2507  0.2945 -0.9340
 4074TIP3    H212187   5.732   0.410   0.560  0.7750  0.0793  0.7818
 4075TIP3   OH212188   1.304   0.251   2.012  0.1639  0.0571  0.4774
 4075TIP3    H112189   1.333   0.298   2.090  1.9515  0.4572 -0.3857
 4075TIP3    H212190   1.384   0.213   1.976 -0.6754 -0.3482 -1.0162
 4076TIP3   OH212191   0.701   5.065   2.420 -0.3361  0.1818  0.4847
 4076TIP3    H112192   0.618   5.066   2.467 -0.3557 -0.7830  0.5053
 4076TIP3    H212193   0.676   5.065   2.328 -0.3940 -0.6415  0.4878
 4077TIP3   OH212194   4.456   4.630   5.463  0.1455  0.0496  0.4065
 4077TIP3    H112195   4.525   4.588   5.413 -0.1630  1.6827 -1.5489
 4077TIP3    H212196   4.375   4.594   5.426 -0.0694  0.0510  0.8797
 4078TIP3   OH212197   2.994   2.405   4.624  0.0352 -0.0436  0.2666
 4078TIP3    H112198   2.991   2.309   4.622 -0.3298 -0.0322  0.2720
 4078TIP3    H212199   3.085   2.426   4.603 -0.2297 -0.3485 -1.2670
 4079TIP3   OH212200   0.988   2.692   5.634 -0.0265  0.0616 -0.4740
 4079TIP3    H112201   1.050   2.763   5.656 -0.2804  0.4191 -0.8933
 4079TIP3    H212202   1.008   2.623   5.696  0.1913  0.5282 -0.0160
 4080TIP3   OH212203   3.062   4.146   0.420  0.0369 -0.0083 -0.1461
 4080TIP3    H112204   2.975   4.139   0.380 -0.5993  1.1361  0.9361
 4080TIP3    H212205   3.106   4.216   0.371 -0.6375  1.1949  0.8792
 4081TIP3   OH212206   0.014   1.792   0.433  0.3537 -0.1939 -0.7810
 4081TIP3    H112207   0.085   1.730   0.447  0.4016 -0.7049 -3.0057
 4081TIP3    H212208  -0.060   1.756   0.482  1.3221 -0.1145  0.8231
 4082TIP3   OH212209   3.157   6.356   1.727 -0.1204 -0.2887 -0.0221
 4082TIP3    H112210   3.209   6.369   1.806 -0.0231  1.4647 -0.3408
 4082TIP3    H212211   3.129   6.264   1.731 -0.4327 -0.1319  2.2319
 4083TIP3   OH212212   5.007   5.841   0.287 -0.2935  0.1498  0.5530
 4083TIP3    H112213   4.973   5.912   0.341  1.0416  0.2101  1.3541
 4083TIP3    H212214   5.050   5.782   0.349 -0.0963 -0.5974 -0.2694
 4084TIP3   OH212215   0.244   6.438   0.910 -0.0033  0.0207  0.2777
 4084TIP3    H112216   0.326   6.390   0.920  1.6412  1.9767 -2.3420
 4084TIP3    H212217   0.175   6.373   0.924  2.0435 -2.6050 -1.0059
 4085TIP3   OH212218   3.537   2.408   1.104  0.0444  0.3950  0.2249
 4085TIP3    H112219   3.467   2.421   1.040  0.6818 -1.0081 -0.8117
 4085TIP3    H212220   3.496   2.355   1.173  0.7517 -3.4440 -1.9765
 4086TIP3   OH212221   4.260   4.857   3.870 -0.0407  0.2275  0.1044
 4086TIP3    H112222   4.273   4.813   3.954  0.5148 -1.1548 -0.6736
 4086TIP3    H212223   4.319   4.811   3.810 -0.0628  1.5176 -0.9328
 4087TIP3   OH212224   4.464   1.670   0.114  0.0258  0.1303  0.1155
 4087TIP3    H112225   4.550   1.713   0.119  0.4271 -0.6826  0.3057
 4087TIP3    H212226   4.410   1.718   0.177  0.9396 -0.6608  1.5567
 4088TIP3   OH212227   6.530   6.049   2.156 -0.2441 -0.0650  0.1345
 4088TIP3    H112228   6.477   5.985   2.203 -1.0367 -0.2959 -1.0202
 4088TIP3    H212229   6.598   5.996   2.113 -1.5929 -0.3618 -1.7862
 4089TIP3   OH212230   5.187   3.932   0.568  0.2858  0.0243  0.0994
 4089TIP3    H112231   5.142   3.997   0.514  0.0309 -0.3453 -0.1374
 4089TIP3    H212232   5.117   3.873   0.597  0.7492 -1.2008 -1.1653
 4090TIP3   OH212233   6.218   1.413   3.236  0.2670  0.3795  0.2844
 4090TIP3    H112234   6.204   1.401   3.329 -1.3465 -1.3218 -0.1312
 4090TIP3    H212235   6.313   1.426   3.227  0.3740  1.0952  2.1781
 4091TIP3   OH212236   6.215   3.543   4.584 -0.1930  0.2519  0.6748
 4091TIP3    H112237   6.177   3.585   4.507 -1.0549  0.2380  1.0822
 4091TIP3    H212238   6.211   3.449   4.565 -0.4245  0.2474  0.7440
 4092TIP3   OH212239   3.492   5.975   3.436  0.1287 -0.0903 -0.2407
 4092TIP3    H112240   3.475   5.969   3.342 -0.2050 -1.5770 -0.1151
 4092TIP3    H212241   3.462   6.062   3.461 -0.4091  0.0706 -1.3964
 4093TIP3   OH212242   2.297   0.497   4.832 -0.3165 -0.3167 -0.1895
 4093TIP3    H112243   2.256   0.527   4.913  0.9711  0.5931  0.1610
 4093TIP3    H212244   2.240   0.427   4.801 -1.6784  0.3470  0.6870
 4094TIP3   OH212245   1.881   0.535   2.675 -0.1418 -0.2270  0.8504
 4094TIP3    H112246   1.900   0.528   2.581 -0.1971 -1.5410  0.9098
 4094TIP3    H212247   1.795   0.577   2.679  0.2636  0.6735  0.3551
 4095TIP3   OH212248   2.169   5.709   4.882  0.7289 -0.0248  0.0101
 4095TIP3    H112249   2.119   5.667   4.953  0.6821  1.4999  0.9321
 4095TIP3    H212250   2.119   5.689   4.803  0.5204 -1.3682  0.4471
 4096TIP3   OH212251   2.235   5.283   5.851  0.0857  0.4973 -0.5829
 4096TIP3    H112252   2.185   5.208   5.883  0.3258  0.6743  0.2498
 4096TIP3    H212253   2.257   5.332   5.930 -0.1235  1.4874 -1.1234
 4097TIP3   OH212254   1.088   3.910   1.312 -0.4714 -0.4146  0.0798
 4097TIP3    H112255   1.182   3.896   1.311 -0.6087 -1.5241  0.5280
 4097TIP3    H212256   1.063   3.913   1.219  0.2707  2.1659 -0.0970
 4098TIP3   OH212257   0.046   3.886   1.048 -0.3989  0.5056  0.3770
 4098TIP3    H112258   0.095   3.822   0.997  1.2031  0.2659  2.0724
 4098TIP3    H212259   0.112   3.952   1.073 -1.1373  0.7301  1.8869
 4099TIP3   OH212260   2.697   2.177   4.152  0.2702  0.1670  0.1527
 4099TIP3    H112261   2.783   2.189   4.113  1.0028  2.1885  2.1788
 4099TIP3    H212262   2.714   2.145   4.240 -1.1370 -0.5979  0.1876
 4100TIP3   OH212263   0.598   2.993   4.656  0.6301  0.1062  0.1358
 4100TIP3    H112264   0.683   3.034   4.672  0.9802 -1.0558  1.5212
 4100TIP3    H212265   0.612   2.939   4.578  1.8590 -1.7377  1.5275
 4101TIP3   OH212266   3.964   4.722   3.887  0.5533  0.1197 -0.1634
 4101TIP3    H112267   4.029   4.768   3.939  1.6677  3.1377 -3.7433
 4101TIP3    H212268   4.013   4.688   3.812 -1.1103 -2.9736 -0.0227
 4102TIP3   OH212269   3.770   3.369   2.191  0.0611 -0.2797 -0.1548
 4102TIP3    H112270   3.825   3.368   2.112 -0.0137  0.7215 -0.2336
 4102TIP3    H212271   3.833   3.357   2.263  0.4232  0.9330 -0.2394
 4103TIP3   OH212272   2.616   2.435   0.355  0.4558  0.3322  0.5511
 4103TIP3    H112273   2.636   2.511   0.409  2.0576  0.3518  0.0022
 4103TIP3    H212274   2.572   2.470   0.278  1.1610  0.7353  0.3167
 4104TIP3   OH212275   3.811   4.753   2.594  0.0471  0.1110  0.2685
 4104TIP3    H112276   3.834   4.689   2.662  0.4244 -0.4936 -0.4149
 4104TIP3    H212277   3.724   4.782   2.618 -1.1672 -2.4326 -0.6887
 4105TIP3   OH212278   2.351   3.914   1.238  0.1792 -0.3951 -0.4785
 4105TIP3    H112279   2.271   3.965   1.237 -0.7677 -1.8204 -1.2433
 4105TIP3    H212280   2.323   3.824   1.220  2.0155 -0.8297 -1.4821
 4106TIP3   OH212281   6.819   3.558   0.460 -0.2225 -0.4509 -0.1763
 4106TIP3    H112282   6.814   3.510   0.543 -0.5836 -0.3408 -0.1325
 4106TIP3    H212283   6.819   3.489   0.393 -1.7598 -0.5024 -0.1548
 4107TIP3   OH212284   2.508   5.551   1.881  0.1817  0.1287 -0.2225
 4107TIP3    H112285   2.550   5.465   1.885  0.4258  0.3054  1.4403
 4107TIP3    H212286   2.420   5.536   1.916  0.2453  0.5550  0.1309
 4108TIP3   OH212287   0.227   6.076   1.453 -0.3738 -0.0238  0.1250
 4108TIP3    H112288   0.313   6.078   1.494  0.6804  1.8741 -2.0059
 4108TIP3    H212289   0.178   6.147   1.495  0.4063  1.3383 -1.1892
 4109TIP3   OH212290   0.845   5.165   5.056  0.2585 -0.2162 -0.2593
 4109TIP3    H112291   0.858   5.237   5.118 -1.8934  0.4103 -0.4249
 4109TIP3    H212292   0.816   5.092   5.111 -1.6423  0.3371 -0.4551
 4110TIP3   OH212293   1.844   4.426   0.552  0.6563  0.6206  0.1954
 4110TIP3    H112294   1.804   4.410   0.637  0.8922 -1.1091  0.0099
 4110TIP3    H212295   1.853   4.339   0.512  0.2064  1.4056 -1.7598
 4111TIP3   OH212296   2.031   0.908   1.203 -0.1621  0.2758 -0.0775
 4111TIP3    H112297   1.979   0.857   1.265 -1.3494  0.1557 -1.1374
 4111TIP3    H212298   1.986   0.993   1.199  0.9313  0.9117  0.5375
 4112TIP3   OH212299   6.071   0.229   5.202 -0.3462 -0.2835 -0.5887
 4112TIP3    H112300   6.069   0.150   5.257 -0.5026  0.1058 -0.0207
 4112TIP3    H212301   6.026   0.204   5.122  0.3881 -1.0408 -0.7874
 4113TIP3   OH212302   2.890   4.607   5.151  0.5704  0.2906  0.1696
 4113TIP3    H112303   2.891   4.679   5.087 -2.7336 -2.0986 -2.9663
 4113TIP3    H212304   2.983   4.587   5.164  1.6492  4.6457  0.8640
 4114TIP3   OH212305   6.412   4.972   4.134  0.2864  0.1125 -0.0278
 4114TIP3    H112306   6.385   4.927   4.214 -0.1725  1.7862  0.7785
 4114TIP3    H212307   6.508   4.968   4.136  0.2552 -0.8204  0.0209
 4115TIP3   OH212308   7.140   2.310   3.987  0.1551 -0.2080  0.0148
 4115TIP3    H112309   7.167   2.234   4.038  0.2002 -0.1489  0.0791
 4115TIP3    H212310   7.089   2.273   3.915  2.4521 -0.5924 -1.5562
 4116TIP3   OH212311   3.641   4.108   4.583  0.5515 -0.4850  0.6933
 4116TIP3    H112312   3.607   4.081   4.499  2.2998  0.0550 -0.2459
 4116TIP3    H212313   3.585   4.181   4.610  0.8690  0.3290 -0.7541
 4117TIP3   OH212314   3.918   1.434   5.406  0.1904  0.4147  0.3617
 4117TIP3    H112315   3.963   1.354   5.434 -0.1853 -0.6540 -1.9023
 4117TIP3    H212316   3.987   1.499   5.398  1.0900 -0.6774 -1.1782
 4118TIP3   OH212317   4.912   2.568   4.519 -0.1081  0.0072  0.1598
 4118TIP3    H112318   4.860   2.494   4.551  0.8866 -0.0949  1.6625
 4118TIP3    H212319   5.001   2.532   4.509  0.0235  0.5757 -0.7588
 4119TIP3   OH212320   0.782   0.251   0.231  0.2580  1.3740 -0.3291
 4119TIP3    H112321   0.727   0.233   0.154 -1.0582  1.8762  0.4713
 4119TIP3    H212322   0.721   0.256   0.304  1.6420 -0.6869  1.0551
 4120TIP3   OH212323   4.301   3.300   1.071 -0.6418 -0.7830  0.1475
 4120TIP3    H112324   4.394   3.290   1.092 -0.4781 -1.9421 -0.9676
 4120TIP3    H212325   4.300   3.327   0.979 -1.3963  0.1908  0.4324
 4121TIP3   OH212326   2.318   1.070   4.005 -0.0573 -0.3436  0.0810
 4121TIP3    H112327   2.243   1.088   4.062  0.2378 -0.6248  0.5660
 4121TIP3    H212328   2.289   0.998   3.949 -0.3677 -0.0304 -0.1657
 4122TIP3   OH212329   5.771   0.775   4.749  0.2628 -0.3652 -0.6124
 4122TIP3    H112330   5.740   0.699   4.699  0.3558  0.6568 -2.2904
 4122TIP3    H212331   5.747   0.755   4.840  0.3340 -2.4124 -0.9963
 4123TIP3   OH212332   3.093   0.489   5.507 -0.3722 -0.5445 -0.0227
 4123TIP3    H112333   3.178   0.478   5.550 -1.1718 -0.8903  1.5578
 4123TIP3    H212334   3.081   0.583   5.500 -0.2519 -0.4770  0.6088
 4124TIP3   OH212335   6.862   0.166   1.215  0.3826 -0.3865 -0.1416
 4124TIP3    H112336   6.780   0.180   1.168 -0.6568 -0.4629  1.5504
 4124TIP3    H212337   6.865   0.072   1.231 -0.6496 -0.1110  2.1460
 4125TIP3   OH212338   1.327   0.704   0.915  0.5908  0.2177  0.4879
 4125TIP3    H112339   1.266   0.714   0.842  0.5847  1.1668  0.6076
 4125TIP3    H212340   1.413   0.700   0.875  0.4851 -0.7329  0.3428
 4126TIP3   OH212341   5.245   5.808   1.164  0.7325 -0.5018  0.5611
 4126TIP3    H112342   5.254   5.713   1.157 -0.3886 -0.6300  0.6914
 4126TIP3    H212343   5.157   5.821   1.199 -0.3724  0.6807 -2.3502
 4127TIP3   OH212344   4.723   6.762   2.206 -0.1828  0.2761  0.0683
 4127TIP3    H112345   4.717   6.771   2.301 -0.8637  0.6833 -0.0036
 4127TIP3    H212346   4.771   6.840   2.178  2.2012 -1.0428  0.2824
 4128TIP3   OH212347   1.194   0.418   3.717  0.1431 -0.6166  0.4365
 4128TIP3    H112348   1.144   0.360   3.660 -0.9537  2.1613 -1.6572
 4128TIP3    H212349   1.273   0.368   3.737 -1.2196 -3.2506 -0.2064
 4129TIP3   OH212350   4.124   2.095   2.174 -0.3506  0.0541  0.1609
 4129TIP3    H112351   4.186   2.156   2.134  1.0064 -0.2905  1.6343
 4129TIP3    H212352   4.105   2.133   2.260 -0.5081 -0.9229  0.5747
 4130TIP3   OH212353   4.523   2.981   4.781  0.0071  0.3662  0.5390
 4130TIP3    H112354   4.546   3.068   4.748  2.4607 -0.2806  0.3748
 4130TIP3    H212355   4.522   2.925   4.703 -0.9058  0.0866  0.7334
 4131TIP3   OH212356   4.067   4.907   0.959 -0.2720 -0.2066  0.2964
 4131TIP3    H112357   4.141   4.885   0.901 -0.3508 -1.6795  0.7122
 4131TIP3    H212358   3.989   4.886   0.907 -0.4273  1.0024 -0.0056
 4132TIP3   OH212359   4.312   2.032   3.393  0.4467 -0.2055 -0.2211
 4132TIP3    H112360   4.339   2.034   3.301  0.6679 -0.4367 -0.1632
 4132TIP3    H212361   4.367   1.964   3.432 -0.0046 -0.4604 -0.0287
 4133TIP3   OH212362   1.225   1.913   0.841  0.4274  0.5634  0.2741
 4133TIP3    H112363   1.214   1.934   0.748  0.4053  1.3269  0.4402
 4133TIP3    H212364   1.232   1.818   0.844  0.6852  0.5548 -0.5347
 4134TIP3   OH212365   3.076   5.897   3.784 -0.5693 -0.0414  0.1821
 4134TIP3    H112366   3.089   5.960   3.712 -0.9941 -0.7602 -0.5450
 4134TIP3    H212367   3.160   5.854   3.793 -0.7338 -0.5278 -0.4702
 4135TIP3   OH212368   2.273   0.317   2.213 -0.3128  0.3502  0.0189
 4135TIP3    H112369   2.362   0.310   2.248  0.0578  3.3157 -0.0378
 4135TIP3    H212370   2.277   0.392   2.153 -2.3680 -0.8144 -1.7288
 4136TIP3   OH212371   0.512   2.560   0.870  0.2710  0.0915 -0.1108
 4136TIP3    H112372   0.458   2.624   0.917  2.6686  3.1775 -1.1624
 4136TIP3    H212373   0.467   2.547   0.786 -0.7007 -0.3501  0.4633
 4137TIP3   OH212374   6.998   3.182   5.534  0.3948  0.4072 -0.2730
 4137TIP3    H112375   6.939   3.177   5.460 -1.5024  1.6507  1.0689
 4137TIP3    H212376   7.001   3.093   5.569 -1.5198  0.5014  0.2146
 4138TIP3   OH212377   2.007   5.654   4.671  0.0296  0.4071  0.3138
 4138TIP3    H112378   1.963   5.610   4.744 -0.0469  0.3076  0.2074
 4138TIP3    H212379   1.936   5.678   4.611  0.3145 -2.0599 -1.1384
 4139TIP3   OH212380   2.324   0.418   4.324 -0.4547  1.0509 -0.0872
 4139TIP3    H112381   2.263   0.492   4.318 -1.1155  0.8115  2.4077
 4139TIP3    H212382   2.389   0.446   4.388  0.1529  0.0477 -0.2504
 4140TIP3   OH212383   4.755   5.161   4.072  0.3580 -0.3641 -0.2999
 4140TIP3    H112384   4.687   5.098   4.097 -0.2331  0.7128  0.9477
 4140TIP3    H212385   4.836   5.111   4.072 -0.2573 -1.3755 -0.4535
 4141TIP3   OH212386   6.495   0.030   2.358  0.4678 -0.3145 -0.5870
 4141TIP3    H112387   6.450   0.023   2.442  0.1067 -1.6649 -0.8839
 4141TIP3    H212388   6.572   0.085   2.377  0.3725 -0.5780  0.6154
 4142TIP3   OH212389   4.999   0.974   0.356  0.1419  0.7558  0.1624
 4142TIP3    H112390   5.005   0.922   0.436 -0.5718  0.8502  0.2792
 4142TIP3    H212391   5.055   1.050   0.373  0.4942  0.4627  0.3256
 4143TIP3   OH212392   6.580   0.039   1.537  0.3511  0.3327 -0.4596
 4143TIP3    H112393   6.567   0.080   1.451  0.4365 -0.9809 -1.1350
 4143TIP3    H212394   6.675   0.041   1.550  0.5032 -0.8735 -1.1653
 4144TIP3   OH212395   4.273   5.590   4.535 -0.1024 -0.1888 -0.2550
 4144TIP3    H112396   4.368   5.580   4.542 -0.2814 -1.4766  0.7049
 4144TIP3    H212397   4.250   5.655   4.601  0.0355 -0.3833 -0.0175
 4145TIP3   OH212398   6.207   4.682   2.886 -0.6462  0.4795 -0.3853
 4145TIP3    H112399   6.234   4.672   2.795 -0.2257 -1.2133 -0.0996
 4145TIP3    H212400   6.119   4.644   2.890 -0.1178 -0.7320  0.1736
 4146TIP3   OH212401   5.951   5.013   2.076 -0.1606 -0.3065  0.2860
 4146TIP3    H112402   5.965   5.074   2.149  0.5975 -0.4051  0.2414
 4146TIP3    H212403   6.031   5.021   2.023  0.3352 -1.9070  0.7193
 4147TIP3   OH212404   5.884   2.150   3.502 -0.8700 -0.3889 -0.1433
 4147TIP3    H112405   5.907   2.243   3.511 -1.4288 -0.0633 -1.7541
 4147TIP3    H212406   5.913   2.126   3.414 -1.5153 -1.5110 -0.0694
 4148TIP3   OH212407   4.088   6.250   3.336  0.6274 -0.1833 -0.3036
 4148TIP3    H112408   4.069   6.169   3.384 -1.2744  0.7232  0.5537
 4148TIP3    H212409   4.060   6.320   3.395  0.1836  1.0366 -1.9093
 4149TIP3   OH212410   4.925   1.127   1.261 -0.0690  0.2339 -0.6310
 4149TIP3    H112411   4.986   1.175   1.316  0.2804 -2.7899  1.9200
 4149TIP3    H212412   4.936   1.035   1.287 -3.1331 -0.8654 -2.6080
 4150TIP3   OH212413   6.079   5.197   2.263 -0.0501  0.3016  0.4942
 4150TIP3    H112414   6.116   5.113   2.290  0.5872  0.5161  0.2965
 4150TIP3    H212415   6.155   5.254   2.251 -0.4140  0.6310 -0.3144
 4151TIP3   OH212416   4.073   2.856   5.398  0.0738 -0.4055 -0.0557
 4151TIP3    H112417   3.992   2.806   5.397  0.7200 -1.5197  0.7571
 4151TIP3    H212418   4.116   2.830   5.480 -0.2247  2.5962  1.1740
 4152TIP3   OH212419   6.221   2.920   4.666 -0.2456 -0.1014  0.0826
 4152TIP3    H112420   6.166   2.999   4.669  1.1677  0.9988 -1.2443
 4152TIP3    H212421   6.228   2.893   4.757 -1.1856  1.0091  0.5212
 4153TIP3   OH212422   0.721   0.575   1.241 -0.2317  0.0162  0.3966
 4153TIP3    H112423   0.669   0.644   1.284 -2.4854 -1.7611  0.6760
 4153TIP3    H212424   0.659   0.531   1.183  1.8179 -0.1453 -1.7940
 4154TIP3   OH212425   1.720   3.924   1.771  0.0996  0.0742  0.4484
 4154TIP3    H112426   1.796   3.976   1.744 -0.0420  0.3105  0.4962
 4154TIP3    H212427   1.696   3.960   1.856  0.7905 -0.9350  1.0915
 4155TIP3   OH212428   1.504   0.784   0.573 -0.2322  0.6052 -0.0060
 4155TIP3    H112429   1.409   0.783   0.572 -0.2671  0.9906  1.1894
 4155TIP3    H212430   1.528   0.733   0.651  0.5541  0.1630 -0.5204
 4156TIP3   OH212431   2.808   2.603   2.142 -0.4584 -0.4300  0.0836
 4156TIP3    H112432   2.765   2.554   2.072 -1.0252  0.6267 -0.3398
 4156TIP3    H212433   2.786   2.694   2.123  0.9200  0.0255  0.6017
 4157TIP3   OH212434   5.354   1.015   2.976  0.2064 -0.0397  0.1411
 4157TIP3    H112435   5.368   1.078   3.046 -2.7874  1.2660 -0.2918
 4157TIP3    H212436   5.423   0.950   2.988  0.6645  0.8951  3.3763
 4158TIP3   OH212437   3.319   6.316   5.250 -0.0928  0.7828  0.4808
 4158TIP3    H112438   3.257   6.248   5.276  1.4771 -0.0630  2.2148
 4158TIP3    H212439   3.346   6.356   5.332  0.7685  1.9335 -0.3365
 4159TIP3   OH212440   6.019   4.730   1.169  0.1551 -0.0979 -0.2853
 4159TIP3    H112441   5.942   4.674   1.167 -1.8099  2.3429  0.8934
 4159TIP3    H212442   6.070   4.699   1.243 -0.8797 -0.3602  0.3325
 4160TIP3   OH212443   5.119   3.302   4.959 -0.5172  1.1436  0.2872
 4160TIP3    H112444   5.062   3.235   4.996 -1.3450  0.6482 -1.7328
 4160TIP3    H212445   5.092   3.383   5.001 -2.1734  0.7881 -0.0258
 4161TIP3   OH212446   2.828   5.375   5.144  0.0267 -0.1475 -0.4599
 4161TIP3    H112447   2.809   5.460   5.105 -1.2339  0.9945  2.3466
 4161TIP3    H212448   2.744   5.346   5.180  0.9369 -1.3928  0.7759
 4162TIP3   OH212449   0.780   3.329   1.434 -0.0365 -0.2212  0.4101
 4162TIP3    H112450   0.746   3.310   1.347 -0.2959 -1.0895  0.6907
 4162TIP3    H212451   0.730   3.271   1.493  1.0296 -0.5901  0.9801
 4163TIP3   OH212452   4.066   5.447   0.796  0.1033 -0.0197  0.6776
 4163TIP3    H112453   3.978   5.471   0.767  0.3239  0.2908  0.2639
 4163TIP3    H212454   4.058   5.355   0.821  0.1154 -0.6253 -1.3256
 4164TIP3   OH212455   7.232   3.730   4.140 -0.3793  0.5635  0.1289
 4164TIP3    H112456   7.190   3.657   4.185 -0.4795  1.0640  0.8519
 4164TIP3    H212457   7.206   3.808   4.189  0.3141  1.0168 -0.1980
 4165TIP3   OH212458   6.404   3.602   4.041 -0.0153 -0.4214 -0.3157
 4165TIP3    H112459   6.449   3.687   4.044 -0.4911 -0.1967  1.2286
 4165TIP3    H212460   6.413   3.567   4.129 -0.3949 -1.6888 -0.7658
 4166TIP3   OH212461   5.089   5.208   3.564 -0.1903 -0.0574 -0.2681
 4166TIP3    H112462   5.122   5.155   3.636  0.8047 -0.2504 -0.8479
 4166TIP3    H212463   5.120   5.163   3.485 -0.6647  0.5374 -0.8057
 4167TIP3   OH212464   5.544   5.678   2.033 -0.5476 -0.0504  0.1817
 4167TIP3    H112465   5.592   5.596   2.019 -1.2362 -0.6868  1.4455
 4167TIP3    H212466   5.566   5.703   2.122  1.1788  2.1971 -0.7753
 4168TIP3   OH212467   1.685   3.794   0.903  0.3513 -0.3275 -0.3878
 4168TIP3    H112468   1.677   3.875   0.952 -0.6148  1.0395 -2.6216
 4168TIP3    H212469   1.780   3.781   0.893  0.5243  0.8474 -0.4342
 4169TIP3   OH212470   6.697   2.219   5.576 -0.3687 -0.1961 -0.2837
 4169TIP3    H112471   6.766   2.256   5.522 -1.5026  0.1240 -1.5687
 4169TIP3    H212472   6.698   2.125   5.556 -1.0886 -0.0127 -1.2544
 4170TIP3   OH212473   2.829   2.244   5.513  0.2110 -0.2704  0.3187
 4170TIP3    H112474   2.906   2.299   5.496 -0.9508  1.9130  1.7165
 4170TIP3    H212475   2.812   2.254   5.606 -1.9961 -0.3888 -0.0208
 4171TIP3   OH212476   1.895   5.254   4.441  1.0888 -0.3322 -0.5352
 4171TIP3    H112477   1.921   5.300   4.521  2.1000 -1.4347 -0.2014
 4171TIP3    H212478   1.812   5.213   4.464  1.9026 -1.5711  0.3724
 4172TIP3   OH212479   1.045   5.488   1.344  0.0238 -0.5049  0.1791
 4172TIP3    H112480   1.112   5.550   1.317 -0.3705 -1.0904 -2.3899
 4172TIP3    H212481   1.002   5.530   1.418 -2.0922  3.7950 -3.0661
 4173TIP3   OH212482   7.223   1.332   1.163  0.2336  0.4198 -0.1490
 4173TIP3    H112483   7.246   1.371   1.247  2.9296  1.3388 -1.2198
 4173TIP3    H212484   7.147   1.277   1.183  1.8443 -0.8613  3.2706
 4174TIP3   OH212485   6.117   2.258   4.948  0.0500 -0.0790  0.4958
 4174TIP3    H112486   6.096   2.344   4.913 -0.7264 -0.5742 -0.2933
 4174TIP3    H212487   6.042   2.203   4.924  2.1156 -1.9272 -2.3974
 4175TIP3   OH212488   2.153   0.546   5.048  0.1748  0.8249 -0.0723
 4175TIP3    H112489   2.203   0.607   5.102 -0.7492  1.1950  0.3758
 4175TIP3    H212490   2.088   0.508   5.107 -0.6356  0.9868 -0.8317
 4176TIP3   OH212491   6.913   3.479   1.965  0.0553 -0.4486  0.4226
 4176TIP3    H112492   6.878   3.567   1.954  2.5602  0.5678 -0.1776
 4176TIP3    H212493   6.942   3.476   2.056  0.1163 -0.6121  0.3981
 4177TIP3   OH212494   3.460   6.748   4.874  0.8328  0.1298 -0.2482
 4177TIP3    H112495   3.513   6.669   4.884  0.9168  0.3109  0.8497
 4177TIP3    H212496   3.472   6.774   4.783 -0.5730 -2.0988 -1.1591
 4178TIP3   OH212497   2.273   5.947   5.198  0.6728  0.0235  0.0977
 4178TIP3    H112498   2.197   5.948   5.255  0.8929  0.1937  0.3897
 4178TIP3    H212499   2.237   5.954   5.109  0.3591  0.2267  0.2404
 4179TIP3   OH212500   4.476   3.651   1.523  0.2251 -0.3415  0.2506
 4179TIP3    H112501   4.512   3.724   1.473 -4.2996  2.6465  0.7525
 4179TIP3    H212502   4.476   3.578   1.461  2.4320  0.7894 -1.2275
 4180TIP3   OH212503   4.799   4.368   1.279  0.1944 -0.0630 -0.2257
 4180TIP3    H112504   4.719   4.388   1.230  0.6802 -1.5336 -1.7038
 4180TIP3    H212505   4.770   4.306   1.346 -0.0715  0.1246 -0.1644
 4181TIP3   OH212506   1.551   3.868   4.283  0.4257  0.2094 -0.2651
 4181TIP3    H112507   1.489   3.838   4.216 -1.5435  1.3523  0.9665
 4181TIP3    H212508   1.609   3.928   4.236  0.3834 -0.5552 -1.3535
 4182TIP3   OH212509   4.121   1.862   3.197 -0.2893  0.1420 -0.1812
 4182TIP3    H112510   4.204   1.860   3.245 -0.2655  0.4321 -0.2119
 4182TIP3    H212511   4.123   1.784   3.141 -0.3068 -0.1909  0.2712
 4183TIP3   OH212512   3.230   1.450   0.883 -0.2550 -0.3167  0.9700
 4183TIP3    H112513   3.210   1.360   0.907 -0.0472 -1.1660 -1.6711
 4183TIP3    H212514   3.149   1.483   0.844  0.4104 -0.3175 -0.4980
 4184TIP3   OH212515   5.890   1.342   0.722  0.9322  0.1459  0.2477
 4184TIP3    H112516   5.915   1.419   0.671  1.9316 -0.4976 -0.2619
 4184TIP3    H212517   5.969   1.320   0.772  0.1192  0.4846  1.7463
 4185TIP3   OH212518   5.066   3.006   5.858  0.1824 -0.1812  0.0971
 4185TIP3    H112519   5.041   3.062   5.784 -0.8108 -0.5932  0.1083
 4185TIP3    H212520   5.042   3.055   5.936 -1.3926 -0.8922  0.1033
 4186TIP3   OH212521   1.608   1.258   2.025  0.3571 -0.2055 -0.1870
 4186TIP3    H112522   1.605   1.349   1.994  0.1418  0.0116  0.4616
 4186TIP3    H212523   1.688   1.222   1.984  2.0554  1.1173  1.7619
 4187TIP3   OH212524   1.846   3.917   4.800  0.3674 -0.0541 -0.1049
 4187TIP3    H112525   1.892   3.958   4.874 -0.1955  0.4869 -0.0431
 4187TIP3    H212526   1.893   3.947   4.723 -1.1331  2.3394 -0.2209
 4188TIP3   OH212527   4.526   1.275   4.917 -0.3648 -0.5180 -0.2937
 4188TIP3    H112528   4.468   1.202   4.896 -0.7651 -0.2006 -0.2825
 4188TIP3    H212529   4.588   1.238   4.980  0.3825 -1.2685 -1.4229
 4189TIP3   OH212530   5.911   6.509   3.589 -0.1716  0.2092 -0.0027
 4189TIP3    H112531   5.951   6.488   3.505 -1.8970 -0.3742 -0.7022
 4189TIP3    H212532   5.946   6.444   3.649 -0.7035 -0.8262 -0.7939
 4190TIP3   OH212533   1.347   3.725   3.322 -0.4625  0.2042 -0.2118
 4190TIP3    H112534   1.359   3.632   3.339 -1.8564  0.1161  0.4664
 4190TIP3    H212535   1.432   3.756   3.292  0.2011 -1.1471  0.2217
 4191TIP3   OH212536   4.340   3.031   1.688  0.3127  0.0651  0.1166
 4191TIP3    H112537   4.414   3.080   1.723  0.3478  0.0865  0.0135
 4191TIP3    H212538   4.357   2.940   1.713  1.0499 -0.1342 -1.0422
 4192TIP3   OH212539   6.072   1.504   4.208  0.1197 -0.4706  0.0238
 4192TIP3    H112540   6.032   1.417   4.209 -1.4509  0.2093 -0.5876
 4192TIP3    H212541   6.040   1.546   4.288 -0.6109  0.1662 -0.5909
 4193TIP3   OH212542   4.912   5.527   0.754  0.0908  0.5141 -0.1813
 4193TIP3    H112543   4.870   5.527   0.841  0.0976 -0.8645 -0.1679
 4193TIP3    H212544   4.844   5.495   0.695  1.2250 -2.3512 -0.0707
 4194TIP3   OH212545   3.758   0.470   4.718 -0.0990 -0.0052 -0.5841
 4194TIP3    H112546   3.769   0.407   4.790  0.5648  1.3283  0.5430
 4194TIP3    H212547   3.834   0.528   4.725 -0.9939  1.2943 -1.1734
 4195TIP3   OH212548   2.478   6.098   4.133 -0.0213  0.0605  0.1466
 4195TIP3    H112549   2.549   6.054   4.087 -1.3163  0.0526 -1.9748
 4195TIP3    H212550   2.492   6.191   4.115  1.1173  0.3312  2.2548
 4196TIP3   OH212551   3.020   4.983   1.787  0.2051  0.1754  0.7529
 4196TIP3    H112552   3.007   4.942   1.873 -1.7121  2.4755  1.6890
 4196TIP3    H212553   3.030   5.076   1.807  0.0872  0.7130 -1.5086
 4197TIP3   OH212554   0.360   5.479   3.344  0.3567  0.1664  0.0913
 4197TIP3    H112555   0.343   5.519   3.259  2.5242 -1.3092 -1.1116
 4197TIP3    H212556   0.454   5.487   3.357  0.0123  1.0213  2.7551
 4198TIP3   OH212557   0.732   4.813   2.063  0.1306  0.3446  0.2916
 4198TIP3    H112558   0.653   4.759   2.061 -1.0454  1.9773  0.4761
 4198TIP3    H212559   0.706   4.892   2.110  2.1206  0.6049  1.0758
 4199TIP3   OH212560   2.349   0.356   4.009 -0.0488  0.3405  0.5808
 4199TIP3    H112561   2.323   0.265   3.997 -3.0807  1.3591 -1.5777
 4199TIP3    H212562   2.275   0.398   4.052  1.5562  1.7189  2.1914
 4200TIP3   OH212563   3.116   6.778   3.071  0.0406 -0.5121  0.2627
 4200TIP3    H112564   3.039   6.831   3.093  0.3214 -0.5073  1.2777
 4200TIP3    H212565   3.173   6.785   3.147 -0.2217 -2.8587  0.7532
 4201TIP3   OH212566   0.594   5.346   1.471 -0.1187  0.6175 -0.2912
 4201TIP3    H112567   0.665   5.281   1.472 -0.4772  0.2309  0.2718
 4201TIP3    H212568   0.613   5.403   1.546 -0.5566  0.3399  0.0353
 4202TIP3   OH212569   6.481   6.766   4.353  0.0184  0.4831  0.2061
 4202TIP3    H112570   6.552   6.784   4.291  0.6932 -1.9483  0.2057
 4202TIP3    H212571   6.401   6.780   4.302  0.5596 -0.8292 -1.0714
 4203TIP3   OH212572   5.654   1.893   4.173  0.4446 -0.3684 -0.1530
 4203TIP3    H112573   5.639   1.894   4.267  0.8319  1.0642 -0.0808
 4203TIP3    H212574   5.670   1.985   4.150  0.0512 -0.6494 -1.6685
 4204TIP3   OH212575   2.635   4.282   3.198 -0.3813 -0.3341 -0.4927
 4204TIP3    H112576   2.594   4.204   3.235  0.4985 -0.2077  0.8175
 4204TIP3    H212577   2.729   4.262   3.199 -0.1420  0.7441 -0.0937
 4205TIP3   OH212578   6.565   4.889   4.419 -0.8285 -0.3213  0.4541
 4205TIP3    H112579   6.625   4.855   4.353 -1.1006 -1.3698  0.7230
 4205TIP3    H212580   6.562   4.821   4.486 -0.0104  1.0168  1.9262
 4206TIP3   OH212581   4.771   5.573   3.061 -0.5826 -0.2431 -0.3530
 4206TIP3    H112582   4.744   5.516   3.133  2.7018 -0.4757  0.8419
 4206TIP3    H212583   4.789   5.513   2.988 -0.4202 -0.3806 -0.2000
 4207TIP3   OH212584   0.497   4.477   3.422 -0.8816 -0.5135 -0.4244
 4207TIP3    H112585   0.464   4.506   3.507 -1.2161  0.3387 -0.8411
 4207TIP3    H212586   0.504   4.382   3.431 -0.8803 -0.4303  0.5679
 4208TIP3   OH212587   0.277   1.092   3.318 -0.6418 -0.6336 -0.0162
 4208TIP3    H112588   0.370   1.070   3.322  0.0113  2.0113  2.5285
 4208TIP3    H212589   0.233   1.019   3.363  0.3471 -1.1984  0.0628
 4209TIP3   OH212590   5.135   2.488   3.033 -0.1623  0.1656  0.1862
 4209TIP3    H112591   5.081   2.564   3.010  0.0033 -0.1644 -1.4458
 4209TIP3    H212592   5.217   2.526   3.065  0.3321  0.7207 -1.6274
 4210TIP3   OH212593   1.811   5.874   0.917  0.1504 -0.6058 -0.5594
 4210TIP3    H112594   1.768   5.789   0.930 -1.7927  0.7353  4.0507
 4210TIP3    H212595   1.741   5.938   0.927  2.1804  1.6084  0.4644
 4211TIP3   OH212596   0.077   0.779   5.600 -0.3158  0.1739 -0.5580
 4211TIP3    H112597   0.122   0.779   5.684 -0.3236  3.1767 -0.4187
 4211TIP3    H212598  -0.013   0.807   5.620 -0.4766  0.3529 -1.4676
 4212TIP3   OH212599   3.361   3.641   2.051  0.3084  0.3113  0.3300
 4212TIP3    H112600   3.331   3.602   1.969  1.6452  0.9908 -0.4975
 4212TIP3    H212601   3.293   3.705   2.073  0.4148  0.8188 -0.7619
 4213TIP3   OH212602   4.712   1.321   1.869 -0.5440 -0.2383 -0.1481
 4213TIP3    H112603   4.674   1.241   1.905  0.3483 -0.2135  0.9304
 4213TIP3    H212604   4.787   1.291   1.818 -0.8426 -0.1624 -0.6304
 4214TIP3   OH212605   5.284   5.939   0.168 -0.3693  0.5458  0.6080
 4214TIP3    H112606   5.194   5.907   0.163 -0.2388  0.2455  0.0697
 4214TIP3    H212607   5.330   5.875   0.223 -0.1574 -0.1011 -0.2953
 4215TIP3   OH212608   0.811   5.190   3.003 -0.2733  0.0851  0.2952
 4215TIP3    H112609   0.763   5.166   2.924  2.2698  1.6125 -1.8855
 4215TIP3    H212610   0.865   5.114   3.023 -0.2761  0.0169  0.0372
 4216TIP3   OH212611   5.258   5.528   1.151  0.0210  0.1708  0.3220
 4216TIP3    H112612   5.347   5.492   1.147  0.5183  1.3369  0.3728
 4216TIP3    H212613   5.212   5.486   1.078  1.1398  0.8604 -0.8276
 4217TIP3   OH212614   3.085   5.191   2.649 -0.6713 -0.8005 -0.2326
 4217TIP3    H112615   3.178   5.216   2.645 -1.1577  1.4554  0.9500
 4217TIP3    H212616   3.052   5.208   2.560 -0.0886 -1.1242 -0.5213
 4218TIP3   OH212617   5.649   0.362   1.992 -0.1100 -0.0001 -0.3838
 4218TIP3    H112618   5.723   0.411   1.957 -0.3594  1.5074  1.0526
 4218TIP3    H212619   5.573   0.417   1.973 -0.2259  1.0487  2.5502
 4219TIP3   OH212620   2.681   1.394   4.833 -0.2484  0.1918 -0.1759
 4219TIP3    H112621   2.762   1.378   4.882  0.7861 -0.2605 -1.9385
 4219TIP3    H212622   2.656   1.308   4.799 -0.7420  0.5432 -0.7224
 4220TIP3   OH212623   0.278   5.968   3.786 -0.0622  0.0378  0.4488
 4220TIP3    H112624   0.183   5.956   3.785  0.0315 -0.7210  0.2066
 4220TIP3    H212625   0.298   6.012   3.704 -0.0038 -1.4688 -0.3669
 4221TIP3   OH212626   3.420   5.193   5.635 -0.0507  0.2749  0.1155
 4221TIP3    H112627   3.502   5.224   5.674  0.2002 -0.8663  0.5671
 4221TIP3    H212628   3.413   5.239   5.552  2.2922 -1.2616 -1.0556
 4222TIP3   OH212629   5.666   0.425   2.417 -0.3291 -0.0145  0.2805
 4222TIP3    H112630   5.655   0.511   2.457  0.5087  0.3782 -0.3101
 4222TIP3    H212631   5.715   0.441   2.336 -2.2003 -0.7648 -1.0666
 4223TIP3   OH212632   4.352   4.999   3.529 -0.6085 -0.3363  0.0524
 4223TIP3    H112633   4.321   4.959   3.448 -0.3573 -0.7375  0.1509
 4223TIP3    H212634   4.370   4.925   3.587  0.0566 -0.0847  0.1715
 4224TIP3   OH212635   0.181   0.097   1.017  0.1170  0.2862  0.4987
 4224TIP3    H112636   0.107   0.098   0.956 -0.3008  0.7627  1.0070
 4224TIP3    H212637   0.147   0.056   1.096  0.8279 -0.8893  0.2232
 4225TIP3   OH212638   3.252   4.637   0.933 -0.3080 -0.0682 -0.1606
 4225TIP3    H112639   3.163   4.670   0.920 -0.0640  0.8402  0.3780
 4225TIP3    H212640   3.305   4.684   0.868 -0.1318 -0.2133 -0.1238
 4226TIP3   OH212641   3.961   4.486   1.972  0.0326  0.1097  0.4002
 4226TIP3    H112642   4.040   4.443   1.938  0.7441  0.8429  1.0977
 4226TIP3    H212643   3.975   4.579   1.955 -1.1927  0.1584 -0.4633
 4227TIP3   OH212644   0.858   5.457   4.595  0.4842  0.2997 -0.2920
 4227TIP3    H112645   0.823   5.416   4.515  0.3931  0.6494 -0.4340
 4227TIP3    H212646   0.792   5.440   4.662  0.4315  0.2431 -0.3577
 4228TIP3   OH212647   1.874   3.051   3.681  0.4824 -0.2377  0.6455
 4228TIP3    H112648   1.924   3.018   3.756  1.7887  0.0595 -0.0622
 4228TIP3    H212649   1.788   3.011   3.691  0.7886 -0.6282  2.0116
 4229TIP3   OH212650   4.381   1.484   3.298  0.3297 -0.5102  0.2937
 4229TIP3    H112651   4.367   1.516   3.208 -0.3482  0.4304  0.7129
 4229TIP3    H212652   4.400   1.391   3.287 -0.4565 -0.5708 -0.7843
 4230TIP3   OH212653   4.892   2.089   2.286  0.1172 -0.1471  0.1828
 4230TIP3    H112654   4.870   1.997   2.271 -1.7560  0.3068 -0.0713
 4230TIP3    H212655   4.943   2.088   2.367 -0.0414 -1.3941  0.2879
 4231TIP3   OH212656   4.800   0.380  -0.014 -0.4396 -0.2169  0.2134
 4231TIP3    H112657   4.868   0.448  -0.017  0.1300 -0.7811  0.1827
 4231TIP3    H212658   4.838   0.310   0.038 -0.8405 -0.7166 -0.1598
 4232TIP3   OH212659   5.326   6.125   4.593 -0.0278  0.7181 -0.1857
 4232TIP3    H112660   5.295   6.036   4.575 -1.4965  1.3911 -1.2498
 4232TIP3    H212661   5.353   6.158   4.508  2.6283  0.5990  0.5281
 4233TIP3   OH212662   5.873   5.242   4.154  0.1815 -0.4490 -0.0471
 4233TIP3    H112663   5.878   5.146   4.148  0.1870 -0.3854 -1.4161
 4233TIP3    H212664   5.843   5.259   4.243 -3.3050 -1.8441 -0.7895
 4234TIP3   OH212665   4.879   2.489   3.656 -0.0121  0.9169 -0.2899
 4234TIP3    H112666   4.908   2.465   3.568 -0.9108  0.4606 -0.4845
 4234TIP3    H212667   4.839   2.409   3.690  1.0494  0.8514  0.8598
 4235TIP3   OH212668   1.228   1.326   3.192  0.1293  0.1674  0.3389
 4235TIP3    H112669   1.197   1.414   3.212  1.6471  0.3066  2.3668
 4235TIP3    H212670   1.303   1.339   3.135  0.4347  0.2082  0.7459
 4236TIP3   OH212671   1.093   1.797   5.461 -0.0684  1.0790 -0.1019
 4236TIP3    H112672   1.188   1.803   5.470 -0.0742  0.4181  0.4858
 4236TIP3    H212673   1.074   1.845   5.381  0.7747  1.1284 -0.2861
 4237TIP3   OH212674   4.576   3.408   3.766  0.2213  0.0464 -0.1740
 4237TIP3    H112675   4.552   3.500   3.757  0.6736  0.2028  0.2338
 4237TIP3    H212676   4.641   3.393   3.697 -0.1850 -0.0919 -0.5385
 4238TIP3   OH212677   4.315   5.423   2.638 -0.2961 -0.6246 -0.2817
 4238TIP3    H112678   4.346   5.435   2.548 -1.0779  2.5310 -0.2426
 4238TIP3    H212679   4.222   5.404   2.629 -0.0125 -2.2144 -0.1434
 4239TIP3   OH212680   2.235   0.179   4.417  0.3436 -0.1465 -0.6262
 4239TIP3    H112681   2.145   0.169   4.384  0.2291  0.8496 -0.6685
 4239TIP3    H212682   2.269   0.255   4.370  1.3447 -0.7331 -0.8738
 4240TIP3   OH212683   5.515   2.207   2.858  0.6199  0.0389  0.0405
 4240TIP3    H112684   5.599   2.246   2.832  0.2534 -0.2217 -1.6890
 4240TIP3    H212685   5.535   2.152   2.933  1.9404  0.2620 -0.1331
 4241TIP3   OH212686   3.333   0.373   3.525  0.0870  0.3675 -0.3752
 4241TIP3    H112687   3.299   0.322   3.598  0.7882 -0.7768 -0.8209
 4241TIP3    H212688   3.280   0.346   3.450  1.5531 -1.0452 -0.9682
 4242TIP3   OH212689   4.828   1.752   3.477 -0.1322 -0.1150 -0.3145
 4242TIP3    H112690   4.824   1.660   3.453  1.6195 -0.0963 -0.7955
 4242TIP3    H212691   4.921   1.770   3.490 -0.6152  1.0031  2.1776
 4243TIP3   OH212692   5.140   1.312   2.918 -0.2405 -0.4468  0.1288
 4243TIP3    H112693   5.131   1.242   2.853 -0.6076 -0.0059 -0.3033
 4243TIP3    H212694   5.173   1.268   2.996  0.2409 -0.9866 -0.3617
 4244TIP3   OH212695   5.641   3.288   0.118  0.0029 -0.1575  0.1881
 4244TIP3    H112696   5.580   3.229   0.162 -0.7622  0.0383 -0.5707
 4244TIP3    H212697   5.592   3.370   0.108  0.0121 -0.3007 -1.3103
 4245TIP3   OH212698   6.942   3.215   1.747  0.6075 -0.4528  0.8205
 4245TIP3    H112699   6.942   3.308   1.725  0.4188 -0.7791 -0.7051
 4245TIP3    H212700   6.905   3.172   1.670 -0.9791 -1.6544  2.1850
 4246TIP3   OH212701   1.929   2.771   2.443 -0.1353 -0.2997  0.1775
 4246TIP3    H112702   1.919   2.743   2.534  1.9121 -0.5764  0.3788
 4246TIP3    H212703   1.865   2.841   2.432 -0.1572  0.0082  1.9484
 4247TIP3   OH212704   0.771   0.945   1.470 -0.0302  0.0477  0.1235
 4247TIP3    H112705   0.763   0.850   1.473 -0.4327  0.0979  0.7277
 4247TIP3    H212706   0.861   0.963   1.499  0.5414 -0.2103 -1.3621
 4248TIP3   OH212707   1.012   5.367   2.967 -0.3631 -0.0309 -0.5727
 4248TIP3    H112708   1.092   5.319   2.992  0.3045  1.4476  0.2302
 4248TIP3    H212709   0.941   5.319   3.010  0.2399 -0.5299 -0.1119
 4249TIP3   OH212710   4.147   2.581   1.799 -0.2004  0.3248  0.3228
 4249TIP3    H112711   4.211   2.559   1.866 -1.1180 -0.0200  1.1154
 4249TIP3    H212712   4.090   2.646   1.840  0.2809  1.4697 -0.7479
 4250TIP3   OH212713   4.317   0.754   3.692  0.0285  0.2710  0.0039
 4250TIP3    H112714   4.287   0.811   3.621 -0.1773 -0.3255 -0.3966
 4250TIP3    H212715   4.409   0.776   3.703 -0.3884  1.7214  0.8549
 4251TIP3   OH212716   3.962   5.848   2.770  0.0545 -0.0826  0.2929
 4251TIP3    H112717   4.011   5.930   2.759  0.0448  0.0831  1.3384
 4251TIP3    H212718   3.872   5.876   2.786 -0.0563 -0.3185  0.0819
 4252TIP3   OH212719   0.266   3.972   0.273 -0.2949 -0.3413  0.1238
 4252TIP3    H112720   0.272   3.921   0.192  0.2299  0.1832 -0.1753
 4252TIP3    H212721   0.314   3.920   0.337 -1.7581 -1.3776  0.4419
 4253TIP3   OH212722   5.749   5.540   1.674  0.3424  0.6125 -0.1065
 4253TIP3    H112723   5.751   5.628   1.711 -1.4208 -0.2920  2.4948
 4253TIP3    H212724   5.814   5.491   1.725 -0.0695 -0.0166 -0.1739
 4254TIP3   OH212725   0.289   4.751   4.981 -0.0525  0.3234  0.3809
 4254TIP3    H112726   0.251   4.744   5.068  1.3704 -1.5246  0.9162
 4254TIP3    H212727   0.217   4.783   4.926 -1.3398  0.2936  1.9584
 4255TIP3   OH212728   0.447   1.894   3.486  0.2004 -0.2206  0.7294
 4255TIP3    H112729   0.409   1.809   3.509  0.3915 -0.0287  1.8322
 4255TIP3    H212730   0.380   1.938   3.434 -1.6950  0.5867  3.5846
 4256TIP3   OH212731   3.957   5.335   4.785  0.5434 -0.0353 -0.0745
 4256TIP3    H112732   3.996   5.377   4.709  0.6951  1.3670  0.7396
 4256TIP3    H212733   4.025   5.338   4.852  1.0076 -2.7216 -0.3125
 4257TIP3   OH212734   7.015   5.380   1.272 -0.2565 -0.3710 -0.0444
 4257TIP3    H112735   7.106   5.406   1.256  0.1194  0.5575  2.9374
 4257TIP3    H212736   6.967   5.463   1.278 -1.0181 -0.7997 -0.0802
 4258TIP3   OH212737   5.991   6.311   5.765  0.0191  0.4023  0.1914
 4258TIP3    H112738   5.971   6.302   5.672  0.4814  2.1858 -0.1210
 4258TIP3    H212739   5.942   6.389   5.792  1.5795  1.1926  0.8867
 4259TIP3   OH212740   7.147   2.730   4.927  0.4535 -0.4281  0.2208
 4259TIP3    H112741   7.235   2.768   4.918  0.6660 -1.1321 -0.8366
 4259TIP3    H212742   7.133   2.683   4.845 -1.0786 -0.0125  0.2287
 4260TIP3   OH212743   0.853   0.721   3.957 -0.3104 -0.5897 -0.3447
 4260TIP3    H112744   0.763   0.749   3.972  0.1885  1.8910 -1.4921
 4260TIP3    H212745   0.855   0.691   3.867  0.0674 -0.2464 -0.4590
 4261TIP3   OH212746   6.245   2.159   1.299 -0.1626  0.2326 -0.5290
 4261TIP3    H112747   6.157   2.176   1.333  0.7438  0.8459  1.7153
 4261TIP3    H212748   6.301   2.222   1.345  1.4761 -0.2535 -1.7710
 4262TIP3   OH212749   0.902   0.649   0.293  1.1420 -0.2958 -0.5498
 4262TIP3    H112750   0.931   0.592   0.365  2.8541  0.7995 -0.2975
 4262TIP3    H212751   0.971   0.641   0.227  2.9350  3.3946  0.5960
 4263TIP3   OH212752   2.079   1.931   4.911 -0.4809  0.0729  0.3970
 4263TIP3    H112753   2.064   1.848   4.956 -0.0890  0.2447  0.8456
 4263TIP3    H212754   2.145   1.911   4.844 -1.5255 -0.3294 -0.5538
 4264TIP3   OH212755   2.769   0.839   0.670  0.3765  0.0203  0.0438
 4264TIP3    H112756   2.761   0.904   0.740  0.0287 -0.3914  0.3932
 4264TIP3    H212757   2.792   0.890   0.592  1.4810  0.4052  0.6047
 4265TIP3   OH212758   5.563   3.256   5.235  0.4580 -0.2760 -0.2783
 4265TIP3    H112759   5.509   3.177   5.229  0.8032 -0.4815 -0.7666
 4265TIP3    H212760   5.542   3.293   5.321 -0.1981 -0.5392 -0.3171
 4266TIP3   OH212761   2.912   6.540   4.731 -0.6756  0.2696 -0.2586
 4266TIP3    H112762   2.958   6.490   4.664  0.2140 -1.1634  1.3464
 4266TIP3    H212763   2.952   6.512   4.813 -1.3943  2.3170  0.8613
 4267TIP3   OH212764   5.684   1.797   3.350 -0.0946  0.3267  0.2121
 4267TIP3    H112765   5.737   1.812   3.429 -0.1243  4.0705 -0.2666
 4267TIP3    H212766   5.698   1.876   3.298 -2.2622 -0.7936 -2.2733
 4268TIP3   OH212767   2.018   5.974   2.318 -0.2229  0.2703 -0.1167
 4268TIP3    H112768   1.973   6.029   2.382 -0.2745  0.3223 -0.1975
 4268TIP3    H212769   2.055   6.036   2.256 -0.3581  0.2098 -0.2585
 4269TIP3   OH212770   2.564   1.097   5.570  0.1366  0.3704  0.3570
 4269TIP3    H112771   2.649   1.135   5.546  0.1070  1.8063  2.2699
 4269TIP3    H212772   2.585   1.023   5.626  0.1361  0.7134  0.8139
 4270TIP3   OH212773   0.692   3.761   5.683  0.1074  0.4745  0.1617
 4270TIP3    H112774   0.771   3.769   5.736  1.2663 -2.3577 -0.9490
 4270TIP3    H212775   0.708   3.818   5.608  0.4587  0.9837  0.6147
 4271TIP3   OH212776   1.496   5.146   1.164 -0.2946  0.2640  0.5349
 4271TIP3    H112777   1.457   5.060   1.147 -0.2652 -0.4298  3.4651
 4271TIP3    H212778   1.588   5.135   1.141 -0.4601 -0.2049  0.0583
 4272TIP3   OH212779   7.048   2.250   3.226 -0.1596 -0.4650 -0.1995
 4272TIP3    H112780   7.139   2.245   3.195  0.1666 -1.7209  0.8907
 4272TIP3    H212781   7.016   2.160   3.222 -0.8440 -0.2892  0.9097
 4273TIP3   OH212782   5.749   3.375   1.270 -0.4070  0.1725 -0.1079
 4273TIP3    H112783   5.774   3.377   1.363 -1.4885 -0.4161  0.2198
 4273TIP3    H212784   5.688   3.302   1.264  0.0812 -0.1410 -1.4135
 4274TIP3   OH212785   3.120   3.645   4.868  0.3416 -0.4131 -0.1846
 4274TIP3    H112786   3.204   3.649   4.823  0.7997 -0.6467  0.6284
 4274TIP3    H212787   3.061   3.601   4.806  0.2757  1.4979 -1.5504
 4275TIP3   OH212788   6.582   3.140   1.769 -0.6653  0.0054 -0.3372
 4275TIP3    H112789   6.601   3.194   1.692 -2.1700  0.8888 -0.1101
 4275TIP3    H212790   6.587   3.050   1.737  1.8184  0.2078 -0.7357
 4276TIP3   OH212791   6.164   0.373   3.408  0.3386 -0.5995  0.7755
 4276TIP3    H112792   6.257   0.385   3.390  0.0695  1.0183  0.3003
 4276TIP3    H212793   6.122   0.382   3.323 -0.3158 -0.6065  1.0926
 4277TIP3   OH212794   6.097   0.949   1.122 -0.1873 -0.0099  0.0417
 4277TIP3    H112795   6.151   0.897   1.181 -0.0489  0.2012  0.1023
 4277TIP3    H212796   6.052   0.884   1.068  0.0748 -0.1902  0.0340
 4278TIP3   OH212797   1.830   0.952   1.870 -0.4345 -0.2127 -0.0597
 4278TIP3    H112798   1.828   0.862   1.901  0.1466 -0.2500 -0.1156
 4278TIP3    H212799   1.919   0.964   1.836  0.6206  1.3667  2.9006
 4279TIP3   OH212800   3.563   4.526   1.608  0.3808  0.1193 -0.1026
 4279TIP3    H112801   3.585   4.537   1.515 -0.5515 -0.1709 -0.3692
 4279TIP3    H212802   3.468   4.513   1.609  0.1501  1.6063  1.0264
 4280TIP3   OH212803   4.888   5.390   4.555  0.0211 -0.0445  0.1495
 4280TIP3    H112804   4.823   5.417   4.490  0.5280  0.9682  0.0410
 4280TIP3    H212805   4.836   5.369   4.633 -0.4477  0.5839  0.0136
 4281TIP3   OH212806   3.287   3.594   3.345 -0.1491 -0.6017 -0.3864
 4281TIP3    H112807   3.210   3.620   3.397 -0.1847 -0.6610 -0.4085
 4281TIP3    H212808   3.256   3.520   3.293 -0.1641 -0.4275 -0.6248
 4282TIP3   OH212809   4.960   1.501   2.839  0.0476 -0.6170  0.0944
 4282TIP3    H112810   5.025   1.442   2.878 -2.0848 -2.3086  1.3886
 4282TIP3    H212811   4.931   1.456   2.760  0.7329  0.3348 -0.7135
 4283TIP3   OH212812   2.223   4.214   1.044 -0.0219 -0.4622 -0.4164
 4283TIP3    H112813   2.283   4.216   1.118  0.8042  0.2131 -1.0869
 4283TIP3    H212814   2.209   4.306   1.021 -0.2842 -0.6546 -1.0713
 4284TIP3   OH212815   3.825   0.878   3.473  0.1376 -0.7995  0.1846
 4284TIP3    H112816   3.749   0.825   3.497 -0.5469  0.0852  0.0055
 4284TIP3    H212817   3.858   0.838   3.392 -0.2586 -1.0756  0.1587
 4285TIP3   OH212818   1.861   6.622   1.225 -0.6904  0.6538  0.8022
 4285TIP3    H112819   1.908   6.630   1.141  0.7660 -1.2231  1.3621
 4285TIP3    H212820   1.927   6.645   1.291 -1.3669  0.6328  1.4908
 4286TIP3   OH212821   3.412   5.401   4.296  0.3325 -0.0624  0.1456
 4286TIP3    H112822   3.341   5.426   4.355 -0.3730 -1.2916 -0.1354
 4286TIP3    H212823   3.381   5.427   4.209  0.6443  0.2732  0.1383
 4287TIP3   OH212824   0.090   0.138   2.443  0.7191 -0.1566 -0.0906
 4287TIP3    H112825   0.124   0.219   2.405  0.9330  0.4489  1.3036
 4287TIP3    H212826   0.158   0.073   2.427  0.2854 -0.2324 -1.7548
 4288TIP3   OH212827   4.665   3.526   5.760 -0.2434 -0.0214  0.2594
 4288TIP3    H112828   4.708   3.605   5.793 -1.4115  0.1028  1.6083
 4288TIP3    H212829   4.734   3.477   5.715  1.0385  0.6684  1.4087
 4289TIP3   OH212830   5.348   5.859   2.371  0.4986  0.2213 -0.1822
 4289TIP3    H112831   5.431   5.814   2.352  0.3111 -0.0920 -0.2714
 4289TIP3    H212832   5.282   5.789   2.368  0.4737  0.1141  1.8411
 4290TIP3   OH212833   2.165   3.062   3.259  0.0801  0.1634 -0.0757
 4290TIP3    H112834   2.124   3.033   3.340 -0.4679  1.7361  0.2597
 4290TIP3    H212835   2.203   3.147   3.281  0.4713  0.3277 -1.2994
 4291TIP3   OH212836   0.748   1.423   1.803  0.1037  0.2391  0.0574
 4291TIP3    H112837   0.664   1.454   1.835  0.1653  0.2323  0.2276
 4291TIP3    H212838   0.746   1.441   1.709 -0.2047 -0.0308  0.0115
 4292TIP3   OH212839   5.797   1.863   2.214  0.2621 -0.4732 -0.2112
 4292TIP3    H112840   5.885   1.900   2.217  0.3449 -0.5782 -1.0693
 4292TIP3    H212841   5.742   1.928   2.258  0.9266 -0.9246  1.3391
 4293TIP3   OH212842   4.901   4.438   5.854  0.0761 -0.0582 -0.0611
 4293TIP3    H112843   4.828   4.447   5.793 -0.5412 -2.1010  0.2906
 4293TIP3    H212844   4.878   4.495   5.927 -1.1619 -0.6063  0.0095
 4294TIP3   OH212845   7.016   1.415   2.080  0.3464 -0.2901  0.3535
 4294TIP3    H112846   7.081   1.422   2.151 -0.1953 -3.0420  1.2415
 4294TIP3    H212847   6.954   1.485   2.098  2.0689  1.2661  0.5339
 4295TIP3   OH212848   6.955   1.065   0.822 -0.4201  0.2054 -0.1501
 4295TIP3    H112849   6.885   1.039   0.763 -1.2432 -0.5762  1.1465
 4295TIP3    H212850   7.032   1.074   0.765 -1.3169  0.0394 -1.4201
 4296TIP3   OH212851   1.590   2.128   0.332  0.4902  0.3651  0.4714
 4296TIP3    H112852   1.612   2.197   0.270 -2.1465  0.7026 -0.1919
 4296TIP3    H212853   1.644   2.054   0.305  0.2681  0.8620 -1.5269
 4297TIP3   OH212854   5.789   5.636   2.965  0.0549 -0.0572  0.0598
 4297TIP3    H112855   5.710   5.602   2.923 -0.2922 -0.7232  1.1903
 4297TIP3    H212856   5.836   5.681   2.896 -1.1265  0.0042 -0.7301
 4298TIP3   OH212857   6.998   3.791   5.680  0.0248 -0.0738 -0.0891
 4298TIP3    H112858   7.006   3.705   5.639 -0.5788 -0.0471 -0.2743
 4298TIP3    H212859   7.088   3.821   5.690  0.1837  0.1707 -1.9292
 4299TIP3   OH212860   6.599   4.018   2.989  0.0726  0.1511  0.1541
 4299TIP3    H112861   6.650   4.054   3.062  0.4383 -0.7649  0.3592
 4299TIP3    H212862   6.663   3.968   2.938 -0.7127 -1.5781  0.7868
 4300TIP3   OH212863   7.060   4.243   4.014  0.8111 -0.1359  0.5120
 4300TIP3    H112864   7.128   4.297   4.054  0.2337  2.2268 -1.4878
 4300TIP3    H212865   6.988   4.244   4.077  1.3631  0.1798  1.1456
 4301TIP3   OH212866   6.894   3.714   1.768 -0.2974 -0.6147 -0.7761
 4301TIP3    H112867   6.989   3.708   1.778 -0.4192 -0.1154  1.0503
 4301TIP3    H212868   6.880   3.782   1.703  0.5979 -0.2940 -0.6391
 4302TIP3   OH212869   6.790   2.626   4.367  0.7703  0.6341  0.2700
 4302TIP3    H112870   6.847   2.560   4.327 -1.6264 -1.7242  0.4485
 4302TIP3    H212871   6.728   2.649   4.298  0.4356  1.3095  0.7824
 4303TIP3   OH212872   6.008   5.477   4.842 -0.3818  0.3680 -0.4354
 4303TIP3    H112873   5.946   5.508   4.908 -1.5605 -0.9622 -0.8678
 4303TIP3    H212874   6.081   5.443   4.893 -0.6691  0.5799  0.1356
 4304TIP3   OH212875   5.296   3.109   4.848  0.3510  0.1376  0.1094
 4304TIP3    H112876   5.224   3.159   4.887  0.1798  0.5374 -0.6922
 4304TIP3    H212877   5.349   3.175   4.802  1.6239 -0.0549  1.2613
 4305TIP3   OH212878   5.777   4.843   1.823 -0.3900  0.6207 -0.0426
 4305TIP3    H112879   5.867   4.869   1.802 -0.0749  0.2544  0.8320
 4305TIP3    H212880   5.771   4.850   1.918 -0.7581 -1.0079  0.0784
 4306TIP3   OH212881   3.102   0.249   0.641  0.1123 -0.4364  1.1356
 4306TIP3    H112882   3.014   0.274   0.667 -0.1203  0.4774 -0.3936
 4306TIP3    H212883   3.097   0.236   0.546  1.4995 -0.8904  1.0910
 4307TIP3   OH212884   3.711   1.960   4.410 -0.5196  0.0158 -0.1221
 4307TIP3    H112885   3.650   1.981   4.339 -1.4312  0.4887  0.7739
 4307TIP3    H212886   3.797   1.972   4.371 -0.9998  1.3413 -0.8636
 4308TIP3   OH212887   6.137   3.944   1.685 -0.0418 -0.2490  0.3080
 4308TIP3    H112888   6.144   3.902   1.771 -1.5638  0.2419  0.6951
 4308TIP3    H212889   6.089   4.024   1.701  1.7910  1.1192 -0.6196
 4309TIP3   OH212890   0.834   2.441   3.599 -0.3386  0.0694 -0.1901
 4309TIP3    H112891   0.857   2.419   3.508  0.5238 -0.5807  0.1716
 4309TIP3    H212892   0.797   2.529   3.594 -0.9306 -0.2179 -1.2605
 4310TIP3   OH212893   0.379   0.784   1.534 -0.2612 -0.0586  0.2385
 4310TIP3    H112894   0.403   0.800   1.626 -2.7796 -0.7283  1.0821
 4310TIP3    H212895   0.295   0.827   1.523 -0.7227 -1.2786 -1.3429
 4311TIP3   OH212896   5.253   1.816   4.300 -0.0956 -0.1862  0.0449
 4311TIP3    H112897   5.272   1.748   4.235 -1.7861  0.3088 -1.0128
 4311TIP3    H212898   5.184   1.778   4.355 -2.5218  1.3266 -1.7858
 4312TIP3   OH212899   5.306   3.221   3.472  0.4851 -0.4042 -0.0414
 4312TIP3    H112900   5.336   3.241   3.561  2.5392  0.1761 -0.8178
 4312TIP3    H212901   5.304   3.305   3.428 -0.6229 -0.6810 -0.5419
 4313TIP3   OH212902   0.611   2.209   3.892  0.0851 -0.3162  0.1050
 4313TIP3    H112903   0.549   2.228   3.962  1.0808  0.5088  0.7881
 4313TIP3    H212904   0.610   2.113   3.884 -0.6764 -0.3536  0.6479
 4314TIP3   OH212905   1.876   0.718   2.060 -0.3405 -0.1790  0.3482
 4314TIP3    H112906   1.963   0.754   2.042 -0.3818 -0.3618 -0.2316
 4314TIP3    H212907   1.893   0.637   2.107 -0.2415  0.4692  1.4910
 4315TIP3   OH212908   2.407   2.293   1.753  0.0435  0.1944 -0.0182
 4315TIP3    H112909   2.373   2.376   1.788 -0.8556 -0.0483 -0.3070
 4315TIP3    H212910   2.486   2.319   1.706 -1.0222  1.1212 -1.3753
 4316TIP3   OH212911   5.348   2.894   3.931  0.3264 -0.0999  0.3771
 4316TIP3    H112912   5.330   2.973   3.880  2.0184  0.2353  0.2479
 4316TIP3    H212913   5.441   2.901   3.954  0.7057 -2.4041 -0.2417
 4317TIP3   OH212914   5.906   5.304   4.429  0.2413  0.0151  0.3775
 4317TIP3    H112915   5.903   5.274   4.520 -0.1709 -1.6603 -0.1595
 4317TIP3    H212916   5.999   5.299   4.406  0.2217 -0.5666  0.4004
 4318TIP3   OH212917   5.944   3.603   2.390  0.0059  0.4668 -0.4064
 4318TIP3    H112918   5.923   3.513   2.364  1.1585 -0.3618  1.2735
 4318TIP3    H212919   5.896   3.616   2.472 -0.9775  1.8044 -1.1524
 4319TIP3   OH212920   2.624   2.426   1.655  0.3906 -0.0488  0.1024
 4319TIP3    H112921   2.604   2.506   1.608 -1.3211 -0.7777 -0.5008
 4319TIP3    H212922   2.700   2.389   1.609  1.5508  1.4499  0.7303
 4320TIP3   OH212923   6.002   4.519   1.889 -0.1998  0.4440 -0.8454
 4320TIP3    H112924   5.916   4.494   1.855 -0.4399  1.2782 -0.8827
 4320TIP3    H212925   6.003   4.486   1.978 -0.0206 -0.7566 -1.2770
 4321TIP3   OH212926   5.890   6.188   1.275  0.4573  0.0751 -0.0326
 4321TIP3    H112927   5.939   6.128   1.218  0.6613  1.1760 -1.0495
 4321TIP3    H212928   5.900   6.150   1.362  1.0398 -1.0746 -0.5683
 4322TIP3   OH212929   2.335   1.795   2.825 -0.1120 -0.8124  0.8997
 4322TIP3    H112930   2.400   1.730   2.852  1.1541  0.1107  0.1815
 4322TIP3    H212931   2.325   1.781   2.731 -0.8376 -0.8273  0.9734
 4323TIP3   OH212932   4.565   0.294   0.966 -0.2010 -0.1244 -0.2077
 4323TIP3    H112933   4.495   0.343   0.922 -1.9906 -1.2945  1.1910
 4323TIP3    H212934   4.573   0.213   0.916  1.6769  0.8282 -1.5888
 4324TIP3   OH212935   1.684   5.971   3.726  0.1269 -0.3316 -0.7346
 4324TIP3    H112936   1.596   5.936   3.709  0.3022 -1.2473  0.1217
 4324TIP3    H212937   1.731   5.897   3.763  1.5469 -0.1135 -2.0093
 4325TIP3   OH212938   0.378   4.251   3.775  0.2567 -0.0151 -0.7678
 4325TIP3    H112939   0.396   4.336   3.735  2.2569  0.7350  1.4912
 4325TIP3    H212940   0.334   4.272   3.858 -0.4099 -1.2807 -0.7673
 4326TIP3   OH212941   6.740   1.675   0.652 -0.1012  0.4506 -0.0157
 4326TIP3    H112942   6.684   1.728   0.594 -0.2870 -0.0609 -0.3175
 4326TIP3    H212943   6.704   1.586   0.644  2.0440 -0.3452 -1.9057
 4327TIP3   OH212944   2.575   3.979   1.107  0.1321  0.1313 -0.0337
 4327TIP3    H112945   2.500   3.942   1.153 -0.0605  1.6801  1.0031
 4327TIP3    H212946   2.542   4.004   1.021 -0.1240 -0.6485 -0.1647
 4328TIP3   OH212947   2.056   3.451   4.732 -0.1028  0.3085 -0.5492
 4328TIP3    H112948   1.963   3.473   4.728 -0.2309  0.0291  0.4984
 4328TIP3    H212949   2.095   3.522   4.785  0.0291 -0.2851  0.1746
 4329TIP3   OH212950   4.741   0.072   3.615 -0.1367 -0.3938  0.5765
 4329TIP3    H112951   4.678   0.013   3.574 -2.1271  0.9150  1.6114
 4329TIP3    H212952   4.737   0.152   3.564  0.6343 -0.2591  0.7107
 4330TIP3   OH212953   0.009   0.965   3.675  0.1818 -0.1399  0.3373
 4330TIP3    H112954   0.100   0.993   3.663  0.0016  0.1943 -0.3098
 4330TIP3    H212955  -0.034   1.039   3.716  0.4777 -0.7715  1.8595
 4331TIP3   OH212956   4.699   3.442   1.698  0.1389 -0.0432 -0.0253
 4331TIP3    H112957   4.662   3.514   1.646 -0.5156 -1.2105 -1.2585
 4331TIP3    H212958   4.741   3.385   1.633 -1.2553 -1.8897  0.6079
 4332TIP3   OH212959   4.057   2.242   2.841 -0.2299  0.1515  0.3323
 4332TIP3    H112960   4.102   2.173   2.889 -1.7927 -0.1626  1.4092
 4332TIP3    H212961   4.092   2.237   2.752  1.8618 -0.0320  1.1184
 4333TIP3   OH212962   1.288   6.393   3.361 -0.0401  0.8122 -0.2505
 4333TIP3    H112963   1.300   6.373   3.454  1.3167  1.9064 -0.1546
 4333TIP3    H212964   1.201   6.432   3.355 -0.9944 -1.1260  0.2041
 4334TIP3   OH212965   6.396   6.422   3.256  0.1195  0.5448 -0.1845
 4334TIP3    H112966   6.366   6.332   3.266  0.6788  0.3744  0.0029
 4334TIP3    H212967   6.443   6.424   3.173 -0.0875  0.7206 -0.2999
 4335TIP3   OH212968   1.521   4.474   2.923  0.3867 -0.1795 -0.1144
 4335TIP3    H112969   1.549   4.541   2.985 -0.4993  1.6467 -1.5951
 4335TIP3    H212970   1.426   4.473   2.929  0.3747 -1.1640 -0.2776
 4336TIP3   OH212971   0.228   0.875   5.167 -0.2758  0.1128 -0.0299
 4336TIP3    H112972   0.310   0.825   5.163 -1.4449 -1.8106 -1.2081
 4336TIP3    H212973   0.194   0.856   5.254 -0.7835 -1.3703 -0.5127
 4337TIP3   OH212974   0.626   0.819   3.685 -0.6841 -0.2041 -0.5735
 4337TIP3    H112975   0.583   0.773   3.613 -2.8762  0.7759  0.0185
 4337TIP3    H212976   0.623   0.758   3.758 -1.1489 -0.1190 -0.5201
 4338TIP3   OH212977   1.934   6.226   2.933  0.1004 -0.1637  0.0245
 4338TIP3    H112978   1.863   6.169   2.962  0.1715 -0.1803  0.1720
 4338TIP3    H212979   1.966   6.266   3.014  0.0401  0.0966 -0.0812
 4339TIP3   OH212980   2.787   3.395   4.222 -0.9839 -0.1711 -0.3949
 4339TIP3    H112981   2.809   3.350   4.303 -0.0050  1.5620  0.3557
 4339TIP3    H212982   2.736   3.471   4.249 -0.9665  0.2259 -1.4223
 4340TIP3   OH212983   6.920   5.252   0.705  0.4024  0.2121 -0.4828
 4340TIP3    H112984   6.959   5.224   0.622 -0.0319  1.6868 -1.2297
 4340TIP3    H212985   6.831   5.280   0.681 -0.3522 -0.9715  0.7988
 4341TIP3   OH212986   4.910   0.967   1.768  0.5254  0.5502 -0.1279
 4341TIP3    H112987   4.840   0.944   1.829  0.3457  1.2053 -0.0869
 4341TIP3    H212988   4.937   1.055   1.793  2.5831 -0.3431  0.9939
 4342TIP3   OH212989   4.652   3.886   0.642  0.0281 -0.0501  0.4272
 4342TIP3    H112990   4.611   3.903   0.727 -0.3741  1.7123 -0.0870
 4342TIP3    H212991   4.597   3.933   0.579 -0.7338 -2.7149 -1.0920
 4343TIP3   OH212992   5.412   1.150   4.908 -0.7198 -0.1809  0.2173
 4343TIP3    H112993   5.487   1.115   4.859 -0.4809  0.6150 -0.0036
 4343TIP3    H212994   5.446   1.166   4.996 -0.4639  0.7133 -0.0355
 4344TIP3   OH212995   5.684   5.023   4.987 -0.2102  0.2115  0.2277
 4344TIP3    H112996   5.632   5.007   5.065  1.4628 -0.0296  1.3489
 4344TIP3    H212997   5.625   5.003   4.914 -2.3774  2.0582  1.3382
 4345TIP3   OH212998   1.077   3.094   2.567 -0.1608  0.6065 -0.0502
 4345TIP3    H112999   1.121   3.146   2.500 -2.0397  0.9768 -1.0561
 4345TIP3    H213000   1.057   3.011   2.524  0.9838 -0.1997  0.9142
 4346TIP3   OH213001   7.105   1.926   5.528 -0.4144  0.1367  0.0518
 4346TIP3    H113002   7.194   1.907   5.498 -1.1309 -3.1579 -0.3868
 4346TIP3    H213003   7.049   1.899   5.455 -1.8318  2.5808  0.1314
 4347TIP3   OH213004   0.439   4.984   5.259  0.4649  0.0126  0.2783
 4347TIP3    H113005   0.507   4.933   5.305 -0.8514 -0.5656  1.6586
 4347TIP3    H213006   0.479   5.070   5.245  1.1324  0.0215  2.0233
 4348TIP3   OH213007   1.430   5.338   3.026  0.3013 -0.4227 -0.2042
 4348TIP3    H113008   1.432   5.374   3.115  0.2611 -3.5636  1.2060
 4348TIP3    H213009   1.390   5.407   2.973 -0.7475  1.1452  2.4302
 4349TIP3   OH213010   6.929   0.761   1.555 -0.2986 -0.3122  0.1720
 4349TIP3    H113011   6.924   0.726   1.645 -1.0774 -0.5521  0.0449
 4349TIP3    H213012   6.951   0.685   1.501 -0.0856 -0.2195  0.1283
 4350TIP3   OH213013   0.922   6.062   2.010 -0.0618 -0.1779  0.5280
 4350TIP3    H113014   0.866   6.037   1.936  2.1267 -0.8314 -1.0120
 4350TIP3    H213015   0.924   5.984   2.066 -1.5877  0.2584  1.2402
 4351TIP3   OH213016   1.020   2.494   3.355 -0.2159 -0.3098 -0.3931
 4351TIP3    H113017   0.941   2.544   3.335 -0.7905 -0.8414  0.4513
 4351TIP3    H213018   1.064   2.545   3.423  0.0136 -0.1638 -0.6504
 4352TIP3   OH213019   6.277   0.691   4.546  0.1663 -0.3745  0.1005
 4352TIP3    H113020   6.309   0.633   4.615  1.0108  0.9429  0.8730
 4352TIP3    H213021   6.357   0.726   4.506 -0.3137  0.3675 -0.2290
 4353TIP3   OH213022   5.954   4.211   2.674 -0.2975 -0.6744 -0.2458
 4353TIP3    H113023   6.031   4.235   2.725 -0.8578  2.5735 -0.7101
 4353TIP3    H213024   5.883   4.209   2.738 -0.7383  1.9539 -0.5488
 4354TIP3   OH213025   5.833   0.894   2.782 -0.3701 -0.3069  0.0524
 4354TIP3    H113026   5.889   0.825   2.746 -0.8236 -0.5097 -0.2725
 4354TIP3    H213027   5.892   0.947   2.835 -0.3873 -2.1846  2.0785
 4355TIP3   OH213028   1.719   1.052   5.653 -0.5978  0.2449 -0.0684
 4355TIP3    H113029   1.625   1.037   5.658 -0.6342  0.7766  0.8767
 4355TIP3    H213030   1.729   1.147   5.662  0.1665 -0.0054  2.1805
 4356TIP3   OH213031   6.588   3.747   2.487 -0.0276 -0.2560 -0.2825
 4356TIP3    H113032   6.515   3.780   2.540  1.8858 -0.3961  2.7320
 4356TIP3    H213033   6.610   3.662   2.528  2.6129  0.3886 -0.1623
 4357TIP3   OH213034   3.254   4.978   2.777  0.3832  0.5608  0.2352
 4357TIP3    H113035   3.177   5.014   2.821  1.1988  0.6613  1.6475
 4357TIP3    H213036   3.240   4.998   2.684 -1.0616  0.9745  0.5123
 4358TIP3   OH213037   1.812   3.723   2.205 -0.8693 -0.0811  0.2577
 4358TIP3    H113038   1.892   3.766   2.174 -0.7737 -0.4846 -0.0754
 4358TIP3    H213039   1.836   3.688   2.290 -0.3489 -1.1070 -0.2857
 4359TIP3   OH213040   2.512   0.294   2.854 -0.0446 -0.2847 -0.2022
 4359TIP3    H113041   2.438   0.335   2.809  1.2322 -0.0432 -2.1933
 4359TIP3    H213042   2.570   0.368   2.875 -0.9711 -0.2623  2.7360
 4360TIP3   OH213043   5.592   6.292   0.132  0.2739  0.0439  0.0122
 4360TIP3    H113044   5.545   6.218   0.094  0.8903  0.6028 -1.9734
 4360TIP3    H213045   5.683   6.278   0.108  0.6380  0.6577  0.9654
 4361TIP3   OH213046   3.584   6.067   4.312 -0.1159  0.4059  0.0863
 4361TIP3    H113047   3.560   6.128   4.242 -0.4632 -0.6397 -0.7198
 4361TIP3    H213048   3.588   5.982   4.270 -0.3275 -0.2537  1.3511
 4362TIP3   OH213049   4.201   1.833   0.611 -0.3615  0.0212  0.1591
 4362TIP3    H113050   4.220   1.926   0.619 -0.1072  0.0421 -0.5854
 4362TIP3    H213051   4.237   1.808   0.526  0.6832 -1.0397  0.8766
 4363TIP3   OH213052   5.914   3.797   1.522 -0.9903 -0.0898 -0.1824
 4363TIP3    H113053   5.988   3.846   1.558  0.6491 -1.3097 -1.7083
 4363TIP3    H213054   5.869   3.859   1.465 -0.8533  0.5146  0.3529
 4364TIP3   OH213055   3.352   0.557   0.927  0.1522 -0.7034 -0.6590
 4364TIP3    H113056   3.349   0.485   0.865  2.0508  0.4283 -2.1934
 4364TIP3    H213057   3.429   0.538   0.981 -0.0628 -0.4382 -0.2560
 4365TIP3   OH213058   3.597   1.172   5.172  0.2827 -0.2319 -0.4173
 4365TIP3    H113059   3.587   1.079   5.190  0.3884 -0.2092 -0.2408
 4365TIP3    H213060   3.674   1.199   5.223 -0.2348  0.1289  0.2006
 4366TIP3   OH213061   3.150   1.190   0.605  0.0032 -0.1090  0.2009
 4366TIP3    H113062   3.165   1.098   0.582 -0.4715  0.3601 -2.4008
 4366TIP3    H213063   3.060   1.207   0.578  0.6775  1.5704 -1.2396
 4367TIP3   OH213064   5.431   4.283   5.759  0.0638 -0.2339 -0.4117
 4367TIP3    H113065   5.455   4.243   5.675  0.6981  1.8173 -1.2618
 4367TIP3    H213066   5.513   4.287   5.807 -0.0713 -0.3206 -0.1755
 4368TIP3   OH213067   2.174   3.574   0.102  0.4139 -0.1801  0.0237
 4368TIP3    H113068   2.155   3.542   0.190 -0.1095 -0.3626 -0.1572
 4368TIP3    H213069   2.098   3.550   0.050 -0.2321  1.7671 -0.0283
 4369TIP3   OH213070   5.352   0.808   4.455  0.6380  0.4853 -0.0680
 4369TIP3    H113071   5.433   0.837   4.412  1.8182 -0.3061  1.5268
 4369TIP3    H213072   5.377   0.795   4.546 -0.5480 -2.5159 -0.0575
 4370TIP3   OH213073   6.138   6.472   4.730  0.5942 -0.5655 -0.2683
 4370TIP3    H113074   6.080   6.427   4.791 -0.1273 -0.7661 -1.1021
 4370TIP3    H213075   6.196   6.524   4.787 -0.1904 -0.5951  0.5803
 4371TIP3   OH213076   2.994   5.572   1.859  0.7820 -0.8091 -0.4451
 4371TIP3    H113077   2.973   5.545   1.949  0.7393  0.9679  0.1317
 4371TIP3    H213078   2.957   5.504   1.804 -2.1085 -0.3407  0.7546
 4372TIP3   OH213079   1.315   1.023   1.634  0.1646  0.0370  0.0365
 4372TIP3    H113080   1.272   1.055   1.555  0.1788  0.7791  0.3219
 4372TIP3    H213081   1.406   1.009   1.609 -0.2373 -1.6898 -0.6146
 4373TIP3   OH213082   2.720   5.696   2.014  0.8035  0.1092 -0.5396
 4373TIP3    H113083   2.669   5.682   1.934  1.1933  0.1025 -0.7930
 4373TIP3    H213084   2.735   5.609   2.049 -0.5909  0.1870  0.3371
 4374TIP3   OH213085   1.406   1.358   3.699 -0.2566  0.8023  0.6533
 4374TIP3    H113086   1.400   1.448   3.668 -0.8746 -0.0027 -1.7895
 4374TIP3    H213087   1.470   1.317   3.641  1.9916  0.2225  3.3336
 4375TIP3   OH213088   0.027   2.983   1.372 -0.2302 -0.2096 -0.3742
 4375TIP3    H113089   0.013   2.945   1.285  0.4129  1.9878 -1.4972
 4375TIP3    H213090   0.087   3.055   1.357 -1.5548  1.4032  1.6030
 4376TIP3   OH213091   5.789   1.043   3.162  0.2306 -0.3059 -0.4095
 4376TIP3    H113092   5.759   1.027   3.251  0.5779 -0.8528 -0.3852
 4376TIP3    H213093   5.872   1.089   3.172  0.8990 -1.4785 -0.4195
 4377TIP3   OH213094   4.924   1.648   0.733 -0.1793 -0.3876  0.8794
 4377TIP3    H113095   4.862   1.593   0.780 -0.1004  0.0782  1.5407
 4377TIP3    H213096   4.993   1.588   0.705  0.4729 -0.4776  2.5612
 4378TIP3   OH213097   5.549   5.691   3.734 -0.0228  0.6313 -0.4730
 4378TIP3    H113098   5.492   5.645   3.671  1.1700  0.1696 -1.2626
 4378TIP3    H213099   5.637   5.680   3.697  0.8729 -0.6386  1.8585
 4379TIP3   OH213100  -0.000   0.586   1.950  0.2106 -0.0693 -0.6474
 4379TIP3    H113101   0.040   0.664   1.912  1.0675 -0.9685 -1.6513
 4379TIP3    H213102  -0.003   0.523   1.878  3.3476 -2.4141  1.0211
 4380TIP3   OH213103   0.242   5.379   1.439  0.1631 -0.6682  0.1390
 4380TIP3    H113104   0.170   5.402   1.381 -0.1836 -0.1769  0.7439
 4380TIP3    H213105   0.232   5.285   1.454 -1.0250 -0.4328  1.0693
 4381TIP3   OH213106   6.764   3.104   4.561  0.0534 -0.4171  0.2323
 4381TIP3    H113107   6.798   3.023   4.597  0.3358 -0.5640 -0.3543
 4381TIP3    H213108   6.669   3.095   4.568  0.0027 -1.5436 -1.3614
 4382TIP3   OH213109   3.012   0.833   1.285 -0.1919 -0.0827 -0.0131
 4382TIP3    H113110   3.087   0.828   1.343  0.7052  1.9046 -0.9093
 4382TIP3    H213111   3.047   0.814   1.198 -0.8695  0.1283 -0.3449
 4383TIP3   OH213112   5.295   6.691   4.353 -0.4277  0.6421  0.5379
 4383TIP3    H113113   5.359   6.754   4.319 -0.5744  0.8013  0.5550
 4383TIP3    H213114   5.222   6.695   4.291 -0.5375  0.6612  0.6674
 4384TIP3   OH213115   0.067   6.066   0.445 -0.1602 -0.2198 -0.4222
 4384TIP3    H113116   0.003   6.095   0.509 -1.6839 -3.6535 -0.1951
 4384TIP3    H213117   0.141   6.034   0.497  0.6719  1.2772 -0.6147
 4385TIP3   OH213118   5.246   4.280   2.989  0.6156  0.2644 -0.6355
 4385TIP3    H113119   5.259   4.329   2.908 -2.1465  0.5444 -1.0117
 4385TIP3    H213120   5.185   4.209   2.965 -2.1340  1.6888  1.5096
 4386TIP3   OH213121   3.171   1.335   3.995  0.8447 -0.8298 -0.2841
 4386TIP3    H113122   3.232   1.262   4.007 -0.2520 -1.8714 -0.7691
 4386TIP3    H213123   3.086   1.299   4.019  0.4800  0.7927  1.0828
 4387TIP3   OH213124   0.070   3.653   2.442 -0.3275 -0.1271  0.0095
 4387TIP3    H113125   0.144   3.687   2.493 -0.6693 -0.8784  1.0219
 4387TIP3    H213126   0.043   3.574   2.488 -0.3123 -1.1481 -1.6343
 4388TIP3   OH213127   5.318   4.646   0.663  0.5293  0.3108 -0.1092
 4388TIP3    H113128   5.317   4.722   0.604  1.2132  0.5297  0.1416
 4388TIP3    H213129   5.291   4.572   0.608  0.1463  0.6833 -0.4328
 4389TIP3   OH213130   4.828   5.936   0.563 -0.5310 -0.2216 -0.4832
 4389TIP3    H113131   4.815   5.847   0.530  0.5020 -0.8258  0.6520
 4389TIP3    H213132   4.765   5.989   0.514 -1.0931 -1.5521 -1.2638
 4390TIP3   OH213133   6.632   0.817   1.454 -0.2330  0.3505  0.0708
 4390TIP3    H113134   6.705   0.775   1.498  1.1037  1.4625 -0.9729
 4390TIP3    H213135   6.612   0.759   1.380  0.4400  0.6242 -0.3454
 4391TIP3   OH213136   3.178   0.222   2.149  0.1226  0.2807  0.5264
 4391TIP3    H113137   3.192   0.213   2.055 -0.6933 -0.1572  0.4402
 4391TIP3    H213138   3.088   0.195   2.163  0.4491 -0.3554  1.5368
 4392TIP3   OH213139   1.451   0.109   1.623 -0.2555 -0.0553  0.3702
 4392TIP3    H113140   1.493   0.042   1.570 -0.5930  0.0966 -0.0914
 4392TIP3    H213141   1.358   0.092   1.614 -0.3596  0.7248 -0.0869
 4393TIP3   OH213142   2.649   0.747   5.910  0.1872  0.7318  0.0832
 4393TIP3    H113143   2.684   0.658   5.914  0.4568  0.8642  1.8818
 4393TIP3    H213144   2.596   0.750   5.830  1.2174 -0.6342 -0.6811
 4394TIP3   OH213145   0.515   1.654   5.741 -0.1705  0.3093 -0.1363
 4394TIP3    H113146   0.516   1.741   5.703 -2.2202  0.6862  0.5592
 4394TIP3    H213147   0.440   1.654   5.800  0.5064 -1.5409  0.8094
 4395TIP3   OH213148   1.072   5.067   1.500 -0.2730  0.3448  0.3262
 4395TIP3    H113149   1.019   5.041   1.425  0.3773  0.8707 -0.3298
 4395TIP3    H213150   1.027   5.029   1.576 -0.6027 -0.7114 -0.3809
 4396TIP3   OH213151   1.573   0.536   1.995  0.4250  0.2951  0.0703
 4396TIP3    H113152   1.632   0.498   1.930 -1.4572 -2.3196 -0.2905
 4396TIP3    H213153   1.485   0.523   1.957 -0.6402  0.1385  2.4072
 4397TIP3   OH213154   4.567   0.460   3.943 -0.4288  0.3044 -0.5853
 4397TIP3    H113155   4.571   0.365   3.954  1.6680  0.5195  1.1650
 4397TIP3    H213156   4.506   0.490   4.011  1.6793  0.4321  1.3708
 4398TIP3   OH213157   4.129   4.655   3.364 -0.5760 -0.0246  0.4180
 4398TIP3    H113158   4.077   4.734   3.382 -1.6967 -0.8740  1.0625
 4398TIP3    H213159   4.064   4.590   3.338 -0.0582 -1.5293  2.6193
 4399TIP3   OH213160   3.671   5.320   5.695  0.0669  0.5928  0.3279
 4399TIP3    H113161   3.692   5.379   5.622  0.9538  0.8550  0.7772
 4399TIP3    H213162   3.669   5.377   5.772  1.2567  0.0101  0.8147
 4400TIP3   OH213163   2.908   2.063   0.827  0.1555  0.0357 -0.0029
 4400TIP3    H113164   2.827   2.078   0.778 -0.5318 -0.1869  1.0321
 4400TIP3    H213165   2.948   1.987   0.784 -0.8316 -0.6417  0.2388
 4401TIP3   OH213166   0.531   1.867   0.985 -0.6696 -0.3787 -0.2438
 4401TIP3    H113167   0.512   1.839   0.895  0.5559 -1.5569 -0.1673
 4401TIP3    H213168   0.615   1.826   1.005 -2.0765 -2.3183  2.3153
 4402TIP3   OH213169   4.406   5.810   2.397  0.3198  0.0792 -0.1889
 4402TIP3    H113170   4.332   5.762   2.433  1.8653 -1.6854  0.8685
 4402TIP3    H213171   4.367   5.874   2.338 -1.9594 -2.0631 -1.2227
 4403TIP3   OH213172   7.062   5.842   4.934  0.5362  0.2219 -0.0878
 4403TIP3    H113173   7.027   5.827   4.847  0.1461  1.0394 -0.0811
 4403TIP3    H213174   7.132   5.906   4.922  0.2071  0.6531  0.2428
 4404TIP3   OH213175   2.862   5.455   2.922  0.5763  0.1620  1.0182
 4404TIP3    H113176   2.911   5.528   2.882  0.2956 -0.0622  0.2411
 4404TIP3    H213177   2.913   5.432   3.000  2.6313 -1.0839 -0.5619
 4405TIP3   OH213178   1.036   5.403   3.498 -0.2856 -0.2149  0.1670
 4405TIP3    H113179   1.080   5.371   3.576 -0.6235  0.2259  0.5454
 4405TIP3    H213180   1.015   5.495   3.517 -0.0421  0.0085 -0.5861
 4406TIP3   OH213181   1.261   4.108   3.284  0.4238  0.0857  0.4190
 4406TIP3    H113182   1.172   4.141   3.294  0.8252  1.3101  0.1310
 4406TIP3    H213183   1.287   4.136   3.195  1.1678 -0.0582  0.5822
 4407TIP3   OH213184   2.670   5.193   5.806 -0.9431 -0.5427  0.2691
 4407TIP3    H113185   2.724   5.183   5.885 -0.1901 -0.0688 -0.1676
 4407TIP3    H213186   2.666   5.104   5.769  1.1575 -0.3018 -0.6941
 4408TIP3   OH213187   1.124   5.878   0.617 -0.4912 -0.0269  0.0421
 4408TIP3    H113188   1.096   5.881   0.526 -1.0648 -1.2919  0.1512
 4408TIP3    H213189   1.091   5.959   0.655  0.7833  1.0814 -1.1349
 4409TIP3   OH213190   2.748   6.007   4.079  0.1858 -0.7032  0.3341
 4409TIP3    H113191   2.792   5.967   4.154  1.8293  0.5568  0.1083
 4409TIP3    H213192   2.806   6.079   4.054 -1.3611  0.1689 -0.8721
 4410TIP3   OH213193   3.235   5.670   4.788 -0.4412 -0.3510  0.2315
 4410TIP3    H113194   3.291   5.593   4.796 -1.4391 -1.0568  0.6381
 4410TIP3    H213195   3.214   5.676   4.695 -1.9762 -1.7820  0.4454
 4411TIP3   OH213196   6.854   1.679   4.665  0.1798 -0.0310  0.6430
 4411TIP3    H113197   6.889   1.725   4.742  0.7206  0.7992 -0.0887
 4411TIP3    H213198   6.782   1.733   4.635  0.1776 -0.1888  0.3641
 4412TIP3   OH213199   0.921   3.374   0.765 -0.3301 -0.9837  0.2330
 4412TIP3    H113200   0.964   3.425   0.697 -0.7246 -1.1138 -0.1169
 4412TIP3    H213201   0.900   3.291   0.723 -0.5539 -1.0769  0.5231
 4413TIP3   OH213202   2.500   1.022   1.042  0.3403  0.5302 -0.6269
 4413TIP3    H113203   2.408   0.994   1.050 -0.3037  2.4008 -1.0011
 4413TIP3    H213204   2.515   1.076   1.119  0.4820  1.8606 -1.5575
 4414TIP3   OH213205   6.419   0.910   0.120 -0.8137  0.0350  0.5901
 4414TIP3    H113206   6.482   0.981   0.128 -2.1575  1.1099  2.0870
 4414TIP3    H213207   6.424   0.863   0.203 -2.8376  0.9486  1.3190
 4415TIP3   OH213208   6.484   6.771   3.863  0.0806 -0.2065 -0.1913
 4415TIP3    H113209   6.477   6.681   3.896 -1.0001 -0.5039 -1.1930
 4415TIP3    H213210   6.509   6.761   3.771  0.8700  0.5562 -0.0731
 4416TIP3   OH213211   1.710   4.264   4.987  0.2525 -0.0375  0.6421
 4416TIP3    H113212   1.644   4.313   5.036  1.1741  0.4404  1.4492
 4416TIP3    H213213   1.662   4.227   4.913 -1.1392 -0.6410  1.8044
 4417TIP3   OH213214   4.933   4.699   4.291 -0.5352  0.1836 -0.3036
 4417TIP3    H113215   4.851   4.748   4.285 -0.4991  0.1331 -1.4846
 4417TIP3    H213216   4.937   4.669   4.381 -1.1625  1.3156  0.1222
 4418TIP3   OH213217   3.953   6.783   5.074 -0.1803  0.4554 -0.1665
 4418TIP3    H113218   3.886   6.749   5.134 -1.6570 -1.6314 -2.7435
 4418TIP3    H213219   4.035   6.750   5.109 -1.0039 -0.7977  0.6745
 4419TIP3   OH213220   2.181   4.645   0.736 -0.0116  0.5941 -0.1259
 4419TIP3    H113221   2.100   4.661   0.688 -0.0780 -0.8089 -0.5314
 4419TIP3    H213222   2.189   4.720   0.796 -1.6479  0.7198 -0.0128
 4420TIP3   OH213223   0.447   0.586   4.817 -0.3312  0.5336 -0.5072
 4420TIP3    H113224   0.513   0.578   4.747  0.2299  2.4158 -0.2584
 4420TIP3    H213225   0.481   0.531   4.888 -0.0172 -0.0264 -1.0763
 4421TIP3   OH213226   6.530   1.540   3.722  0.4254 -0.4317 -0.1086
 4421TIP3    H113227   6.621   1.569   3.729 -0.2078  1.3845  1.3727
 4421TIP3    H213228   6.493   1.592   3.650 -0.1377  0.8908  1.1065
 4422TIP3   OH213229   4.489   3.950   0.293 -0.1197 -0.4906 -0.0738
 4422TIP3    H113230   4.438   4.009   0.348 -0.0873 -0.1567 -0.3935
 4422TIP3    H213231   4.424   3.892   0.252 -0.1560 -0.6441  0.2014
 4423TIP3   OH213232   1.109   4.931   0.635  0.2027  0.0121  0.5403
 4423TIP3    H113233   1.084   5.022   0.617  0.2140 -0.2205 -0.6884
 4423TIP3    H213234   1.042   4.878   0.593  1.1862 -0.5684 -0.3395
 4424TIP3   OH213235   4.909   5.674   3.317  0.5011 -0.4008  0.8385
 4424TIP3    H113236   4.858   5.596   3.299 -0.9682  0.9851 -1.5239
 4424TIP3    H213237   4.984   5.669   3.258  0.9576 -0.4748  1.4058
 4425TIP3   OH213238   1.491   2.169   1.569  0.3255  0.0371  0.2315
 4425TIP3    H113239   1.426   2.132   1.508  1.6792 -1.3342 -0.4323
 4425TIP3    H213240   1.560   2.203   1.513 -0.6290  3.3115  0.8378
 4426TIP3   OH213241   5.688   4.841   4.215 -0.1021 -0.5982 -0.4945
 4426TIP3    H113242   5.777   4.873   4.201 -0.0221 -1.1586 -1.3545
 4426TIP3    H213243   5.641   4.867   4.136 -0.8634  0.2056  0.2062
 4427TIP3   OH213244   0.243   1.100   5.810 -0.2450  0.0329 -0.3561
 4427TIP3    H113245   0.206   1.139   5.889  2.2493  0.8074  0.5203
 4427TIP3    H213246   0.225   1.164   5.741  0.3710  0.9256  0.2780
 4428TIP3   OH213247   2.557   0.258   4.199  0.2847 -0.5490 -0.0177
 4428TIP3    H113248   2.530   0.207   4.275  0.5478  0.7449  0.9834
 4428TIP3    H213249   2.476   0.275   4.151  0.0801 -1.1609  0.1020
 4429TIP3   OH213250   5.360   4.718   2.191  0.1623 -0.0840  0.2214
 4429TIP3    H113251   5.344   4.709   2.097  1.5427  2.0006 -0.2584
 4429TIP3    H213252   5.430   4.655   2.210  0.0200 -0.3615 -0.1569
 4430TIP3   OH213253   5.403   6.291   0.705 -0.8674  0.2532 -0.0668
 4430TIP3    H113254   5.412   6.213   0.650 -0.2790  0.5239 -0.3523
 4430TIP3    H213255   5.382   6.362   0.645  0.4327  0.6833 -0.0369
 4431TIP3   OH213256   3.001   5.399   4.890 -0.0353 -0.3019  0.6202
 4431TIP3    H113257   2.948   5.472   4.923  0.3988  0.0383  0.5706
 4431TIP3    H213258   3.085   5.408   4.934 -0.1485 -1.0914  1.0148
 4432TIP3   OH213259   2.481   1.976   1.655  0.5427 -0.2270 -0.2917
 4432TIP3    H113260   2.436   1.971   1.571  0.9442 -0.7783 -0.4731
 4432TIP3    H213261   2.486   1.886   1.685  1.2013 -0.1291 -0.0971
 4433TIP3   OH213262   7.182   2.546   4.423 -0.3889 -0.2682  0.0678
 4433TIP3    H113263   7.105   2.509   4.380 -0.1007 -0.6458 -0.1325
 4433TIP3    H213264   7.201   2.485   4.495 -1.5573  0.9598  1.4923
 4434TIP3   OH213265   4.758   5.430   3.322 -0.4837 -0.4972 -0.0495
 4434TIP3    H113266   4.813   5.356   3.349 -0.8787 -0.2128  1.6628
 4434TIP3    H213267   4.705   5.450   3.399 -3.0679 -0.7774 -1.6320
 4435TIP3   OH213268   0.467   4.949   3.525 -0.0659  0.1348  0.5138
 4435TIP3    H113269   0.463   5.009   3.450  0.5177 -0.2945  0.1272
 4435TIP3    H213270   0.558   4.954   3.554  0.3519 -1.5577 -0.3740
 4436TIP3   OH213271   4.359   0.491   0.305  0.3445 -0.1742 -0.9420
 4436TIP3    H113272   4.385   0.570   0.258  1.6742 -0.2968 -0.4708
 4436TIP3    H213273   4.290   0.520   0.364  2.7661  1.3973  1.3606
 4437TIP3   OH213274   6.301   6.085   4.594 -0.5690 -0.0675 -0.6165
 4437TIP3    H113275   6.324   6.004   4.549 -0.6662 -0.6387  0.3433
 4437TIP3    H213276   6.224   6.063   4.647  0.5638  0.1057  1.1854
 4438TIP3   OH213277   7.029   3.023   3.146  0.4627  0.0796  0.5928
 4438TIP3    H113278   6.968   3.094   3.125  1.8458  0.8562 -1.0149
 4438TIP3    H213279   7.077   3.055   3.223 -1.7766 -0.9911  2.5575
 4439TIP3   OH213280   6.859   3.254   2.730 -0.0393 -0.1306  0.7134
 4439TIP3    H113281   6.861   3.195   2.655 -1.0642 -0.2765  0.7830
 4439TIP3    H213282   6.816   3.203   2.799 -0.8420  0.6459  0.8023
 4440TIP3   OH213283   3.594   0.196   1.030 -0.1292  0.1392 -0.1898
 4440TIP3    H113284   3.687   0.179   1.043 -0.5729 -2.2583  0.4108
 4440TIP3    H213285   3.569   0.139   0.958 -1.5061 -0.8891  1.0295
 4441TIP3   OH213286   4.363   5.903   3.511 -0.1567 -0.0300 -0.4462
 4441TIP3    H113287   4.360   5.808   3.500  0.2259  0.0145 -0.9398
 4441TIP3    H213288   4.341   5.938   3.425  0.3856  0.3224 -0.4450
 4442TIP3   OH213289   3.151   5.917   2.081 -0.7140  0.4188 -0.4922
 4442TIP3    H113290   3.097   5.933   2.158 -1.7057  1.0269 -1.2927
 4442TIP3    H213291   3.088   5.902   2.010  0.1777 -0.4038 -1.1380
 4443TIP3   OH213292   1.827   2.535   1.483 -0.3136 -0.1130 -0.4039
 4443TIP3    H113293   1.860   2.501   1.566 -1.4436  1.7067  0.8627
 4443TIP3    H213294   1.856   2.626   1.481 -2.0019  0.4578 -1.0162
 4444TIP3   OH213295   6.055   6.748   2.488 -0.1402 -0.3584 -0.5973
 4444TIP3    H113296   5.998   6.714   2.420 -0.5126  0.6394 -0.8059
 4444TIP3    H213297   6.084   6.833   2.455  1.1158 -0.6479 -0.2951
 4445TIP3   OH213298   5.336   1.920   5.383 -0.4860  0.2985  0.8585
 4445TIP3    H113299   5.345   1.825   5.389 -0.4168  0.1321 -1.2076
 4445TIP3    H213300   5.426   1.952   5.374 -0.5903  0.4716  0.4562
 4446TIP3   OH213301   6.482   0.274   4.383 -0.1242 -0.5995 -0.2978
 4446TIP3    H113302   6.550   0.335   4.354 -0.1657  1.5881  3.4560
 4446TIP3    H213303   6.528   0.212   4.439 -0.9169 -0.1265  0.9190
 4447TIP3   OH213304   6.832   0.926   4.792 -0.0912 -0.0918  0.0808
 4447TIP3    H113305   6.832   0.978   4.711  0.2655 -0.3643 -0.0972
 4447TIP3    H213306   6.741   0.926   4.820 -0.1399  0.3964 -0.0709
 4448TIP3   OH213307   1.699   2.921   5.380  0.0462  0.5259  0.1720
 4448TIP3    H113308   1.770   2.862   5.407  0.0350 -0.2526 -1.3533
 4448TIP3    H213309   1.619   2.869   5.390  0.1388 -0.2185 -2.2822
 4449TIP3   OH213310   3.261   1.117   1.753  0.7804  0.5428 -0.2357
 4449TIP3    H113311   3.262   1.056   1.827 -3.5502 -0.3676 -0.6754
 4449TIP3    H213312   3.290   1.065   1.678 -0.1459 -0.1698 -0.1075
 4450TIP3   OH213313   3.871   5.130   1.964 -0.2324  0.2294 -0.3085
 4450TIP3    H113314   3.834   5.046   1.937 -0.8803  0.3823  0.0924
 4450TIP3    H213315   3.838   5.192   1.899 -0.7234  0.3753  0.0806
 4451TIP3   OH213316   6.648   1.013   1.278  0.3232 -0.0403 -0.1938
 4451TIP3    H113317   6.676   0.955   1.207 -2.3942 -0.0596 -1.3814
 4451TIP3    H213318   6.654   0.961   1.357 -0.3030 -1.3510 -0.9832
 4452TIP3   OH213319   3.310   0.925   3.315 -0.4076  0.2713 -0.1402
 4452TIP3    H113320   3.348   1.006   3.283  0.3461 -0.4906 -1.2595
 4452TIP3    H213321   3.253   0.895   3.243  0.2076 -0.7501 -0.2312
 4453TIP3   OH213322   3.781   2.617   3.643 -0.1513 -0.3163 -0.2629
 4453TIP3    H113323   3.846   2.682   3.670 -0.4137 -0.9814  2.2420
 4453TIP3    H213324   3.702   2.642   3.691 -0.8963 -1.2104 -0.9970
 4454TIP3   OH213325   0.782   6.497   0.382 -0.1933  0.4018  0.6482
 4454TIP3    H113326   0.824   6.453   0.308  0.6716  0.3640  1.1501
 4454TIP3    H213327   0.790   6.590   0.363 -1.6648  0.3672 -0.2188
 4455TIP3   OH213328   5.386   1.256   2.071 -0.5188 -0.2090 -0.0558
 4455TIP3    H113329   5.444   1.203   2.125 -0.5297 -1.6855 -1.4248
 4455TIP3    H213330   5.398   1.346   2.103  1.0615 -0.7462  0.9441
 4456TIP3   OH213331   5.599   4.104   0.877  0.4560  0.4220 -0.2960
 4456TIP3    H113332   5.690   4.089   0.902  0.9810  1.3378 -1.5614
 4456TIP3    H213333   5.548   4.050   0.938  1.7216  1.3104  1.6407
 4457TIP3   OH213334   5.503   2.146   4.553 -0.5338 -0.3973 -0.1228
 4457TIP3    H113335   5.459   2.147   4.638 -0.3344  0.7716 -0.0143
 4457TIP3    H213336   5.494   2.056   4.522 -1.0660 -0.7083  0.8967
 4458TIP3   OH213337   3.872   4.301   0.422  0.6999 -0.3044  0.5761
 4458TIP3    H113338   3.932   4.321   0.351  1.0861 -0.4977  0.8476
 4458TIP3    H213339   3.883   4.373   0.484 -0.6837  0.6405 -0.2101
 4459TIP3   OH213340   6.987   4.411   2.853  0.4392  0.2402  0.2553
 4459TIP3    H113341   6.989   4.327   2.899 -0.1443 -0.4454 -0.9143
 4459TIP3    H213342   6.966   4.475   2.921 -2.1045 -0.9381  0.7269
 4460TIP3   OH213343   4.092   1.283   3.094 -0.1968  0.4486  0.0858
 4460TIP3    H113344   4.154   1.234   3.039 -0.5604 -0.6974  0.6655
 4460TIP3    H213345   4.026   1.315   3.033 -0.1125 -0.0388 -0.2670
 4461TIP3   OH213346   3.801   3.656   3.105  0.1138  0.1108 -0.0803
 4461TIP3    H113347   3.838   3.576   3.069 -1.1361  0.1190 -1.4789
 4461TIP3    H213348   3.862   3.725   3.078  1.0515 -0.3076  0.9073
 4462TIP3   OH213349   2.288   3.645   1.160 -0.2319  0.0091  0.1551
 4462TIP3    H113350   2.355   3.618   1.097  1.0415 -0.0823  1.5146
 4462TIP3    H213351   2.297   3.583   1.233 -1.6685  0.1220  0.4571
 4463TIP3   OH213352   3.676   6.432   0.537  0.3997  0.1105  0.1419
 4463TIP3    H113353   3.765   6.467   0.539 -0.7388  3.3611 -0.0879
 4463TIP3    H213354   3.663   6.394   0.624  1.8838 -0.1803  0.2694
 4464TIP3   OH213355   1.970   6.112   4.207  0.5549  0.6038  0.3987
 4464TIP3    H113356   1.906   6.092   4.139 -1.7192  1.8267  2.0245
 4464TIP3    H213357   2.051   6.072   4.177 -0.6716 -0.0170 -2.3505
 4465TIP3   OH213358   0.932   4.526   0.573 -0.2427 -0.1177 -0.5632
 4465TIP3    H113359   0.996   4.525   0.502  1.6699  0.1626  1.0649
 4465TIP3    H213360   0.922   4.434   0.597  0.3780 -0.0717 -0.1215
 4466TIP3   OH213361   2.632   1.837   3.758  0.4427 -0.1946  0.0534
 4466TIP3    H113362   2.665   1.927   3.758 -1.5205  0.5989 -1.3551
 4466TIP3    H213363   2.639   1.809   3.667  0.1743 -1.1414  0.3160
 4467TIP3   OH213364   2.430   6.200   0.207 -0.2041  0.4109 -0.9268
 4467TIP3    H113365   2.515   6.218   0.166  0.4274 -0.5013 -0.0618
 4467TIP3    H213366   2.388   6.285   0.213  0.3234  0.7784 -2.0612
 4468TIP3   OH213367   4.624   1.262   2.707 -0.3609  0.2849 -0.7351
 4468TIP3    H113368   4.696   1.246   2.647  0.2447 -0.0734  0.0780
 4468TIP3    H213369   4.621   1.357   2.717 -0.0967  0.3075 -0.8758
 4469TIP3   OH213370   7.000   2.111   0.816 -0.0448 -0.1934  0.5437
 4469TIP3    H113371   6.957   2.193   0.843  0.3423  0.1805  0.0411
 4469TIP3    H213372   7.089   2.137   0.792 -0.3258 -0.5294 -0.9304
 4470TIP3   OH213373   6.396   5.514   5.835 -0.0565  0.5752 -0.4964
 4470TIP3    H113374   6.461   5.451   5.804 -1.3986 -2.5816  2.5224
 4470TIP3    H213375   6.313   5.466   5.835 -1.7559  3.2872 -0.7208
 4471TIP3   OH213376   2.289   3.176   2.457  0.8339  0.2137  0.2581
 4471TIP3    H113377   2.327   3.172   2.545  1.2574 -1.6462  0.0358
 4471TIP3    H213378   2.297   3.268   2.432  2.0047  0.5212  1.6050
 4472TIP3   OH213379   2.836   5.522   4.364  0.2044 -1.1250  0.2274
 4472TIP3    H113380   2.868   5.432   4.373  1.8741 -0.4547  1.3478
 4472TIP3    H213381   2.822   5.552   4.453 -0.9596 -0.4637 -0.1609
 4473TIP3   OH213382   3.115   6.040   1.366  0.2735  0.2581  0.4056
 4473TIP3    H113383   3.054   6.021   1.436  1.4647 -0.9116  1.1807
 4473TIP3    H213384   3.105   6.133   1.349 -0.1706  0.5271  2.0121
 4474TIP3   OH213385   7.150   3.128   2.112  0.0128  0.0656 -0.1985
 4474TIP3    H113386   7.055   3.128   2.123 -0.0737 -0.6254 -0.8915
 4474TIP3    H213387   7.182   3.063   2.175  0.0469  0.3921  0.1277
 4475TIP3   OH213388   2.357   5.932   4.885 -0.6260  0.0503  0.9601
 4475TIP3    H113389   2.362   5.990   4.809 -0.4195  0.8655  1.5787
 4475TIP3    H213390   2.298   5.862   4.858  0.4344 -0.3710 -0.3990
 4476TIP3   OH213391   2.476   6.051   1.790  0.0101 -0.3111  0.5168
 4476TIP3    H113392   2.468   6.038   1.884  1.2339 -0.8642  0.5576
 4476TIP3    H213393   2.433   5.975   1.751  0.6186 -0.7341  0.6571
 4477TIP3   OH213394   2.063   5.980   2.836 -0.4401 -0.8930 -0.3404
 4477TIP3    H113395   2.005   6.053   2.856 -0.7974 -1.5257  1.0605
 4477TIP3    H213396   2.133   6.019   2.784 -0.4470  0.5329  0.6520
 4478TIP3   OH213397   3.013   1.062   3.589  0.0241  0.1814 -0.1915
 4478TIP3    H113398   2.996   1.057   3.683 -1.6870  1.7700 -0.3706
 4478TIP3    H213399   3.071   0.988   3.571 -1.1373 -1.3020  1.7953
 4479TIP3   OH213400   1.173   0.556   5.135 -0.0277 -0.1124  0.2668
 4479TIP3    H113401   1.188   0.463   5.153 -1.6725 -0.5164 -0.2704
 4479TIP3    H213402   1.078   0.566   5.136  0.0748  1.3510 -0.7235
 4480TIP3   OH213403   5.469   2.907   3.063  0.0138 -0.1231  0.4593
 4480TIP3    H113404   5.434   2.867   3.142 -0.8061  0.2742  0.3083
 4480TIP3    H213405   5.501   2.993   3.092  0.6682 -0.3960  0.5547
 4481TIP3   OH213406   6.663   3.322   1.568 -0.1429  0.2030  0.1438
 4481TIP3    H113407   6.710   3.400   1.597  0.2248 -0.2792  0.8447
 4481TIP3    H213408   6.646   3.338   1.475  1.6352  0.2709 -0.1938
 4482TIP3   OH213409   7.057   3.375   5.272 -0.0258 -0.3790  0.5430
 4482TIP3    H113410   7.087   3.378   5.363 -1.1560  1.8371  0.8979
 4482TIP3    H213411   6.983   3.315   5.273  0.4784 -1.0090  0.8960
 4483TIP3   OH213412   1.068   5.397   1.048  0.3660  0.5154  0.1477
 4483TIP3    H113413   1.064   5.405   1.143  1.2031 -0.7242  0.3218
 4483TIP3    H213414   0.998   5.454   1.015 -1.9096 -1.2482  1.6349
 4484TIP3   OH213415   0.609   3.853   4.146  0.2260 -0.2596  0.2281
 4484TIP3    H113416   0.633   3.813   4.063 -0.2705 -1.3222  0.5828
 4484TIP3    H213417   0.513   3.856   4.145  0.2358  0.2517  0.5160
 4485TIP3   OH213418   4.478   4.209   2.823  0.2315 -0.4888 -0.1075
 4485TIP3    H113419   4.385   4.186   2.816 -0.1578 -0.2482  2.8378
 4485TIP3    H213420   4.487   4.289   2.770 -1.5683  0.2162  0.5744
 4486TIP3   OH213421   4.975   4.457   0.612 -0.0648 -0.7061  0.5321
 4486TIP3    H113422   4.965   4.388   0.677  2.1207  0.6158  2.4333
 4486TIP3    H213423   4.934   4.534   0.650 -0.8977 -0.4739 -0.7619
 4487TIP3   OH213424   3.504   6.454   1.612 -0.1739  0.7259  1.3834
 4487TIP3    H113425   3.586   6.422   1.648 -0.5941  1.0721  2.6918
 4487TIP3    H213426   3.530   6.524   1.551  0.6219 -0.7404 -0.0446
 4488TIP3   OH213427   3.097   5.233   1.862  0.1287 -0.3008 -0.4070
 4488TIP3    H113428   3.118   5.232   1.955 -1.8743  2.1588  0.1889
 4488TIP3    H213429   3.178   5.260   1.820  1.2387 -2.0279  0.4911
 4489TIP3   OH213430   1.498   5.998   5.625  0.5312  0.5714  0.0483
 4489TIP3    H113431   1.415   5.969   5.663 -0.5204  1.4178 -1.4987
 4489TIP3    H213432   1.514   6.084   5.665  0.9979  0.1541  0.7886
 4490TIP3   OH213433   5.008   2.799   2.070  0.6685 -0.0588  0.4650
 4490TIP3    H113434   5.080   2.781   2.009  1.4014  0.0465  1.2919
 4490TIP3    H213435   4.929   2.777   2.020  1.3229 -1.3987 -0.0149
 4491TIP3   OH213436   6.340   2.583   0.869  0.4188  0.0604 -0.3157
 4491TIP3    H113437   6.306   2.516   0.929 -0.2501  0.5485 -0.1448
 4491TIP3    H213438   6.423   2.611   0.909 -0.1035  0.5004  0.4781
 4492TIP3   OH213439   5.583   2.758   5.761 -0.3143  0.1014 -0.2237
 4492TIP3    H113440   5.629   2.767   5.677  1.3454  1.4242  0.7407
 4492TIP3    H213441   5.648   2.786   5.826 -0.8066 -2.8768  1.7513
 4493TIP3   OH213442   4.550   1.088   1.171 -0.2558  0.2689  0.2478
 4493TIP3    H113443   4.488   1.083   1.244 -0.2775  0.9324  0.2781
 4493TIP3    H213444   4.603   1.166   1.189  1.2097 -0.7904  0.6921
 4494TIP3   OH213445   0.930   0.507   2.157  0.2086  0.5133 -0.3395
 4494TIP3    H113446   0.942   0.491   2.063 -2.3249  0.6252 -0.7668
 4494TIP3    H213447   1.018   0.520   2.191  1.2127  0.3135 -2.6747
 4495TIP3   OH213448   3.262   6.316   4.975 -0.0941  0.5620 -0.3180
 4495TIP3    H113449   3.275   6.228   4.940  0.1120  0.5049 -0.0998
 4495TIP3    H213450   3.289   6.310   5.067 -1.1041  0.5864 -0.0033
 4496TIP3   OH213451   6.216   2.252   5.190 -0.3065  0.2482 -0.3849
 4496TIP3    H113452   6.306   2.220   5.193  0.1878  1.5946 -0.2559
 4496TIP3    H213453   6.202   2.276   5.098 -1.0673 -1.3467 -0.7237
 4497TIP3   OH213454   6.860   3.534   5.802 -0.3204 -0.5804  0.5172
 4497TIP3    H113455   6.939   3.583   5.780 -0.8880  0.4209  0.6602
 4497TIP3    H213456   6.809   3.593   5.857 -1.6219 -0.8282 -0.3647
 4498TIP3   OH213457   5.020   4.177   3.395  0.4162 -0.2980 -0.1740
 4498TIP3    H113458   4.951   4.238   3.422  1.9621  1.9700 -1.0274
 4498TIP3    H213459   5.049   4.135   3.476 -0.9080 -0.1425  0.3922
 4499TIP3   OH213460   4.397   1.033   2.793  0.2615 -0.1014  0.3442
 4499TIP3    H113461   4.468   1.020   2.857 -0.5782  1.4655  1.6722
 4499TIP3    H213462   4.322   0.988   2.832 -0.3019  1.0139  0.5690
 4500TIP3   OH213463   2.460   6.006   0.645  0.5250 -0.1227  0.4673
 4500TIP3    H113464   2.537   5.964   0.608  0.5810 -0.8519  1.3717
 4500TIP3    H213465   2.409   6.035   0.569  1.6778  0.3743 -0.1358
 4501TIP3   OH213466   3.344   0.726   5.313 -0.4222 -0.5963 -0.5820
 4501TIP3    H113467   3.276   0.742   5.378 -1.0447  0.1306 -1.3728
 4501TIP3    H213468   3.299   0.736   5.229  0.3421 -1.5876 -1.1267
 4502TIP3   OH213469   3.725   1.150   2.005 -0.1036 -0.3481  0.3795
 4502TIP3    H113470   3.671   1.103   1.941 -1.4433  0.7903  0.6172
 4502TIP3    H213471   3.665   1.215   2.043  1.2489  0.4496  1.2156
 4503TIP3   OH213472   1.308   4.259   5.742  0.2261  0.1025 -0.2663
 4503TIP3    H113473   1.215   4.236   5.740  0.7457 -2.1527 -1.2629
 4503TIP3    H213474   1.323   4.304   5.658  0.2673 -0.5451 -0.6070
 4504TIP3   OH213475   1.383   0.941   4.719  0.8121  0.2623  0.3709
 4504TIP3    H113476   1.372   0.981   4.805  2.3683  0.5231  0.4839
 4504TIP3    H213477   1.473   0.963   4.694  0.0839  1.0718 -1.7791
 4505TIP3   OH213478   0.144   0.591   3.556 -0.2964  0.0819 -0.3968
 4505TIP3    H113479   0.092   0.519   3.592  1.8938 -0.9732  0.8205
 4505TIP3    H213480   0.096   0.670   3.582 -0.7921 -0.8071  1.5796
 4506TIP3   OH213481   1.854   6.049   4.433 -0.1721 -0.2411  0.0085
 4506TIP3    H113482   1.817   6.133   4.459  0.9730 -0.0630  1.1282
 4506TIP3    H213483   1.886   6.063   4.344 -2.7423 -0.4118 -1.0421
 4507TIP3   OH213484   3.387   0.581   0.055 -0.5399  0.1400  0.1791
 4507TIP3    H113485   3.306   0.554   0.012 -0.3239  0.1048 -0.2110
 4507TIP3    H213486   3.360   0.647   0.120 -1.2102 -1.5916  1.7629
 4508TIP3   OH213487   3.080   1.135   5.290 -0.0483  0.0953 -0.1919
 4508TIP3    H113488   3.106   1.210   5.237 -0.6268 -0.2873 -1.0440
 4508TIP3    H213489   3.046   1.071   5.227 -1.1890 -0.1914  0.6795
 4509TIP3   OH213490   0.716   1.254   3.521 -0.0048 -0.1118 -0.4500
 4509TIP3    H113491   0.799   1.301   3.523 -0.2361  0.3130 -0.8105
 4509TIP3    H213492   0.735   1.172   3.475  0.5753 -0.7344  0.8228
 4510TIP3   OH213493   5.049   4.502   2.340 -0.0585  0.2416  0.0874
 4510TIP3    H113494   5.065   4.566   2.270 -0.1684 -0.1261 -0.2736
 4510TIP3    H213495   4.954   4.499   2.348 -0.0395  0.5580  0.5132
 4511TIP3   OH213496   4.886   3.869   4.649  0.1317 -0.0377 -0.2701
 4511TIP3    H113497   4.928   3.869   4.563  2.8857  0.0304  0.9689
 4511TIP3    H213498   4.880   3.777   4.673  0.1214 -0.0167 -0.1916
 4512TIP3   OH213499   1.589   3.670   2.071  0.1935 -0.0589  0.0446
 4512TIP3    H113500   1.649   3.737   2.104 -0.2338  0.1945  0.3130
 4512TIP3    H213501   1.641   3.621   2.007  1.0688 -0.6281  1.1549
 4513TIP3   OH213502   0.972   4.525   3.830 -0.1142 -0.1052 -0.1435
 4513TIP3    H113503   1.038   4.594   3.823  0.7824 -0.8694  0.5745
 4513TIP3    H213504   0.917   4.536   3.752  0.6021  0.8026 -0.5307
 4514TIP3   OH213505   3.689   3.705   4.766  0.0683  0.2913  0.3028
 4514TIP3    H113506   3.767   3.682   4.714 -1.1295  0.4055 -1.6497
 4514TIP3    H213507   3.724   3.753   4.841  1.8458  0.7638 -0.7583
 4515TIP3   OH213508   2.844   1.503   3.265  0.1475 -0.8507  0.3941
 4515TIP3    H113509   2.935   1.507   3.236 -0.6617 -0.4013 -2.3046
 4515TIP3    H213510   2.812   1.418   3.236 -0.6802 -0.4381  0.0720
 4516TIP3   OH213511   0.235   0.899   1.994 -0.2322  0.3911  0.0971
 4516TIP3    H113512   0.316   0.947   1.979 -0.3691  1.2705  1.8658
 4516TIP3    H213513   0.166   0.964   1.982 -0.5473  0.1639  0.6396
 4517TIP3   OH213514   5.049   4.670   2.108  0.3530  0.2436 -0.1916
 4517TIP3    H113515   5.019   4.754   2.073 -0.4308  0.0832  0.0740
 4517TIP3    H213516   4.979   4.608   2.086  2.5157 -1.2143 -3.7260
 4518TIP3   OH213517   2.112   3.744   1.427  0.3983 -0.0020  0.4173
 4518TIP3    H113518   2.034   3.790   1.460  0.7512  2.0128 -1.3625
 4518TIP3    H213519   2.080   3.659   1.400 -1.0673  0.5502  0.3390
 4519TIP3   OH213520   5.498   2.387   4.167 -0.0612 -0.6391  0.0047
 4519TIP3    H113521   5.404   2.393   4.178 -0.0170  1.5037 -0.2969
 4519TIP3    H213522   5.534   2.406   4.254  0.0752  1.4228 -0.4420
 4520TIP3   OH213523   6.349   0.318   0.165 -0.1982  0.5636 -0.5741
 4520TIP3    H113524   6.427   0.369   0.143 -0.3938  0.9622 -0.3523
 4520TIP3    H213525   6.325   0.273   0.084 -1.4091  2.6670 -1.4494
 4521TIP3   OH213526   2.768   5.752   3.598  0.3723  0.2870 -0.4206
 4521TIP3    H113527   2.824   5.822   3.565  0.0709  0.2631 -0.9914
 4521TIP3    H213528   2.695   5.797   3.640 -0.0595  0.3242 -1.1945
 4522TIP3   OH213529   4.648   1.688   2.499 -0.3115 -0.0661  0.5289
 4522TIP3    H113530   4.733   1.732   2.494 -0.0751 -0.6188 -1.2626
 4522TIP3    H213531   4.656   1.627   2.573  1.0232 -0.4301  0.1034
 4523TIP3   OH213532   7.124   6.798   5.325  0.2079 -0.4444 -0.0762
 4523TIP3    H113533   7.052   6.783   5.386 -1.9258  2.2063 -1.6924
 4523TIP3    H213534   7.081   6.824   5.244  2.9595  1.8948 -0.9633
 4524TIP3   OH213535   4.365   4.658   0.411 -0.1481 -0.4182  0.2281
 4524TIP3    H113536   4.315   4.605   0.349 -0.5967 -0.3917  0.5576
 4524TIP3    H213537   4.314   4.653   0.492  0.3493 -0.3277  0.5484
 4525TIP3   OH213538   5.101   2.082   2.031 -0.1585  0.0653  0.1630
 4525TIP3    H113539   5.053   2.048   2.106  0.4120 -0.2756  0.3842
 4525TIP3    H213540   5.047   2.059   1.955 -1.0323  0.9386  0.4980
 4526TIP3   OH213541   1.764   4.514   3.755 -0.0986  0.1740 -0.1445
 4526TIP3    H113542   1.834   4.531   3.692  1.5872  0.0234  1.6098
 4526TIP3    H213543   1.721   4.599   3.767 -1.4619 -0.0689 -2.5305
 4527TIP3   OH213544   3.211   5.028   3.910  0.1323 -0.5698 -0.2579
 4527TIP3    H113545   3.210   4.935   3.933 -0.1410 -0.6830 -0.7178
 4527TIP3    H213546   3.197   5.029   3.815 -4.2464  0.1104  0.2044
 4528TIP3   OH213547   0.704   4.107  -0.008  0.1133 -0.0352 -0.2816
 4528TIP3    H113548   0.742   4.131   0.077  0.5501  0.6113 -0.6545
 4528TIP3    H213549   0.712   4.011  -0.011  0.1748 -0.0555  0.3662
 4529TIP3   OH213550   6.086   4.080   4.327 -0.6143 -0.0336  0.0841
 4529TIP3    H113551   6.021   4.010   4.333 -1.9494  1.1321 -0.3417
 4529TIP3    H213552   6.087   4.119   4.415  0.2419 -0.6677  0.3654
 4530TIP3   OH213553   1.629   3.322   0.238  0.2738 -0.5739  0.7128
 4530TIP3    H113554   1.594   3.248   0.189 -0.4463  0.2394 -0.0361
 4530TIP3    H213555   1.724   3.310   0.233  0.3326  0.2372 -2.2173
 4531TIP3   OH213556   0.805   0.115   1.218  0.8882 -0.5486 -0.1774
 4531TIP3    H113557   0.733   0.134   1.158 -0.8556 -0.4503  1.8426
 4531TIP3    H213558   0.808   0.020   1.222  1.1672 -0.5611 -0.5608
 4532TIP3   OH213559   2.442   0.889   0.800  0.0012  0.0739  0.1877
 4532TIP3    H113560   2.407   0.953   0.737 -0.2139 -0.3139 -0.0901
 4532TIP3    H213561   2.450   0.938   0.882 -0.5971  0.3363  0.0922
 4533TIP3   OH213562   1.683   4.119   5.258  0.0907 -0.0004  0.0925
 4533TIP3    H113563   1.659   4.092   5.347 -1.0095  1.8196  0.4070
 4533TIP3    H213564   1.636   4.058   5.202  1.8515 -2.0328  0.6844
 4534TIP3   OH213565   1.872   1.003   0.834  0.0509 -0.1954 -0.0353
 4534TIP3    H113566   1.842   1.042   0.752 -1.9766  1.5089  1.3901
 4534TIP3    H213567   1.916   0.922   0.809  0.1993  0.6620 -2.8239
 4535TIP3   OH213568   1.317   0.213   4.033 -0.2509 -0.1688 -0.8942
 4535TIP3    H113569   1.388   0.258   3.987 -1.4466  2.6910 -0.1627
 4535TIP3    H213570   1.277   0.157   3.966  1.6729 -0.6364 -1.7174
 4536TIP3   OH213571   5.354   6.347   1.397 -0.8568 -0.6814  0.4587
 4536TIP3    H113572   5.323   6.323   1.309 -0.8671  1.1642 -0.0780
 4536TIP3    H213573   5.424   6.285   1.415 -2.5993 -2.8331  0.3053
 4537TIP3   OH213574   4.853   3.092   5.324  0.5145  0.0208  0.5176
 4537TIP3    H113575   4.873   3.028   5.393 -0.0921 -0.9414 -0.1581
 4537TIP3    H213576   4.759   3.110   5.335 -0.2972 -2.1698 -1.5742
 4538TIP3   OH213577   2.651   2.180   4.593 -0.0066  0.3132 -0.7535
 4538TIP3    H113578   2.564   2.199   4.629  0.9101  1.1198  1.2102
 4538TIP3    H213579   2.696   2.134   4.663  0.7411 -1.3562 -2.2614
 4539TIP3   OH213580   0.670   4.005   3.221  0.1028  0.4636  0.0496
 4539TIP3    H113581   0.728   4.068   3.178 -0.6748  2.0036  1.1687
 4539TIP3    H213582   0.726   3.929   3.239  0.6069 -0.0753 -3.1089
 4540TIP3   OH213583   3.444   0.262   5.264  0.0168  0.1234  0.1140
 4540TIP3    H113584   3.502   0.333   5.237  1.1964  0.0452  2.2250
 4540TIP3    H213585   3.369   0.268   5.204  1.5080  1.1463 -1.7544
 4541TIP3   OH213586   3.933   0.223   2.153  0.1304  0.2593 -0.1346
 4541TIP3    H113587   3.923   0.291   2.088 -1.2766 -1.1149 -1.4398
 4541TIP3    H213588   4.012   0.176   2.127  0.0842  0.2822 -0.3143
 4542TIP3   OH213589   4.471   1.878   5.573 -0.0662 -0.0798 -0.3151
 4542TIP3    H113590   4.428   1.960   5.551  1.2737  0.2242 -2.0254
 4542TIP3    H213591   4.562   1.902   5.589  0.5660 -1.3364 -1.8393
 4543TIP3   OH213592   1.244   4.667   3.634 -0.1267  0.2248 -0.7555
 4543TIP3    H113593   1.316   4.729   3.639 -1.0328  1.1960  1.1061
 4543TIP3    H213594   1.169   4.713   3.673 -2.2764 -0.1088 -4.0136
 4544TIP3   OH213595   2.330   4.072   5.673 -0.0176 -0.3626 -0.0187
 4544TIP3    H113596   2.301   3.994   5.626 -0.9875 -0.5705  0.9120
 4544TIP3    H213597   2.255   4.131   5.671  0.2108 -0.0417  0.5505
 4545TIP3   OH213598   2.718   0.766   5.520  0.4127 -0.1079 -0.1559
 4545TIP3    H113599   2.718   0.832   5.589  0.7171  2.4635 -2.4377
 4545TIP3    H213600   2.767   0.807   5.448  1.3756 -3.2039 -1.4176
 4546TIP3   OH213601   6.063   0.683   1.963 -0.0556  0.2787 -0.1397
 4546TIP3    H113602   6.148   0.715   1.934 -0.7921  0.3826 -2.3243
 4546TIP3    H213603   6.083   0.612   2.023  1.5590  1.1982  0.4651
 4547TIP3   OH213604   3.309   3.906   0.306  0.4352  0.3045 -0.4103
 4547TIP3    H113605   3.360   3.936   0.381  0.3482 -0.5417  0.0021
 4547TIP3    H213606   3.373   3.903   0.234  0.3660  1.7873 -0.5711
 4548TIP3   OH213607   5.193   5.639   2.449 -0.5841 -0.3371 -0.6017
 4548TIP3    H113608   5.205   5.691   2.528  0.1449 -0.5186 -0.5853
 4548TIP3    H213609   5.139   5.565   2.477  0.7338 -1.0803  0.0302
 4549TIP3   OH213610   0.811   4.815   4.754  0.3467 -0.6783  0.6367
 4549TIP3    H113611   0.895   4.772   4.773  0.9503  1.1727  2.6939
 4549TIP3    H213612   0.764   4.813   4.838 -2.0223 -2.2360 -0.6186
 4550TIP3   OH213613   4.681   4.328   1.876  0.0075  0.2421 -0.4217
 4550TIP3    H113614   4.683   4.258   1.941 -0.7739 -0.3763 -1.0392
 4550TIP3    H213615   4.598   4.373   1.893  0.3417  0.7948 -0.2547
 4551TIP3   OH213616   3.553   2.343   4.425 -0.5624  0.0030 -0.4044
 4551TIP3    H113617   3.606   2.417   4.453  0.0081 -1.4784  2.8135
 4551TIP3    H213618   3.582   2.326   4.335  4.0248 -0.2860  0.8955
 4552TIP3   OH213619   7.218   5.900   3.806  0.5102 -0.0462  0.7729
 4552TIP3    H113620   7.197   5.987   3.772  0.4130 -0.4086 -0.1251
 4552TIP3    H213621   7.138   5.849   3.791  1.0709 -0.6867 -0.1009
 4553TIP3   OH213622   6.532   0.133   4.735  0.0142  0.2761  0.2466
 4553TIP3    H113623   6.594   0.071   4.774  0.5434 -0.0355 -1.0430
 4553TIP3    H213624   6.554   0.134   4.642 -0.8132  1.4593  0.0387
 4554TIP3   OH213625   4.957   1.064   4.429 -0.0798  0.6277 -0.4092
 4554TIP3    H113626   4.870   1.079   4.392 -1.0024  0.4735  1.5674
 4554TIP3    H213627   4.957   0.970   4.450 -0.6402  1.1402  2.2966
 4555TIP3   OH213628   1.652   3.339   4.605 -0.4497 -0.1476  0.0906
 4555TIP3    H113629   1.684   3.334   4.695 -0.5498  0.1386  0.1423
 4555TIP3    H213630   1.563   3.374   4.612  0.3334  2.0281 -0.2705
 4556TIP3   OH213631   2.237   0.385   5.466 -0.2579 -0.5300 -0.4482
 4556TIP3    H113632   2.315   0.408   5.517  1.2068 -0.2722 -2.6769
 4556TIP3    H213633   2.239   0.289   5.461  0.8003 -0.4692 -1.7211
 4557TIP3   OH213634   4.730   0.158   4.902  0.1882 -0.5039 -0.4561
 4557TIP3    H113635   4.762   0.155   4.993  2.3216 -0.4400 -1.1540
 4557TIP3    H213636   4.692   0.245   4.894 -1.2212 -0.9543  0.7034
 4558TIP3   OH213637   1.042   1.502   2.006 -0.1722 -0.0365 -0.0513
 4558TIP3    H113638   0.993   1.423   2.029 -0.0095 -0.7035 -1.8573
 4558TIP3    H213639   1.057   1.494   1.912  2.1401  0.8606  0.1830
 4559TIP3   OH213640   4.261   5.695   0.314  0.2862  0.4699  0.2355
 4559TIP3    H113641   4.279   5.671   0.405 -0.6171 -0.7058  0.1332
 4559TIP3    H213642   4.177   5.741   0.317 -0.7584 -1.2978 -0.1795
 4560TIP3   OH213643   2.883   1.219   0.495 -0.2076  0.3631 -0.3785
 4560TIP3    H113644   2.876   1.312   0.476 -1.2959  0.0521 -1.6170
 4560TIP3    H213645   2.801   1.198   0.540  0.2501  0.0900  0.3488
 4561TIP3   OH213646   5.264   0.719   4.784 -0.7133  0.2272  0.0412
 4561TIP3    H113647   5.358   0.728   4.770 -1.0805 -0.0603 -3.3488
 4561TIP3    H213648   5.254   0.629   4.818  0.1888  0.1174  0.0480
 4562TIP3   OH213649   6.556   0.162   2.870 -0.2308 -0.1729 -0.3423
 4562TIP3    H113650   6.548   0.230   2.804 -1.1128  1.2077  1.1172
 4562TIP3    H213651   6.466   0.136   2.890  0.0818 -1.5974 -0.6801
 4563TIP3   OH213652   4.637   1.691   3.140 -0.0019 -0.5514  0.0971
 4563TIP3    H113653   4.721   1.663   3.175 -0.1519 -1.5371 -0.2799
 4563TIP3    H213654   4.657   1.765   3.083  0.4638 -0.0797  0.8706
 4564TIP3   OH213655   4.981   4.272   2.120  0.3938  0.3167 -0.8265
 4564TIP3    H113656   4.929   4.348   2.146  0.1795 -0.1781  0.2249
 4564TIP3    H213657   4.936   4.197   2.159  1.0842 -0.2720 -1.1345
 4565TIP3   OH213658   6.417   6.755   1.479  0.1103 -0.2973 -0.2560
 4565TIP3    H113659   6.508   6.727   1.479  0.3319  0.3247 -1.5521
 4565TIP3    H213660   6.381   6.716   1.399 -0.5402  0.1191 -0.1690
 4566TIP3   OH213661   2.977   2.379   2.270  0.1242 -0.8877 -0.2455
 4566TIP3    H113662   2.927   2.455   2.241 -0.9877 -1.3104  0.4674
 4566TIP3    H213663   3.052   2.375   2.211 -1.4030 -1.0345 -2.2895
 4567TIP3   OH213664   0.671   0.101   2.588  0.2384 -0.1757 -0.3227
 4567TIP3    H113665   0.726   0.030   2.556 -0.4422 -0.7078 -0.3328
 4567TIP3    H213666   0.727   0.179   2.583  1.2986 -0.8446  0.5434
 4568TIP3   OH213667   1.867   0.520   3.697  0.0746  0.2492 -0.3319
 4568TIP3    H113668   1.815   0.440   3.695 -1.6560  1.2311  1.4337
 4568TIP3    H213669   1.831   0.575   3.628  1.9894 -0.8128 -2.2969
 4569TIP3   OH213670   1.658   5.855   4.424  0.4630  0.4370 -0.1275
 4569TIP3    H113671   1.733   5.911   4.442 -0.1921  0.9280  1.1740
 4569TIP3    H213672   1.608   5.854   4.505  0.2281 -1.7145 -0.2257
 4570TIP3   OH213673   0.475   2.257   3.439 -0.1230 -0.2540 -0.2139
 4570TIP3    H113674   0.428   2.304   3.371  2.0814  0.1456 -1.5726
 4570TIP3    H213675   0.407   2.217   3.493 -2.0194  2.2248 -0.6199
 4571TIP3   OH213676   2.098   2.488   4.084  0.0533  0.2485  0.4646
 4571TIP3    H113677   2.012   2.531   4.088 -0.3117 -0.2200 -1.3327
 4571TIP3    H213678   2.155   2.553   4.043  0.0632 -0.1056 -0.1069
 4572TIP3   OH213679   7.000   4.992   2.818  0.2434 -0.3218  0.3650
 4572TIP3    H113680   6.957   4.991   2.903 -0.2398 -2.7398  0.1683
 4572TIP3    H213681   7.039   5.079   2.811 -2.2109  0.9845  1.7662
 4573TIP3   OH213682   4.664   5.405   0.597  0.4639 -0.2714  0.3477
 4573TIP3    H113683   4.631   5.340   0.535  1.4309 -1.9583  1.5259
 4573TIP3    H213684   4.594   5.415   0.661  0.6113 -0.7523  0.5881
 4574TIP3   OH213685   6.534   6.407   1.782 -0.2479  0.4009 -0.4030
 4574TIP3    H113686   6.485   6.412   1.700  0.3506  1.0422 -0.7372
 4574TIP3    H213687   6.626   6.410   1.755 -0.0291  2.6515  0.3603
 4575TIP3   OH213688   5.299   2.434   1.477  0.4718 -0.2200 -0.5229
 4575TIP3    H113689   5.259   2.467   1.558  2.4636  2.8963 -0.6313
 4575TIP3    H213690   5.239   2.460   1.408 -0.2864 -1.1739 -0.2497
 4576TIP3   OH213691   3.801   6.606   3.733 -0.5536 -0.2604  0.4358
 4576TIP3    H113692   3.800   6.510   3.730  0.2014 -0.2555 -0.4837
 4576TIP3    H213693   3.869   6.627   3.796 -0.0538 -0.3326 -0.0746
 4577TIP3   OH213694   1.065   4.526   1.945  0.3963  0.6451  0.4506
 4577TIP3    H113695   1.080   4.436   1.918 -0.2317  0.6945 -0.0789
 4577TIP3    H213696   0.999   4.520   2.015  0.0622  0.7221  0.1438
 4578TIP3   OH213697   0.272   0.256   2.759  0.1462  0.2104 -0.1717
 4578TIP3    H113698   0.274   0.248   2.855  1.6476  0.5383 -0.1539
 4578TIP3    H213699   0.322   0.180   2.728  1.8060  1.4380 -0.5809
 4579TIP3   OH213700   5.100   1.260   1.439  0.3865 -0.1557 -0.2342
 4579TIP3    H113701   5.123   1.332   1.497 -0.4140  0.3109 -0.4802
 4579TIP3    H213702   5.129   1.181   1.485 -0.4298  0.1856  0.8951
 4580TIP3   OH213703   4.425   0.495   4.172  0.2475 -0.3857 -0.6353
 4580TIP3    H113704   4.359   0.512   4.239  1.8387  0.8357  0.7021
 4580TIP3    H213705   4.509   0.512   4.215  1.3533  0.5873 -2.9659
 4581TIP3   OH213706   1.845   5.224   1.710  0.1250 -0.3194 -0.2298
 4581TIP3    H113707   1.914   5.261   1.655  0.7956 -0.5195  0.4659
 4581TIP3    H213708   1.820   5.143   1.665  1.6145 -1.1836  0.4301
 4582TIP3   OH213709   5.170   1.065   2.777 -0.2782  0.1459  0.1243
 4582TIP3    H113710   5.144   0.984   2.732  0.3520 -0.6836  1.2072
 4582TIP3    H213711   5.239   1.038   2.837 -1.1112  1.1986  1.6268
 4583TIP3   OH213712   2.177   4.869   3.802  0.0215 -0.3813  0.2608
 4583TIP3    H113713   2.207   4.944   3.751 -0.4918 -1.3783 -1.6001
 4583TIP3    H213714   2.146   4.906   3.884  1.4201  1.2327  0.1193
 4584TIP3   OH213715   4.408   2.851   3.596 -0.5962  0.1143  0.3995
 4584TIP3    H113716   4.457   2.813   3.669 -0.2482 -0.8710 -0.3321
 4584TIP3    H213717   4.342   2.786   3.575 -0.6087  0.3307 -0.2466
 4585TIP3   OH213718   6.538   5.520   0.330 -0.2352  0.4836 -0.5784
 4585TIP3    H113719   6.470   5.551   0.271 -0.1236  0.0453 -0.9473
 4585TIP3    H213720   6.617   5.520   0.277 -0.0439  0.5210 -0.2939
 4586TIP3   OH213721   5.938   4.334   0.808 -0.1740 -1.2489  0.4006
 4586TIP3    H113722   5.862   4.389   0.826 -0.4223 -0.7189 -1.9421
 4586TIP3    H213723   6.013   4.388   0.835 -0.5131 -0.6499  0.1594
 4587TIP3   OH213724   4.320   2.322   3.196 -0.0051  0.3165  0.3394
 4587TIP3    H113725   4.250   2.372   3.155  0.5273 -0.5539 -1.7549
 4587TIP3    H213726   4.289   2.232   3.195  0.6918  0.0686  0.3840
 4588TIP3   OH213727   4.159   0.363   1.858  0.0262  0.0506  0.3550
 4588TIP3    H113728   4.083   0.344   1.912  1.1374 -1.4222  1.4987
 4588TIP3    H213729   4.127   0.424   1.791 -2.3223 -1.1307  0.3089
 4589TIP3   OH213730   0.180   6.325   4.197  0.1547  0.4858 -0.0553
 4589TIP3    H113731   0.163   6.321   4.291  1.3551 -0.2313  0.1463
 4589TIP3    H213732   0.149   6.241   4.163  1.0793  0.1243 -0.0463
 4590TIP3   OH213733   5.951   6.385   0.692 -0.0709 -0.2707 -0.3178
 4590TIP3    H113734   6.046   6.387   0.703 -0.0896 -0.5789 -0.0669
 4590TIP3    H213735   5.916   6.387   0.782 -0.3197  0.4550 -0.4237
 4591TIP3   OH213736   2.914   2.238   3.972  0.0247  0.4936 -0.6281
 4591TIP3    H113737   2.982   2.284   4.021 -0.3062  0.3941 -0.0691
 4591TIP3    H213738   2.962   2.174   3.919  0.3781  0.5801 -0.4149
 4592TIP3   OH213739   4.895   0.231   5.362 -0.1613 -0.5099 -0.3998
 4592TIP3    H113740   4.990   0.226   5.348  0.4001 -2.1004  2.9502
 4592TIP3    H213741   4.883   0.301   5.426 -0.8781 -1.9478  1.1237
 4593TIP3   OH213742   6.286   5.344   1.495 -0.2729  0.5049 -0.8700
 4593TIP3    H113743   6.249   5.333   1.582  0.1396 -0.0926 -0.7656
 4593TIP3    H213744   6.319   5.434   1.494 -1.8260  1.0898 -1.0186
 4594TIP3   OH213745   3.250   5.252   4.633 -0.3135  0.2247  0.3174
 4594TIP3    H113746   3.225   5.338   4.600 -0.8298 -0.1494 -0.2901
 4594TIP3    H213747   3.174   5.197   4.614 -0.1555 -0.2622  1.0941
 4595TIP3   OH213748   6.612   1.294   1.764  0.4902 -0.0632  0.2491
 4595TIP3    H113749   6.633   1.387   1.755  1.0083 -0.2986 -1.2173
 4595TIP3    H213750   6.636   1.273   1.854 -1.3473  1.6248  1.2086
 4596TIP3   OH213751   1.764   6.001   2.069 -0.1907 -0.3255  0.0885
 4596TIP3    H113752   1.683   5.984   2.022  0.2508 -0.8901 -0.4979
 4596TIP3    H213753   1.833   5.980   2.005  0.4565 -2.1803  1.3263
 4597TIP3   OH213754   2.534   0.253   2.240  0.1880 -0.1285  0.1455
 4597TIP3    H113755   2.487   0.182   2.284  2.2956 -2.6846 -1.4077
 4597TIP3    H213756   2.534   0.228   2.148  3.1876  0.4834 -0.1218
 4598TIP3   OH213757   5.126   5.157   0.263  0.0176  0.2061  0.0617
 4598TIP3    H113758   5.101   5.143   0.172 -0.4792  0.1753  0.2002
 4598TIP3    H213759   5.222   5.152   0.263 -0.0316 -0.9621 -0.2546
 4599TIP3   OH213760   4.955   0.833   5.140 -0.4930 -0.1735  0.7396
 4599TIP3    H113761   4.942   0.915   5.092  2.0144 -0.1027  0.0498
 4599TIP3    H213762   4.949   0.859   5.232  0.3766  0.8194  0.5353
 4600TIP3   OH213763   3.470   0.039   1.489 -0.0468  0.3624  0.5344
 4600TIP3    H113764   3.441   0.004   1.405  0.3960 -0.4361  0.7050
 4600TIP3    H213765   3.565   0.045   1.482 -0.1144  1.7541  0.4421
 4601TIP3   OH213766   5.810   3.954   0.406 -0.2969 -0.0577  0.4797
 4601TIP3    H113767   5.721   3.942   0.374 -0.3300  0.9191  0.1555
 4601TIP3    H213768   5.805   3.940   0.500 -0.8186  0.0896  0.4733
 4602TIP3   OH213769   3.241   5.939   3.110  0.0830  0.4943 -0.5954
 4602TIP3    H113770   3.207   5.850   3.115 -1.1300  1.0146  1.8155
 4602TIP3    H213771   3.334   5.927   3.089  0.1685 -1.4162  0.5991
 4603TIP3   OH213772   4.442   5.821   5.367  0.1707  0.0252  0.4235
 4603TIP3    H113773   4.373   5.760   5.341  0.5896 -1.4598  2.5372
 4603TIP3    H213774   4.520   5.790   5.321  0.0436  0.0095  0.2133
 4604TIP3   OH213775   1.619   1.286   1.654  0.0314  0.2077 -0.3411
 4604TIP3    H113776   1.675   1.208   1.656 -0.5962 -0.2622  2.4498
 4604TIP3    H213777   1.674   1.356   1.689 -0.2315  0.4000 -0.3134
 4605TIP3   OH213778   3.415   1.155   3.241 -0.2772  0.2424 -0.4456
 4605TIP3    H113779   3.368   1.226   3.284 -0.3088  0.2193 -0.4420
 4605TIP3    H213780   3.382   1.156   3.151 -2.7856 -1.8770  0.2999
 4606TIP3   OH213781   1.660   0.844   2.574  0.1061 -0.3352  0.0279
 4606TIP3    H113782   1.597   0.861   2.644  2.1786 -0.1562  1.9757
 4606TIP3    H213783   1.678   0.750   2.581 -0.5170 -0.5450 -1.0496
 4607TIP3   OH213784   6.521   4.990   0.324  0.3531 -0.2258  0.1877
 4607TIP3    H113785   6.521   4.912   0.268  1.3343  0.2736 -0.5327
 4607TIP3    H213786   6.514   5.064   0.263  2.2416  0.3611  0.6217
 4608TIP3   OH213787   5.433   4.051   4.749 -0.4655 -0.1743 -0.3630
 4608TIP3    H113788   5.381   4.004   4.814  1.1932 -0.2892  0.9525
 4608TIP3    H213789   5.485   4.113   4.801 -0.0828  0.6759 -1.7224
 4609TIP3   OH213790   3.335   3.566   0.945 -0.9833  0.4134  0.7075
 4609TIP3    H113791   3.244   3.537   0.936 -0.8788  0.0372  0.8231
 4609TIP3    H213792   3.330   3.643   1.001 -1.0875 -0.5545  2.0890
 4610TIP3   OH213793   1.221   2.455   2.573 -0.4709  0.3103  0.1390
 4610TIP3    H113794   1.276   2.505   2.633  0.0251 -0.8958  0.7220
 4610TIP3    H213795   1.137   2.501   2.574  0.4424  2.0860 -0.6467
 4611TIP3   OH213796   1.183   2.792   5.049 -0.0600 -0.0186 -0.0681
 4611TIP3    H113797   1.134   2.867   5.081 -1.3373 -2.1361  3.4641
 4611TIP3    H213798   1.268   2.798   5.092  0.8151  0.6864 -1.8071
 4612TIP3   OH213799   7.165   1.943   3.489 -0.2708  0.5306 -0.2613
 4612TIP3    H113800   7.143   1.989   3.570  2.3061  1.2958  0.0842
 4612TIP3    H213801   7.102   1.976   3.425  0.0301  2.8446  0.5329
 4613TIP3   OH213802   2.642   3.216   0.085  0.1357  0.3331  0.1978
 4613TIP3    H113803   2.567   3.272   0.103  0.5957  0.6687  1.1306
 4613TIP3    H213804   2.611   3.128   0.105 -0.1920  0.4017  0.0011
 4614TIP3   OH213805   3.784   6.691   5.851 -0.3251 -0.2291  0.3795
 4614TIP3    H113806   3.753   6.607   5.885  0.4322 -0.7215 -0.1034
 4614TIP3    H213807   3.828   6.733   5.925  0.7468 -1.0036  0.2043
 4615TIP3   OH213808   4.190   6.692   5.230 -0.4509  0.3090 -0.1908
 4615TIP3    H113809   4.276   6.656   5.209  1.0759  1.6653  3.0096
 4615TIP3    H213810   4.147   6.624   5.281 -0.4405  0.4050 -0.0547
 4616TIP3   OH213811   4.851   0.044   0.590  0.2387 -0.1127 -0.0897
 4616TIP3    H113812   4.845  -0.042   0.631  0.4194 -0.1906 -0.2258
 4616TIP3    H213813   4.936   0.078   0.617  0.0700  0.1235  0.1552
 4617TIP3   OH213814   4.185   2.435   0.687  0.0122 -0.2335  0.2147
 4617TIP3    H113815   4.253   2.368   0.676 -2.3301 -2.6716 -0.5136
 4617TIP3    H213816   4.118   2.392   0.740 -1.2242  1.8888  0.4818
 4618TIP3   OH213817   6.475   1.100   2.611 -0.8971  0.1308 -0.2369
 4618TIP3    H113818   6.387   1.063   2.608 -0.4649 -1.3173  1.8817
 4618TIP3    H213819   6.512   1.081   2.525 -1.4798 -2.5289  0.0011
 4619TIP3   OH213820   4.886   5.072   0.410  0.1020 -0.4045 -0.0774
 4619TIP3    H113821   4.953   5.107   0.351  1.4436 -0.4092  1.3720
 4619TIP3    H213822   4.898   4.977   0.407 -2.0425 -0.7103 -2.2675
 4620TIP3   OH213823   4.493   4.500   0.085  0.0064  0.4750  0.4272
 4620TIP3    H113824   4.526   4.586   0.112  0.9468  0.0177  0.7807
 4620TIP3    H213825   4.549   4.476   0.011 -0.8266  0.5401 -0.2437
 4621TIP3   OH213826   3.859   0.565   1.692 -0.6629  0.1077  0.4280
 4621TIP3    H113827   3.844   0.471   1.698 -0.8832  0.0613 -0.6876
 4621TIP3    H213828   3.954   0.573   1.689 -0.6083  0.0026  1.6303
 4622TIP3   OH213829   1.640   3.646   4.408 -0.0383  0.3161  0.1714
 4622TIP3    H113830   1.601   3.730   4.381  0.5879 -0.0675 -2.2090
 4622TIP3    H213831   1.566   3.584   4.406 -0.0481  0.3336 -0.6451
 4623TIP3   OH213832   2.280   0.785   3.931  0.3185 -0.9462 -0.5505
 4623TIP3    H113833   2.348   0.742   3.879  1.1104 -0.0740 -0.2703
 4623TIP3    H213834   2.203   0.786   3.873  1.0011 -0.5531 -1.4860
 4624TIP3   OH213835   4.735   4.054   5.681  0.0877 -0.0686  0.6967
 4624TIP3    H113836   4.794   4.080   5.751 -0.4836  2.1284  0.4339
 4624TIP3    H213837   4.750   4.117   5.611 -0.5222 -1.2196 -0.5237
 4625TIP3   OH213838   5.757   2.854   3.349  0.6490 -0.2496  0.0259
 4625TIP3    H113839   5.711   2.931   3.382  0.7742 -0.6250  1.1097
 4625TIP3    H213840   5.768   2.798   3.425 -0.6339 -1.9668 -0.9646
 4626TIP3   OH213841   6.083   1.523   1.317  0.1591 -0.0809 -0.9090
 4626TIP3    H113842   6.156   1.545   1.375 -1.0483  0.1085  0.5718
 4626TIP3    H213843   6.008   1.569   1.353 -1.1446 -1.8621 -1.2275
 4627TIP3   OH213844   3.828   1.963   4.811  0.1346  0.0941  0.1532
 4627TIP3    H113845   3.907   2.010   4.839 -0.7482  1.9369 -0.3327
 4627TIP3    H213846   3.763   2.032   4.795 -1.0523 -1.2621 -1.1284
 4628TIP3   OH213847   6.883   0.947   0.491 -0.2766  0.0968 -0.2793
 4628TIP3    H113848   6.955   0.902   0.535 -0.2793  0.8965  0.5643
 4628TIP3    H213849   6.833   0.877   0.449 -0.0176 -0.6468  0.6216
 4629TIP3   OH213850   3.766   6.423   4.492 -0.1908  0.3219 -0.0018
 4629TIP3    H113851   3.798   6.392   4.577  0.0112 -0.6826 -0.4369
 4629TIP3    H213852   3.777   6.519   4.496  1.5337  0.1448  0.4185
 4630TIP3   OH213853   4.479   6.659   4.830 -0.5895 -0.5711  0.2475
 4630TIP3    H113854   4.538   6.623   4.764 -1.2500 -0.6306 -0.3286
 4630TIP3    H213855   4.503   6.614   4.911  0.8137  0.1322  0.2493
 4631TIP3   OH213856   3.522   3.426   2.523  0.1484 -0.1055 -0.2202
 4631TIP3    H113857   3.497   3.401   2.434  1.1341 -1.8380 -0.0470
 4631TIP3    H213858   3.570   3.509   2.512  0.2105 -0.2707 -1.3038
 4632TIP3   OH213859   3.957   4.154   1.439 -0.0303  0.0110 -0.9378
 4632TIP3    H113860   3.985   4.156   1.531 -1.5492  0.5029 -0.4528
 4632TIP3    H213861   3.991   4.071   1.405 -1.4797 -1.3738  0.7683
 4633TIP3   OH213862   1.149   2.125   3.018 -0.0131 -0.6567 -0.2185
 4633TIP3    H113863   1.115   2.066   3.084 -1.6835  1.4554  0.9079
 4633TIP3    H213864   1.190   2.196   3.067  0.0470  0.2139 -1.4644
 4634TIP3   OH213865   1.829   1.091   5.388  0.1481 -0.6692 -0.5771
 4634TIP3    H113866   1.876   1.077   5.470  0.3801  1.3088 -0.3310
 4634TIP3    H213867   1.742   1.119   5.415  0.5769  1.1634 -0.9278
 4635TIP3   OH213868   5.734   2.360   2.814 -0.3360  0.2106  0.1844
 4635TIP3    H113869   5.783   2.396   2.740 -1.0589  1.0351  0.0933
 4635TIP3    H213870   5.782   2.390   2.892  1.8006 -2.5654  0.1249
 4636TIP3   OH213871   1.124   2.806   1.851 -0.4067 -0.0270 -0.0001
 4636TIP3    H113872   1.131   2.730   1.908  0.2879  0.7453  0.9803
 4636TIP3    H213873   1.037   2.841   1.868 -0.8679 -0.8119 -0.7305
 4637TIP3   OH213874   1.482   5.656   4.288  0.0969 -0.1803  0.1740
 4637TIP3    H113875   1.540   5.589   4.323  0.0832  0.3563  1.2559
 4637TIP3    H213876   1.539   5.711   4.235 -0.2454 -2.2033 -2.5232
 4638TIP3   OH213877   5.193   0.339   5.337  0.5535  0.2590  0.7445
 4638TIP3    H113878   5.213   0.298   5.253 -0.6767  0.4027  0.3552
 4638TIP3    H213879   5.193   0.433   5.318 -0.1586  0.2722  0.7963
 4639TIP3   OH213880   7.083   6.045   0.749  0.0538  0.1536  0.1857
 4639TIP3    H113881   7.034   6.092   0.816 -0.0907  0.6672 -0.2728
 4639TIP3    H213882   7.019   5.987   0.708  0.0498  0.1331  0.2209
 4640TIP3   OH213883   1.754   5.771   1.248  0.2509  0.7428  0.0572
 4640TIP3    H113884   1.799   5.686   1.242  1.5723  1.4630 -0.5633
 4640TIP3    H213885   1.812   5.825   1.301  0.0246  1.6361 -0.5882
 4641TIP3   OH213886   5.711   2.738   0.165 -0.2110 -0.0084  0.4240
 4641TIP3    H113887   5.798   2.726   0.127 -0.0631 -0.7636  0.9771
 4641TIP3    H213888   5.723   2.808   0.230 -0.1204  0.2148  0.1664
 4642TIP3   OH213889   1.892   6.705   3.009  0.0030 -0.2661  0.0842
 4642TIP3    H113890   1.883   6.661   3.093 -0.1396 -1.9943 -0.8000
 4642TIP3    H213891   1.808   6.691   2.965  0.0486  0.6839 -0.3411
 4643TIP3   OH213892   0.045   2.180   0.744  0.3959 -0.1274 -0.5998
 4643TIP3    H113893   0.070   2.237   0.671  1.3413 -1.1857 -1.1361
 4643TIP3    H213894   0.128   2.155   0.784 -0.0939  0.0716  0.5813
 4644TIP3   OH213895   5.703   5.163   1.357 -0.2850  0.0974  0.7951
 4644TIP3    H113896   5.732   5.108   1.429 -1.1838  1.5673  2.3282
 4644TIP3    H213897   5.608   5.152   1.355 -0.4128  1.1364  0.7537
 4645TIP3   OH213898   3.261   2.403   2.172  0.1145 -0.3382 -0.9434
 4645TIP3    H113899   3.238   2.310   2.168  0.8405 -0.5001 -2.1632
 4645TIP3    H213900   3.357   2.403   2.175  0.0920  0.3613  0.2928
 4646TIP3   OH213901   2.796   1.862   1.523  0.4132 -0.6041 -0.0498
 4646TIP3    H113902   2.775   1.925   1.592  0.0011  0.9954 -1.5500
 4646TIP3    H213903   2.725   1.798   1.526 -0.2260  0.1035  0.2763
 4647TIP3   OH213904   4.581   4.329   0.744 -0.1826 -0.0003  0.3113
 4647TIP3    H113905   4.675   4.345   0.752  0.0599 -2.1036  3.6514
 4647TIP3    H213906   4.563   4.341   0.651  3.5183 -0.2311 -0.6184
 4648TIP3   OH213907   0.292   3.153   1.586  0.8613  0.2046  0.4451
 4648TIP3    H113908   0.249   3.219   1.531  1.7168 -0.4530 -1.0506
 4648TIP3    H213909   0.294   3.193   1.673  1.5591  2.2586 -0.4576
 4649TIP3   OH213910   2.724   0.558   2.774 -0.3570  0.4307  0.5357
 4649TIP3    H113911   2.654   0.608   2.731  1.4466  1.1927 -1.7796
 4649TIP3    H213912   2.787   0.625   2.801  1.9360 -0.3732 -2.3004
 4650TIP3   OH213913   5.994   2.685   3.026 -0.4631  0.5091 -0.2084
 4650TIP3    H113914   6.026   2.624   3.093 -0.0950 -0.0256 -0.8606
 4650TIP3    H213915   5.899   2.673   3.025 -0.4919  0.6766  0.3669
 4651TIP3   OH213916   2.138   0.269   1.416 -1.0047  0.6601  0.3038
 4651TIP3    H113917   2.066   0.206   1.412  0.3918 -0.9792 -1.3682
 4651TIP3    H213918   2.118   0.334   1.350 -1.6795  1.1090  0.9345
 4652TIP3   OH213919   1.270   2.430   5.076  0.1217 -0.1534  0.9755
 4652TIP3    H113920   1.236   2.360   5.020 -1.3798  0.2739  1.2926
 4652TIP3    H213921   1.336   2.473   5.022 -0.6202 -0.3394 -0.1307
 4653TIP3   OH213922   0.654   5.520   2.102 -0.1404 -0.2076 -0.2620
 4653TIP3    H113923   0.599   5.474   2.165 -0.0204  2.2279  1.7797
 4653TIP3    H213924   0.739   5.478   2.108  0.1027  0.4985  1.9140
 4654TIP3   OH213925   0.658   4.703   3.362  0.2523 -0.3750 -0.1982
 4654TIP3    H113926   0.588   4.639   3.378  1.1277 -0.9976  1.2424
 4654TIP3    H213927   0.700   4.714   3.446 -0.0733  2.3917 -0.3203
 4655TIP3   OH213928   0.738   2.681   3.510  0.3721  0.0486 -0.6970
 4655TIP3    H113929   0.646   2.707   3.509  0.0613 -0.7094  1.3717
 4655TIP3    H213930   0.787   2.762   3.497 -0.5743  0.4889 -1.6386
 4656TIP3   OH213931   3.544   5.113   1.649  0.7999  0.3323  0.4310
 4656TIP3    H113932   3.635   5.096   1.623  0.6713  0.8622 -0.4088
 4656TIP3    H213933   3.502   5.027   1.646  1.1855  0.1380  0.4778
 4657TIP3   OH213934   4.429   5.130   1.515 -0.3670  0.1309 -0.1462
 4657TIP3    H113935   4.504   5.137   1.573 -1.1472  0.2413  0.8751
 4657TIP3    H213936   4.422   5.217   1.474  0.9702 -0.3301 -1.4489
 4658TIP3   OH213937   1.595   3.395   5.351  0.2084  0.0925 -0.1142
 4658TIP3    H113938   1.594   3.397   5.446  0.4206  0.6747 -0.1175
 4658TIP3    H213939   1.634   3.311   5.328  1.5707  0.5908  0.3249
 4659TIP3   OH213940   0.369   2.591   3.852 -0.0260  0.2349 -0.2987
 4659TIP3    H113941   0.288   2.562   3.894  1.4329 -0.7172  2.0563
 4659TIP3    H213942   0.353   2.579   3.758 -2.3341 -0.6052  0.1319
 4660TIP3   OH213943   4.863   5.969   3.131 -0.3336 -0.7120 -0.2182
 4660TIP3    H113944   4.859   5.977   3.036 -1.7155  0.6643 -0.1034
 4660TIP3    H213945   4.867   5.875   3.148 -0.0920 -0.9750 -1.6315
 4661TIP3   OH213946   0.718   4.867   1.450  0.1083 -0.3640  0.2715
 4661TIP3    H113947   0.778   4.793   1.457 -0.1074 -0.5656  0.0154
 4661TIP3    H213948   0.745   4.912   1.370  0.4308  0.0085  0.5861
 4662TIP3   OH213949   3.390   4.544   4.767  0.1631  0.0412 -0.3598
 4662TIP3    H113950   3.387   4.602   4.691  0.2301 -1.7314 -1.7775
 4662TIP3    H213951   3.354   4.462   4.736 -0.8474 -0.4383  1.8629
 4663TIP3   OH213952   4.068   5.444   3.451  0.0257  0.2950  0.3308
 4663TIP3    H113953   4.121   5.403   3.381  1.3262  0.9345  0.9063
 4663TIP3    H213954   4.125   5.512   3.487 -1.2819  1.1379  0.8714
 4664TIP3   OH213955   6.740   1.612   2.018 -0.5411 -0.1083 -0.0554
 4664TIP3    H113956   6.743   1.646   2.108 -2.6849 -0.4061  0.1787
 4664TIP3    H213957   6.674   1.543   2.020  0.6187 -1.3258 -1.5085
 4665TIP3   OH213958   5.682   2.914   5.337  0.2952 -0.4023  0.0977
 4665TIP3    H113959   5.733   2.948   5.263  2.3077 -1.9107  0.6736
 4665TIP3    H213960   5.695   2.977   5.407  1.7369 -0.9193  0.3344
 4666TIP3   OH213961   6.766   5.710   1.739  0.0185  0.5294 -0.2198
 4666TIP3    H113962   6.744   5.707   1.646  0.2923  0.7541 -0.2946
 4666TIP3    H213963   6.838   5.773   1.744  1.5159 -1.1348 -0.1441
 4667TIP3   OH213964   4.918   0.775   4.464 -0.2856  0.1219 -0.6496
 4667TIP3    H113965   4.916   0.751   4.371  0.0868 -1.7681 -0.2004
 4667TIP3    H213966   4.920   0.691   4.510 -0.1817  1.0407  1.0673
 4668TIP3   OH213967   3.510   0.799   4.084  0.0747 -0.1121 -0.5200
 4668TIP3    H113968   3.495   0.877   4.139 -0.7060 -0.3629 -0.3528
 4668TIP3    H213969   3.457   0.815   4.006 -1.8981 -1.4041  0.4486
 4669TIP3   OH213970   6.872   6.297   0.460  0.2426 -0.0667  0.5944
 4669TIP3    H113971   6.870   6.312   0.554  1.1015 -3.8001  1.3512
 4669TIP3    H213972   6.965   6.292   0.438  0.0738  1.4493 -0.6418
 4670TIP3   OH213973   6.180   3.364   3.021  0.2161  0.0347 -0.8908
 4670TIP3    H113974   6.123   3.441   3.024 -0.2401 -0.3259  1.2292
 4670TIP3    H213975   6.258   3.393   2.974  1.3368  2.7568  2.2978
 4671TIP3   OH213976   0.166   5.011   4.319  0.1034  0.4217 -0.0698
 4671TIP3    H113977   0.162   5.007   4.223 -0.6016  0.1436 -0.0350
 4671TIP3    H213978   0.079   4.984   4.348  0.7120 -0.8177  0.6917
 4672TIP3   OH213979   6.334   5.948   5.306  0.3099  0.6043 -0.1975
 4672TIP3    H113980   6.252   5.932   5.258  0.7696  0.7340 -1.0465
 4672TIP3    H213981   6.364   6.034   5.275  0.5162  0.7883  0.4844
 4673TIP3   OH213982   1.988   1.878   0.012 -0.0294 -0.0958  0.1345
 4673TIP3    H113983   2.050   1.839   0.073  0.1401  0.0223  0.0427
 4673TIP3    H213984   1.942   1.804  -0.027  2.1274 -0.4424 -2.0164
 4674TIP3   OH213985   2.301   0.444   2.737 -0.0037 -0.2670 -0.6745
 4674TIP3    H113986   2.305   0.489   2.652 -2.0104 -0.4643 -0.9326
 4674TIP3    H213987   2.214   0.405   2.739  0.3460 -1.0625  1.1057
 4675TIP3   OH213988   5.151   3.341   0.753  0.1695  0.0369 -0.0537
 4675TIP3    H113989   5.110   3.328   0.839  2.3432 -1.2887  0.8724
 4675TIP3    H213990   5.185   3.430   0.757  0.3381 -0.0451  0.5322
 4676TIP3   OH213991   2.324   0.321   5.780 -0.1946 -0.0092  0.1284
 4676TIP3    H113992   2.350   0.298   5.869 -0.9994 -0.5113  0.2451
 4676TIP3    H213993   2.406   0.344   5.736  0.4107 -1.1687  0.5882
 4677TIP3   OH213994   0.139   6.297   1.595 -0.4143 -0.0329 -0.1057
 4677TIP3    H113995   0.228   6.329   1.608  0.1871 -1.3502 -0.7632
 4677TIP3    H213996   0.083   6.372   1.613  0.9443  1.6693 -2.4747
 4678TIP3   OH213997   0.315   0.708   0.690  0.3269 -0.7273  0.5721
 4678TIP3    H113998   0.398   0.706   0.642 -0.6334 -0.8729 -1.1587
 4678TIP3    H213999   0.289   0.800   0.688 -0.6382 -0.9935 -0.9254
 4679TIP3   OH214000   5.342   4.932   4.179 -0.2705 -0.2548  0.1516
 4679TIP3    H114001   5.380   4.885   4.253 -0.6315 -0.2113  0.3643
 4679TIP3    H214002   5.343   5.024   4.205 -3.9379 -0.4989  1.7821
 4680TIP3   OH214003   4.406   1.425   0.879 -0.3782  0.4013 -0.0638
 4680TIP3    H114004   4.439   1.336   0.869 -1.4783  0.0135 -0.4315
 4680TIP3    H214005   4.387   1.454   0.790  0.0090  1.0189  0.0512
 4681TIP3   OH214006   6.869   0.722   4.533  0.3423 -0.2301 -0.4389
 4681TIP3    H114007   6.925   0.737   4.457  0.0667  0.9951 -0.4306
 4681TIP3    H214008   6.907   0.775   4.602 -1.7724  2.1575 -0.9306
 4682TIP3   OH214009   6.975   3.283   1.131  0.6656  0.1183 -0.4434
 4682TIP3    H114010   6.999   3.375   1.120  1.2040  0.1389  0.7741
 4682TIP3    H214011   6.963   3.272   1.225 -2.1334 -0.4052 -0.7731
 4683TIP3   OH214012   3.650   0.267   2.496 -0.4894  0.6962  0.1588
 4683TIP3    H114013   3.621   0.348   2.454  2.7831  2.2428  0.5764
 4683TIP3    H214014   3.675   0.293   2.584 -1.9136 -1.3965  1.2758
 4684TIP3   OH214015   4.342   4.381   2.564 -0.1293  0.4550  0.4125
 4684TIP3    H114016   4.411   4.390   2.629  0.7891  0.1428 -0.4811
 4684TIP3    H214017   4.365   4.301   2.516 -0.5466  0.9013 -0.5527
 4685TIP3   OH214018   1.459   4.722   1.325 -0.2215  0.2646 -0.1514
 4685TIP3    H114019   1.421   4.634   1.321  0.9192 -0.2379 -0.7402
 4685TIP3    H214020   1.421   4.762   1.403 -2.5370  0.1185 -1.1430
 4686TIP3   OH214021   6.817   2.334   5.337  0.2518 -0.1956  0.2317
 4686TIP3    H114022   6.813   2.314   5.244  1.6057 -1.0002  0.3152
 4686TIP3    H214023   6.791   2.426   5.344 -1.7726 -0.6440 -0.6875
 4687TIP3   OH214024   1.998   0.776   0.744 -0.0621  0.3247  0.0929
 4687TIP3    H114025   2.000   0.823   0.661 -1.8023 -1.3740 -0.9984
 4687TIP3    H214026   2.078   0.723   0.744 -0.6848 -0.6676 -1.1711
 4688TIP3   OH214027   2.045   4.902   2.786  0.4792 -0.2083 -0.3755
 4688TIP3    H114028   2.007   4.988   2.804 -0.2634 -0.6428  0.1686
 4688TIP3    H214029   2.011   4.878   2.700 -1.7503 -1.2398  0.7092
 4689TIP3   OH214030   2.984   6.197   0.993 -0.4859  0.5968 -0.1913
 4689TIP3    H114031   3.056   6.260   0.995 -0.4461  0.6153 -1.3503
 4689TIP3    H214032   2.919   6.233   1.053 -0.7629  2.1372 -1.3489
 4690TIP3   OH214033   6.626   6.382   0.389  0.1114  0.4579 -0.1439
 4690TIP3    H114034   6.585   6.340   0.313 -0.6098 -0.0874  0.5260
 4690TIP3    H214035   6.712   6.340   0.396  1.0970  2.0162 -1.9087
 4691TIP3   OH214036   0.386   6.445   4.904  0.0585 -0.4829 -0.4063
 4691TIP3    H114037   0.444   6.459   4.979 -0.3634 -0.9847  0.0268
 4691TIP3    H214038   0.342   6.529   4.891 -1.9358 -1.1106  1.7014
 4692TIP3   OH214039   2.809   3.815   4.138 -0.5429 -0.0407 -0.2924
 4692TIP3    H114040   2.857   3.895   4.161 -0.2243  0.4911 -2.5456
 4692TIP3    H214041   2.846   3.748   4.195 -0.6647  1.3347  1.5107
 4693TIP3   OH214042   2.096   0.308   1.996 -0.3436 -1.0296  0.0686
 4693TIP3    H114043   2.095   0.358   2.077  0.4024 -0.0927 -0.4730
 4693TIP3    H214044   2.080   0.373   1.927 -0.5519 -1.7312 -0.5673
 4694TIP3   OH214045   6.259   5.810   1.878 -0.0713  0.0540  0.1329
 4694TIP3    H114046   6.197   5.882   1.869 -1.1049 -0.7109  0.8874
 4694TIP3    H214047   6.344   5.852   1.891 -0.6058  1.1221  0.2303
 4695TIP3   OH214048   1.008   3.563   3.148  0.4038  0.2767 -0.5161
 4695TIP3    H114049   0.946   3.542   3.079  1.8335 -1.2113 -1.4308
 4695TIP3    H214050   1.089   3.584   3.102  0.1579  4.4871  0.5078
 4696TIP3   OH214051   5.103   1.728   0.111  0.1585 -0.1884  0.0338
 4696TIP3    H114052   5.089   1.819   0.086  0.8412 -0.8549 -3.1437
 4696TIP3    H214053   5.151   1.733   0.194 -1.0329  2.2725  0.6560
 4697TIP3   OH214054   2.044   3.232   5.323  0.5505  0.8668 -0.1367
 4697TIP3    H114055   1.968   3.176   5.339  0.9747  0.5758  0.9806
 4697TIP3    H214056   2.018   3.287   5.249 -0.5608  0.4485 -0.0832
 4698TIP3   OH214057   3.464   0.978   5.325  0.2684  0.5017 -0.0221
 4698TIP3    H114058   3.452   0.886   5.301  1.0108  0.3251  0.2432
 4698TIP3    H214059   3.461   0.979   5.420  1.4826  0.5434  0.0400
 4699TIP3   OH214060   6.782   2.605   0.770  0.0102  0.8009 -0.3263
 4699TIP3    H114061   6.752   2.687   0.730  2.4885  1.3165 -1.3084
 4699TIP3    H214062   6.767   2.539   0.703 -0.7221  0.6896 -0.0582
 4700TIP3   OH214063   1.828   4.551   2.817  0.1468 -0.0642  0.0296
 4700TIP3    H114064   1.813   4.591   2.731  2.7165  0.8632 -0.0613
 4700TIP3    H214065   1.816   4.622   2.879 -0.2860 -0.4000  0.3379
 4701TIP3   OH214066   0.547   0.528   5.384 -0.2303  0.4295  0.0600
 4701TIP3    H114067   0.502   0.521   5.299 -2.5109 -3.5809  1.3041
 4701TIP3    H214068   0.477   0.544   5.447  0.8205 -0.6310  1.5660
 4702TIP3   OH214069   5.705   4.141   3.121  0.5637 -0.2202 -0.3749
 4702TIP3    H114070   5.702   4.088   3.042 -1.8851 -0.9752  0.1303
 4702TIP3    H214071   5.657   4.220   3.099  1.5176  0.4265 -0.1880
 4703TIP3   OH214072   4.310   5.116   3.992  0.1043  0.0080 -0.2721
 4703TIP3    H114073   4.216   5.106   4.008 -0.1237  0.5323 -1.1970
 4703TIP3    H214074   4.330   5.051   3.924  0.5883 -0.6593  0.4923
 4704TIP3   OH214075   6.898   5.629   1.313  0.1992 -0.0054 -0.4643
 4704TIP3    H114076   6.922   5.692   1.246 -0.8435  0.5788 -0.3056
 4704TIP3    H214077   6.815   5.593   1.283  1.3214 -2.2183 -1.1658
 4705TIP3   OH214078   1.224   6.507   5.476 -1.0132  0.4947  0.5677
 4705TIP3    H114079   1.211   6.595   5.510 -0.2402  1.0718 -0.5702
 4705TIP3    H214080   1.219   6.450   5.553 -0.5309  1.6335  1.4640
 4706TIP3   OH214081   1.228   3.554   1.356 -0.1364  0.5882  0.2955
 4706TIP3    H114082   1.177   3.484   1.318  2.1701 -2.3524  2.1534
 4706TIP3    H214083   1.318   3.536   1.330  0.7462  1.9508  2.0878
 4707TIP3   OH214084   2.114   1.034   4.785  0.7961  0.0755 -0.1081
 4707TIP3    H114085   2.037   0.978   4.794  1.0946 -0.6656 -1.7303
 4707TIP3    H214086   2.079   1.118   4.758  0.4268  0.3714  1.2161
 4708TIP3   OH214087   4.900   4.181   0.236 -0.2902  0.0885 -0.3925
 4708TIP3    H114088   4.806   4.194   0.224 -0.3935  0.2113  0.4743
 4708TIP3    H214089   4.934   4.167   0.148 -0.6353  3.0822 -1.0865
 4709TIP3   OH214090   1.423   5.280   2.051 -0.2878  0.1996 -0.5522
 4709TIP3    H114091   1.361   5.220   2.094  0.3159  0.5993  0.9337
 4709TIP3    H214092   1.488   5.223   2.012 -0.2802 -0.1538 -0.0345
 4710TIP3   OH214093   4.355   4.755   4.111 -0.0537  0.6738  0.2376
 4710TIP3    H114094   4.372   4.826   4.172  1.3263  0.0955  0.5572
 4710TIP3    H214095   4.441   4.731   4.077 -0.6444  0.0285 -0.8570
 4711TIP3   OH214096   5.487   5.238   3.595  0.5670  0.2886  0.0092
 4711TIP3    H114097   5.554   5.195   3.649  1.8004  3.2460  1.0760
 4711TIP3    H214098   5.425   5.274   3.658 -2.5933 -2.8709 -0.9674
 4712TIP3   OH214099   2.539   3.822   4.980 -0.1447  0.5016 -0.2916
 4712TIP3    H114100   2.562   3.733   5.007  0.2663  0.8344  0.4824
 4712TIP3    H214101   2.607   3.847   4.918  1.0406  1.0966  1.1992
 4713TIP3   OH214102   4.856   1.080   2.810  0.1219  0.1895  0.3605
 4713TIP3    H114103   4.924   1.082   2.743 -1.4873  1.8989 -1.3485
 4713TIP3    H214104   4.848   1.170   2.840 -0.9656 -0.0796  0.9363
 4714TIP3   OH214105   6.975   4.408   1.983 -1.1263 -0.0483 -0.1433
 4714TIP3    H114106   6.910   4.458   1.933 -2.4580 -1.1683  0.4070
 4714TIP3    H214107   7.042   4.472   2.006 -1.8618  1.0713 -1.0191
 4715TIP3   OH214108   5.024   6.191   2.739  0.2154  0.3763 -0.2636
 4715TIP3    H114109   5.021   6.116   2.798  1.0955  0.0687 -0.5851
 4715TIP3    H214110   5.044   6.265   2.796  0.0915  0.2451 -0.0471
 4716TIP3   OH214111   3.772   6.182   0.352 -0.3581 -0.2862  0.0515
 4716TIP3    H114112   3.842   6.154   0.410 -2.0230 -1.0071  1.8481
 4716TIP3    H214113   3.721   6.245   0.404 -1.4023 -0.2711 -0.9345
 4717TIP3   OH214114   6.605   2.027   3.999 -0.2011  0.1894  0.0282
 4717TIP3    H114115   6.546   1.987   3.935 -0.4207  1.4560 -0.5799
 4717TIP3    H214116   6.689   2.033   3.953 -0.3713  1.1432 -0.1750
 4718TIP3   OH214117   6.198   3.723   5.331  0.6670  0.3187  0.0305
 4718TIP3    H114118   6.281   3.678   5.317  1.8626  1.9390  1.4135
 4718TIP3    H214119   6.216   3.814   5.305 -1.1941  0.3660 -1.2550
 4719TIP3   OH214120   1.386   2.906   2.599 -0.1754  0.1392  0.2013
 4719TIP3    H114121   1.316   2.891   2.535 -0.8080 -0.2066  0.9665
 4719TIP3    H214122   1.355   2.980   2.651 -0.1453 -0.2587  0.7886
 4720TIP3   OH214123   7.016   3.422   4.984  0.0695 -0.0291  0.4126
 4720TIP3    H114124   7.019   3.400   5.077  1.4534 -2.7001 -0.1693
 4720TIP3    H214125   6.923   3.417   4.961 -0.0005 -3.1231  0.9444
 4721TIP3   OH214126   5.628   4.730   2.731  0.0858 -0.6752  0.5735
 4721TIP3    H114127   5.690   4.801   2.748  0.8192 -0.6744 -1.6670
 4721TIP3    H214128   5.586   4.713   2.815  0.9970  1.3581  1.5052
 4722TIP3   OH214129   6.244   3.275   5.490  0.0329 -1.0835 -0.4549
 4722TIP3    H114130   6.328   3.248   5.453  0.5117 -0.7192  0.3432
 4722TIP3    H214131   6.226   3.360   5.450  0.7846 -0.4659  0.4764
 4723TIP3   OH214132   4.998   1.456   5.180 -0.1912  0.5216  0.2820
 4723TIP3    H114133   5.072   1.483   5.126  0.6617 -0.8778  0.6968
 4723TIP3    H214134   5.005   1.361   5.184  0.3741  0.5724  3.5894
 4724TIP3   OH214135   3.222   0.777   5.052 -0.6002 -0.4291 -0.5041
 4724TIP3    H114136   3.127   0.787   5.060 -0.4727  0.4771  0.0745
 4724TIP3    H214137   3.253   0.865   5.029 -0.0821 -1.1223 -2.7379
 4725TIP3   OH214138   5.473   3.836   0.596 -0.0398  0.1087  1.0815
 4725TIP3    H114139   5.384   3.870   0.595 -0.1754 -0.2597  0.7332
 4725TIP3    H214140   5.464   3.742   0.581  0.5233  0.3237 -0.8793
 4726TIP3   OH214141   0.138   3.156   4.096  0.7038  0.2813 -0.2589
 4726TIP3    H114142   0.054   3.162   4.142  0.8992  0.9234  0.0324
 4726TIP3    H214143   0.196   3.114   4.160  0.8215  0.6218 -0.1408
 4727TIP3   OH214144   1.885   6.342   2.297 -0.1844  0.7527  0.2528
 4727TIP3    H114145   1.856   6.368   2.209 -0.1913 -0.6154 -0.1874
 4727TIP3    H214146   1.888   6.423   2.347  1.7523  1.8889 -1.5551
 4728TIP3   OH214147   4.971   0.514   3.649  0.0566  0.5531 -0.3973
 4728TIP3    H114148   5.014   0.563   3.579 -1.1512  0.7785 -1.0201
 4728TIP3    H214149   5.020   0.536   3.728  0.6659  1.3112 -0.9701
 4729TIP3   OH214150   1.848   0.992   0.219  0.0214 -0.0911 -0.0258
 4729TIP3    H114151   1.813   1.040   0.144  0.7585 -0.0823 -0.3650
 4729TIP3    H214152   1.771   0.974   0.273 -0.3348  1.0321 -0.1402
 4730TIP3   OH214153   3.678   1.045   4.612  0.0599 -0.0457 -0.0702
 4730TIP3    H114154   3.718   1.105   4.549 -1.7701  0.1063 -1.1535
 4730TIP3    H214155   3.594   1.085   4.633 -0.0375 -0.8993  1.2830
 4731TIP3   OH214156   4.233   2.713   4.823 -0.1487  0.0491  0.2989
 4731TIP3    H114157   4.273   2.787   4.869  0.9764  0.0346 -0.6005
 4731TIP3    H214158   4.147   2.746   4.795  0.2566  0.9638  0.0829
 4732TIP3   OH214159   2.621   5.643   5.348  0.5843  0.2596  0.9682
 4732TIP3    H114160   2.594   5.733   5.366  1.7612  0.6635  0.7864
 4732TIP3    H214161   2.573   5.620   5.268 -1.5422 -0.1358  2.2910
 4733TIP3   OH214162   6.018   3.424   0.324 -0.4529  0.1665  0.0399
 4733TIP3    H114163   5.993   3.429   0.416 -2.0717  0.3264 -0.3835
 4733TIP3    H214164   6.071   3.503   0.309 -0.4111  0.2761  0.7539
 4734TIP3   OH214165   1.923   5.359   5.073 -0.2015 -0.2219 -0.6117
 4734TIP3    H114166   1.864   5.288   5.048 -1.5465  0.4776  0.4388
 4734TIP3    H214167   1.908   5.371   5.167  1.0836  0.4758 -0.4709
 4735TIP3   OH214168   5.390   4.514   0.921  0.6569 -0.6926 -0.3377
 4735TIP3    H114169   5.377   4.589   0.979 -0.7771 -1.7704  0.8254
 4735TIP3    H214170   5.355   4.543   0.837  1.8324  0.5505 -0.4421
 4736TIP3   OH214171   5.356   0.872   1.594 -0.0304  0.0623  0.7298
 4736TIP3    H114172   5.340   0.793   1.646 -0.5791 -0.8502 -0.7743
 4736TIP3    H214173   5.430   0.849   1.537 -1.5331 -0.1709 -1.2303
 4737TIP3   OH214174   4.058   4.194   5.118 -1.1520 -0.7508 -0.1351
 4737TIP3    H114175   4.125   4.188   5.186 -0.8984 -1.4876 -0.4324
 4737TIP3    H214176   4.088   4.263   5.060 -0.3229 -1.4892 -0.6016
 4738TIP3   OH214177   0.620   2.905   0.974 -0.4313  0.1066  0.0275
 4738TIP3    H114178   0.553   2.923   0.909  0.5361 -0.2838 -1.1156
 4738TIP3    H214179   0.589   2.828   1.021 -0.8989  0.0947 -0.3022
 4739TIP3   OH214180   6.682   1.541   1.627  0.5458  0.1491 -0.5101
 4739TIP3    H114181   6.703   1.507   1.540  1.2314 -2.9074  0.7442
 4739TIP3    H214182   6.760   1.524   1.679 -0.4618  0.3730  1.1393
 4740TIP3   OH214183   3.798   1.771   4.606 -0.6475  0.1201  0.3001
 4740TIP3    H114184   3.745   1.809   4.535  0.3993  0.3260 -0.4050
 4740TIP3    H214185   3.805   1.841   4.670 -1.2745  0.0698  0.4292
 4741TIP3   OH214186   2.164   0.534   1.007 -0.4185 -0.2795  0.3845
 4741TIP3    H114187   2.225   0.597   1.047 -2.9411  1.4531  1.7524
 4741TIP3    H214188   2.112   0.501   1.080 -1.3048 -1.5461 -0.7718
 4742TIP3   OH214189   1.192   1.480   4.645  0.5378  0.6489 -0.0059
 4742TIP3    H114190   1.135   1.432   4.706  0.4767  1.7675  0.8332
 4742TIP3    H214191   1.244   1.411   4.603  0.8826 -0.1269  1.6024
 4743TIP3   OH214192   1.277   1.604   0.842  0.2715 -0.5521 -0.2354
 4743TIP3    H114193   1.354   1.556   0.873 -0.0029 -0.1740  1.1101
 4743TIP3    H214194   1.252   1.559   0.762  0.9000 -1.7388  0.2009
 4744TIP3   OH214195   5.560   0.980   0.986 -0.6326  0.3669  0.2011
 4744TIP3    H114196   5.568   1.064   1.032  2.6435 -0.1463  0.7357
 4744TIP3    H214197   5.592   0.998   0.898 -2.1644  0.1471 -0.4465
 4745TIP3   OH214198   4.727   5.635   1.772 -0.1297  0.0023  0.1309
 4745TIP3    H114199   4.818   5.609   1.757 -0.0217 -0.3229  1.2720
 4745TIP3    H214200   4.730   5.687   1.852 -0.8104  0.8566 -0.3813
 4746TIP3   OH214201   2.733   5.260   0.698  0.8041  0.7846  0.2679
 4746TIP3    H114202   2.762   5.247   0.788 -1.0345 -1.1896  0.6731
 4746TIP3    H214203   2.790   5.328   0.663  3.1761 -0.1268  2.1394
 4747TIP3   OH214204   6.243   5.716   5.631 -0.0763  0.4167  0.0156
 4747TIP3    H114205   6.296   5.665   5.570 -0.5293 -2.4043  1.7807
 4747TIP3    H214206   6.159   5.670   5.635 -0.1276  0.5592  2.5647
 4748TIP3   OH214207   1.220   1.772   4.701 -0.1259  0.2539  0.0270
 4748TIP3    H114208   1.192   1.682   4.719  1.4071 -0.4211 -0.7671
 4748TIP3    H214209   1.172   1.796   4.621  0.4349 -0.3451 -0.4964
 4749TIP3   OH214210   4.572   3.094   5.376 -0.1195 -0.0386  0.5017
 4749TIP3    H114211   4.507   3.037   5.417 -0.3738  0.3537  0.6432
 4749TIP3    H214212   4.536   3.182   5.382 -1.1180 -0.1436 -2.3429
 4750TIP3   OH214213   2.331   0.224   1.190 -0.4422  0.2764 -0.0795
 4750TIP3    H114214   2.261   0.286   1.210 -1.4225 -1.3307  1.9021
 4750TIP3    H214215   2.286   0.144   1.163  0.6244 -0.5691  0.5199
 4751TIP3   OH214216   1.851   3.998   3.046 -0.8494  0.0245  0.0080
 4751TIP3    H114217   1.809   4.009   3.131  0.8814 -0.2540  0.9435
 4751TIP3    H214218   1.847   4.085   3.006 -1.4498  0.2191  0.4769
 4752TIP3   OH214219   3.654   5.727   4.811 -0.3675 -0.0600 -0.3078
 4752TIP3    H114220   3.562   5.703   4.804 -0.0961 -0.7630 -2.0558
 4752TIP3    H214221   3.679   5.752   4.722  1.5173 -1.3594 -0.1982
 4753TIP3   OH214222   4.672   1.246   2.982  0.2947  0.2297  0.4802
 4753TIP3    H114223   4.643   1.253   2.891  1.7006 -0.7114 -0.0711
 4753TIP3    H214224   4.591   1.243   3.033 -0.6065 -1.9602 -0.9600
 4754TIP3   OH214225   1.146   1.575   3.970 -0.4916  0.7306 -0.2220
 4754TIP3    H114226   1.072   1.537   4.018  1.1472 -0.4112  1.5660
 4754TIP3    H214227   1.181   1.503   3.918 -0.1540  1.0362 -0.4279
 4755TIP3   OH214228   1.579   1.780   4.288  0.1247  0.3923 -0.0380
 4755TIP3    H114229   1.488   1.750   4.286 -0.1719  1.2743 -0.5325
 4755TIP3    H214230   1.623   1.723   4.350 -0.7113 -0.2180 -0.0042
 4756TIP3   OH214231   2.243   3.985   4.162  0.6157 -0.0357  0.4099
 4756TIP3    H114232   2.334   4.007   4.140  0.2068  2.6391  1.0059
 4756TIP3    H214233   2.215   3.928   4.091  1.5526  2.4008 -2.1170
 4757TIP3   OH214234   4.478   2.549   4.811  0.3633 -0.8669  0.2604
 4757TIP3    H114235   4.413   2.618   4.820  2.2278  0.9335  0.7301
 4757TIP3    H214236   4.477   2.526   4.718  1.9325  2.2348 -0.6590
 4758TIP3   OH214237   3.273   6.299   0.782  0.4526 -0.0222  0.5453
 4758TIP3    H114238   3.332   6.229   0.754 -0.1351 -0.7890  1.1937
 4758TIP3    H214239   3.281   6.300   0.877  0.3527  0.7083  0.5506
 4759TIP3   OH214240   6.724   4.247   4.756  0.0652 -0.1068  0.3257
 4759TIP3    H114241   6.788   4.214   4.820  0.2751 -0.5735 -0.1160
 4759TIP3    H214242   6.655   4.181   4.755 -0.6419  0.5987  1.1013
 4760TIP3   OH214243   0.092   3.502   5.465 -0.2947 -0.8271 -0.4590
 4760TIP3    H114244   0.172   3.459   5.496  0.4560  1.5937  1.2721
 4760TIP3    H214245   0.119   3.547   5.385  0.8997  1.9351  1.3284
 4761TIP3   OH214246   5.875   4.357   5.102  0.2874 -0.5294 -0.0756
 4761TIP3    H114247   5.872   4.394   5.014  3.2392 -0.2721 -0.1700
 4761TIP3    H214248   5.889   4.432   5.160  0.7827 -0.9257  0.3297
 4762TIP3   OH214249   1.209   3.364   4.066  0.4793  0.0381 -0.1533
 4762TIP3    H114250   1.240   3.449   4.098  1.4035 -0.4738  0.3483
 4762TIP3    H214251   1.115   3.365   4.084  0.7015  0.4187  1.1137
 4763TIP3   OH214252   2.462   6.694   2.606 -0.5049 -0.3653 -0.4363
 4763TIP3    H114253   2.387   6.635   2.605 -0.9554  0.1845 -1.6552
 4763TIP3    H214254   2.534   6.641   2.641 -1.1160 -1.3453 -0.6165
 4764TIP3   OH214255   1.269   1.312   5.309  0.0413 -0.1643 -0.0772
 4764TIP3    H114256   1.246   1.234   5.360  0.3333 -0.9517 -1.0991
 4764TIP3    H214257   1.193   1.368   5.315 -0.3802 -0.7602  0.2582
 4765TIP3   OH214258   5.514   3.645   2.487 -0.0001  0.0884  0.3028
 4765TIP3    H114259   5.583   3.667   2.425 -0.2573  0.0793  0.0102
 4765TIP3    H214260   5.478   3.729   2.515  0.1826  0.0972  0.5246
 4766TIP3   OH214261   0.648   1.172   1.361 -0.4845 -0.5640  0.0415
 4766TIP3    H114262   0.617   1.118   1.288 -0.0266 -1.5205  0.5351
 4766TIP3    H214263   0.701   1.113   1.414  3.9603  1.3976 -1.7787
 4767TIP3   OH214264   6.438   0.593   2.267  0.2908  0.0381 -0.1599
 4767TIP3    H114265   6.380   0.541   2.211  0.6432  1.3269 -1.7958
 4767TIP3    H214266   6.526   0.571   2.238  0.5520 -0.2307  0.7924
 4768TIP3   OH214267   3.260   4.254   1.921 -0.7309  0.0350 -0.1195
 4768TIP3    H114268   3.338   4.281   1.874 -0.5706 -0.8613 -0.3823
 4768TIP3    H214269   3.277   4.163   1.947 -1.0270  0.3409  1.2179
 4769TIP3   OH214270   5.912   5.444   1.862  0.7652  0.1469  0.5599
 4769TIP3    H114271   5.928   5.351   1.847  1.4949  0.1889  1.0265
 4769TIP3    H214272   5.999   5.484   1.857  0.3342  0.9628 -0.6818
 4770TIP3   OH214273   2.079   5.264   2.490 -0.0003  0.3757  0.3055
 4770TIP3    H114274   2.152   5.302   2.442 -0.2843  0.6755  0.1083
 4770TIP3    H214275   2.119   5.225   2.568  0.6241 -1.1287 -0.7258
 4771TIP3   OH214276   0.897   5.351   5.255  0.0640 -0.2912  0.5266
 4771TIP3    H114277   0.826   5.410   5.229 -0.8821 -1.4385  0.4218
 4771TIP3    H214278   0.918   5.377   5.344 -0.3193  0.2260  0.4725
 4772TIP3   OH214279   0.817   0.709   1.727 -0.1872  0.0110  0.3910
 4772TIP3    H114280   0.891   0.650   1.740  0.3150 -0.2846 -2.8055
 4772TIP3    H214281   0.857   0.795   1.712 -0.5745  0.1380  0.0592
 4773TIP3   OH214282   7.153   4.443   4.451  0.0103 -0.3380  0.4553
 4773TIP3    H114283   7.218   4.509   4.425 -0.7702 -0.0850 -0.9501
 4773TIP3    H214284   7.143   4.455   4.545 -0.0120  1.4531  0.2568
 4774TIP3   OH214285   2.741   0.928   2.412 -0.0245 -0.1150  0.6111
 4774TIP3    H114286   2.723   1.019   2.434  1.4678  0.9068 -1.9648
 4774TIP3    H214287   2.819   0.906   2.463 -0.8251 -0.2252  1.8098
 4775TIP3   OH214288   6.963   5.918   0.103 -0.2123 -0.4829 -0.8188
 4775TIP3    H114289   7.017   5.841   0.114  0.2006  0.0694  1.5185
 4775TIP3    H214290   6.954   5.928   0.008  0.0615 -3.1153 -1.1853
 4776TIP3   OH214291   4.370   6.284   1.267  0.1921 -0.0954  0.2878
 4776TIP3    H114292   4.349   6.312   1.356  1.8166 -0.2037  0.7379
 4776TIP3    H214293   4.418   6.202   1.278  0.0907 -0.3115 -0.7233
 4777TIP3   OH214294   6.864   1.326   0.706 -0.0729  0.1072 -0.1017
 4777TIP3    H114295   6.819   1.302   0.625  0.7353 -2.6821  0.1788
 4777TIP3    H214296   6.874   1.244   0.754 -0.9558  1.6986  3.1318
 4778TIP3   OH214297   4.148   0.556   3.054 -0.7693  0.5499 -0.5927
 4778TIP3    H114298   4.086   0.574   3.124 -1.7874  2.2766 -1.8724
 4778TIP3    H214299   4.200   0.482   3.086 -2.5227 -0.0110  1.1131
 4779TIP3   OH214300   1.813   3.405   3.667  0.5195 -0.2838 -0.5182
 4779TIP3    H114301   1.802   3.488   3.714  1.9277 -0.6547  0.5386
 4779TIP3    H214302   1.897   3.371   3.697 -1.1218 -3.3589  1.1008
 4780TIP3   OH214303   3.470   5.750   1.827  0.0414 -0.0533  0.0564
 4780TIP3    H114304   3.409   5.811   1.786 -0.1832 -0.5622 -0.3814
 4780TIP3    H214305   3.524   5.804   1.884 -1.1356  0.3256  0.8361
 4781TIP3   OH214306   3.708   4.828   5.520 -0.3334 -0.1607 -0.5642
 4781TIP3    H114307   3.724   4.887   5.593  0.8924 -0.4656 -0.5735
 4781TIP3    H214308   3.632   4.776   5.547 -0.3611  0.2519  0.1665
 4782TIP3   OH214309   3.280   0.933   2.335  0.8205 -0.4636  0.5938
 4782TIP3    H114310   3.216   0.991   2.376 -0.2962 -0.2936 -1.2759
 4782TIP3    H214311   3.347   0.992   2.301  0.4028 -0.3491 -0.0673
 4783TIP3   OH214312   4.845   6.617   0.631 -0.8550  0.4024 -0.0254
 4783TIP3    H114313   4.928   6.628   0.585 -1.6174 -1.2966 -1.9881
 4783TIP3    H214314   4.867   6.627   0.723  2.1350 -2.6841 -0.2087
 4784TIP3   OH214315   6.341   6.668   5.298  0.5031 -0.0086  0.5591
 4784TIP3    H114316   6.311   6.622   5.220 -0.2138  0.4017  0.5886
 4784TIP3    H214317   6.436   6.654   5.299  0.3519 -1.1737  0.3689
 4785TIP3   OH214318   1.171   4.385   0.451 -0.4268  0.6072  0.0061
 4785TIP3    H114319   1.257   4.385   0.492 -0.8076 -0.7076  0.8518
 4785TIP3    H214320   1.177   4.316   0.385 -1.3621 -0.7705  1.3021
 4786TIP3   OH214321   7.021   4.767   5.303  0.0612 -0.6360 -0.1467
 4786TIP3    H114322   6.951   4.718   5.261 -1.1579 -0.2509  1.3248
 4786TIP3    H214323   6.979   4.809   5.378  1.9699 -0.8203  1.1098
 4787TIP3   OH214324   7.230   1.943   3.003 -0.3000 -0.3450 -0.9411
 4787TIP3    H114325   7.178   1.901   3.072  1.0849 -0.8785 -0.1877
 4787TIP3    H214326   7.171   1.946   2.927 -2.0382  0.7471  0.3901
 4788TIP3   OH214327   0.842   6.432   0.963 -0.2544 -0.8882  0.1145
 4788TIP3    H114328   0.776   6.468   0.904 -0.7209 -2.5156 -0.4136
 4788TIP3    H214329   0.841   6.490   1.039 -2.5298 -1.0232  0.2589
 4789TIP3   OH214330   2.717   3.518   1.105 -0.3079  0.4140 -0.2086
 4789TIP3    H114331   2.781   3.584   1.081  0.0301 -0.2420 -1.1733
 4789TIP3    H214332   2.686   3.545   1.192  2.0153  0.2017  0.7680
 4790TIP3   OH214333   1.054   4.030   2.945  0.2437 -0.6211  0.4778
 4790TIP3    H114334   1.006   4.083   3.009  0.5830 -0.9395  0.9997
 4790TIP3    H214335   1.088   3.957   2.995  3.3730  0.8378  0.7156
 4791TIP3   OH214336   2.365   3.662   5.862 -0.5274  0.1493 -0.8271
 4791TIP3    H114337   2.415   3.581   5.866  0.4880  0.7123 -1.5676
 4791TIP3    H214338   2.284   3.639   5.817 -0.5787 -0.5958 -0.3736
 4792TIP3   OH214339   6.752   1.145   5.009 -0.2083  0.3175  0.5939
 4792TIP3    H114340   6.762   1.067   5.064 -2.2063 -0.5550 -0.1850
 4792TIP3    H214341   6.829   1.143   4.952  0.2160 -0.5880  1.1649
 4793TIP3   OH214342   1.973   5.220   2.808  0.5524 -0.3692 -0.0541
 4793TIP3    H114343   1.948   5.252   2.895 -1.3962 -0.2916 -0.5942
 4793TIP3    H214344   1.944   5.288   2.748 -0.9659 -1.7594 -0.9901
 4794TIP3   OH214345   6.549   4.250   2.647 -0.3492  0.0005 -0.2088
 4794TIP3    H114346   6.573   4.238   2.555  0.2420  2.0592 -0.3794
 4794TIP3    H214347   6.632   4.273   2.690 -0.5415 -1.3622  0.9385
 4795TIP3   OH214348   5.205   1.912   1.773 -0.6556  0.4961  0.9974
 4795TIP3    H114349   5.128   1.967   1.788  1.7842  4.0641  1.8276
 4795TIP3    H214350   5.253   1.916   1.856  1.6387  0.6353 -0.2476
 4796TIP3   OH214351   3.161   4.095   0.133 -0.0355  0.5442 -0.6820
 4796TIP3    H114352   3.081   4.045   0.118  0.7789 -0.2772 -2.6743
 4796TIP3    H214353   3.215   4.039   0.187  0.0754  0.1040 -1.2373
 4797TIP3   OH214354   2.293   4.437   0.352 -0.4917  0.4436  0.4357
 4797TIP3    H114355   2.241   4.395   0.284  0.0620  0.2324  0.1292
 4797TIP3    H214356   2.302   4.370   0.420  1.6364 -0.5573 -0.6881
 4798TIP3   OH214357   3.398   4.566   3.979  0.0175 -0.0872 -0.8678
 4798TIP3    H114358   3.375   4.656   4.005  1.2555  0.0514 -0.1677
 4798TIP3    H214359   3.336   4.545   3.909 -1.1969  0.7983 -0.1012
 4799TIP3   OH214360   2.928   5.377   3.199 -0.5754 -0.2934  0.0935
 4799TIP3    H114361   2.918   5.451   3.259  0.6691  0.7521 -0.9389
 4799TIP3    H214362   3.019   5.348   3.211 -0.3747 -0.2102 -1.1179
 4800TIP3   OH214363   6.084   3.421   5.190  0.1859 -0.4205 -0.2192
 4800TIP3    H114364   6.170   3.463   5.188 -0.3473  0.8226  0.8158
 4800TIP3    H214365   6.073   3.382   5.104  1.0151  1.0477 -1.0277
 4801TIP3   OH214366   2.284   4.995   5.025  0.2473  0.9683  0.4920
 4801TIP3    H114367   2.245   4.908   5.035  0.0415  0.8076 -1.4855
 4801TIP3    H214368   2.308   5.020   5.115  2.7433 -2.1883  0.8535
 4802TIP3   OH214369   4.060   0.836   0.178  0.9842 -0.2223  0.0554
 4802TIP3    H114370   4.069   0.744   0.151  0.7923  0.2973 -1.9107
 4802TIP3    H214371   3.969   0.857   0.158  1.5164  0.9157 -1.2479
 4803TIP3   OH214372   6.596   2.403   4.432 -0.4728 -0.2150 -0.0392
 4803TIP3    H114373   6.677   2.445   4.462 -0.3437 -0.0209 -0.6568
 4803TIP3    H214374   6.546   2.389   4.513  0.1017 -0.1873  0.3321
 4804TIP3   OH214375   0.096   6.323   4.485 -0.4666  0.8691 -0.3048
 4804TIP3    H114376   0.145   6.377   4.547 -0.9589  1.2201 -0.2126
 4804TIP3    H214377   0.115   6.233   4.511 -0.9411  1.0158  0.5799
 4805TIP3   OH214378   0.008   5.423   4.617 -0.3425  0.6042  0.4678
 4805TIP3    H114379   0.036   5.407   4.527 -0.8308 -2.0085  0.7004
 4805TIP3    H214380   0.086   5.458   4.661  2.6382 -5.2447  0.7975
 4806TIP3   OH214381   2.385   6.034   4.588  0.6171  0.3107  0.3226
 4806TIP3    H114382   2.427   6.009   4.505 -0.3714  0.2566 -0.1787
 4806TIP3    H214383   2.291   6.025   4.571  0.4256 -1.9374  2.1442
 4807TIP3   OH214384   7.016   6.630   4.473 -0.4403 -0.1512  1.0434
 4807TIP3    H114385   6.954   6.563   4.499  0.4668 -0.1900  3.3275
 4807TIP3    H214386   7.012   6.695   4.543  1.8055  0.0077  1.1110
 4808TIP3   OH214387   6.195   0.732   0.618 -0.3100 -0.5128 -0.1687
 4808TIP3    H114388   6.258   0.800   0.640  0.3759 -1.0907 -0.3034
 4808TIP3    H214389   6.248   0.655   0.600 -1.0469 -0.9602 -0.4905
 4809TIP3   OH214390   3.513   2.206   5.643  0.2822  0.2571  0.3165
 4809TIP3    H114391   3.461   2.286   5.634 -0.5132 -0.2312  0.4820
 4809TIP3    H214392   3.449   2.138   5.667  0.9338 -0.4417  0.1154
 4810TIP3   OH214393   1.832   3.482   0.455 -0.2768 -0.0757 -0.3010
 4810TIP3    H114394   1.776   3.413   0.492  1.1852 -0.4683  1.2802
 4810TIP3    H214395   1.778   3.561   0.462 -1.3122 -0.7377 -0.4980
 4811TIP3   OH214396   6.460   3.928   1.019  0.1501 -0.8127 -0.2312
 4811TIP3    H114397   6.403   3.996   1.055  2.3682  0.7243  0.5939
 4811TIP3    H214398   6.414   3.846   1.037 -1.5254  0.3079  0.8568
 4812TIP3   OH214399   3.178   0.367   3.958  0.6259 -0.6760 -0.1001
 4812TIP3    H114400   3.215   0.298   4.013  2.2059 -0.4740 -0.8466
 4812TIP3    H214401   3.145   0.433   4.020  2.8104 -0.2177  0.6543
 4813TIP3   OH214402   1.620   5.456   3.873  0.2337 -0.1461  0.0609
 4813TIP3    H114403   1.547   5.456   3.812  1.8898 -0.5131 -2.0305
 4813TIP3    H214404   1.604   5.532   3.930 -2.3294 -0.9199  0.4530
 4814TIP3   OH214405   4.965   3.117   0.692 -0.2090  0.1974 -0.0604
 4814TIP3    H114406   5.014   3.196   0.711 -1.0662  0.5190  0.9415
 4814TIP3    H214407   4.939   3.126   0.600 -0.2669  1.0664  0.0342
 4815TIP3   OH214408   7.156   2.346   1.732  0.2032 -0.3723  0.0025
 4815TIP3    H114409   7.156   2.413   1.663  0.8036  1.9602  2.1061
 4815TIP3    H214410   7.067   2.348   1.768  0.4580 -0.0594  0.6296
 4816TIP3   OH214411   6.905   4.087   2.007  0.4040  0.2216 -0.0258
 4816TIP3    H114412   6.948   4.138   2.075  1.8978  1.0134 -1.4876
 4816TIP3    H214413   6.974   4.030   1.973 -0.7997 -1.5683  0.3947
 4817TIP3   OH214414   3.264   5.840   2.385 -0.0087 -0.4681 -0.6507
 4817TIP3    H114415   3.213   5.880   2.314 -0.6973 -0.6670 -0.2754
 4817TIP3    H214416   3.352   5.830   2.348  0.2776  1.6859 -0.6364
 4818TIP3   OH214417   6.022   2.670   4.799 -0.3034  0.1616 -0.4654
 4818TIP3    H114418   6.111   2.687   4.831 -0.6325 -0.9211  1.0976
 4818TIP3    H214419   5.981   2.619   4.868 -1.9341  0.0465 -1.4820
 4819TIP3   OH214420   2.924   5.910   1.937  0.3710 -1.1268  0.3729
 4819TIP3    H114421   2.892   5.979   1.996  0.1931  0.4505 -1.4663
 4819TIP3    H214422   2.855   5.843   1.939 -1.0040  0.2117 -0.1689
 4820TIP3   OH214423   2.547   4.452   5.834  0.2379 -0.0214  0.3511
 4820TIP3    H114424   2.640   4.455   5.853  0.7278  0.7053 -1.9072
 4820TIP3    H214425   2.541   4.405   5.750 -1.2261  1.5380 -0.4731
 4821TIP3   OH214426   5.407   0.873   5.524 -0.2392 -0.4558  0.0403
 4821TIP3    H114427   5.479   0.826   5.481 -1.0807 -0.6249 -1.2476
 4821TIP3    H214428   5.450   0.947   5.567  0.7375 -0.6419 -0.5596
 4822TIP3   OH214429   4.589   4.029   4.470  0.0069  0.4644 -0.4642
 4822TIP3    H114430   4.656   3.994   4.411 -1.3464 -2.4351 -0.4550
 4822TIP3    H214431   4.528   4.076   4.413 -1.1918 -2.1517 -1.5050
 4823TIP3   OH214432   4.080   1.815   2.377  0.3370 -0.1272  0.1599
 4823TIP3    H114433   4.136   1.889   2.354  0.3712 -0.9978 -3.0135
 4823TIP3    H214434   3.996   1.836   2.337 -0.1652 -1.0630  0.7051
 4824TIP3   OH214435   3.762   4.293   1.926 -0.9158 -0.7008  0.1506
 4824TIP3    H114436   3.776   4.240   2.005  0.5870 -0.2211  0.2301
 4824TIP3    H214437   3.836   4.353   1.923 -1.6821  0.2468 -0.8810
 4825TIP3   OH214438   6.857   2.930   0.290  0.1749 -0.0596  0.3037
 4825TIP3    H114439   6.900   2.898   0.211  0.2156 -1.5175  0.8799
 4825TIP3    H214440   6.764   2.908   0.278  0.1171  0.0905  0.4724
 4826TIP3   OH214441   4.475   3.611   4.498 -0.3096 -0.3707 -0.7455
 4826TIP3    H114442   4.522   3.533   4.470  1.4592  0.3399  0.1237
 4826TIP3    H214443   4.480   3.610   4.593  0.9350  1.4619 -0.7404
 4827TIP3   OH214444   0.290   0.463   4.260 -0.0668 -0.5002 -0.0572
 4827TIP3    H114445   0.299   0.488   4.168 -0.4011  1.5166  0.4154
 4827TIP3    H214446   0.366   0.407   4.277  0.9070  0.4404 -1.1447
 4828TIP3   OH214447   3.556   1.555   1.083 -0.1272  0.0762  0.0405
 4828TIP3    H114448   3.600   1.634   1.113  1.4088 -1.5631  2.4712
 4828TIP3    H214449   3.616   1.516   1.020 -0.3390  0.2575 -0.2741
 4829TIP3   OH214450   1.280   1.552   2.782 -0.2178  0.6675 -0.2338
 4829TIP3    H114451   1.343   1.600   2.835  0.1025  1.1715 -1.0666
 4829TIP3    H214452   1.245   1.616   2.720 -2.1498  0.6059  0.7179
 4830TIP3   OH214453   0.692   0.170   3.263  0.2025  0.3004 -0.1636
 4830TIP3    H114454   0.711   0.083   3.228  0.6541 -0.1845  1.2233
 4830TIP3    H214455   0.709   0.162   3.357 -0.0268  1.8123  0.0262
 4831TIP3   OH214456   7.113   1.272   3.269  0.0367  0.4728 -0.4637
 4831TIP3    H114457   7.031   1.288   3.317 -0.1592 -0.2058 -0.5698
 4831TIP3    H214458   7.181   1.310   3.325 -0.5511  3.4739 -1.5636
 4832TIP3   OH214459   3.715   1.275   5.494 -0.8543 -0.1825  0.6002
 4832TIP3    H114460   3.780   1.232   5.549  0.4940 -1.4572 -1.8307
 4832TIP3    H214461   3.745   1.365   5.487  0.5065 -0.6761 -0.2049
 4833TIP3   OH214462   0.884   4.647   1.411 -0.0798  0.0435  0.4138
 4833TIP3    H114463   0.975   4.662   1.389  0.6032  0.2413  3.0861
 4833TIP3    H214464   0.886   4.576   1.475 -1.6780  0.7280  1.2921
 4834TIP3   OH214465   0.844   0.077   3.483 -0.6847  0.0504 -0.2363
 4834TIP3    H114466   0.828  -0.017   3.481 -1.1536  0.1353 -1.2745
 4834TIP3    H214467   0.938   0.086   3.468 -0.3731 -0.2848  1.3286
 4835TIP3   OH214468   6.610   3.145   3.664  0.6201  0.3785 -0.0997
 4835TIP3    H114469   6.679   3.206   3.686 -1.1510  1.8407  1.8177
 4835TIP3    H214470   6.538   3.200   3.632 -0.4472 -0.8413  0.1063
 4836TIP3   OH214471   6.664   5.976   3.602  0.6533 -0.2888 -0.5124
 4836TIP3    H114472   6.592   6.021   3.646 -0.9615 -0.8243 -2.4682
 4836TIP3    H214473   6.692   6.037   3.534  0.1700 -1.1652 -1.5230
 4837TIP3   OH214474   6.390   4.425   0.643  0.2565 -0.1328  0.1089
 4837TIP3    H114475   6.352   4.394   0.725  1.8259  2.1677  1.8455
 4837TIP3    H214476   6.463   4.365   0.625 -0.0342 -0.5844  0.4361
 4838TIP3   OH214477   1.837   3.123   4.080 -0.1880  0.0169 -0.4199
 4838TIP3    H114478   1.854   3.060   4.150 -0.7669 -0.1575 -0.4282
 4838TIP3    H214479   1.763   3.086   4.032 -1.1988  1.1676  0.1705
 4839TIP3   OH214480   1.989   1.277   4.659 -0.3589  0.2047  0.3596
 4839TIP3    H114481   1.932   1.349   4.685  0.8586  1.9069 -1.3903
 4839TIP3    H214482   1.968   1.263   4.567  0.8655 -0.2638  0.1382
 4840TIP3   OH214483   3.061   6.336   3.028  0.1665 -0.7911 -0.1097
 4840TIP3    H114484   3.034   6.413   3.077  0.4737 -1.7628  1.6702
 4840TIP3    H214485   2.982   6.307   2.983 -0.6421 -0.9206  1.3215
 4841TIP3   OH214486   2.625   5.304   1.933  0.3578  0.3287  0.0327
 4841TIP3    H114487   2.611   5.212   1.912 -0.5258  0.7361 -1.2702
 4841TIP3    H214488   2.675   5.302   2.015  1.4191 -1.2982 -0.6020
 4842TIP3   OH214489   5.710   3.656   3.452  0.7845  0.2069  0.7832
 4842TIP3    H114490   5.665   3.740   3.448  0.8991  0.2462  0.3306
 4842TIP3    H214491   5.740   3.650   3.543 -1.0722 -0.3104  1.4159
 4843TIP3   OH214492   3.056   5.176   0.435 -0.4183 -0.2160  0.4757
 4843TIP3    H114493   3.067   5.166   0.340  1.3369 -0.5664  0.6718
 4843TIP3    H214494   3.068   5.270   0.450  0.1794 -0.2805  0.4307
 4844TIP3   OH214495   4.347   0.490   2.137 -1.2728 -0.0145 -0.6495
 4844TIP3    H114496   4.383   0.575   2.113 -0.0812 -0.5026 -0.6572
 4844TIP3    H214497   4.316   0.502   2.227 -0.9423  0.3715 -0.5872
 4845TIP3   OH214498   7.114   2.212   5.555 -0.2258  0.1413  0.5709
 4845TIP3    H114499   7.105   2.135   5.499  1.1011 -0.5315  1.2440
 4845TIP3    H214500   7.058   2.278   5.514  0.3896 -0.4496 -1.3422
 4846TIP3   OH214501   1.729   3.406   2.852 -0.5394  0.4676  0.4238
 4846TIP3    H114502   1.656   3.434   2.797 -0.2623  1.2657  0.4613
 4846TIP3    H214503   1.788   3.360   2.792 -0.1554  1.4824  0.0148
 4847TIP3   OH214504   3.122   1.651   3.427 -0.5991 -0.4982  0.4837
 4847TIP3    H114505   3.080   1.584   3.481 -1.0983 -0.1290  0.5737
 4847TIP3    H214506   3.084   1.733   3.459 -0.9937 -0.2825 -0.5046
 4848TIP3   OH214507   1.036   6.090   0.898  0.2091 -0.2313  0.5909
 4848TIP3    H114508   0.991   6.143   0.832  0.9463  1.4708  1.4073
 4848TIP3    H214509   0.977   6.091   0.974 -1.1909 -3.1438 -0.2983
 4849TIP3   OH214510   6.512   4.643   4.591 -0.0935  0.0998  0.0206
 4849TIP3    H114511   6.600   4.607   4.578 -0.3018 -0.6343  0.5537
 4849TIP3    H214512   6.455   4.580   4.546 -0.4372 -0.0597  0.6673
 4850TIP3   OH214513   3.602   3.564   5.825  0.1016 -0.6352 -0.4159
 4850TIP3    H114514   3.544   3.559   5.901 -0.3674 -0.5018 -0.7541
 4850TIP3    H214515   3.688   3.537   5.858 -0.2254 -1.1771  0.0152
 4851TIP3   OH214516   6.848   5.157   3.632  0.2796 -0.2338  0.0318
 4851TIP3    H114517   6.856   5.077   3.580  0.4365  1.0607 -2.0698
 4851TIP3    H214518   6.929   5.205   3.615  0.0631  0.5006  1.0065
 4852TIP3   OH214519   3.032   3.104   5.312  0.5482  0.5967  0.0637
 4852TIP3    H114520   2.942   3.087   5.339  0.8619  0.1247  0.8430
 4852TIP3    H214521   3.024   3.167   5.240 -0.3719  0.9869  0.4918
 4853TIP3   OH214522   2.677   6.524   2.772 -0.2921 -0.3640  0.2491
 4853TIP3    H114523   2.643   6.503   2.859  0.5465 -0.7610  0.4874
 4853TIP3    H214524   2.733   6.450   2.749  0.1991  0.1447 -0.2422
 4854TIP3   OH214525   0.207   1.189   3.677  0.3688  0.2421 -0.2047
 4854TIP3    H114526   0.296   1.174   3.646  0.2171 -0.1235 -0.4732
 4854TIP3    H214527   0.217   1.251   3.750  0.9921 -0.8840  0.7120
 4855TIP3   OH214528   5.063   6.637   0.082  0.1861 -0.5728 -0.0720
 4855TIP3    H114529   5.083   6.581   0.008 -0.7862 -1.6723  0.4597
 4855TIP3    H214530   5.011   6.582   0.140 -1.6405  1.1590  0.0371
 4856TIP3   OH214531   0.618   0.476   4.540 -0.0250  0.1010  0.1136
 4856TIP3    H114532   0.538   0.509   4.500  0.9027  1.2254 -0.8642
 4856TIP3    H214533   0.633   0.391   4.498 -0.3473  0.1828 -0.1699
 4857TIP3   OH214534   0.884   2.708   3.122 -0.1617 -0.2291  0.2916
 4857TIP3    H114535   0.861   2.799   3.139 -1.8371 -0.6417  0.4815
 4857TIP3    H214536   0.946   2.712   3.050  2.4551  1.2192  2.4414
 4858TIP3   OH214537   2.705   6.281   0.223 -0.1413  0.3028  0.0420
 4858TIP3    H114538   2.729   6.277   0.315  0.4721  1.0662 -0.0695
 4858TIP3    H214539   2.705   6.375   0.203  0.3711  0.1159 -0.8952
 4859TIP3   OH214540   4.859   0.404   0.936 -0.1800  0.5600 -0.0356
 4859TIP3    H114541   4.947   0.410   0.972 -0.2476  0.1308  0.2153
 4859TIP3    H214542   4.805   0.373   1.009 -0.3464 -0.1531 -0.4495
 4860TIP3   OH214543   6.567   6.540   2.404  0.0880  1.0114  0.6293
 4860TIP3    H114544   6.494   6.480   2.422 -0.2696  1.6006  1.1949
 4860TIP3    H214545   6.595   6.518   2.315 -0.3945  0.3811  0.6240
 4861TIP3   OH214546   3.637   6.742   4.077  0.6020  0.5535 -0.2256
 4861TIP3    H114547   3.649   6.670   4.140 -0.0506  0.3626 -0.3142
 4861TIP3    H214548   3.725   6.758   4.043  0.7934 -0.0484 -0.0364
 4862TIP3   OH214549   4.656   3.580   3.030 -0.5395  0.2421 -0.3023
 4862TIP3    H114550   4.664   3.653   3.092 -1.3181 -0.0966  0.2139
 4862TIP3    H214551   4.746   3.554   3.011 -0.2736 -0.4391  1.6677
 4863TIP3   OH214552   0.610   4.594   1.310 -0.2411  0.0258 -0.6993
 4863TIP3    H114553   0.704   4.593   1.331  0.1997 -1.8045 -2.4269
 4863TIP3    H214554   0.602   4.658   1.240 -0.5255  1.1093  0.3045
 4864TIP3   OH214555   6.613   3.382   1.299  0.3340 -0.5341  0.3951
 4864TIP3    H114556   6.582   3.472   1.312 -0.6084 -0.8979  0.7023
 4864TIP3    H214557   6.594   3.363   1.207  1.1711 -0.1827  0.1435
 4865TIP3   OH214558   4.709   3.821   3.150  0.3076 -0.1892  0.1734
 4865TIP3    H114559   4.703   3.895   3.090  0.2985 -0.0996  0.2849
 4865TIP3    H214560   4.788   3.837   3.200 -0.6287  0.6631  1.4242
 4866TIP3   OH214561   2.374   3.740   3.242 -0.6548 -0.3982  0.3403
 4866TIP3    H114562   2.425   3.821   3.247 -1.4509  0.1149  0.3542
 4866TIP3    H214563   2.357   3.728   3.148 -1.3946  0.0074  0.4156
 4867TIP3   OH214564   0.088   6.113   3.454 -0.4604  0.2245  0.1693
 4867TIP3    H114565   0.037   6.064   3.389 -0.3160  1.4894 -0.9330
 4867TIP3    H214566   0.024   6.140   3.519 -0.8771  0.2412 -0.2427
 4868TIP3   OH214567   0.053   2.768   0.034 -0.2562 -0.2893 -0.2885
 4868TIP3    H114568   0.117   2.821   0.082  0.0482 -0.4185 -0.5482
 4868TIP3    H214569   0.105   2.725  -0.035  0.2067 -3.7221  1.9930
 4869TIP3   OH214570   4.318   5.322   1.098 -0.0092  0.2905  0.7614
 4869TIP3    H114571   4.322   5.400   1.042 -0.8065  0.7574  1.3415
 4869TIP3    H214572   4.405   5.316   1.137 -0.0619  1.1222  1.0151
 4870TIP3   OH214573   2.836   0.083   1.673 -0.3861  0.9023 -0.3445
 4870TIP3    H114574   2.845   0.123   1.586 -1.1927 -0.2494 -0.9841
 4870TIP3    H214575   2.916   0.031   1.683 -0.2060  1.1837 -0.3243
 4871TIP3   OH214576   6.852   0.836   0.067  0.2813 -0.1745 -0.5388
 4871TIP3    H114577   6.939   0.832   0.108 -0.8506 -0.9300  2.0459
 4871TIP3    H214578   6.854   0.768  -0.000  1.9213  0.3766 -1.0972
 4872TIP3   OH214579   1.845   1.258   4.952  0.1185 -0.5877  0.9152
 4872TIP3    H114580   1.771   1.258   5.013  0.8991 -1.6132  1.9169
 4872TIP3    H214581   1.809   1.222   4.871 -0.5852 -0.6700  1.2515
 4873TIP3   OH214582   5.132   3.573   2.676  0.7778  0.2236 -0.0466
 4873TIP3    H114583   5.216   3.528   2.680  0.1804 -0.8127  2.9781
 4873TIP3    H214584   5.067   3.503   2.669  0.0488  0.8927 -0.1364
 4874TIP3   OH214585   5.440   4.886   0.572  0.1684  0.2960  0.3430
 4874TIP3    H114586   5.527   4.920   0.552 -0.0071  0.7300  0.3087
 4874TIP3    H214587   5.394   4.887   0.489  0.8476 -2.1664 -0.1750
 4875TIP3   OH214588   0.635   5.643   1.409 -0.5264 -0.0051  0.3469
 4875TIP3    H114589   0.621   5.576   1.343 -0.2031  0.9982 -0.7716
 4875TIP3    H214590   0.563   5.631   1.471 -0.1552 -1.7150  0.4757
 4876TIP3   OH214591   2.403   6.653   1.592  0.0205  0.5133 -0.1021
 4876TIP3    H114592   2.425   6.648   1.685 -0.7897 -0.8216  0.0392
 4876TIP3    H214593   2.361   6.739   1.582  0.0556  0.6433  0.7715
 4877TIP3   OH214594   1.009   5.845   0.349  0.4317  0.4524  0.2413
 4877TIP3    H114595   0.967   5.765   0.315  0.1793  0.3610  0.7585
 4877TIP3    H214596   0.949   5.915   0.325 -0.2381  0.2757  1.3351
 4878TIP3   OH214597   1.140   0.997   5.800  0.1711 -0.4806  0.4855
 4878TIP3    H114598   1.156   0.909   5.767 -1.6252 -1.0149  0.9522
 4878TIP3    H214599   1.080   1.036   5.736 -0.0273 -0.0387  0.9349
 4879TIP3   OH214600   3.780   3.973   1.710  0.6971  0.0770 -0.8357
 4879TIP3    H114601   3.771   3.891   1.661 -1.2003  0.2199 -0.7752
 4879TIP3    H214602   3.732   4.038   1.659  2.7778  1.3950 -1.2693
 4880TIP3   OH214603   5.125   0.925   3.075 -0.0980  0.7371 -0.4613
 4880TIP3    H114604   5.101   0.921   2.982  0.3563  1.5543 -0.6209
 4880TIP3    H214605   5.220   0.937   3.076 -0.0790  0.5914  0.1146
 4881TIP3   OH214606   3.499   2.112   3.468 -0.1392 -0.0768  0.2952
 4881TIP3    H114607   3.513   2.188   3.524 -1.3693 -0.3866  1.0660
 4881TIP3    H214608   3.438   2.057   3.517 -1.9770  0.0481 -1.6913
 4882TIP3   OH214609   2.158   0.346   3.278  0.2836 -0.0913  0.5859
 4882TIP3    H114610   2.200   0.351   3.192 -0.7585  0.4032  0.0824
 4882TIP3    H214611   2.185   0.261   3.313 -1.9290 -1.9044 -1.6882
 4883TIP3   OH214612   3.166   0.219   5.625  0.1731 -0.2675  0.7235
 4883TIP3    H114613   3.260   0.205   5.611 -0.3837 -2.3050 -2.0614
 4883TIP3    H214614   3.131   0.130   5.634 -1.7698  0.2642 -1.0011
 4884TIP3   OH214615   5.035   6.007   5.171 -0.2625  0.3838 -0.4919
 4884TIP3    H114616   4.955   5.998   5.118 -1.5204 -0.2428  1.4092
 4884TIP3    H214617   5.041   5.925   5.220  2.1134  0.0196 -1.2639
 4885TIP3   OH214618   6.202   5.097   2.606 -0.4361  0.3481  0.2830
 4885TIP3    H114619   6.108   5.116   2.594 -0.8572 -1.1889  0.9404
 4885TIP3    H214620   6.235   5.085   2.517 -1.2357 -0.6916  0.1026
 4886TIP3   OH214621   6.101   1.134   1.673 -0.2689  0.3493  0.5077
 4886TIP3    H114622   6.045   1.211   1.689 -0.5087  0.1086  0.8396
 4886TIP3    H214623   6.160   1.162   1.603 -0.6990  0.6653  0.2643
 4887TIP3   OH214624   3.511   2.731   3.152 -0.2293 -0.3659 -0.1321
 4887TIP3    H114625   3.492   2.640   3.175  0.0648  0.2285  2.8183
 4887TIP3    H214626   3.588   2.754   3.203 -0.3352  1.5820 -0.7407
 4888TIP3   OH214627   4.130   1.202   2.352  0.2443  0.1642 -0.0368
 4888TIP3    H114628   4.201   1.194   2.416  0.1394  0.2720  0.0950
 4888TIP3    H214629   4.085   1.118   2.357  0.5337 -0.0088 -0.3268
 4889TIP3   OH214630   0.550   5.710   4.444 -0.9106 -0.0799 -0.7535
 4889TIP3    H114631   0.510   5.651   4.507  0.7244 -1.1338 -0.6412
 4889TIP3    H214632   0.644   5.704   4.461 -0.6346  2.1668 -1.1073
 4890TIP3   OH214633   2.135   2.960   1.426 -0.3193  0.2672  0.3957
 4890TIP3    H114634   2.198   2.949   1.497 -0.1603  0.5820  0.3014
 4890TIP3    H214635   2.143   2.880   1.374  0.4296  0.5713  0.0404
 4891TIP3   OH214636   4.486   3.651   1.995 -0.1506 -0.0959 -0.5478
 4891TIP3    H114637   4.504   3.704   2.073 -0.4725 -0.2082 -0.3931
 4891TIP3    H214638   4.559   3.589   1.990  0.5842  0.7922 -1.1107
 4892TIP3   OH214639   0.726   3.828   1.012  0.3040 -0.2101 -0.1361
 4892TIP3    H114640   0.675   3.751   0.986 -0.0484  0.5824 -1.9119
 4892TIP3    H214641   0.714   3.833   1.107 -1.1278 -1.3108 -0.2201
 4893TIP3   OH214642   3.323   5.991   1.750  0.2012  0.0557 -0.2074
 4893TIP3    H114643   3.349   6.061   1.690  1.0492  0.6746  0.8464
 4893TIP3    H214644   3.256   5.943   1.702 -0.8355  1.9282 -0.7744
 4894TIP3   OH214645   3.213  -0.014   4.721 -0.0781 -0.0243 -0.1379
 4894TIP3    H114646   3.184   0.075   4.743  0.3041  0.0456  0.0903
 4894TIP3    H214647   3.298  -0.002   4.679 -0.4644 -0.2149 -0.9875
 4895TIP3   OH214648   1.575   2.234   5.190 -0.1856 -0.2555 -0.0732
 4895TIP3    H114649   1.650   2.188   5.227  0.0939 -0.2779 -0.6499
 4895TIP3    H214650   1.600   2.250   5.099 -1.3919 -1.3989 -0.6415
 4896TIP3   OH214651   0.411   0.597   3.676 -0.4229 -0.0544  0.3983
 4896TIP3    H114652   0.325   0.583   3.638 -0.9085  0.0615  1.4262
 4896TIP3    H214653   0.462   0.521   3.648 -0.3668  0.6292 -1.5159
 4897TIP3   OH214654   1.353   0.345   3.085 -0.0182 -0.1523 -0.2135
 4897TIP3    H114655   1.292   0.275   3.061 -1.8979  1.8236 -1.7501
 4897TIP3    H214656   1.301   0.405   3.139  0.9549  0.9639 -0.4606
 4898TIP3   OH214657   5.330   2.698   5.865  0.1410  0.1959  0.0764
 4898TIP3    H114658   5.288   2.775   5.902 -1.1993  0.3091 -1.5470
 4898TIP3    H214659   5.410   2.731   5.823  0.6479  0.3531  1.1422
 4899TIP3   OH214660   2.195   1.576   0.003  0.4936  0.9104  0.2499
 4899TIP3    H114661   2.224   1.501  -0.050 -1.6767 -1.1565  1.7834
 4899TIP3    H214662   2.273   1.601   0.052  1.4717  0.1514 -0.8480
 4900TIP3   OH214663   0.081   2.206   3.086 -0.1297 -0.3027  0.2483
 4900TIP3    H114664   0.023   2.244   3.020 -0.4358  1.9131  1.6945
 4900TIP3    H214665   0.076   2.111   3.070 -1.8263  0.0147 -1.5216
 4901TIP3   OH214666   1.018   0.438   4.868  0.0184  0.4380 -0.1442
 4901TIP3    H114667   1.048   0.525   4.841  1.5644  0.0209  0.1375
 4901TIP3    H214668   0.923   0.444   4.867  0.0826  1.7465 -1.3811
 4902TIP3   OH214669   1.345   1.970   2.263 -0.4145 -0.2675 -0.5199
 4902TIP3    H114670   1.334   2.065   2.261  1.3894  0.3176  4.3837
 4902TIP3    H214671   1.413   1.953   2.197  0.1280  2.0621 -0.6553
 4903TIP3   OH214672   1.723   0.773   3.564  0.1168 -0.7865  0.3982
 4903TIP3    H114673   1.808   0.797   3.527  0.2228 -1.4280  0.2156
 4903TIP3    H214674   1.659   0.822   3.512  0.2129 -2.1676 -1.0996
 4904TIP3   OH214675   0.358   4.618   0.892  0.0706  0.0967  0.0903
 4904TIP3    H114676   0.285   4.555   0.895  0.5908 -0.6704 -1.8365
 4904TIP3    H214677   0.317   4.703   0.903 -0.8055 -0.4718  1.5129
 4905TIP3   OH214678   3.409   0.488   4.295 -0.1002  0.0747 -0.1930
 4905TIP3    H114679   3.490   0.539   4.301 -0.3212  0.3943  0.1088
 4905TIP3    H214680   3.439   0.398   4.282  0.2791  0.4767 -2.5472
 4906TIP3   OH214681   2.762   2.052   0.185  0.4193  0.1460 -0.5132
 4906TIP3    H114682   2.776   2.140   0.220 -0.9216 -0.5911  2.2100
 4906TIP3    H214683   2.677   2.056   0.142  0.0475  0.0589  0.1960
 4907TIP3   OH214684   5.472   2.239   3.487  0.8284 -0.3470 -0.1167
 4907TIP3    H114685   5.415   2.255   3.562  0.2731 -0.7493 -0.4544
 4907TIP3    H214686   5.546   2.298   3.501 -0.5519  1.5982 -0.6675
 4908TIP3   OH214687   1.069   1.089   2.054 -0.1351  0.0422 -0.2486
 4908TIP3    H114688   1.105   1.116   1.970  0.2517 -0.2423 -0.1780
 4908TIP3    H214689   1.124   1.133   2.119  1.3218 -1.8160 -0.0995
 4909TIP3   OH214690   3.510   4.655   0.724 -0.5916 -0.1613  0.1503
 4909TIP3    H114691   3.458   4.574   0.725 -0.5781 -0.1655  0.6402
 4909TIP3    H214692   3.448   4.723   0.698 -0.2755 -0.5446 -1.7654
 4910TIP3   OH214693   5.450   5.737   4.515 -0.3655 -0.3517  0.5660
 4910TIP3    H114694   5.429   5.731   4.422 -0.2010  2.1232  0.3113
 4910TIP3    H214695   5.544   5.754   4.518 -0.9251  3.6077  0.8552
 4911TIP3   OH214696   2.551   5.003   4.010  0.4776 -0.4623 -0.8684
 4911TIP3    H114697   2.511   5.007   3.923 -0.5224  0.2065 -0.3961
 4911TIP3    H214698   2.606   4.925   4.008  0.4198 -0.4902 -2.0786
 4912TIP3   OH214699   4.308   4.671   3.010 -0.0424 -0.2337  0.2764
 4912TIP3    H114700   4.380   4.632   2.960  0.9196  1.4795  0.2397
 4912TIP3    H214701   4.251   4.710   2.944  0.0080  0.0383  0.3919
 4913TIP3   OH214702   6.673   1.043   0.134 -0.1684  0.2913  1.0030
 4913TIP3    H114703   6.728   0.967   0.115 -0.2973  0.5835 -0.7066
 4913TIP3    H214704   6.729   1.118   0.116 -1.2155  0.6012 -1.3346
 4914TIP3   OH214705   6.965   5.410   0.955 -0.2556  0.1109  0.1687
 4914TIP3    H114706   6.951   5.373   0.868 -0.4270 -1.1230  0.6935
 4914TIP3    H214707   6.878   5.415   0.993 -0.1470  0.3188  0.3907
 4915TIP3   OH214708   3.209   6.172   3.854 -0.1754  0.2021  0.0091
 4915TIP3    H114709   3.203   6.126   3.769  0.3616  0.3461 -0.1105
 4915TIP3    H214710   3.303   6.184   3.867 -0.2101 -0.5464  1.0188
 4916TIP3   OH214711   0.882   5.631   0.232 -0.6466  0.0343  0.2202
 4916TIP3    H114712   0.883   5.621   0.137 -2.5712  0.0737  0.1553
 4916TIP3    H214713   0.955   5.578   0.263 -1.5917 -2.2236 -1.1310
 4917TIP3   OH214714   2.156   4.514   2.695  0.7032  0.1573  0.4700
 4917TIP3    H114715   2.102   4.536   2.770  2.8369  1.2254  1.8095
 4917TIP3    H214716   2.175   4.420   2.705  1.6238  0.4538  1.7913
 4918TIP3   OH214717   6.630   6.260   4.380  0.4310  0.6310  0.1568
 4918TIP3    H114718   6.591   6.271   4.467  1.6875  1.4829  0.6428
 4918TIP3    H214719   6.586   6.325   4.325  0.7861  1.2336  0.5763
 4919TIP3   OH214720   1.419   1.570   2.385 -0.2880  0.9740 -0.5776
 4919TIP3    H114721   1.345   1.604   2.435 -0.8346  1.2110 -1.5311
 4919TIP3    H214722   1.406   1.475   2.385 -0.5279  1.0045 -0.6244
 4920TIP3   OH214723   5.832   2.282   0.615 -0.4731 -0.4140  0.5749
 4920TIP3    H114724   5.906   2.291   0.554  0.4742 -0.8528  1.6211
 4920TIP3    H214725   5.848   2.349   0.682 -0.7765 -0.8268  1.0616
 4921TIP3   OH214726   4.598   1.124   2.031 -0.1745  0.1774  0.2182
 4921TIP3    H114727   4.662   1.053   2.039  0.0849  0.2840 -0.7853
 4921TIP3    H214728   4.515   1.078   2.018  0.0243  0.0444 -0.6479
 4922TIP3   OH214729   6.378   3.752   3.157  1.0605  0.2211 -0.1258
 4922TIP3    H114730   6.385   3.751   3.062 -0.2365 -0.4491 -0.2422
 4922TIP3    H214731   6.314   3.684   3.177  1.4223  0.2487  1.2438
 4923TIP3   OH214732   4.863   1.723   5.836  0.2132  0.2352 -0.3033
 4923TIP3    H114733   4.834   1.683   5.755 -0.7744 -0.5256  0.4060
 4923TIP3    H214734   4.783   1.739   5.886  0.4151  3.8381 -0.8338
 4924TIP3   OH214735   5.083   1.996   4.492 -0.0295 -0.0946 -1.3448
 4924TIP3    H114736   5.097   2.067   4.556 -1.6192 -0.2819 -0.7155
 4924TIP3    H214737   5.061   1.920   4.546  0.0636 -0.6469 -2.0789
 4925TIP3   OH214738   2.203   1.141   5.261 -0.5332 -0.0497 -0.0424
 4925TIP3    H114739   2.238   1.230   5.262  1.5930 -0.7932 -1.0630
 4925TIP3    H214740   2.113   1.151   5.228 -0.0289  1.6371 -1.0621
 4926TIP3   OH214741   5.045   0.345   2.258  0.3076  0.2431 -0.1371
 4926TIP3    H114742   5.049   0.272   2.319  0.2719 -0.3392 -0.8090
 4926TIP3    H214743   5.061   0.305   2.172 -2.5897  0.4788 -0.9182
 4927TIP3   OH214744   4.722   1.772   0.161 -0.2355  0.0248 -0.0919
 4927TIP3    H114745   4.762   1.733   0.239  0.3742  0.8882  0.0500
 4927TIP3    H214746   4.736   1.707   0.092  0.3285 -0.2188  0.2424
 4928TIP3   OH214747   5.902   1.892   1.025 -0.1491 -0.0886 -0.1989
 4928TIP3    H114748   5.903   1.945   1.105 -1.3564  0.7336 -0.7063
 4928TIP3    H214749   5.936   1.807   1.053  0.2527  0.4350  1.0014
 4929TIP3   OH214750   1.116   6.802   4.730  0.0166 -0.4899 -0.1404
 4929TIP3    H114751   1.181   6.732   4.725 -1.0525 -1.4860 -0.7285
 4929TIP3    H214752   1.094   6.808   4.823  0.4454 -0.6222 -0.0285
 4930TIP3   OH214753   1.265   3.922   5.005 -0.1837 -0.2264 -0.2104
 4930TIP3    H114754   1.291   3.912   5.097  0.9232  2.6927 -0.1096
 4930TIP3    H214755   1.169   3.923   5.008 -0.1667 -0.1847  0.8991
 4931TIP3   OH214756   0.569   5.323   4.044 -0.1843 -0.3958 -0.0818
 4931TIP3    H114757   0.565   5.260   4.116  0.1215 -0.6129 -0.2529
 4931TIP3    H214758   0.581   5.270   3.965  0.8346 -0.0985 -0.1472
 4932TIP3   OH214759   4.990   2.871   0.267 -0.0402 -0.2864  0.5839
 4932TIP3    H114760   4.941   2.825   0.198 -1.9194  1.4194  0.6910
 4932TIP3    H214761   4.970   2.822   0.347  2.7686 -2.7500 -0.0311
 4933TIP3   OH214762   0.110   1.049   0.369  0.1595 -0.1149 -0.2791
 4933TIP3    H114763   0.113   1.121   0.306  1.0359  0.6060  0.5562
 4933TIP3    H214764   0.033   0.998   0.344 -0.8272  1.4379 -0.5284
 4934TIP3   OH214765   5.333   6.642   3.389 -0.2898  0.2903 -0.1665
 4934TIP3    H114766   5.242   6.650   3.361 -0.5485 -0.2094  0.5150
 4934TIP3    H214767   5.330   6.651   3.484  0.3403 -0.0216 -0.1112
 4935TIP3   OH214768   6.838   0.847   5.451  0.6288  0.7451 -0.4378
 4935TIP3    H114769   6.780   0.908   5.497 -0.0261 -0.7157  0.7660
 4935TIP3    H214770   6.804   0.844   5.362 -1.3333 -0.2180  0.2798
 4936TIP3   OH214771   5.972   3.992   3.728  0.0095  0.0268 -0.3650
 4936TIP3    H114772   6.049   3.939   3.748  2.0710  2.5861 -0.8971
 4936TIP3    H214773   5.979   4.011   3.635 -1.8792 -0.4988 -0.6578
 4937TIP3   OH214774   1.482   2.446   1.014  0.1662 -0.2554 -0.0103
 4937TIP3    H114775   1.527   2.525   0.982  0.5154 -0.7813 -0.8624
 4937TIP3    H214776   1.534   2.374   0.979 -0.0801 -0.8693  0.8681
 4938TIP3   OH214777   4.186   4.760   5.652 -0.2182  0.4405  0.1115
 4938TIP3    H114778   4.150   4.848   5.638 -0.7461  0.0708 -0.9744
 4938TIP3    H214779   4.145   4.707   5.584  2.2134 -0.0717 -1.0511
 4939TIP3   OH214780   5.511   4.322   3.043  0.1493 -0.6195  1.0423
 4939TIP3    H114781   5.428   4.286   3.011 -0.1124 -0.0886  1.1097
 4939TIP3    H214782   5.489   4.361   3.128  0.2277  0.4769  0.5755
 4940TIP3   OH214783   6.810   4.344   3.163  0.3818 -0.6149  0.6572
 4940TIP3    H114784   6.902   4.336   3.186  0.9697 -1.4318 -1.7106
 4940TIP3    H214785   6.780   4.254   3.148 -0.4672 -0.2779  0.2207
 4941TIP3   OH214786   3.640   0.509   4.017  0.4111 -0.5859  0.6782
 4941TIP3    H114787   3.562   0.509   3.961 -1.2627 -0.2424  2.8906
 4941TIP3    H214788   3.634   0.592   4.065  1.2749 -1.2914  2.0393
 4942TIP3   OH214789   5.714   4.677   0.403 -0.3718  0.8238  0.6131
 4942TIP3    H114790   5.671   4.622   0.469 -0.6102 -1.3713 -1.2538
 4942TIP3    H214791   5.807   4.652   0.408 -0.4070  0.5777  0.0569
 4943TIP3   OH214792   6.232   5.101   1.304  0.1429 -1.1000 -0.6026
 4943TIP3    H114793   6.251   5.013   1.337  0.9712 -0.6898  0.0760
 4943TIP3    H214794   6.314   5.149   1.317 -0.7894  0.2286  0.6312
 4944TIP3   OH214795   3.611   5.048   2.328  0.0330 -0.2154 -0.1877
 4944TIP3    H114796   3.535   5.016   2.376  0.5685 -0.0074  0.8317
 4944TIP3    H214797   3.589   5.034   2.236 -1.4650  0.3409  0.0506
 4945TIP3   OH214798   2.644   2.878   4.250 -0.5828 -0.0406  0.6515
 4945TIP3    H114799   2.573   2.942   4.249 -0.3056  0.4147 -2.6238
 4945TIP3    H214800   2.609   2.804   4.299 -2.4712  1.0332  1.0385
 4946TIP3   OH214801   2.202   1.449   1.793  0.1024  0.0367  0.4633
 4946TIP3    H114802   2.138   1.499   1.843  0.1316 -0.6726  1.2314
 4946TIP3    H214803   2.149   1.389   1.740  0.0787 -2.1224  2.7248
 4947TIP3   OH214804   2.128   0.429   0.207 -0.4422  0.0999 -0.5147
 4947TIP3    H114805   2.138   0.469   0.121 -0.2741  0.3960 -0.3600
 4947TIP3    H214806   2.083   0.496   0.259  0.2355  0.2571 -0.1271
 4948TIP3   OH214807   5.891   5.136   5.808 -0.3303 -0.6327 -0.1348
 4948TIP3    H114808   5.894   5.186   5.890 -2.2865  0.5653 -0.7298
 4948TIP3    H214809   5.805   5.157   5.771 -0.6093 -3.2795 -1.1771
 4949TIP3   OH214810   3.999   2.168   1.757 -0.1334  0.6270  0.3475
 4949TIP3    H114811   4.054   2.096   1.726  0.6315 -0.7005  4.2292
 4949TIP3    H214812   4.027   2.244   1.706  4.5026 -0.2304  1.2005
 4950TIP3   OH214813   3.901   5.230   3.576  0.0067 -0.2137 -0.0299
 4950TIP3    H114814   3.983   5.196   3.612  0.7487  0.6433 -0.8327
 4950TIP3    H214815   3.929   5.280   3.499 -1.2900  0.0063 -0.3701
 4951TIP3   OH214816   3.557   5.280   5.046  0.3801 -0.0242  0.2414
 4951TIP3    H114817   3.631   5.290   4.986 -0.6881 -0.7858 -1.2560
 4951TIP3    H214818   3.527   5.190   5.033 -0.3484  0.0342  1.3796
 4952TIP3   OH214819   7.025   1.510   2.824  0.1669  0.3527 -0.1965
 4952TIP3    H114820   6.958   1.442   2.827 -0.1344  0.6453 -0.1590
 4952TIP3    H214821   7.088   1.484   2.891 -0.8587  1.0351  1.0906
 4953TIP3   OH214822   3.701   6.738   0.591 -0.3133 -0.8172  0.4218
 4953TIP3    H114823   3.751   6.703   0.665  1.3290  0.4026 -0.0511
 4953TIP3    H214824   3.632   6.790   0.631  0.7152  0.0413  1.1244
 4954TIP3   OH214825   7.009   3.909   0.954 -0.2037 -0.0323  0.5985
 4954TIP3    H114826   6.976   3.819   0.946 -0.7039  0.0356  1.7419
 4954TIP3    H214827   7.086   3.901   1.010  0.1158  0.1866  0.1998
 4955TIP3   OH214828   4.844   5.574   5.729  0.4820  0.0977 -0.5485
 4955TIP3    H114829   4.766   5.529   5.698  1.1990 -1.3168 -0.4073
 4955TIP3    H214830   4.913   5.547   5.667  1.0265  0.6247 -0.1785
 4956TIP3   OH214831   4.879   4.963   2.263 -0.5829  0.1322  0.2334
 4956TIP3    H114832   4.969   4.932   2.253 -0.0765  0.8309  2.1581
 4956TIP3    H214833   4.831   4.887   2.296 -0.9034 -0.4418 -1.4497
 4957TIP3   OH214834   6.185   5.240   5.490  0.5202  0.3240 -0.4423
 4957TIP3    H114835   6.143   5.322   5.462  0.6789  0.0137 -1.6687
 4957TIP3    H214836   6.166   5.234   5.583  2.5228  2.9764  0.2731
 4958TIP3   OH214837   2.695   1.052   0.830  0.0567  0.3813  0.1820
 4958TIP3    H114838   2.654   1.026   0.912  2.3729 -0.4476  1.1583
 4958TIP3    H214839   2.759   1.119   0.855  1.7577 -0.8376 -0.6686
 4959TIP3   OH214840   6.092   0.194   4.419 -0.1243  0.5783  0.2493
 4959TIP3    H114841   6.150   0.270   4.417 -1.4594  1.5982 -1.0590
 4959TIP3    H214842   6.122   0.144   4.495  3.5829  0.1475 -1.2537
 4960TIP3   OH214843   7.138   3.908   3.415  0.0412  0.2642 -0.3780
 4960TIP3    H114844   7.222   3.862   3.417 -0.3719 -0.5137 -0.4996
 4960TIP3    H214845   7.155   3.985   3.360  1.2917  1.4266  1.5162
 4961TIP3   OH214846   1.132   4.427   3.492 -0.5845 -0.2892 -0.6531
 4961TIP3    H114847   1.129   4.382   3.577  0.9480  0.8816  0.0772
 4961TIP3    H214848   1.164   4.515   3.513 -2.3697  0.7938 -2.1881
 4962TIP3   OH214849   0.441   0.403   2.916  0.3439 -0.7547 -0.0460
 4962TIP3    H114850   0.468   0.356   2.837 -0.3397 -0.1406 -0.6683
 4962TIP3    H214851   0.450   0.495   2.894  2.7001 -0.5335  1.5350
 4963TIP3   OH214852   6.340   2.681   5.269  0.0006  0.0720 -0.3380
 4963TIP3    H114853   6.371   2.763   5.308  0.7668 -0.0463 -0.6702
 4963TIP3    H214854   6.325   2.622   5.343 -1.2298  0.7271 -0.0451
 4964TIP3   OH214855   5.506   2.567   0.133  0.0255  0.1741  0.0942
 4964TIP3    H114856   5.572   2.628   0.165  0.8827  0.1525 -1.5507
 4964TIP3    H214857   5.423   2.610   0.152  0.5028  0.5044  1.5922
 4965TIP3   OH214858   1.037   4.778   3.800  0.6660 -0.1092  0.3883
 4965TIP3    H114859   1.069   4.861   3.834  0.0493  0.5324 -0.5716
 4965TIP3    H214860   0.948   4.770   3.836 -0.3409  1.0051 -1.6927
 4966TIP3   OH214861   5.203   3.071   3.266  0.7176  0.1459 -0.0192
 4966TIP3    H114862   5.216   3.002   3.330  1.1416  0.8870  0.7113
 4966TIP3    H214863   5.241   3.149   3.306  0.5036  0.7466 -0.9429
 4967TIP3   OH214864   5.730   0.701   3.848 -0.5222 -0.1988 -0.8833
 4967TIP3    H114865   5.710   0.627   3.905  1.7742 -1.3886 -1.4632
 4967TIP3    H214866   5.820   0.724   3.870 -0.7158  1.5147 -1.7089
 4968TIP3   OH214867   2.218   2.014   3.299 -0.3185 -0.1162 -0.0750
 4968TIP3    H114868   2.152   1.948   3.321 -1.6942  1.1199 -0.3636
 4968TIP3    H214869   2.168   2.094   3.285  1.1757  0.6703 -1.1312
 4969TIP3   OH214870   0.641   6.523   3.935  0.2744 -0.5874  0.0577
 4969TIP3    H114871   0.679   6.460   3.996 -0.0013 -1.4847 -0.6673
 4969TIP3    H214872   0.550   6.495   3.926  1.0139 -2.5033 -3.1468
 4970TIP3   OH214873   3.508   1.013   2.566  0.2607  0.2717  0.7585
 4970TIP3    H114874   3.422   1.013   2.525  0.4206 -1.1871  0.3488
 4970TIP3    H214875   3.495   1.053   2.651 -1.1083 -1.0623  1.2123
 4971TIP3   OH214876   1.644   5.201   2.971  0.2882  0.7916 -0.8488
 4971TIP3    H114877   1.562   5.245   2.994 -0.8948 -0.2277 -2.8421
 4971TIP3    H214878   1.626   5.158   2.888  2.9298  0.6822 -1.4649
 4972TIP3   OH214879   5.250   5.322   2.911 -0.3229 -0.0075 -0.0349
 4972TIP3    H114880   5.186   5.252   2.901  0.6143 -0.9046 -0.0257
 4972TIP3    H214881   5.203   5.402   2.889 -1.1903 -0.7383 -0.9374
 4973TIP3   OH214882   5.227   0.623   2.575  0.2776 -0.2045  0.3639
 4973TIP3    H114883   5.216   0.529   2.589 -1.0004 -0.1206  0.0483
 4973TIP3    H214884   5.275   0.629   2.492 -2.8043 -0.6093 -1.6209
 4974TIP3   OH214885   2.809   3.997   3.189  0.2513 -0.0367 -0.5427
 4974TIP3    H114886   2.733   4.006   3.246  0.6675  0.4754 -0.0608
 4974TIP3    H214887   2.776   3.949   3.113  0.1368 -2.6857  1.0375
 4975TIP3   OH214888   0.174   2.875   4.920 -0.0389 -0.2942  0.4004
 4975TIP3    H114889   0.255   2.865   4.869 -0.1124 -0.4853  0.3224
 4975TIP3    H214890   0.138   2.959   4.891  0.7168  0.3396  1.2518
 4976TIP3   OH214891   4.301   3.169   4.891  0.7399 -0.5427 -0.4667
 4976TIP3    H114892   4.265   3.258   4.885 -0.8802 -1.1236  0.2675
 4976TIP3    H214893   4.392   3.182   4.919  0.0438  0.8282  1.3155
 4977TIP3   OH214894   2.571   1.092   1.356  0.2377  0.3191 -0.1826
 4977TIP3    H114895   2.562   1.081   1.451  0.3208  0.1113 -0.1987
 4977TIP3    H214896   2.654   1.050   1.335 -0.1682 -0.3652 -0.4643
 4978TIP3   OH214897   0.207   5.873   5.824 -0.6826  0.0658 -0.2133
 4978TIP3    H114898   0.286   5.923   5.845 -0.2696 -0.2252 -1.0873
 4978TIP3    H214899   0.170   5.852   5.910  1.4129 -1.8012  0.3122
 4979TIP3   OH214900   2.424   2.911   2.433 -0.0573 -0.2362  0.0697
 4979TIP3    H114901   2.397   3.000   2.455  0.5678 -0.0022 -0.0864
 4979TIP3    H214902   2.347   2.873   2.391 -0.3216  0.2451  0.1055
 4980TIP3   OH214903   0.707   4.350   3.246  0.0759  0.1448 -0.4640
 4980TIP3    H114904   0.637   4.415   3.239 -0.1935  0.1963  1.7872
 4980TIP3    H214905   0.670   4.280   3.300  1.4287 -0.2718 -0.0282
 4981TIP3   OH214906   2.680   2.490   0.676  0.3868  0.2504 -0.0204
 4981TIP3    H114907   2.586   2.503   0.685  0.6410  0.4140  3.5601
 4981TIP3    H214908   2.720   2.560   0.727  2.5457  0.4536 -1.8015
 4982TIP3   OH214909   5.755   0.483   4.934  0.1357  0.0284 -0.4597
 4982TIP3    H114910   5.846   0.488   4.905  0.7625 -2.5130  0.8050
 4982TIP3    H214911   5.717   0.412   4.884 -0.6955  0.0154  0.1613
 4983TIP3   OH214912   4.255   3.173   1.460  0.2455  0.0913  0.2840
 4983TIP3    H114913   4.268   3.132   1.545  0.3617  0.7564  0.5978
 4983TIP3    H214914   4.207   3.254   1.479  0.9609  0.6445 -0.1725
 4984TIP3   OH214915   0.685   3.418   4.466 -0.4720  0.5096  0.4946
 4984TIP3    H114916   0.779   3.403   4.454 -0.5932 -2.0394  1.9590
 4984TIP3    H214917   0.676   3.513   4.468  2.0167  0.8310 -0.0366
 4985TIP3   OH214918   1.314   0.835   1.148 -0.3655 -0.0842  0.1592
 4985TIP3    H114919   1.369   0.777   1.201 -1.1020 -2.1561 -1.1931
 4985TIP3    H214920   1.311   0.792   1.062 -2.7624  0.7948 -0.2556
 4986TIP3   OH214921   3.187   0.975   4.085 -0.1751 -0.5045 -0.1204
 4986TIP3    H114922   3.225   0.905   4.031  1.6166  1.3979 -1.4909
 4986TIP3    H214923   3.261   1.032   4.106 -1.5301  0.9047  1.1026
 4987TIP3   OH214924   5.710   5.822   5.222 -0.5497 -0.0986 -0.1209
 4987TIP3    H114925   5.635   5.851   5.169 -0.4882  0.9333  0.3404
 4987TIP3    H214926   5.718   5.888   5.290  0.6346 -0.3394 -0.0133
 4988TIP3   OH214927   3.825   4.797   0.846 -0.0698 -0.1384  0.4093
 4988TIP3    H114928   3.849   4.705   0.860 -1.5620 -0.4703  0.8993
 4988TIP3    H214929   3.758   4.794   0.778  1.0273  0.7487 -0.7597
 4989TIP3   OH214930   1.895   3.033   0.840 -0.9201 -0.0638 -0.1846
 4989TIP3    H114931   1.828   3.018   0.773 -1.1003 -2.7684  0.4847
 4989TIP3    H214932   1.848   3.076   0.911 -1.4567 -0.0376 -0.5485
 4990TIP3   OH214933   7.128   5.685   1.451 -0.7876  0.0132 -0.1515
 4990TIP3    H114934   7.191   5.645   1.391 -0.8078  0.9666 -0.8275
 4990TIP3    H214935   7.043   5.668   1.413 -0.8688 -0.2111  0.1224
 4991TIP3   OH214936   4.946   6.288   5.558  0.0599  0.0178 -0.0299
 4991TIP3    H114937   4.859   6.328   5.562 -0.3434 -0.7806 -0.5733
 4991TIP3    H214938   5.006   6.358   5.584 -0.8705  0.1064  2.1480
 4992TIP3   OH214939   6.664   6.429   5.226 -0.4941  0.1584 -0.3730
 4992TIP3    H114940   6.698   6.490   5.291  0.0160 -0.0342 -0.4586
 4992TIP3    H214941   6.740   6.399   5.178 -0.6940 -0.7591 -0.1538
 4993TIP3   OH214942   6.256   1.924   1.472 -0.3352 -0.6301 -0.5213
 4993TIP3    H114943   6.170   1.882   1.467 -0.2946 -1.0662  1.5671
 4993TIP3    H214944   6.239   2.016   1.453 -1.1053 -0.8769 -1.0813
 4994TIP3   OH214945   3.532   3.560   1.278 -0.3963  0.3777  0.1349
 4994TIP3    H114946   3.471   3.504   1.326 -0.8478  0.2907 -0.5268
 4994TIP3    H214947   3.577   3.500   1.218 -1.6316  0.8688 -1.3338
 4995TIP3   OH214948   2.258   2.383   5.501  0.0071 -0.0577  0.7272
 4995TIP3    H114949   2.343   2.356   5.538  1.0431  0.8764 -0.8509
 4995TIP3    H214950   2.200   2.309   5.518  1.4242 -1.1892  0.8811
 4996TIP3   OH214951   1.451   3.813   0.395  0.1492  0.0497  0.3489
 4996TIP3    H114952   1.446   3.718   0.408 -0.3705 -0.1426 -1.0454
 4996TIP3    H214953   1.531   3.825   0.344  0.5596  0.4354  1.0802
 4997TIP3   OH214954   6.785   0.515   2.381  0.0029 -0.8266 -0.3387
 4997TIP3    H114955   6.854   0.463   2.422 -1.0056 -2.7087 -0.9173
 4997TIP3    H214956   6.764   0.582   2.447  2.9546  0.4358 -0.5118
 4998TIP3   OH214957   7.113   1.727   3.176  0.3001  0.0489  0.7048
 4998TIP3    H114958   7.190   1.673   3.191  0.1564 -0.0349  1.1650
 4998TIP3    H214959   7.042   1.664   3.165 -0.3492  0.0911  3.7467
 4999TIP3   OH214960   5.379   4.632   4.791 -0.3293  0.5969  0.2447
 4999TIP3    H114961   5.291   4.646   4.755  0.3078  0.9271 -1.2745
 4999TIP3    H214962   5.390   4.701   4.855 -0.4233  1.8765 -1.0663
 5000TIP3   OH214963   4.277   1.690   5.748  0.4596 -0.4286  0.0970
 5000TIP3    H114964   4.295   1.766   5.692 -1.5826  0.1601  0.1474
 5000TIP3    H214965   4.310   1.714   5.834 -1.4259  1.0932  0.4789
 5001TIP3   OH214966   4.313   1.844   5.050  0.6798 -0.7128 -0.0880
 5001TIP3    H114967   4.380   1.793   5.095  0.4985 -0.6005  0.3169
 5001TIP3    H214968   4.360   1.920   5.015  0.7573 -0.6099  0.2347
 5002TIP3   OH214969   2.522   0.343   4.895 -0.2018  0.2622  0.0637
 5002TIP3    H114970   2.531   0.339   4.990  0.6886  0.2749 -0.0129
 5002TIP3    H214971   2.452   0.407   4.881  1.6468  2.5356  0.6548
 5003TIP3   OH214972   6.518   5.949   1.882  0.1850  0.2108 -0.7259
 5003TIP3    H114973   6.490   6.034   1.849  0.5596  0.1760 -1.1306
 5003TIP3    H214974   6.611   5.960   1.902 -0.5519  1.0823  2.9807
 5004TIP3   OH214975   1.086   6.476   1.508 -0.3745 -0.0812  0.2463
 5004TIP3    H114976   1.096   6.466   1.413 -0.3698  2.0366 -0.0432
 5004TIP3    H214977   1.118   6.394   1.545  0.0081 -0.7962 -1.5716
 5005TIP3   OH214978   1.425   1.827   1.520  0.1119  0.1132 -0.6351
 5005TIP3    H114979   1.453   1.751   1.469  0.5439  0.5889 -1.1152
 5005TIP3    H214980   1.402   1.893   1.454  1.8664  1.1717 -0.2319
 5006TIP3   OH214981   4.213   5.873   5.011 -0.3350  0.4725 -0.1356
 5006TIP3    H114982   4.209   5.969   5.016 -0.1039  0.4576  0.3791
 5006TIP3    H214983   4.150   5.843   5.076  1.6488  0.2814  1.8054
 5007TIP3   OH214984   5.530   5.950   5.422  0.6381 -0.7458  1.0855
 5007TIP3    H114985   5.461   5.982   5.363  1.6229  0.1218  0.3731
 5007TIP3    H214986   5.497   5.866   5.454 -0.6642 -0.4378  0.6105
 5008TIP3   OH214987   0.166   5.084   2.199 -0.3317 -0.1284  1.0538
 5008TIP3    H114988   0.092   5.024   2.203 -2.1362  1.8212 -0.5078
 5008TIP3    H214989   0.193   5.083   2.107  0.1732  0.7758  1.1783
 5009TIP3   OH214990   0.383   1.264   4.485 -0.8586 -0.6991 -0.2787
 5009TIP3    H114991   0.335   1.221   4.556 -1.4937  0.1158 -0.1845
 5009TIP3    H214992   0.472   1.273   4.518 -1.6958  2.0917  1.6398
 5010TIP3   OH214993   4.273   2.844   0.202  0.6816  0.0514 -0.4948
 5010TIP3    H114994   4.271   2.750   0.181  2.4309 -0.0372 -0.4171
 5010TIP3    H214995   4.270   2.847   0.298  0.6815  0.0681 -0.4953
 5011TIP3   OH214996   6.256   4.567   4.506 -0.2105  0.1985 -0.1955
 5011TIP3    H114997   6.162   4.552   4.498 -0.4891  1.1373  0.9733
 5011TIP3    H214998   6.275   4.549   4.598  0.3965  1.7487  0.0036
 5012TIP3   OH214999   1.077   0.973   0.793 -0.1951  0.0162  0.0683
 5012TIP3    H115000   0.988   0.958   0.761 -0.5543 -1.2291  1.5808
 5012TIP3    H215001   1.132   0.917   0.738 -0.5459 -0.4208  0.1554
 5013TIP3   OH215002   0.807   1.413   2.400  0.3019 -0.3965  0.1466
 5013TIP3    H115003   0.773   1.324   2.403  1.1289 -0.7439 -0.3314
 5013TIP3    H215004   0.850   1.426   2.484  0.8270 -0.7340 -0.0580
 5014TIP3   OH215005   0.068   3.147   0.917  0.4336  0.1239  0.2126
 5014TIP3    H115006   0.083   3.241   0.917 -0.4385  0.2820 -0.7297
 5014TIP3    H215007   0.118   3.115   0.842 -1.6402  0.2993 -1.3508
 5015TIP3   OH215008   0.503   3.739   0.007  0.1826 -0.2481  0.0237
 5015TIP3    H115009   0.428   3.798   0.004  0.7214  0.4118 -1.4975
 5015TIP3    H215010   0.483   3.678   0.078 -0.8413  1.1504  0.9977
 5016TIP3   OH215011   0.540   0.080   1.140 -0.1344 -0.1417 -0.5049
 5016TIP3    H115012   0.447   0.106   1.140  0.1422  0.8870 -0.6919
 5016TIP3    H215013   0.538  -0.015   1.130 -1.1922 -0.2192  0.2447
 5017TIP3   OH215014   0.406   4.561   0.586  0.6463  0.0445 -0.0497
 5017TIP3    H115015   0.475   4.596   0.530 -0.3718  3.1362  0.4157
 5017TIP3    H215016   0.327   4.565   0.531  0.2589 -0.1796  0.4789
 5018TIP3   OH215017   2.899   6.695   4.375  0.1345 -0.4982 -0.0961
 5018TIP3    H115018   2.934   6.670   4.290 -2.7303 -0.1184 -1.5010
 5018TIP3    H215019   2.836   6.626   4.396 -1.3422  0.9116  0.2658
 5019TIP3   OH215020   3.356   4.619   2.252 -0.6431  0.3903  0.0200
 5019TIP3    H115021   3.437   4.661   2.222 -2.0046  2.2158 -1.3927
 5019TIP3    H215022   3.330   4.669   2.329 -1.2535  0.9592 -0.5286
 5020TIP3   OH215023   2.795   2.437   3.741  0.4577  0.1991 -0.3981
 5020TIP3    H115024   2.799   2.378   3.816 -0.9876  1.0753  0.4192
 5020TIP3    H215025   2.796   2.380   3.664  0.1073 -0.8326  0.3479
 5021TIP3   OH215026   1.851   5.492   2.370  0.4446  0.9175 -0.2032
 5021TIP3    H115027   1.928   5.521   2.419  1.4452 -0.1998 -1.0537
 5021TIP3    H215028   1.816   5.572   2.331 -0.7178  1.9409  2.6701
 5022TIP3   OH215029   5.808   3.580   4.615  0.4378 -0.0151 -0.4491
 5022TIP3    H115030   5.858   3.626   4.548  0.7294 -0.1452 -0.3269
 5022TIP3    H215031   5.873   3.559   4.683  0.5156 -1.3652 -0.8953
 5023TIP3   OH215032   6.169   3.349   2.318  0.2641  0.2561 -0.4712
 5023TIP3    H115033   6.172   3.336   2.223  0.2073 -2.9588 -0.1533
 5023TIP3    H215034   6.077   3.371   2.336  0.1626  0.3602 -1.0880
 5024TIP3   OH215035   2.696   3.465   3.406 -0.0623  0.6333  0.4450
 5024TIP3    H115036   2.742   3.394   3.451  1.9658  1.3484 -0.4242
 5024TIP3    H215037   2.654   3.514   3.476  1.3078  0.5133  1.3820
 5025TIP3   OH215038   3.847   1.967   2.820  0.3875  0.0599 -0.3923
 5025TIP3    H115039   3.765   1.987   2.866  1.2439 -0.6446  1.5646
 5025TIP3    H215040   3.865   2.044   2.767 -0.7173  0.9037  0.4100
 5026TIP3   OH215041   6.840   4.497   4.118  0.3532 -0.2556 -0.5531
 5026TIP3    H115042   6.868   4.572   4.171  0.8478 -0.6031 -0.3221
 5026TIP3    H215043   6.759   4.527   4.076 -0.5464 -0.2748  1.0856
 5027TIP3   OH215044   4.040   3.274   2.338  0.4503  1.1784  0.3659
 5027TIP3    H115045   4.046   3.183   2.308  0.3898  1.4355 -0.4372
 5027TIP3    H215046   4.073   3.271   2.428 -0.2226  0.2389  0.5968
 5028TIP3   OH215047   4.480   5.215   3.290 -0.0645  0.2091  0.1780
 5028TIP3    H115048   4.489   5.120   3.296 -1.9987 -0.0496 -0.1726
 5028TIP3    H215049   4.560   5.250   3.329  0.4226 -1.5538  0.8365
 5029TIP3   OH215050   0.215   3.019   0.172  0.0385 -0.1419 -0.3613
 5029TIP3    H115051   0.212   3.039   0.079  1.9095  0.6816 -0.2997
 5029TIP3    H215052   0.179   3.097   0.215 -0.6147 -0.4297 -0.3787
 5030TIP3   OH215053   2.402   1.938   3.871 -0.2655  0.8318 -0.1931
 5030TIP3    H115054   2.336   1.945   3.802 -3.1603 -0.4900  2.1651
 5030TIP3    H215055   2.472   1.885   3.832 -2.0132 -0.3309 -1.9603
 5031TIP3   OH215056   5.595   5.901   0.580  0.1672  0.5908  0.2854
 5031TIP3    H115057   5.612   5.807   0.574  2.4572  0.9916 -0.5903
 5031TIP3    H215058   5.550   5.911   0.664 -0.2404 -1.2922  0.3455
 5032TIP3   OH215059   5.973   1.506   3.290  0.0549 -0.3247  0.3485
 5032TIP3    H115060   5.963   1.598   3.265 -2.8861 -0.4880  0.5219
 5032TIP3    H215061   6.046   1.475   3.238  0.6055  1.9140 -0.3175
 5033TIP3   OH215062   1.977   2.812   4.673 -0.2227 -0.2921  0.3154
 5033TIP3    H115063   2.021   2.727   4.681 -1.2038 -0.7209  1.6841
 5033TIP3    H215064   1.884   2.791   4.677 -0.4791  0.8660  1.1064
 5034TIP3   OH215065   0.319   0.059   3.475  0.0810  0.1691  0.2207
 5034TIP3    H115066   0.339   0.102   3.392 -0.0397 -0.6354 -0.2288
 5034TIP3    H215067   0.404   0.032   3.509  0.4447  2.8002  1.6711
 5035TIP3   OH215068   5.714   2.426   5.526  0.3057 -0.0766 -0.3548
 5035TIP3    H115069   5.649   2.376   5.476  1.1779 -0.4959 -1.0948
 5035TIP3    H215070   5.791   2.370   5.528  0.7920  0.5968  0.1359
 5036TIP3   OH215071   3.656   4.271   3.168  0.5295 -0.3518 -0.5986
 5036TIP3    H115072   3.748   4.291   3.148  1.2043  0.0666  2.3618
 5036TIP3    H215073   3.657   4.179   3.193  0.1484 -0.3377 -0.5289
 5037TIP3   OH215074   6.874   6.254   2.014 -0.0529 -0.3245  0.1521
 5037TIP3    H115075   6.822   6.311   2.070  0.4820 -0.0124  0.3444
 5037TIP3    H215076   6.963   6.260   2.050  0.4146  0.3130 -1.0352
 5038TIP3   OH215077   3.504   4.290   5.325  0.3242  0.5294  0.2751
 5038TIP3    H115078   3.534   4.207   5.363 -0.0584  0.6241  0.7988
 5038TIP3    H215079   3.433   4.265   5.266  1.1721  0.3402 -0.7139
 5039TIP3   OH215080   6.048   1.997   2.324  0.0140  0.6045  0.5417
 5039TIP3    H115081   6.079   1.948   2.401  0.5200 -0.3341 -0.2384
 5039TIP3    H215082   5.978   2.052   2.358  1.3391  1.4846  2.0334
 5040TIP3   OH215083   4.209   4.180   0.689 -0.4513 -0.0934 -0.1164
 5040TIP3    H115084   4.193   4.263   0.644  1.0227  0.4213  0.2592
 5040TIP3    H215085   4.146   4.119   0.649  0.6860  0.3575 -2.8376
 5041TIP3   OH215086   3.135   0.806   5.488  1.2385  1.0886  0.2343
 5041TIP3    H115087   3.150   0.886   5.537 -1.6875  1.5277  0.6077
 5041TIP3    H215088   3.048   0.818   5.448  0.8131 -1.7599  0.0861
 5042TIP3   OH215089   4.298   5.963   2.171  0.0979 -0.2120 -0.5013
 5042TIP3    H115090   4.343   5.882   2.147  1.8793  0.2932  0.9091
 5042TIP3    H215091   4.343   6.031   2.122  1.2677  0.3584  1.2693
 5043TIP3   OH215092   4.852   1.094   4.078 -0.2414  0.5651  0.8163
 5043TIP3    H115093   4.877   1.186   4.068  3.1770 -0.2322  1.1124
 5043TIP3    H215094   4.796   1.092   4.156 -0.9891  2.4328  0.3825
 5044TIP3   OH215095   5.686   6.759   0.779 -0.6092 -0.2997 -0.2906
 5044TIP3    H115096   5.637   6.780   0.859 -1.1702 -0.5483 -0.5604
 5044TIP3    H215097   5.654   6.672   0.754  0.9465 -1.0633  0.2606
 5045TIP3   OH215098   1.905   3.687   2.469 -0.0632 -0.1293 -0.1030
 5045TIP3    H115099   1.960   3.765   2.475  0.8139 -0.6375 -1.0423
 5045TIP3    H215100   1.833   3.703   2.530  0.1723  1.3412 -0.1682
 5046TIP3   OH215101   2.647   0.489   0.365  0.6158  0.5131 -0.0201
 5046TIP3    H115102   2.552   0.485   0.372  0.5517 -1.2898 -1.2766
 5046TIP3    H215103   2.667   0.583   0.358 -1.0004  0.9433  0.7304
 5047TIP3   OH215104   0.185   0.310   3.722  0.2133 -0.2257  0.0766
 5047TIP3    H115105   0.194   0.215   3.719  0.0192 -0.2349 -0.2515
 5047TIP3    H215106   0.207   0.339   3.634  0.7858  0.0824  0.3155
 5048TIP3   OH215107   3.485   6.486   0.824 -0.5211 -0.1214 -0.3341
 5048TIP3    H115108   3.441   6.405   0.799 -0.4652 -0.4802  0.7022
 5048TIP3    H215109   3.423   6.555   0.800 -1.8885 -0.6450  1.4972
 5049TIP3   OH215110   0.179   5.046   2.640 -0.4393  0.0381 -0.9542
 5049TIP3    H115111   0.162   4.954   2.659 -1.7719  0.2389 -1.0559
 5049TIP3    H215112   0.100   5.076   2.595 -1.4518  2.0423  1.8726
 5050TIP3   OH215113   0.109   0.321   3.428  0.1418  0.1510  0.6247
 5050TIP3    H115114   0.037   0.352   3.372 -1.2456 -2.5718  0.7576
 5050TIP3    H215115   0.111   0.227   3.414  2.9402 -0.0034  1.5795
 5051TIP3   OH215116   0.376   5.449   2.855  0.3170 -0.1733 -0.1402
 5051TIP3    H115117   0.357   5.368   2.902  2.2582 -0.2546  0.5982
 5051TIP3    H215118   0.304   5.508   2.876 -0.1041 -1.0537  0.9187
 5052TIP3   OH215119   0.584   2.307   1.251  0.2817  0.1906  0.1409
 5052TIP3    H115120   0.620   2.251   1.320  2.0197  1.1014  0.0125
 5052TIP3    H215121   0.586   2.252   1.172 -0.3317 -0.3587  0.4974
 5053TIP3   OH215122   5.558   4.925   4.758 -0.0871  0.2257 -0.7059
 5053TIP3    H115123   5.465   4.912   4.740 -0.0129 -2.1877  0.2043
 5053TIP3    H215124   5.601   4.912   4.673 -0.4516 -0.9136 -0.7346
 5054TIP3   OH215125   3.990   4.553   5.277  0.3473 -0.4490  0.2796
 5054TIP3    H115126   4.008   4.600   5.196  1.1522 -1.5472 -0.2093
 5054TIP3    H215127   3.896   4.534   5.274  0.2433  0.1158 -0.0571
 5055TIP3   OH215128   1.322   2.104   5.202  0.0733  0.1011  0.0004
 5055TIP3    H115129   1.376   2.183   5.210 -0.7393  0.6021  0.6921
 5055TIP3    H215130   1.311   2.093   5.108  0.7664  0.4110 -0.1315
 5056TIP3   OH215131   0.882   1.154   1.074  0.1854  0.5088 -0.0080
 5056TIP3    H115132   0.960   1.100   1.074  0.3067  0.6520  1.0145
 5056TIP3    H215133   0.818   1.105   1.023  0.2960 -0.6067  0.8871
 5057TIP3   OH215134   4.630   6.377   3.191 -0.2534  0.4890  0.2964
 5057TIP3    H115135   4.658   6.465   3.214  1.0387  0.1147  0.2321
 5057TIP3    H215136   4.695   6.346   3.128 -2.6820  0.8004 -2.5730
 5058TIP3   OH215137   4.417   4.779   4.458 -0.3163 -0.0604 -0.2873
 5058TIP3    H115138   4.428   4.837   4.383 -2.6231 -0.5645 -1.0840
 5058TIP3    H215139   4.408   4.838   4.533  1.3381  0.4576 -0.4416
 5059TIP3   OH215140   5.569   3.480   0.848 -0.1568 -0.3220  0.0022
 5059TIP3    H115141   5.509   3.546   0.883 -0.0886 -0.3795  0.2260
 5059TIP3    H215142   5.551   3.401   0.900 -1.5301 -1.0255 -1.4279
 5060TIP3   OH215143   6.079   1.297   2.383  0.6619 -0.4781  0.1989
 5060TIP3    H115144   6.052   1.359   2.451 -0.3028  0.5586 -1.0639
 5060TIP3    H215145   6.008   1.233   2.381 -0.2206  0.4992 -1.0103
 5061TIP3   OH215146   4.409   1.238   1.746 -0.1606 -0.1811 -0.3380
 5061TIP3    H115147   4.328   1.229   1.696 -0.8858  0.5143  0.6876
 5061TIP3    H215148   4.394   1.189   1.827 -0.2480  1.3927  0.6386
 5062TIP3   OH215149   3.107   3.955   1.345  0.3261  0.3781  0.0961
 5062TIP3    H115150   3.084   3.916   1.429 -0.6839  0.4602 -0.1323
 5062TIP3    H215151   3.095   4.049   1.358 -2.3368  0.2301 -0.8529
 5063TIP3   OH215152   6.362   6.203   1.606 -0.1663 -0.2504  0.4510
 5063TIP3    H115153   6.444   6.157   1.587  0.5188  1.8200 -2.2301
 5063TIP3    H215154   6.389   6.279   1.656 -0.7794 -0.6864  1.4681
 5064TIP3   OH215155   1.862   2.476   5.284 -0.2246 -0.0012 -0.6165
 5064TIP3    H115156   1.908   2.402   5.245 -0.9130 -1.7247  1.6295
 5064TIP3    H215157   1.931   2.526   5.328 -0.0987 -1.0277  0.4000
 5065TIP3   OH215158   3.334   1.577   0.124 -0.9733  0.2290  0.5153
 5065TIP3    H115159   3.367   1.657   0.084 -0.4431 -0.0783  0.3277
 5065TIP3    H215160   3.402   1.551   0.186 -1.3992  0.2287  0.9969
 5066TIP3   OH215161   7.106   5.697   4.169 -0.9034  0.4899  0.3639
 5066TIP3    H115162   7.039   5.721   4.106 -0.8630  0.3907  0.2822
 5066TIP3    H215163   7.098   5.761   4.240 -0.6292  0.8917  0.0344
 5067TIP3   OH215164   7.117   2.454   0.029 -0.4200 -0.2699  0.0166
 5067TIP3    H115165   7.100   2.362   0.007  0.3661 -1.0387  2.3562
 5067TIP3    H215166   7.035   2.485   0.067 -0.3811 -0.3053  0.1297
 5068TIP3   OH215167   6.044   5.729   4.140 -0.1522 -0.2320 -0.6611
 5068TIP3    H115168   6.119   5.696   4.091  2.3266  0.8264  2.0903
 5068TIP3    H215169   5.993   5.651   4.161  1.0912 -1.2273 -1.1937
 5069TIP3   OH215170   4.386   2.823   4.536  0.2159 -0.0456  0.1478
 5069TIP3    H115171   4.467   2.771   4.531 -0.0302 -0.3620 -0.7849
 5069TIP3    H215172   4.316   2.759   4.518 -0.1360  0.4937 -0.4132
 5070TIP3   OH215173   6.230   3.185   3.205 -0.1802 -0.1894  0.4587
 5070TIP3    H115174   6.229   3.253   3.272 -0.9541 -0.7672  1.0542
 5070TIP3    H215175   6.229   3.233   3.122  1.3014  0.5449  0.8300
 5071TIP3   OH215176   4.744   1.205   3.662  0.1166 -0.2361 -0.0578
 5071TIP3    H115177   4.717   1.136   3.601 -0.4102  0.9209 -1.1916
 5071TIP3    H215178   4.818   1.168   3.710 -0.3589 -1.6893 -0.4093
 5072TIP3   OH215179   2.163   0.028   2.451  0.0986  0.8726 -0.3620
 5072TIP3    H115180   2.070   0.011   2.435 -0.1734  0.8741  1.0548
 5072TIP3    H215181   2.165   0.065   2.539  1.4566  0.8413 -0.3625
 5073TIP3   OH215182   6.081   0.561   0.109  0.4280  0.4402  0.1600
 5073TIP3    H115183   6.013   0.538   0.173  0.7284  0.0580  0.3430
 5073TIP3    H215184   6.123   0.639   0.146 -1.9617  2.6664 -1.4553
 5074TIP3   OH215185   1.408   6.638   5.849  0.1297 -0.1032  0.3686
 5074TIP3    H115186   1.383   6.724   5.816 -0.6313 -1.0913 -1.8024
 5074TIP3    H215187   1.484   6.613   5.796  0.4333 -0.7347  1.0786
 5075TIP3   OH215188   5.508   5.856   1.545  0.3496  0.0075  0.2793
 5075TIP3    H115189   5.492   5.784   1.606  3.2237 -0.5628  0.5195
 5075TIP3    H215190   5.496   5.817   1.458  0.2491 -0.2934  0.4258
 5076TIP3   OH215191   7.034   5.613   4.641 -0.0291  0.3645 -0.0843
 5076TIP3    H115192   7.059   5.699   4.608  1.4202  0.7244  1.7990
 5076TIP3    H215193   7.109   5.557   4.623  0.6380  0.4736  2.0701
 5077TIP3   OH215194   0.788   5.264   3.491  0.0915  0.1953 -0.3014
 5077TIP3    H115195   0.803   5.169   3.492 -0.7699  0.0212 -1.4320
 5077TIP3    H215196   0.874   5.302   3.507  0.3270 -0.7666  0.9673
 5078TIP3   OH215197   6.015   3.128   3.401  0.1309  0.2022 -0.5809
 5078TIP3    H115198   5.980   3.166   3.321 -1.8242  0.4234  0.3292
 5078TIP3    H215199   6.102   3.167   3.411 -0.3967  1.6915 -1.5393
 5079TIP3   OH215200   2.230   5.069   0.176 -0.3951 -0.7670 -0.5090
 5079TIP3    H115201   2.308   5.014   0.178 -1.3146 -2.1334 -0.1919
 5079TIP3    H215202   2.171   5.028   0.240 -1.5735 -0.1129 -1.1484
 5080TIP3   OH215203   3.890   3.373   0.566 -0.3215  0.3066  0.4368
 5080TIP3    H115204   3.830   3.334   0.502 -1.0898  0.4056  1.0851
 5080TIP3    H215205   3.850   3.456   0.590 -0.4003 -0.0198  1.5292
 5081TIP3   OH215206   5.142   4.023   4.310  0.3694  0.1796  0.1492
 5081TIP3    H115207   5.220   4.023   4.255  1.1479 -0.8681  1.2128
 5081TIP3    H215208   5.174   4.034   4.399 -0.6903 -0.2717  0.6107
 5082TIP3   OH215209   4.452   2.553   1.428 -0.0406 -0.5504  0.1289
 5082TIP3    H115210   4.455   2.554   1.332  2.9752 -0.5369  0.1278
 5082TIP3    H215211   4.372   2.599   1.450  0.5087  1.8731 -2.4083
 5083TIP3   OH215212   0.431   2.099   2.643  0.1338  0.1733  0.3850
 5083TIP3    H115213   0.523   2.073   2.651  0.6034  0.5422 -2.5026
 5083TIP3    H215214   0.426   2.183   2.689  1.2679  0.1834  0.5246
 5084TIP3   OH215215   0.352   0.183   1.335  0.1752  0.3016  0.1376
 5084TIP3    H115216   0.297   0.166   1.412 -1.6893 -1.4621 -1.4552
 5084TIP3    H215217   0.440   0.157   1.362 -0.2407  0.6451  1.9570
 5085TIP3   OH215218   5.692   0.829   1.959 -0.4255  0.0041 -0.2723
 5085TIP3    H115219   5.721   0.810   1.870  0.2678  2.2204 -0.5720
 5085TIP3    H215220   5.768   0.811   2.014  0.1401  1.4886 -0.5227
 5086TIP3   OH215221   6.313   3.817   3.572  0.6218 -0.0330 -0.0484
 5086TIP3    H115222   6.372   3.744   3.554  0.9552  0.2682 -0.1867
 5086TIP3    H215223   6.320   3.831   3.666  1.8769  0.9310 -0.2668
 5087TIP3   OH215224   6.623   3.067   2.324  0.6181 -0.3278 -0.1357
 5087TIP3    H115225   6.588   3.016   2.251 -1.0392  1.6798 -0.8493
 5087TIP3    H215226   6.546   3.106   2.365  1.6615 -0.0192  1.6386
 5088TIP3   OH215227   6.302   2.932   0.055  0.7411 -0.3497 -0.7125
 5088TIP3    H115228   6.210   2.960   0.051  0.1920 -1.7971  0.5491
 5088TIP3    H215229   6.346   3.004   0.101  0.4984  0.8691 -2.3112
 5089TIP3   OH215230   6.117   3.499   4.232 -0.1916 -0.5970 -0.1639
 5089TIP3    H115231   6.066   3.566   4.277 -1.8336 -1.1219 -1.1556
 5089TIP3    H215232   6.199   3.494   4.282  0.4278  2.7603 -0.5706
 5090TIP3   OH215233   0.215   2.520   2.983 -0.4041  0.4523  0.3394
 5090TIP3    H115234   0.199   2.573   3.062 -2.5608 -0.7411  0.7869
 5090TIP3    H215235   0.279   2.454   3.011 -1.7988 -0.5050  1.4223
 5091TIP3   OH215236   3.519   1.882   3.665  0.1647  0.4483 -0.5382
 5091TIP3    H115237   3.459   1.845   3.600 -0.5235  1.4876 -0.5174
 5091TIP3    H215238   3.579   1.810   3.686  0.3237  0.0511 -2.2270
 5092TIP3   OH215239   6.898   2.339   2.126 -0.2651 -0.2806  0.3706
 5092TIP3    H115240   6.809   2.308   2.110  0.1342 -0.6030 -1.4125
 5092TIP3    H215241   6.948   2.310   2.050  1.3617 -0.0350  1.3001
 5093TIP3   OH215242   3.314   1.473   5.011  0.2351  0.0221  0.0606
 5093TIP3    H115243   3.379   1.505   5.074  0.1536 -1.0698  0.7308
 5093TIP3    H215244   3.310   1.541   4.944  1.8347  0.2678  0.1619
 5094TIP3   OH215245   0.439   1.912   5.095 -0.0751  0.7311 -0.2807
 5094TIP3    H115246   0.408   1.976   5.030  0.1267  1.0466 -0.0655
 5094TIP3    H215247   0.470   1.839   5.042  1.2350  1.4809 -0.6123
 5095TIP3   OH215248   6.374   4.660   3.938 -0.0390  0.2802 -0.1921
 5095TIP3    H115249   6.301   4.616   3.980  0.6406  0.8944  1.7444
 5095TIP3    H215250   6.343   4.749   3.921  0.0770  0.3886  0.1526
 5096TIP3   OH215251   2.643   1.199   0.602  0.1259  0.0441 -0.4816
 5096TIP3    H115252   2.599   1.264   0.656  0.6356  1.2066 -1.4254
 5096TIP3    H215253   2.664   1.128   0.663 -0.6980  0.6256  0.5120
 5097TIP3   OH215254   6.925   5.637   1.979 -0.1263 -0.3411 -0.2440
 5097TIP3    H115255   7.014   5.644   1.943  0.4752  0.2689  1.2529
 5097TIP3    H215256   6.871   5.689   1.920  1.0417  1.6163  0.2933
 5098TIP3   OH215257   6.864   0.834   5.800  0.1295  0.2837  0.4056
 5098TIP3    H115258   6.934   0.884   5.756 -0.0296  0.3086  0.1762
 5098TIP3    H215259   6.784   0.862   5.756  0.3031 -2.5852 -2.0943
 5099TIP3   OH215260   4.766   6.732   5.251 -0.4823  0.0951 -0.1241
 5099TIP3    H115261   4.851   6.774   5.237 -0.9650  0.7303 -1.2874
 5099TIP3    H215262   4.776   6.644   5.215  1.5093 -2.1538  5.0046
 5100TIP3   OH215263   3.908   2.120   3.136  0.1355 -0.4949 -0.0565
 5100TIP3    H115264   3.922   2.204   3.093  0.1384  0.4876  1.7466
 5100TIP3    H215265   3.815   2.118   3.157  0.4473 -0.1026  1.4832
 5101TIP3   OH215266   6.300   3.350   1.274 -0.2369 -0.4906  0.0934
 5101TIP3    H115267   6.275   3.280   1.213 -1.0833 -0.3481  0.2734
 5101TIP3    H215268   6.380   3.317   1.316  0.3446 -0.6069 -1.0588
 5102TIP3   OH215269   0.221   1.295   2.164 -0.2690  0.2222  0.0964
 5102TIP3    H115270   0.275   1.240   2.222 -0.1943 -0.0360 -0.2173
 5102TIP3    H215271   0.208   1.242   2.086 -0.6906  0.4232  0.0298
 5103TIP3   OH215272   3.845   0.646   5.044 -0.1833 -0.2654 -0.1332
 5103TIP3    H115273   3.880   0.637   4.955 -0.0286 -3.0586  0.1341
 5103TIP3    H215274   3.922   0.639   5.100 -0.5309 -0.8108  0.2801
 5104TIP3   OH215275   5.235   3.689   2.149  0.1638 -0.1909  0.0989
 5104TIP3    H115276   5.313   3.664   2.100  1.0383  0.9711  0.8388
 5104TIP3    H215277   5.196   3.606   2.176  2.1123 -0.8229  1.1790
 5105TIP3   OH215278   4.904   6.458   1.450 -0.6821  0.3161  0.4511
 5105TIP3    H115279   4.888   6.370   1.485 -1.4985 -0.7715 -2.3520
 5105TIP3    H215280   4.923   6.512   1.527  1.5581 -2.6267  2.1433
 5106TIP3   OH215281   3.767   4.153   3.454 -0.7393 -0.5025  0.1752
 5106TIP3    H115282   3.848   4.163   3.404 -0.2612 -1.7564  0.6662
 5106TIP3    H215283   3.729   4.241   3.456  0.2391 -0.0399 -0.6747
 5107TIP3   OH215284   5.222   6.705   1.670  0.5703  0.1974  0.7581
 5107TIP3    H115285   5.226   6.671   1.581 -4.5714  2.9536 -0.9608
 5107TIP3    H215286   5.286   6.777   1.671  3.1119 -1.9088  0.6309
 5108TIP3   OH215287   6.507   4.762   1.466  0.1772  0.5460  0.3286
 5108TIP3    H115288   6.598   4.779   1.441  0.1368 -0.8621 -0.9721
 5108TIP3    H215289   6.514   4.715   1.549  1.0093 -2.9865 -1.4939
 5109TIP3   OH215290   5.583   1.336   0.546 -0.2108 -0.0720 -0.0166
 5109TIP3    H115291   5.677   1.319   0.537 -0.1158  0.6983 -0.5772
 5109TIP3    H215292   5.569   1.344   0.640  0.5375  1.1617  0.0132
 5110TIP3   OH215293   3.841   1.267   1.517  0.1676 -0.1362 -0.3826
 5110TIP3    H115294   3.816   1.322   1.591  0.5965  2.3973 -1.9749
 5110TIP3    H215295   3.873   1.329   1.451 -0.2003 -2.2388 -2.6992
 5111TIP3   OH215296   0.975   5.404   2.523  0.1453  0.6079  0.4666
 5111TIP3    H115297   0.891   5.448   2.535 -0.8071 -1.2820  1.0854
 5111TIP3    H215298   0.970   5.327   2.579  2.0492  0.0967  0.0054
 5112TIP3   OH215299   0.314   2.033   3.280  0.4396  0.2800 -0.3146
 5112TIP3    H115300   0.345   2.045   3.190 -1.1933  1.1013 -0.7858
 5112TIP3    H215301   0.266   2.113   3.301 -0.8852 -0.7006  0.5722
 5113TIP3   OH215302   0.838   5.710   0.673  0.3419 -0.3688 -0.0049
 5113TIP3    H115303   0.836   5.781   0.608 -0.5802  1.1348  1.6025
 5113TIP3    H215304   0.776   5.646   0.640 -0.8980  0.8540 -0.1332
 5114TIP3   OH215305   1.289   3.144   0.185  0.0362  0.0099  0.1039
 5114TIP3    H115306   1.237   3.224   0.179 -0.3247 -0.1990  0.4076
 5114TIP3    H215307   1.283   3.119   0.278  1.3944  0.4695  0.3486
 5115TIP3   OH215308   2.934   3.984   3.533  0.3790 -0.0854  0.0001
 5115TIP3    H115309   2.862   4.047   3.533  0.2400 -0.2423 -0.4776
 5115TIP3    H215310   3.004   4.028   3.485 -0.4763 -1.1272 -2.3879
 5116TIP3   OH215311   6.087   5.922   5.140  0.8751 -0.1283 -0.1952
 5116TIP3    H115312   6.055   6.013   5.136 -0.0002 -0.4236 -0.1558
 5116TIP3    H215313   6.021   5.872   5.092  0.1389 -1.0721  1.7017
 5117TIP3   OH215314   6.354   3.461   5.254 -0.1445 -0.5741  0.6276
 5117TIP3    H115315   6.401   3.378   5.262  0.0634 -0.8975 -2.7820
 5117TIP3    H215316   6.422   3.528   5.262  0.5668 -0.9575 -1.6477
 5118TIP3   OH215317   7.179   0.090   0.812 -0.1133 -0.1930  0.0829
 5118TIP3    H115318   7.154   0.008   0.769 -0.6089 -0.1915  0.3538
 5118TIP3    H215319   7.104   0.111   0.868 -0.4699  1.0403 -0.8285
 5119TIP3   OH215320   1.521   0.772   4.963 -0.3471  0.2792 -0.2669
 5119TIP3    H115321   1.440   0.789   5.012  0.5458  0.0323  1.3866
 5119TIP3    H215322   1.573   0.852   4.974 -0.3398  0.4323 -1.3100
 5120TIP3   OH215323   3.927   0.861   3.096 -1.1518 -0.1303  0.3810
 5120TIP3    H115324   3.941   0.775   3.138  2.9558 -0.0528 -0.3385
 5120TIP3    H215325   3.916   0.841   3.003  2.0729 -0.0087 -0.1611
 5121TIP3   OH215326   1.153   3.610   0.346  0.1464 -0.1440 -0.2596
 5121TIP3    H115327   1.095   3.673   0.387  0.1176 -0.3249 -0.0228
 5121TIP3    H215328   1.200   3.660   0.279  1.0769  0.4267  0.8023
 5122TIP3   OH215329   6.107   6.117   5.585 -0.9577 -0.2729  0.0745
 5122TIP3    H115330   6.199   6.110   5.609 -0.6856 -0.5065 -0.9761
 5122TIP3    H215331   6.063   6.149   5.664 -0.0430 -0.5589  0.7033
 5123TIP3   OH215332   5.695   2.230   1.678  0.5208 -0.4576  0.4055
 5123TIP3    H115333   5.675   2.309   1.627  0.9587 -0.9088 -0.4804
 5123TIP3    H215334   5.610   2.189   1.694  0.5442 -1.8629 -2.5157
 5124TIP3   OH215335   2.405   1.582   5.660  0.5627 -0.2015  0.7963
 5124TIP3    H115336   2.422   1.662   5.709 -0.9520  0.1494  0.7922
 5124TIP3    H215337   2.469   1.585   5.588  1.9230 -0.0752  1.9671
 5125TIP3   OH215338   6.997   4.462   1.243  0.2159  0.4405 -0.4318
 5125TIP3    H115339   7.078   4.448   1.193 -1.0969 -1.7239 -2.1521
 5125TIP3    H215340   6.978   4.377   1.282 -1.1164  0.9681  0.1168
 5126TIP3   OH215341   7.112   4.003   1.483 -0.0424  0.2658 -0.1389
 5126TIP3    H115342   7.177   3.964   1.426  0.1588  1.2929 -0.6371
 5126TIP3    H215343   7.061   3.929   1.516  0.3008 -0.4020 -1.0703
 5127TIP3   OH215344   4.538   0.819   5.914  0.0347 -0.1625 -0.2235
 5127TIP3    H115345   4.477   0.822   5.840 -1.5191 -2.1651  0.8672
 5127TIP3    H215346   4.591   0.741   5.898  1.0157  0.4734 -0.1672
 5128TIP3   OH215347   2.073   3.029   4.494 -0.2817  0.0240 -0.2216
 5128TIP3    H115348   2.043   3.113   4.530  2.3668 -0.0690  2.5330
 5128TIP3    H215349   2.055   2.965   4.562  0.0459 -1.2103 -1.2533
 5129TIP3   OH215350   6.748   4.377   2.249 -0.3252  0.0527  0.2087
 5129TIP3    H115351   6.703   4.423   2.320 -1.8639  0.1292 -0.7608
 5129TIP3    H215352   6.692   4.390   2.172  0.5855 -1.1674 -0.7184
 5130TIP3   OH215353   5.930   4.837   0.110 -0.3188  0.4389  0.0902
 5130TIP3    H115354   5.909   4.744   0.118 -0.9435  0.4413 -1.2667
 5130TIP3    H215355   6.026   4.840   0.107 -0.3143 -0.2465 -0.6976
 5131TIP3   OH215356   2.484   1.033   3.271 -0.1180 -0.1039 -0.4599
 5131TIP3    H115357   2.422   1.026   3.344 -0.0752  0.3477 -0.3768
 5131TIP3    H215358   2.429   1.036   3.193 -0.1408 -1.4857 -0.5311
 5132TIP3   OH215359   2.792   1.823   4.319 -0.1939 -0.0763 -0.3862
 5132TIP3    H115360   2.781   1.918   4.319 -2.3164 -0.2418 -1.9101
 5132TIP3    H215361   2.835   1.804   4.236  1.0703 -0.4102  0.3228
 5133TIP3   OH215362   6.451   2.482   5.107  0.1707 -0.0399  0.6563
 5133TIP3    H115363   6.422   2.526   5.186  0.1209 -1.3051  1.3720
 5133TIP3    H215364   6.504   2.408   5.139 -0.8190 -1.2610 -0.4327
 5134TIP3   OH215365   4.744   1.430   3.399  0.1462 -0.2580  0.3512
 5134TIP3    H115366   4.832   1.393   3.410  0.2180 -0.8603 -1.7570
 5134TIP3    H215367   4.736   1.443   3.305 -1.7001  0.6518  0.6058
 5135TIP3   OH215368   4.561   6.483   2.359  0.3720 -0.1323 -0.1865
 5135TIP3    H115369   4.518   6.547   2.302 -1.4233  0.4217  1.6459
 5135TIP3    H215370   4.537   6.398   2.323  0.7869  0.1985 -1.2766
 5136TIP3   OH215371   2.277   3.459   1.375 -0.0284  0.0920  0.0730
 5136TIP3    H115372   2.236   3.373   1.382  1.3365 -0.5823  0.1382
 5136TIP3    H215373   2.339   3.461   1.448 -0.9203  1.6446  0.8257
 5137TIP3   OH215374   3.758   2.340   5.552  0.6905  0.3718 -0.0698
 5137TIP3    H115375   3.671   2.307   5.571  1.1388 -0.2924  0.9369
 5137TIP3    H215376   3.746   2.403   5.481 -0.8670  1.7177  1.3160
 5138TIP3   OH215377   2.906   6.230   1.507 -0.6932  0.0660 -0.1076
 5138TIP3    H115378   2.883   6.321   1.488 -0.0194  0.4287  0.7334
 5138TIP3    H215379   2.827   6.194   1.547 -1.1744  0.0928 -1.0111
 5139TIP3   OH215380   2.126   0.096   5.742 -0.5870 -0.2016  0.1860
 5139TIP3    H115381   2.211   0.139   5.751  0.0002 -0.9900 -1.1892
 5139TIP3    H215382   2.065   0.167   5.723 -0.1541  0.3183  0.6830
 5140TIP3   OH215383   5.211   4.088   2.389 -0.3223  0.3447  0.6938
 5140TIP3    H115384   5.184   4.105   2.479  3.7186  0.7486  2.0496
 5140TIP3    H215385   5.190   4.169   2.342  0.1176  1.2961  2.0573
 5141TIP3   OH215386   1.376   5.715   4.869  0.1041  0.2460  0.1090
 5141TIP3    H115387   1.321   5.647   4.910  0.1469 -0.8680 -1.5553
 5141TIP3    H215388   1.314   5.778   4.834 -0.0169  0.1430  0.1373
 5142TIP3   OH215389   4.951   0.822   0.559 -0.1135  0.1547 -0.7482
 5142TIP3    H115390   4.902   0.741   0.576  0.5956  0.0745  1.1362
 5142TIP3    H215391   4.886   0.892   0.570 -0.7443 -0.1066 -2.4484
 5143TIP3   OH215392   1.476   3.261   1.016  0.6202  0.2320  0.0693
 5143TIP3    H115393   1.479   3.166   1.032 -0.4821  0.0202 -0.8491
 5143TIP3    H215394   1.393   3.289   1.055  1.4914  1.0550  1.3973
 5144TIP3   OH215395   7.145   2.561   0.673 -0.2681 -0.0143 -0.8208
 5144TIP3    H115396   7.167   2.654   0.678  0.3271 -0.1458 -0.8513
 5144TIP3    H215397   7.181   2.524   0.754  1.6048 -0.6219 -1.8544
 5145TIP3   OH215398   5.444   0.630   0.429  0.6234  0.4075  0.1236
 5145TIP3    H115399   5.361   0.625   0.478  1.3312  0.8962  1.4460
 5145TIP3    H215400   5.505   0.579   0.482  1.2482  0.3224 -0.6755
 5146TIP3   OH215401   6.032   0.023   3.716 -0.2212 -0.3505 -0.1143
 5146TIP3    H115402   6.046   0.054   3.627  3.0480  1.4366  0.8556
 5146TIP3    H215403   6.096  -0.046   3.728  0.0703  0.1043  1.1226
 5147TIP3   OH215404   5.071   2.295   1.840 -0.9443 -0.0865 -0.2843
 5147TIP3    H115405   5.031   2.223   1.890  0.6903 -0.6306  0.3147
 5147TIP3    H215406   5.121   2.251   1.771 -1.2916  0.5586 -0.9422
 5148TIP3   OH215407   1.442   5.381   3.324  0.1836 -0.0512  0.3829
 5148TIP3    H115408   1.349   5.400   3.319  0.2357 -0.1431 -1.3383
 5148TIP3    H215409   1.457   5.361   3.417 -1.5202 -0.1650  0.6670
 5149TIP3   OH215410   2.124   4.708   2.500  0.0693  0.1116  0.1164
 5149TIP3    H115411   2.166   4.645   2.558 -1.5597 -0.1595  1.0701
 5149TIP3    H215412   2.039   4.726   2.541 -0.9437  0.2982 -1.9025
 5150TIP3   OH215413   7.144   1.254   3.793  0.1812  0.2041  0.1532
 5150TIP3    H115414   7.101   1.303   3.723  1.1292  0.2276 -0.4417
 5150TIP3    H215415   7.193   1.321   3.841  1.5043 -0.1209 -0.6807
 5151TIP3   OH215416   5.790   4.345   4.836  0.2867 -0.0045  0.3454
 5151TIP3    H115417   5.749   4.354   4.750 -1.1186  0.6797  1.0547
 5151TIP3    H215418   5.869   4.293   4.820 -0.9780 -1.5937 -1.0555
 5152TIP3   OH215419   0.569   0.781   2.618 -0.7641  0.1109  0.4214
 5152TIP3    H115420   0.610   0.855   2.662  0.5897 -1.1671  1.4137
 5152TIP3    H215421   0.642   0.737   2.573 -1.4136 -0.9986  0.4228
 5153TIP3   OH215422   6.469   3.574   3.438  0.3234 -0.0341  0.0416
 5153TIP3    H115423   6.470   3.512   3.365  0.5715 -0.8101  0.7014
 5153TIP3    H215424   6.560   3.605   3.444  0.6117 -1.0126  0.8958
 5154TIP3   OH215425   4.546   0.665   4.953 -0.2068  0.3862  0.0461
 5154TIP3    H115426   4.581   0.686   4.867  1.1927  2.4252  1.0402
 5154TIP3    H215427   4.623   0.652   5.008 -0.8751  3.2994  1.9064
 5155TIP3   OH215428   3.545   4.132   3.938 -0.1036 -0.0959  0.0061
 5155TIP3    H115429   3.459   4.122   3.897  0.6911 -0.4477 -1.6760
 5155TIP3    H215430   3.526   4.152   4.030 -1.9667 -0.0970 -0.3404
 5156TIP3   OH215431   0.352   2.499   1.314  0.6477  0.6702  0.1971
 5156TIP3    H115432   0.361   2.582   1.362 -1.7352  0.3888  1.2754
 5156TIP3    H215433   0.331   2.435   1.382  2.1956 -0.7975 -0.6552
 5157TIP3   OH215434   1.093   2.913   0.769  1.0295  0.2649 -0.4225
 5157TIP3    H115435   1.054   2.934   0.854  1.5325  3.0108 -0.7798
 5157TIP3    H215436   1.054   2.829   0.745  0.5905 -0.4252  2.3163
 5158TIP3   OH215437   2.716   3.808   3.478 -0.0236 -0.2634 -0.3142
 5158TIP3    H115438   2.799   3.847   3.450  1.0520 -1.5550  0.9055
 5158TIP3    H215439   2.649   3.860   3.434  1.4306  0.6240 -1.5879
 5159TIP3   OH215440   0.266   0.587   0.955  0.0943 -0.9511 -0.7798
 5159TIP3    H115441   0.278   0.606   0.862  1.4233  0.6338 -0.3344
 5159TIP3    H215442   0.335   0.525   0.976  0.5983 -0.3446 -0.6043
 5160TIP3   OH215443   1.041   2.835   2.464 -0.4351 -0.1084  0.0068
 5160TIP3    H115444   1.018   2.830   2.371 -0.6180  0.5171  0.0145
 5160TIP3    H215445   1.041   2.744   2.493 -0.4183 -0.3081 -0.5959
 5161TIP3   OH215446   3.787   3.171   0.388  0.4968  0.2679  0.3891
 5161TIP3    H115447   3.861   3.112   0.403  0.3548 -0.3392 -1.1303
 5161TIP3    H215448   3.710   3.123   0.418  0.5851  0.4547  0.9266
 5162TIP3   OH215449   2.546   0.391   3.276 -0.2755  0.0361 -0.2252
 5162TIP3    H115450   2.500   0.313   3.307 -1.4150  0.6683 -0.3150
 5162TIP3    H215451   2.630   0.389   3.323  0.3898 -2.0605 -1.3544
 5163TIP3   OH215452   0.785   4.472   1.988  0.0074 -0.6927  0.1732
 5163TIP3    H115453   0.743   4.557   1.976 -0.0082 -0.4068  1.9868
 5163TIP3    H215454   0.757   4.444   2.075  1.0264 -1.9685  0.1101
 5164TIP3   OH215455   5.181   5.828   3.394  0.0323 -0.5028  0.5683
 5164TIP3    H115456   5.136   5.759   3.344  0.9531  0.0469 -1.1102
 5164TIP3    H215457   5.138   5.909   3.366  0.0239 -0.2442  1.3189
 5165TIP3   OH215458   6.715   4.536   1.254  0.0993  0.3490  0.0673
 5165TIP3    H115459   6.805   4.516   1.228 -0.3566 -0.7586 -0.7470
 5165TIP3    H215460   6.692   4.466   1.316 -0.9115 -0.6939 -1.4180
 5166TIP3   OH215461   6.927   4.201   1.276  0.0018  0.2872 -0.0239
 5166TIP3    H115462   6.936   4.138   1.204  1.6042  0.6552 -0.1879
 5166TIP3    H215463   6.958   4.152   1.353 -1.9893 -0.2072  0.5242
 5167TIP3   OH215464   3.178   0.182   3.353 -0.4065  0.5845  0.0191
 5167TIP3    H115465   3.137   0.115   3.299 -0.5217  0.7284 -0.0698
 5167TIP3    H215466   3.137   0.171   3.439 -0.1188  0.2603  0.1188
 5168TIP3   OH215467   4.792   2.245   3.725 -0.2383  0.3681 -0.2531
 5168TIP3    H115468   4.842   2.189   3.666 -0.1011  1.2656 -1.0337
 5168TIP3    H215469   4.752   2.186   3.788  0.8808 -0.4743 -0.3088
 5169TIP3   OH215470   4.193   0.202   5.232 -0.1267  0.0357 -0.1627
 5169TIP3    H115471   4.113   0.243   5.198  0.2104  0.1290 -0.8714
 5169TIP3    H215472   4.232   0.268   5.288  0.0537  0.4286 -0.7458
 5170TIP3   OH215473   0.085   0.548   0.667  0.5555 -0.0896 -0.1221
 5170TIP3    H115474   0.176   0.576   0.657  0.8595 -0.7092  0.7331
 5170TIP3    H215475   0.044   0.566   0.583  2.0936 -2.1191 -1.3977
 5171TIP3   OH215476   5.139   5.698   3.156  0.3377  0.0427 -0.6856
 5171TIP3    H115477   5.226   5.661   3.171  1.4729  2.8876  0.4263
 5171TIP3    H215478   5.149   5.752   3.078 -0.6383 -0.2089 -0.9909
 5172TIP3   OH215479   4.023   1.523   4.958  0.7555 -0.3674  0.4350
 5172TIP3    H115480   4.105   1.492   4.996  0.9349 -0.0034  0.3405
 5172TIP3    H215481   4.047   1.556   4.872  0.4559 -0.5700  0.2729
 5173TIP3   OH215482   6.718   5.266   0.470 -0.6845 -0.2226 -0.1518
 5173TIP3    H115483   6.752   5.184   0.434  0.4881 -0.0265  0.4522
 5173TIP3    H215484   6.628   5.246   0.495  0.5092 -2.3869  3.1322
 5174TIP3   OH215485   2.091   5.966   0.037 -0.4717  0.4966  0.1610
 5174TIP3    H115486   2.111   5.897   0.100 -2.3475  0.1322  0.4083
 5174TIP3    H215487   1.997   5.983   0.049 -0.3504  2.1006 -0.8816
 5175TIP3   OH215488   0.764   3.868   3.563  0.1307 -0.1640  0.2329
 5175TIP3    H115489   0.727   3.910   3.641 -0.6949 -0.1189 -0.1790
 5175TIP3    H215490   0.694   3.871   3.498  1.0824  0.5898 -0.8136
 5176TIP3   OH215491   2.041   3.392   3.999  0.1881 -0.4307  0.4254
 5176TIP3    H115492   1.947   3.396   4.017  0.2042 -1.3960  0.7768
 5176TIP3    H215493   2.082   3.421   4.080  0.1966 -0.4145  0.4151
 5177TIP3   OH215494   7.098   0.713   0.855  0.1865 -0.0365 -0.0928
 5177TIP3    H115495   7.089   0.705   0.950 -0.4900 -2.0331 -0.2754
 5177TIP3    H215496   7.179   0.667   0.835  0.3722  0.4524 -0.4893
 5178TIP3   OH215497   4.569   5.630   4.569  0.8266 -0.5665 -0.1131
 5178TIP3    H115498   4.587   5.716   4.532  0.3236  0.7361  2.4684
 5178TIP3    H215499   4.626   5.570   4.520  1.0073  1.1462 -2.1307
 5179TIP3   OH215500   1.619   0.659   4.547 -0.0627 -0.1604  0.0655
 5179TIP3    H115501   1.530   0.626   4.534  0.5182 -1.4853 -0.6957
 5179TIP3    H215502   1.667   0.630   4.470  0.4418  2.8245 -0.8842
 5180TIP3   OH215503   1.353   5.414   2.319  0.4019 -0.2521 -0.0328
 5180TIP3    H115504   1.324   5.349   2.255 -0.6664 -1.5828  1.7354
 5180TIP3    H215505   1.449   5.410   2.316  0.3761 -0.3021 -1.4895
 5181TIP3   OH215506   0.219   3.994   0.617 -0.8822 -0.1429 -0.1266
 5181TIP3    H115507   0.247   4.075   0.574 -0.3819 -0.0433  0.3757
 5181TIP3    H215508   0.242   4.006   0.709  1.5290 -1.8268 -0.4064
 5182TIP3   OH215509   4.776   6.604   3.118 -0.2186 -0.2135 -0.4652
 5182TIP3    H115510   4.794   6.566   3.033  0.2075  1.6304 -1.2551
 5182TIP3    H215511   4.769   6.698   3.101 -0.4097  0.1690  1.4844
 5183TIP3   OH215512   6.255   0.625   4.051  0.7107 -0.5509 -0.1301
 5183TIP3    H115513   6.315   0.555   4.074  1.2299  0.5982  2.2700
 5183TIP3    H215514   6.249   0.680   4.129 -2.3006  0.2454 -0.7620
 5184TIP3   OH215515   6.193   4.301   3.202  0.0497  0.4167  0.1780
 5184TIP3    H115516   6.207   4.353   3.123 -1.7777  0.2039 -0.3274
 5184TIP3    H215517   6.188   4.366   3.273  0.6272  0.6914 -0.0271
 5185TIP3   OH215518   5.529   6.329   2.414 -0.3077 -0.5082  0.4183
 5185TIP3    H115519   5.437   6.302   2.416 -0.5863  0.4246  1.2995
 5185TIP3    H215520   5.545   6.363   2.502  1.4904 -2.5838  0.9810
 5186TIP3   OH215521   4.879   3.197   5.696 -0.9291 -0.2782 -0.1068
 5186TIP3    H115522   4.793   3.221   5.730  0.3746  2.4883  1.5883
 5186TIP3    H215523   4.882   3.236   5.609 -0.9942  0.6763  0.3057
 5187TIP3   OH215524   4.832   2.329   5.416 -0.4179  0.5959 -0.2645
 5187TIP3    H115525   4.874   2.259   5.465 -0.9487  0.2058 -0.3634
 5187TIP3    H215526   4.811   2.395   5.482 -2.8051 -0.7083  0.4000
 5188TIP3   OH215527   1.588   5.051   1.595  0.0864  0.1171 -0.2059
 5188TIP3    H115528   1.552   4.963   1.598  1.6791 -0.5638  0.1687
 5188TIP3    H215529   1.540   5.099   1.663  0.1526 -0.8548  0.5533
 5189TIP3   OH215530   1.409   4.144   1.118 -0.0134  0.6230 -0.6481
 5189TIP3    H115531   1.333   4.099   1.083  1.0510  0.3997 -2.8465
 5189TIP3    H215532   1.437   4.090   1.192 -0.5315 -0.6777 -1.3714
 5190TIP3   OH215533   6.018   6.825   3.882 -0.1485  0.6767 -0.2834
 5190TIP3    H115534   5.952   6.823   3.812 -3.3787  2.7783  2.4283
 5190TIP3    H215535   6.000   6.747   3.934  0.4184  0.5872 -0.2118
 5191TIP3   OH215536   5.486   3.964   1.084  0.2101  0.1427 -0.5641
 5191TIP3    H115537   5.513   3.895   1.145 -0.6941 -0.5259 -0.9054
 5191TIP3    H215538   5.418   4.012   1.131  0.3047  0.3306 -0.6177
 5192TIP3   OH215539   7.101   3.409   2.432  0.5586  0.2072  0.4025
 5192TIP3    H115540   7.030   3.374   2.486  1.3523 -1.7919  0.2386
 5192TIP3    H215541   7.142   3.332   2.393  2.5221  1.3234  0.1068
 5193TIP3   OH215542   6.750   1.689   3.771  0.4600  0.2926 -0.1958
 5193TIP3    H115543   6.835   1.730   3.757  0.8747 -0.0700  1.1009
 5193TIP3    H215544   6.738   1.689   3.866 -1.3518  1.0371 -0.3680
 5194TIP3   OH215545   0.638   1.065   2.658  0.0842  0.4237 -0.3665
 5194TIP3    H115546   0.700   1.117   2.709 -0.1316  0.1932  0.1377
 5194TIP3    H215547   0.652   1.093   2.568 -0.2278  1.5718 -0.0766
 5195TIP3   OH215548   0.500   6.355   2.726  0.4729 -0.2341 -0.2661
 5195TIP3    H115549   0.546   6.346   2.643  1.2614 -0.6366  0.1967
 5195TIP3    H215550   0.454   6.272   2.737  0.1834 -0.0931 -0.4056
 5196TIP3   OH215551   1.047   1.975   3.251  0.7403  0.4639 -0.0875
 5196TIP3    H115552   1.008   2.045   3.303  1.4765  0.4500  0.4972
 5196TIP3    H215553   0.984   1.903   3.257  0.5768  0.6407  0.3499
 5197TIP3   OH215554   4.417   6.218   5.129 -0.3523 -0.0125  0.1722
 5197TIP3    H115555   4.333   6.202   5.087 -0.1775 -1.9090  0.4619
 5197TIP3    H215556   4.407   6.184   5.218  0.9697 -1.0949 -0.0538
 5198TIP3   OH215557   6.610   2.905   1.623 -0.2720 -0.1419 -0.2116
 5198TIP3    H115558   6.549   2.852   1.571 -1.9637  2.0444 -0.6139
 5198TIP3    H215559   6.670   2.942   1.559 -0.4145  0.0772 -0.2210
 5199TIP3   OH215560   0.054   6.336   3.810 -0.0491 -0.1484  0.2870
 5199TIP3    H115561   0.073   6.421   3.771  0.6748 -1.0209 -1.3699
 5199TIP3    H215562   0.139   6.306   3.843 -0.4802  0.1643  1.7383
 5200TIP3   OH215563   3.972   6.105   4.773  0.4936  0.4746 -0.8702
 5200TIP3    H115564   3.947   6.082   4.683  0.6965  2.2570 -1.4252
 5200TIP3    H215565   3.933   6.037   4.827  0.9067 -1.0078 -2.3458
 5201TIP3   OH215566   6.537   3.311   5.863  0.7613 -0.3906  0.3093
 5201TIP3    H115567   6.536   3.220   5.835 -0.7005 -0.1368 -0.5043
 5201TIP3    H215568   6.476   3.356   5.805  0.8640  0.9683  1.1973
 5202TIP3   OH215569   0.496   5.790   1.794  0.1501 -0.3493 -0.1777
 5202TIP3    H115570   0.534   5.822   1.713 -0.4742 -0.7041 -0.6160
 5202TIP3    H215571   0.564   5.733   1.831  0.6367  0.2212 -0.1838
 5203TIP3   OH215572   4.143   5.344   5.104 -0.0701  0.4001 -0.1564
 5203TIP3    H115573   4.087   5.393   5.163  1.0585  0.2254  1.0882
 5203TIP3    H215574   4.219   5.400   5.090  0.9309 -0.6841  0.7638
 5204TIP3   OH215575   3.299   5.203   0.681 -0.4322 -0.1125 -0.5927
 5204TIP3    H115576   3.367   5.255   0.723 -0.9461  0.2977 -0.2509
 5204TIP3    H215577   3.311   5.115   0.716  0.7866 -0.3691 -1.5890
 5205TIP3   OH215578   1.990   3.796   0.419  0.2095 -0.2264 -0.2344
 5205TIP3    H115579   2.052   3.734   0.459  0.4121  0.1850  0.1015
 5205TIP3    H215580   2.045   3.867   0.387 -0.0084 -0.2945 -0.7657
 5206TIP3   OH215581   2.681   0.001   0.653 -0.0179  0.0326 -0.6235
 5206TIP3    H115582   2.700   0.074   0.595 -1.2128  1.0203  0.1821
 5206TIP3    H215583   2.723  -0.074   0.612  1.7726  1.2681 -1.1524
 5207TIP3   OH215584  -0.008   2.783   5.443  0.4741  0.4962 -0.1936
 5207TIP3    H115585   0.058   2.757   5.508  0.4237  0.5779 -0.1088
 5207TIP3    H215586   0.044   2.818   5.370  0.6155 -1.0428 -0.8812
 5208TIP3   OH215587   3.059   4.632   1.435 -0.7119 -0.0148 -1.2636
 5208TIP3    H115588   3.092   4.719   1.459 -0.7431  0.0984 -1.6217
 5208TIP3    H215589   3.006   4.648   1.357 -0.3919 -0.4157 -1.5659
 5209TIP3   OH215590   6.183   5.248   4.399 -0.2097  0.3938 -0.0584
 5209TIP3    H115591   6.245   5.210   4.337  1.1342  1.6020  0.4776
 5209TIP3    H215592   6.198   5.200   4.481 -1.3762 -0.6092 -0.3895
 5210TIP3   OH215593   0.255   5.296   4.004 -0.7893  0.4526  0.7001
 5210TIP3    H115594   0.316   5.318   4.074 -1.2982 -0.6872  1.5452
 5210TIP3    H215595   0.211   5.379   3.984  0.1700  1.0331  0.9101
 5211TIP3   OH215596   0.074   4.019   4.056  0.0876 -0.5543  0.0503
 5211TIP3    H115597   0.025   3.990   3.979 -0.7552 -1.3740  0.8777
 5211TIP3    H215598   0.009   4.030   4.124  0.8197  0.2208  0.6463
 5212TIP3   OH215599   6.288  -0.004   0.022 -0.1637 -0.1703 -0.0006
 5212TIP3    H115600   6.306   0.073  -0.032  0.7417  0.3505  1.0020
 5212TIP3    H215601   6.224   0.026   0.086 -0.0808 -0.3564  0.1693
 5213TIP3   OH215602   4.178   2.231   4.357 -0.4674 -1.0874  0.9998
 5213TIP3    H115603   4.239   2.300   4.330 -1.4895 -0.3274  0.5709
 5213TIP3    H215604   4.234   2.159   4.385  0.6320 -0.5378  0.2810
 5214TIP3   OH215605   3.041   5.354   2.347 -0.0635 -0.1345  0.1011
 5214TIP3    H115606   2.995   5.401   2.416  0.2290 -0.4265  0.4966
 5214TIP3    H215607   3.069   5.422   2.286  0.2492  0.1887  0.6041
 5215TIP3   OH215608   3.497   6.395   4.692 -0.3031  0.6182  0.0424
 5215TIP3    H115609   3.527   6.400   4.783  1.6133 -0.4981 -0.4660
 5215TIP3    H215610   3.549   6.462   4.647 -2.2093  2.1095 -0.0449
 5216TIP3   OH215611   5.820   2.498   2.467 -0.3721 -0.1923  0.5327
 5216TIP3    H115612   5.757   2.479   2.397  0.7596 -2.2228 -0.0203
 5216TIP3    H215613   5.845   2.589   2.453  1.3879 -1.0406 -3.1019
 5217TIP3   OH215614   4.834   1.996   5.215 -0.7461  0.4738  0.0766
 5217TIP3    H115615   4.802   2.050   5.143 -1.3296 -1.6567 -1.3487
 5217TIP3    H215616   4.929   1.995   5.203 -0.9194 -0.8327 -1.4466
 5218TIP3   OH215617   2.872   1.528   1.349 -0.2378 -0.3394 -0.1735
 5218TIP3    H115618   2.883   1.472   1.426  0.0834 -0.2396 -0.1415
 5218TIP3    H215619   2.780   1.519   1.325 -0.4294 -0.0786  0.4468
 5219TIP3   OH215620   5.221   3.023   5.125 -0.1786  0.0399 -0.0067
 5219TIP3    H115621   5.219   3.086   5.196  0.2274 -1.7573  1.6878
 5219TIP3    H215622   5.281   3.061   5.061 -3.2524  3.4445 -1.2592
 5220TIP3   OH215623   2.261   1.220   4.408 -0.1226 -0.2676 -0.0990
 5220TIP3    H115624   2.181   1.178   4.440  0.8761 -0.4583  2.3501
 5220TIP3    H215625   2.331   1.175   4.454  1.4126  0.1773 -1.8823
 5221TIP3   OH215626   1.625   5.178   4.397 -0.2091  0.1703  0.6702
 5221TIP3    H115627   1.566   5.198   4.324  1.1730  1.5141 -0.1359
 5221TIP3    H215628   1.582   5.106   4.443 -1.1344 -0.7416 -1.4639
 5222TIP3   OH215629   3.773   2.212   2.706  0.0723 -0.2952  0.0032
 5222TIP3    H115630   3.785   2.276   2.635 -1.0398 -0.5502 -0.4405
 5222TIP3    H215631   3.682   2.224   2.734  0.0855 -1.1466  0.4452
 5223TIP3   OH215632   4.905   3.424   0.134  0.0042  0.1033 -0.0413
 5223TIP3    H115633   4.811   3.410   0.146 -0.0133  0.6391  0.5329
 5223TIP3    H215634   4.946   3.380   0.209  0.2069 -0.1125 -0.2787
 5224TIP3   OH215635   4.637   2.419   3.091 -0.3960 -0.2123 -0.2041
 5224TIP3    H115636   4.672   2.370   3.165 -0.9086  0.4616  0.5018
 5224TIP3    H215637   4.686   2.502   3.091  1.2789 -1.1237 -2.0906
 5225TIP3   OH215638   0.181   3.297   4.892 -0.3382 -0.3980 -0.0330
 5225TIP3    H115639   0.104   3.259   4.849  0.4690 -2.0652 -0.0974
 5225TIP3    H215640   0.166   3.282   4.985  0.7860 -2.6110 -0.1493
 5226TIP3   OH215641   0.997   5.793   5.285  0.6205 -0.0555  0.0580
 5226TIP3    H115642   1.055   5.827   5.353 -0.4855 -0.3974  1.2138
 5226TIP3    H215643   0.948   5.723   5.328  0.7234 -1.0787 -1.4324
 5227TIP3   OH215644   6.799   0.460   3.687  0.2289 -0.0774 -0.5087
 5227TIP3    H115645   6.721   0.405   3.679 -0.5504  1.1034 -1.1091
 5227TIP3    H215646   6.780   0.520   3.759  0.6183  0.1641 -0.6004
 5228TIP3   OH215647   3.763   2.298   2.104 -0.1250 -0.5534 -0.5335
 5228TIP3    H115648   3.779   2.253   2.187 -1.9786  1.1226  0.8572
 5228TIP3    H215649   3.829   2.368   2.101 -0.5299 -0.1373 -0.0437
 5229TIP3   OH215650   3.389   3.759   4.497  0.5447 -0.4624  0.1527
 5229TIP3    H115651   3.456   3.710   4.450  0.1971 -0.1042 -0.7474
 5229TIP3    H215652   3.308   3.741   4.449 -0.3825 -2.3089  2.2285
 5230TIP3   OH215653   6.229   3.883   5.835 -0.1348 -0.6806  0.3691
 5230TIP3    H115654   6.141   3.864   5.867 -0.1101 -1.0151  0.2396
 5230TIP3    H215655   6.283   3.811   5.866  0.2850 -0.0214  1.2179
 5231TIP3   OH215656   0.570   3.451   4.159  0.1731 -0.2456  0.6675
 5231TIP3    H115657   0.642   3.426   4.101 -0.2811 -2.6563  1.0673
 5231TIP3    H215658   0.613   3.495   4.232  0.9031  1.3027 -0.6111
 5232TIP3   OH215659   1.224   2.505   2.266 -0.1636  0.0748  0.3466
 5232TIP3    H115660   1.308   2.549   2.253  1.2980 -2.0739  1.8262
 5232TIP3    H215661   1.213   2.501   2.361 -1.4166 -0.6459  0.2023
 5233TIP3   OH215662   0.087   1.608   5.406 -0.3416 -0.0050  0.1264
 5233TIP3    H115663   0.158   1.614   5.342 -0.6756 -1.2491 -0.3802
 5233TIP3    H215664   0.125   1.645   5.486  0.4390  0.5726 -0.4862
 5234TIP3   OH215665   2.294   1.841   2.552 -0.1592  0.2315  0.2874
 5234TIP3    H115666   2.294   1.817   2.459  0.4739 -1.1395  0.6084
 5234TIP3    H215667   2.281   1.936   2.553 -1.3148  0.1197 -1.1414
 5235TIP3   OH215668   4.193   1.426   5.725  0.2444 -0.2857 -0.2094
 5235TIP3    H115669   4.230   1.511   5.703 -0.2510  0.7180  2.4786
 5235TIP3    H215670   4.105   1.445   5.757  0.1139 -1.8017  0.4288
 5236TIP3   OH215671   2.921   3.593   4.658  0.2842 -0.4824 -0.7236
 5236TIP3    H115672   2.832   3.591   4.693  0.9435  0.4926  1.2049
 5236TIP3    H215673   2.943   3.686   4.655  0.8680 -0.6446 -2.2652
 5237TIP3   OH215674   0.676   3.831   2.147 -0.0920  0.1234 -0.3774
 5237TIP3    H115675   0.705   3.813   2.057 -1.7873  0.5257 -1.0360
 5237TIP3    H215676   0.587   3.796   2.151  0.1210 -0.2791  1.2915
 5238TIP3   OH215677   1.527   1.578   5.272  0.3087  0.4050 -0.1337
 5238TIP3    H115678   1.516   1.554   5.364  2.0067  2.1097  0.6039
 5238TIP3    H215679   1.441   1.610   5.245 -0.6093 -1.4961  0.3574
 5239TIP3   OH215680   4.028   2.946   5.817  0.0369 -0.0906  0.0033
 5239TIP3    H115681   3.948   2.970   5.770 -0.5949  0.8008  1.4644
 5239TIP3    H215682   4.068   2.878   5.762 -0.6696  0.8579 -1.7743
 5240TIP3   OH215683   2.281   4.744   1.041 -0.4166  0.4415 -0.7634
 5240TIP3    H115684   2.308   4.770   1.129  1.5149  2.1491 -1.7724
 5240TIP3    H215685   2.340   4.671   1.018 -0.5537  0.3529 -0.8370
 5241TIP3   OH215686   3.786   5.903   3.022  0.2767 -0.3280  0.0420
 5241TIP3    H115687   3.833   5.985   3.038 -2.0379  0.6438  2.6973
 5241TIP3    H215688   3.836   5.837   3.068  0.8247  0.0635  0.0170
 5242TIP3   OH215689   1.613   4.077   1.317 -0.1189  0.2971 -0.2157
 5242TIP3    H115690   1.591   4.075   1.410 -1.7672 -3.0143 -0.5550
 5242TIP3    H215691   1.706   4.102   1.315  0.0714  0.0509  2.3363
 5243TIP3   OH215692   6.764   1.862   3.474  0.5468  0.2165 -0.5183
 5243TIP3    H115693   6.687   1.850   3.418  2.0163  0.2673 -2.6792
 5243TIP3    H215694   6.761   1.954   3.500 -1.1610 -0.2608  1.1080
 5244TIP3   OH215695   4.959   0.887   3.465  0.5431 -0.7782 -0.3587
 5244TIP3    H115696   4.954   0.820   3.533 -0.1645 -0.2094  0.1651
 5244TIP3    H215697   5.052   0.908   3.460  0.6943 -1.3421 -0.0863
 5245TIP3   OH215698   3.971   2.965   0.467 -0.5026  0.7318  0.2757
 5245TIP3    H115699   4.042   2.910   0.434 -0.1265  1.5883 -0.3745
 5245TIP3    H215700   3.892   2.911   0.458  0.0762 -0.3175  1.2317
 5246TIP3   OH215701   6.749   6.039   4.447 -0.2420 -0.0174  0.2036
 5246TIP3    H115702   6.703   5.966   4.407  0.3574  0.7433 -2.0200
 5246TIP3    H215703   6.718   6.116   4.399  0.4762  0.9656  1.2703
 5247TIP3   OH215704   3.165   6.745   4.711  0.1713 -0.1781 -0.2970
 5247TIP3    H115705   3.136   6.759   4.801  1.8663 -0.6115  0.3650
 5247TIP3    H215706   3.191   6.653   4.708 -1.5775 -0.6686 -1.7802
 5248TIP3   OH215707   0.043   4.015   3.165 -0.5825  0.0139  0.0386
 5248TIP3    H115708   0.134   3.989   3.147 -0.8354 -0.1026 -1.1230
 5248TIP3    H215709   0.039   4.107   3.139 -0.5505  0.3198  1.0529
 5249TIP3   OH215710   4.973   4.176   1.168 -0.8288 -0.0471 -0.2182
 5249TIP3    H115711   5.040   4.220   1.116 -0.8081 -0.7124 -0.7662
 5249TIP3    H215712   4.914   4.247   1.196  1.2929  0.9458  2.2197
 5250TIP3   OH215713   4.714   0.316   4.231  0.3434  0.8809 -0.3643
 5250TIP3    H115714   4.762   0.233   4.229 -0.5300  0.2349  1.9146
 5250TIP3    H215715   4.640   0.302   4.172 -0.2390 -0.3062  0.5925
 5251TIP3   OH215716   5.239   2.981   0.236 -0.2919 -0.3558  0.4521
 5251TIP3    H115717   5.149   2.947   0.238 -0.9670  1.0420 -1.9214
 5251TIP3    H215718   5.230   3.073   0.258  0.6035 -0.2604  0.4445
 5252TIP3   OH215719   1.565   4.202   1.692 -0.0382  0.1899 -0.0186
 5252TIP3    H115720   1.616   4.126   1.722 -0.5851  0.5213  1.9267
 5252TIP3    H215721   1.504   4.166   1.628  0.6946 -0.7464 -0.2150
 5253TIP3   OH215722   3.941   5.362   1.100  0.5106  0.2751 -0.2980
 5253TIP3    H115723   4.017   5.345   1.155  0.5748 -0.2516 -0.5515
 5253TIP3    H215724   3.866   5.342   1.157  0.5786 -0.4465 -0.4509
 5254TIP3   OH215725   2.155   6.137   1.818  0.1965 -0.0312 -0.6958
 5254TIP3    H115726   2.234   6.134   1.764 -0.1982  0.0709 -1.2874
 5254TIP3    H215727   2.095   6.194   1.770  0.0884  0.6350  0.1968
 5255TIP3   OH215728   2.199   3.323   1.625 -0.0575  0.1350  0.2129
 5255TIP3    H115729   2.279   3.273   1.611 -0.5924 -0.4161 -1.1260
 5255TIP3    H215730   2.150   3.272   1.689  0.0170 -0.3350 -0.0935
 5256TIP3   OH215731   2.279   6.462   2.619 -0.0400 -0.0061  0.5994
 5256TIP3    H115732   2.193   6.436   2.652 -0.0616 -1.0519 -0.1971
 5256TIP3    H215733   2.341   6.404   2.664  0.1992  0.3792  0.7755
 5257TIP3   OH215734   2.569   4.065   0.841 -0.1407  0.3580  0.3130
 5257TIP3    H115735   2.509   4.021   0.781 -0.7688  1.4011  0.1677
 5257TIP3    H215736   2.654   4.024   0.823 -0.4345  0.2109 -0.8278
 5258TIP3   OH215737   4.482   0.482   1.824 -0.2674 -0.2097 -0.0339
 5258TIP3    H115738   4.571   0.504   1.798 -0.4391  0.9428  0.3069
 5258TIP3    H215739   4.435   0.472   1.741  0.1219 -0.6028 -0.2119
 5259TIP3   OH215740   0.138   1.359   4.358 -0.0056 -0.6595  0.2199
 5259TIP3    H115741   0.225   1.349   4.397 -0.0794 -2.4907  0.0257
 5259TIP3    H215742   0.082   1.387   4.430  0.6445  0.0381  0.4607
 5260TIP3   OH215743   4.962   0.546   0.332 -0.5425  0.7728 -0.2054
 5260TIP3    H115744   5.000   0.460   0.314  0.2623  1.0289  0.2290
 5260TIP3    H215745   4.868   0.534   0.321 -0.5346 -0.4168  0.8416
 5261TIP3   OH215746   0.997   0.554   4.192  0.6270 -0.3609 -0.2107
 5261TIP3    H115747   0.906   0.571   4.216  0.5383  0.0908 -0.8483
 5261TIP3    H215748   1.005   0.588   4.103  1.4415 -0.3343 -0.1329
 5262TIP3   OH215749   0.096  -0.004   4.947 -0.3346  0.1780 -1.0096
 5262TIP3    H115750   0.097   0.009   5.041  1.4792 -0.6648 -0.8618
 5262TIP3    H215751   0.043   0.068   4.913 -0.9347  0.5453  0.6309
 5263TIP3   OH215752   2.767   2.082   3.732 -0.2031 -0.4654 -0.5111
 5263TIP3    H115753   2.784   2.053   3.642 -0.5177 -1.1581 -0.3497
 5263TIP3    H215754   2.850   2.070   3.777 -0.2982 -0.9865 -0.4784
 5264TIP3   OH215755   3.288   3.273   2.733  0.8081  0.4782  0.5718
 5264TIP3    H115756   3.353   3.314   2.675  0.7733  1.1007  0.9590
 5264TIP3    H215757   3.314   3.181   2.738  1.5846  0.6962  0.6161
 5265TIP3   OH215758   1.759   1.809   1.052  0.4408  0.5074  0.0886
 5265TIP3    H115759   1.798   1.782   1.135  0.3122 -0.3783 -0.1328
 5265TIP3    H215760   1.668   1.778   1.057  0.3429  0.7365 -0.2489
 5266TIP3   OH215761   5.983   2.656   3.967  0.1965  0.7270  0.5830
 5266TIP3    H115762   6.033   2.719   3.915  0.4123  1.5416  1.7417
 5266TIP3    H215763   6.050   2.605   4.013 -0.0020  0.5375  0.6632
 5267TIP3   OH215764   4.436   6.011   1.617 -0.7920  0.4120 -0.2748
 5267TIP3    H115765   4.521   5.992   1.658 -1.4119 -0.3892  0.6945
 5267TIP3    H215766   4.443   5.976   1.529 -0.2330  0.0502 -0.0901
 5268TIP3   OH215767   2.654   2.083   2.425  0.3547  0.1579 -0.4490
 5268TIP3    H115768   2.565   2.116   2.418 -0.1141 -0.8648  0.4593
 5268TIP3    H215769   2.652   2.022   2.498  1.7642 -0.0171 -0.5188
 5269TIP3   OH215770   0.236   6.223   5.065 -0.4972 -0.1378  0.3273
 5269TIP3    H115771   0.261   6.134   5.041  0.1884  0.3815 -0.9725
 5269TIP3    H215772   0.227   6.269   4.981  0.0863  1.2597  1.0027
 5270TIP3   OH215773   2.058   0.780   1.499  0.5860  0.1044  0.1187
 5270TIP3    H115774   2.122   0.772   1.570 -0.1836 -2.2545  0.6305
 5270TIP3    H215775   1.973   0.773   1.543 -0.0604  2.0559 -0.6869
 5271TIP3   OH215776   3.410   5.295   5.353  0.5098 -0.6610 -0.3031
 5271TIP3    H115777   3.403   5.200   5.338  1.2084 -0.4069 -2.6461
 5271TIP3    H215778   3.380   5.334   5.270 -1.5202  1.2666  1.2136
 5272TIP3   OH215779   3.161   5.079   5.442  0.0468  0.3972 -0.2696
 5272TIP3    H115780   3.174   4.988   5.469  0.8431  0.0903 -1.5865
 5272TIP3    H215781   3.096   5.074   5.371 -0.7112  0.9901  0.3568
 5273TIP3   OH215782   5.854   1.493   0.271  0.3099  0.6949  0.4833
 5273TIP3    H115783   5.807   1.570   0.303 -0.4741  0.7924 -0.8141
 5273TIP3    H215784   5.827   1.423   0.329  0.9376  1.3590  1.6055
 5274TIP3   OH215785   4.660   1.674   3.687  0.4327  0.0512  0.1079
 5274TIP3    H115786   4.693   1.744   3.630  0.3104  1.0777  1.2692
 5274TIP3    H215787   4.676   1.706   3.776 -0.1511 -1.1541  0.6649
 5275TIP3   OH215788   5.837   3.217   5.466  0.0485  0.1554 -0.4989
 5275TIP3    H115789   5.766   3.153   5.468  0.3390 -0.1562  0.2688
 5275TIP3    H215790   5.912   3.168   5.432  0.1280  0.2275 -0.4284
 5276TIP3   OH215791   0.339   4.077   2.696 -0.6239 -0.3947  0.3689
 5276TIP3    H115792   0.247   4.085   2.673 -0.4250  0.8370 -0.0635
 5276TIP3    H215793   0.382   4.050   2.616 -0.3867  0.7217  0.0985
 5277TIP3   OH215794   5.885   6.561   3.955 -0.4112 -0.1974 -0.4614
 5277TIP3    H115795   5.808   6.592   3.908  0.3306  1.8489 -0.3953
 5277TIP3    H215796   5.854   6.545   4.044 -0.8982 -0.0363 -0.5988
 5278TIP3   OH215797   3.799   3.766   2.629  0.1524  0.3375  0.0469
 5278TIP3    H115798   3.796   3.684   2.678 -1.7694  0.3286  0.0232
 5278TIP3    H215799   3.848   3.746   2.550  1.4968 -0.2102  0.9943
 5279TIP3   OH215800   3.873   3.267   5.579 -0.4973  0.3247 -0.3518
 5279TIP3    H115801   3.956   3.265   5.530  0.2388  0.9046  0.8314
 5279TIP3    H215802   3.865   3.178   5.614  0.6546  0.7695  1.1460
 5280TIP3   OH215803   5.930   2.943   5.528  0.1964  0.4058 -0.1177
 5280TIP3    H115804   5.899   2.854   5.543 -0.8752  0.6418 -0.7658
 5280TIP3    H215805   6.025   2.938   5.537  0.0831 -0.6351  0.6185
 5281TIP3   OH215806   5.483   2.027   2.639 -0.0068 -0.6725  0.2093
 5281TIP3    H115807   5.533   2.085   2.697 -1.4518  0.8187  0.0111
 5281TIP3    H215808   5.433   1.972   2.699  0.8779 -1.3145  0.3869
 5282TIP3   OH215809   2.924   6.076   3.149  0.5677 -0.7813 -0.4172
 5282TIP3    H115810   2.985   6.015   3.107  0.2608 -0.8187 -0.8243
 5282TIP3    H215811   2.858   6.020   3.189 -0.1120 -0.7209 -1.4030
 5283TIP3   OH215812   5.219   1.566   0.954  0.3943  0.3842  0.2398
 5283TIP3    H115813   5.150   1.546   1.018 -0.2674  0.5898 -0.4019
 5283TIP3    H215814   5.301   1.561   1.004 -0.1404  0.8665  1.1717
 5284TIP3   OH215815   5.919   0.315   1.202 -0.3711  0.7299  0.0892
 5284TIP3    H115816   5.995   0.340   1.255 -0.7119  0.3376  0.7776
 5284TIP3    H215817   5.848   0.304   1.265 -0.3889 -1.3735 -0.2295
 5285TIP3   OH215818   5.934   5.798   2.031 -0.3725  0.0103  0.1097
 5285TIP3    H115819   6.002   5.811   2.096 -0.0490 -1.3654  0.0887
 5285TIP3    H215820   5.889   5.718   2.059 -1.0466  0.0984 -0.6630
 5286TIP3   OH215821   3.584   4.583   2.498 -0.1628  0.1014 -0.2249
 5286TIP3    H115822   3.601   4.621   2.412 -0.0663 -1.3769 -0.8859
 5286TIP3    H215823   3.533   4.650   2.544  0.1679  1.0970 -1.2506
 5287TIP3   OH215824   6.968   4.503   5.838  0.2755  0.3694 -0.3731
 5287TIP3    H115825   7.015   4.502   5.921 -0.7962 -0.5657  0.2432
 5287TIP3    H215826   6.879   4.530   5.861 -1.1168 -3.4561 -0.5389
 5288TIP3   OH215827   2.626   1.011   1.632 -0.1586  0.1740 -0.1873
 5288TIP3    H115828   2.711   1.028   1.672 -0.1028  0.1971 -0.3149
 5288TIP3    H215829   2.580   0.956   1.696  0.2368 -0.4750 -0.4479
 5289TIP3   OH215830   1.126   6.224   1.601  0.3160 -0.1934 -0.0272
 5289TIP3    H115831   1.196   6.173   1.560  0.9400  0.2664  0.4433
 5289TIP3    H215832   1.120   6.190   1.690 -0.5244 -0.6828 -0.2630
 5290TIP3   OH215833   5.093   2.777   4.025 -0.5850  0.0873  0.4416
 5290TIP3    H115834   5.176   2.821   4.010 -0.6604  0.4171  0.9628
 5290TIP3    H215835   5.043   2.837   4.081 -1.5536  0.3274 -0.6444
 5291TIP3   OH215836   1.935   6.746   0.985  0.2070  0.4672 -0.1402
 5291TIP3    H115837   2.002   6.693   0.942  1.0608  1.0124  0.4881
 5291TIP3    H215838   1.862   6.746   0.924 -0.1481 -2.0974  0.1411
 5292TIP3   OH215839   0.475   1.658   4.452  0.7080  0.2364  0.7560
 5292TIP3    H115840   0.553   1.713   4.456  0.4313  0.5917  1.4797
 5292TIP3    H215841   0.456   1.638   4.544  1.1238 -1.5357  0.5095
 5293TIP3   OH215842   1.648   1.653   5.761  0.3011 -0.4990 -0.0139
 5293TIP3    H115843   1.736   1.631   5.730 -0.1025 -1.2069 -0.6915
 5293TIP3    H215844   1.639   1.604   5.843  0.5328 -0.4484  0.0413
 5294TIP3   OH215845   3.906   4.235   3.025 -0.0426 -0.0906  0.1288
 5294TIP3    H115846   3.902   4.265   2.934  0.0188 -0.4570  0.0063
 5294TIP3    H215847   3.911   4.140   3.019  2.5405 -0.0617  0.4010
 5295TIP3   OH215848   1.269   0.353   4.710  0.8034 -0.0595  0.4691
 5295TIP3    H115849   1.315   0.418   4.763  3.4715 -0.0122 -1.6877
 5295TIP3    H215850   1.176   0.371   4.725  1.4163  1.2814  3.3807
 5296TIP3   OH215851   0.682   3.958   4.599  0.1016  0.0555  0.5180
 5296TIP3    H115852   0.653   3.991   4.515 -0.6693  1.2244  1.2179
 5296TIP3    H215853   0.771   3.992   4.609 -0.1770  0.7722  0.6112
 5297TIP3   OH215854   4.853   2.384   0.144 -0.3919 -0.1305  0.2761
 5297TIP3    H115855   4.889   2.354   0.228 -1.4034 -0.3893  0.6340
 5297TIP3    H215856   4.758   2.372   0.153 -0.6297  1.0583 -0.4274
 5298TIP3   OH215857   3.801   1.090   3.179 -0.1607  0.1581  0.3653
 5298TIP3    H115858   3.851   1.017   3.143  2.3229  1.7982  0.2276
 5298TIP3    H215859   3.801   1.155   3.109 -1.1956  0.8150  0.9489
 5299TIP3   OH215860   4.652   2.064   4.299  0.0412  0.0123 -0.2474
 5299TIP3    H115861   4.593   2.057   4.224  1.8250 -0.9442 -1.6603
 5299TIP3    H215862   4.690   2.152   4.292 -0.0471  0.0489 -0.2653
 5300TIP3   OH215863   1.237   2.062   3.872 -0.1940  0.1618  0.0550
 5300TIP3    H115864   1.272   2.048   3.960  0.2233  0.8045 -0.0074
 5300TIP3    H215865   1.221   1.973   3.839 -0.3708 -0.0816  0.7835
 5301TIP3   OH215866   6.613   3.494   4.599  0.2617  0.2163 -0.1900
 5301TIP3    H115867   6.553   3.420   4.606  0.7884 -0.1951  0.1217
 5301TIP3    H215868   6.671   3.470   4.527  2.4000 -1.1750  1.8329
 5302TIP3   OH215869   5.210   5.942   1.445  0.0764 -0.2440  0.3144
 5302TIP3    H115870   5.301   5.955   1.419 -0.1924  1.1808  0.0033
 5302TIP3    H215871   5.207   5.970   1.536  0.0464 -0.7601  0.4738
 5303TIP3   OH215872   2.784   4.137   5.832  0.2518  0.2840  0.1528
 5303TIP3    H115873   2.708   4.080   5.829  0.6718 -0.2372 -1.2493
 5303TIP3    H215874   2.854   4.081   5.866  0.5007  0.1444 -0.5726
 5304TIP3   OH215875   7.004   2.253   1.127  0.0230  0.0455  0.4786
 5304TIP3    H115876   7.023   2.339   1.165  0.7004 -0.4872  1.3998
 5304TIP3    H215877   7.085   2.204   1.138 -0.0993 -0.4679 -0.7700
 5305TIP3   OH215878   3.408   6.653   5.669  0.1331  0.1923  0.4168
 5305TIP3    H115879   3.433   6.607   5.749  0.1776 -0.4432  0.0420
 5305TIP3    H215880   3.425   6.591   5.599 -0.6257  0.4668 -0.0261
 5306TIP3   OH215881   3.490   2.765   1.873  0.3395 -0.7661 -0.0324
 5306TIP3    H115882   3.405   2.738   1.838 -0.2907  0.4996  0.4464
 5306TIP3    H215883   3.472   2.789   1.964  0.7831  1.3317 -0.4354
 5307TIP3   OH215884   1.105   5.560   2.316 -0.3456  0.0318  0.3148
 5307TIP3    H115885   1.194   5.528   2.323 -0.0734  0.9806  1.5643
 5307TIP3    H215886   1.050   5.488   2.347 -0.0350 -0.5987 -0.5765
 5308TIP3   OH215887   0.479   6.515   5.471 -0.1756  0.2246 -0.2671
 5308TIP3    H115888   0.429   6.465   5.407  1.6576 -0.0101 -1.5977
 5308TIP3    H215889   0.485   6.457   5.547  0.9720 -1.1874 -1.3770
 5309TIP3   OH215890   6.558   2.688   4.210 -0.3061  0.1733 -0.1453
 5309TIP3    H115891   6.468   2.713   4.234 -0.7562  0.2682 -1.8161
 5309TIP3    H215892   6.548   2.606   4.163  0.4146  0.5170 -0.9157
 5310TIP3   OH215893   4.335   5.824   5.640  0.2829 -0.1819 -0.3746
 5310TIP3    H115894   4.366   5.776   5.564  0.1207  0.3644 -0.7912
 5310TIP3    H215895   4.257   5.871   5.609  1.4277  1.7581 -0.4881
 5311TIP3   OH215896   5.936   0.444   4.488 -0.3895 -0.4424 -0.0426
 5311TIP3    H115897   5.866   0.387   4.522 -1.0932 -0.7070 -1.8160
 5311TIP3    H215898   5.987   0.388   4.430  1.3522 -0.2478  1.2496
 5312TIP3   OH215899   2.994   5.737   3.076 -0.1660 -0.6648  0.1695
 5312TIP3    H115900   3.080   5.698   3.058  0.9341  1.5947  0.2381
 5312TIP3    H215901   2.987   5.737   3.171  0.0760 -0.2524  0.1916
 5313TIP3   OH215902   6.906   5.577   3.129 -0.3019 -0.0766 -0.5043
 5313TIP3    H115903   6.816   5.564   3.158  0.3876 -2.2568  0.8469
 5313TIP3    H215904   6.960   5.537   3.197  1.6785  0.3745 -1.7168
 5314TIP3   OH215905   3.825   6.586   2.974  0.5856 -0.4871  1.0255
 5314TIP3    H115906   3.775   6.505   2.960 -0.1049 -0.0390  0.8007
 5314TIP3    H215907   3.831   6.595   3.069 -2.6711  1.1101  1.2401
 5315TIP3   OH215908   5.103   0.151   0.654  0.3488  0.5654  0.3823
 5315TIP3    H115909   5.182   0.100   0.672  0.5047  1.0274  1.0446
 5315TIP3    H215910   5.126   0.205   0.578 -0.3849 -1.5527 -1.4576
 5316TIP3   OH215911   0.182   1.995   1.262 -0.2599  0.6282  0.2861
 5316TIP3    H115912   0.273   1.981   1.236 -0.5920 -0.6474 -0.2185
 5316TIP3    H215913   0.135   1.918   1.230 -0.9684 -0.3006  3.2387
 5317TIP3   OH215914   0.418   2.455   1.837  0.0066 -0.6739 -0.0211
 5317TIP3    H115915   0.335   2.501   1.826  1.8921  3.2448  0.2403
 5317TIP3    H215916   0.447   2.438   1.747  0.1000  0.3973 -0.2059
 5318TIP3   OH215917   2.209   2.859   4.107  0.3565  0.6112  0.6087
 5318TIP3    H115918   2.236   2.789   4.049  0.2899  1.2756 -0.2475
 5318TIP3    H215919   2.287   2.914   4.115 -0.0062  1.2174  0.0916
 5319TIP3   OH215920   1.882   5.898   5.858  0.0113 -0.0234 -0.0248
 5319TIP3    H115921   1.922   5.848   5.929 -0.5498  0.8752  0.9553
 5319TIP3    H215922   1.813   5.842   5.825 -1.4140  0.5255  1.8722
 5320TIP3   OH215923   2.807   4.908   5.659 -0.2680  0.6211  0.1177
 5320TIP3    H115924   2.764   4.908   5.745 -0.6884 -0.1475 -0.0831
 5320TIP3    H215925   2.735   4.895   5.597  0.1620  0.1083 -0.2791
 5321TIP3   OH215926   6.938   6.064   2.939  0.4269  0.8850 -0.3576
 5321TIP3    H115927   6.967   6.031   3.024  0.1686  1.2053 -0.1411
 5321TIP3    H215928   6.894   5.990   2.898  1.5436  0.3839 -0.6955
 5322TIP3   OH215929   1.441   6.590   3.731 -0.1591  0.0758 -0.0309
 5322TIP3    H115930   1.391   6.577   3.812  1.6210 -0.8213  0.9905
 5322TIP3    H215931   1.512   6.526   3.736  0.2079  0.2246 -2.1670
 5323TIP3   OH215932   2.478   5.303   3.787 -0.6448  0.3017 -0.0542
 5323TIP3    H115933   2.448   5.336   3.871  3.0177  0.0624  1.5364
 5323TIP3    H215934   2.536   5.372   3.753  0.0343 -0.7160 -1.0627
 5324TIP3   OH215935   4.029   5.322   4.137  0.2551  0.0146 -0.1356
 5324TIP3    H115936   3.978   5.399   4.161  1.6496  0.8582  0.2497
 5324TIP3    H215937   4.076   5.347   4.058  1.1704 -0.2252  0.3174
 5325TIP3   OH215938   5.195   5.946   0.918  0.3621  0.0460 -0.1188
 5325TIP3    H115939   5.160   5.899   0.842 -1.4810  0.8005  0.2027
 5325TIP3    H215940   5.198   5.880   0.987 -1.7425  0.2114  0.1966
 5326TIP3   OH215941   6.772   2.953   3.514 -0.0976  0.6083  0.1648
 5326TIP3    H115942   6.796   2.869   3.552 -0.0285  0.4421 -0.2377
 5326TIP3    H215943   6.692   2.979   3.560 -0.7213 -0.1844 -0.4386
 5327TIP3   OH215944   0.125   0.442   1.263 -0.3461  0.0593 -0.0219
 5327TIP3    H115945   0.170   0.438   1.178  0.3444  1.1109  0.2777
 5327TIP3    H215946   0.049   0.384   1.252 -0.0824 -0.0936 -1.2403
 5328TIP3   OH215947   4.968   5.553   2.770 -0.1200  0.4379 -0.3422
 5328TIP3    H115948   4.965   5.538   2.864  0.4425  0.8913 -0.2505
 5328TIP3    H215949   4.930   5.473   2.732 -1.5609  0.7777  0.3006
 5329TIP3   OH215950   6.503   5.247   0.196  0.5921  0.6650  0.2121
 5329TIP3    H115951   6.426   5.233   0.251 -0.4132  0.6255 -1.1722
 5329TIP3    H215952   6.484   5.328   0.149  1.2627  0.4835 -0.3767
 5330TIP3   OH215953   5.457   1.087   5.693  0.0425 -0.7614  0.1520
 5330TIP3    H115954   5.382   1.143   5.714  0.0918 -0.8133  0.4713
 5330TIP3    H215955   5.533   1.145   5.697 -0.2371  0.0115 -3.1115
 5331TIP3   OH215956   4.428   2.810   1.288  0.1251 -0.8153  0.0344
 5331TIP3    H115957   4.349   2.808   1.235  0.0880 -2.2749  0.1183
 5331TIP3    H215958   4.396   2.818   1.378  0.1786  1.2632 -0.0725
 5332TIP3   OH215959   2.913   2.815   3.978 -0.2967 -0.0502 -0.5366
 5332TIP3    H115960   2.976   2.777   4.039 -0.9813  0.8688  0.7887
 5332TIP3    H215961   2.918   2.909   3.993 -1.2716  0.1157 -1.1179
 5333TIP3   OH215962   0.819   6.185   1.053 -0.2221  0.5208  0.9620
 5333TIP3    H115963   0.750   6.155   0.993  1.2080 -0.3081 -0.3182
 5333TIP3    H215964   0.825   6.279   1.036  0.4965  0.2263 -0.5971
 5334TIP3   OH215965   4.916   0.386   0.667  0.3012  0.0658  0.3750
 5334TIP3    H115966   4.902   0.406   0.760  3.3465 -0.6342  1.1017
 5334TIP3    H215967   5.010   0.394   0.655  0.0530 -0.3850 -2.5742
 5335TIP3   OH215968   1.304   6.062   0.984 -0.2155  0.6759 -0.7081
 5335TIP3    H115969   1.297   6.015   1.067 -1.3154 -0.8901 -1.6274
 5335TIP3    H215970   1.216   6.061   0.947  0.1329  1.8204 -1.6611
 5336TIP3   OH215971   1.896   2.137   0.674 -0.2028 -0.4127 -0.3519
 5336TIP3    H115972   1.989   2.158   0.666 -0.7009  1.5772 -1.6401
 5336TIP3    H215973   1.851   2.210   0.633 -2.3634 -1.3927  0.1081
 5337TIP3   OH215974   6.882   4.709   2.194 -0.7098  0.2642  0.4954
 5337TIP3    H115975   6.875   4.701   2.289  0.5915 -0.7046  0.5346
 5337TIP3    H215976   6.890   4.619   2.163  0.4178  0.6563 -0.3876
 5338TIP3   OH215977   3.361   3.353  -0.011  0.1966  0.2490  0.5465
 5338TIP3    H115978   3.322   3.425   0.038  0.2434 -0.2482  1.3296
 5338TIP3    H215979   3.452   3.351   0.019  0.3424  0.2278  0.1035
 5339TIP3   OH215980   1.736   2.373   0.677 -0.4730  0.1128  0.4763
 5339TIP3    H115981   1.644   2.397   0.667 -0.8776 -1.5118 -0.0791
 5339TIP3    H215982   1.779   2.412   0.601 -1.1209 -0.8495 -0.4376
 5340TIP3   OH215983   6.663   0.214   4.107 -0.0768  0.4305 -0.4746
 5340TIP3    H115984   6.683   0.138   4.161  1.9300  1.6449  0.5747
 5340TIP3    H215985   6.679   0.184   4.017  2.3927  0.0477  0.0299
 5341TIP3   OH215986   6.224   5.066   4.608  0.2027 -0.4161 -0.1572
 5341TIP3    H115987   6.229   5.039   4.700  0.0941 -0.4238 -0.1533
 5341TIP3    H215988   6.315   5.067   4.578  0.1557 -1.5694 -0.3889
 5342TIP3   OH215989   2.790   6.699   3.805 -0.1472 -0.2926  0.1415
 5342TIP3    H115990   2.697   6.681   3.792 -0.9956  2.0370  2.1657
 5342TIP3    H215991   2.827   6.696   3.717 -2.0351 -1.5967 -0.6897
 5343TIP3   OH215992   5.309   0.819   0.868  0.1792  0.0499  0.0349
 5343TIP3    H115993   5.384   0.828   0.809 -0.6166 -0.5538 -1.1001
 5343TIP3    H215994   5.287   0.909   0.893  2.2760  0.1773  1.7347
 5344TIP3   OH215995   0.166   2.052   2.777  0.3546  0.2955 -0.2896
 5344TIP3    H115996   0.151   2.010   2.862  0.6435  2.1286  0.7101
 5344TIP3    H215997   0.259   2.035   2.759  0.3768  0.1852 -0.0783
 5345TIP3   OH215998   0.454   4.780   0.136  0.0416 -0.0087 -0.0634
 5345TIP3    H115999   0.435   4.868   0.102  1.6839  0.1378 -0.7180
 5345TIP3    H216000   0.420   4.781   0.225 -2.1609  0.4436 -0.8477
 5346TIP3   OH216001   5.273   6.709   2.877  0.0705 -0.6356  0.2230
 5346TIP3    H116002   5.284   6.753   2.793 -0.3837 -0.6756  0.1384
 5346TIP3    H216003   5.306   6.620   2.862 -0.1569 -0.6898  0.0414
 5347TIP3   OH216004   4.511   4.217   2.411  0.6033  0.3142 -0.0229
 5347TIP3    H116005   4.495   4.165   2.332 -0.6882  1.4033 -0.5144
 5347TIP3    H216006   4.528   4.306   2.379  2.4779  0.3202  0.8176
 5348TIP3   OH216007   0.380   3.344   3.985 -0.3522  0.2670  0.3239
 5348TIP3    H116008   0.418   3.382   4.065 -0.2444  1.4518 -0.2677
 5348TIP3    H216009   0.311   3.286   4.017 -0.2811  0.6878  1.2804
 5349TIP3   OH216010   5.166   1.796   2.296  0.2280 -0.1131 -0.1427
 5349TIP3    H116011   5.211   1.849   2.362 -0.4637 -1.3424  1.3809
 5349TIP3    H216012   5.213   1.713   2.295 -1.1630 -0.9543  0.5566
 5350TIP3   OH216013   1.422   4.922   2.087  0.2191  0.0605 -0.2833
 5350TIP3    H116014   1.357   4.856   2.109  3.2270 -3.0954 -0.0481
 5350TIP3    H216015   1.413   4.934   1.992 -0.4782 -0.5742 -0.3066
 5351TIP3   OH216016   5.785   3.889   4.271  0.3738  0.1621 -0.0139
 5351TIP3    H116017   5.865   3.842   4.294  1.2814  1.5396 -0.2489
 5351TIP3    H216018   5.733   3.825   4.223  1.7923 -0.4646 -0.7878
 5352TIP3   OH216019   3.617   1.956   4.159 -0.0298  1.0581 -0.3753
 5352TIP3    H116020   3.683   2.005   4.110 -1.6337  2.7023 -1.0074
 5352TIP3    H216021   3.541   1.954   4.101 -1.1928  0.9902  1.1029
 5353TIP3   OH216022   4.960   0.629   1.183 -0.1695  0.5469 -0.1783
 5353TIP3    H116023   5.033   0.567   1.182 -0.5703  0.0577 -1.4372
 5353TIP3    H216024   4.998   0.710   1.150 -0.5778 -0.2434 -2.8313
 5354TIP3   OH216025   6.563   4.661   3.210  0.1747  0.2377 -0.0556
 5354TIP3    H116026   6.580   4.741   3.161  0.7441  1.2930  1.7711
 5354TIP3    H216027   6.557   4.690   3.302 -0.2437 -1.7225  0.5810
 5355TIP3   OH216028   3.403   1.227   4.093  0.5129 -0.2836 -0.0438
 5355TIP3    H116029   3.475   1.237   4.155  0.2668 -0.1306  0.2174
 5355TIP3    H216030   3.439   1.171   4.024  0.2206 -2.0479  1.1487
 5356TIP3   OH216031   5.090   0.239   4.274  0.0856 -0.0758 -0.0092
 5356TIP3    H116032   5.035   0.173   4.318 -0.9059 -1.1232 -2.6201
 5356TIP3    H216033   5.177   0.227   4.312 -0.6856 -0.8794  1.6308
 5357TIP3   OH216034   6.562   3.725   0.063 -0.3171 -0.1167 -0.3632
 5357TIP3    H116035   6.468   3.713   0.053 -0.1813 -0.3468 -1.4971
 5357TIP3    H216036   6.578   3.715   0.157 -1.5905  1.2604  0.0217
 5358TIP3   OH216037   4.480   2.296   2.906  0.3881  0.3723 -0.3464
 5358TIP3    H116038   4.530   2.323   2.983 -0.9246  0.0840  0.6402
 5358TIP3    H216039   4.473   2.201   2.914 -0.4149  0.4232 -0.3919
 5359TIP3   OH216040   6.769   3.378   3.618 -0.4577  0.1456  0.0356
 5359TIP3    H116041   6.782   3.453   3.560  0.1202 -0.2580 -0.3708
 5359TIP3    H216042   6.749   3.417   3.703  3.4570  0.9531  0.7912
 5360TIP3   OH216043   3.625   0.259   5.488 -0.3687 -0.1268  0.5545
 5360TIP3    H116044   3.579   0.196   5.431 -0.0459  1.0602 -1.1001
 5360TIP3    H216045   3.563   0.277   5.558 -1.3240 -0.6782 -0.1180
 5361TIP3   OH216046   1.660   1.272   5.156 -0.4411 -0.4081  0.4810
 5361TIP3    H116047   1.634   1.262   5.248  0.8832 -2.4888  0.6834
 5361TIP3    H216048   1.584   1.313   5.115 -2.0495 -1.6696  2.0320
 5362TIP3   OH216049   3.897   0.770   2.794  0.2667  0.2345 -0.0312
 5362TIP3    H116050   3.875   0.720   2.716  1.1882 -0.1465 -0.0574
 5362TIP3    H216051   3.992   0.781   2.789  0.7840 -2.1573  2.3918
 5363TIP3   OH216052   1.512   6.553   1.432 -0.4554  0.2302 -0.1858
 5363TIP3    H116053   1.513   6.461   1.405 -1.8602 -0.3404  1.5510
 5363TIP3    H216054   1.587   6.562   1.491  2.1293  1.2832 -3.3387
 5364TIP3   OH216055   5.996   0.739   3.916  0.3232  0.0109 -0.5014
 5364TIP3    H116056   6.046   0.800   3.862 -0.3876  1.9142  0.8754
 5364TIP3    H216057   6.062   0.688   3.962  0.9637 -2.0037 -3.3703
 5365TIP3   OH216058   6.194   0.576   4.857 -0.0563 -0.4530 -0.1688
 5365TIP3    H116059   6.260   0.529   4.806  0.8704  1.9619 -1.3757
 5365TIP3    H216060   6.237   0.595   4.940  0.8908  1.1968 -0.9882
 5366TIP3   OH216061   0.707   2.521   2.779  0.4628 -0.0279 -0.3527
 5366TIP3    H116062   0.640   2.587   2.796  0.7564 -0.1731  1.6679
 5366TIP3    H216063   0.694   2.496   2.687 -2.9484 -0.8053  0.1984
 5367TIP3   OH216064   6.394   6.318   5.855 -0.5390 -0.3875  0.1682
 5367TIP3    H116065   6.398   6.271   5.772 -1.7028  0.2436 -0.2633
 5367TIP3    H216066   6.376   6.249   5.920 -0.2198 -0.7967 -0.1671
 5368TIP3   OH216067   1.269   0.219   2.598 -0.3258 -0.5184  0.2306
 5368TIP3    H116068   1.216   0.237   2.521  0.1524 -2.1777 -0.5208
 5368TIP3    H216069   1.206   0.209   2.669 -0.8142  0.2525 -0.0762
 5369TIP3   OH216070   6.217   5.316   1.755  0.7461 -0.1999 -0.2761
 5369TIP3    H116071   6.195   5.251   1.821  0.5724 -0.9091 -1.0139
 5369TIP3    H216072   6.181   5.398   1.788 -1.4881 -0.9812 -0.6192
 5370TIP3   OH216073   1.252   1.806   1.212 -0.0514  0.4788 -0.0890
 5370TIP3    H116074   1.229   1.798   1.305 -0.4020  0.2631 -0.1929
 5370TIP3    H216075   1.181   1.761   1.166  0.2957  0.2988 -0.4466
 5371TIP3   OH216076   3.503   1.146   1.472  0.5388  0.6813  0.1702
 5371TIP3    H116077   3.437   1.077   1.483  1.2500  0.2549  2.0977
 5371TIP3    H216078   3.570   1.105   1.417 -0.9543  1.3019 -2.2937
 5372TIP3   OH216079   4.805   2.702   0.084  0.1570  0.2387 -0.2372
 5372TIP3    H116080   4.736   2.670   0.142 -0.6397  0.2952 -1.1250
 5372TIP3    H216081   4.819   2.631   0.021  0.8756  0.2509 -0.1032
 5373TIP3   OH216082   3.724   1.480   1.927 -0.5993  0.1422 -0.0451
 5373TIP3    H116083   3.713   1.547   1.860 -1.8149 -0.0671 -0.0784
 5373TIP3    H216084   3.687   1.519   2.006 -0.6279 -0.2158  0.1176
 5374TIP3   OH216085   3.424   6.303   2.457  0.5455  0.0575  0.2813
 5374TIP3    H116086   3.482   6.345   2.519 -0.7611  1.3603  0.6754
 5374TIP3    H216087   3.375   6.239   2.509 -0.1223  0.7202  0.4688
 5375TIP3   OH216088   2.584   6.406   4.803  0.5781 -0.3015 -0.2702
 5375TIP3    H116089   2.491   6.388   4.816 -0.1046  1.8614 -1.5868
 5375TIP3    H216090   2.619   6.324   4.766 -0.6243 -1.3703  0.8438
 5376TIP3   OH216091   4.589   6.396   1.556 -0.0726 -0.5272 -0.2228
 5376TIP3    H116092   4.500   6.362   1.564  0.3886 -1.4871  1.1238
 5376TIP3    H216093   4.631   6.338   1.492  0.1400 -1.3139  0.6116
 5377TIP3   OH216094   5.185   0.325   2.721 -0.0709  0.1789 -0.0024
 5377TIP3    H116095   5.106   0.275   2.740  1.6457 -1.8335  2.3904
 5377TIP3    H216096   5.239   0.266   2.670  0.4424  1.0606 -0.5047
 5378TIP3   OH216097   3.558   3.787   2.473 -0.4582  0.0967 -0.1279
 5378TIP3    H116098   3.581   3.751   2.387 -0.2867 -1.9996  0.7249
 5378TIP3    H216099   3.638   3.828   2.505  0.2128 -1.3027  0.0416
 5379TIP3   OH216100   0.975   5.178   0.644 -0.5964 -0.5278  0.3455
 5379TIP3    H116101   1.036   5.221   0.585  0.2110 -0.3784  1.2659
 5379TIP3    H216102   0.939   5.250   0.697 -0.8619 -0.7248  0.4350
 5380TIP3   OH216103   4.922   2.062   3.577  0.2495 -0.7390  0.1037
 5380TIP3    H116104   4.981   1.991   3.602 -0.2286 -0.6587  1.5712
 5380TIP3    H216105   4.859   2.021   3.517  0.2353 -1.4709  0.6006
 5381TIP3   OH216106   1.118   5.744   1.238 -0.4182 -0.1489  0.4186
 5381TIP3    H116107   1.177   5.696   1.180 -0.9922  0.2680 -0.5332
 5381TIP3    H216108   1.157   5.831   1.246 -1.7148  0.6897 -1.5865
 5382TIP3   OH216109   2.287   2.000   3.598  0.2719 -0.0648 -0.5562
 5382TIP3    H116110   2.290   1.916   3.552  0.2197  0.4171 -1.4551
 5382TIP3    H216111   2.372   2.040   3.580  0.0790  0.3246 -0.6069
 5383TIP3   OH216112   2.090   4.895   0.928  0.3355 -0.0409  0.1542
 5383TIP3    H116113   2.162   4.836   0.946  2.4900  1.8730 -1.5841
 5383TIP3    H216114   2.072   4.938   1.012  0.3218 -1.4408  0.8874
 5384TIP3   OH216115   6.474   3.683   4.756  0.4449  0.0576  0.0465
 5384TIP3    H116116   6.478   3.765   4.708  0.4383 -0.1595 -0.3315
 5384TIP3    H216117   6.530   3.623   4.706  0.1319 -0.2798  0.0925
 5385TIP3   OH216118   4.599   4.803   0.041  0.1697  0.3948  0.7295
 5385TIP3    H116119   4.554   4.870   0.091 -0.1819 -1.3244  2.8698
 5385TIP3    H216120   4.688   4.804   0.074  1.1184  1.9745 -1.6100
 5386TIP3   OH216121   1.510   4.012   1.980  0.1787 -0.1232 -0.7270
 5386TIP3    H116122   1.555   4.087   2.019  0.8380 -0.8496 -0.0392
 5386TIP3    H216123   1.552   3.936   2.021  0.5508 -0.9106 -2.4930
 5387TIP3   OH216124   0.284   3.800   1.634 -0.5636  0.3891 -0.1212
 5387TIP3    H116125   0.330   3.737   1.578  1.0718  2.2170 -0.9492
 5387TIP3    H216126   0.313   3.780   1.722  1.0558  0.8135 -0.5198
 5388TIP3   OH216127   5.575   2.951   1.116  0.1098  0.3025 -0.3152
 5388TIP3    H116128   5.498   2.894   1.122  1.4206 -1.4291  1.0610
 5388TIP3    H216129   5.577   2.979   1.024  0.2509 -3.2194 -1.5501
 5389TIP3   OH216130   5.618   3.765   0.082  0.0377 -0.0577  0.5650
 5389TIP3    H116131   5.599   3.795   0.171  1.2209 -0.3881  0.9481
 5389TIP3    H216132   5.542   3.793   0.031 -0.3013  0.8446  1.5154
 5390TIP3   OH216133   1.976   3.942   5.268  0.4558  0.5893 -0.3303
 5390TIP3    H116134   1.998   4.024   5.313  3.6903 -0.1400 -0.3919
 5390TIP3    H216135   2.051   3.924   5.212 -0.8154 -1.7219 -1.4270
 5391TIP3   OH216136   0.365   2.823   0.843 -1.0914  0.1815 -0.1689
 5391TIP3    H116137   0.416   2.884   0.790  0.0610 -1.3453 -0.8617
 5391TIP3    H216138   0.301   2.786   0.782 -1.1039 -0.0709 -0.0039
 5392TIP3   OH216139   7.012   5.911   3.144  0.2389  0.4825  0.2118
 5392TIP3    H116140   7.054   5.920   3.229  0.0170  1.6509  0.2085
 5392TIP3    H216141   6.932   5.862   3.162 -1.3634  3.2488  1.2404
 5393TIP3   OH216142   4.459   5.680   3.845  0.3819  0.0645  0.2779
 5393TIP3    H116143   4.385   5.626   3.818  1.4933 -1.6287  0.4885
 5393TIP3    H216144   4.496   5.635   3.921  1.0470  1.4174  0.7932
 5394TIP3   OH216145   2.432   1.510   2.206  0.0245  0.2099  0.0417
 5394TIP3    H116146   2.519   1.493   2.244 -0.3072  0.7418  1.0693
 5394TIP3    H216147   2.430   1.455   2.128  0.7371 -0.9418  0.7909
 5395TIP3   OH216148   4.352   0.431   1.297 -0.6615 -0.1925  0.3610
 5395TIP3    H116149   4.266   0.468   1.317 -0.0581  2.2705 -1.1640
 5395TIP3    H216150   4.334   0.360   1.236 -1.7361 -1.4180  2.0078
 5396TIP3   OH216151   4.186   4.891   2.366 -0.2716 -0.2928  0.3348
 5396TIP3    H116152   4.221   4.853   2.447  1.1561 -3.3177 -1.5036
 5396TIP3    H216153   4.097   4.917   2.388  0.1584 -0.7111  2.9428
 5397TIP3   OH216154   0.237   1.325   5.374  0.0532  0.0210 -0.2129
 5397TIP3    H116155   0.299   1.344   5.444  0.2859 -0.2730 -0.3363
 5397TIP3    H216156   0.227   1.409   5.328  0.5167  0.0228 -0.3179
 5398TIP3   OH216157   6.342   2.958   2.818  0.0735  0.3714 -0.0957
 5398TIP3    H116158   6.385   3.019   2.879 -0.7554 -0.0892  0.9967
 5398TIP3    H216159   6.314   2.886   2.874  1.2302 -1.1428 -1.3983
 5399TIP3   OH216160   3.920   1.554   4.517 -0.0140  0.4859  0.1840
 5399TIP3    H116161   3.891   1.638   4.552  2.1469  0.9909  0.9837
 5399TIP3    H216162   3.944   1.573   4.427 -1.3117  0.2560 -0.2241
 5400TIP3   OH216163   0.050   2.722   4.628  0.4669  0.6848  0.1640
 5400TIP3    H116164   0.049   2.669   4.549 -1.1170  0.8770  0.0150
 5400TIP3    H216165   0.142   2.736   4.647  0.8869  1.3086 -2.1109
 5401TIP3   OH216166   7.142   1.110   4.719 -0.0596 -0.2326 -0.0911
 5401TIP3    H116167   7.063   1.101   4.667 -0.5755 -0.1184  0.6607
 5401TIP3    H216168   7.112   1.107   4.810  0.7878 -0.1215  0.2036
 5402TIP3   OH216169   0.580   5.317   2.302  0.0666  0.2289  0.5449
 5402TIP3    H116170   0.512   5.372   2.341  0.9685  0.9601  1.1524
 5402TIP3    H216171   0.647   5.310   2.371  1.5042  1.1936 -0.6932
 5403TIP3   OH216172   0.699   0.364   3.069  0.0142  0.1958  0.3795
 5403TIP3    H116173   0.715   0.323   3.154  0.2039  0.5605  0.5239
 5403TIP3    H216174   0.609   0.342   3.048  0.2202 -0.5867  0.2921
 5404TIP3   OH216175   1.700   5.021   3.165 -0.0021 -0.1203  0.3754
 5404TIP3    H116176   1.736   5.082   3.229  2.8297 -0.6568 -0.5536
 5404TIP3    H216177   1.682   5.074   3.088 -2.2015  0.3034  1.1221
 5405TIP3   OH216178   4.069   5.665   0.646 -0.4213  0.4741 -0.1441
 5405TIP3    H116179   3.997   5.629   0.594  1.6332 -1.7600 -1.6539
 5405TIP3    H216180   4.078   5.605   0.720 -2.1892  2.6686  2.0387
 5406TIP3   OH216181   0.837   4.243   1.841  0.1347 -0.2632  0.0931
 5406TIP3    H116182   0.925   4.267   1.812  0.5998  0.1797  1.8009
 5406TIP3    H216183   0.795   4.326   1.862 -0.5674 -0.5020 -0.3091
 5407TIP3   OH216184   3.113   5.770   3.497  0.0528 -0.3546  0.2949
 5407TIP3    H116185   3.111   5.723   3.580 -1.1047 -1.8780 -0.5341
 5407TIP3    H216186   3.049   5.840   3.507 -1.0248 -1.3091  0.2876
 5408TIP3   OH216187   5.036   6.323   1.064 -0.4979  0.1121  0.0221
 5408TIP3    H116188   5.045   6.255   1.131  0.6114  0.5376  0.3141
 5408TIP3    H216189   5.095   6.296   0.994  1.1565  1.5339  0.7968
 5409TIP3   OH216190   6.762   0.328   1.865  0.6281  0.0156  0.4509
 5409TIP3    H116191   6.670   0.316   1.887 -0.1822  3.4728 -0.4993
 5409TIP3    H216192   6.805   0.349   1.948 -0.0843  1.2991  0.5245
 5410TIP3   OH216193   6.295   2.086   3.268  0.3787  0.1446  0.5750
 5410TIP3    H116194   6.290   2.119   3.178  0.7918 -1.2095  0.0175
 5410TIP3    H216195   6.369   2.025   3.267  0.6969  0.4735  1.9740
 5411TIP3   OH216196   0.094   2.884   5.207 -0.2365  0.3145  0.1432
 5411TIP3    H116197   0.111   2.862   5.115 -0.5654 -2.4323  0.6560
 5411TIP3    H216198   0.138   2.968   5.220  2.5199 -0.7116 -1.6991
 5412TIP3   OH216199   0.905   4.637   0.822  0.3123  0.3981  0.1733
 5412TIP3    H116200   0.816   4.641   0.788  0.8751  1.5043 -1.3078
 5412TIP3    H216201   0.957   4.603   0.748  1.3050  1.0999  0.5231
 5413TIP3   OH216202   3.050   5.669   4.243 -0.1625  0.5153  0.1603
 5413TIP3    H116203   2.999   5.602   4.289  0.6602 -0.8567 -0.8474
 5413TIP3    H216204   2.986   5.737   4.221 -0.9599  0.2132  1.4525
 5414TIP3   OH216205   4.863   5.328   1.584 -0.0081  0.1167  0.8374
 5414TIP3    H116206   4.920   5.320   1.508 -0.5142 -0.9641  0.5600
 5414TIP3    H216207   4.882   5.416   1.618 -0.9211  1.2840 -1.4371
 5415TIP3   OH216208   0.188   1.147   4.629 -0.0914 -0.0078  0.7219
 5415TIP3    H116209   0.222   1.061   4.607  1.3833  0.9496 -0.9326
 5415TIP3    H216210   0.103   1.129   4.671  0.2435 -2.2349  0.5544
 5416TIP3   OH216211   2.957   3.911   0.096  0.3836 -0.1239 -0.4342
 5416TIP3    H116212   2.885   3.910   0.034 -0.0989 -1.2879  0.1061
 5416TIP3    H216213   2.983   3.819   0.104  0.6422  0.0342  0.8398
 5417TIP3   OH216214   6.596   3.950   4.381  0.1718 -0.0772  0.1155
 5417TIP3    H116215   6.620   3.884   4.446 -1.8113 -0.1304  0.8822
 5417TIP3    H216216   6.500   3.946   4.378  0.1423  0.8417 -1.8737
 5418TIP3   OH216217   1.428   2.828   1.064  0.0848 -0.8661 -0.0156
 5418TIP3    H116218   1.460   2.830   1.154 -0.0882 -2.2842  0.0930
 5418TIP3    H216219   1.333   2.824   1.073  0.0435 -0.4919 -0.2742
 5419TIP3   OH216220   2.267   4.160   0.095 -0.6515 -0.1810 -0.0198
 5419TIP3    H116221   2.336   4.214   0.058  0.7274 -1.6200  0.3417
 5419TIP3    H216222   2.217   4.130   0.020  0.4024 -0.7982 -0.4997
 5420TIP3   OH216223   6.347   6.597   5.593 -0.1339  0.0579 -0.1435
 5420TIP3    H116224   6.399   6.550   5.528 -0.5428  1.7832 -1.7953
 5420TIP3    H216225   6.256   6.583   5.566 -0.2769  1.5663 -0.5468
 5421TIP3   OH216226   6.256   6.663   3.306  0.4835 -0.2356  0.1364
 5421TIP3    H116227   6.276   6.657   3.212  0.3179 -0.1596  0.0955
 5421TIP3    H216228   6.185   6.599   3.319 -1.5401  1.7740 -0.3731
 5422TIP3   OH216229   4.188   5.712   4.799 -0.0626 -0.5339  0.0738
 5422TIP3    H116230   4.099   5.693   4.831 -0.4838  0.5079 -0.4452
 5422TIP3    H216231   4.222   5.777   4.861 -0.9217  1.5839 -1.5576
 5423TIP3   OH216232   5.757   1.591   4.104  0.4134  0.0271 -0.4786
 5423TIP3    H116233   5.811   1.642   4.165  0.3532  0.1612 -0.5370
 5423TIP3    H216234   5.738   1.652   4.032 -2.9541  1.2364  1.2452
 5424TIP3   OH216235   1.009   0.831   1.975 -0.1202  0.3330 -1.0818
 5424TIP3    H116236   1.058   0.907   2.006  0.4979 -0.8510  1.0196
 5424TIP3    H216237   1.072   0.784   1.920 -0.3296  1.0334 -1.9397
 5425TIP3   OH216238   0.748   4.390   2.249 -0.2623 -0.4999  0.1562
 5425TIP3    H116239   0.803   4.402   2.327 -0.9181 -0.4221  0.6165
 5425TIP3    H216240   0.772   4.304   2.215  1.0715  0.0631 -0.4049
 5426TIP3   OH216241   2.853   5.846   1.575 -0.2006 -0.4525 -0.0231
 5426TIP3    H116242   2.796   5.770   1.580 -0.0005 -0.5511  0.7828
 5426TIP3    H216243   2.934   5.819   1.617 -0.3595  0.4044  0.8818
 5427TIP3   OH216244   6.150   2.947   2.400  0.5426  0.6560  0.0154
 5427TIP3    H116245   6.082   2.972   2.462 -0.5748  1.0189 -1.2929
 5427TIP3    H216246   6.231   2.947   2.451 -0.2745  1.3025  1.3641
 5428TIP3   OH216247   1.740   6.092   4.007  0.0657 -0.2754 -0.6084
 5428TIP3    H116248   1.779   6.172   3.973 -2.4790  1.5472  0.4089
 5428TIP3    H216249   1.658   6.083   3.959 -1.2973 -0.3295  1.5874
 5429TIP3   OH216250   3.829   0.057   5.407  0.3310 -0.5971  0.0340
 5429TIP3    H116251   3.793   0.002   5.337  0.0651 -2.0186  1.2330
 5429TIP3    H216252   3.760   0.061   5.473  0.6654  0.5119  0.3471
 5430TIP3   OH216253   6.067   5.311   0.611 -0.1242 -0.2905 -0.1613
 5430TIP3    H116254   6.049   5.298   0.704  0.4283 -0.5664 -0.0875
 5430TIP3    H216255   6.137   5.250   0.591 -1.6525 -1.7631 -1.2743
 5431TIP3   OH216256   2.169   4.474   0.968 -0.4976 -0.5359  0.0133
 5431TIP3    H116257   2.193   4.502   0.879  1.9142  1.1569  1.0861
 5431TIP3    H216258   2.078   4.500   0.977  0.1638  2.5029 -0.8606
 5432TIP3   OH216259   0.693   6.024   4.948  0.7976  0.1125  0.0336
 5432TIP3    H116260   0.670   5.979   4.867 -3.4149 -1.6074  1.8673
 5432TIP3    H216261   0.668   6.115   4.932  3.6079  0.7024 -1.6846
 5433TIP3   OH216262   6.832   6.240   2.710  0.0653  0.5237  0.3554
 5433TIP3    H116263   6.897   6.310   2.718  0.1025  0.8043 -1.7525
 5433TIP3    H216264   6.855   6.177   2.779 -0.9816  3.2830  3.4524
 5434TIP3   OH216265   4.069   6.651   3.862  0.2856 -0.2739 -0.4088
 5434TIP3    H116266   4.065   6.555   3.863  1.5495 -0.3883 -1.7668
 5434TIP3    H216267   4.162   6.670   3.848 -0.1258  1.1241 -1.3907
 5435TIP3   OH216268   0.859   3.917   2.794 -0.5279  0.3471 -0.3488
 5435TIP3    H116269   0.842   3.842   2.850  0.6468  0.1876 -0.1896
 5435TIP3    H216270   0.932   3.963   2.835  0.5913  0.0385 -1.9061
 5436TIP3   OH216271   3.408   1.759   0.671  0.0901 -0.2515  0.0897
 5436TIP3    H116272   3.402   1.734   0.578 -2.3600 -0.3823  0.2082
 5436TIP3    H216273   3.391   1.677   0.718  0.3292  0.0142  0.6366
 5437TIP3   OH216274   5.317   3.875   4.907 -1.1042 -0.2858  0.5674
 5437TIP3    H116275   5.292   3.787   4.880  1.2014 -0.7641 -0.2161
 5437TIP3    H216276   5.394   3.862   4.962 -1.4248  1.1999  1.4421
 5438TIP3   OH216277   5.978   0.303   0.915 -0.1470 -0.1496  0.6725
 5438TIP3    H116278   5.995   0.210   0.904 -1.7250 -0.7455  2.6130
 5438TIP3    H216279   5.975   0.316   1.010  0.8933  2.0689  0.4664
 5439TIP3   OH216280   4.797   3.662   3.768 -0.2742  0.3157  0.0153
 5439TIP3    H116281   4.732   3.691   3.704  0.4373  0.0232 -0.8508
 5439TIP3    H216282   4.765   3.576   3.796 -0.7723  0.5953  0.3336
 5440TIP3   OH216283   5.283   6.256   2.345 -0.3008  0.0515 -0.1792
 5440TIP3    H116284   5.244   6.173   2.318  0.2457  0.1181 -1.2456
 5440TIP3    H216285   5.214   6.320   2.333 -0.9609 -0.3263  1.3444
 5441TIP3   OH216286   0.739   0.311   4.309  1.0914  0.3907  0.2515
 5441TIP3    H116287   0.672   0.314   4.240 -0.7211 -0.7614  1.8507
 5441TIP3    H216288   0.786   0.393   4.300 -1.2686  1.7852 -0.2778
 5442TIP3   OH216289   3.787   5.497   0.754  0.1792  0.3904 -0.0754
 5442TIP3    H116290   3.728   5.520   0.682 -0.6910  1.5833  0.9595
 5442TIP3    H216291   3.747   5.420   0.794 -0.4075  0.8854  0.3046
 5443TIP3   OH216292   1.899   3.124   1.115 -0.3691  0.4135 -0.3683
 5443TIP3    H116293   1.871   3.094   1.201 -0.9020 -0.3377 -0.7921
 5443TIP3    H216294   1.991   3.098   1.109 -0.8271 -1.2413 -0.7507
 5444TIP3   OH216295   3.128   1.169   1.526  0.2361 -0.3212  0.2147
 5444TIP3    H116296   3.163   1.153   1.613 -0.9949 -0.5733  0.6899
 5444TIP3    H216297   3.061   1.101   1.514  0.2299 -0.1471 -0.8298
 5445TIP3   OH216298   2.942   1.463   1.836 -0.3296  0.4494 -0.4464
 5445TIP3    H116299   2.866   1.505   1.877 -0.4403  0.5896 -0.7900
 5445TIP3    H216300   2.928   1.370   1.850  1.1233  0.5685  2.4499
 5446TIP3   OH216301   6.983   6.289   0.034  0.5963  0.5410  0.2389
 5446TIP3    H116302   7.058   6.319  -0.017  0.2731 -1.5293 -1.5507
 5446TIP3    H216303   7.022   6.248   0.111  1.2356  0.6812 -0.0032
 5447TIP3   OH216304   2.528   3.883   2.305 -0.2536 -0.1899 -0.3492
 5447TIP3    H116305   2.534   3.930   2.222  0.7717  3.4522  1.5279
 5447TIP3    H216306   2.443   3.910   2.341  0.9959  1.7183  1.4359
 5448TIP3   OH216307   4.169   2.838   1.169  0.3769  0.1912  0.3800
 5448TIP3    H116308   4.093   2.782   1.185  0.2042  0.2335 -0.2738
 5448TIP3    H216309   4.179   2.838   1.074 -0.1737  1.9908  0.2945
 5449TIP3   OH216310   6.925   0.381   2.086 -0.1434  0.1929  0.3436
 5449TIP3    H116311   6.991   0.349   2.024 -2.7346 -2.0541 -1.5192
 5449TIP3    H216312   6.947   0.339   2.169  0.2342 -1.3974 -0.5185
 5450TIP3   OH216313   3.813   3.345   1.387 -0.3175 -0.3980  0.5914
 5450TIP3    H116314   3.876   3.273   1.386 -0.2847 -0.4343  2.0320
 5450TIP3    H216315   3.743   3.317   1.328 -0.5499 -1.8793  1.5109
 5451TIP3   OH216316   3.493   3.712   3.047  0.5245 -0.4638 -0.4912
 5451TIP3    H116317   3.478   3.618   3.047  1.0311 -0.5504 -0.1271
 5451TIP3    H216318   3.507   3.735   2.955 -1.2394 -0.4583 -0.7972
 5452TIP3   OH216319   6.293   0.471   0.631  0.1645 -0.4240 -0.1725
 5452TIP3    H116320   6.374   0.458   0.681  0.1431  0.8030  0.2241
 5452TIP3    H216321   6.306   0.420   0.551  1.3237 -0.2685 -0.1058
 5453TIP3   OH216322   5.029   4.675   3.316 -0.1162 -0.3996 -0.2848
 5453TIP3    H116323   4.962   4.606   3.309 -0.4327  0.0597 -3.1766
 5453TIP3    H216324   5.105   4.640   3.269  0.0930  0.7513 -0.8532
 5454TIP3   OH216325   1.091   1.645   1.048 -0.1736  0.1006  0.0714
 5454TIP3    H116326   1.161   1.641   0.982  0.4148  1.2176  0.6088
 5454TIP3    H216327   1.014   1.610   1.003  0.9915 -2.3660 -0.1616
 5455TIP3   OH216328   5.074   4.367   0.941 -0.1589 -0.3511  0.3236
 5455TIP3    H116329   5.081   4.453   0.983  2.6432  0.8081 -2.1292
 5455TIP3    H216330   5.162   4.330   0.947 -0.8897 -2.3050 -0.1860
 5456TIP3   OH216331   5.572   6.619   1.255  0.0740  0.3509 -0.0695
 5456TIP3    H116332   5.650   6.565   1.245 -0.1677 -0.5445  2.2669
 5456TIP3    H216333   5.510   6.585   1.191  0.5068 -1.0841  0.2384
 5457TIP3   OH216334   3.987   6.376   1.405 -0.0431 -0.2572  0.2170
 5457TIP3    H116335   3.939   6.308   1.357 -0.1283 -0.4481  0.5644
 5457TIP3    H216336   4.044   6.327   1.464  0.1692 -0.0262  0.2023
 5458TIP3   OH216337   0.725   2.553   0.089 -0.3605  0.9904 -0.0146
 5458TIP3    H116338   0.665   2.608   0.038 -0.7111  1.7320  1.1449
 5458TIP3    H216339   0.808   2.600   0.089 -0.3523  0.9768  0.0725
 5459TIP3   OH216340   3.840   1.697   2.832 -0.4385  0.2986 -0.0528
 5459TIP3    H116341   3.864   1.652   2.751 -2.1059 -0.1023 -0.3581
 5459TIP3    H216342   3.855   1.790   2.812  0.1239  0.1262 -0.4711
 5460TIP3   OH216343  -0.004   5.035   1.881 -0.1315  0.0752 -0.7363
 5460TIP3    H116344   0.086   5.060   1.904  0.0248 -0.6939 -0.4676
 5460TIP3    H216345  -0.042   5.006   1.963 -0.6579  0.4745 -0.8376
 5461TIP3   OH216346   1.382   3.180   0.502  0.1108 -0.5287  0.0074
 5461TIP3    H116347   1.320   3.108   0.502 -0.9269  0.2937 -1.9646
 5461TIP3    H216348   1.372   3.221   0.588  0.3659 -2.3724  0.9629
 5462TIP3   OH216349   3.054   4.570   3.003 -0.3795  0.0187 -0.5729
 5462TIP3    H116350   2.980   4.516   3.029 -0.3769  0.1585 -0.2770
 5462TIP3    H216351   3.131   4.520   3.029 -0.3800  0.3577  0.0998
 5463TIP3   OH216352   3.990   4.918   3.403 -0.1017  0.0234  0.2771
 5463TIP3    H116353   3.903   4.957   3.391 -0.1665 -0.1576  0.1545
 5463TIP3    H216354   4.013   4.940   3.494 -1.1721 -1.6814  1.0234
 5464TIP3   OH216355   1.636   2.624   0.006 -0.0770 -0.0801 -0.1434
 5464TIP3    H116356   1.559   2.567   0.002 -0.5622  0.4614  0.8684
 5464TIP3    H216357   1.702   2.572   0.052  0.2456 -0.6143 -1.1763
 5465TIP3   OH216358   2.159   6.492   5.301 -0.1233 -0.1950 -0.0729
 5465TIP3    H116359   2.159   6.575   5.253  0.1862  0.3839  0.8872
 5465TIP3    H216360   2.157   6.424   5.233 -1.5509  0.5892 -0.8614
 5466TIP3   OH216361   0.256   4.192   5.534 -0.6470 -0.1874 -0.2918
 5466TIP3    H116362   0.197   4.190   5.610  1.7763 -1.5215  1.6987
 5466TIP3    H216363   0.284   4.101   5.522  1.8320  0.5087 -0.4038
 5467TIP3   OH216364   5.763   3.741   3.709  0.4476  0.0212  0.2868
 5467TIP3    H116365   5.698   3.806   3.737  0.2958 -1.0269  2.5978
 5467TIP3    H216366   5.824   3.790   3.654 -1.4902  1.3353 -0.8316
 5468TIP3   OH216367   2.700   6.521   4.509  0.1720 -0.1531 -0.4357
 5468TIP3    H116368   2.739   6.528   4.597  0.5719  2.0581 -0.7344
 5468TIP3    H216369   2.756   6.458   4.463  1.6691  0.7932  0.0391
 5469TIP3   OH216370   5.996   4.165   5.860 -0.0630  0.1541 -0.2149
 5469TIP3    H116371   5.925   4.228   5.844 -0.8735  0.2003  2.8958
 5469TIP3    H216372   5.951   4.083   5.881  0.8052 -0.1204  0.6758
 5470TIP3   OH216373   5.384   1.806   3.440  0.2333  0.2504  0.7309
 5470TIP3    H116374   5.479   1.818   3.432  0.1126  0.8152 -0.0186
 5470TIP3    H216375   5.357   1.869   3.506  0.2357  0.9036  0.1239
 5471TIP3   OH216376   5.999   0.394   4.834 -0.1048 -0.1980  0.3629
 5471TIP3    H116377   6.058   0.469   4.843 -0.5206  0.2629 -0.5277
 5471TIP3    H216378   6.030   0.349   4.756 -1.1133  0.2540 -0.3294
 5472TIP3   OH216379   0.415   4.480   2.935 -0.4416 -0.0852  0.2215
 5472TIP3    H116380   0.452   4.454   2.851  1.1685  0.3056  0.7822
 5472TIP3    H216381   0.393   4.397   2.978  1.7257 -0.4635  0.6991
 5473TIP3   OH216382   6.570   4.340   5.480 -0.7628  0.5654 -0.0934
 5473TIP3    H116383   6.636   4.327   5.549  1.0237 -0.9510 -1.9812
 5473TIP3    H216384   6.595   4.423   5.439 -2.1430  1.7432  1.3262
 5474TIP3   OH216385   4.353   2.885   5.012  0.4836 -0.3496 -0.1924
 5474TIP3    H116386   4.444   2.870   4.985  0.2238 -3.2303  0.2083
 5474TIP3    H216387   4.334   2.975   4.984  2.9034 -0.2589 -1.8533
 5475TIP3   OH216388   5.107   6.068   3.911  0.1070 -0.0725 -0.7089
 5475TIP3    H116389   5.130   6.002   3.846 -1.1652  1.0294 -2.3549
 5475TIP3    H216390   5.028   6.110   3.877 -0.7160  0.4541  1.6539
 5476TIP3   OH216391   2.178   1.469   2.982 -0.2683  0.0186 -0.6995
 5476TIP3    H116392   2.168   1.552   3.029  1.7149 -1.1914  2.1672
 5476TIP3    H216393   2.263   1.477   2.938  0.5373 -0.8714  0.6286
 5477TIP3   OH216394   4.693   0.102   1.827  0.1299 -0.1274 -0.3424
 5477TIP3    H116395   4.785   0.080   1.844  0.1279 -0.3282 -0.5846
 5477TIP3    H216396   4.672   0.055   1.746 -0.2175 -0.1708 -0.2282
 5478TIP3   OH216397   0.138   5.796   4.269  0.3094  0.1756  0.2890
 5478TIP3    H116398   0.147   5.795   4.174 -1.5039  0.9603  0.0611
 5478TIP3    H216399   0.077   5.725   4.288 -2.2694  2.2963  0.4220
 5479TIP3   OH216400   0.702   4.099   4.904  0.0820  0.1172 -0.5611
 5479TIP3    H116401   0.614   4.073   4.877 -0.3723  0.5564  0.4446
 5479TIP3    H216402   0.744   4.131   4.824  0.0477 -1.9660 -1.4779
 5480TIP3   OH216403   4.034   5.447   4.551  0.8451  0.1423 -0.4246
 5480TIP3    H116404   3.969   5.510   4.519  2.5125  1.7412 -0.8690
 5480TIP3    H216405   4.119   5.489   4.534  1.9764 -1.1711  1.5153
 5481TIP3   OH216406   6.273   6.023   0.801  0.3320  0.1904  0.0711
 5481TIP3    H116407   6.214   6.042   0.728 -0.5955  0.0646  0.7664
 5481TIP3    H216408   6.285   5.928   0.798 -1.6638 -0.1609  1.4964
 5482TIP3   OH216409   6.681   6.615   3.294  0.1582  0.4672 -0.3713
 5482TIP3    H116410   6.660   6.708   3.294 -1.1545  0.2524  1.9903
 5482TIP3    H216411   6.605   6.573   3.255 -0.7891  0.2144  1.6040
 5483TIP3   OH216412   2.771   6.325   1.137  0.3567 -0.1381 -0.1931
 5483TIP3    H116413   2.764   6.408   1.184  1.4005  0.1001 -0.4419
 5483TIP3    H216414   2.683   6.288   1.142 -0.6869  1.8872 -1.7879
 5484TIP3   OH216415   0.952   1.288   1.313 -0.3236 -0.2955  0.2654
 5484TIP3    H116416   0.929   1.381   1.317 -0.7128 -0.3969  0.4652
 5484TIP3    H216417   0.906   1.256   1.235 -0.3766 -0.3694  0.3269
 5485TIP3   OH216418   2.367   2.975   1.191  0.0959 -0.3767  0.2203
 5485TIP3    H116419   2.294   3.035   1.173  0.5597 -0.0790 -0.6936
 5485TIP3    H216420   2.324   2.892   1.213 -0.5680 -1.1725 -3.5045
 5486TIP3   OH216421   0.576   4.019   1.887  0.0150 -0.0191  0.2567
 5486TIP3    H116422   0.670   4.034   1.881 -0.2177  1.1463 -1.1066
 5486TIP3    H216423   0.537   4.106   1.887 -1.0587 -0.4708  1.2450
 5487TIP3   OH216424   1.970   0.096   2.725 -0.3341 -0.1951  0.0794
 5487TIP3    H116425   2.013   0.017   2.758  1.5423  0.9462  0.5258
 5487TIP3    H216426   1.960   0.081   2.631 -0.3013 -1.0729  0.2045
 5488TIP3   OH216427   3.276   2.818   0.921  0.2922  0.1124  0.3073
 5488TIP3    H116428   3.212   2.748   0.912  0.4429  0.0274 -0.1132
 5488TIP3    H216429   3.229   2.888   0.966 -0.2684  0.2758 -0.5223
 5489TIP3   OH216430   3.702   0.774   1.770  0.3191 -0.0273 -0.0527
 5489TIP3    H116431   3.747   0.699   1.731  0.3678  0.4966 -1.0348
 5489TIP3    H216432   3.740   0.850   1.726 -0.4972  0.5046  0.1504
 5490TIP3   OH216433   5.817   1.996   3.014  0.7765  0.5125  0.1636
 5490TIP3    H116434   5.847   1.905   3.013  0.2904  0.3306  0.9745
 5490TIP3    H216435   5.723   1.990   3.031  0.3780  1.0996 -1.6485
 5491TIP3   OH216436   0.476   0.649   5.713  0.4019  0.2740  0.4458
 5491TIP3    H116437   0.512   0.736   5.729 -1.2876  0.9939  0.5572
 5491TIP3    H216438   0.398   0.645   5.768  0.1060 -1.0866 -0.0274
 5492TIP3   OH216439   4.857   3.568   2.293  0.4719 -0.1665  0.4238
 5492TIP3    H116440   4.888   3.659   2.294 -2.1826  0.8630 -0.3389
 5492TIP3    H216441   4.807   3.559   2.374  0.8639 -1.0127  0.5755
 5493TIP3   OH216442   6.816   3.122   0.941 -0.6298 -0.1219 -0.4318
 5493TIP3    H116443   6.880   3.122   0.869  0.4280 -2.7625  0.3842
 5493TIP3    H216444   6.869   3.140   1.019 -1.1026 -0.9618  0.0936
 5494TIP3   OH216445   2.778   4.638   1.723  0.2855 -0.1607 -0.4936
 5494TIP3    H116446   2.792   4.584   1.802  2.0279  0.8338 -0.0547
 5494TIP3    H216447   2.741   4.577   1.659 -1.9046 -0.8347  1.2726
 5495TIP3   OH216448   2.889   2.875   0.559  0.1246 -0.2495 -0.2952
 5495TIP3    H116449   2.870   2.963   0.527 -0.0108 -0.2316 -0.1649
 5495TIP3    H216450   2.917   2.887   0.650  2.0473 -0.1367 -0.8534
 5496TIP3   OH216451   3.157   4.469   3.864 -0.3734  0.0073  0.7425
 5496TIP3    H116452   3.121   4.422   3.939 -1.4252  1.3942  1.1585
 5496TIP3    H216453   3.172   4.401   3.798 -1.8201 -0.9224  1.3143
 5497TIP3   OH216454   6.278   4.474   3.382  0.1102 -0.2752  0.6189
 5497TIP3    H116455   6.274   4.546   3.319 -0.5133 -0.4734  0.4198
 5497TIP3    H216456   6.371   4.460   3.398  0.2836 -0.3562 -0.4097
 5498TIP3   OH216457   0.100   4.665   5.511  0.4449 -0.5334  0.2748
 5498TIP3    H116458   0.017   4.649   5.556 -0.3367  0.6759 -0.6801
 5498TIP3    H216459   0.165   4.671   5.581 -0.7481  1.3376  1.2741
 5499TIP3   OH216460   2.544   2.707   2.060 -0.7743  0.0820  0.2462
 5499TIP3    H116461   2.483   2.715   2.133 -1.2965  0.3622 -0.2138
 5499TIP3    H216462   2.568   2.614   2.059 -0.6747  0.0971  0.8379
 5500TIP3   OH216463   3.098   1.838   5.003  0.0267  0.5462 -0.5998
 5500TIP3    H116464   3.147   1.909   5.045  1.0375  0.7220 -2.0235
 5500TIP3    H216465   3.016   1.879   4.975 -0.0549  0.7616 -0.0689
 5501TIP3   OH216466   6.024   6.276   3.699  0.1846  0.4765  0.1347
 5501TIP3    H116467   6.030   6.268   3.794 -0.1062  0.8173  0.1825
 5501TIP3    H216468   6.111   6.253   3.667  0.5480  1.2709  0.5438
 5502TIP3   OH216469   3.410   2.802   2.128 -0.1468  0.7578 -0.5803
 5502TIP3    H116470   3.460   2.773   2.205  0.0007 -0.5722 -1.1438
 5502TIP3    H216471   3.360   2.877   2.159  1.7108  1.7732  0.1829
 5503TIP3   OH216472   5.991   2.553   1.587 -0.1628 -0.3850  0.0735
 5503TIP3    H116473   5.929   2.508   1.530 -2.1998  1.0679  1.0150
 5503TIP3    H216474   5.971   2.520   1.675  0.3297  0.1635  0.4001
 5504TIP3   OH216475   4.182   5.088   5.017 -0.0201 -0.2037  0.0342
 5504TIP3    H116476   4.268   5.054   5.042  0.3364  1.2152  0.8487
 5504TIP3    H216477   4.183   5.179   5.046 -2.2325 -0.4632  1.1127
 5505TIP3   OH216478   6.398   4.054   5.701 -0.2583  0.1646 -0.2076
 5505TIP3    H116479   6.333   3.990   5.728  1.2479 -1.6133 -0.5982
 5505TIP3    H216480   6.469   4.044   5.765 -0.1680  1.7980 -0.0002
 5506TIP3   OH216481   4.696   1.099   4.302 -0.3972  0.0507  0.5749
 5506TIP3    H116482   4.649   1.056   4.374 -1.1593  0.6123  0.4242
 5506TIP3    H216483   4.653   1.184   4.293  0.9896  0.8038  0.7668
 5507TIP3   OH216484   0.999   6.602   4.479  0.3778 -0.0795 -0.0099
 5507TIP3    H116485   1.061   6.577   4.411  0.4709 -1.2538  0.4708
 5507TIP3    H216486   1.033   6.560   4.558 -0.9313 -0.6312  0.2913
 5508TIP3   OH216487   5.250   0.358   0.009 -0.0923  0.8436  0.4289
 5508TIP3    H116488   5.304   0.304  -0.048  0.6298  1.0488  0.9008
 5508TIP3    H216489   5.274   0.331   0.098 -0.5515  1.1510  0.6533
 5509TIP3   OH216490   6.008   2.110   3.272 -0.2821  0.4635 -0.7060
 5509TIP3    H116491   6.101   2.091   3.260  0.3856  3.0318 -0.2921
 5509TIP3    H216492   5.975   2.125   3.184  0.3708  2.0204 -0.7283
 5510TIP3   OH216493   0.975   0.196   4.026  0.0296 -0.0667  0.3079
 5510TIP3    H116494   1.026   0.141   4.087  0.3927 -0.3210 -0.2145
 5510TIP3    H216495   1.039   0.258   3.991  0.1209 -0.7588 -0.7904
 5511TIP3   OH216496   6.697   6.706   5.796 -0.9411  0.2884  0.4095
 5511TIP3    H116497   6.700   6.611   5.809 -0.6027  0.3148  0.5408
 5511TIP3    H216498   6.789   6.733   5.797 -1.0259  0.5929  0.1828
 5512TIP3   OH216499   7.106   5.460   1.701  0.0322  0.0896  0.2272
 5512TIP3    H116500   7.193   5.434   1.731 -0.0958  1.7277  2.3124
 5512TIP3    H216501   7.122   5.520   1.629  0.6781  0.6602  0.8315
 5513TIP3   OH216502   6.475   6.190   5.608  0.4965 -0.4354  0.1151
 5513TIP3    H116503   6.423   6.110   5.600  0.6602 -0.5295 -0.0173
 5513TIP3    H216504   6.439   6.249   5.542  0.9426 -0.7144 -0.3879
 5514TIP3   OH216505   1.599   0.232   0.152 -0.3943  0.2571 -0.5597
 5514TIP3    H116506   1.667   0.165   0.159 -0.1636  0.5665  0.1589
 5514TIP3    H216507   1.590   0.247   0.058  0.4928  0.1834 -0.6578
 5515TIP3   OH216508   2.662   2.150   1.094  0.1239  0.5776  0.3069
 5515TIP3    H116509   2.694   2.240   1.093  0.7250  0.3713 -0.7501
 5515TIP3    H216510   2.732   2.099   1.053 -0.7021 -0.1825 -0.2123
 5516TIP3   OH216511   5.633   1.245   3.042  0.1621  0.4322  0.3846
 5516TIP3    H116512   5.613   1.183   2.972  2.4789  1.2965 -1.1901
 5516TIP3    H216513   5.702   1.202   3.093 -1.3687 -0.1039  2.0974
 5517TIP3   OH216514   6.138   1.655   5.040 -0.3614  0.0388  0.0269
 5517TIP3    H116515   6.162   1.730   4.986 -1.1613  0.9518  0.8850
 5517TIP3    H216516   6.207   1.591   5.025  0.7522  1.2374 -0.1610
 5518TIP3   OH216517   6.103   6.624   1.730  0.4181 -0.1135  0.4662
 5518TIP3    H116518   6.009   6.641   1.722  0.5141  1.6212  2.2491
 5518TIP3    H216519   6.117   6.602   1.822  1.8808  0.6951  0.4803
 5519TIP3   OH216520   1.153   6.719   2.991  1.0131  0.1305 -0.2127
 5519TIP3    H116521   1.085   6.778   3.023 -1.3039 -1.6586 -1.5305
 5519TIP3    H216522   1.195   6.686   3.071 -1.4362 -0.6655  0.8403
 5520TIP3   OH216523   1.875   4.635   3.550  0.2627  0.4674 -0.0552
 5520TIP3    H116524   1.936   4.652   3.479 -0.2102 -0.1998 -0.6345
 5520TIP3    H216525   1.860   4.721   3.590  0.5220  0.8529 -0.7743
 5521TIP3   OH216526   5.582   5.235   1.832  0.7461 -0.0911  0.0214
 5521TIP3    H116527   5.593   5.329   1.835 -0.8517  0.1289  0.1371
 5521TIP3    H216528   5.499   5.219   1.876  0.5664 -1.4635 -0.7343
 5522TIP3   OH216529   1.501   4.770   0.108 -0.2790  0.8131 -0.0004
 5522TIP3    H116530   1.506   4.839   0.042  0.6955  2.0176  1.2660
 5522TIP3    H216531   1.553   4.803   0.181  0.6353 -1.5060  0.4715
 5523TIP3   OH216532   3.785   5.032   4.224 -0.1946 -0.3844 -0.4846
 5523TIP3    H116533   3.694   5.014   4.202 -0.3233  0.0805 -0.3540
 5523TIP3    H216534   3.820   5.077   4.147  0.0970 -1.1006 -0.7745
 5524TIP3   OH216535   3.367   2.486   4.148 -0.2561 -0.3689 -0.0008
 5524TIP3    H116536   3.330   2.573   4.162 -1.0476 -0.5672 -0.7473
 5524TIP3    H216537   3.454   2.503   4.112 -0.9612  0.1555 -1.5637
 5525TIP3   OH216538   0.752   1.926   1.807  1.0302  0.2595 -0.7227
 5525TIP3    H116539   0.770   1.939   1.900  1.4112  0.1314 -0.7782
 5525TIP3    H216540   0.656   1.919   1.802  1.0519 -0.5311 -0.2309
 5526TIP3   OH216541   0.978   6.733   0.854 -0.3350 -0.1498  0.4026
 5526TIP3    H116542   0.926   6.777   0.921  0.7532  0.1792  1.0569
 5526TIP3    H216543   0.997   6.801   0.790 -1.9831 -0.6301 -0.6565
 5527TIP3   OH216544   5.747   2.706   3.830 -0.8142 -0.3612  0.5076
 5527TIP3    H116545   5.829   2.693   3.876 -0.5460 -0.7315 -0.0691
 5527TIP3    H216546   5.686   2.644   3.870 -1.0935  0.5778  1.5925
 5528TIP3   OH216547   3.785   0.864   1.476 -0.2316 -0.2132 -0.3664
 5528TIP3    H116548   3.738   0.910   1.406  0.6556  0.1039 -0.7622
 5528TIP3    H216549   3.783   0.925   1.550  0.4541  0.2399 -0.7136
 5529TIP3   OH216550   5.579   0.269   4.817  0.0339  0.3038 -0.0560
 5529TIP3    H116551   5.558   0.219   4.896 -0.7524 -0.6786 -0.8530
 5529TIP3    H216552   5.507   0.250   4.757  1.0265  0.3527 -1.3086
 5530TIP3   OH216553   3.102   4.313   2.847  0.7474 -0.1877  0.1259
 5530TIP3    H116554   3.065   4.230   2.876 -2.2155  0.8332 -0.3358
 5530TIP3    H216555   3.159   4.341   2.919 -1.4037 -0.7250  2.1689
 5531TIP3   OH216556   7.206   3.214   1.870 -0.4913 -0.5106  0.0334
 5531TIP3    H116557   7.196   3.176   1.957 -1.4693 -0.6860 -0.1467
 5531TIP3    H216558   7.122   3.199   1.827 -0.7752  1.4273 -0.2052
 5532TIP3   OH216559   4.660   3.210   2.053 -0.1889  0.1002 -0.0766
 5532TIP3    H116560   4.656   3.303   2.029  0.5943  0.5993  1.6132
 5532TIP3    H216561   4.592   3.199   2.119 -0.6242 -0.6663 -0.6336
 5533TIP3   OH216562   0.379   0.249   4.785 -0.1619 -0.2041 -0.3878
 5533TIP3    H116563   0.459   0.274   4.738  1.1397 -0.8842  1.3582
 5533TIP3    H216564   0.361   0.160   4.756  0.1369 -0.3140 -0.2365
 5534TIP3   OH216565   3.729   4.658   3.725 -0.1886  0.3201  0.2797
 5534TIP3    H116566   3.640   4.651   3.692 -0.6194  0.5224  1.3673
 5534TIP3    H216567   3.777   4.588   3.681 -1.4638 -1.4149  1.5383
 5535TIP3   OH216568   1.482   1.749   3.161  0.0632  0.9903  0.1542
 5535TIP3    H116569   1.507   1.830   3.116  0.4746  0.9819  0.3614
 5535TIP3    H216570   1.480   1.683   3.092 -3.9317  1.8406 -0.7722
 5536TIP3   OH216571   6.898   5.572   2.857  0.2650 -0.6957  0.0235
 5536TIP3    H116572   6.882   5.565   2.951 -0.7699  1.3561  0.0538
 5536TIP3    H216573   6.860   5.492   2.820 -2.1825 -0.0905  1.0626
 5537TIP3   OH216574   4.872   6.208   0.333  0.2680 -0.0734  0.3638
 5537TIP3    H116575   4.803   6.149   0.362  0.4875 -0.9543 -0.8468
 5537TIP3    H216576   4.917   6.233   0.414  1.0758 -2.7064  0.8166
 5538TIP3   OH216577   6.228   1.084   3.855 -0.1760  0.6526 -0.1804
 5538TIP3    H116578   6.150   1.046   3.814  1.3541 -1.6734 -1.1364
 5538TIP3    H216579   6.238   1.169   3.812 -0.4749 -0.3469 -2.3823
 5539TIP3   OH216580   3.019   2.458   4.336 -0.1626 -0.8433 -0.0215
 5539TIP3    H116581   2.938   2.424   4.375 -0.8355  1.7509  1.0698
 5539TIP3    H216582   3.088   2.425   4.392 -0.6141 -1.7770 -0.0031
 5540TIP3   OH216583   0.574   0.233   2.037 -0.0168  0.1525 -0.6436
 5540TIP3    H116584   0.540   0.322   2.050 -0.8163 -0.1670 -0.5099
 5540TIP3    H216585   0.561   0.190   2.121 -0.6729 -0.4221 -1.0230
 5541TIP3   OH216586   6.981   1.724   3.577 -0.4286  0.4808 -0.7895
 5541TIP3    H116587   7.043   1.769   3.519 -0.8667 -0.7161 -2.2423
 5541TIP3    H216588   6.895   1.760   3.551 -0.4255  2.0020  1.0907
 5542TIP3   OH216589   0.101   5.044   1.153  0.0285 -0.2345 -0.2238
 5542TIP3    H116590   0.069   4.983   1.219  1.0138  2.1156  2.6551
 5542TIP3    H216591   0.022   5.076   1.110 -0.5513 -2.7805 -1.2337
 5543TIP3   OH216592   5.901   1.664   1.745 -0.4682  0.0961 -0.2286
 5543TIP3    H116593   5.844   1.731   1.782 -1.4667 -0.7690 -0.1406
 5543TIP3    H216594   5.965   1.647   1.814  0.7048  1.9691 -0.8034
 5544TIP3   OH216595   1.840   2.970   1.785 -0.7322 -0.3777  0.2803
 5544TIP3    H116596   1.910   3.035   1.785  0.3882 -1.5491 -0.6700
 5544TIP3    H216597   1.760   3.022   1.774  0.1477  0.8271 -0.6616
 5545TIP3   OH216598   1.316   3.425   2.618  0.2209 -0.1166 -0.2790
 5545TIP3    H116599   1.251   3.466   2.676  0.1812 -1.5967  0.7749
 5545TIP3    H216600   1.400   3.460   2.647  0.0465  0.5140 -0.5242
 5546TIP3   OH216601   0.080   0.133   0.573 -0.1135  0.0006  0.3565
 5546TIP3    H116602   0.166   0.117   0.611 -0.4371  1.0433  1.6295
 5546TIP3    H216603   0.019   0.126   0.647 -0.6403  3.2980  0.4234
 5547TIP3   OH216604   2.432   2.245   4.330  0.0830  0.0306 -0.6316
 5547TIP3    H116605   2.441   2.231   4.424 -0.3286  1.3610 -0.3801
 5547TIP3    H216606   2.337   2.254   4.317  0.3003  3.1049 -0.6483
 5548TIP3   OH216607   6.366   5.334   3.121 -0.4775  0.2203  0.0349
 5548TIP3    H116608   6.362   5.284   3.203 -2.0385 -0.8697 -0.6568
 5548TIP3    H216609   6.313   5.412   3.138  3.0247  2.5499  1.5670
 5549TIP3   OH216610   0.218   2.639   4.344  0.8151 -0.5900 -0.7139
 5549TIP3    H116611   0.143   2.581   4.358  1.5326 -1.4453 -0.3636
 5549TIP3    H216612   0.179   2.720   4.311 -0.1112 -1.6305 -2.2869
 5550TIP3   OH216613   6.120   1.791   3.052  0.1655 -0.2463 -0.1424
 5550TIP3    H116614   6.135   1.838   2.969 -0.0255  1.2482  0.6261
 5550TIP3    H216615   6.025   1.793   3.064  0.2161 -0.2206  0.2454
 5551TIP3   OH216616   0.460   6.374   1.230  0.7506  0.0941 -0.0768
 5551TIP3    H116617   0.477   6.375   1.136 -0.4134  0.8285 -0.2907
 5551TIP3    H216618   0.497   6.291   1.260  0.1183 -0.6853 -1.3823
 5552TIP3   OH216619   1.329   3.986   0.033 -0.2041 -0.2131 -0.1742
 5552TIP3    H116620   1.399   4.020   0.089  1.0054  1.1150 -2.3336
 5552TIP3    H216621   1.284   3.921   0.087  1.2159  0.5692  2.0970
 5553TIP3   OH216622   0.155   3.101   3.794  0.3678  0.1743  0.1646
 5553TIP3    H116623   0.244   3.138   3.794  1.3546 -2.0547  0.4206
 5553TIP3    H216624   0.133   3.092   3.887 -1.5174  3.5924  0.2323
 5554TIP3   OH216625   5.393   1.653   5.528 -0.1518 -0.0054 -0.1413
 5554TIP3    H116626   5.397   1.620   5.617 -1.1965  0.4087  0.0748
 5554TIP3    H216627   5.381   1.575   5.473  2.1047 -0.4375 -0.1058
 5555TIP3   OH216628   0.791   5.204   4.498  0.0434  0.3308 -0.2651
 5555TIP3    H116629   0.702   5.217   4.462  0.2748  0.2040 -0.9046
 5555TIP3    H216630   0.785   5.124   4.550 -0.1232  0.0958 -0.6412
 5556TIP3   OH216631   6.000   1.919   0.654  0.0540 -0.4681 -0.4073
 5556TIP3    H116632   5.915   1.961   0.671 -0.3753 -0.8888 -1.4208
 5556TIP3    H216633   6.064   1.990   0.663 -0.4850  0.0192 -0.3611
 5557TIP3   OH216634   0.325   4.216   0.460  0.5916 -0.0375  0.7073
 5557TIP3    H116635   0.234   4.237   0.440  0.3401 -0.5477  1.2566
 5557TIP3    H216636   0.369   4.216   0.376 -0.4914 -2.4613  0.0340
 5558TIP3   OH216637   5.591   4.251   3.507 -0.0976  0.3103  0.1826
 5558TIP3    H116638   5.505   4.257   3.548 -0.2305 -0.4729  0.0292
 5558TIP3    H216639   5.596   4.329   3.451 -1.8563 -1.0010 -1.9508
 5559TIP3   OH216640   1.118   4.928   5.271  0.1366  0.6244  0.1595
 5559TIP3    H116641   1.172   4.894   5.342 -1.2005 -0.3809  0.7509
 5559TIP3    H216642   1.166   4.906   5.191  0.6353 -0.1659  0.6701
 5560TIP3   OH216643   3.592   2.879   4.326 -0.2673 -0.2272 -0.3925
 5560TIP3    H116644   3.558   2.959   4.365 -0.3942 -0.5137  0.0930
 5560TIP3    H216645   3.618   2.904   4.238  0.1255  0.4579 -0.0866
 5561TIP3   OH216646   6.400   6.795   2.472  0.0732  0.8655  0.0067
 5561TIP3    H116647   6.450   6.715   2.455  0.0518  0.7137  0.6057
 5561TIP3    H216648   6.315   6.779   2.431 -0.8287 -0.4836  2.1966
 5562TIP3   OH216649   3.304   1.721   1.102  0.6118  0.5228 -0.5634
 5562TIP3    H116650   3.313   1.670   1.183 -1.9289 -0.8920 -1.0918
 5562TIP3    H216651   3.365   1.680   1.041 -0.1603 -0.8568 -0.4527
 5563TIP3   OH216652   1.115   2.201   0.398 -0.1143  0.4237 -0.0715
 5563TIP3    H116653   1.129   2.213   0.492 -1.0393  1.3060 -0.0221
 5563TIP3    H216654   1.178   2.134   0.372 -0.4037 -0.4439  1.3428
 5564TIP3   OH216655   5.289   6.608   1.433 -0.0355 -0.2629 -0.3778
 5564TIP3    H116656   5.333   6.524   1.440 -0.3464 -0.3127  1.3038
 5564TIP3    H216657   5.303   6.635   1.342  0.5807 -1.8318 -0.7755
 5565TIP3   OH216658   5.800   3.545   4.303  0.1612  0.4819 -0.0771
 5565TIP3    H116659   5.864   3.608   4.336  0.6601  0.0111 -0.1205
 5565TIP3    H216660   5.744   3.595   4.244 -0.1209  1.1136  0.7076
 5566TIP3   OH216661   0.233   4.745   1.575  0.4414 -0.1264 -0.5138
 5566TIP3    H116662   0.228   4.678   1.643  1.7707 -0.1705 -0.4364
 5566TIP3    H216663   0.301   4.806   1.605 -2.0407  2.4322  0.3842
 5567TIP3   OH216664   4.747   4.760   3.691  0.6018 -0.2203 -0.3170
 5567TIP3    H116665   4.658   4.727   3.678  0.7471 -0.6295 -0.2981
 5567TIP3    H216666   4.759   4.826   3.623 -0.0266  0.4719  0.2295
 5568TIP3   OH216667   3.961   6.395   5.642 -0.3586  0.3386  0.1858
 5568TIP3    H116668   3.987   6.407   5.733 -0.6011 -0.6407  0.3849
 5568TIP3    H216669   3.994   6.308   5.618  0.4590  0.9161 -0.9246
 5569TIP3   OH216670   6.646   3.152   4.947 -0.5387  0.7946 -0.7998
 5569TIP3    H116671   6.635   3.064   4.983 -1.0566  1.3812  0.5341
 5569TIP3    H216672   6.732   3.149   4.904  0.0083 -0.0237  0.2865
 5570TIP3   OH216673   1.222   3.589   0.886 -0.2075  0.1916 -0.3473
 5570TIP3    H116674   1.243   3.653   0.819 -0.3246  0.7195  0.1105
 5570TIP3    H216675   1.299   3.587   0.943 -0.8213  1.1033  0.5404
 5571TIP3   OH216676   2.337   6.366   3.688 -0.3392 -0.2535 -0.5218
 5571TIP3    H116677   2.330   6.403   3.776  0.4664  0.6452 -0.8226
 5571TIP3    H216678   2.246   6.359   3.658 -0.5771  0.2399  0.0509
 5572TIP3   OH216679   6.338   4.885  -0.012  0.0702  0.3806  0.7423
 5572TIP3    H116680   6.260   4.910  -0.063  0.6466  1.1060  0.1770
 5572TIP3    H216681   6.309   4.887   0.079 -1.1413 -1.5068  0.4482
 5573TIP3   OH216682   0.513   6.062   2.443  0.3946  0.2271  0.6259
 5573TIP3    H116683   0.467   6.080   2.524  0.5352 -0.7073  0.9271
 5573TIP3    H216684   0.603   6.093   2.458  0.7954 -1.1912  1.3579
 5574TIP3   OH216685   2.839   1.183   2.443  0.3901 -0.5348 -0.0473
 5574TIP3    H116686   2.814   1.272   2.467  0.6684 -0.7216  0.9735
 5574TIP3    H216687   2.929   1.174   2.473 -0.2464 -1.7874  1.6642
 5575TIP3   OH216688   6.673   1.574   0.233  0.0426  0.4025 -0.4100
 5575TIP3    H116689   6.648   1.642   0.296  1.0690  0.4031  0.0225
 5575TIP3    H216690   6.655   1.491   0.279  1.9945  0.3957  0.4353
 5576TIP3   OH216691   4.228   3.735   0.434 -0.2684  0.1118 -0.2299
 5576TIP3    H116692   4.167   3.661   0.438 -1.1726  0.9034  1.4656
 5576TIP3    H216693   4.192   3.791   0.365 -3.7339  2.3603  3.0320
 5577TIP3   OH216694   5.684   4.043   2.306 -0.5061  0.5020  0.2259
 5577TIP3    H116695   5.776   4.056   2.327 -0.6452 -0.3002  1.4416
 5577TIP3    H216696   5.642   4.126   2.328 -0.2011  0.6015  0.4312
 5578TIP3   OH216697   2.550   2.003   5.437  0.4665  0.0676 -0.7455
 5578TIP3    H116698   2.576   1.948   5.362  0.4794  0.1663 -0.8129
 5578TIP3    H216699   2.610   1.976   5.507  0.9773  0.5257 -0.9955
 5579TIP3   OH216700   2.165   1.001   3.217  0.6947  0.3343  0.4393
 5579TIP3    H116701   2.091   0.952   3.182  2.6438 -1.3945 -1.6130
 5579TIP3    H216702   2.148   1.092   3.194  0.3537 -0.3502 -2.3438
 5580TIP3   OH216703   7.134   4.263   1.810  0.1685  0.5989 -0.9233
 5580TIP3    H116704   7.119   4.262   1.715 -0.9763  0.3691 -0.7545
 5580TIP3    H216705   7.051   4.291   1.847  0.2225 -0.5141  0.0803
 5581TIP3   OH216706   1.600   4.744   2.590  0.1237 -0.5209 -0.3537
 5581TIP3    H116707   1.566   4.785   2.510  0.8067 -0.1100 -0.4430
 5581TIP3    H216708   1.535   4.767   2.657  1.3189  2.3273  0.0077
 5582TIP3   OH216709   1.980   1.478   1.075 -0.1894  0.5458 -0.5471
 5582TIP3    H116710   1.912   1.423   1.114 -0.5183  1.7927  0.7067
 5582TIP3    H216711   1.933   1.540   1.019  0.0356  0.5777 -0.7063
 5583TIP3   OH216712   3.785   6.344   4.054 -0.2814  0.1099 -0.0388
 5583TIP3    H116713   3.856   6.326   4.116 -1.1505 -1.8368  0.4689
 5583TIP3    H216714   3.723   6.397   4.105  0.6976  1.7539 -0.4615
 5584TIP3   OH216715   1.881   5.623   3.094  0.3882  0.4983  0.1905
 5584TIP3    H116716   1.943   5.550   3.088  1.0889  1.0252  0.7646
 5584TIP3    H216717   1.864   5.648   3.003 -0.3542 -0.7654 -0.0447
 5585TIP3   OH216718   4.117   5.094   4.716 -0.2021  0.0146  0.1514
 5585TIP3    H116719   4.100   5.058   4.803  0.2188 -0.9535 -0.1573
 5585TIP3    H216720   4.067   5.176   4.713 -3.2563 -1.7289 -0.0255
 5586TIP3   OH216721   2.881   1.002   4.580 -0.2815 -0.2408  0.1665
 5586TIP3    H116722   2.876   0.981   4.674  0.0733 -0.7265  0.0781
 5586TIP3    H216723   2.791   0.989   4.549 -1.0452  2.4891  0.9482
 5587TIP3   OH216724   2.090   1.018   1.806 -0.6196  0.2375 -0.4552
 5587TIP3    H116725   2.164   1.014   1.867  0.0063  0.3839 -1.1818
 5587TIP3    H216726   2.130   1.010   1.719 -1.6479 -1.7755 -0.8099
 5588TIP3   OH216727   5.606   0.488   5.560 -0.0698 -0.0084  0.1773
 5588TIP3    H116728   5.611   0.514   5.652 -0.8889  0.0826  0.2045
 5588TIP3    H216729   5.522   0.443   5.552 -0.7900  1.4207 -0.8633
 5589TIP3   OH216730   4.094   2.197   5.622 -0.0488  0.0462 -0.4058
 5589TIP3    H116731   4.064   2.286   5.642 -2.2000 -0.4613 -1.1040
 5589TIP3    H216732   4.021   2.158   5.574  1.4524 -1.6173 -1.4484
 5590TIP3   OH216733   0.540   4.208   3.428 -0.0800 -0.4151  0.1256
 5590TIP3    H116734   0.525   4.116   3.409  1.3939 -0.5912 -0.3179
 5590TIP3    H216735   0.608   4.208   3.495  0.8519  0.3480 -0.7732
 5591TIP3   OH216736   6.726   6.220  -0.029  0.0297  0.5218 -0.5008
 5591TIP3    H116737   6.812   6.255  -0.007  0.8115 -1.2184 -0.5752
 5591TIP3    H216738   6.679   6.218   0.054 -0.3712  2.5166 -0.6482
 5592TIP3   OH216739   1.600   0.218   4.663  0.7246 -0.1583  0.4184
 5592TIP3    H116740   1.646   0.290   4.708 -0.8628 -0.5711  2.9031
 5592TIP3    H216741   1.667   0.152   4.648  1.4034  0.1095  2.0481
 5593TIP3   OH216742   1.554   0.970   2.319 -0.5647  0.3208  0.1856
 5593TIP3    H116743   1.556   0.914   2.396  2.1811 -0.5333 -0.3751
 5593TIP3    H216744   1.550   0.910   2.245 -0.4404  0.9793 -0.3690
 5594TIP3   OH216745   4.141   0.072   4.939  0.3723 -0.3645  0.5779
 5594TIP3    H116746   4.195   0.150   4.939  0.4839 -0.4418  0.9911
 5594TIP3    H216747   4.116   0.060   4.847  1.7878 -0.8310  0.2319
 5595TIP3   OH216748   3.278   3.667   0.432 -0.1372  0.3345  0.4382
 5595TIP3    H116749   3.236   3.670   0.519 -3.1722 -1.3294 -0.8027
 5595TIP3    H216750   3.283   3.759   0.406 -0.2695  0.7910  1.8937
 5596TIP3   OH216751   7.083   0.424   0.196  0.1595  0.2287 -0.3046
 5596TIP3    H116752   7.118   0.511   0.178  2.1955 -0.4908 -0.0588
 5596TIP3    H216753   7.128   0.366   0.135 -1.1990 -0.6757 -0.5001
 5597TIP3   OH216754   2.545   5.977   2.057  0.2669  0.2797  0.1169
 5597TIP3    H116755   2.621   5.945   2.010  0.1271 -2.3187  1.4752
 5597TIP3    H216756   2.581   6.017   2.137  0.2581 -2.9783  1.8922
 5598TIP3   OH216757   2.636   3.173   3.727  0.0264 -0.4240 -0.1399
 5598TIP3    H116758   2.645   3.147   3.819 -1.4575 -0.5495 -0.0165
 5598TIP3    H216759   2.542   3.172   3.710  0.3230 -2.0703 -2.1375
 5599TIP3   OH216760   0.211   4.429   5.093  0.5753  0.5243 -0.3754
 5599TIP3    H116761   0.214   4.425   5.189 -0.3351  1.0281 -0.3121
 5599TIP3    H216762   0.245   4.516   5.072  3.3000 -0.5204 -0.6921
 5600TIP3   OH216763   4.564   1.181   5.565 -0.0896  0.0353 -0.4590
 5600TIP3    H116764   4.492   1.120   5.549  0.6489 -0.4342 -2.1731
 5600TIP3    H216765   4.599   1.155   5.650 -1.7217  0.0832  0.2687
 5601TIP3   OH216766   4.311   0.371   4.627 -0.4119 -0.2523  0.0386
 5601TIP3    H116767   4.400   0.391   4.596 -1.0263  0.0694 -1.6552
 5601TIP3    H216768   4.324   0.330   4.712  1.2539  1.6109  0.7818
 5602TIP3   OH216769   4.623   0.415   4.886 -0.1955  0.2275  0.0928
 5602TIP3    H116770   4.599   0.443   4.974 -0.3121  1.0822 -0.1996
 5602TIP3    H216771   4.551   0.446   4.830  1.9181  3.8219 -0.9709
 5603TIP3   OH216772   0.661   5.006   4.620  0.1710 -0.2520  0.2689
 5603TIP3    H116773   0.697   4.956   4.694 -1.3613 -1.9791 -0.0680
 5603TIP3    H216774   0.639   4.939   4.555 -0.1337  1.0778 -1.0247
 5604TIP3   OH216775   6.555   5.353   5.684  0.0537 -0.4320 -0.1412
 5604TIP3    H116776   6.581   5.414   5.615  1.0880  0.2901  0.8466
 5604TIP3    H216777   6.526   5.274   5.637  2.6207 -0.7300 -1.4203
 5605TIP3   OH216778   1.514   5.412   5.307  0.0873  0.0794  0.5880
 5605TIP3    H116779   1.596   5.420   5.355  0.2604  0.3020  0.2606
 5605TIP3    H216780   1.483   5.503   5.298  1.3744  0.3449 -1.9876
 5606TIP3   OH216781   6.315   6.531   1.272 -0.2529 -0.6553 -0.1127
 5606TIP3    H116782   6.268   6.465   1.323  1.0330 -0.7598  1.0092
 5606TIP3    H216783   6.400   6.491   1.254 -0.2708 -0.1607 -1.3654
 5607TIP3   OH216784   0.719   1.547   0.153 -0.5382  0.2558  0.6206
 5607TIP3    H116785   0.774   1.598   0.094  0.7888 -0.3649  1.2992
 5607TIP3    H216786   0.655   1.610   0.186  0.1515  1.1369  0.3098
 5608TIP3   OH216787   2.138   3.555   1.832  0.0101 -0.5772 -0.4270
 5608TIP3    H116788   2.232   3.546   1.848 -0.2150 -1.0115  0.7254
 5608TIP3    H216789   2.118   3.488   1.767  0.6973  0.3027 -1.5829
 5609TIP3   OH216790   5.084   5.562   4.650 -0.1036 -0.5562 -0.0653
 5609TIP3    H116791   5.029   5.596   4.720 -1.7634 -0.0907 -1.5050
 5609TIP3    H216792   5.025   5.504   4.600  1.0382 -0.9301 -1.0289
 5610TIP3   OH216793   6.607   2.620   5.800  0.3004  0.2394 -0.4170
 5610TIP3    H116794   6.596   2.529   5.776 -1.1728  0.4808 -0.7209
 5610TIP3    H216795   6.522   2.661   5.784  0.9276  1.6755 -0.3234
 5611TIP3   OH216796   2.654   2.738   5.460 -0.1751 -0.1156  0.1446
 5611TIP3    H116797   2.735   2.718   5.506 -0.3676 -0.6205  0.2699
 5611TIP3    H216798   2.642   2.833   5.472 -0.1053 -0.2016  0.9359
 5612TIP3   OH216799   5.021   4.717   4.825 -0.4391 -0.4249  0.4459
 5612TIP3    H116800   5.046   4.708   4.917  0.3219  1.9015  0.5296
 5612TIP3    H216801   4.957   4.789   4.824 -0.6229 -0.5782 -0.8119
 5613TIP3   OH216802   0.633   0.392   3.557  0.3674  0.1518 -0.4120
 5613TIP3    H116803   0.693   0.386   3.632 -1.4525  1.7512  1.2835
 5613TIP3    H216804   0.602   0.302   3.544  1.0781 -0.2338  0.4625
 5614TIP3   OH216805   0.648   1.408   1.170 -0.2758  0.4988  0.3675
 5614TIP3    H116806   0.655   1.338   1.235 -0.4160  0.1131 -0.0323
 5614TIP3    H216807   0.731   1.456   1.178  0.3257 -0.4236 -0.1716
 5615TIP3   OH216808   4.925   4.505   0.328 -0.3878 -0.3709  0.0828
 5615TIP3    H116809   5.016   4.486   0.304  0.1861  2.6214 -0.4647
 5615TIP3    H216810   4.921   4.485   0.422  0.7056 -0.9316  0.0304
 5616TIP3   OH216811   7.173   4.899   2.131  0.2652 -0.5023  0.3761
 5616TIP3    H116812   7.159   4.872   2.222 -1.5791  0.6421  0.4924
 5616TIP3    H216813   7.089   4.881   2.088 -0.0741  2.1590 -0.2304
 5617TIP3   OH216814   6.517   6.259   0.170  0.4908  0.5718 -0.1957
 5617TIP3    H116815   6.438   6.284   0.218  0.6978  0.5838  0.1410
 5617TIP3    H216816   6.495   6.272   0.078 -0.8300 -1.9901 -0.3237
 5618TIP3   OH216817   1.806   1.636   3.352 -0.6705  0.0648 -0.4938
 5618TIP3    H116818   1.802   1.674   3.264 -0.2298  2.2678  0.3748
 5618TIP3    H216819   1.722   1.659   3.392 -1.1114 -1.4372 -0.4819
 5619TIP3   OH216820   1.933   1.873   4.420 -0.0489 -0.0461 -0.2033
 5619TIP3    H116821   1.919   1.802   4.482  2.8930 -0.9586 -0.4278
 5619TIP3    H216822   1.941   1.830   4.335  1.9343  0.4476 -0.3186
 5620TIP3   OH216823   4.713   5.770   4.329  0.5655  0.3767 -0.5248
 5620TIP3    H116824   4.654   5.842   4.350 -1.1443 -1.2210  0.5288
 5620TIP3    H216825   4.801   5.805   4.344 -0.2295  2.1295  0.2904
 5621TIP3   OH216826   4.482   2.029   2.857 -0.1114 -0.4345 -0.3796
 5621TIP3    H116827   4.527   2.013   2.774 -1.8080 -1.8805 -1.0841
 5621TIP3    H216828   4.389   2.023   2.836 -0.6123  0.0087  1.4777
 5622TIP3   OH216829   1.813   1.080   1.563 -0.6431 -0.1406  0.4854
 5622TIP3    H116830   1.818   0.985   1.572 -0.5326 -0.4878 -2.3428
 5622TIP3    H216831   1.879   1.101   1.496 -1.8373  1.6990 -0.1777
 5623TIP3   OH216832   2.351   3.652   2.975  0.4355 -0.0881 -0.9214
 5623TIP3    H116833   2.336   3.725   2.915  0.6442  0.4171 -0.3684
 5623TIP3    H216834   2.364   3.576   2.918 -0.6051  0.1357 -1.4947
 5624TIP3   OH216835   6.613   4.858   5.030  0.0930  0.2572 -0.0124
 5624TIP3    H116836   6.534   4.817   4.993  1.1003  0.1996 -2.2733
 5624TIP3    H216837   6.654   4.901   4.955  2.1375  0.4256  1.1400
 5625TIP3   OH216838   6.994   1.972   3.252  1.1150  0.2828 -0.5875
 5625TIP3    H116839   6.900   1.991   3.255  1.2123  0.5888  1.3659
 5625TIP3    H216840   6.998   1.878   3.230  0.3986  0.4528 -1.5113
 5626TIP3   OH216841   6.768   2.647   5.050 -0.0181 -0.9308  0.1332
 5626TIP3    H116842   6.688   2.603   5.020  0.8563 -1.4946 -1.5092
 5626TIP3    H216843   6.833   2.626   4.983  1.1564  0.6420  0.7305
 5627TIP3   OH216844   2.263   2.289   4.033  0.3111  0.0362  1.0171
 5627TIP3    H116845   2.217   2.244   3.962  0.3314 -1.6959  2.0549
 5627TIP3    H216846   2.206   2.363   4.054  0.5321  0.8788 -1.0789
 5628TIP3   OH216847   1.974   0.686   5.684 -0.5055 -0.2673  0.0544
 5628TIP3    H116848   2.056   0.693   5.635  0.0730  3.0106  1.2259
 5628TIP3    H216849   1.989   0.613   5.745  2.0606  0.9678  1.0295
 5629TIP3   OH216850   3.023   2.272   2.878 -0.0214  0.7821 -0.2207
 5629TIP3    H116851   2.998   2.261   2.970  1.0419  2.0704  0.2527
 5629TIP3    H216852   2.946   2.245   2.829  0.0270 -1.8668  0.9478
 5630TIP3   OH216853   1.687   0.492   1.192 -0.2357 -0.1917  0.0837
 5630TIP3    H116854   1.675   0.398   1.199  2.2337 -0.5927 -0.1510
 5630TIP3    H216855   1.722   0.505   1.104  0.6465  0.7738  0.5534
 5631TIP3   OH216856   1.677   2.867   2.164 -0.2802 -0.1325 -0.2594
 5631TIP3    H116857   1.762   2.876   2.206  0.2965  1.6166 -1.6911
 5631TIP3    H216858   1.627   2.811   2.224  0.7160  1.6174  2.4005
 5632TIP3   OH216859   1.075   2.470   0.288  0.3902  0.3991 -0.1516
 5632TIP3    H116860   1.073   2.469   0.192 -2.2517  0.8773 -0.1826
 5632TIP3    H216861   1.058   2.379   0.312 -2.3235  0.7856 -0.2603
 5633TIP3   OH216862   3.964   6.122   3.967  0.5135  0.0783  0.1123
 5633TIP3    H116863   3.961   6.163   4.053  0.8252  0.5317 -0.0911
 5633TIP3    H216864   3.876   6.084   3.956  0.4111  0.1828  0.5459
 5634TIP3   OH216865   2.959   0.580   3.136 -0.3807  0.1746 -0.1906
 5634TIP3    H116866   3.053   0.563   3.137 -0.0954  1.4101 -1.5767
 5634TIP3    H216867   2.919   0.496   3.117  0.4776 -0.2869  0.0224
 5635TIP3   OH216868   6.725   2.045   0.795 -0.2188 -0.1731 -0.2498
 5635TIP3    H116869   6.819   2.063   0.794 -0.1256 -0.6243 -0.1465
 5635TIP3    H216870   6.716   1.972   0.857 -1.1024  2.3919  2.9066
 5636TIP3   OH216871   2.244   0.843   4.941  0.2515  0.6534 -0.2222
 5636TIP3    H116872   2.327   0.829   4.897  0.9460  2.0472  0.5574
 5636TIP3    H216873   2.199   0.908   4.886  0.1298  0.6687 -0.1052
 5637TIP3   OH216874   1.601   4.564   2.089  0.2824  0.0783  0.7405
 5637TIP3    H116875   1.666   4.593   2.153  0.3866  3.2224 -0.5842
 5637TIP3    H216876   1.585   4.642   2.035 -1.9546 -1.6009 -1.2165
 5638TIP3   OH216877   0.963   6.132   4.032 -0.1715  0.0050 -0.2612
 5638TIP3    H116878   0.870   6.125   4.053 -0.2738  0.8580 -0.3635
 5638TIP3    H216879   0.970   6.215   3.985  0.5066 -0.4861 -1.0468
 5639TIP3   OH216880   0.332   5.240   3.753  0.2521 -0.1263  0.0296
 5639TIP3    H116881   0.331   5.272   3.843  1.0290 -1.2215  0.4366
 5639TIP3    H216882   0.411   5.187   3.746  0.4738  0.3491 -1.4517
 5640TIP3   OH216883   4.874   1.587   0.319 -0.1071 -0.3281 -0.0036
 5640TIP3    H116884   4.912   1.525   0.256  1.7206  0.8203 -0.1191
 5640TIP3    H216885   4.945   1.604   0.381 -0.5931  1.5466  0.0873
 5641TIP3   OH216886   5.467   1.744   0.695  0.3103  0.6391  0.2488
 5641TIP3    H116887   5.486   1.832   0.662 -2.3480  1.4168  0.4762
 5641TIP3    H216888   5.458   1.757   0.790 -1.8415  0.5734  0.1029
 5642TIP3   OH216889   5.247   0.429   4.843 -0.0845 -0.1959 -0.2783
 5642TIP3    H116890   5.302   0.375   4.786  1.8892 -3.0753  3.8730
 5642TIP3    H216891   5.160   0.388   4.838  0.2746 -0.9427 -0.5419
 5643TIP3   OH216892   4.384   0.164   1.152  0.0501  0.0418 -0.0548
 5643TIP3    H116893   4.418   0.220   1.083 -1.6100  0.3108 -0.7124
 5643TIP3    H216894   4.370   0.079   1.110  0.1820 -0.1514  0.2826
 5644TIP3   OH216895   0.670   2.128   3.633 -0.5975 -0.0052  0.7672
 5644TIP3    H116896   0.635   2.156   3.717 -1.3408  0.1923  0.4048
 5644TIP3    H216897   0.601   2.149   3.570  0.0632  0.1288  0.0651
 5645TIP3   OH216898   2.045   5.730   2.134  0.0057 -0.0901  0.1414
 5645TIP3    H116899   2.106   5.798   2.103  1.3034 -1.6524 -0.8966
 5645TIP3    H216900   2.002   5.769   2.210  1.4571  1.5182  0.1999
 5646TIP3   OH216901   2.349   1.560   0.885  0.0265 -0.5229 -0.1538
 5646TIP3    H116902   2.354   1.607   0.969 -0.7391 -0.0610 -0.3564
 5646TIP3    H216903   2.338   1.628   0.820  0.7854 -0.8739 -0.6657
 5647TIP3   OH216904   2.502   5.184   1.189  0.4492  0.4689 -0.5352
 5647TIP3    H116905   2.555   5.159   1.114  0.8107  0.1065 -0.1652
 5647TIP3    H216906   2.412   5.169   1.161  0.5712  0.5335 -0.9658
 5648TIP3   OH216907   1.432   0.492   4.915  0.2713  0.5765 -0.0133
 5648TIP3    H116908   1.519   0.493   4.875  0.0586  1.8708 -0.4674
 5648TIP3    H216909   1.424   0.575   4.961 -0.1944 -0.1234  1.2446
 5649TIP3   OH216910   0.016   2.627   2.530 -0.0514 -0.1984 -0.6853
 5649TIP3    H116911  -0.015   2.537   2.524 -0.6212  0.0433 -1.6154
 5649TIP3    H216912   0.096   2.629   2.477  0.9481 -0.5439  0.7497
 5650TIP3   OH216913   6.495   3.347   3.229 -0.2116  0.4368  0.3276
 5650TIP3    H116914   6.429   3.318   3.166  0.5959  0.0126 -0.3395
 5650TIP3    H216915   6.519   3.268   3.276  0.3107  0.4562  0.0992
 5651TIP3   OH216916   6.661   3.129   0.137 -0.3109  0.0671 -0.2546
 5651TIP3    H116917   6.733   3.184   0.167 -0.7698  0.2617  0.5056
 5651TIP3    H216918   6.675   3.120   0.043  1.0666 -0.4319 -0.0166
 5652TIP3   OH216919   5.796   4.429   4.109  0.2725  0.5924 -0.0251
 5652TIP3    H116920   5.720   4.444   4.053  0.3833 -1.1584 -0.7091
 5652TIP3    H216921   5.869   4.418   4.049  0.6233 -0.0706  0.5003
 5653TIP3   OH216922   1.867   4.819   2.556  0.3361 -0.1052 -0.7233
 5653TIP3    H116923   1.897   4.863   2.477  1.0835  0.7277  0.0079
 5653TIP3    H216924   1.771   4.824   2.552  0.4004  1.5351 -0.7004
 5654TIP3   OH216925   3.893   5.627   0.998  0.0896  0.0186  0.3874
 5654TIP3    H116926   3.831   5.617   0.926  0.4989  1.3966 -0.1890
 5654TIP3    H216927   3.903   5.539   1.034 -0.8815 -0.5146 -0.5993
 5655TIP3   OH216928   1.870   2.769   0.959 -0.2128  0.0066  0.4343
 5655TIP3    H116929   1.957   2.732   0.976 -1.1524 -2.5987 -0.1028
 5655TIP3    H216930   1.888   2.855   0.920  2.0643  0.5720  2.4617
 5656TIP3   OH216931   7.215   4.671   4.954 -0.1917 -0.0408 -0.2013
 5656TIP3    H116932   7.143   4.609   4.967  0.9327 -1.7456 -1.6802
 5656TIP3    H216933   7.256   4.679   5.040 -1.4377  0.0760  0.4007
 5657TIP3   OH216934   4.887   2.345   2.186  0.1056 -0.0205 -0.4403
 5657TIP3    H116935   4.888   2.251   2.172  1.6084 -0.0711 -0.2589
 5657TIP3    H216936   4.932   2.381   2.109 -1.4047  0.6602 -1.0376
 5658TIP3   OH216937   5.930   3.668   5.658 -0.3352 -0.3397 -0.2828
 5658TIP3    H116938   5.950   3.606   5.728 -1.3330 -0.0086  0.3181
 5658TIP3    H216939   5.962   3.626   5.578  1.7457 -0.2993  0.4661
 5659TIP3   OH216940   3.438   0.448   2.678 -0.4139  0.1628 -0.1860
 5659TIP3    H116941   3.478   0.507   2.741  0.7533 -0.4344 -0.3336
 5659TIP3    H216942   3.431   0.364   2.724 -3.6050  0.7428  0.6015
 5660TIP3   OH216943   4.625   6.190   2.620 -0.1208  0.1043 -0.1087
 5660TIP3    H116944   4.709   6.186   2.666  1.4510  0.6890 -2.7167
 5660TIP3    H216945   4.620   6.106   2.574 -0.2738  0.6083 -1.0314
 5661TIP3   OH216946   3.151   5.103   2.352 -0.4563  0.1792 -0.0567
 5661TIP3    H116947   3.209   5.082   2.278 -2.3137 -0.9514 -1.2901
 5661TIP3    H216948   3.125   5.194   2.337 -2.0883 -0.4979 -1.8262
 5662TIP3   OH216949   6.669   5.586   1.173 -0.1759 -0.3159 -0.0413
 5662TIP3    H116950   6.671   5.658   1.110 -2.0491 -0.0398  0.1574
 5662TIP3    H216951   6.637   5.511   1.122  2.5416 -1.3037 -0.4586
 5663TIP3   OH216952   0.441   1.021   3.846  0.3602 -0.1824 -0.4192
 5663TIP3    H116953   0.504   0.969   3.797  1.0966  1.0203 -0.8024
 5663TIP3    H216954   0.449   1.109   3.809 -2.8828 -0.3286 -1.7448
 5664TIP3   OH216955   0.420   3.715   5.267  0.3141 -0.2648 -0.3802
 5664TIP3    H116956   0.457   3.797   5.234 -0.4488  0.3107  0.1630
 5664TIP3    H216957   0.480   3.647   5.234  3.4828  0.7705  2.5874
 5665TIP3   OH216958   1.876   4.837   1.151  0.1665 -0.6640 -0.1006
 5665TIP3    H116959   1.834   4.872   1.229  0.8304  0.8791 -0.4019
 5665TIP3    H216960   1.951   4.788   1.184 -1.2835 -2.6847  0.3805
 5666TIP3   OH216961   2.601   6.743   2.125  0.0813 -0.1910  0.0763
 5666TIP3    H116962   2.535   6.760   2.192 -1.0627 -1.4299 -0.6763
 5666TIP3    H216963   2.656   6.674   2.162  0.3240  0.1105  0.2852
 5667TIP3   OH216964   2.786   0.560   5.342  0.1721  0.9225 -0.1382
 5667TIP3    H116965   2.781   0.611   5.423  1.7232  0.5679  0.2190
 5667TIP3    H216966   2.797   0.625   5.273 -1.0924  1.2250 -0.0822
 5668TIP3   OH216967   1.934   2.103   3.888 -0.1210  0.4903 -0.4292
 5668TIP3    H116968   2.018   2.128   3.849  0.8005 -2.0727 -0.2998
 5668TIP3    H216969   1.882   2.183   3.886  1.9068  1.8823 -1.5921
 5669TIP3   OH216970   6.287   3.998   5.320  0.3256 -0.3168 -0.0086
 5669TIP3    H116971   6.238   4.067   5.364  0.5168 -0.1307 -0.0871
 5669TIP3    H216972   6.367   3.988   5.372 -0.3120 -1.4461  0.8240
 5670TIP3   OH216973   6.140   1.820   2.087 -0.3435 -0.1948  0.4634
 5670TIP3    H116974   6.235   1.811   2.082 -0.3834  0.0469 -2.4827
 5670TIP3    H216975   6.106   1.747   2.036 -1.5658  1.6713 -1.5378
 5671TIP3   OH216976   4.956   1.250   2.162  0.4957 -0.2327  0.0029
 5671TIP3    H116977   5.017   1.240   2.089  0.5140 -0.0693 -0.0048
 5671TIP3    H216978   4.935   1.161   2.188 -0.7290 -0.3268 -1.2173
 5672TIP3   OH216979   5.785   2.919   0.786 -0.0319  0.4700 -0.7173
 5672TIP3    H116980   5.788   3.011   0.814 -0.7473  0.0283  0.8840
 5672TIP3    H216981   5.875   2.888   0.797 -0.0780  0.6055  0.0920
 5673TIP3   OH216982   1.558   1.360   1.390  0.3690 -0.1773  0.0316
 5673TIP3    H116983   1.577   1.325   1.477 -0.7065  0.7494  0.6676
 5673TIP3    H216984   1.488   1.304   1.356 -0.9533  0.9460  0.8149
 5674TIP3   OH216985   3.975   6.244   0.870 -0.1585  0.2432 -0.4076
 5674TIP3    H116986   4.030   6.308   0.916 -0.0595  2.0141 -2.8557
 5674TIP3    H216987   4.038   6.189   0.823 -0.2285 -1.9185  1.7791
 5675TIP3   OH216988   5.202   0.321   0.464 -0.2945 -0.8684  0.1506
 5675TIP3    H116989   5.279   0.299   0.411 -0.4815 -0.9095 -0.1061
 5675TIP3    H216990   5.207   0.416   0.474 -0.1863 -0.8758  0.1708
 5676TIP3   OH216991   2.920   1.536   3.870  0.0076 -1.0421  0.5775
 5676TIP3    H116992   2.925   1.610   3.930 -0.6737 -2.1660  2.0720
 5676TIP3    H216993   2.826   1.526   3.852  0.1033 -1.4825  0.2937
 5677TIP3   OH216994   2.901   5.172   0.912  0.0566 -0.2285 -0.1474
 5677TIP3    H116995   2.885   5.235   0.982 -2.5023 -0.7123 -0.1834
 5677TIP3    H216996   2.956   5.219   0.849  0.6297  0.9264  1.1601
 5678TIP3   OH216997   1.759   6.271   3.430 -0.1275  0.4340  0.7016
 5678TIP3    H116998   1.830   6.207   3.426  0.6184  0.9676  3.1708
 5678TIP3    H216999   1.707   6.256   3.352  1.3635 -1.5858  0.0337
 5679TIP3   OH217000   3.632   6.306   1.383  0.1326  0.3874 -0.1212
 5679TIP3    H117001   3.614   6.381   1.327 -1.6029 -0.4966 -0.8230
 5679TIP3    H217002   3.636   6.231   1.323 -0.4327 -0.3864  0.7723
 5680TIP3   OH217003   4.203   2.065   3.010  0.4090  0.1855 -0.2584
 5680TIP3    H117004   4.292   2.052   3.041  0.1135 -0.7134  0.2659
 5680TIP3    H217005   4.150   2.004   3.062 -0.8249  2.1832  0.9554
 5681TIP3   OH217006   1.030   5.667   1.865  0.1257 -1.2153  0.0346
 5681TIP3    H117007   1.098   5.733   1.876  0.2588 -1.3019 -0.2568
 5681TIP3    H217008   1.056   5.618   1.787 -1.1023 -0.2122 -1.0407
 5682TIP3   OH217009   4.700   0.487   0.300 -0.0953 -0.0786  0.4492
 5682TIP3    H117010   4.646   0.495   0.221  1.9979  1.2067 -0.9580
 5682TIP3    H217011   4.738   0.400   0.294 -0.4269 -0.2202  0.3756
 5683TIP3   OH217012   0.268   0.285   5.894 -0.1342 -0.3259  0.9691
 5683TIP3    H117013   0.253   0.238   5.813 -1.9993  1.1377  0.3717
 5683TIP3    H217014   0.199   0.255   5.953 -0.2210  0.2879  1.1971
 5684TIP3   OH217015   3.932   3.324   4.011  0.5030 -0.3258  0.5358
 5684TIP3    H117016   4.005   3.304   4.070  1.4986 -0.6277 -0.7580
 5684TIP3    H217017   3.962   3.294   3.925 -1.4675 -1.1862  0.0994
 5685TIP3   OH217018   4.357   1.968   2.383 -0.0006 -0.3300  0.2668
 5685TIP3    H117019   4.396   1.925   2.307 -0.9015  0.6895 -0.7929
 5685TIP3    H217020   4.371   2.061   2.369 -0.4806 -0.1003  1.1872
 5686TIP3   OH217021   7.110   6.472   5.196 -0.5908 -0.0402  0.1481
 5686TIP3    H117022   7.150   6.521   5.124  1.0645  1.1184  1.7669
 5686TIP3    H217023   7.138   6.382   5.182  1.0131  0.4214  0.1199
 5687TIP3   OH217024   0.018   5.841   4.587 -0.0969 -0.1327 -0.2243
 5687TIP3    H117025   0.085   5.776   4.604 -0.4175 -0.8746 -1.6148
 5687TIP3    H217026   0.062   5.925   4.597  0.3612 -0.5432  1.4531
 5688TIP3   OH217027   0.960   2.607   0.960  0.5106 -0.6973  0.1441
 5688TIP3    H117028   0.909   2.537   1.002  0.5940 -0.5260  0.5384
 5688TIP3    H217029   1.020   2.562   0.901 -1.2709 -0.8438 -1.6743
 5689TIP3   OH217030   1.748   6.384   1.791  0.0127 -0.3626  0.8163
 5689TIP3    H117031   1.696   6.437   1.731  0.3299 -1.1454 -0.1882
 5689TIP3    H217032   1.704   6.299   1.791  2.1625 -1.6202 -1.4394
 5690TIP3   OH217033   4.176   3.300   4.109 -0.4668 -0.1286 -0.1618
 5690TIP3    H117034   4.226   3.252   4.175 -0.4493  1.5775  1.1359
 5690TIP3    H217035   4.240   3.326   4.043 -0.4961 -1.9054 -0.9458
 5691TIP3   OH217036   4.058   0.996   1.459 -0.2875  0.1410 -0.3229
 5691TIP3    H117037   4.130   0.935   1.474 -0.6578 -0.1804  0.1653
 5691TIP3    H217038   3.979   0.947   1.480 -0.5449  1.0768  1.0675
 5692TIP3   OH217039   3.789   0.865   0.132  0.0264  0.5447  0.1440
 5692TIP3    H117040   3.707   0.867   0.182  0.2574 -0.5337  0.6131
 5692TIP3    H217041   3.778   0.790   0.073  0.3995  0.8347 -0.2967
 5693TIP3   OH217042   0.156   1.658   3.122 -0.8053  0.3084 -0.0694
 5693TIP3    H117043   0.182   1.631   3.034 -1.3262 -0.8024  0.0964
 5693TIP3    H217044   0.238   1.662   3.171 -0.2692  2.7121 -1.0088
 5694TIP3   OH217045   2.360   1.723   0.187  0.2471 -0.5157 -0.0101
 5694TIP3    H117046   2.392   1.806   0.152  0.9741 -0.1900  1.3702
 5694TIP3    H217047   2.277   1.745   0.230  1.2091 -0.1500  1.7516
 5695TIP3   OH217048   5.912   6.785   3.640 -0.7669 -0.6819  0.1684
 5695TIP3    H117049   5.924   6.693   3.617 -0.5715 -0.5298 -0.3353
 5695TIP3    H217050   5.908   6.831   3.557 -2.6692 -0.4422  0.3464
 5696TIP3   OH217051   4.535   0.987   3.231 -0.0022  0.2101 -0.6112
 5696TIP3    H117052   4.576   0.971   3.145  1.7649 -0.7111  0.3368
 5696TIP3    H217053   4.454   0.937   3.228  0.9620 -1.4157 -1.1135
 5697TIP3   OH217054   4.073   0.332   4.507  0.1706  0.2934 -0.1782
 5697TIP3    H117055   4.035   0.419   4.513 -0.9193 -0.2325  1.4218
 5697TIP3    H217056   4.137   0.328   4.577 -0.7207 -0.5729  0.6382
 5698TIP3   OH217057   0.991   1.525   0.266 -0.6782  0.1704  0.1501
 5698TIP3    H117058   0.915   1.499   0.215 -0.1212  0.8780 -1.0734
 5698TIP3    H217059   1.042   1.582   0.208  0.2359  0.6013  1.3123
 5699TIP3   OH217060   1.334   4.888   1.527 -0.2032 -0.9357 -0.4072
 5699TIP3    H117061   1.303   4.882   1.617 -0.3876 -1.0489 -0.4775
 5699TIP3    H217062   1.255   4.905   1.475 -0.1408 -1.1758 -0.5828
 5700TIP3   OH217063   0.976   5.110   2.392  0.2979  0.0510  0.4236
 5700TIP3    H117064   0.974   5.166   2.314 -0.3094  0.3307  0.6364
 5700TIP3    H217065   0.885   5.107   2.423  0.6768  0.7210  1.6687
 5701TIP3   OH217066   5.667   5.134   3.782 -0.3379 -0.2948 -0.3453
 5701TIP3    H117067   5.680   5.222   3.818 -2.6229  0.1325 -0.4419
 5701TIP3    H217068   5.749   5.114   3.738  0.8663  1.0642  1.1478
 5702TIP3   OH217069   2.060   3.863   2.077  0.4463 -0.4689 -0.3664
 5702TIP3    H117070   2.093   3.820   1.998 -0.1111 -4.5240  1.3716
 5702TIP3    H217071   2.133   3.857   2.139 -0.3775 -0.8659  0.5798
 5703TIP3   OH217072   1.132   6.100   5.902 -0.0823  0.0366 -0.6513
 5703TIP3    H117073   1.131   6.052   5.819  0.5387 -0.6110 -0.3035
 5703TIP3    H217074   1.213   6.070   5.945 -1.1833 -0.8512  0.8804
 5704TIP3   OH217075   1.338   1.166   5.873  0.1199  0.5659 -0.5964
 5704TIP3    H117076   1.387   1.105   5.928 -1.7499  2.0948  3.0632
 5704TIP3    H217077   1.257   1.121   5.852 -0.4698  1.0485  0.5576
 5705TIP3   OH217078   6.667   1.845   5.188 -0.2051 -0.6104  0.7938
 5705TIP3    H117079   6.620   1.917   5.146 -0.0158 -1.2583 -0.5924
 5705TIP3    H217080   6.754   1.879   5.205  0.1895 -0.7831 -0.7524
 5706TIP3   OH217081   0.805   2.299   4.214  0.2301 -0.0518  0.0784
 5706TIP3    H117082   0.872   2.254   4.162  0.0678 -1.4647  1.0392
 5706TIP3    H217083   0.723   2.278   4.171  0.3737  2.4585 -1.6669
 5707TIP3   OH217084   4.836   2.759   1.863 -0.1392  0.0947  0.1947
 5707TIP3    H117085   4.753   2.741   1.908  0.0969 -0.1017  0.5586
 5707TIP3    H217086   4.810   2.792   1.777 -0.6050  0.5568  0.5054
 5708TIP3   OH217087   0.388   2.898   2.365  0.2546 -0.5051  0.4198
 5708TIP3    H117088   0.403   2.857   2.450  0.1826 -0.1962  0.5842
 5708TIP3    H217089   0.473   2.892   2.321 -0.1755 -2.3300 -0.2341
 5709TIP3   OH217090   4.076   4.919   3.688 -0.2219  0.2378  0.2288
 5709TIP3    H117091   4.120   5.002   3.672  0.2303  0.1566  1.0179
 5709TIP3    H217092   4.118   4.883   3.766 -0.0706 -0.9663 -0.3703
 5710TIP3   OH217093   6.161   6.348   1.438  0.9233  0.0329 -0.4465
 5710TIP3    H117094   6.224   6.343   1.510 -0.3041 -0.9458  0.6030
 5710TIP3    H217095   6.193   6.284   1.374  2.1022  1.0121 -0.8941
 5711TIP3   OH217096   3.505   5.406   3.312 -0.0984 -0.0866  0.3035
 5711TIP3    H117097   3.455   5.446   3.383  0.0958  0.3731  0.1882
 5711TIP3    H217098   3.560   5.341   3.355 -1.2720 -1.0856  0.3548
 5712TIP3   OH217099   6.145   1.586   1.922  0.2479 -0.1031 -0.2015
 5712TIP3    H117100   6.230   1.613   1.889  0.6469 -1.9366 -0.7425
 5712TIP3    H217101   6.147   1.490   1.922 -1.2714 -0.1935  1.1856
 5713TIP3   OH217102   2.112   5.630   1.442  0.0384  0.1233 -0.1059
 5713TIP3    H117103   2.195   5.593   1.471  0.4712  1.2829  0.1701
 5713TIP3    H217104   2.116   5.722   1.468 -0.1555  0.9068 -2.6244
 5714TIP3   OH217105   3.001   4.548   3.432 -0.2353  0.0418  0.4982
 5714TIP3    H117106   2.915   4.558   3.391 -0.5369 -2.5059  0.3820
 5714TIP3    H217107   2.982   4.528   3.523  0.1120 -2.1853  0.1308
 5715TIP3   OH217108   5.356   3.104   1.751 -0.5677 -0.2852  0.3653
 5715TIP3    H117109   5.392   3.188   1.780  0.7038 -1.1444  1.3979
 5715TIP3    H217110   5.276   3.092   1.802 -0.5033  0.0830  0.5490
 5716TIP3   OH217111   2.820   0.302   0.272  0.0897  0.4193 -1.5815
 5716TIP3    H117112   2.836   0.307   0.178 -0.8061 -0.3861 -1.7949
 5716TIP3    H217113   2.766   0.379   0.291  0.2385  0.5626 -1.7319
 5717TIP3   OH217114   3.196   3.413   4.347 -0.0136 -0.4309 -0.2295
 5717TIP3    H117115   3.272   3.378   4.393  1.9631  0.7927 -2.3245
 5717TIP3    H217116   3.130   3.344   4.353  0.8328 -1.1032  2.5946
 5718TIP3   OH217117   4.547   1.196   0.828 -0.0834 -0.3027  0.5435
 5718TIP3    H117118   4.595   1.114   0.840  0.2163 -0.3466 -0.7864
 5718TIP3    H217119   4.510   1.189   0.740 -1.4628  0.2841  1.0555
 5719TIP3   OH217120   6.537   2.898   3.830  0.1862 -0.2634 -0.5477
 5719TIP3    H117121   6.535   2.982   3.783  0.2368  0.5733  0.8967
 5719TIP3    H217122   6.628   2.888   3.857 -0.1009 -0.0661  0.5236
 5720TIP3   OH217123   0.091   6.615   4.985  0.2863 -0.1941 -0.0514
 5720TIP3    H117124   0.159   6.662   5.034 -1.7059  2.2529  0.6123
 5720TIP3    H217125   0.049   6.683   4.933 -1.8331 -1.5501 -0.2157
 5721TIP3   OH217126   3.740   4.408   5.271 -0.6236  0.3057 -0.1778
 5721TIP3    H117127   3.743   4.382   5.179  0.4511  0.2474 -0.1295
 5721TIP3    H217128   3.655   4.375   5.302 -0.4625 -0.7583 -0.8187
 5722TIP3   OH217129   3.890   3.744   4.602  0.1627  0.0031 -0.3338
 5722TIP3    H117130   3.827   3.788   4.545 -0.2293  1.0724  0.8756
 5722TIP3    H217131   3.968   3.800   4.601 -0.4459  0.9790  1.4545
 5723TIP3   OH217132   2.768   6.057   3.752 -0.6107 -0.1618 -0.1128
 5723TIP3    H117133   2.726   6.140   3.731 -0.4987 -0.1365 -0.2335
 5723TIP3    H217134   2.827   6.040   3.679  0.0015  0.0758  0.3150
 5724TIP3   OH217135   1.662   5.741   5.790 -0.6942  0.1052 -0.0422
 5724TIP3    H117136   1.625   5.653   5.782 -1.3258  0.4710 -1.3157
 5724TIP3    H217137   1.624   5.775   5.871 -0.6757 -0.6805  0.3054
 5725TIP3   OH217138   1.514   5.716   2.280 -0.1691 -0.2851  0.3128
 5725TIP3    H117139   1.478   5.695   2.366 -2.1930  2.3609  0.2295
 5725TIP3    H217140   1.567   5.795   2.295 -0.6513  0.2863 -0.8733
 5726TIP3   OH217141   0.262   0.471   1.505 -0.2817 -0.2024  0.4016
 5726TIP3    H117142   0.219   0.462   1.420 -0.6272 -0.4657  0.6021
 5726TIP3    H217143   0.287   0.564   1.510 -0.3849 -0.1563  0.0760
 5727TIP3   OH217144   4.285   3.004   5.314  0.0131  0.3609  0.3476
 5727TIP3    H117145   4.218   2.939   5.333 -0.4156  1.0728  1.3142
 5727TIP3    H217146   4.316   2.980   5.226 -0.0603 -1.1968  0.7074
 5728TIP3   OH217147   4.133   4.510   1.630  0.9638 -0.5799 -0.0634
 5728TIP3    H117148   4.047   4.472   1.610  0.0731  0.8523  0.8824
 5728TIP3    H217149   4.158   4.553   1.549 -0.4716  1.2340  0.3906
 5729TIP3   OH217150   5.820   5.328   2.273 -0.3151 -0.0404  0.9934
 5729TIP3    H117151   5.766   5.252   2.294  0.2136 -0.0574  2.4319
 5729TIP3    H217152   5.910   5.298   2.285 -0.1198  1.0114  2.5046
 5730TIP3   OH217153   5.899   2.580   4.594  0.2458 -0.0893 -0.6628
 5730TIP3    H117154   5.951   2.621   4.663 -1.5523 -1.0198  1.3695
 5730TIP3    H217155   5.829   2.642   4.576 -0.5631 -0.7906 -0.0075
 5731TIP3   OH217156   0.176   4.511   4.771 -0.2010 -0.3964 -0.3702
 5731TIP3    H117157   0.173   4.568   4.694 -3.6725 -1.3808 -1.1421
 5731TIP3    H217158   0.099   4.536   4.823  0.3745 -1.7834  1.2518
 5732TIP3   OH217159   0.209   3.377   1.101 -0.2295 -0.1491  0.6599
 5732TIP3    H117160   0.133   3.405   1.050  1.1817 -0.1830 -1.5824
 5732TIP3    H217161   0.273   3.349   1.035  2.3717  1.4566  2.3573
 5733TIP3   OH217162   3.486   6.484   3.845  0.1220  0.1780 -0.0296
 5733TIP3    H117163   3.398   6.491   3.808  1.1206  1.7270 -2.4148
 5733TIP3    H217164   3.522   6.572   3.837  2.3932 -0.7327 -0.5448
 5734TIP3   OH217165   7.017   0.695   5.277 -0.4439  0.9988  0.2132
 5734TIP3    H117166   6.976   0.611   5.257 -0.6714  1.1269  0.1425
 5734TIP3    H217167   6.945   0.758   5.279 -0.6347  0.8053  2.5884
 5735TIP3   OH217168   0.496   5.673   3.938 -0.0548  0.0558  0.0033
 5735TIP3    H117169   0.478   5.686   4.032 -0.7305 -0.2330 -0.0832
 5735TIP3    H217170   0.460   5.587   3.918 -2.9906  1.4561 -1.2690
 5736TIP3   OH217171   3.247   4.965   4.489  0.8881 -0.1497 -0.4052
 5736TIP3    H117172   3.237   4.964   4.394 -1.5490  3.4795 -0.3955
 5736TIP3    H217173   3.308   5.037   4.506 -0.0081  0.3600  0.7832
 5737TIP3   OH217174   2.081   6.210   4.850 -0.1949  0.1783 -0.1030
 5737TIP3    H117175   2.050   6.120   4.843 -0.5938  0.1063  1.8364
 5737TIP3    H217176   2.013   6.263   4.809  1.1058 -0.4630 -3.4086
 5738TIP3   OH217177   0.758   1.122   2.392  0.3066 -0.3884  0.6276
 5738TIP3    H117178   0.712   1.078   2.321 -0.3494  1.4136 -0.1115
 5738TIP3    H217179   0.849   1.093   2.384  0.1226 -0.6726 -0.5547
 5739TIP3   OH217180   6.482   5.246   4.617  0.3989 -0.8481 -0.8190
 5739TIP3    H117181   6.443   5.241   4.705 -2.0988 -0.4866 -1.8212
 5739TIP3    H217182   6.576   5.251   4.633  0.1303 -2.2909  1.7722
 5740TIP3   OH217183   5.459   2.205   1.197 -0.4766 -0.1839  0.5384
 5740TIP3    H117184   5.494   2.294   1.194 -2.8648  0.8410 -0.4086
 5740TIP3    H217185   5.364   2.217   1.190 -0.7929 -2.8716 -2.1943
 5741TIP3   OH217186   0.787   6.202   3.063  0.2722  0.2709 -0.3060
 5741TIP3    H117187   0.775   6.134   2.996 -1.1064 -0.1760  0.3639
 5741TIP3    H217188   0.874   6.184   3.099  0.0800 -0.9261 -0.3860
 5742TIP3   OH217189   6.288   1.116   4.420 -0.8048 -0.5753 -0.4033
 5742TIP3    H117190   6.329   1.080   4.342 -1.8964  1.4272 -2.0029
 5742TIP3    H217191   6.194   1.112   4.403 -1.0958 -0.6606  1.0782
 5743TIP3   OH217192   6.716   1.692   4.070  0.1826  0.3845 -0.2889
 5743TIP3    H117193   6.626   1.723   4.082 -0.3401 -0.9412 -0.6888
 5743TIP3    H217194   6.750   1.685   4.159  0.5043  2.5280 -0.1784
 5744TIP3   OH217195   4.982   1.485   1.073  0.4399 -0.6320 -0.2404
 5744TIP3    H117196   5.031   1.458   1.151  0.0638 -0.4517  0.0603
 5744TIP3    H217197   4.922   1.413   1.056 -2.0650  0.7883  1.8075
 5745TIP3   OH217198   2.808   2.846   1.893 -0.4637  0.4824 -0.4004
 5745TIP3    H117199   2.893   2.863   1.853 -0.8188  2.3481 -0.4332
 5745TIP3    H217200   2.815   2.884   1.981 -1.2811  0.7212 -0.4316
 5746TIP3   OH217201   2.173   1.362   4.057 -0.1912  0.0219  0.1849
 5746TIP3    H117202   2.235   1.399   4.120  1.4372 -1.0307 -0.6987
 5746TIP3    H217203   2.212   1.381   3.971 -0.5446 -1.5432 -0.3577
 5747TIP3   OH217204   6.161   5.266   1.084 -0.2094 -0.2098  0.1530
 5747TIP3    H117205   6.217   5.193   1.058  0.0673  0.7190 -2.0822
 5747TIP3    H217206   6.222   5.339   1.098 -0.5027 -0.2850  2.1219
 5748TIP3   OH217207   6.175   6.392   4.232 -0.2148 -0.1428 -0.2991
 5748TIP3    H117208   6.264   6.377   4.201 -1.0073 -1.3271 -2.1554
 5748TIP3    H217209   6.141   6.304   4.251  0.2033  0.4163  4.2642
 5749TIP3   OH217210   0.096   3.232   3.143  0.6866 -0.3719 -0.3031
 5749TIP3    H117211   0.022   3.195   3.192 -0.3531 -1.2315 -2.3665
 5749TIP3    H217212   0.118   3.313   3.189 -0.9966 -0.5267  0.8601
 5750TIP3   OH217213   5.581   0.393   3.692  0.1259 -0.2536  0.2004
 5750TIP3    H117214   5.647   0.433   3.635 -2.1544 -1.0365 -3.3304
 5750TIP3    H217215   5.498   0.432   3.664 -1.5668 -3.3937  0.2716
 5751TIP3   OH217216   6.758   2.495   3.711 -0.1062  0.3688 -0.0128
 5751TIP3    H117217   6.707   2.414   3.704  0.2239  0.0313  1.1261
 5751TIP3    H217218   6.848   2.464   3.722  0.0036  0.8872  0.5790
 5752TIP3   OH217219   4.805   4.122   2.284 -0.2007 -0.2380  0.0939
 5752TIP3    H117220   4.822   4.038   2.325 -0.4605 -0.3074  0.0627
 5752TIP3    H217221   4.760   4.173   2.351 -0.7695 -0.4077 -0.1542
 5753TIP3   OH217222   6.433   4.651   1.728  0.4435  0.2519 -0.2770
 5753TIP3    H117223   6.423   4.727   1.785 -2.2933 -0.2279  0.0043
 5753TIP3    H217224   6.490   4.592   1.777  0.3083  0.9533  0.7563
 5754TIP3   OH217225   6.269   6.185   1.264  0.0334  0.0621  0.2509
 5754TIP3    H117226   6.236   6.216   1.180 -1.9800  0.9983  1.3088
 5754TIP3    H217227   6.251   6.091   1.264 -0.3417  0.1335 -0.1896
 5755TIP3   OH217228   4.343   1.092   1.350 -0.0003 -0.2690 -0.5231
 5755TIP3    H117229   4.313   1.013   1.395  1.1333 -0.0161  0.7484
 5755TIP3    H217230   4.312   1.164   1.404 -0.3902  0.1337 -1.2744
 5756TIP3   OH217231   1.034   3.797   1.939 -0.6740  0.1989 -0.0756
 5756TIP3    H117232   1.021   3.722   1.880 -1.2608 -1.2694  1.8091
 5756TIP3    H217233   0.971   3.862   1.909 -0.6843 -0.3427 -1.2940
 5757TIP3   OH217234   1.219   0.560   5.786  0.2225  0.7352 -0.2889
 5757TIP3    H117235   1.153   0.617   5.745  0.2328  1.0102  0.0683
 5757TIP3    H217236   1.253   0.507   5.714 -2.4200 -1.4851 -0.0570
 5758TIP3   OH217237   0.841   2.861   3.893 -0.0501  0.0519 -0.1350
 5758TIP3    H117238   0.806   2.945   3.865 -0.9972 -0.0645  0.6447
 5758TIP3    H217239   0.764   2.809   3.915  0.5419 -0.8711 -0.1698
 5759TIP3   OH217240   4.700   4.914   1.501  0.5783 -0.2602 -0.2441
 5759TIP3    H117241   4.655   4.834   1.478 -1.0475  0.4250  0.4109
 5759TIP3    H217242   4.737   4.897   1.587 -0.2169 -0.1532  0.1289
 5760TIP3   OH217243   2.074   3.959   1.193  0.5830 -0.0865 -0.0193
 5760TIP3    H117244   2.054   3.872   1.226  1.3055 -0.6297 -0.9434
 5760TIP3    H217245   2.037   3.960   1.105  0.7110  0.4856 -0.0689
 5761TIP3   OH217246   4.713   6.600   4.255 -0.1550  0.3174  0.9665
 5761TIP3    H117247   4.731   6.692   4.236 -0.2236  0.2373  0.4963
 5761TIP3    H217248   4.778   6.575   4.320  1.6923 -0.0582 -0.9148
 5762TIP3   OH217249   1.175   2.501   4.371 -0.0141  0.4972  0.4801
 5762TIP3    H117250   1.087   2.462   4.375 -0.1667  0.8899  1.0674
 5762TIP3    H217251   1.213   2.464   4.291 -0.4368 -0.2537  0.6134
 5763TIP3   OH217252   5.171   0.963   5.621 -0.0595  0.2987  0.1852
 5763TIP3    H117253   5.242   0.950   5.558 -0.3085  0.8640 -0.2168
 5763TIP3    H217254   5.204   0.924   5.702  0.5928  0.2972 -0.0759
 5764TIP3   OH217255   0.126   4.643   2.360  0.1377 -0.1095  0.1426
 5764TIP3    H117256   0.189   4.714   2.368 -0.2943  0.2601  0.2844
 5764TIP3    H217257   0.046   4.676   2.399 -0.5016 -0.1374 -1.0675
 5765TIP3   OH217258   0.513   3.631   1.003 -0.0583 -0.2615  0.6954
 5765TIP3    H117259   0.530   3.557   1.062 -0.7608  0.5467  1.9396
 5765TIP3    H217260   0.494   3.590   0.919  4.1012 -1.3668  0.1084
 5766TIP3   OH217261   4.999   4.811   5.384  0.2817  0.1681  0.0103
 5766TIP3    H117262   4.943   4.855   5.448 -0.3817  0.8394 -0.9989
 5766TIP3    H217263   5.085   4.806   5.426 -0.5478 -1.0568  1.6642
 5767TIP3   OH217264   5.252   1.738   1.333 -0.1070 -0.2268 -0.0823
 5767TIP3    H117265   5.302   1.787   1.268 -1.1771  0.2131 -0.6118
 5767TIP3    H217266   5.280   1.772   1.417  2.2189 -1.6584 -0.1888
 5768TIP3   OH217267   2.641   0.966   4.442  0.2438  0.4348  0.0228
 5768TIP3    H117268   2.594   0.972   4.359 -0.6503 -0.5160  0.4306
 5768TIP3    H217269   2.676   0.877   4.444 -0.0995  0.3057  0.8395
 5769TIP3   OH217270   2.096   4.205   4.059  0.4567 -0.0444 -0.3106
 5769TIP3    H117271   2.155   4.133   4.083 -0.0230 -0.7067 -1.0423
 5769TIP3    H217272   2.044   4.169   3.987  0.4378  1.1590 -0.9173
 5770TIP3   OH217273   3.037   1.701   1.510 -0.7219  0.2245  0.4182
 5770TIP3    H117274   2.969   1.742   1.563 -0.0422 -1.3867  2.6744
 5770TIP3    H217275   2.990   1.671   1.431 -2.3028  0.4613  1.2212
 5771TIP3   OH217276   5.501   6.218   4.785  0.1858  0.2802 -0.3357
 5771TIP3    H117277   5.432   6.188   4.727 -0.2215 -0.2432  0.4008
 5771TIP3    H217278   5.458   6.281   4.843 -0.0036 -0.9959  0.9633
 5772TIP3   OH217279   6.619   3.362   5.137  0.2304 -0.5564 -0.5589
 5772TIP3    H117280   6.659   3.302   5.073  0.7536 -0.7055 -0.1004
 5772TIP3    H217281   6.575   3.305   5.199 -0.2441 -0.4116 -0.7561
 5773TIP3   OH217282   4.384   3.564   1.770 -0.4648 -0.4386  0.0420
 5773TIP3    H117283   4.411   3.594   1.856 -0.8293 -1.1773  0.4171
 5773TIP3    H217284   4.437   3.615   1.709  0.6269 -0.7332  0.7264
 5774TIP3   OH217285   0.584   4.763   3.947  0.2243 -0.3546 -0.7846
 5774TIP3    H117286   0.606   4.672   3.966 -0.4023  0.0188  2.3271
 5774TIP3    H217287   0.527   4.759   3.871  0.9630 -2.4514 -1.2829
 5775TIP3   OH217288   5.983   4.503   5.321  0.0736 -0.2316  0.1096
 5775TIP3    H117289   6.028   4.577   5.362 -0.8314  1.5352 -1.8618
 5775TIP3    H217290   6.043   4.430   5.331  2.5543  1.5603 -0.7014
 5776TIP3   OH217291   5.980   4.487   4.550  0.7264  0.1135  0.2435
 5776TIP3    H117292   5.974   4.571   4.596 -2.0976 -0.3116  0.7995
 5776TIP3    H217293   5.937   4.502   4.466  3.1654  0.0401 -1.1198
 5777TIP3   OH217294   3.381   4.016   2.496 -0.1832 -0.4397 -0.0157
 5777TIP3    H117295   3.410   3.925   2.491 -0.4914 -0.6249  1.1848
 5777TIP3    H217296   3.290   4.015   2.467  0.4737 -0.1156 -2.2416
 5778TIP3   OH217297   0.184   2.250   1.898  0.5817  0.5201 -0.2785
 5778TIP3    H117298   0.256   2.234   1.837  0.7763  0.1990  0.0366
 5778TIP3    H217299   0.108   2.262   1.842  0.5658 -0.7612 -0.5513
 5779TIP3   OH217300   6.803   2.134   3.572 -0.1453 -0.2604  0.6488
 5779TIP3    H117301   6.885   2.133   3.621  2.1569 -2.7127 -2.7942
 5779TIP3    H217302   6.806   2.214   3.521 -0.2659 -0.0141  1.0219
 5780TIP3   OH217303   2.203   1.147   3.660 -0.3896  0.0950  0.6656
 5780TIP3    H117304   2.281   1.130   3.607  0.2730 -0.5665  1.7935
 5780TIP3    H217305   2.190   1.241   3.654  0.4207  0.1938  0.3395
 5781TIP3   OH217306   3.438   2.628   5.162 -0.3012  0.0974  0.2076
 5781TIP3    H117307   3.434   2.591   5.250 -1.9778 -1.0601 -0.3179
 5781TIP3    H217308   3.486   2.710   5.173 -1.6093  0.6427  2.4302
 5782TIP3   OH217309   5.406   5.653   3.134 -0.6233 -0.7673 -0.3018
 5782TIP3    H117310   5.453   5.601   3.199  0.1348 -0.2128 -0.3969
 5782TIP3    H217311   5.448   5.739   3.137 -1.4930 -0.3227 -0.5473
 5783TIP3   OH217312   5.156   6.100   1.183  0.4055  0.4410  0.6621
 5783TIP3    H117313   5.134   6.043   1.257 -1.3410 -1.6958 -1.3780
 5783TIP3    H217314   5.188   6.040   1.115 -0.7626  1.9678 -1.3283
 5784TIP3   OH217315   5.616   1.353   3.982 -0.2260  0.2631 -0.2735
 5784TIP3    H117316   5.683   1.415   4.009 -0.1541 -0.2385  0.7452
 5784TIP3    H217317   5.542   1.369   4.040 -0.8381  0.5066 -1.0936
 5785TIP3   OH217318   2.222   3.824   2.296 -0.3281  0.2580  0.2485
 5785TIP3    H117319   2.201   3.746   2.347  0.1421 -0.4597 -0.6312
 5785TIP3    H217320   2.192   3.897   2.350 -0.0328 -0.4874  1.4488
 5786TIP3   OH217321   5.827   3.016   3.026 -0.4895 -0.0209  0.1188
 5786TIP3    H117322   5.827   3.075   3.102  1.7390 -0.4774  0.5426
 5786TIP3    H217323   5.916   3.019   2.993 -0.0995 -3.4809  0.4448
 5787TIP3   OH217324   2.083   3.605   2.818  0.3835 -0.3547 -0.6138
 5787TIP3    H117325   2.069   3.651   2.900 -2.0345  2.0868 -2.2512
 5787TIP3    H217326   2.179   3.600   2.809  0.6912 -0.1339  1.9759
 5788TIP3   OH217327   3.171   0.763   1.499  0.2285  0.0378  0.0180
 5788TIP3    H117328   3.193   0.740   1.589  0.9329 -1.2552 -0.4643
 5788TIP3    H217329   3.141   0.681   1.460  0.1810  0.5303 -1.0019
 5789TIP3   OH217330   6.480   1.731   1.609  0.3071  0.9920 -0.3522
 5789TIP3    H117331   6.537   1.665   1.649 -1.9133 -0.0518  1.3359
 5789TIP3    H217332   6.538   1.782   1.553  2.6900 -0.5457  0.5466
 5790TIP3   OH217333   0.552   6.605   3.419  0.5304 -0.2603  0.6075
 5790TIP3    H117334   0.532   6.522   3.375  2.6341 -0.4372 -0.1111
 5790TIP3    H217335   0.547   6.585   3.512 -1.7828 -0.4440  0.5029
 5791TIP3   OH217336   5.264   2.284   5.558 -0.3867 -0.1560 -0.3892
 5791TIP3    H117337   5.254   2.377   5.577 -1.8168  0.0944 -2.0804
 5791TIP3    H217338   5.328   2.280   5.487  0.9187 -0.6396  0.7649
 5792TIP3   OH217339   1.983   1.623   2.389  0.4422  0.3837 -0.3905
 5792TIP3    H117340   1.963   1.554   2.327  0.5349  0.4360 -0.4794
 5792TIP3    H217341   2.076   1.642   2.375  1.1743 -1.4330  1.5844
 5793TIP3   OH217342   1.970   0.471   2.191 -0.3752 -0.0523 -0.1959
 5793TIP3    H117343   1.887   0.437   2.226 -0.7159  2.2560  1.4151
 5793TIP3    H217344   2.030   0.469   2.265  0.4852  0.0534 -0.8762
 5794TIP3   OH217345   3.275   4.541   1.579  0.0534 -0.0520 -0.0017
 5794TIP3    H117346   3.261   4.608   1.646  2.5107  0.5803 -0.0204
 5794TIP3    H217347   3.196   4.544   1.526 -0.9628  1.0707  1.4855
 5795TIP3   OH217348   3.594   0.644   1.993 -0.1256 -0.3470 -0.1817
 5795TIP3    H117349   3.507   0.684   1.998 -0.0632 -0.1035 -0.9181
 5795TIP3    H217350   3.627   0.670   1.907 -0.2824 -2.3735 -0.9043
 5796TIP3   OH217351   1.284   5.128   0.839 -0.3101 -0.0614 -0.1450
 5796TIP3    H117352   1.301   5.221   0.855 -3.6648  1.0475 -2.0554
 5796TIP3    H217353   1.255   5.095   0.924  1.6930  0.3075  0.7653
 5797TIP3   OH217354   3.929   5.544   3.700  0.1418  0.4263 -0.5835
 5797TIP3    H117355   3.975   5.624   3.677  0.5040  0.4815  0.2698
 5797TIP3    H217356   3.930   5.491   3.620  3.1281 -0.2619 -0.2100
 5798TIP3   OH217357   6.447   4.158   0.134 -0.3111 -0.4015  0.0631
 5798TIP3    H117358   6.454   4.228   0.199  0.0242 -0.6786  0.3335
 5798TIP3    H217359   6.354   4.138   0.130 -0.2267 -1.1884  1.3493
 5799TIP3   OH217360   6.617   1.999   2.126  0.4921 -0.0624  0.2633
 5799TIP3    H117361   6.630   2.088   2.093  1.8276 -0.2703  0.1752
 5799TIP3    H217362   6.541   2.006   2.184 -0.2851  0.8403 -0.8099
 5800TIP3   OH217363   5.051   5.271   1.831  0.0222 -0.9107 -0.0114
 5800TIP3    H117364   5.076   5.327   1.757  0.6318  0.4931  1.1954
 5800TIP3    H217365   4.997   5.327   1.887 -0.1148 -1.8188  0.8007
 5801TIP3   OH217366   6.550   0.754   4.494 -0.0045 -0.3991 -0.1824
 5801TIP3    H117367   6.591   0.668   4.501  0.1953 -0.4275 -1.4384
 5801TIP3    H217368   6.592   0.794   4.417 -0.1976  0.7593  0.2947
 5802TIP3   OH217369   4.337   1.538   5.401 -0.8681 -0.6007 -0.0652
 5802TIP3    H117370   4.357   1.594   5.326  0.6973 -0.6497  0.2820
 5802TIP3    H217371   4.261   1.579   5.442 -0.9333  0.1680 -0.9184
 5803TIP3   OH217372   5.845   0.517   1.910  0.6169 -0.1496 -0.4272
 5803TIP3    H117373   5.914   0.580   1.892 -1.7469  2.4414 -1.1506
 5803TIP3    H217374   5.815   0.487   1.824 -1.2455  1.2865 -0.3389
 5804TIP3   OH217375   3.226   1.344   5.743 -0.1907  0.9490 -0.2998
 5804TIP3    H117376   3.167   1.361   5.817 -0.4186 -1.6349  0.1951
 5804TIP3    H217377   3.246   1.251   5.749  1.3411  1.0758 -2.4014
 5805TIP3   OH217378   0.981   3.768   0.512  0.1539 -0.1323 -0.1210
 5805TIP3    H117379   1.026   3.853   0.511 -0.6501  0.3013 -0.0679
 5805TIP3    H217380   0.958   3.754   0.604 -0.2731 -0.1075 -0.2226
 5806TIP3   OH217381   0.833   2.695   5.383 -0.1306  0.1725  0.1677
 5806TIP3    H117382   0.894   2.686   5.456  0.3676 -0.4570 -0.3115
 5806TIP3    H217383   0.874   2.647   5.311 -0.9840  0.1107 -0.2975
 5807TIP3   OH217384   5.978   0.776   0.477  1.4588 -0.3036 -0.3566
 5807TIP3    H117385   6.056   0.761   0.531  0.5355  0.1353  1.1607
 5807TIP3    H217386   5.929   0.842   0.525  0.5883  0.1065 -1.7717
 5808TIP3   OH217387   4.851   2.913   1.080 -0.2134  0.7652 -0.1098
 5808TIP3    H117388   4.783   2.855   1.114 -0.6883  1.4450  0.1359
 5808TIP3    H217389   4.868   2.882   0.992  0.4845 -0.5511  0.4682
 5809TIP3   OH217390   1.052   5.750   4.218 -0.6628  0.2046  0.2993
 5809TIP3    H117391   1.040   5.746   4.313  0.0052 -3.0853  0.3660
 5809TIP3    H217392   0.965   5.767   4.183 -0.8908  1.5990  1.4672
 5810TIP3   OH217393   6.190   3.810   4.670  0.6048  0.0440  0.2180
 5810TIP3    H117394   6.126   3.784   4.603 -0.1562  1.6714  0.2774
 5810TIP3    H217395   6.234   3.728   4.693 -1.4861 -1.1620  0.1971
 5811TIP3   OH217396   4.791   4.537   3.293  0.3631 -0.4525  0.0106
 5811TIP3    H117397   4.757   4.615   3.336 -0.8653 -0.9964  0.0884
 5811TIP3    H217398   4.800   4.473   3.364 -0.1316 -0.8551 -0.2845
 5812TIP3   OH217399   2.776   6.675   2.546  0.5619  0.1442 -0.0620
 5812TIP3    H117400   2.750   6.639   2.630 -0.2646  0.0088 -0.3645
 5812TIP3    H217401   2.744   6.612   2.482  1.7593 -0.0958 -0.4631
 5813TIP3   OH217402   2.748   0.993   4.062  0.1352 -0.3142  0.1295
 5813TIP3    H117403   2.670   1.005   4.116  1.1823 -0.7883  1.8629
 5813TIP3    H217404   2.811   0.952   4.121  0.6213 -3.0869 -2.1252
 5814TIP3   OH217405   4.868   1.915   0.475  0.1917  0.2782 -0.4040
 5814TIP3    H117406   4.911   1.929   0.390  1.6027 -0.2578  0.1939
 5814TIP3    H217407   4.914   1.972   0.535  0.7223 -0.9986  0.4454
 5815TIP3   OH217408   3.532   2.277   5.277  0.1830  0.5108  0.3410
 5815TIP3    H117409   3.497   2.358   5.314  0.1084  0.0642  1.2483
 5815TIP3    H217410   3.460   2.215   5.281  0.8165 -0.1726  1.4636
 5816TIP3   OH217411   5.297   5.189   1.819 -0.1912 -0.2391  0.0483
 5816TIP3    H117412   5.267   5.100   1.800 -0.9467 -0.4310  1.9387
 5816TIP3    H217413   5.218   5.235   1.848  0.6879  0.2550  1.7519
 5817TIP3   OH217414   6.241   2.152   5.588 -0.4544 -0.4583 -0.4347
 5817TIP3    H117415   6.282   2.204   5.519  1.7254  0.8480  1.6657
 5817TIP3    H217416   6.236   2.064   5.552 -2.0544  0.6474 -3.2311
 5818TIP3   OH217417   3.061   2.908   2.347 -0.2906 -1.0192 -0.0227
 5818TIP3    H117418   3.098   2.822   2.366  0.0029 -0.8696  0.0824
 5818TIP3    H217419   3.022   2.936   2.430 -1.0687 -1.3840 -0.2539
 5819TIP3   OH217420   0.509   1.430   2.421 -0.4065  0.7182 -0.9260
 5819TIP3    H117421   0.494   1.358   2.360  0.0099  1.1307 -1.5209
 5819TIP3    H217422   0.571   1.488   2.376  0.4480  0.6821  0.1760
 5820TIP3   OH217423   1.017   2.848   2.191  0.3225  0.4185  0.4303
 5820TIP3    H117424   1.031   2.931   2.146  0.1485  0.3474  0.2463
 5820TIP3    H217425   1.012   2.783   2.121 -0.2518  0.3506  0.5345
 5821TIP3   OH217426   2.733   4.987   2.933 -0.2052  0.3447  0.2519
 5821TIP3    H117427   2.681   4.993   2.853 -0.3194  1.8661  0.4035
 5821TIP3    H217428   2.668   4.975   3.002 -0.1403 -0.5174  0.1662
 5822TIP3   OH217429   2.150   5.050   5.664 -0.4702  0.3140 -0.0024
 5822TIP3    H117430   2.109   5.002   5.736 -1.7175  2.6064  0.9093
 5822TIP3    H217431   2.106   5.018   5.586 -0.0775 -1.2121  0.3669
 5823TIP3   OH217432   0.552   1.615   0.350 -0.1159 -0.4633  0.7460
 5823TIP3    H117433   0.610   1.676   0.394 -0.2263  1.4221 -1.5164
 5823TIP3    H217434   0.588   1.528   0.370  3.0484  0.5682  0.0987
 5824TIP3   OH217435   4.032   2.240   2.415  0.1732 -0.6351 -0.0284
 5824TIP3    H117436   4.074   2.229   2.501 -0.6730 -0.0280  0.4769
 5824TIP3    H217437   4.054   2.330   2.390 -2.2678  0.3545  1.0836
 5825TIP3   OH217438   0.360   1.744   0.720  0.1590  0.1988 -0.0565
 5825TIP3    H117439   0.330   1.678   0.782  1.5382 -0.3811  0.0241
 5825TIP3    H217440   0.293   1.746   0.652  0.4682 -1.8482 -0.4724
 5826TIP3   OH217441   4.274   2.231   4.013 -0.5124  0.3010  0.1010
 5826TIP3    H117442   4.324   2.311   4.032  1.3334 -0.5383 -0.9353
 5826TIP3    H217443   4.205   2.260   3.954  1.7360  0.8037 -2.4833
 5827TIP3   OH217444   4.464   6.124   1.989 -0.1180  0.1882  0.9158
 5827TIP3    H117445   4.503   6.053   1.938 -0.7133 -0.2848  1.1059
 5827TIP3    H217446   4.486   6.203   1.940  1.0479 -0.0609  1.0141
 5828TIP3   OH217447   3.739   2.841   3.414 -0.4423 -0.1052  0.0658
 5828TIP3    H117448   3.821   2.813   3.455 -0.2445 -0.3444 -0.4779
 5828TIP3    H217449   3.740   2.936   3.421  1.0802  0.1208 -2.0809
 5829TIP3   OH217450   4.477   6.452   3.458  0.1659 -0.1755 -0.4010
 5829TIP3    H117451   4.445   6.541   3.442  0.5907  0.7082  2.9670
 5829TIP3    H217452   4.569   6.455   3.431  0.5402  0.8438  0.8846
 5830TIP3   OH217453   3.248   0.568   2.515  0.0467 -0.1482  0.1919
 5830TIP3    H117454   3.180   0.568   2.583  0.4402  2.3990  0.6862
 5830TIP3    H217455   3.325   0.532   2.559 -0.4892 -1.4106  0.1401
 5831TIP3   OH217456   6.866   5.982   5.448 -0.2945 -0.0356 -0.0289
 5831TIP3    H117457   6.929   5.910   5.443 -2.8904 -2.4445  0.1243
 5831TIP3    H217458   6.848   6.004   5.356  0.8835  0.8723 -0.0760
 5832TIP3   OH217459   1.619   0.277   2.461  0.1012  0.5124  0.0844
 5832TIP3    H117460   1.610   0.182   2.466 -0.7070  0.3689 -2.7030
 5832TIP3    H217461   1.711   0.294   2.481  0.4876 -0.9580 -0.3625
 5833TIP3   OH217462   4.584   2.006   0.507  0.1704  0.0563 -0.0013
 5833TIP3    H117463   4.586   2.034   0.415  2.1743  1.3622  0.3829
 5833TIP3    H217464   4.667   1.961   0.520 -0.4848 -0.9023  0.9682
 5834TIP3   OH217465   4.155   0.621   5.540 -0.3578  0.3813  0.4920
 5834TIP3    H117466   4.075   0.586   5.501 -1.1757  2.0329  0.5649
 5834TIP3    H217467   4.129   0.650   5.628  0.4260  0.5330  0.6868
 5835TIP3   OH217468   5.619   1.980   1.893  0.2730  0.4500 -1.1700
 5835TIP3    H117469   5.597   1.995   1.985 -0.1239 -1.9310 -0.7887
 5835TIP3    H217470   5.713   1.963   1.893 -0.0456 -1.5879 -0.8135
 5836TIP3   OH217471   0.849   4.063   1.353 -0.1923  0.0853  0.4712
 5836TIP3    H117472   0.940   4.044   1.331  0.3556  1.3039  1.5617
 5836TIP3    H217473   0.813   3.979   1.380  0.8449 -0.2590  0.8322
 5837TIP3   OH217474   4.846   2.877   0.770  0.2235 -0.1029 -0.3804
 5837TIP3    H117475   4.755   2.903   0.757 -0.0412 -1.0472 -0.4312
 5837TIP3    H217476   4.896   2.955   0.744 -0.6145  1.2311  1.6954
 5838TIP3   OH217477   6.260   0.809   5.136 -0.5185  0.1879  0.2892
 5838TIP3    H117478   6.319   0.853   5.075  0.2994 -0.8073  0.3411
 5838TIP3    H217479   6.209   0.880   5.175  0.8637  1.1198  0.4766
 5839TIP3   OH217480   6.103   6.420   2.508  0.6422  0.3742  0.2318
 5839TIP3    H117481   6.049   6.478   2.453  0.6925  0.1363 -0.0741
 5839TIP3    H217482   6.079   6.443   2.598 -0.0962  0.1580  0.0971
 5840TIP3   OH217483   4.635   4.380   0.469 -0.3044 -0.4114 -0.5304
 5840TIP3    H117484   4.568   4.360   0.403 -0.0563 -1.0539 -0.5995
 5840TIP3    H217485   4.640   4.475   0.470 -1.6242 -0.3192 -0.1207
 5841TIP3   OH217486   2.133   0.831   3.489 -0.1024 -0.0643  1.0277
 5841TIP3    H117487   2.067   0.892   3.456 -0.8780 -0.7310  1.3182
 5841TIP3    H217488   2.126   0.754   3.432  0.7512  0.0379  0.7695
 5842TIP3   OH217489   3.162   0.595   0.516 -0.0496 -0.2611  0.2617
 5842TIP3    H117490   3.192   0.602   0.606  0.2023 -0.5505  0.2012
 5842TIP3    H217491   3.066   0.593   0.523 -0.0116 -1.3121  0.6012
 5843TIP3   OH217492   1.980   0.256   1.130  0.5769 -0.0830  0.4501
 5843TIP3    H117493   2.036   0.199   1.077  0.1969 -0.1468  0.1147
 5843TIP3    H217494   1.937   0.313   1.067 -1.5256 -1.5641  0.4300
 5844TIP3   OH217495   0.137   4.952   5.671 -0.2075 -0.2761  0.5756
 5844TIP3    H117496   0.161   4.859   5.669 -3.1651 -1.1604 -2.1501
 5844TIP3    H217497   0.063   4.956   5.731 -3.5315 -0.8901 -3.1426
 5845TIP3   OH217498   5.631   0.521   0.664 -0.1729 -0.0085 -0.6722
 5845TIP3    H117499   5.695   0.574   0.712  0.4333 -1.4371  0.1726
 5845TIP3    H217500   5.609   0.450   0.725 -1.7171 -0.1768 -1.3909
 5846TIP3   OH217501   7.102   3.562   0.485  0.6429  0.3822 -0.7265
 5846TIP3    H117502   7.023   3.581   0.435 -0.1862  0.1822  0.4570
 5846TIP3    H217503   7.139   3.649   0.506 -0.0115  0.5285 -0.1466
 5847TIP3   OH217504   4.591   0.352   3.157 -0.4717 -0.2441  0.0985
 5847TIP3    H117505   4.653   0.289   3.194  0.6047  0.9116  0.3140
 5847TIP3    H217506   4.518   0.298   3.125  1.3511 -1.8375 -1.6518
 5848TIP3   OH217507   3.825   4.855   2.180  0.6358  0.6081  0.1963
 5848TIP3    H117508   3.835   4.881   2.088  0.9685  0.6763  0.2527
 5848TIP3    H217509   3.905   4.808   2.200  0.4326  0.3323  0.3674
 5849TIP3   OH217510   1.387   6.098   1.500 -0.2023  0.4839  0.6975
 5849TIP3    H117511   1.426   6.178   1.465 -1.4836  0.1340 -1.7028
 5849TIP3    H217512   1.453   6.030   1.486 -0.7964  0.2810 -1.5553
 5850TIP3   OH217513   4.582   5.423   3.563  0.3160 -0.6666 -0.4572
 5850TIP3    H117514   4.619   5.461   3.643  1.6861  0.2242 -1.4743
 5850TIP3    H217515   4.542   5.341   3.592  1.2285 -0.6176  1.0520
 5851TIP3   OH217516   2.202   1.633   1.163 -0.2830 -0.3487 -0.6192
 5851TIP3    H117517   2.167   1.611   1.249 -0.7478 -0.4948 -0.8399
 5851TIP3    H217518   2.161   1.569   1.103 -1.8053  1.1603 -1.2958
 5852TIP3   OH217519   4.548   3.881   0.902  0.0183 -0.2401 -0.1913
 5852TIP3    H117520   4.610   3.849   0.968  0.7176 -0.0740 -0.7537
 5852TIP3    H217521   4.476   3.819   0.905  1.0996 -1.5898 -0.8947
 5853TIP3   OH217522   6.192   4.555   4.094 -0.7581  0.2937  0.2970
 5853TIP3    H117523   6.262   4.572   4.158  0.4517 -0.2246 -0.8282
 5853TIP3    H217524   6.135   4.491   4.136  1.1149 -1.5718  0.1859
 5854TIP3   OH217525   6.340   0.788   1.865  0.1498  0.2515  0.6090
 5854TIP3    H117526   6.343   0.818   1.774 -2.3093  1.1251  0.7222
 5854TIP3    H217527   6.402   0.715   1.869  0.1234  0.0136 -1.8328
 5855TIP3   OH217528   0.629   2.454   0.345  0.2320  0.0458  0.2913
 5855TIP3    H117529   0.660   2.458   0.255 -0.4092 -3.8865 -0.2780
 5855TIP3    H217530   0.546   2.406   0.340  0.9672 -1.7617  3.0316
 5856TIP3   OH217531   3.465   6.060   3.873 -0.0494  0.8040 -0.6078
 5856TIP3    H117532   3.482   6.139   3.926  0.9920  0.2532 -0.0900
 5856TIP3    H217533   3.534   5.999   3.898  0.8017  0.6878 -2.9660
 5857TIP3   OH217534   5.640   1.445   1.927 -0.5834  0.1200 -0.1744
 5857TIP3    H117535   5.574   1.424   1.994  0.3532 -1.6852  0.2595
 5857TIP3    H217536   5.689   1.517   1.965 -2.0708  1.2749 -0.3630
 5858TIP3   OH217537   4.259   1.956   0.058 -0.5139 -0.9143  0.8145
 5858TIP3    H117538   4.220   2.037   0.025 -0.6764 -1.0119  0.7649
 5858TIP3    H217539   4.329   1.936  -0.004  0.9640  0.3476  2.0043
 5859TIP3   OH217540   0.740   5.704   1.871 -0.1609 -0.7714 -0.1680
 5859TIP3    H117541   0.721   5.651   1.949  0.0320  0.1571  0.5161
 5859TIP3    H217542   0.834   5.720   1.875 -0.3562  0.3824  0.1226
 5860TIP3   OH217543   3.676   5.502   4.603  0.2092  0.4090  0.6041
 5860TIP3    H117544   3.684   5.439   4.531 -0.4918 -0.6971  1.4615
 5860TIP3    H217545   3.717   5.458   4.678  0.2279  1.2221  1.0841
 5861TIP3   OH217546   3.359   2.786   4.172 -0.1838  0.1575  0.0265
 5861TIP3    H117547   3.269   2.774   4.203  0.0045 -2.3643 -0.1758
 5861TIP3    H217548   3.406   2.818   4.249 -1.1225  0.9236  0.3013
 5862TIP3   OH217549   2.939   6.423   0.490 -0.1026 -0.0189 -0.1446
 5862TIP3    H117550   2.900   6.431   0.577  0.3803  0.2092  0.0591
 5862TIP3    H217551   2.928   6.331   0.467 -0.5218 -0.0122  0.0200
 5863TIP3   OH217552   5.326   1.281   1.121 -0.2337 -0.9087  0.1930
 5863TIP3    H117553   5.398   1.335   1.089 -0.9279 -0.5437 -0.8246
 5863TIP3    H217554   5.265   1.344   1.161 -1.2965 -0.8068 -1.4650
 5864TIP3   OH217555   0.215   1.405   4.758 -0.2350  0.5042  0.0098
 5864TIP3    H117556   0.175   1.328   4.717 -0.4830  0.8261 -0.3555
 5864TIP3    H217557   0.190   1.478   4.702  2.3250  0.5198 -1.2567
 5865TIP3   OH217558   5.128   0.841   1.107  0.3390  0.4071 -0.0257
 5865TIP3    H117559   5.156   0.930   1.087  2.1462 -0.1714 -0.2335
 5865TIP3    H217560   5.149   0.791   1.028 -1.9547  0.0221 -0.4622
 5866TIP3   OH217561   2.749   3.819   1.403 -0.1744  0.1585 -0.4568
 5866TIP3    H117562   2.740   3.914   1.397 -1.2225 -0.0183 -2.4831
 5866TIP3    H217563   2.837   3.801   1.371  1.2776  0.5882  2.8541
 5867TIP3   OH217564   0.867   0.276   2.562  0.1202  0.4242  0.3051
 5867TIP3    H117565   0.948   0.250   2.518 -0.7290  0.5145 -1.3593
 5867TIP3    H217566   0.888   0.360   2.603  1.8726 -1.0842  2.8687
 5868TIP3   OH217567   1.234   0.812   1.806  0.1504  0.4194 -0.6238
 5868TIP3    H117568   1.275   0.880   1.752 -0.7417  2.2346  0.8684
 5868TIP3    H217569   1.281   0.732   1.783  3.1065  1.9861 -0.5753
 5869TIP3   OH217570   5.607   2.254   0.914 -0.4556 -0.7284 -0.0621
 5869TIP3    H117571   5.667   2.194   0.870  2.2864  1.0267  1.0823
 5869TIP3    H217572   5.572   2.203   0.987  0.5049 -1.4315 -0.0795
 5870TIP3   OH217573   7.158   5.956   1.085  0.0454 -0.4463  0.1757
 5870TIP3    H117574   7.251   5.940   1.070 -0.2551 -0.7745 -1.4619
 5870TIP3    H217575   7.120   5.869   1.098 -0.2019 -0.4027 -0.2333
 5871TIP3   OH217576   6.573   5.593   4.842  0.0221 -0.1863  0.0146
 5871TIP3    H117577   6.594   5.673   4.890 -0.2759 -0.1983  0.1698
 5871TIP3    H217578   6.655   5.544   4.838  0.2712  0.2562 -0.3271
 5872TIP3   OH217579   4.545   0.562   4.644  0.4160  0.1899  0.1371
 5872TIP3    H117580   4.613   0.627   4.662  1.6455 -1.0052 -0.0280
 5872TIP3    H217581   4.580   0.510   4.572 -1.4259  0.5801 -1.0989
 5873TIP3   OH217582   6.239   2.827   4.924  0.2763 -0.1457 -0.0249
 5873TIP3    H117583   6.175   2.830   4.996  2.5121  2.6780  2.0382
 5873TIP3    H217584   6.307   2.767   4.955  0.2483 -0.5577 -0.7406
 5874TIP3   OH217585   6.466   6.166   3.094 -0.3684 -0.1497 -0.4555
 5874TIP3    H117586   6.512   6.123   3.022 -2.2169 -1.8708 -0.7067
 5874TIP3    H217587   6.439   6.094   3.151 -2.8874  0.6992 -0.4503
 5875TIP3   OH217588   3.523   2.127   2.789 -0.2868 -0.4722 -0.3827
 5875TIP3    H117589   3.510   2.054   2.729 -0.7683 -0.1430 -0.6778
 5875TIP3    H217590   3.438   2.169   2.796 -0.3139 -0.6771  0.7623
 5876TIP3   OH217591   3.707   0.403   3.641 -0.0521  0.4342 -0.0662
 5876TIP3    H117592   3.638   0.468   3.631 -0.6120 -0.3323 -1.5040
 5876TIP3    H217593   3.782   0.441   3.594  0.3474  1.0138  1.0114
 5877TIP3   OH217594   0.492   5.097   3.271 -0.0524 -0.0737  0.1097
 5877TIP3    H117595   0.490   5.186   3.236 -1.9836  0.0023  0.2935
 5877TIP3    H217596   0.446   5.045   3.205  3.1961 -1.4888 -1.2356
 5878TIP3   OH217597   0.762   1.008   1.848 -0.0702  0.0508  0.3754
 5878TIP3    H117598   0.686   1.013   1.906 -0.8730 -1.3070 -0.4917
 5878TIP3    H217599   0.808   0.928   1.876 -0.3534 -0.5011 -0.6799
 5879TIP3   OH217600   5.995   4.871   5.314  0.0200 -0.1865 -0.9092
 5879TIP3    H117601   5.915   4.835   5.352  1.4356 -3.4381 -0.6942
 5879TIP3    H217602   5.997   4.837   5.225  1.3111 -0.4706 -0.7899
 5880TIP3   OH217603   4.955   5.807   4.478 -0.0743  0.0379 -0.2634
 5880TIP3    H117604   4.993   5.724   4.448  0.6406 -0.7168  2.4634
 5880TIP3    H217605   5.029   5.855   4.514 -0.7846  1.1373 -0.2175
 5881TIP3   OH217606   3.674   4.739   4.096 -0.7765  0.1822 -0.2376
 5881TIP3    H117607   3.711   4.740   4.184 -0.7276  0.9631 -0.2624
 5881TIP3    H217608   3.582   4.761   4.108 -0.1621  3.3651 -0.6325
 5882TIP3   OH217609   4.013   0.938   3.682 -0.1880 -0.2867  0.0426
 5882TIP3    H117610   4.093   0.917   3.632  0.2285 -1.5151  1.1702
 5882TIP3    H217611   3.945   0.946   3.615  1.1670  2.6524 -1.1627
 5883TIP3   OH217612   5.206   0.410   1.320  0.4551  0.6783  0.2377
 5883TIP3    H117613   5.250   0.490   1.292  0.2348  0.3169 -1.2754
 5883TIP3    H217614   5.253   0.340   1.274  1.4230 -0.2235  2.4666
 5884TIP3   OH217615   0.326   6.420   2.304  0.0478  0.4082  0.0781
 5884TIP3    H117616   0.302   6.358   2.234  0.6030 -0.0541  0.2889
 5884TIP3    H217617   0.366   6.493   2.258 -0.3430  0.4810 -0.1520
 5885TIP3   OH217618   1.843   6.572   3.236 -0.3048 -0.1295  0.1242
 5885TIP3    H117619   1.750   6.577   3.257 -0.1189  0.5426  0.8382
 5885TIP3    H217620   1.886   6.570   3.321  0.3723  0.3526 -0.2002
 5886TIP3   OH217621   5.487   3.551   0.613  0.4931  0.1804  0.5766
 5886TIP3    H117622   5.530   3.509   0.688  0.3266 -0.4306  0.3411
 5886TIP3    H217623   5.395   3.556   0.638 -0.0313 -2.3287 -0.5403
 5887TIP3   OH217624   4.466   2.320   2.607  0.0190 -0.1706  0.3023
 5887TIP3    H117625   4.473   2.318   2.702  0.0516  2.4943  0.4253
 5887TIP3    H217626   4.540   2.269   2.576  1.9979  1.6594  1.7459
 5888TIP3   OH217627   4.589   6.659   0.774 -0.2368 -0.3082  0.2272
 5888TIP3    H117628   4.525   6.618   0.832 -0.7899  0.6661  0.3407
 5888TIP3    H217629   4.651   6.590   0.754 -1.6910 -1.4936 -0.4380
 5889TIP3   OH217630   2.797   5.896   4.766  0.2471 -0.1723 -0.2618
 5889TIP3    H117631   2.876   5.865   4.811 -0.2779 -0.7402  0.3057
 5889TIP3    H217632   2.725   5.857   4.816 -0.3668 -0.7863 -1.5867
 5890TIP3   OH217633   0.463   1.913   5.645 -0.1367  0.2912 -0.2938
 5890TIP3    H117634   0.425   1.927   5.559 -0.3714 -1.5324 -0.5261
 5890TIP3    H217635   0.531   1.980   5.653 -0.4964  0.8386 -1.6504
 5891TIP3   OH217636   6.679   0.483   0.345 -0.1042  0.0327  0.4051
 5891TIP3    H117637   6.719   0.398   0.364  1.5334  1.0208  1.7715
 5891TIP3    H217638   6.625   0.468   0.268  1.1021 -1.9673 -0.1367
 5892TIP3   OH217639   1.728   4.540   2.459  0.5970  0.5522 -0.3999
 5892TIP3    H117640   1.759   4.591   2.385 -0.5441  0.6483 -0.8236
 5892TIP3    H217641   1.704   4.605   2.525 -0.6735  0.5764 -0.8673
 5893TIP3   OH217642   1.555   0.803   2.081  0.8221 -0.1523  0.6754
 5893TIP3    H117643   1.594   0.720   2.052 -0.4601  0.1870 -2.4006
 5893TIP3    H217644   1.606   0.870   2.035 -0.5190  0.5234  0.1400
 5894TIP3   OH217645   4.117   5.084   2.651 -0.1186  0.4770 -0.5242
 5894TIP3    H117646   4.033   5.046   2.622  0.2242 -0.1673 -0.6981
 5894TIP3    H217647   4.117   5.172   2.615 -1.8835  1.4649  1.6113
 5895TIP3   OH217648   3.046   5.315   0.125 -0.2240  0.1131  0.2727
 5895TIP3    H117649   3.071   5.320   0.032  0.2597 -0.5938  0.3604
 5895TIP3    H217650   3.054   5.223   0.147 -0.2703  0.2893  1.0476
 5896TIP3   OH217651   6.734   1.610   3.302  0.3579 -0.1977 -0.0073
 5896TIP3    H117652   6.714   1.703   3.301  0.4929 -0.1518  0.7819
 5896TIP3    H217653   6.791   1.597   3.227 -1.2333 -0.0212 -1.2822
 5897TIP3   OH217654   2.820   5.206   2.174 -0.1272 -0.9235 -0.2892
 5897TIP3    H117655   2.880   5.140   2.140  1.0468 -0.6472  1.1217
 5897TIP3    H217656   2.743   5.157   2.202  1.4690 -2.0840  2.5213
 5898TIP3   OH217657   6.079   2.895   2.719 -0.2319  0.1648  0.2813
 5898TIP3    H117658   5.989   2.925   2.703 -0.4950  0.0536  1.4649
 5898TIP3    H217659   6.111   2.952   2.790  1.5470  1.9023 -1.7760
 5899TIP3   OH217660   3.638   1.279   1.733 -0.6503  0.0124 -0.3566
 5899TIP3    H117661   3.589   1.206   1.771  0.2174  0.3646  1.5733
 5899TIP3    H217662   3.673   1.326   1.808  3.9203 -1.0575 -1.4858
 5900TIP3   OH217663   2.373   4.997   4.238 -0.2890  0.9282 -0.5667
 5900TIP3    H117664   2.361   4.952   4.322 -0.8356  1.3703 -0.3956
 5900TIP3    H217665   2.406   4.930   4.179  2.0343  1.0587  0.4803
 5901TIP3   OH217666   6.840   5.527   0.526  0.4482  0.0105  0.3425
 5901TIP3    H117667   6.845   5.568   0.439  0.3832 -0.6625  0.0160
 5901TIP3    H217668   6.780   5.453   0.514 -0.8790  0.8820  1.3549
 5902TIP3   OH217669   3.985   5.618   1.935  0.4826 -0.5208 -0.4541
 5902TIP3    H117670   3.997   5.704   1.975 -2.1202 -0.3822  0.1806
 5902TIP3    H217671   3.942   5.637   1.852 -0.9290 -1.2275  0.0955
 5903TIP3   OH217672   6.824   4.366   0.639  0.1336 -0.0512 -0.0668
 5903TIP3    H117673   6.870   4.299   0.590 -0.8240 -0.2230 -0.7479
 5903TIP3    H217674   6.732   4.352   0.619 -0.3335 -0.3735  2.0760
 5904TIP3   OH217675   4.720   2.264   3.314  0.2570  0.3165 -0.0924
 5904TIP3    H117676   4.688   2.174   3.317  0.1436  0.3127 -1.2303
 5904TIP3    H217677   4.815   2.256   3.324  0.1646  0.1566  0.7969
 5905TIP3   OH217678   6.070   1.004   4.060  0.0710  0.1173 -0.4731
 5905TIP3    H117679   5.985   0.974   4.026  0.3143  0.5527 -1.5050
 5905TIP3    H217680   6.120   1.028   3.982  0.5018  1.5813  0.2227
 5906TIP3   OH217681   2.373   4.688   1.295 -0.3844 -0.2118  0.1749
 5906TIP3    H117682   2.451   4.635   1.310 -0.3183 -0.0319  0.4793
 5906TIP3    H217683   2.307   4.652   1.354 -0.2920  0.1416  0.4986
 5907TIP3   OH217684   4.305   5.174   0.244  0.3018  0.3761  0.0099
 5907TIP3    H117685   4.376   5.232   0.271 -1.1399  1.9661  0.5476
 5907TIP3    H217686   4.227   5.209   0.287 -1.0802 -0.4527 -1.6972
 5908TIP3   OH217687   3.750   4.885   1.881 -0.2477 -0.5382 -0.0057
 5908TIP3    H117688   3.721   4.901   1.791  1.6386 -0.0329 -0.5846
 5908TIP3    H217689   3.801   4.804   1.876 -2.2265 -1.9184  1.1468
 5909TIP3   OH217690   3.035   3.206   3.642  0.5591 -0.5289 -0.3987
 5909TIP3    H117691   3.078   3.190   3.558  0.3708 -0.0091 -0.5987
 5909TIP3    H217692   3.062   3.132   3.697  1.0149 -0.6565 -0.7841
 5910TIP3   OH217693   5.302   4.731   5.348 -0.1028 -0.2462  0.0451
 5910TIP3    H117694   5.327   4.639   5.359 -0.7267 -0.3404  0.7265
 5910TIP3    H217695   5.357   4.779   5.410 -2.2172 -0.5643  2.3301
 5911TIP3   OH217696   6.631   5.458   3.768  0.9799  0.3272 -0.8456
 5911TIP3    H117697   6.554   5.477   3.821  1.1547 -0.9073 -0.0921
 5911TIP3    H217698   6.645   5.537   3.716 -1.4702  0.1824 -1.8716
 5912TIP3   OH217699   2.903   0.529   1.082  0.4540 -0.2870 -0.4612
 5912TIP3    H117700   2.850   0.572   1.149 -0.3983  0.3856 -1.5233
 5912TIP3    H217701   2.847   0.459   1.048  1.9834 -2.6270  1.5339
 5913TIP3   OH217702   2.883   4.502   3.675 -0.4263  0.3208 -0.0688
 5913TIP3    H117703   2.819   4.432   3.688  1.1697 -1.0374  0.8558
 5913TIP3    H217704   2.893   4.542   3.761 -0.2757  0.7429 -0.2825
 5914TIP3   OH217705   0.604   0.937   0.251  0.2794 -0.2212  0.5748
 5914TIP3    H117706   0.658   0.866   0.217  0.2692 -0.0287  0.1498
 5914TIP3    H217707   0.667   1.005   0.276  0.2013  0.3777 -0.7840
 5915TIP3   OH217708   6.000   1.245   3.156 -0.1018  0.7088 -0.4604
 5915TIP3    H117709   5.954   1.319   3.195  0.6373  3.4109 -4.1699
 5915TIP3    H217710   6.093   1.265   3.169  0.1475 -0.9325  0.6229
 5916TIP3   OH217711   1.359   1.935   5.456 -0.8456 -0.2576 -0.6127
 5916TIP3    H117712   1.409   1.940   5.538  0.6623  1.3877 -1.5702
 5916TIP3    H217713   1.381   2.015   5.409 -2.7893 -0.4835 -2.0467
 5917TIP3   OH217714   6.195   1.026   0.433  0.0070  0.3552 -0.2579
 5917TIP3    H117715   6.241   1.106   0.409  1.2642 -0.6793 -1.5203
 5917TIP3    H217716   6.229   1.003   0.519  0.7451  0.4184 -0.5258
 5918TIP3   OH217717   0.766   4.126   1.054 -0.2315 -0.3840  0.4314
 5918TIP3    H117718   0.769   4.107   1.147 -2.7333 -1.8060  0.3126
 5918TIP3    H217719   0.688   4.182   1.043  0.4850  0.4394 -0.7132
 5919TIP3   OH217720   2.583   1.248   4.497  0.4189 -1.1487  0.2634
 5919TIP3    H117721   2.583   1.155   4.475  1.7314 -1.2886  0.7717
 5919TIP3    H217722   2.582   1.250   4.593  3.1451 -0.7381  0.3641
 5920TIP3   OH217723   6.778   1.868   2.823  1.1239 -0.1721 -0.5025
 5920TIP3    H117724   6.719   1.793   2.836  2.1392 -1.0325 -0.6755
 5920TIP3    H217725   6.798   1.867   2.729 -0.0089  1.2329 -0.7826
 5921TIP3   OH217726   6.221   2.803   4.098  0.0770  0.0739 -0.1263
 5921TIP3    H117727   6.251   2.718   4.065  0.5755 -0.1475  0.8708
 5921TIP3    H217728   6.230   2.862   4.023 -1.5472 -1.0089 -1.2594
 5922TIP3   OH217729   2.975   6.176   4.260  0.5496  0.3981  0.1822
 5922TIP3    H117730   2.981   6.178   4.165  1.6810  1.8558  0.2302
 5922TIP3    H217731   2.991   6.085   4.284 -2.6695 -0.6329 -1.1018
 5923TIP3   OH217732   4.690   1.908   1.669 -0.0051  0.0367  0.1893
 5923TIP3    H117733   4.597   1.915   1.647  0.2356  1.9351 -0.3801
 5923TIP3    H217734   4.697   1.824   1.714 -2.0313 -0.0383  0.4729
 5924TIP3   OH217735   1.948   6.758   2.649  0.0993  0.4611  0.4307
 5924TIP3    H117736   1.881   6.727   2.709  0.5848 -1.3671  0.1009
 5924TIP3    H217737   1.992   6.828   2.697  0.8538 -1.3102  2.5126
 5925TIP3   OH217738   2.406   4.661   0.505 -0.3368 -0.1330 -0.1636
 5925TIP3    H117739   2.496   4.630   0.502 -0.2361  0.0305  0.8392
 5925TIP3    H217740   2.354   4.589   0.469  0.0723 -0.7639  0.4821
 5926TIP3   OH217741   1.178   5.211   4.392 -0.5603  0.1001  0.4833
 5926TIP3    H117742   1.142   5.219   4.481 -0.1731  0.4695  0.6113
 5926TIP3    H217743   1.222   5.294   4.377 -1.1602  0.2864 -0.3041
 5927TIP3   OH217744   6.844   3.043   3.855  0.0405 -0.6226  0.9501
 5927TIP3    H117745   6.912   2.990   3.897  1.4114 -0.2061 -0.6058
 5927TIP3    H217746   6.841   3.011   3.764 -0.9223  0.2426  0.6549
 5928TIP3   OH217747   3.174   2.574   4.838  0.2500 -0.1117  0.0162
 5928TIP3    H117748   3.119   2.635   4.789 -0.2616 -0.1269  0.5625
 5928TIP3    H217749   3.113   2.523   4.890  0.7001 -0.8935 -0.2121
 5929TIP3   OH217750   2.661   3.091   4.572 -0.1528 -0.0904 -0.0214
 5929TIP3    H117751   2.587   3.039   4.602 -0.8954 -0.4019 -2.2197
 5929TIP3    H217752   2.738   3.039   4.595 -0.6094 -0.0005  1.8322
 5930TIP3   OH217753   5.312   5.785   1.931 -0.1097  0.2344 -0.0036
 5930TIP3    H117754   5.247   5.743   1.987  1.5393 -1.5557  0.6963
 5930TIP3    H217755   5.397   5.761   1.970  1.0141  1.9095 -1.2491
 5931TIP3   OH217756   0.859   2.925   4.634 -0.5089 -0.3115 -0.1403
 5931TIP3    H117757   0.890   2.877   4.556 -2.1361  0.3705 -1.2613
 5931TIP3    H217758   0.904   2.882   4.707  0.6049 -1.3878 -1.3818
 5932TIP3   OH217759   1.382   4.957   0.360  0.5356  0.2799 -0.1051
 5932TIP3    H117760   1.468   4.990   0.334  0.0125  0.8751 -1.1316
 5932TIP3    H217761   1.392   4.937   0.454  1.4597  1.4089  0.0672
 5933TIP3   OH217762   4.579   0.188   4.045  0.2852 -0.4713  0.5982
 5933TIP3    H117763   4.492   0.150   4.054  1.5821 -3.4821  1.7522
 5933TIP3    H217764   4.616   0.145   3.968  0.6660  1.0074 -0.0697
 5934TIP3   OH217765   0.061   4.474   2.031 -0.0249 -0.3214  0.0536
 5934TIP3    H117766   0.108   4.491   1.950 -0.0220 -0.2924  0.0612
 5934TIP3    H217767   0.129   4.455   2.095  0.0385  0.6041  0.2807
 5935TIP3   OH217768   1.473   1.052   1.246  0.2674  0.3013 -0.4488
 5935TIP3    H117769   1.421   0.989   1.197  0.4305  0.4414 -0.8080
 5935TIP3    H217770   1.419   1.131   1.249  1.1346  1.0421 -2.3515
 5936TIP3   OH217771   3.904   4.011   3.660  0.0813  0.7979  0.3886
 5936TIP3    H117772   3.824   4.061   3.643 -0.2964  0.3691  0.8746
 5936TIP3    H217773   3.924   3.970   3.576 -3.0770 -3.1921  1.2413
 5937TIP3   OH217774   6.037   1.687   0.787  0.5032  0.4133  0.2536
 5937TIP3    H117775   6.030   1.772   0.744  0.0751  0.3043  0.1039
 5937TIP3    H217776   5.987   1.697   0.868  0.1578  0.2038  0.0721
 5938TIP3   OH217777   4.284   3.059   5.569 -0.7330 -0.8198 -0.1669
 5938TIP3    H117778   4.231   2.983   5.595  1.0721 -2.3400 -0.7750
 5938TIP3    H217779   4.308   3.042   5.478  1.0814 -0.3682  0.1902
 5939TIP3   OH217780   3.780   4.270   4.353  0.5111  0.9570 -0.1501
 5939TIP3    H117781   3.694   4.288   4.390 -0.1461  1.0198 -1.6179
 5939TIP3    H217782   3.836   4.341   4.384 -0.3710  1.8022 -0.4612
 5940TIP3   OH217783   5.360   4.338   1.449 -0.5926 -0.1813 -0.1590
 5940TIP3    H117784   5.350   4.282   1.373 -0.3204  1.2496 -1.2860
 5940TIP3    H217785   5.370   4.277   1.523 -2.2921 -1.5935 -1.0291
 5941TIP3   OH217786   6.286   0.980   0.914 -0.3680 -0.0448 -0.3864
 5941TIP3    H117787   6.267   1.074   0.912 -1.9444 -0.2868 -3.5703
 5941TIP3    H217788   6.221   0.944   0.975 -1.3340  0.7156 -0.9279
 5942TIP3   OH217789   0.383   6.712   4.518  0.1887  0.0603 -0.2954
 5942TIP3    H117790   0.365   6.796   4.561 -2.4842 -1.3486  1.6826
 5942TIP3    H217791   0.424   6.658   4.586 -2.2765 -1.5788  0.0345
 5943TIP3   OH217792   6.344   2.647   1.743  0.5672  0.1085  0.1123
 5943TIP3    H117793   6.372   2.587   1.674  1.0014  1.8620 -1.2969
 5943TIP3    H217794   6.286   2.709   1.699 -0.0320  0.6337  1.5657
 5944TIP3   OH217795   4.739   0.906   2.018  0.6641  0.0473  0.5133
 5944TIP3    H117796   4.691   0.824   2.004  0.5282 -0.1242  1.8974
 5944TIP3    H217797   4.821   0.879   2.059  1.3763  0.4671 -0.6005
 5945TIP3   OH217798   6.559   3.515   2.616 -0.5321 -0.2228  0.5044
 5945TIP3    H117799   6.605   3.450   2.563 -0.4883 -1.6921  2.2730
 5945TIP3    H217800   6.467   3.490   2.611 -0.7976  0.8885 -0.5404
 5946TIP3   OH217801   2.158   0.770   5.496 -0.4049  0.2254  0.1872
 5946TIP3    H117802   2.148   0.756   5.402 -1.0934  0.9022  0.1519
 5946TIP3    H217803   2.215   0.846   5.503  0.1342 -0.1842  0.3334
 5947TIP3   OH217804   4.567   0.908   2.951  0.0884  0.1231 -0.2808
 5947TIP3    H117805   4.520   0.826   2.939  2.1423 -1.1017 -0.4744
 5947TIP3    H217806   4.639   0.904   2.888  0.4184  1.9664 -0.0949
 5948TIP3   OH217807   2.909   3.188   1.701  0.2825  0.2292 -0.4248
 5948TIP3    H117808   2.972   3.116   1.691  1.4272  1.0420  0.7182
 5948TIP3    H217809   2.954   3.265   1.667 -0.5627  0.6110 -0.7094
 5949TIP3   OH217810   0.218   1.494   2.855  0.3413 -0.3147  0.1948
 5949TIP3    H117811   0.310   1.490   2.880  0.6186  1.0663 -0.4955
 5949TIP3    H217812   0.214   1.456   2.768 -0.1325 -2.3574  1.0506
 5950TIP3   OH217813   1.466   3.119   4.805 -0.5126  0.3429  0.2126
 5950TIP3    H117814   1.413   3.198   4.815 -1.4517 -0.0107 -1.5096
 5950TIP3    H217815   1.456   3.072   4.888 -2.7125  0.4187  0.0550
 5951TIP3   OH217816   5.514   1.759   1.780 -0.3826  0.9438 -0.0965
 5951TIP3    H117817   5.439   1.740   1.837 -0.6509  0.9613 -0.4371
 5951TIP3    H217818   5.535   1.850   1.797 -1.7804  1.5742 -1.5139
 5952TIP3   OH217819   5.503   2.365   2.010  0.0298 -0.7086  0.1500
 5952TIP3    H117820   5.487   2.453   2.046 -0.4854 -0.9534  0.5344
 5952TIP3    H217821   5.434   2.311   2.049  0.7164 -1.4163  0.3795
 5953TIP3   OH217822   2.874   6.320   5.889 -0.0431 -0.2375  0.8973
 5953TIP3    H117823   2.875   6.403   5.843  0.6670  0.4246  2.0620
 5953TIP3    H217824   2.819   6.263   5.835  1.2299  0.2977 -1.0739
 5954TIP3   OH217825   5.292   6.594   2.362  0.8610  0.0682  0.1385
 5954TIP3    H117826   5.295   6.646   2.282 -0.5197  1.7004  1.0630
 5954TIP3    H217827   5.378   6.554   2.369  1.6716  1.5049 -1.1259
 5955TIP3   OH217828   3.310   5.331   2.058  0.3502 -0.4621 -0.5342
 5955TIP3    H117829   3.300   5.426   2.054  0.3085 -0.4293  0.3122
 5955TIP3    H217830   3.400   5.317   2.088 -0.7716 -0.5994  3.3015
 5956TIP3   OH217831   0.087   3.419   0.847 -0.8771  0.2138  0.2576
 5956TIP3    H117832   0.076   3.409   0.753 -2.0098  0.9751  0.2892
 5956TIP3    H217833   0.123   3.507   0.858 -2.8643  1.0416  0.6178
 5957TIP3   OH217834   6.400   6.173   5.163 -0.0860 -0.7409  0.1453
 5957TIP3    H117835   6.461   6.189   5.090  0.9913  1.6081  1.4054
 5957TIP3    H217836   6.394   6.258   5.207 -1.6230 -1.7759  2.0953
 5958TIP3   OH217837   6.104   2.735   0.648  0.3696  0.2215 -0.2358
 5958TIP3    H117838   6.105   2.831   0.645 -2.2894  0.3067 -0.4997
 5958TIP3    H217839   6.071   2.709   0.562  1.7265 -1.0246 -0.4307
 5959TIP3   OH217840   5.215   4.594   3.096 -0.0633 -0.8263  0.3231
 5959TIP3    H117841   5.226   4.507   3.135 -0.2710 -0.6213  0.8517
 5959TIP3    H217842   5.294   4.642   3.121  1.0052 -1.4456 -1.6233
 5960TIP3   OH217843   3.166   4.350   0.945 -0.3004  0.2295 -0.4705
 5960TIP3    H117844   3.080   4.319   0.916  0.0204  1.2327 -2.6999
 5960TIP3    H217845   3.166   4.444   0.928 -0.3042  1.2125  3.7227
 5961TIP3   OH217846   3.819   2.098   1.529  0.3329 -0.8341  0.1011
 5961TIP3    H117847   3.909   2.120   1.504 -0.8040  3.8453 -0.8312
 5961TIP3    H217848   3.815   2.117   1.623 -0.1985  1.7768 -0.3674
 5962TIP3   OH217849   1.183   3.313   1.149  0.4280  0.3071  0.0713
 5962TIP3    H117850   1.133   3.306   1.068 -1.1596 -0.5844  1.0704
 5962TIP3    H217851   1.118   3.302   1.218  2.0373 -1.2265  1.4438
 5963TIP3   OH217852   6.194   0.537   1.650  0.3367  0.3372  0.3754
 5963TIP3    H117853   6.158   0.626   1.646  0.4802  0.3798 -3.0866
 5963TIP3    H217854   6.288   0.549   1.647  0.4179  0.0476  1.3293
 5964TIP3   OH217855   3.248   6.796   2.568 -0.6415  0.1030  0.1038
 5964TIP3    H117856   3.308   6.727   2.595 -0.5500  0.3176  0.4604
 5964TIP3    H217857   3.302   6.856   2.516 -0.8827 -0.4592 -0.8127
 5965TIP3   OH217858   1.744   4.919   1.812 -0.2519  0.3436  0.1926
 5965TIP3    H117859   1.728   4.986   1.878 -0.9734  1.0005 -0.6271
 5965TIP3    H217860   1.657   4.883   1.794 -0.2054  0.8005 -1.0402
 5966TIP3   OH217861   7.092   5.459   3.875  0.3928  0.2360 -0.0546
 5966TIP3    H117862   7.013   5.457   3.929 -0.4232  0.2610 -1.2031
 5966TIP3    H217863   7.072   5.403   3.800  0.9446  1.2784 -1.0275
 5967TIP3   OH217864   1.210   2.179   4.358 -0.4345  0.2811  0.2624
 5967TIP3    H117865   1.293   2.143   4.390 -1.0316 -1.0054  0.4450
 5967TIP3    H217866   1.232   2.222   4.276  0.6438  1.1532  0.9811
 5968TIP3   OH217867   1.642   2.908   3.577 -0.3083 -0.3594 -0.0479
 5968TIP3    H117868   1.548   2.895   3.584 -0.5322 -0.8198 -2.7089
 5968TIP3    H217869   1.651   2.978   3.511  1.2045  0.8355  1.3463
 5969TIP3   OH217870   1.663   5.762   0.653 -0.1743 -0.0902 -0.2513
 5969TIP3    H117871   1.614   5.844   0.652  0.1137  0.0927 -1.1170
 5969TIP3    H217872   1.661   5.733   0.744 -0.5618  0.7073  0.0042
 5970TIP3   OH217873   6.176   6.575   3.995  0.3350  0.3581  0.6825
 5970TIP3    H117874   6.086   6.574   3.962  0.7759  0.1428 -0.5816
 5970TIP3    H217875   6.178   6.508   4.063 -0.7051  1.0824  1.4699
 5971TIP3   OH217876   1.813   2.198   3.388 -0.2124  0.3222  0.6475
 5971TIP3    H117877   1.820   2.163   3.477 -2.1582 -1.3733  0.2110
 5971TIP3    H217878   1.894   2.248   3.376  2.5683 -3.4348  1.6091
 5972TIP3   OH217879   3.543   0.454   1.083 -0.1101 -0.0008  0.1845
 5972TIP3    H117880   3.594   0.442   1.163 -1.4667 -0.6648  0.9897
 5972TIP3    H217881   3.528   0.365   1.051  1.4426  0.2958 -1.5144
 5973TIP3   OH217882   1.852   5.156   4.184 -0.0534  0.0843 -0.6771
 5973TIP3    H117883   1.844   5.060   4.185 -1.4031  0.1744  0.3081
 5973TIP3    H217884   1.876   5.180   4.273 -1.4138  0.7540 -0.4643
 5974TIP3   OH217885   3.396   3.279   5.406 -0.0329 -0.7129 -0.3248
 5974TIP3    H117886   3.414   3.346   5.341  0.1475 -1.1637 -0.7466
 5974TIP3    H217887   3.443   3.307   5.484 -1.0418  0.3324 -0.0721
 5975TIP3   OH217888   5.963   1.727   5.515 -0.1539  0.4540 -0.1502
 5975TIP3    H117889   6.030   1.739   5.449 -0.2979 -1.4333 -0.6915
 5975TIP3    H217890   5.880   1.729   5.467 -0.2172 -1.9236 -0.2597
 5976TIP3   OH217891   0.739   6.389   4.158  0.0817 -0.2227  0.3174
 5976TIP3    H117892   0.655   6.376   4.202 -0.5422  3.9785  0.7923
 5976TIP3    H217893   0.801   6.406   4.229  1.1667 -2.1847 -0.0964
 5977TIP3   OH217894   3.275   5.899   5.479 -0.0799 -0.2533  0.3334
 5977TIP3    H117895   3.351   5.956   5.491  1.3638 -1.7887 -1.0137
 5977TIP3    H217896   3.259   5.900   5.384 -1.6029 -0.1432  0.5736
 5978TIP3   OH217897   5.480   6.069   0.035 -0.4225 -0.4742  0.4002
 5978TIP3    H117898   5.402   6.033   0.077 -1.7397  0.4726 -1.1255
 5978TIP3    H217899   5.451   6.094  -0.053  1.3446  0.8764  0.1397
 5979TIP3   OH217900   0.123   5.368   1.810  0.3625 -0.3554 -0.5476
 5979TIP3    H117901   0.192   5.334   1.754  1.4937  0.5931  0.2170
 5979TIP3    H217902   0.169   5.416   1.879 -1.1072  2.6950 -1.5216
 5980TIP3   OH217903   4.289   3.601   2.527  0.2833 -0.0556  0.1223
 5980TIP3    H117904   4.329   3.524   2.487  0.9825  0.4834 -0.2317
 5980TIP3    H217905   4.224   3.566   2.588  0.4996 -0.9183 -0.1409
 5981TIP3   OH217906   3.168   0.269   2.589 -0.1101 -0.1024 -1.0299
 5981TIP3    H117907   3.233   0.336   2.567  0.9676 -0.1730  1.6194
 5981TIP3    H217908   3.089   0.296   2.542  1.2660  1.0567 -2.8010
 5982TIP3   OH217909   2.915   0.542   3.418 -0.0047  0.0210 -0.2974
 5982TIP3    H117910   2.942   0.579   3.335 -1.4970  0.9554 -0.4210
 5982TIP3    H217911   2.865   0.463   3.395 -1.8015  1.1331 -0.4665
 5983TIP3   OH217912   1.054   6.155   2.852 -0.1204  0.5366 -0.0660
 5983TIP3    H117913   0.983   6.219   2.865 -0.8303 -0.1904 -0.2506
 5983TIP3    H217914   1.012   6.070   2.864  1.3267  0.1041  2.6508
 5984TIP3   OH217915   4.637   0.703   4.233  0.4679  0.0691 -0.5508
 5984TIP3    H117916   4.627   0.711   4.138 -0.2576  0.6106 -0.4377
 5984TIP3    H217917   4.713   0.646   4.244  0.3151 -0.3338 -1.4573
 5985TIP3   OH217918   3.857   0.466   2.970 -0.2231 -0.3128  0.3477
 5985TIP3    H117919   3.896   0.526   3.034 -0.7629 -0.6161  0.9808
 5985TIP3    H217920   3.769   0.449   3.004 -0.3934 -0.7651 -0.2952
 5986TIP3   OH217921   0.719   2.302   0.580  0.0281  0.1967  0.1604
 5986TIP3    H117922   0.796   2.354   0.603  0.2296  1.1528 -2.3839
 5986TIP3    H217923   0.688   2.339   0.498 -1.6521 -1.8117 -0.2042
 5987TIP3   OH217924   1.424   5.914   0.768 -0.4943  0.0158 -0.6019
 5987TIP3    H117925   1.424   5.827   0.808  1.5037 -0.6462 -1.9185
 5987TIP3    H217926   1.384   5.971   0.834  2.9925 -0.9183  2.6389
 5988TIP3   OH217927   1.551   6.379   4.111 -0.3052  0.5328  0.2545
 5988TIP3    H117928   1.571   6.355   4.021 -0.6408  1.0491  0.0395
 5988TIP3    H217929   1.626   6.346   4.161 -1.2473 -1.9628  0.1523
 5989TIP3   OH217930   3.219   0.875   3.579  0.0789 -0.1426  0.0446
 5989TIP3    H117931   3.175   0.791   3.587  0.3845 -0.3097 -0.0295
 5989TIP3    H217932   3.232   0.886   3.485 -1.8939  0.9862 -0.1529
 5990TIP3   OH217933   2.455   6.341   4.483  0.7652 -0.1025  0.3325
 5990TIP3    H117934   2.422   6.326   4.571  0.7606  0.8703  0.5082
 5990TIP3    H217935   2.545   6.370   4.496  1.1343 -1.0286 -0.0515
 5991TIP3   OH217936   5.584   1.578   1.584 -0.2305  0.1800 -0.6855
 5991TIP3    H117937   5.563   1.636   1.657 -0.9498 -0.9255  0.0140
 5991TIP3    H217938   5.532   1.499   1.600  1.7975 -1.2750 -0.7891
 5992TIP3   OH217939   2.282   5.599   2.477  0.2225  0.9019  0.1822
 5992TIP3    H117940   2.330   5.587   2.559 -0.8153 -0.9890  0.5447
 5992TIP3    H217941   2.285   5.514   2.434 -0.5582  1.4628 -1.0453
 5993TIP3   OH217942   6.084   5.648   5.290 -0.1422 -0.0705  0.2961
 5993TIP3    H117943   6.176   5.632   5.311 -0.2960 -2.3320 -0.5601
 5993TIP3    H217944   6.085   5.676   5.199 -0.2036  1.5606  0.7615
 5994TIP3   OH217945   5.819   6.108   1.904 -0.4834  1.0933  0.2362
 5994TIP3    H117946   5.752   6.121   1.837  0.1347  1.3787 -0.3443
 5994TIP3    H217947   5.901   6.132   1.860  0.2222 -0.8480  0.3705
 5995TIP3   OH217948   0.396   0.910   2.962 -0.1399  0.2521 -0.0846
 5995TIP3    H117949   0.432   0.995   2.988 -0.4811  0.1507  0.7424
 5995TIP3    H217950   0.303   0.916   2.982 -0.8738  0.8480 -3.0574
 5996TIP3   OH217951   5.569   2.208   5.112 -0.1633  0.2822  0.0051
 5996TIP3    H117952   5.543   2.116   5.107 -0.7300  0.4986 -1.5516
 5996TIP3    H217953   5.649   2.208   5.165  0.1348 -1.1607 -0.4041
 5997TIP3   OH217954   3.047   6.690   3.841 -0.0671  0.0572 -0.2867
 5997TIP3    H117955   3.067   6.777   3.806 -1.1557 -0.3734 -2.1258
 5997TIP3    H217956   2.953   6.681   3.827 -0.0412 -1.2503  0.2941
 5998TIP3   OH217957   5.961   4.528   2.834  0.3044  0.3442 -0.2765
 5998TIP3    H117958   5.957   4.548   2.927  2.2016 -2.2237  0.4513
 5998TIP3    H217959   5.870   4.514   2.808 -0.1791  0.2026  1.4181
 5999TIP3   OH217960   4.031   2.650   3.178 -0.0751 -0.1772 -0.4111
 5999TIP3    H117961   3.973   2.576   3.199 -1.1358  0.8412  0.3636
 5999TIP3    H217962   4.102   2.611   3.127  0.2087 -2.0257  1.2525
 6000TIP3   OH217963   5.335   3.066   5.734 -0.3912  0.4550  0.0373
 6000TIP3    H117964   5.288   3.034   5.811  0.9237 -3.0729 -0.4265
 6000TIP3    H217965   5.414   3.107   5.770  0.0566 -0.8752  0.6419
 6001TIP3   OH217966   3.430   2.095   4.878  0.3205 -0.9004  0.1255
 6001TIP3    H117967   3.462   2.134   4.797  1.3201  0.9238  1.3257
 6001TIP3    H217968   3.462   2.005   4.876  0.8127 -0.7100 -1.2323
 6002TIP3   OH217969   4.027   6.434   0.488 -0.5501  0.2414  0.2463
 6002TIP3    H117970   4.089   6.405   0.421  1.2392  1.2420  1.3875
 6002TIP3    H217971   3.990   6.515   0.454 -0.4078  0.2144  0.0300
 6003TIP3   OH217972   4.498   3.755   4.256  0.2546 -0.8610  0.2721
 6003TIP3    H117973   4.540   3.679   4.216  1.9466 -0.4715  1.1775
 6003TIP3    H217974   4.511   3.743   4.350 -0.1411  0.1406  0.4716
 6004TIP3   OH217975   2.920   1.720   4.073  0.1767  0.1590  0.2117
 6004TIP3    H117976   3.004   1.681   4.097  0.3631  1.5308  1.9786
 6004TIP3    H217977   2.942   1.789   4.012  0.1663 -0.4040 -0.4407
 6005TIP3   OH217978   4.430   6.453   5.392  0.0514  0.0615 -0.1959
 6005TIP3    H117979   4.485   6.376   5.408 -1.8918 -1.2016  0.8870
 6005TIP3    H217980   4.388   6.471   5.476 -1.3824  0.7650 -1.0186
 6006TIP3   OH217981   3.818   5.537   4.154 -0.1935 -0.0696  0.1186
 6006TIP3    H117982   3.795   5.463   4.098  0.3607 -1.4335  1.6390
 6006TIP3    H217983   3.740   5.552   4.207 -0.2027  0.2767  0.0148
 6007TIP3   OH217984   1.310   4.867   5.057  0.2824  0.0188  0.4058
 6007TIP3    H117985   1.351   4.783   5.037 -0.7294 -0.1953 -0.9177
 6007TIP3    H217986   1.271   4.895   4.974  0.8517  1.9422  0.7364
 6008TIP3   OH217987   1.562   6.526   2.560  0.1016  0.3443 -0.8963
 6008TIP3    H117988   1.539   6.593   2.496 -1.5195  0.0972 -0.6180
 6008TIP3    H217989   1.479   6.485   2.583  0.7445 -0.1198  0.7690
 6009TIP3   OH217990   2.844   1.497   0.526 -0.4512 -0.0769 -0.3806
 6009TIP3    H117991   2.779   1.549   0.573 -0.6427  1.8091 -2.5540
 6009TIP3    H217992   2.918   1.557   0.513  0.8420 -1.5064  0.1361
 6010TIP3   OH217993   0.028   5.531   0.519  0.0048  0.9201 -0.1565
 6010TIP3    H117994   0.003   5.527   0.426 -1.2285  0.6563  0.1762
 6010TIP3    H217995  -0.029   5.599   0.556 -0.6100 -0.0689  0.7377
 6011TIP3   OH217996   4.897   3.660   5.843 -0.0791  0.1002  0.5260
 6011TIP3    H117997   4.939   3.581   5.876  0.0549 -0.4786 -0.9805
 6011TIP3    H217998   4.843   3.691   5.916  0.7109 -0.7588  1.4973
 6012TIP3   OH217999   5.878   4.890   3.823 -0.2550  0.5174  0.2422
 6012TIP3    H118000   5.883   4.879   3.918  2.4154 -1.3660  0.0084
 6012TIP3    H218001   5.910   4.979   3.807  1.0294  0.2280  1.0510
 6013TIP3   OH218002   1.787   2.052   0.127  0.1678 -0.1133 -0.4619
 6013TIP3    H118003   1.807   2.139   0.092 -0.2276  0.1346 -0.0769
 6013TIP3    H218004   1.857   1.996   0.093 -1.0304 -0.2251 -2.9880
 6014TIP3   OH218005   6.649   2.187   2.356 -0.1099  0.0296 -0.5253
 6014TIP3    H118006   6.651   2.213   2.448 -1.0976 -2.2016  0.1969
 6014TIP3    H218007   6.645   2.270   2.308  0.6778  1.2624  1.3991
 6015TIP3   OH218008   0.171   3.980   1.457 -0.0226 -0.2537 -0.8471
 6015TIP3    H118009   0.226   3.923   1.511  0.4804 -1.1159 -2.2219
 6015TIP3    H218010   0.104   4.013   1.518  2.2436  1.2421  0.9964
 6016TIP3   OH218011   0.980   2.591   2.579 -0.1647  0.4396  0.4750
 6016TIP3    H118012   0.922   2.527   2.539  0.2504  1.3944 -1.7765
 6016TIP3    H218013   0.935   2.617   2.660 -2.9095  1.1161 -1.1393
 6017TIP3   OH218014   0.242   2.296   3.274 -0.2988 -0.7902 -0.0748
 6017TIP3    H118015   0.193   2.268   3.197  1.1029  0.0049 -1.3203
 6017TIP3    H218016   0.219   2.389   3.285 -0.1157 -0.7686  0.1417
 6018TIP3   OH218017   2.285   0.528   2.031  0.1903  0.1181 -0.1683
 6018TIP3    H118018   2.282   0.513   1.937  0.3875 -0.2295 -0.1225
 6018TIP3    H218019   2.360   0.586   2.043 -2.3886  3.8521 -0.6764
 6019TIP3   OH218020   5.934   4.851   0.607 -0.7368  0.4513  0.8948
 6019TIP3    H118021   5.946   4.819   0.696 -1.2767 -1.9478  0.1772
 6019TIP3    H218022   5.841   4.841   0.591 -0.4626 -0.3679 -0.3306
 6020TIP3   OH218023   0.997   2.120   4.508 -0.0574 -0.0932 -0.5685
 6020TIP3    H118024   0.925   2.181   4.529  0.8219  1.0389 -0.7245
 6020TIP3    H218025   1.069   2.177   4.480  1.0352 -1.1656 -0.0454
 6021TIP3   OH218026   0.775   4.301   5.312 -0.2038  0.7165 -0.5433
 6021TIP3    H118027   0.755   4.383   5.358 -0.5210  1.1455 -1.4192
 6021TIP3    H218028   0.701   4.244   5.332  0.8696 -0.0471  1.5676
 6022TIP3   OH218029   4.724   5.180   1.417  0.0364  0.0303 -0.0516
 6022TIP3    H118030   4.779   5.235   1.474 -0.8478  0.2615  0.6034
 6022TIP3    H218031   4.715   5.098   1.465  0.1029 -0.1426 -0.3305
 6023TIP3   OH218032   6.989   2.731   2.479  0.2120 -0.2882 -0.3758
 6023TIP3    H118033   6.939   2.675   2.419  0.6654 -0.6781 -0.3944
 6023TIP3    H218034   7.079   2.699   2.472  0.2002 -0.6295  0.8287
 6024TIP3   OH218035   4.413   4.440   1.345 -0.0813 -0.1000 -1.0939
 6024TIP3    H118036   4.327   4.402   1.361 -0.3382 -0.1552 -2.4748
 6024TIP3    H218037   4.458   4.433   1.429 -1.3311 -0.2829 -0.4073
 6025TIP3   OH218038   1.077   3.557   3.775 -0.1150  0.4546  0.7112
 6025TIP3    H118039   1.168   3.527   3.779 -0.4750 -0.7146  0.3812
 6025TIP3    H218040   1.050   3.538   3.685 -0.0727  2.6688  0.1718
 6026TIP3   OH218041   5.876   0.100   0.582 -0.3767  0.2629 -0.0308
 6026TIP3    H118042   5.829   0.047   0.646 -0.2206 -0.6381 -0.6513
 6026TIP3    H218043   5.830   0.184   0.583 -0.9281 -0.0338  0.6077
 6027TIP3   OH218044   1.900   5.705   4.377  0.0039  0.1460 -0.1182
 6027TIP3    H118045   1.832   5.773   4.380 -1.3856 -1.2179  1.0272
 6027TIP3    H218046   1.851   5.623   4.381  1.5735 -0.9916 -2.3668
 6028TIP3   OH218047   1.562   5.931   1.412  0.1244  0.0472 -0.3465
 6028TIP3    H118048   1.586   5.852   1.363  1.2287 -0.9985  1.7248
 6028TIP3    H218049   1.636   5.990   1.400  1.4406 -1.0649  1.6853
 6029TIP3   OH218050   1.371   6.315   1.084 -0.1114  0.3503  0.1683
 6029TIP3    H118051   1.416   6.360   1.013 -3.2750  1.4108 -1.3153
 6029TIP3    H218052   1.345   6.231   1.046  0.0398  0.0221  0.7802
 6030TIP3   OH218053   2.040   2.524   5.648 -0.7420  0.4353 -0.0100
 6030TIP3    H118054   2.123   2.514   5.600 -0.6940 -0.7583  0.2908
 6030TIP3    H218055   2.031   2.618   5.661 -0.0141  0.6682 -1.0690
 6031TIP3   OH218056   6.432   5.691   0.126 -0.3273 -0.5820 -0.6307
 6031TIP3    H118057   6.345   5.698   0.165  0.0135 -0.4833  0.1367
 6031TIP3    H218058   6.455   5.782   0.104 -0.8830 -0.7273 -1.9190
 6032TIP3   OH218059   4.491   6.085   4.694  0.2734  0.2903  0.6435
 6032TIP3    H118060   4.409   6.115   4.654 -0.4483 -0.1156  1.7837
 6032TIP3    H218061   4.540   6.166   4.712 -0.5557  0.6454  1.3752
 6033TIP3   OH218062   3.708   4.068   4.878  0.2501  0.5125 -0.2158
 6033TIP3    H118063   3.655   4.065   4.798 -1.0463  2.0345  0.5284
 6033TIP3    H218064   3.780   4.007   4.861 -0.9940 -0.6142 -1.8013
 6034TIP3   OH218065   0.536   2.917   2.967  0.4173 -0.0254 -0.0102
 6034TIP3    H118066   0.528   2.949   3.057  0.1562 -1.0056  0.3350
 6034TIP3    H218067   0.465   2.959   2.920 -0.0001 -0.1877  0.4640
 6035TIP3   OH218068   6.574   1.967   0.033  0.8368  0.1204  0.2852
 6035TIP3    H118069   6.490   1.927   0.055  0.5462 -0.5244 -1.7638
 6035TIP3    H218070   6.618   1.901  -0.021  1.5623  1.4437 -0.7940
 6036TIP3   OH218071   4.244   4.535   2.351 -0.8736 -0.4215 -0.4636
 6036TIP3    H118072   4.290   4.619   2.348 -2.2011  0.3221 -0.3641
 6036TIP3    H218073   4.285   4.489   2.425  0.6422 -0.3586 -1.2174
 6037TIP3   OH218074   4.977   0.384   1.499  0.6975 -0.6673  0.5132
 6037TIP3    H118075   5.046   0.395   1.433  0.6454 -3.2588 -0.0808
 6037TIP3    H218076   5.004   0.307   1.549 -0.8892 -0.6694  1.4346
 6038TIP3   OH218077   1.952   2.773   5.441 -0.0802  0.4490  0.2272
 6038TIP3    H118078   1.994   2.793   5.524  1.5999 -1.4524 -0.0733
 6038TIP3    H218079   2.001   2.698   5.407 -0.5130  1.3327 -2.6238
 6039TIP3   OH218080   3.010   2.281   4.939 -0.4534 -0.1465  0.4850
 6039TIP3    H118081   2.938   2.331   4.976 -0.3520  0.7199 -0.4193
 6039TIP3    H218082   3.058   2.247   5.014 -1.0345  0.4049  1.1125
 6040TIP3   OH218083   6.879   0.012   1.544 -0.3783  0.0067 -0.3307
 6040TIP3    H118084   6.919   0.093   1.575  0.0585  0.5521 -2.1550
 6040TIP3    H218085   6.952  -0.049   1.535 -0.4468 -0.0494 -0.5201
 6041TIP3   OH218086   5.859   5.231   4.726  0.9810 -0.4706  0.0922
 6041TIP3    H118087   5.766   5.253   4.723  1.2171  0.5659 -1.9131
 6041TIP3    H218088   5.903   5.313   4.747  1.4979 -0.6026 -0.4126
 6042TIP3   OH218089   0.157   3.619   5.239 -0.3219 -0.0771  0.4370
 6042TIP3    H118090   0.245   3.658   5.243 -0.1262 -0.2213 -1.5577
 6042TIP3    H218091   0.098   3.692   5.258  0.0866  1.0516 -2.2163
 6043TIP3   OH218092   3.995   1.182   5.642 -0.0555  0.3731 -0.1198
 6043TIP3    H118093   4.074   1.235   5.643  0.1212  0.1499  1.6243
 6043TIP3    H218094   4.005   1.124   5.567  1.1722  0.7334 -0.2511
 6044TIP3   OH218095   1.568   1.742   2.575  0.2938 -0.0484  0.1433
 6044TIP3    H118096   1.561   1.716   2.483  1.1411  0.3604 -0.0446
 6044TIP3    H218097   1.509   1.816   2.584  0.2722 -0.0372 -0.0882
 6045TIP3   OH218098   0.563   2.102  -0.019  0.2440 -0.0217  0.1721
 6045TIP3    H118099   0.610   2.182   0.004 -1.4621  1.6414 -1.7523
 6045TIP3    H218100   0.500   2.090   0.053 -0.8217  1.5496 -0.4434
 6046TIP3   OH218101   6.708   6.808   2.445  0.0534 -0.1079  0.0224
 6046TIP3    H118102   6.655   6.739   2.484 -0.1759  0.4807  0.7777
 6046TIP3    H218103   6.726   6.777   2.357 -1.3602 -0.4269 -0.1811
 6047TIP3   OH218104   6.820   3.784   3.101 -0.8203  0.9176  0.7280
 6047TIP3    H118105   6.914   3.766   3.091 -0.7378  0.5863  1.9931
 6047TIP3    H218106   6.790   3.802   3.012 -0.1828 -1.9090 -0.1714
 6048TIP3   OH218107   2.726   3.942   4.797 -0.4738 -0.5710 -0.2875
 6048TIP3    H118108   2.676   4.023   4.809 -0.6655 -0.5810 -1.0102
 6048TIP3    H218109   2.709   3.916   4.707  0.9866 -0.4709 -0.6156
 6049TIP3   OH218110   0.144   6.480   5.657  0.7863  0.3981 -0.8930
 6049TIP3    H118111   0.092   6.448   5.583 -0.8057  1.4247 -0.2770
 6049TIP3    H218112   0.084   6.538   5.705  0.8426 -2.2397  2.7325
 6050TIP3   OH218113   6.880   1.806   2.572 -0.4386 -0.1673  0.4719
 6050TIP3    H118114   6.839   1.850   2.497  1.8065  1.1835 -0.0475
 6050TIP3    H218115   6.920   1.728   2.534 -1.5196 -0.8955  0.7825
 6051TIP3   OH218116   4.074   0.453   1.079  0.1405  0.2441 -0.2691
 6051TIP3    H118117   4.018   0.406   1.141 -0.8932 -0.3543 -1.6153
 6051TIP3    H218118   4.096   0.388   1.012 -0.0297  1.2534 -1.3455
 6052TIP3   OH218119   0.115   4.247   2.449  0.0077  0.2487 -0.2241
 6052TIP3    H118120   0.131   4.330   2.405 -0.2584  0.6347  0.3842
 6052TIP3    H218121   0.070   4.271   2.530  1.3782 -0.3526  0.7465
 6053TIP3   OH218122   5.724   5.453   3.277  0.1033  0.6622 -0.3441
 6053TIP3    H118123   5.629   5.456   3.294 -0.1393  1.0057 -1.6645
 6053TIP3    H218124   5.752   5.370   3.315 -0.3747  1.3817  1.6997
 6054TIP3   OH218125   0.673   3.669   1.905 -0.0113  0.0096  0.6583
 6054TIP3    H118126   0.683   3.722   1.826  0.3443  0.2902  0.8857
 6054TIP3    H218127   0.609   3.602   1.882  1.7389 -1.3432 -0.6356
 6055TIP3   OH218128   1.289   2.119   1.796 -0.4007 -0.2030 -0.0349
 6055TIP3    H118129   1.325   2.207   1.781 -0.5205 -0.0333  0.6307
 6055TIP3    H218130   1.217   2.111   1.734  0.5482 -0.4146 -1.1530
 6056TIP3   OH218131   6.678   0.644   3.871 -0.0973 -0.2739  0.1057
 6056TIP3    H118132   6.697   0.699   3.946 -1.6944 -0.9452  1.0527
 6056TIP3    H218133   6.652   0.705   3.802  0.1464  0.2748  0.4923
 6057TIP3   OH218134   4.621   3.010   5.099  0.0542  0.3922 -0.2791
 6057TIP3    H118135   4.607   3.027   5.192 -1.1015  2.1669 -0.7309
 6057TIP3    H218136   4.595   3.091   5.055  2.0290  0.1657 -2.0594
 6058TIP3   OH218137   6.816   0.109   2.221 -0.0923 -0.0481 -0.6913
 6058TIP3    H118138   6.882   0.149   2.278 -0.3156 -1.2098  0.4474
 6058TIP3    H218139   6.866   0.068   2.151  0.5367 -1.7558  0.6864
 6059TIP3   OH218140   1.341   3.680   1.811  0.5554 -0.1093 -0.1382
 6059TIP3    H118141   1.392   3.702   1.890  0.6672 -0.0719 -0.2207
 6059TIP3    H218142   1.401   3.697   1.739  0.7472 -0.9443 -0.1918
 6060TIP3   OH218143   0.769   4.423   0.330 -0.2253  0.2585  0.2513
 6060TIP3    H118144   0.845   4.481   0.321 -0.5119  0.4978 -0.7042
 6060TIP3    H218145   0.711   4.448   0.258 -1.1434 -0.0377  0.8739
 6061TIP3   OH218146   5.378   0.066   2.565 -0.2085 -0.6542  0.6466
 6061TIP3    H118147   5.464   0.041   2.598 -0.6537 -2.0096  0.8091
 6061TIP3    H218148   5.332  -0.016   2.550 -1.4685  0.0449  0.5044
 6062TIP3   OH218149   3.697   1.208   2.368  0.0738 -0.1329 -0.0095
 6062TIP3    H118150   3.771   1.267   2.360 -0.1559  0.3516  1.1690
 6062TIP3    H218151   3.648   1.241   2.444 -1.4488 -0.3171 -0.8656
 6063TIP3   OH218152   7.149   3.288   4.390  0.4250  0.3714 -0.4151
 6063TIP3    H118153   7.159   3.256   4.479  2.4470 -2.0415 -1.3835
 6063TIP3    H218154   7.063   3.256   4.362  0.6557 -0.7066  0.0385
 6064TIP3   OH218155   2.077   6.676   1.463 -0.4186 -0.0947 -0.0300
 6064TIP3    H118156   2.080   6.676   1.559 -3.2401  0.9297  0.1412
 6064TIP3    H218157   2.134   6.603   1.438 -0.3650 -1.0167  2.4479
 6065TIP3   OH218158   5.010   0.889   2.577  0.0585 -0.4679  0.4960
 6065TIP3    H118159   5.034   0.796   2.579  0.4146 -0.3749  0.7964
 6065TIP3    H218160   4.934   0.894   2.519  0.0580 -0.9426  0.4564
 6066TIP3   OH218161   3.798   4.547   2.824  0.1698 -0.3692  0.4100
 6066TIP3    H118162   3.716   4.587   2.853  0.6545  0.4424  0.6982
 6066TIP3    H218163   3.772   4.462   2.789 -1.1994  1.0405 -2.2849
 6067TIP3   OH218164   7.205   0.183   4.779  0.3326 -0.4023 -0.1736
 6067TIP3    H118165   7.115   0.217   4.776 -0.1917 -1.7713 -0.5747
 6067TIP3    H218166   7.256   0.247   4.730 -0.1903  0.9922  1.0127
 6068TIP3   OH218167   4.856   5.123   2.047  0.0278  0.0129 -0.2024
 6068TIP3    H118168   4.857   5.075   2.130 -0.7975  0.5021  0.0936
 6068TIP3    H218169   4.899   5.206   2.067 -0.0209  0.0635 -0.3116
 6069TIP3   OH218170   5.237   4.563   2.535 -0.0529  0.8136  0.1524
 6069TIP3    H118171   5.302   4.507   2.495 -1.0447 -0.8091  0.7299
 6069TIP3    H218172   5.162   4.561   2.475 -0.4122  0.8275  0.5877
 6070TIP3   OH218173   6.550   0.963   3.429  0.4078 -0.3448  0.6534
 6070TIP3    H118174   6.487   0.999   3.491 -0.3834  0.3936 -0.5387
 6070TIP3    H218175   6.507   0.968   3.344  1.7256 -0.6849 -0.0773
 6071TIP3   OH218176   2.338   5.814   3.850  0.2230 -0.0982  0.8445
 6071TIP3    H118177   2.292   5.780   3.773 -1.4703  2.7567  0.4462
 6071TIP3    H218178   2.276   5.802   3.922  0.6033 -0.0334  1.1884
 6072TIP3   OH218179   7.113   4.514   5.220 -0.0913  0.7081 -0.0127
 6072TIP3    H118180   7.023   4.507   5.186 -0.6918  2.4645  1.1266
 6072TIP3    H218181   7.116   4.599   5.263  1.7786  0.1590  1.0314
 6073TIP3   OH218182   6.339   6.552   2.195  0.5192  0.1710  0.0107
 6073TIP3    H118183   6.369   6.462   2.203 -0.8912 -0.6001 -2.1947
 6073TIP3    H218184   6.416   6.601   2.165  0.6482 -0.9526 -1.6590
 6074TIP3   OH218185   3.765   6.594   0.869  0.3459  0.1871  0.2573
 6074TIP3    H118186   3.850   6.611   0.827  1.4143 -3.2879  0.6808
 6074TIP3    H218187   3.729   6.520   0.821 -0.0013 -1.6874  3.1181
 6075TIP3   OH218188   3.063   3.869   3.729  0.1204 -0.1289  0.2809
 6075TIP3    H118189   3.007   3.905   3.660  1.4849 -0.6203 -1.1659
 6075TIP3    H218190   3.109   3.945   3.765 -0.5125  0.1211  0.5601
 6076TIP3   OH218191   6.847   1.001   3.140  0.0474 -1.1165  0.0044
 6076TIP3    H118192   6.933   0.966   3.163  0.2783 -0.7777 -0.3182
 6076TIP3    H218193   6.866   1.087   3.102 -0.6431  0.4953  3.0086
 6077TIP3   OH218194   3.060   0.318   0.962 -0.2811  0.1054  0.0488
 6077TIP3    H118195   3.041   0.412   0.961 -0.5211  0.0534 -0.3156
 6077TIP3    H218196   3.020   0.284   0.882  0.6943 -0.1360 -0.3541
 6078TIP3   OH218197   4.743   1.615   5.611 -0.1829 -0.3120 -0.1577
 6078TIP3    H118198   4.659   1.578   5.584 -0.3341 -1.1674  1.3592
 6078TIP3    H218199   4.778   1.655   5.532 -2.7667  1.5905 -0.4974
 6079TIP3   OH218200   1.238   3.156   2.306  0.3784  0.2215 -0.4400
 6079TIP3    H118201   1.164   3.176   2.248  0.8836 -0.8727 -1.4859
 6079TIP3    H218202   1.268   3.070   2.278  2.2527  0.7752 -0.2206
 6080TIP3   OH218203   5.389   0.732   0.188  0.4426  0.1221 -0.0918
 6080TIP3    H118204   5.412   0.699   0.275  0.3757 -0.2249 -0.2007
 6080TIP3    H218205   5.293   0.725   0.184  0.4798 -0.2813 -0.3534
 6081TIP3   OH218206   5.570   6.414   3.274 -0.1595 -0.2487  0.4198
 6081TIP3    H118207   5.482   6.396   3.307  0.3626 -1.2115  1.3345
 6081TIP3    H218208   5.618   6.332   3.285  1.2231  0.6195  1.1839
 6082TIP3   OH218209   5.141   0.494   4.198 -0.1318 -0.0143 -0.2040
 6082TIP3    H118210   5.198   0.532   4.265  0.3641 -0.5544 -0.3035
 6082TIP3    H218211   5.121   0.406   4.231 -0.0420 -0.2126 -0.6664
 6083TIP3   OH218212   2.690   1.961   5.867  0.0466 -0.7079 -0.4063
 6083TIP3    H118213   2.770   1.953   5.814 -0.4805  1.0129 -1.5336
 6083TIP3    H218214   2.712   2.024   5.935  0.1107 -1.4204  0.2418
 6084TIP3   OH218215   1.149   1.555   1.753  0.9335 -0.2446  0.1446
 6084TIP3    H118216   1.214   1.492   1.723  0.9395  0.5179 -1.5554
 6084TIP3    H218217   1.198   1.636   1.765  0.6712 -0.1970  0.9589
 6085TIP3   OH218218   7.088   3.525   5.610 -0.8668  0.1820 -0.2234
 6085TIP3    H118219   7.168   3.527   5.559 -0.9616  2.4605 -0.4118
 6085TIP3    H218220   7.105   3.463   5.680  0.5121 -0.4418 -1.0756
 6086TIP3   OH218221   1.700   4.708   5.451  0.1305  0.2612  0.7476
 6086TIP3    H118222   1.746   4.640   5.500  1.8441  0.4557 -0.4967
 6086TIP3    H218223   1.693   4.673   5.363 -0.1212  1.1817  0.3940
 6087TIP3   OH218224   2.430   1.191   2.818 -0.0010  0.3835  0.2132
 6087TIP3    H118225   2.383   1.109   2.803 -0.1593  0.5220 -0.0407
 6087TIP3    H218226   2.407   1.246   2.744  0.4980  0.4813  0.1328
 6088TIP3   OH218227   5.506   5.763   0.279 -0.4955  0.4622  0.0360
 6088TIP3    H118228   5.480   5.685   0.330  3.0314  0.5441  2.3697
 6088TIP3    H218229   5.581   5.733   0.227 -0.3569  1.8298 -0.5842
 6089TIP3   OH218230   6.593   6.156   4.655  0.1235  0.3768 -0.1935
 6089TIP3    H118231   6.654   6.100   4.606  0.7324 -0.1805  1.1735
 6089TIP3    H218232   6.507   6.133   4.619  0.2282 -2.1885  0.9384
 6090TIP3   OH218233   3.433   3.129   0.864 -0.3915  0.0146  0.4913
 6090TIP3    H118234   3.450   3.046   0.819  0.8009 -0.2554  1.3806
 6090TIP3    H218235   3.427   3.194   0.793  2.0451 -0.2899 -0.1125
 6091TIP3   OH218236   1.821   0.930   0.535 -0.6582 -0.0785 -0.7765
 6091TIP3    H118237   1.887   0.926   0.467  0.2873  1.5062 -0.0184
 6091TIP3    H218238   1.779   0.844   0.534  2.4101 -1.7232 -0.2808
 6092TIP3   OH218239   4.839   3.789   4.108  0.3397  0.1362  0.3485
 6092TIP3    H118240   4.808   3.830   4.028  0.3359  3.3668  1.8575
 6092TIP3    H218241   4.760   3.757   4.152  0.2736 -0.9664 -0.5395
 6093TIP3   OH218242   5.822   2.143   2.122 -0.0618 -0.5684  0.1484
 6093TIP3    H118243   5.827   2.069   2.062 -3.5113 -0.5953 -0.3218
 6093TIP3    H218244   5.810   2.219   2.065  1.8686  0.1887  0.6869
 6094TIP3   OH218245   6.444   0.507   4.633  0.0377 -0.4684 -0.0801
 6094TIP3    H118246   6.539   0.500   4.636  0.0623 -0.4728 -0.7591
 6094TIP3    H218247   6.413   0.442   4.697  0.4839 -0.5341  0.0709
 6095TIP3   OH218248   0.763   3.855   0.054  0.7360  0.3047 -0.3890
 6095TIP3    H118249   0.675   3.825   0.078  0.1978  0.8613 -1.6038
 6095TIP3    H218250   0.785   3.806  -0.025  1.4048  0.3969 -0.2715
 6096TIP3   OH218251   4.685   1.990   3.387 -0.0237 -0.5560  0.0208
 6096TIP3    H118252   4.726   1.908   3.360  0.6040 -0.3887  0.4651
 6096TIP3    H218253   4.624   1.964   3.457  0.6202 -0.5689  0.5871
 6097TIP3   OH218254   0.478   2.298   0.982  0.0189  0.2331  0.1370
 6097TIP3    H118255   0.467   2.386   0.946 -0.7991 -0.1802 -0.6612
 6097TIP3    H218256   0.513   2.247   0.909 -2.2279 -0.7610 -0.3152
 6098TIP3   OH218257   3.523   5.609   3.141 -0.0710 -0.1112 -0.2148
 6098TIP3    H118258   3.536   5.522   3.179  0.7424 -0.0402 -0.3314
 6098TIP3    H218259   3.484   5.660   3.212  0.4989 -0.2622  0.2123
 6099TIP3   OH218260   4.089   1.014   1.759  0.3829 -0.1584  0.5754
 6099TIP3    H118261   4.154   1.084   1.755  0.2001 -0.0396 -3.0666
 6099TIP3    H218262   4.135   0.940   1.798  1.4716  1.0537  1.6726
 6100TIP3   OH218263   5.668   1.254   2.169 -0.3086 -0.3720 -0.6628
 6100TIP3    H118264   5.686   1.165   2.199  0.5446 -0.2397 -0.7783
 6100TIP3    H218265   5.711   1.260   2.084  0.9418  0.6311  0.0135
 6101TIP3   OH218266   7.071   5.240   2.731 -0.1817 -0.0769 -0.4402
 6101TIP3    H118267   7.134   5.311   2.723  0.1354 -0.2734  0.2138
 6101TIP3    H218268   6.988   5.278   2.702  0.3486 -0.0127 -1.9511
 6102TIP3   OH218269   4.142   0.844   3.933  0.1483 -0.4241 -0.6718
 6102TIP3    H118270   4.113   0.888   3.853  0.7158 -0.6435 -1.0057
 6102TIP3    H218271   4.207   0.780   3.903  0.4434 -0.4379 -0.0255
 6103TIP3   OH218272   5.251   2.751   5.425  0.3201  0.8425 -0.0431
 6103TIP3    H118273   5.179   2.766   5.365 -0.6115 -1.3013  0.4484
 6103TIP3    H218274   5.215   2.694   5.493  2.5409 -0.5983  0.0359
 6104TIP3   OH218275   5.213   3.909   5.861 -0.1952  0.3647  0.0213
 6104TIP3    H118276   5.265   3.890   5.783 -1.2917  0.4201 -0.7513
 6104TIP3    H218277   5.138   3.958   5.828 -0.0956  1.4177  1.2811
 6105TIP3   OH218278   1.650   4.090   4.131  0.5285  0.2142 -0.4790
 6105TIP3    H118279   1.686   4.035   4.062  1.5482  0.6166 -0.2856
 6105TIP3    H218280   1.610   4.164   4.085  2.6868  1.3634 -0.6318
 6106TIP3   OH218281   5.746   0.209  -0.005  0.3851  0.1740  0.3802
 6106TIP3    H118282   5.730   0.178   0.084  1.4804  0.6554  0.7565
 6106TIP3    H218283   5.742   0.305   0.002 -0.1542  0.2033 -0.2190
 6107TIP3   OH218284   0.640   5.463   3.405  0.5229  0.3310 -0.5622
 6107TIP3    H118285   0.683   5.383   3.434  0.5348 -0.0327 -1.5406
 6107TIP3    H218286   0.675   5.531   3.463  0.2927 -0.4079  0.4640
 6108TIP3   OH218287   4.385   2.138   0.311  0.3891  0.2101 -0.8426
 6108TIP3    H118288   4.308   2.155   0.256  0.0770 -0.3583 -0.5993
 6108TIP3    H218289   4.382   2.043   0.326 -0.8774  0.6223  2.0724
 6109TIP3   OH218290   3.715   4.767   1.420  0.4354 -0.1907 -0.0217
 6109TIP3    H118291   3.659   4.702   1.378  0.0054  1.1519 -1.6151
 6109TIP3    H218292   3.780   4.790   1.354  0.7461  0.7976  0.5993
 6110TIP3   OH218293   4.174   4.364   2.130  0.0366  0.0825  0.0243
 6110TIP3    H118294   4.105   4.310   2.169  0.4379 -1.6987 -1.5994
 6110TIP3    H218295   4.203   4.421   2.201 -0.2713 -1.9874  1.9096
 6111TIP3   OH218296   4.975   1.737   1.387  0.1831  0.3807 -0.1126
 6111TIP3    H118297   4.953   1.650   1.419  0.4536  0.8681  1.4841
 6111TIP3    H218298   5.069   1.733   1.371  0.0177  0.0840 -1.0701
 6112TIP3   OH218299  -0.008   1.496   4.927  0.5438 -0.7172  0.0579
 6112TIP3    H118300   0.018   1.582   4.960 -0.5741  0.2063 -1.3682
 6112TIP3    H218301   0.056   1.476   4.859  0.0452 -0.4076 -0.5067
 6113TIP3   OH218302   2.652   1.045   2.734  0.2011 -0.5338 -0.1674
 6113TIP3    H118303   2.690   1.103   2.668  0.6674  0.0230  0.5697
 6113TIP3    H218304   2.619   1.105   2.801  1.8754 -1.1391  1.2633
 6114TIP3   OH218305   6.596   4.976   3.340  0.1956 -0.1982  0.1118
 6114TIP3    H118306   6.658   4.908   3.368 -0.2171 -0.0956  1.3057
 6114TIP3    H218307   6.528   4.975   3.406 -0.3697  0.6601 -0.4404
 6115TIP3   OH218308   4.069   5.908   5.500  0.1475  0.4276 -0.2412
 6115TIP3    H118309   3.987   5.954   5.482  0.3569  0.9517  0.1087
 6115TIP3    H218310   4.044   5.816   5.510 -0.1430  0.3069 -1.9196
 6116TIP3   OH218311   4.675   2.568   2.659  0.0350 -0.1383 -0.5063
 6116TIP3    H118312   4.683   2.475   2.680 -0.5281 -0.2659 -0.8523
 6116TIP3    H218313   4.765   2.596   2.641  0.1220 -0.7901 -1.1361
 6117TIP3   OH218314   5.219   2.910   2.949  0.0591 -0.0496  0.3243
 6117TIP3    H118315   5.301   2.918   2.999 -0.7568  0.4634  1.6368
 6117TIP3    H218316   5.169   2.987   2.974 -0.7471 -0.2456 -0.6403
 6118TIP3   OH218317   6.051   4.837   5.833  0.3096 -0.3213  0.2992
 6118TIP3    H118318   6.131   4.816   5.785  0.1895  0.6640 -0.3654
 6118TIP3    H218319   5.993   4.875   5.767  0.1324  1.0727  1.2037
 6119TIP3   OH218320   5.125   4.615   1.839  0.5257  0.0287 -0.1454
 6119TIP3    H118321   5.216   4.610   1.868  0.7147  2.2153 -0.1769
 6119TIP3    H218322   5.082   4.671   1.904 -1.4151 -2.7284  1.1658
 6120TIP3   OH218323   4.342   0.785   4.417 -0.5897 -0.6180  0.0422
 6120TIP3    H118324   4.323   0.846   4.346 -2.2687 -0.5940  0.4634
 6120TIP3    H218325   4.384   0.710   4.374  3.6884  1.6467 -0.2184
 6121TIP3   OH218326   1.088   0.077   2.205  0.3867  0.3368  0.4473
 6121TIP3    H118327   1.037   0.090   2.125  1.6613  0.3294 -0.4078
 6121TIP3    H218328   1.173   0.045   2.174 -0.1969 -3.1658  2.0132
 6122TIP3   OH218329   5.069   3.171   1.635  0.1443 -0.0597 -0.1868
 6122TIP3    H118330   5.106   3.099   1.687  0.8214  0.5272  0.1559
 6122TIP3    H218331   4.984   3.188   1.676  0.0491 -0.5608 -0.1717
 6123TIP3   OH218332   2.747   6.138   5.727  0.2644 -0.2007 -0.5749
 6123TIP3    H118333   2.680   6.120   5.660  0.3657  1.0293 -1.0397
 6123TIP3    H218334   2.803   6.061   5.727  0.7586  0.1012 -2.5430
 6124TIP3   OH218335   1.615   2.331   0.156  0.0784  0.2309 -0.1479
 6124TIP3    H118336   1.691   2.328   0.097  1.4190  0.1442  1.5078
 6124TIP3    H218337   1.544   2.365   0.102  0.8122 -1.3233 -2.2498
 6125TIP3   OH218338   3.135   3.786   2.100 -0.0856 -0.4878  0.2153
 6125TIP3    H118339   3.050   3.744   2.113 -1.0369  1.9009  2.5348
 6125TIP3    H218340   3.116   3.862   2.044  0.0966  0.9898  2.0453
 6126TIP3   OH218341   4.439   5.512   5.777  0.2739 -0.2857 -0.5544
 6126TIP3    H118342   4.428   5.438   5.838  2.1382  0.2130  0.4827
 6126TIP3    H218343   4.507   5.482   5.717  1.2147  0.6424  0.0202
 6127TIP3   OH218344   0.776   4.997   0.744  0.0878  0.6748  0.2819
 6127TIP3    H118345   0.713   5.044   0.689  0.0740  3.2362  2.3088
 6127TIP3    H218346   0.861   5.018   0.706  0.0064  1.4962  0.5314
 6128TIP3   OH218347   5.493   5.779   2.683 -0.1733 -0.2160  0.2971
 6128TIP3    H118348   5.549   5.856   2.687  1.2507 -1.2364  0.9879
 6128TIP3    H218349   5.533   5.723   2.616 -0.5245 -0.8425  0.5930
 6129TIP3   OH218350   5.713   6.049   0.824  0.4581 -0.2828  0.1290
 6129TIP3    H118351   5.737   6.072   0.734 -0.4197  0.1743 -0.0019
 6129TIP3    H218352   5.646   5.982   0.815 -1.7391  1.7453  0.3120
 6130TIP3   OH218353   3.882   1.682   5.601  0.1031  0.2955  0.5298
 6130TIP3    H118354   3.863   1.750   5.666 -0.1197 -0.0755  0.8538
 6130TIP3    H218355   3.834   1.605   5.631  0.2309  0.0359  0.0807
 6131TIP3   OH218356   2.098   0.909   0.512  0.9135 -0.7435 -0.1616
 6131TIP3    H118357   2.178   0.934   0.557 -0.1341  1.5877  0.5781
 6131TIP3    H218358   2.106   0.948   0.424 -0.0569  1.0823  0.4841
 6132TIP3   OH218359   6.098   0.125   0.210 -0.1262 -0.4282  0.6241
 6132TIP3    H118360   6.079   0.059   0.277 -3.3918  0.9733  1.2574
 6132TIP3    H218361   6.113   0.206   0.259 -1.1517  0.3184 -0.2547
 6133TIP3   OH218362   3.244   1.939   0.390 -0.2389 -0.3106 -0.2621
 6133TIP3    H118363   3.167   1.967   0.342 -0.7422 -0.8123  0.2411
 6133TIP3    H218364   3.243   1.989   0.471  1.5956  1.8938 -1.4758
 6134TIP3   OH218365   4.821   3.774   1.038 -0.1797  0.0991 -0.8046
 6134TIP3    H118366   4.795   3.711   0.971  1.8485  0.6171 -2.1637
 6134TIP3    H218367   4.877   3.724   1.098 -0.2223  0.1529 -0.7188
 6135TIP3   OH218368   1.808   0.698   4.337 -0.3200 -0.0941  0.1096
 6135TIP3    H118369   1.750   0.706   4.262  1.2871 -1.3432 -1.3494
 6135TIP3    H218370   1.849   0.784   4.346 -0.7456  0.1459 -0.2485
 6136TIP3   OH218371   4.667   0.103   5.785 -0.2124  0.4982 -0.4496
 6136TIP3    H118372   4.612   0.025   5.784  0.7405 -0.2213  0.4276
 6136TIP3    H218373   4.667   0.135   5.694  0.3542 -1.2414 -1.1007
 6137TIP3   OH218374   4.607   1.891   2.026 -0.7430  0.0715 -0.0579
 6137TIP3    H118375   4.532   1.888   1.966 -1.3271  0.3600  0.6366
 6137TIP3    H218376   4.581   1.836   2.100  0.6981 -1.7602 -0.8508
 6138TIP3   OH218377   1.557   0.942   1.489  0.0139 -0.1858 -0.1174
 6138TIP3    H118378   1.521   0.950   1.401  0.4174 -1.4115 -0.4151
 6138TIP3    H218379   1.623   1.012   1.494 -1.0492  0.8635 -0.2255
 6139TIP3   OH218380   1.029   2.806   3.695  0.2615 -0.1803  0.2623
 6139TIP3    H118381   0.989   2.798   3.782 -0.1655 -1.2951 -0.0177
 6139TIP3    H218382   0.955   2.821   3.636  0.1949 -2.1506 -0.2429
 6140TIP3   OH218383   0.782   3.731   0.307  0.1711  0.4431 -0.3521
 6140TIP3    H118384   0.760   3.807   0.254 -2.3813  0.3905  0.4907
 6140TIP3    H218385   0.859   3.758   0.357  0.5611  1.6905 -1.5617
 6141TIP3   OH218386   3.367   5.549   5.844  0.0108  0.8638  0.3588
 6141TIP3    H118387   3.359   5.459   5.875  1.0107  0.4175 -0.6014
 6141TIP3    H218388   3.289   5.593   5.876 -1.0945 -0.6421 -0.1479
 6142TIP3   OH218389   0.622   3.363   0.814 -0.6530 -0.1468  0.0274
 6142TIP3    H118390   0.576   3.330   0.738 -1.0319 -0.0134  0.1985
 6142TIP3    H218391   0.710   3.383   0.782 -0.3077 -1.6122 -0.0023
 6143TIP3   OH218392   1.363   1.293   2.233 -0.8462 -0.7154  0.1620
 6143TIP3    H118393   1.393   1.215   2.186 -1.2806 -1.9564  1.8742
 6143TIP3    H218394   1.406   1.365   2.188  0.8923 -2.0693 -0.4615
 6144TIP3   OH218395   5.314   0.143   3.213 -0.1137 -0.1886  0.1626
 6144TIP3    H118396   5.259   0.222   3.213  0.0378 -0.0582 -1.0419
 6144TIP3    H218397   5.365   0.150   3.294 -2.3455 -0.6920  1.7213
 6145TIP3   OH218398   6.559   2.588   3.510 -0.5722  0.1859 -0.3443
 6145TIP3    H118399   6.614   2.546   3.577 -1.1634  0.1412  0.1171
 6145TIP3    H218400   6.472   2.550   3.522 -1.0557  1.3278 -0.1072
 6146TIP3   OH218401   0.290   2.317   5.797  0.1518 -0.1657  0.4120
 6146TIP3    H118402   0.280   2.395   5.852  1.2433  0.3627 -0.1023
 6146TIP3    H218403   0.385   2.301   5.797 -0.1474 -2.2471  1.5191
 6147TIP3   OH218404   3.623   3.298   1.167 -0.1752 -0.0339 -0.0066
 6147TIP3    H118405   3.681   3.274   1.094  2.3896 -0.3352  1.9777
 6147TIP3    H218406   3.565   3.222   1.177  0.0407 -0.3716 -1.1621
 6148TIP3   OH218407   3.590   2.484   1.761 -0.0940 -0.2195 -0.2441
 6148TIP3    H118408   3.618   2.575   1.775 -1.4140  0.0222  1.1633
 6148TIP3    H218409   3.669   2.432   1.773  0.2145  0.5870  1.5187
 6149TIP3   OH218410   6.023   1.980   5.264  0.2703 -0.0214  0.4583
 6149TIP3    H118411   6.079   2.042   5.217  1.1432  0.5408  2.1468
 6149TIP3    H218412   6.076   1.901   5.272  0.3708  0.0975  1.0126
 6150TIP3   OH218413   3.654   1.663   3.763  0.6370 -0.4044 -0.2581
 6150TIP3    H118414   3.690   1.656   3.851 -0.8542 -0.7506  0.3597
 6150TIP3    H218415   3.601   1.584   3.752 -0.3242  0.3053 -0.9200
 6151TIP3   OH218416   1.370   3.482   3.726  0.2475 -0.4257 -0.2028
 6151TIP3    H118417   1.422   3.561   3.739 -2.1338  1.3517 -0.9783
 6151TIP3    H218418   1.382   3.461   3.633 -1.6146  0.9586 -0.8045
 6152TIP3   OH218419   5.218   2.895   3.476  0.0178 -0.3705 -0.1227
 6152TIP3    H118420   5.124   2.906   3.491  0.3829  1.4126  1.1589
 6152TIP3    H218421   5.257   2.899   3.563  1.2626 -1.6867 -0.5798
 6153TIP3   OH218422   7.080   0.229   5.650  0.1235  0.0576  0.0707
 6153TIP3    H118423   7.060   0.322   5.654 -3.3348 -0.5752  0.5352
 6153TIP3    H218424   7.171   0.223   5.677  0.4151  3.2642  0.1676
 6154TIP3   OH218425   5.853   0.764   3.621 -0.2816  0.4189  0.0010
 6154TIP3    H118426   5.890   0.838   3.668  3.4865 -1.0714 -0.2605
 6154TIP3    H218427   5.832   0.700   3.689  0.6515  0.0782 -0.0223
 6155TIP3   OH218428   6.379   4.737   0.800  0.4738  0.0789 -0.1997
 6155TIP3    H118429   6.366   4.805   0.734  1.1298 -0.3548 -0.7937
 6155TIP3    H218430   6.301   4.682   0.794 -0.5694  1.3700  1.0335
 6156TIP3   OH218431   5.493   2.533   4.753 -0.6845  0.2960 -0.2557
 6156TIP3    H118432   5.459   2.547   4.841 -1.0320 -0.1726 -0.3097
 6156TIP3    H218433   5.539   2.449   4.758 -1.3894 -0.1235 -0.7139
 6157TIP3   OH218434   6.562   1.500   5.242 -0.8445 -0.4469 -0.0953
 6157TIP3    H118435   6.648   1.489   5.201 -0.3204  1.9426  0.2294
 6157TIP3    H218436   6.547   1.417   5.287  1.2672 -0.9550 -0.1929
 6158TIP3   OH218437   0.375   5.151   1.485  0.4113  0.4129  0.2365
 6158TIP3    H118438   0.379   5.076   1.426 -0.3415  1.2146 -0.8879
 6158TIP3    H218439   0.439   5.212   1.449  1.4615  0.0839  1.5014
 6159TIP3   OH218440   4.442   4.187   4.256 -0.5084 -0.0997  0.1648
 6159TIP3    H118441   4.406   4.157   4.173 -0.7387 -1.5185  0.7586
 6159TIP3    H218442   4.369   4.229   4.301 -1.2227 -2.0884  0.9448
 6160TIP3   OH218443   2.388   0.293   0.509  0.4329  0.1107 -0.2351
 6160TIP3    H118444   2.319   0.298   0.576  0.7603 -0.9925  0.2067
 6160TIP3    H218445   2.380   0.376   0.460 -0.9754  0.1608  0.0256
 6161TIP3   OH218446   2.501   2.252   5.610 -0.0907 -0.4706  0.1079
 6161TIP3    H118447   2.521   2.175   5.556  1.1782  1.1803 -1.9730
 6161TIP3    H218448   2.583   2.272   5.654  0.0699  0.6223 -0.6643
 6162TIP3   OH218449   4.591   0.476   2.480 -0.1882 -0.1109 -0.3430
 6162TIP3    H118450   4.573   0.387   2.509 -0.3961  0.0588  0.0476
 6162TIP3    H218451   4.650   0.512   2.546 -1.4269  0.6011  0.4329
 6163TIP3   OH218452   6.290   6.103   2.446  0.3410 -0.7366  0.0499
 6163TIP3    H118453   6.250   6.048   2.514  0.3319 -0.9762 -0.1504
 6163TIP3    H218454   6.297   6.189   2.487 -0.2427 -0.7278  0.1454
 6164TIP3   OH218455   0.666   4.136   0.700  0.2205 -0.2985 -0.2108
 6164TIP3    H118456   0.658   4.222   0.660  0.0989 -1.1293 -2.0838
 6164TIP3    H218457   0.601   4.137   0.771  0.0199  1.0418 -0.3828
 6165TIP3   OH218458   0.408   5.752   4.207  0.6748  0.2069  0.2913
 6165TIP3    H118459   0.488   5.743   4.259  0.1197 -1.4920  0.9118
 6165TIP3    H218460   0.403   5.846   4.187  3.1318  0.2873 -0.2974
 6166TIP3   OH218461   6.490   3.660   2.060 -0.3658  0.0645  0.3175
 6166TIP3    H118462   6.456   3.676   2.148  1.7009  0.8353  1.0246
 6166TIP3    H218463   6.483   3.565   2.049 -1.1596  0.0212  1.0546
 6167TIP3   OH218464   6.603   0.160   5.311 -0.1371 -0.3071  0.0075
 6167TIP3    H118465   6.525   0.125   5.355 -0.2073 -0.3411 -0.1451
 6167TIP3    H218466   6.625   0.094   5.245  1.5697 -1.6160  1.7465
 6168TIP3   OH218467   6.893   5.563   5.646 -0.3326 -0.7578 -0.3526
 6168TIP3    H118468   6.892   5.478   5.692  0.8725 -0.9120 -0.5774
 6168TIP3    H218469   6.892   5.628   5.716 -0.4969 -0.9653 -0.1600
 6169TIP3   OH218470   6.509   1.934   5.684  0.7886 -0.2766  0.0095
 6169TIP3    H118471   6.442   1.992   5.649  0.4270 -0.7874 -0.1623
 6169TIP3    H218472   6.525   1.871   5.614  1.0201 -0.5120  0.2724
 6170TIP3   OH218473   4.898   3.824   3.423  0.6804 -0.5487 -0.4509
 6170TIP3    H118474   4.936   3.771   3.493 -0.1289 -0.3148  0.1797
 6170TIP3    H218475   4.849   3.892   3.469  0.9113  0.1764 -1.2485
 6171TIP3   OH218476   2.022   1.283   0.444  0.5795 -0.5533 -0.3475
 6171TIP3    H118477   1.995   1.319   0.360  0.6780  0.7997  0.1741
 6171TIP3    H218478   2.065   1.200   0.422  1.9961  0.5024 -1.7883
 6172TIP3   OH218479   1.390   5.432   3.607  0.2607  0.2465  0.6472
 6172TIP3    H118480   1.391   5.524   3.579  1.5079  0.1782  0.4289
 6172TIP3    H218481   1.327   5.430   3.679 -0.5096  1.0758  0.0258
 6173TIP3   OH218482   2.271   6.438   1.428 -0.9339 -0.2577  0.1302
 6173TIP3    H118483   2.286   6.354   1.472 -0.5959 -0.7150 -0.8313
 6173TIP3    H218484   2.332   6.499   1.470 -0.9970 -0.5566  0.6549
 6174TIP3   OH218485   6.591   0.108   2.056  0.2327  0.0744 -0.4814
 6174TIP3    H118486   6.661   0.110   2.120 -0.9311 -0.8767  0.8888
 6174TIP3    H218487   6.547   0.024   2.070 -1.9747  1.1815 -0.3767
 6175TIP3   OH218488   3.858   5.637   0.133  0.2659  0.4900 -0.0509
 6175TIP3    H118489   3.940   5.651   0.087  1.3122 -2.2245  0.8352
 6175TIP3    H218490   3.798   5.603   0.066  0.2916  1.0881 -0.3835
 6176TIP3   OH218491   0.608   5.408   3.020  0.2607 -0.4185 -0.0742
 6176TIP3    H118492   0.657   5.328   3.004  0.3696  0.0105 -2.2797
 6176TIP3    H218493   0.517   5.379   3.032  0.0742 -0.8661 -2.1183
 6177TIP3   OH218494   0.584   1.318   2.180  0.7008 -0.0669 -0.6437
 6177TIP3    H118495   0.554   1.322   2.089 -0.4927 -3.9484 -0.5937
 6177TIP3    H218496   0.678   1.301   2.174  1.0221  1.6949 -1.0420
 6178TIP3   OH218497   6.942   3.516   2.965 -0.2293 -0.4994 -0.1024
 6178TIP3    H118498   6.917   3.553   2.880 -0.3033  0.6977  0.4273
 6178TIP3    H218499   6.860   3.507   3.012 -0.1013 -0.3654  0.1483
 6179TIP3   OH218500   2.589   1.102   1.976  0.1058  0.1028  0.0451
 6179TIP3    H118501   2.595   1.008   1.964 -1.7088  0.1046 -1.1400
 6179TIP3    H218502   2.606   1.115   2.070 -2.3322 -1.7070  0.8316
 6180TIP3   OH218503   3.524   3.721   0.687 -0.2387 -0.2395  0.1609
 6180TIP3    H118504   3.556   3.677   0.608  1.1162  0.9140  0.0453
 6180TIP3    H218505   3.482   3.651   0.738  0.4747 -1.3462 -0.7354
 6181TIP3   OH218506   4.097   2.964   2.269 -0.6741  0.4575 -0.1041
 6181TIP3    H118507   4.154   2.908   2.320 -0.2097  0.5539 -0.5180
 6181TIP3    H218508   4.153   3.035   2.238 -1.6616  2.4639  2.3030
 6182TIP3   OH218509   4.127   3.171   2.588 -0.6159 -0.2082  0.7203
 6182TIP3    H118510   4.060   3.112   2.552 -1.3144 -0.4735  2.3731
 6182TIP3    H218511   4.200   3.113   2.610 -0.4123 -0.1279  0.2583
 6183TIP3   OH218512   6.753   6.213   5.600  0.4859 -0.4187 -0.1672
 6183TIP3    H118513   6.658   6.211   5.590  0.4032  0.5501  0.3255
 6183TIP3    H218514   6.784   6.137   5.551 -0.4867 -0.3287 -0.9426
 6184TIP3   OH218515   3.575   0.654   5.487  0.9086  0.0033  0.6575
 6184TIP3    H118516   3.501   0.656   5.427  1.7501  2.0552 -0.4156
 6184TIP3    H218517   3.536   0.653   5.574 -0.4167  1.6087  0.1248
 6185TIP3   OH218518   2.048   1.534   1.442 -0.8043 -0.0842  0.7039
 6185TIP3    H118519   2.133   1.508   1.477 -0.4824  2.6341  2.2762
 6185TIP3    H218520   1.985   1.480   1.489 -0.2026  1.7377  3.8871
 6186TIP3   OH218521   2.107   2.554   1.602  0.6537  0.1108  0.6630
 6186TIP3    H118522   2.153   2.559   1.686 -0.7994  0.9967  1.4473
 6186TIP3    H218523   2.041   2.623   1.607  1.4088  1.1089 -1.7915
 6187TIP3   OH218524   0.230   2.392   1.095 -0.0912  0.0400  0.1582
 6187TIP3    H118525   0.280   2.423   1.170 -1.0962 -0.3582  1.0197
 6187TIP3    H218526   0.290   2.336   1.047  0.1602 -0.8088  1.4259
 6188TIP3   OH218527   2.702   0.848   1.240 -0.7429 -0.4212 -0.4978
 6188TIP3    H118528   2.796   0.830   1.238 -0.3723  0.6210  2.4454
 6188TIP3    H218529   2.675   0.843   1.148  2.2126 -0.4193 -1.4886
 6189TIP3   OH218530   3.259   1.990   4.088  0.4919 -0.0759  0.1392
 6189TIP3    H118531   3.274   1.944   4.170 -0.6242  0.5942  0.7508
 6189TIP3    H218532   3.319   2.064   4.090 -0.5655  0.7955  1.0820
 6190TIP3   OH218533   2.886   2.458   5.125 -0.5400 -0.2645 -0.2312
 6190TIP3    H118534   2.832   2.530   5.095 -0.5923 -0.4242 -0.5244
 6190TIP3    H218535   2.976   2.487   5.110 -0.4875  0.4179  1.1878
 6191TIP3   OH218536   0.724   1.823   2.121 -0.6189  1.0149 -0.1853
 6191TIP3    H118537   0.818   1.813   2.110 -0.9141 -1.0982 -1.2148
 6191TIP3    H218538   0.714   1.898   2.180  1.7119  0.6303  0.7836
 6192TIP3   OH218539   0.608   2.712   3.824 -0.8648  0.0418 -0.2538
 6192TIP3    H118540   0.627   2.654   3.751 -0.0930 -0.3110  0.2071
 6192TIP3    H218541   0.526   2.679   3.860 -1.2885  0.2662 -0.9922
 6193TIP3   OH218542   2.358   6.453   0.981  0.0521  0.0666  0.0314
 6193TIP3    H118543   2.285   6.425   0.927  0.3980  0.3215 -0.5782
 6193TIP3    H218544   2.435   6.411   0.941  0.3103  0.2629  0.3152
 6194TIP3   OH218545   0.970   3.584   0.985  0.7179  0.2523 -0.3183
 6194TIP3    H118546   1.062   3.579   0.962  0.6669 -1.3993 -0.2908
 6194TIP3    H218547   0.935   3.498   0.963 -0.9326  0.9956 -0.7947
 6195TIP3   OH218548   3.904   4.963   2.427  0.0801 -0.0508 -0.5979
 6195TIP3    H118549   3.842   4.962   2.355  0.6541  0.3305 -1.1135
 6195TIP3    H218550   3.872   4.897   2.489  0.7465 -1.9871 -2.2187
 6196TIP3   OH218551   0.716   3.285   4.798 -0.3089  0.0894  0.4506
 6196TIP3    H118552   0.624   3.260   4.788  0.2356 -1.4784 -1.1133
 6196TIP3    H218553   0.733   3.344   4.725 -0.1305  0.6145  0.9093
 6197TIP3   OH218554   5.894   4.121   3.967 -0.0111 -0.0741  0.0663
 6197TIP3    H118555   5.917   4.084   3.881  1.5209  0.5552  0.1717
 6197TIP3    H218556   5.944   4.202   3.972  0.3762 -0.3752  1.7913
 6198TIP3   OH218557   4.901   0.069   4.122 -0.5079 -1.0203 -0.6649
 6198TIP3    H118558   4.833   0.071   4.055 -1.5320  0.7281  0.3413
 6198TIP3    H218559   4.952   0.148   4.107  0.5128 -1.6518 -0.5963
 6199TIP3   OH218560   0.747   6.670   1.093 -0.5512 -0.4167  0.2795
 6199TIP3    H118561   0.788   6.751   1.063 -0.2124 -0.3309  0.9585
 6199TIP3    H218562   0.659   6.673   1.058 -0.3302 -0.0627 -0.2477
 6200TIP3   OH218563   4.052   5.971   0.103 -0.4381  0.9076  0.6077
 6200TIP3    H118564   4.030   5.884   0.070  0.2616  1.2184 -0.7228
 6200TIP3    H218565   4.051   5.960   0.198 -1.1351 -0.3511  0.4925
 6201TIP3   OH218566   6.025   2.805   0.898 -0.0241  0.1770  0.0253
 6201TIP3    H118567   6.096   2.854   0.939 -0.5316  1.2696 -0.3515
 6201TIP3    H218568   6.069   2.744   0.839  0.6684 -0.7462  1.4395
 6202TIP3   OH218569   1.607   6.552   5.349 -0.4424  0.0383  0.3712
 6202TIP3    H118570   1.614   6.572   5.442 -0.9615 -0.1358  0.4502
 6202TIP3    H218571   1.594   6.637   5.307 -1.0497  0.0332  0.5434
 6203TIP3   OH218572   3.414   5.060   3.670 -0.4083 -0.4134 -0.3282
 6203TIP3    H118573   3.498   5.095   3.641 -0.6875 -0.3158 -1.0323
 6203TIP3    H218574   3.368   5.038   3.589 -0.6857 -1.3574  0.0713
 6204TIP3   OH218575   2.834   3.809   2.973 -0.2400  0.3779  0.0901
 6204TIP3    H118576   2.839   3.798   2.878 -0.2132  0.2314  0.1094
 6204TIP3    H218577   2.852   3.723   3.009  0.9246  0.6853  0.2634
 6205TIP3   OH218578   6.001   0.689   4.526 -0.2409  0.1995  0.5621
 6205TIP3    H118579   6.093   0.680   4.552 -0.7073 -1.0624  1.8991
 6205TIP3    H218580   5.973   0.601   4.505 -0.5306  0.8829 -2.2634
 6206TIP3   OH218581   4.553   6.218   3.833  0.0798  0.2112 -0.4589
 6206TIP3    H118582   4.476   6.275   3.826 -0.6391 -0.7855 -0.8184
 6206TIP3    H218583   4.526   6.135   3.795 -0.0730 -1.6066  3.1685
 6207TIP3   OH218584   1.594   2.456   5.352 -0.1344  0.1195  0.6296
 6207TIP3    H118585   1.688   2.472   5.353 -0.1199  0.0208  1.3015
 6207TIP3    H218586   1.583   2.380   5.295  0.1615  0.2944  0.3363
 6208TIP3   OH218587   2.038   5.206   0.976 -0.0049  0.2034 -0.0903
 6208TIP3    H118588   2.018   5.249   0.893 -0.6358  1.7936  0.8432
 6208TIP3    H218589   2.010   5.268   1.043 -0.8584 -1.6343  1.3585
 6209TIP3   OH218590   3.930   2.100   5.059 -0.2639 -0.4716  0.0771
 6209TIP3    H118591   3.993   2.076   5.127 -0.7636 -3.1262 -0.2951
 6209TIP3    H218592   3.849   2.120   5.106 -0.1084 -0.5116  0.3601
 6210TIP3   OH218593   7.062   6.172   5.560 -0.4343  0.2950 -0.6367
 6210TIP3    H118594   7.003   6.118   5.507 -0.6097  0.6397 -0.7925
 6210TIP3    H218595   7.091   6.113   5.630  1.0710 -0.6836 -2.0032
 6211TIP3   OH218596   6.873   5.307   5.752  0.4878 -0.4511  0.4882
 6211TIP3    H118597   6.922   5.265   5.823  1.8341 -0.9618 -0.6960
 6211TIP3    H218598   6.907   5.267   5.672 -0.2564  0.8351 -0.5178
 6212TIP3   OH218599   5.793   6.597   4.791  0.5016  0.0553  0.2999
 6212TIP3    H118600   5.710   6.582   4.744  0.5241 -1.4771  0.6878
 6212TIP3    H218601   5.854   6.625   4.723 -0.5148  2.0262  0.1380
 6213TIP3   OH218602   1.003   0.691   3.407 -0.2060  0.1382  0.3410
 6213TIP3    H118603   0.959   0.738   3.336  2.2241 -0.7100 -1.8821
 6213TIP3    H218604   1.083   0.741   3.422  0.7891 -1.3737  0.2812
 6214TIP3   OH218605   2.264   1.029   2.296 -0.4247 -0.4625 -0.1823
 6214TIP3    H118606   2.332   1.094   2.312 -1.7126  0.8089  0.3647
 6214TIP3    H218607   2.279   0.962   2.364  1.3242 -1.1378 -1.1805
 6215TIP3   OH218608   4.904   5.297   2.698  0.4144 -0.4468  0.2336
 6215TIP3    H118609   4.922   5.246   2.778  0.2784 -0.7558  0.0686
 6215TIP3    H218610   4.916   5.234   2.627 -2.4739 -1.0122  0.1485
 6216TIP3   OH218611   1.261   4.959   1.830  0.0846  0.1845  0.2370
 6216TIP3    H118612   1.253   4.864   1.821 -0.0550 -0.1199  2.7844
 6216TIP3    H218613   1.173   4.989   1.853  0.5105  0.6413  1.3573
 6217TIP3   OH218614   3.741   2.539   4.956 -0.4358 -0.0006  0.8586
 6217TIP3    H118615   3.824   2.552   5.002 -0.0345 -0.6910  0.3497
 6217TIP3    H218616   3.677   2.588   5.008  0.2879  0.5611  1.2454
 6218TIP3   OH218617   4.076   5.048   1.224 -0.1466 -0.3058 -0.4410
 6218TIP3    H118618   4.082   5.005   1.138 -0.3720  1.6581 -1.4971
 6218TIP3    H218619   4.072   4.975   1.286 -0.9868 -1.8283 -2.1503
 6219TIP3   OH218620   0.842   4.402   4.514 -0.5854 -0.4513  0.0100
 6219TIP3    H118621   0.760   4.426   4.558 -0.3950 -0.3475  0.3109
 6219TIP3    H218622   0.898   4.371   4.585 -0.4588 -0.7810 -0.2339
 6220TIP3   OH218623   0.728   5.645   3.592  0.1650  0.8362 -0.4115
 6220TIP3    H118624   0.736   5.652   3.687  1.4362  0.6004 -0.4768
 6220TIP3    H218625   0.817   5.624   3.563 -0.0114  1.8390 -1.7432
 6221TIP3   OH218626   1.589   5.651   2.005 -0.0825  0.0522 -0.1554
 6221TIP3    H118627   1.571   5.657   2.098  0.1390  0.0569 -0.1102
 6221TIP3    H218628   1.685   5.657   1.999 -0.1687  1.3492 -0.4855
 6222TIP3   OH218629   4.906   0.345   2.546  0.2459 -0.2270  0.0126
 6222TIP3    H118630   4.960   0.266   2.551  1.4303  0.5684  0.1521
 6222TIP3    H218631   4.916   0.376   2.456  0.2377  0.0820  0.1168
 6223TIP3   OH218632   2.350   6.251   4.751 -0.2522 -0.1655 -0.4374
 6223TIP3    H118633   2.259   6.255   4.780 -0.7882  1.7170 -2.1243
 6223TIP3    H218634   2.350   6.185   4.681 -0.2703 -0.3329 -0.2794
 6224TIP3   OH218635   3.573   4.864   2.658 -0.2297 -0.1092  0.0444
 6224TIP3    H118636   3.617   4.949   2.665 -1.0800  0.3268  0.2076
 6224TIP3    H218637   3.488   4.884   2.620 -0.2489 -0.9640 -0.3878
 6225TIP3   OH218638   1.218   6.353   5.688 -0.0858  0.5009 -0.8592
 6225TIP3    H118639   1.305   6.392   5.699  0.0233  0.1662 -0.4785
 6225TIP3    H218640   1.181   6.353   5.776  0.7237 -2.0685 -0.4196
 6226TIP3   OH218641   2.102   0.828   3.753 -0.3098  0.4849  0.6554
 6226TIP3    H118642   2.137   0.806   3.666 -0.3634  1.9029  0.2463
 6226TIP3    H218643   2.025   0.882   3.734 -0.0978  1.1274  1.5932
 6227TIP3   OH218644   3.215   2.459   5.830  0.1964 -0.3644  0.1416
 6227TIP3    H118645   3.192   2.547   5.859  0.7940  0.1456 -0.8915
 6227TIP3    H218646   3.214   2.406   5.911  2.3144  1.1029  1.2268
 6228TIP3   OH218647   4.718   1.486   0.836  0.2825  0.4843  0.0149
 6228TIP3    H118648   4.664   1.410   0.859  0.4949  0.6592  1.1646
 6228TIP3    H218649   4.673   1.525   0.761  0.3361 -0.9326 -0.7846
 6229TIP3   OH218650   2.521   3.238   2.099 -0.0053  0.0272  0.4945
 6229TIP3    H118651   2.480   3.171   2.154 -1.0486 -0.9598 -1.4195
 6229TIP3    H218652   2.587   3.190   2.048  0.7754  0.8859  0.6702
 6230TIP3   OH218653   2.886   4.301   3.111  0.0307 -0.3100 -0.1285
 6230TIP3    H118654   2.938   4.229   3.075  1.6599  0.1873  1.0727
 6230TIP3    H218655   2.833   4.331   3.038 -0.0729 -2.1809 -0.8721
 6231TIP3   OH218656   0.415   4.056   4.879 -0.1179 -0.0930  0.2417
 6231TIP3    H118657   0.414   4.019   4.791  1.0755 -0.5851  0.4198
 6231TIP3    H218658   0.349   4.126   4.877  0.0583  0.0477 -1.1018
 6232TIP3   OH218659   1.781   3.585   3.076  0.2231  0.4021 -0.3119
 6232TIP3    H118660   1.846   3.655   3.068 -1.0085  1.5144 -0.8349
 6232TIP3    H218661   1.787   3.537   2.994  3.1947 -2.0867  1.1778
 6233TIP3   OH218662   4.239   4.389   5.780 -0.1805 -0.3450  0.0887
 6233TIP3    H118663   4.295   4.466   5.773 -1.4402  0.5179 -0.8604
 6233TIP3    H218664   4.258   4.338   5.702 -2.1966  1.0321 -1.4196
 6234TIP3   OH218665   5.061   1.852   3.661  0.4188 -0.0344 -0.3759
 6234TIP3    H118666   5.054   1.789   3.733  0.5749 -0.2114 -0.5125
 6234TIP3    H218667   5.150   1.887   3.669  0.0774  0.7233  0.1513
 6235TIP3   OH218668   6.380   6.363   2.519 -0.1661 -0.7358 -0.2817
 6235TIP3    H118669   6.390   6.354   2.614  1.0813 -1.1573 -0.4334
 6235TIP3    H218670   6.289   6.390   2.507  0.2228  1.5125  1.1659
 6236TIP3   OH218671   1.444   2.539   4.881 -0.1885 -0.9127  0.2029
 6236TIP3    H118672   1.527   2.547   4.836 -1.4432 -1.2120 -2.3156
 6236TIP3    H218673   1.399   2.622   4.865 -1.1357 -1.4732 -0.1701
 6237TIP3   OH218674   4.551   0.957   4.564 -0.2066 -0.3135  0.0828
 6237TIP3    H118675   4.503   0.893   4.513  0.0796  1.6882 -2.9383
 6237TIP3    H218676   4.489   1.028   4.580  0.6728  0.6588 -0.6396
 6238TIP3   OH218677   2.712   6.002   5.144  0.6562 -0.3729  0.3906
 6238TIP3    H118678   2.683   6.093   5.145  0.2400 -0.4965 -0.0596
 6238TIP3    H218679   2.722   5.981   5.051 -2.5500 -1.7971  0.2388
 6239TIP3   OH218680   3.709   1.348   4.784  0.1866 -0.1876 -0.2522
 6239TIP3    H118681   3.756   1.427   4.811 -0.1467 -0.6182  1.7215
 6239TIP3    H218682   3.648   1.331   4.855 -0.8356 -1.3617 -1.3701
 6240TIP3   OH218683   6.873   0.668   0.678 -0.2019 -0.0561 -0.1918
 6240TIP3    H118684   6.924   0.672   0.759  0.1765  0.2419 -0.4386
 6240TIP3    H218685   6.937   0.685   0.608 -0.8180  1.4020 -0.4379
 6241TIP3   OH218686   1.113   3.769   3.498 -0.1506  0.6442 -0.0847
 6241TIP3    H118687   1.035   3.715   3.489 -0.0578  0.6860 -1.1996
 6241TIP3    H218688   1.166   3.750   3.421  0.3104  1.6396 -0.0327
 6242TIP3   OH218689   0.538   0.471   1.032 -0.2453  0.3700  0.3908
 6242TIP3    H118690   0.604   0.419   0.987  0.0075  0.4376  0.6802
 6242TIP3    H218691   0.485   0.408   1.080 -0.6744  0.2730 -0.1977
 6243TIP3   OH218692   1.956   5.827   3.748 -0.0118 -0.6710  0.5653
 6243TIP3    H118693   1.961   5.759   3.816 -2.5392 -0.5134  0.9947
 6243TIP3    H218694   1.960   5.779   3.666 -1.2493 -1.3471  0.8684
 6244TIP3   OH218695   3.478   5.697   3.905  0.0313  0.1914 -0.3311
 6244TIP3    H118696   3.403   5.690   3.964 -0.3809 -0.0168 -0.8721
 6244TIP3    H218697   3.449   5.757   3.836  0.2861 -0.0599 -0.6583
 6245TIP3   OH218698   6.354   6.579   0.059  0.3140 -0.0313 -0.6716
 6245TIP3    H118699   6.417   6.582   0.131 -0.5034 -1.2172  0.1425
 6245TIP3    H218700   6.390   6.513  -0.001  0.5725  0.3497 -0.9391
 6246TIP3   OH218701   6.694   6.743   1.454 -0.2041 -0.0420  0.5132
 6246TIP3    H118702   6.674   6.828   1.415 -1.6196 -0.2430  0.7454
 6246TIP3    H218703   6.747   6.763   1.531 -0.8546  0.6804  0.7863
 6247TIP3   OH218704   5.166   6.573   5.189  0.1496 -0.4669 -1.0639
 6247TIP3    H118705   5.200   6.486   5.166  0.4136 -0.6682  0.0141
 6247TIP3    H218706   5.120   6.602   5.110 -0.8763 -2.0484 -1.1042
 6248TIP3   OH218707   6.069   2.235   4.262  0.4012  0.6974  0.6646
 6248TIP3    H118708   6.163   2.244   4.273  0.5694 -1.6025  1.4409
 6248TIP3    H218709   6.038   2.325   4.247  2.7601  1.4224 -0.2535
 6249TIP3   OH218710   0.487   5.918   0.961  0.8118 -0.1393  0.0135
 6249TIP3    H118711   0.506   5.826   0.947  3.4007  0.1845  0.9037
 6249TIP3    H218712   0.536   5.942   1.040  2.1095  2.4657 -1.4147
 6250TIP3   OH218713   1.125   1.600   4.394 -0.1509 -0.1579 -0.1190
 6250TIP3    H118714   1.068   1.671   4.420 -0.4658 -0.5241  0.1994
 6250TIP3    H218715   1.168   1.572   4.475  0.4228  0.0621 -0.3391
 6251TIP3   OH218716   6.889   3.819   1.517 -0.5745 -0.2105  0.0275
 6251TIP3    H118717   6.884   3.780   1.429 -0.8406 -1.5007  0.5960
 6251TIP3    H218718   6.814   3.879   1.520 -0.5458 -0.1316 -0.6399
 6252TIP3   OH218719   5.408   6.426   1.776  0.1374  0.1891  0.0804
 6252TIP3    H118720   5.336   6.414   1.715 -0.7085  0.9451  0.9101
 6252TIP3    H218721   5.376   6.388   1.858  0.7739  0.3351  0.4007
 6253TIP3   OH218722   1.569   0.931   3.892 -0.4149  0.0179  0.1176
 6253TIP3    H118723   1.530   0.952   3.977 -0.9261  1.6614 -0.4888
 6253TIP3    H218724   1.663   0.942   3.906 -0.6254  2.8853 -0.1231
 6254TIP3   OH218725   6.932   5.771   3.947 -0.0157 -0.2612 -0.1877
 6254TIP3    H118726   6.974   5.705   3.891 -0.6838  0.0412 -1.0636
 6254TIP3    H218727   6.924   5.848   3.891  0.2931  0.4052  0.6769
 6255TIP3   OH218728   4.434   1.978   3.166 -0.2399 -0.0650  0.4970
 6255TIP3    H118729   4.443   1.883   3.179  0.2818 -0.5495 -2.5802
 6255TIP3    H218730   4.524   2.009   3.157 -0.4690  0.4319 -0.1119
 6256TIP3   OH218731   5.990   1.120   4.683  0.2335  0.4196  0.2498
 6256TIP3    H118732   6.070   1.145   4.729  1.2722  0.5631 -1.5535
 6256TIP3    H218733   5.977   1.188   4.617 -1.5159  0.5083  0.6259
 6257TIP3   OH218734   0.613   1.754   3.661 -0.3513 -0.2721  0.1627
 6257TIP3    H118735   0.566   1.794   3.588  1.9747 -0.2101 -1.4026
 6257TIP3    H218736   0.631   1.826   3.721 -1.2900 -0.1157  0.2763
 6258TIP3   OH218737   3.994   4.901   3.083  0.1040  0.1350  0.5939
 6258TIP3    H118738   3.962   4.985   3.052 -0.1695  0.1538  0.9193
 6258TIP3    H218739   4.023   4.918   3.173 -1.9754 -0.5699  1.4684
 6259TIP3   OH218740   4.752   2.465   5.178 -0.0932 -0.6126  0.2290
 6259TIP3    H118741   4.791   2.426   5.257  1.7947  1.3389  0.3561
 6259TIP3    H218742   4.682   2.521   5.212 -0.0356 -0.6512  0.4152
 6260TIP3   OH218743   3.200   2.121   2.146 -0.4313  0.2692  0.5732
 6260TIP3    H118744   3.210   2.066   2.224 -2.2099 -1.5323 -0.3686
 6260TIP3    H218745   3.119   2.090   2.105 -0.4639  2.3168 -1.0967
 6261TIP3   OH218746   5.692   5.779   1.192 -0.0228  0.2760  0.2405
 6261TIP3    H118747   5.630   5.851   1.181  0.0124  0.4889  1.3628
 6261TIP3    H218748   5.651   5.722   1.257  0.8682  0.3284  0.8614
 6262TIP3   OH218749   3.592   0.380   2.056  0.7140  0.4616 -0.0478
 6262TIP3    H118750   3.557   0.335   2.133 -1.0421 -0.6896 -1.4371
 6262TIP3    H218751   3.577   0.473   2.074  0.0820  0.1992  0.8825
 6263TIP3   OH218752   0.108   3.988   5.103 -0.2135 -0.2270 -0.3637
 6263TIP3    H118753   0.059   4.066   5.130  0.0306 -0.5119  0.9589
 6263TIP3    H218754   0.054   3.914   5.131  0.4355 -0.5349  0.1020
 6264TIP3   OH218755   7.053   4.676   5.612  0.6550  0.2882  0.2923
 6264TIP3    H118756   6.999   4.755   5.601  0.4340  0.1517  0.3673
 6264TIP3    H218757   7.013   4.632   5.687  1.3187  0.5500  0.8111
 6265TIP3   OH218758   1.124   3.404   0.156 -0.2031 -0.7374 -0.2488
 6265TIP3    H118759   1.119   3.442   0.244  0.7742 -1.3192  0.0764
 6265TIP3    H218760   1.165   3.472   0.102 -3.8943  1.0339 -1.1476
 6266TIP3   OH218761   6.045   5.260   3.933 -0.1425  0.3130 -0.5073
 6266TIP3    H118762   5.988   5.244   4.008 -0.2773  1.2651 -0.3990
 6266TIP3    H218763   6.109   5.188   3.936 -0.4949  0.0161  0.1740
 6267TIP3   OH218764   4.390   5.285   3.047  0.3634 -0.0203  0.2263
 6267TIP3    H118765   4.432   5.253   3.128 -0.1755 -0.0420  0.5031
 6267TIP3    H218766   4.328   5.215   3.024 -0.1855  0.4243  0.3408
 6268TIP3   OH218767   5.221   1.070   0.991  0.2058  0.2121 -0.7806
 6268TIP3    H118768   5.171   1.131   0.937  1.2442  1.2035 -0.6547
 6268TIP3    H218769   5.265   1.125   1.056 -0.7000 -0.9035  0.8641
 6269TIP3   OH218770   6.652   0.649   2.623 -0.1416 -0.3378 -0.4017
 6269TIP3    H118771   6.618   0.716   2.563  1.9728 -0.8825 -2.3361
 6269TIP3    H218772   6.719   0.694   2.674  0.0502 -0.5577 -0.4585
 6270TIP3   OH218773   1.673   6.537   2.861 -0.3505  0.4376  0.3045
 6270TIP3    H118774   1.686   6.631   2.843 -1.5235  0.5989  0.2187
 6270TIP3    H218775   1.674   6.496   2.774  1.2123  0.2086  0.4080
 6271TIP3   OH218776   3.833   2.093   4.070 -0.5352  0.5851  0.1056
 6271TIP3    H118777   3.859   2.047   3.989 -0.1520 -1.6950  1.4273
 6271TIP3    H218778   3.866   2.182   4.058 -1.5741  0.7039 -2.7375
 6272TIP3   OH218779   6.490   3.382   0.047 -0.0129 -0.8260  0.2100
 6272TIP3    H118780   6.441   3.439  -0.013  0.7584 -0.4574 -0.0807
 6272TIP3    H218781   6.439   3.384   0.128  0.4021  0.9478  0.4824
 6273TIP3   OH218782   1.942   2.984   0.045 -0.3575 -0.8144 -0.0934
 6273TIP3    H118783   2.010   2.977  -0.021  0.5840  0.3675  0.7149
 6273TIP3    H218784   1.974   2.933   0.119  0.1807  0.6181  0.6908
 6274TIP3   OH218785   1.789   4.123   0.233 -0.5678  0.0641  0.2566
 6274TIP3    H118786   1.799   4.106   0.139  2.2792 -0.7767  0.5912
 6274TIP3    H218787   1.789   4.218   0.241  1.0725  0.1667 -0.5243
 6275TIP3   OH218788   2.230   2.807   0.112  0.5287 -0.4880 -0.2847
 6275TIP3    H118789   2.297   2.869   0.139  0.1207 -0.7089  1.3364
 6275TIP3    H218790   2.222   2.819   0.017  0.9192  1.4401 -0.0987
 6276TIP3   OH218791   5.531   1.278   2.402  0.5975 -0.6020 -0.0132
 6276TIP3    H118792   5.575   1.295   2.319  1.3562  1.0505  0.6714
 6276TIP3    H218793   5.602   1.276   2.466 -0.2040  3.3044  1.3158
 6277TIP3   OH218794   1.005   1.989   1.020 -0.1241  0.0468 -0.0396
 6277TIP3    H118795   1.074   1.967   0.957 -0.8293 -0.9954 -0.4739
 6277TIP3    H218796   0.963   2.067   0.982 -0.1036 -0.1659 -0.5082
 6278TIP3   OH218797   1.160   0.606   2.277 -0.0199  0.2685  0.3891
 6278TIP3    H118798   1.190   0.693   2.249  0.7096  0.4734  1.7555
 6278TIP3    H218799   1.170   0.606   2.372 -0.8255 -1.0193  0.4992
 6279TIP3   OH218800   5.736   1.178   5.259 -0.2713  0.2284 -0.1786
 6279TIP3    H118801   5.776   1.094   5.280 -2.3334 -1.0808 -1.2084
 6279TIP3    H218802   5.705   1.212   5.343 -0.6645 -0.7219  0.0666
 6280TIP3   OH218803   5.603   0.256   5.756  0.2205 -0.2817 -0.4972
 6280TIP3    H118804   5.669   0.207   5.708 -0.7304 -3.0914  0.8364
 6280TIP3    H218805   5.520   0.230   5.716 -0.3154  0.2855  0.2096
 6281TIP3   OH218806   0.485   2.750   3.211  0.5904 -0.0594  0.0339
 6281TIP3    H118807   0.450   2.697   3.282  0.5517  0.3322  0.3078
 6281TIP3    H218808   0.416   2.813   3.191 -0.2196 -1.4214 -1.7093
 6282TIP3   OH218809   0.803   6.104   2.608  0.2993  0.7195  0.1617
 6282TIP3    H118810   0.874   6.119   2.670 -0.9439 -0.5751  2.0003
 6282TIP3    H218811   0.781   6.191   2.574  1.2516  1.4172  1.2736
 6283TIP3   OH218812   4.508   2.444   3.358 -0.1999  0.5704  0.3566
 6283TIP3    H118813   4.444   2.405   3.298 -0.6560 -0.2995  1.3588
 6283TIP3    H218814   4.584   2.385   3.353 -0.8269 -0.4158  1.7486
 6284TIP3   OH218815   7.206   0.058   4.206 -0.0640 -0.1693 -0.2465
 6284TIP3    H118816   7.217   0.145   4.245  2.1912 -0.1943 -0.7211
 6284TIP3    H218817   7.169   0.075   4.119 -0.9740  0.1920  0.2009
 6285TIP3   OH218818   2.589   4.072   0.383 -0.1461  0.0228  0.9159
 6285TIP3    H118819   2.682   4.088   0.364 -0.4964 -0.7620 -1.8713
 6285TIP3    H218820   2.552   4.160   0.393  0.6396  0.4043  0.5901
 6286TIP3   OH218821   5.236   0.990   4.716  0.5784 -0.2282  0.2910
 6286TIP3    H118822   5.198   0.902   4.723  2.4336 -0.9681  1.8742
 6286TIP3    H218823   5.329   0.978   4.735  1.5005  1.6676 -2.3938
 6287TIP3   OH218824   4.328   3.776   0.170  0.1409 -0.4480 -0.2965
 6287TIP3    H118825   4.299   3.689   0.142 -0.5717 -0.4232  0.3088
 6287TIP3    H218826   4.367   3.815   0.092 -0.5610 -0.8859 -0.8836
 6288TIP3   OH218827   4.804   2.669   3.145 -0.5951 -0.1840  0.1621
 6288TIP3    H118828   4.881   2.680   3.201 -0.9754 -1.5417  1.0114
 6288TIP3    H218829   4.835   2.688   3.057  0.3401  0.7536  0.6778
 6289TIP3   OH218830   3.063   5.978   2.647 -0.4955  0.3931  0.0544
 6289TIP3    H118831   3.107   5.893   2.643 -0.5040  0.4238 -0.9825
 6289TIP3    H218832   2.975   5.958   2.680  0.1373  0.2873  1.8218
 6290TIP3   OH218833   4.120   5.129   3.256  0.0123  0.0928  0.0917
 6290TIP3    H118834   4.073   5.057   3.299 -1.1579  0.4392 -0.5671
 6290TIP3    H218835   4.200   5.088   3.222 -0.0246 -0.6169  0.8150
 6291TIP3   OH218836   7.229   0.293   5.382  0.1681 -0.2987  0.6586
 6291TIP3    H118837   7.158   0.296   5.317 -0.9682  1.8468  1.8685
 6291TIP3    H218838   7.195   0.238   5.452  0.1155 -0.0976  0.7913
 6292TIP3   OH218839   0.888   4.139   2.081 -0.2994 -0.1735 -0.5801
 6292TIP3    H118840   0.983   4.132   2.073 -0.2288 -3.4214  1.2461
 6292TIP3    H218841   0.857   4.159   1.992  2.0591  1.8675 -1.0373
 6293TIP3   OH218842   6.457   1.651   3.488  0.3847 -0.7526 -0.1423
 6293TIP3    H118843   6.503   1.586   3.435 -0.7403 -0.9729 -0.8627
 6293TIP3    H218844   6.462   1.732   3.437 -0.1154 -0.8033 -0.2734
 6294TIP3   OH218845   4.070   3.422   4.350 -0.1214 -0.2339  0.2882
 6294TIP3    H118846   4.064   3.408   4.255 -0.2556 -0.9645  0.3937
 6294TIP3    H218847   4.137   3.489   4.361 -0.8106  0.5872 -0.3803
 6295TIP3   OH218848   1.804   4.494   5.562  0.1962 -0.3305 -0.4399
 6295TIP3    H118849   1.794   4.456   5.474 -0.0414 -0.7950 -0.2186
 6295TIP3    H218850   1.843   4.423   5.614 -1.1774 -0.6292  0.2260
 6296TIP3   OH218851   1.752   5.163   1.060 -0.5029 -0.4008  0.1271
 6296TIP3    H118852   1.818   5.164   1.129 -1.2744 -0.4589  0.8808
 6296TIP3    H218853   1.773   5.085   1.008  1.3683  0.7850 -1.0144
 6297TIP3   OH218854   0.133   6.069   2.575 -0.0997 -0.3950  0.1150
 6297TIP3    H118855   0.064   6.136   2.582 -0.9114 -1.2932  1.0410
 6297TIP3    H218856   0.110   6.020   2.496  0.7321  0.6327 -0.8061
 6298TIP3   OH218857   4.985   5.576   1.679  0.3521 -0.2134  0.0854
 6298TIP3    H118858   5.067   5.528   1.693  1.7660  1.6103 -1.3518
 6298TIP3    H218859   5.000   5.625   1.598 -2.8354 -1.1199 -1.1781
 6299TIP3   OH218860   0.444   1.261   1.736  0.2718 -0.3306  0.0422
 6299TIP3    H118861   0.455   1.345   1.781  0.1475  0.0425 -0.6141
 6299TIP3    H218862   0.505   1.264   1.663 -1.1152  0.0321 -1.1620
 6300TIP3   OH218863   4.735   4.525   5.663 -0.0353  0.3528 -0.4004
 6300TIP3    H118864   4.805   4.527   5.598  1.8112 -0.1833  1.4533
 6300TIP3    H218865   4.723   4.616   5.688 -0.8045  0.5704 -1.4962
 6301TIP3   OH218866   3.147   6.720   5.578  0.3274  0.4106  0.0450
 6301TIP3    H118867   3.225   6.685   5.623  0.5519  0.4367 -0.3229
 6301TIP3    H218868   3.105   6.775   5.644  0.8271  0.7008  0.1266
 6302TIP3   OH218869   0.975   1.413   3.435  0.3027  0.2789 -0.2850
 6302TIP3    H118870   0.899   1.465   3.464 -1.0786 -0.8523 -1.7156
 6302TIP3    H218871   1.039   1.478   3.407  0.9806  1.3789  3.2966
 6303TIP3   OH218872   6.601   1.485   4.463 -0.5859  0.6369 -0.1241
 6303TIP3    H118873   6.566   1.562   4.509 -0.0980  1.2591 -0.7620
 6303TIP3    H218874   6.523   1.438   4.434 -0.9062  0.0012  1.6681
 6304TIP3   OH218875   4.033   1.677   1.935  0.0745 -0.0199 -0.1397
 6304TIP3    H118876   3.997   1.766   1.944  0.8264  0.2925 -0.1552
 6304TIP3    H218877   3.997   1.646   1.852 -0.5934  0.0714  0.1054
 6305TIP3   OH218878   6.832   0.626   2.987  0.4344  0.3439  0.2202
 6305TIP3    H118879   6.780   0.703   3.009 -2.3112 -0.9902 -1.1313
 6305TIP3    H218880   6.828   0.571   3.066 -0.6901  0.0120 -0.0622
 6306TIP3   OH218881   0.630   6.555   2.865 -0.6664  0.6075 -0.4511
 6306TIP3    H118882   0.578   6.488   2.822 -0.5420  0.3043 -0.1349
 6306TIP3    H218883   0.634   6.526   2.957  1.8251 -0.4891 -0.8372
 6307TIP3   OH218884   5.718   1.211   4.984  0.3982 -0.0254 -0.3599
 6307TIP3    H118885   5.751   1.208   5.074 -1.0557  0.7946  0.2383
 6307TIP3    H218886   5.705   1.304   4.967 -0.7092 -0.2622 -0.8823
 6308TIP3   OH218887   5.189   2.221   1.172 -0.1039 -0.0990 -0.1295
 6308TIP3    H118888   5.158   2.274   1.246  1.1546 -0.9844  1.0832
 6308TIP3    H218889   5.122   2.154   1.161 -0.5503  0.3428 -0.1265
 6309TIP3   OH218890   0.678   3.226   3.263 -0.2626 -0.0235  0.3282
 6309TIP3    H118891   0.689   3.321   3.261 -1.2227  0.1527  1.7132
 6309TIP3    H218892   0.765   3.193   3.285  0.0704  0.5374 -0.1203
 6310TIP3   OH218893   0.566   0.316   4.070  0.2150 -0.1861 -0.1224
 6310TIP3    H118894   0.480   0.275   4.066  0.3679 -0.4800 -0.5600
 6310TIP3    H218895   0.549   0.408   4.049  0.0823 -0.3719 -0.8876
 6311TIP3   OH218896   2.970   1.037   5.070  0.4138  0.0276 -0.0355
 6311TIP3    H118897   2.974   0.959   5.014 -1.1529 -0.4598  0.4690
 6311TIP3    H218898   3.023   1.102   5.024  0.2216 -0.7523 -1.4251
 6312TIP3   OH218899   5.918   2.669   0.413  0.2672  0.2006  0.5444
 6312TIP3    H118900   5.892   2.761   0.401  1.2960  0.3585 -0.6988
 6312TIP3    H218901   5.857   2.636   0.479 -1.3272  1.2693 -0.2938
 6313TIP3   OH218902   6.937   1.607   5.589 -0.4151 -0.5708  0.0615
 6313TIP3    H118903   6.979   1.629   5.672  0.7726 -0.3982 -0.5651
 6313TIP3    H218904   6.920   1.513   5.594 -1.0975 -0.4162  0.8178
 6314TIP3   OH218905   1.787   5.427   0.265 -0.6713 -0.1997 -0.8036
 6314TIP3    H118906   1.734   5.403   0.342  0.2503  1.5097  0.4335
 6314TIP3    H218907   1.810   5.344   0.225 -1.3895 -1.1410  0.6425
 6315TIP3   OH218908   5.040   6.083   3.346 -0.3154 -0.2246  0.2665
 6315TIP3    H118909   4.996   6.168   3.356  0.0925  0.0837 -0.4691
 6315TIP3    H218910   4.971   6.024   3.317 -0.6942 -0.2522  1.1919
 6316TIP3   OH218911   2.266   1.003   2.025 -0.3457 -0.3208  0.1724
 6316TIP3    H118912   2.357   1.032   2.021 -0.4334  0.0894  0.8317
 6316TIP3    H218913   2.247   0.999   2.119 -0.6045 -1.7020  0.0723
 6317TIP3   OH218914   5.525   1.666   5.229  0.1848  0.0477  0.1576
 6317TIP3    H118915   5.467   1.694   5.158 -0.9809  0.1106  1.1077
 6317TIP3    H218916   5.476   1.597   5.274  0.9316 -0.0236  0.8765
 6318TIP3   OH218917   2.787   2.788   0.129 -0.2399  0.1551 -0.3203
 6318TIP3    H118918   2.806   2.789   0.036 -1.3768 -0.9124 -0.5930
 6318TIP3    H218919   2.863   2.744   0.169 -0.3199 -0.5379 -0.9069
 6319TIP3   OH218920   1.368   2.789   0.377  0.4254 -0.1780 -0.0528
 6319TIP3    H118921   1.335   2.736   0.450 -0.4298 -0.8028 -0.8595
 6319TIP3    H218922   1.350   2.735   0.300 -0.5511  1.3170 -0.9147
 6320TIP3   OH218923   1.597   3.361   2.087  0.0489  0.1536 -0.4920
 6320TIP3    H118924   1.584   3.267   2.071  0.3699 -0.0063  0.1374
 6320TIP3    H218925   1.666   3.386   2.025  0.1260 -0.0814 -0.5047
 6321TIP3   OH218926   5.875   2.196   2.420  0.0907 -0.1350  0.2898
 6321TIP3    H118927   5.856   2.288   2.442  0.7109 -0.1142  0.7654
 6321TIP3    H218928   5.823   2.179   2.342 -2.3006 -0.2203  1.7925
 6322TIP3   OH218929   0.958   3.576   4.019 -0.4038  0.3220 -0.7779
 6322TIP3    H118930   0.976   3.572   3.925  1.2801  1.0663 -0.5373
 6322TIP3    H218931   1.044   3.596   4.058 -1.0161 -0.2528  0.9330
 6323TIP3   OH218932   5.225   2.013   0.190  0.3451 -0.2232  0.1290
 6323TIP3    H118933   5.281   1.965   0.252  0.6338  1.0975  0.9360
 6323TIP3    H218934   5.287   2.059   0.133  0.0812 -1.5165 -1.2474
 6324TIP3   OH218935   7.150   5.532   0.232  0.3385  0.1425 -0.0992
 6324TIP3    H118936   7.072   5.565   0.186 -0.9546 -0.1799  1.7524
 6324TIP3    H218937   7.200   5.610   0.254  0.4915  0.3657 -1.1775
 6325TIP3   OH218938   0.970   1.248   4.794  0.6166  0.5367 -0.3030
 6325TIP3    H118939   1.011   1.227   4.878 -0.5692  0.7044  0.3429
 6325TIP3    H218940   0.917   1.170   4.773 -0.9677  1.4012  0.3138
 6326TIP3   OH218941   3.610   4.102   0.743 -0.3685  0.3287 -0.0878
 6326TIP3    H118942   3.567   4.083   0.660  0.7940 -0.5800 -0.5130
 6326TIP3    H218943   3.594   4.024   0.797  1.0495 -0.2080 -0.4005
 6327TIP3   OH218944   2.785   0.413   2.217 -0.0603 -0.0512 -0.3814
 6327TIP3    H118945   2.714   0.350   2.206 -0.5414  0.4494 -0.2174
 6327TIP3    H218946   2.815   0.432   2.128 -0.9194  0.6110 -0.5387
 6328TIP3   OH218947   2.572   4.347   2.110 -0.3748  0.2814 -0.0892
 6328TIP3    H118948   2.492   4.308   2.074 -0.5576 -2.0403  2.4827
 6328TIP3    H218949   2.643   4.306   2.060 -0.7093  0.0571 -0.3870
 6329TIP3   OH218950   3.926   3.555   3.533 -0.3785  0.3951 -0.2884
 6329TIP3    H118951   3.981   3.630   3.509  0.1146  0.1838  0.1491
 6329TIP3    H218952   3.847   3.594   3.570 -0.6742  0.7067 -1.2190
 6330TIP3   OH218953   1.430   1.075   3.693  0.5382  0.1910 -0.7165
 6330TIP3    H118954   1.471   1.009   3.750  1.1711  0.9149 -0.3199
 6330TIP3    H218955   1.396   1.141   3.753 -1.2610 -0.3878 -1.0374
 6331TIP3   OH218956   2.455   1.220   1.674 -0.2415 -0.2038  0.0855
 6331TIP3    H118957   2.537   1.183   1.706 -0.1508  0.2495  0.3905
 6331TIP3    H218958   2.405   1.145   1.643 -0.2167 -0.6220  1.0415
 6332TIP3   OH218959   4.082   1.258   4.785 -0.1942  0.4494  0.0417
 6332TIP3    H118960   4.044   1.230   4.868  0.5073 -0.9195 -0.0704
 6332TIP3    H218961   4.025   1.220   4.719 -0.2872  0.8547 -0.1135
 6333TIP3   OH218962   4.175   1.439   0.491  0.5883 -0.2123  0.0196
 6333TIP3    H118963   4.256   1.448   0.542 -0.0521 -0.8445  1.1846
 6333TIP3    H218964   4.177   1.349   0.459 -0.7529 -1.0750  2.0989
 6334TIP3   OH218965   1.743   6.021   2.981  0.1395 -0.4788 -0.3502
 6334TIP3    H118966   1.659   6.010   2.936  0.0500 -2.1400  0.1364
 6334TIP3    H218967   1.722   6.066   3.063 -0.2121 -0.5058 -0.4258
 6335TIP3   OH218968   5.737   6.277   0.980 -0.1468  0.4452 -0.3538
 6335TIP3    H118969   5.745   6.189   0.943  1.1714  0.1829  0.5037
 6335TIP3    H218970   5.664   6.269   1.042  0.4884 -0.2778  0.3216
 6336TIP3   OH218971   5.326   3.119   3.777  0.2454 -0.6356  0.6629
 6336TIP3    H118972   5.410   3.148   3.740 -0.8984  0.7580 -1.0192
 6336TIP3    H218973   5.296   3.194   3.829  0.2612 -1.3163  1.6731
 6337TIP3   OH218974   5.940   4.801   3.406 -0.1002  0.0655  0.0957
 6337TIP3    H118975   5.887   4.730   3.370 -0.0066  0.1792 -0.2713
 6337TIP3    H218976   5.881   4.876   3.411  0.4472  0.6764 -1.9278
 6338TIP3   OH218977   3.923   4.323   5.513 -0.2731  0.1674  0.7207
 6338TIP3    H118978   3.892   4.332   5.423 -0.7589 -0.3187  0.8323
 6338TIP3    H218979   3.909   4.409   5.552  1.9293  1.0356 -0.2502
 6339TIP3   OH218980   5.131   5.915   4.148  0.2870 -0.3746 -0.1413
 6339TIP3    H118981   5.040   5.936   4.171  0.6131  1.0997 -0.0962
 6339TIP3    H218982   5.144   5.958   4.063  0.5623 -1.7033 -0.8009
 6340TIP3   OH218983   0.500   4.833   0.710 -0.0283 -0.1305 -0.6726
 6340TIP3    H118984   0.491   4.739   0.691 -3.4017 -0.2680  0.8709
 6340TIP3    H218985   0.567   4.837   0.778  1.0716 -1.2394 -1.6327
 6341TIP3   OH218986   2.030   1.140   3.892 -0.1060  0.5293 -0.1588
 6341TIP3    H118987   2.087   1.164   3.819 -0.0977  0.9214 -0.0281
 6341TIP3    H218988   2.031   1.217   3.949  0.0125  0.1716  0.3292
 6342TIP3   OH218989   0.691   2.675   1.712  0.2004  0.2998 -0.2365
 6342TIP3    H118990   0.716   2.595   1.667  1.4185  1.4765 -1.7606
 6342TIP3    H218991   0.598   2.687   1.691 -0.8186 -2.0536  2.2588
 6343TIP3   OH218992   5.013   6.341   0.550 -0.2139  0.2173 -0.3376
 6343TIP3    H118993   5.023   6.421   0.497  1.0169  0.7007  0.5587
 6343TIP3    H218994   4.921   6.341   0.576 -0.2626  1.2987 -0.4482
 6344TIP3   OH218995   0.674   4.380   5.034  0.4874  0.0631 -0.8230
 6344TIP3    H118996   0.688   4.286   5.025  2.4638  0.2315  0.1403
 6344TIP3    H218997   0.609   4.389   5.104  0.7946 -0.5591 -0.4603
 6345TIP3   OH218998   2.426   1.311   3.099  0.4107 -0.3542 -0.0679
 6345TIP3    H118999   2.442   1.256   3.022 -0.4774  1.3368 -1.5612
 6345TIP3    H219000   2.336   1.292   3.124 -1.1747  2.6675 -2.7353
 6346TIP3   OH219001   1.139   4.728   1.325  0.3339  0.8059  0.0188
 6346TIP3    H119002   1.148   4.682   1.242  2.2565  0.0966  0.5684
 6346TIP3    H219003   1.124   4.820   1.300 -1.5485  0.2567 -1.0774
 6347TIP3   OH219004   0.188   6.266   2.828 -0.1185 -0.4537 -0.1597
 6347TIP3    H119005   0.235   6.321   2.766  1.2761 -1.3303  0.0878
 6347TIP3    H219006   0.121   6.222   2.775  0.0083  0.0086 -0.7194
 6348TIP3   OH219007   1.778   5.781   2.292  0.8737  0.1612 -0.1234
 6348TIP3    H119008   1.766   5.850   2.226  4.0793  0.3166 -0.7130
 6348TIP3    H219009   1.791   5.828   2.374  0.1585  0.1212  0.0131
 6349TIP3   OH219010   6.532   3.260   2.753 -0.2690 -0.2347 -0.6545
 6349TIP3    H119011   6.503   3.173   2.780 -0.7135 -0.1834 -0.9481
 6349TIP3    H219012   6.616   3.244   2.709 -0.3156 -0.5104 -0.6487
 6350TIP3   OH219013   2.939   0.877   1.831  0.1332  0.5961 -0.1513
 6350TIP3    H119014   2.931   0.911   1.920 -0.7116 -0.9652  0.3963
 6350TIP3    H219015   3.029   0.848   1.823  0.0080  0.0240  0.4723
 6351TIP3   OH219016   3.493   0.192   3.384  0.3630 -0.0845  0.1452
 6351TIP3    H119017   3.547   0.154   3.453  2.3436  1.9581 -0.1767
 6351TIP3    H219018   3.446   0.264   3.427  1.0668  0.7499 -0.4525
 6352TIP3   OH219019   4.746   1.958   5.606 -0.2145 -0.1893 -0.2576
 6352TIP3    H119020   4.814   2.021   5.580  1.4090 -1.4798  0.6586
 6352TIP3    H219021   4.765   1.880   5.554 -2.6952  0.2555 -1.9690
 6353TIP3   OH219022   6.694   3.999   1.450 -0.2293 -0.2073 -0.0597
 6353TIP3    H119023   6.600   4.007   1.470 -0.5859 -1.3947 -1.0907
 6353TIP3    H219024   6.697   3.997   1.354  1.0374  1.5528 -0.1040
 6354TIP3   OH219025   0.413   0.048   2.641 -0.1285 -0.6404  0.2870
 6354TIP3    H119026   0.369   0.034   2.557 -0.8191  1.0859  0.3249
 6354TIP3    H219027   0.504   0.067   2.617 -0.3323 -0.1105 -0.0837
 6355TIP3   OH219028   0.804   4.446   1.578 -0.5387  0.3470 -0.1439
 6355TIP3    H119029   0.753   4.499   1.639 -0.5415  1.2283 -0.8884
 6355TIP3    H219030   0.745   4.375   1.554 -1.5348  1.4557 -1.1351
 6356TIP3   OH219031   0.284   5.894   0.500 -0.4174 -0.1488  0.3431
 6356TIP3    H119032   0.370   5.889   0.541 -0.9535  2.8213  2.1532
 6356TIP3    H219033   0.302   5.921   0.409  0.5835  1.1194  0.8868
 6357TIP3   OH219034   1.543   4.518   4.716 -0.0574  0.1182 -0.5173
 6357TIP3    H119035   1.450   4.533   4.703 -0.9627 -1.3367  3.1165
 6357TIP3    H219036   1.551   4.424   4.727  2.0743  0.0888 -1.6605
 6358TIP3   OH219037   4.364   1.149   3.617 -0.2287  0.1794  0.1196
 6358TIP3    H119038   4.455   1.178   3.619 -0.0208 -0.3283  3.2274
 6358TIP3    H219039   4.313   1.230   3.625  0.0865  0.2802  1.2896
 6359TIP3   OH219040   3.603   3.208   5.782 -0.1152 -0.0452  0.1937
 6359TIP3    H119041   3.551   3.267   5.728 -0.2114 -0.6692 -0.4052
 6359TIP3    H219042   3.587   3.121   5.746 -0.8343 -0.5887  1.7447
 6360TIP3   OH219043   5.811   0.772   1.700 -0.6047  0.2713  0.3341
 6360TIP3    H119044   5.895   0.765   1.655 -1.3265 -2.4126 -0.7840
 6360TIP3    H219045   5.767   0.844   1.655  0.2444  0.2620 -0.5603
 6361TIP3   OH219046   4.796   4.444   2.194  0.3000  0.4731  0.2371
 6361TIP3    H119047   4.791   4.518   2.133 -0.8890  1.5678  1.5831
 6361TIP3    H219048   4.706   4.429   2.221  0.8937  0.8872  2.6868
 6362TIP3   OH219049   5.317   1.631   0.275 -0.6056  0.3498  0.0362
 6362TIP3    H119050   5.392   1.624   0.217  0.1991  0.2738  1.0481
 6362TIP3    H219051   5.288   1.540   0.288 -1.8298  0.4757 -1.5171
 6363TIP3   OH219052   5.171   2.837   2.682 -0.1079 -0.0199  0.1658
 6363TIP3    H119053   5.203   2.912   2.632  1.3884 -0.8357 -0.1577
 6363TIP3    H219054   5.182   2.864   2.773  1.8150 -0.3474  0.0770
 6364TIP3   OH219055   4.451   1.513   2.997  0.3260 -0.7370 -0.8711
 6364TIP3    H119056   4.522   1.559   3.042 -0.7477 -1.0828  1.3348
 6364TIP3    H219057   4.403   1.583   2.952  0.3918 -0.0613  0.0599
 6365TIP3   OH219058   1.943   1.856   0.837 -0.9612  0.0301 -0.2809
 6365TIP3    H119059   1.895   1.842   0.919  2.5336  0.4335  2.0199
 6365TIP3    H219060   1.954   1.951   0.832  0.2630 -0.0948 -0.2753
 6366TIP3   OH219061   0.897   2.973   0.957 -0.0229 -0.2525 -0.3960
 6366TIP3    H119062   0.895   3.060   0.997 -0.6255  0.9655 -2.8813
 6366TIP3    H219063   0.815   2.932   0.984  0.5503 -0.3669  1.3234
 6367TIP3   OH219064   1.948   6.378   0.643  0.2374 -0.1646 -0.1530
 6367TIP3    H119065   1.911   6.291   0.656  1.8583 -0.6378  1.8291
 6367TIP3    H219066   1.962   6.384   0.549 -1.6285 -1.2700 -0.5567
 6368TIP3   OH219067   1.054   5.867   3.070  0.2105 -0.4152  0.5072
 6368TIP3    H119068   1.076   5.792   3.125  0.4512 -0.6028  0.1642
 6368TIP3    H219069   1.008   5.828   2.995  0.9644 -0.3012 -0.0195
 6369TIP3   OH219070   1.600   2.929   0.414  0.6949  0.1887 -0.4227
 6369TIP3    H119071   1.533   2.863   0.427  0.8709 -0.5252 -2.7222
 6369TIP3    H219072   1.572   2.978   0.337  0.5211  2.9383  1.2405
 6370TIP3   OH219073   0.086   3.668   4.597  0.4432 -0.0319  0.8443
 6370TIP3    H119074   0.090   3.757   4.632  1.2040 -0.4063  1.7540
 6370TIP3    H219075   0.067   3.613   4.672 -0.0899 -0.6411  0.2772
 6371TIP3   OH219076   6.679   5.113   4.900 -0.7178 -0.2353  0.1301
 6371TIP3    H119077   6.771   5.103   4.923 -1.0720 -2.8013  0.8051
 6371TIP3    H219078   6.653   5.198   4.935  1.4885  0.7822 -0.5517
 6372TIP3   OH219079  -0.024   1.981   5.175 -0.0670  0.4148  0.0780
 6372TIP3    H119080   0.026   2.026   5.243 -0.3827  1.2846 -0.2519
 6372TIP3    H219081   0.029   1.991   5.096  1.8997 -3.2712  0.6917
 6373TIP3   OH219082   5.276   1.834   0.918  0.2370  0.6548  0.2175
 6373TIP3    H119083   5.279   1.742   0.890  1.3405  1.0733 -1.1977
 6373TIP3    H219084   5.184   1.859   0.909 -0.0007 -0.2020  0.2058
 6374TIP3   OH219085   0.811   4.001   2.305 -0.2591  0.5532  0.0091
 6374TIP3    H119086   0.859   4.060   2.248  1.8840 -2.6198 -1.7998
 6374TIP3    H219087   0.766   3.942   2.245 -4.1924  1.5373  1.6912
 6375TIP3   OH219088   2.512   6.486   2.990 -0.0356  0.1487 -0.1841
 6375TIP3    H119089   2.491   6.579   2.984  1.3600  0.5105  0.1588
 6375TIP3    H219090   2.438   6.442   2.948 -1.0035  1.3707  0.1649
 6376TIP3   OH219091   4.625   4.936   4.077  0.2671  0.1946 -0.1499
 6376TIP3    H119092   4.676   4.862   4.043 -0.5159  0.2204 -1.4212
 6376TIP3    H219093   4.601   4.986   4.000 -0.6633  0.8583  0.5481
 6377TIP3   OH219094   5.030   4.968   5.734 -0.0206  0.2436 -0.0736
 6377TIP3    H119095   5.036   5.054   5.692  1.5605 -0.7663 -2.0681
 6377TIP3    H219096   5.120   4.937   5.740 -0.4891 -1.0149  1.2796
 6378TIP3   OH219097   1.995   0.773   4.578 -0.0070  0.1924  0.0765
 6378TIP3    H119098   2.000   0.678   4.586 -0.6485  0.2233  0.9369
 6378TIP3    H219099   1.939   0.801   4.650  0.6725  1.2814  0.2056
 6379TIP3   OH219100   1.430   3.926   5.436 -0.0934 -0.2537 -0.5747
 6379TIP3    H119101   1.338   3.909   5.455 -0.9127  2.4764 -1.6365
 6379TIP3    H219102   1.431   3.951   5.344  1.6565  0.2092 -0.4563
 6380TIP3   OH219103   6.318   0.539   5.699  0.3119 -0.0290 -0.2627
 6380TIP3    H119104   6.269   0.487   5.636 -0.3195 -0.0161  0.2070
 6380TIP3    H219105   6.255   0.559   5.768  0.9440  0.0933  0.2936
 6381TIP3   OH219106   6.233   1.634   3.691 -0.4131 -0.1204 -0.0086
 6381TIP3    H119107   6.238   1.627   3.787 -0.4242  1.1686  0.1014
 6381TIP3    H219108   6.320   1.665   3.665 -1.3146  2.7317 -0.0462
 6382TIP3   OH219109   6.048   3.152   5.293 -0.2015 -0.0402 -0.4119
 6382TIP3    H119110   6.113   3.109   5.238  0.0796  1.2573 -1.1313
 6382TIP3    H219111   6.096   3.220   5.338 -0.5941 -0.5959  0.8879
 6383TIP3   OH219112   5.933   6.574   4.561  0.0649 -0.0741  0.6241
 6383TIP3    H119113   5.977   6.556   4.478 -0.5202 -0.8379  0.4613
 6383TIP3    H219114   5.989   6.533   4.627 -0.0093 -0.3964  0.4922
 6384TIP3   OH219115   1.804   3.605   1.545  0.4386  0.1707  0.0009
 6384TIP3    H119116   1.819   3.699   1.538  0.2472  0.2633  0.7977
 6384TIP3    H219117   1.863   3.567   1.479 -0.1126  0.8867 -0.9346
 6385TIP3   OH219118   0.003   1.459   2.223  0.3005 -0.2280  0.1750
 6385TIP3    H119119   0.070   1.391   2.222 -0.0174 -0.5443 -0.3812
 6385TIP3    H219120   0.049   1.539   2.196  0.7048 -0.1800  0.9671
 6386TIP3   OH219121   2.043   2.223   5.788  0.0074 -0.4201 -0.0832
 6386TIP3    H119122   2.046   2.296   5.726  0.0176 -0.8907 -0.6421
 6386TIP3    H219123   1.995   2.155   5.742 -1.0619 -0.3465  0.8943
 6387TIP3   OH219124   0.680   0.233   1.778  0.1150 -0.4807  0.0392
 6387TIP3    H119125   0.651   0.213   1.867  0.1784 -1.5158 -0.1586
 6387TIP3    H219126   0.611   0.290   1.743 -0.0675 -0.3239  0.6349
 6388TIP3   OH219127   0.483   2.238   2.142 -0.0322  0.0688 -0.6871
 6388TIP3    H119128   0.390   2.220   2.158  0.3514 -1.1695  0.3187
 6388TIP3    H219129   0.494   2.330   2.167 -0.5372 -0.4002  1.4843
 6389TIP3   OH219130   1.120   0.013   1.928  0.0166 -0.5013  0.5951
 6389TIP3    H119131   1.182   0.082   1.949  0.6512 -0.3072 -1.6153
 6389TIP3    H219132   1.052   0.057   1.877  0.2628 -1.4073 -0.5629
 6390TIP3   OH219133   1.494   1.286   3.947  0.5937  0.1259  0.4635
 6390TIP3    H119134   1.488   1.307   3.853 -0.9835  0.4676  0.6194
 6390TIP3    H219135   1.571   1.334   3.977  0.5626  0.7937 -0.4638
 6391TIP3   OH219136   3.920   0.328   1.542 -0.0600  0.4294 -0.9090
 6391TIP3    H119137   4.007   0.288   1.549  0.0673  0.4948 -2.0004
 6391TIP3    H219138   3.861   0.262   1.577  0.4402  0.4720  0.0566
 6392TIP3   OH219139   0.156   6.087   3.086 -0.7019 -0.2213  0.4301
 6392TIP3    H119140   0.225   6.143   3.052 -0.3187 -1.1092 -0.2959
 6392TIP3    H219141   0.189   5.998   3.074 -1.2977 -0.6186  1.5539
 6393TIP3   OH219142   3.342   5.604   0.099 -0.2570  0.4431 -0.2601
 6393TIP3    H119143   3.434   5.588   0.076  0.3719  2.5042  0.5398
 6393TIP3    H219144   3.294   5.593   0.018  0.1604 -3.6262 -0.1845
 6394TIP3   OH219145   6.978   1.259   0.218 -0.0731 -0.6572 -0.3614
 6394TIP3    H119146   7.037   1.190   0.187 -0.2142 -0.7186 -0.4923
 6394TIP3    H219147   7.037   1.326   0.254  0.0406 -1.1048  0.3072
 6395TIP3   OH219148   2.584   4.139   4.941 -0.0553  0.8410 -0.2360
 6395TIP3    H119149   2.599   4.144   5.036 -1.4445 -3.1766  0.4294
 6395TIP3    H219150   2.489   4.128   4.933  0.1526 -0.1185 -1.9398
 6396TIP3   OH219151   1.224   0.229   0.565  0.4157 -0.4554 -0.0854
 6396TIP3    H119152   1.268   0.168   0.506  0.0367 -0.5582 -0.2607
 6396TIP3    H219153   1.137   0.192   0.578  0.0629  0.2170 -0.4605
 6397TIP3   OH219154   6.204   0.522   3.625 -0.7657 -0.3789 -0.4744
 6397TIP3    H119155   6.167   0.456   3.683 -0.9460 -1.3673 -1.6629
 6397TIP3    H219156   6.171   0.499   3.538 -0.5817  1.1062 -0.9744
 6398TIP3   OH219157   4.421   3.326   5.379 -0.4328  0.2271 -0.3665
 6398TIP3    H119158   4.328   3.330   5.403 -0.6918  0.1900 -1.3010
 6398TIP3    H219159   4.443   3.415   5.352 -0.7954 -0.1809 -2.1699
 6399TIP3   OH219160   1.191   5.340   3.776 -0.1661  0.5341  0.0763
 6399TIP3    H119161   1.227   5.320   3.862 -0.4986  1.1353  0.3629
 6399TIP3    H219162   1.109   5.385   3.794  0.0314  1.1747 -0.5443
 6400TIP3   OH219163   4.689   4.378   3.967  0.0694  0.5277  0.8788
 6400TIP3    H119164   4.600   4.400   3.940 -0.1693 -2.4618 -1.2336
 6400TIP3    H219165   4.683   4.365   4.062 -2.7550 -3.1081  0.4375
 6401TIP3   OH219166   3.655   1.791   1.155 -0.4972  0.2491 -0.5744
 6401TIP3    H119167   3.616   1.869   1.114 -0.5375  0.5791  0.0881
 6401TIP3    H219168   3.692   1.822   1.237  0.7200 -0.1696 -0.9440
 6402TIP3   OH219169   6.664   4.046   1.159 -0.3207  0.0615 -0.0534
 6402TIP3    H119170   6.595   4.000   1.111  0.7978 -0.6241 -1.0770
 6402TIP3    H219171   6.716   4.090   1.091  1.1574 -0.7279  0.5117
 6403TIP3   OH219172   5.747   5.700   2.519  0.0455  0.0000  0.1451
 6403TIP3    H119173   5.777   5.752   2.593 -1.3351  1.2766 -0.1441
 6403TIP3    H219174   5.805   5.624   2.518  1.0514  0.7023  1.6007
 6404TIP3   OH219175   3.573   3.673   2.237 -0.4666 -0.0791  0.0933
 6404TIP3    H119176   3.487   3.652   2.199 -1.0650  1.5872  0.4363
 6404TIP3    H219177   3.633   3.672   2.162 -0.9839 -0.2649 -0.3253
 6405TIP3   OH219178   5.642   2.728   3.589 -0.3164 -0.3819 -0.5811
 6405TIP3    H119179   5.698   2.705   3.663  0.8614 -0.8202 -1.6018
 6405TIP3    H219180   5.553   2.721   3.625  0.1293 -2.6072  0.2475
 6406TIP3   OH219181   5.897   3.296   3.219  0.5140 -0.8438  0.1213
 6406TIP3    H119182   5.958   3.301   3.146  1.4758 -0.8169  0.8961
 6406TIP3    H219183   5.881   3.387   3.244  1.0834 -0.8775  0.6445
 6407TIP3   OH219184   6.817   4.355   0.251  0.7190  0.2631 -0.0703
 6407TIP3    H119185   6.871   4.335   0.175  1.1132  0.8912  0.0366
 6407TIP3    H219186   6.846   4.294   0.319  1.4753  0.7482  0.0621
 6408TIP3   OH219187   1.288   3.313   4.919 -0.1011  0.4228  0.2400
 6408TIP3    H119188   1.210   3.361   4.890 -0.1418  0.7610  0.8948
 6408TIP3    H219189   1.288   3.322   5.014 -0.2247 -1.0542  0.4170
 6409TIP3   OH219190   5.902   0.785   2.165  0.1493  0.7244  0.2501
 6409TIP3    H119191   5.875   0.704   2.208 -0.4504  1.0183  0.4409
 6409TIP3    H219192   5.962   0.757   2.096 -0.5520  0.0540 -0.1095
 6410TIP3   OH219193   2.220   5.670   3.653 -0.1116  0.1010  0.9460
 6410TIP3    H119194   2.201   5.606   3.721  1.5697  0.3686  1.7318
 6410TIP3    H219195   2.273   5.623   3.589 -2.2385 -0.3323 -0.5898
 6411TIP3   OH219196   0.792   3.041   4.938  0.1793 -0.0865 -0.0563
 6411TIP3    H119197   0.774   3.119   4.885 -0.4725 -1.2422 -1.6161
 6411TIP3    H219198   0.886   3.028   4.930  0.2175  0.2703 -0.2070
 6412TIP3   OH219199   5.233   3.430   3.324 -0.2728 -0.3498 -0.1045
 6412TIP3    H119200   5.281   3.486   3.263  0.2395 -1.2366 -0.5257
 6412TIP3    H219201   5.147   3.471   3.331  0.3501  0.9403  0.2252
 6413TIP3   OH219202   2.083   1.402   4.882  0.0930 -0.0761 -0.1300
 6413TIP3    H119203   2.083   1.365   4.794  1.4135 -1.4844  0.4119
 6413TIP3    H219204   2.017   1.352   4.929  0.6757 -0.6010  0.1476
 6414TIP3   OH219205   5.558   4.469   3.977 -1.2058  0.4005 -0.1984
 6414TIP3    H119206   5.480   4.501   4.022 -1.3963  0.6660 -0.7104
 6414TIP3    H219207   5.530   4.388   3.934 -1.3521  0.7747 -0.8243
 6415TIP3   OH219208   3.534   2.902   5.421  0.7327 -0.1583 -0.1900
 6415TIP3    H119209   3.575   2.863   5.344 -0.6665  0.8793 -1.5312
 6415TIP3    H219210   3.444   2.920   5.394  0.1851  0.2538  1.6999
 6416TIP3   OH219211   1.725   1.247   0.876  0.2127  0.3565  0.6092
 6416TIP3    H119212   1.807   1.261   0.828  0.3154  0.2746  0.7632
 6416TIP3    H219213   1.698   1.335   0.901 -0.5712  0.5445 -0.8119
 6417TIP3   OH219214   5.873   1.812   4.983  0.2001 -0.8359 -0.2180
 6417TIP3    H119215   5.880   1.760   4.903  1.0483 -1.6103  0.3413
 6417TIP3    H219216   5.859   1.748   5.053 -0.7199 -0.1605  0.2503
 6418TIP3   OH219217   2.219   4.408   3.528 -0.1867  0.5045  0.0449
 6418TIP3    H119218   2.192   4.495   3.500 -0.4607 -0.0032 -1.3324
 6418TIP3    H219219   2.261   4.370   3.451 -0.5310 -0.7673  0.4652
 6419TIP3   OH219220   5.358   3.515   3.652 -0.0385  0.4339  0.4842
 6419TIP3    H119221   5.298   3.557   3.590 -0.0840  0.0296  0.2505
 6419TIP3    H219222   5.309   3.514   3.734  0.5340  2.2114  0.8967
 6420TIP3   OH219223   4.659   3.251   4.714 -0.1637  0.6387  0.2825
 6420TIP3    H119224   4.751   3.225   4.728 -0.3401  0.0477  0.3578
 6420TIP3    H219225   4.663   3.314   4.642 -0.0432 -1.8797 -2.0823
 6421TIP3   OH219226   6.755   4.228   3.862 -0.2349 -0.7144 -0.1799
 6421TIP3    H119227   6.807   4.257   3.787 -1.4265 -1.6539 -1.4117
 6421TIP3    H219228   6.665   4.226   3.830 -0.4635 -3.8403  0.3652
 6422TIP3   OH219229   6.481   3.702   5.348  0.2561  0.1382 -0.2747
 6422TIP3    H119230   6.473   3.795   5.367 -0.5570 -0.2151  1.2524
 6422TIP3    H219231   6.534   3.667   5.419 -2.5246 -1.1683  1.3304
 6423TIP3   OH219232   6.166   4.653   1.689 -0.1289  0.0748  0.3299
 6423TIP3    H119233   6.132   4.585   1.747  0.6323 -0.1743  0.4937
 6423TIP3    H219234   6.261   4.648   1.699 -0.0373  0.7468 -0.1300
 6424TIP3   OH219235   6.115   4.370   0.175  0.1263  0.2902 -0.3048
 6424TIP3    H119236   6.162   4.441   0.132  0.8016 -0.1627 -0.3232
 6424TIP3    H219237   6.064   4.329   0.106  0.8188 -0.1200 -0.5742
 6425TIP3   OH219238   3.054   2.632   0.848  0.5275  0.4146 -0.4965
 6425TIP3    H119239   3.007   2.645   0.765 -1.5766 -0.3546  0.5336
 6425TIP3    H219240   3.030   2.544   0.876 -0.2312  1.3007  1.8019
 6426TIP3   OH219241   3.348   0.938   1.539  0.5107  0.6273  0.3204
 6426TIP3    H119242   3.282   0.915   1.474  2.2971  0.1840 -1.4462
 6426TIP3    H219243   3.369   0.855   1.582 -0.2872  0.8278  1.1259
 6427TIP3   OH219244   6.612   0.941   4.243 -0.0150  0.2645 -0.0369
 6427TIP3    H119245   6.635   0.977   4.158  0.4370  0.9780  0.3871
 6427TIP3    H219246   6.517   0.927   4.237  0.0142  0.2735 -0.6610
 6428TIP3   OH219247   2.108   4.150   2.157 -0.4003 -0.0209  0.3975
 6428TIP3    H119248   2.170   4.129   2.226  0.2856 -0.1516 -0.2540
 6428TIP3    H219249   2.073   4.065   2.129  0.7176 -0.1459 -0.6956
 6429TIP3   OH219250   6.053   1.666   2.332 -0.6647 -0.0148 -0.4348
 6429TIP3    H119251   6.084   1.586   2.290  1.3713  0.2450  0.4541
 6429TIP3    H219252   6.055   1.732   2.263 -0.7491 -0.3583 -0.7687
 6430TIP3   OH219253   6.641   1.639   2.842  0.0893 -0.6356  0.4606
 6430TIP3    H119254   6.655   1.552   2.804  0.1391 -0.0097 -1.0458
 6430TIP3    H219255   6.598   1.622   2.925  0.4999 -2.1222  0.4098
 6431TIP3   OH219256   1.230   5.291   0.534 -0.3485  0.3740  0.2357
 6431TIP3    H119257   1.238   5.371   0.585  1.2624  2.1178 -2.4600
 6431TIP3    H219258   1.303   5.236   0.563 -0.3633  0.6765  0.8474
 6432TIP3   OH219259   6.193   4.848   2.223  0.5329 -0.0894  0.0443
 6432TIP3    H119260   6.161   4.830   2.134 -0.3188 -0.6113  0.4484
 6432TIP3    H219261   6.239   4.768   2.248  1.0135  0.1613 -0.0201
 6433TIP3   OH219262   6.266   2.861   1.050  0.3727  0.9514  0.3528
 6433TIP3    H119263   6.328   2.797   1.017 -0.0385  0.4948  0.4604
 6433TIP3    H219264   6.238   2.827   1.135 -1.3185  0.2460 -0.4418
 6434TIP3   OH219265   0.582   4.055   4.346 -0.2172 -0.3372 -0.1789
 6434TIP3    H119266   0.573   4.126   4.283  0.5016 -0.6427 -0.6377
 6434TIP3    H219267   0.611   3.979   4.294  2.9126  0.0284  0.7992
 6435TIP3   OH219268   1.819   5.744   2.811 -0.1377  0.0111  0.7609
 6435TIP3    H119269   1.776   5.773   2.731  1.5406 -1.9536 -0.9911
 6435TIP3    H219270   1.891   5.806   2.824 -0.5237  0.4408  0.8442
 6436TIP3   OH219271   1.735   2.864   5.091 -0.1940 -0.5791 -0.2117
 6436TIP3    H119272   1.791   2.787   5.104  0.0449 -0.5962 -1.2426
 6436TIP3    H219273   1.703   2.885   5.179  2.3389  0.1283  0.6317
 6437TIP3   OH219274   5.418   4.419   5.296  0.1346  0.3710 -0.4243
 6437TIP3    H119275   5.439   4.400   5.205 -0.7493 -2.0921 -0.1850
 6437TIP3    H219276   5.500   4.451   5.333  0.3390  2.0565 -2.1903
 6438TIP3   OH219277   5.334   0.523   3.611 -0.3383 -0.4405  0.1518
 6438TIP3    H119278   5.287   0.529   3.528 -0.6106 -1.6377  0.1963
 6438TIP3    H219279   5.361   0.613   3.631 -0.0926 -0.1715 -1.3297
 6439TIP3   OH219280   5.973   0.198   2.252 -0.2378 -0.2424 -0.4178
 6439TIP3    H119281   6.038   0.252   2.208  0.1769  0.0321  0.5114
 6439TIP3    H219282   6.024   0.140   2.309 -0.8050  0.2238  0.5910
 6440TIP3   OH219283   4.580   1.387   1.587  0.2734  0.2571 -0.2363
 6440TIP3    H119284   4.626   1.312   1.550  0.9970  1.1504 -1.2362
 6440TIP3    H219285   4.534   1.353   1.663  2.2060 -0.7793  0.5235
 6441TIP3   OH219286   5.416   3.334   4.712  0.2578 -0.0605 -0.5005
 6441TIP3    H119287   5.341   3.363   4.660  0.0883 -0.5929 -0.5573
 6441TIP3    H219288   5.490   3.338   4.652  0.2902  0.5214 -0.4284
 6442TIP3   OH219289   3.624   3.407   4.668 -0.7832 -0.1310 -0.1051
 6442TIP3    H119290   3.588   3.492   4.693 -2.0137 -0.6402 -0.0379
 6442TIP3    H219291   3.679   3.425   4.592  1.2654  1.1258  1.5552
 6443TIP3   OH219292   4.371   2.129   5.563  0.8898  0.2769 -0.6918
 6443TIP3    H119293   4.311   2.187   5.611  0.9417 -0.5277  0.3825
 6443TIP3    H219294   4.381   2.171   5.477 -1.0108  0.5616 -0.8186
 6444TIP3   OH219295   5.605   1.926   5.055 -0.5062 -0.2704 -0.2869
 6444TIP3    H119296   5.681   1.880   5.091  0.0869  2.2059  1.9783
 6444TIP3    H219297   5.608   1.908   4.961  2.8265 -0.4066 -0.2708
 6445TIP3   OH219298   3.194   1.929   5.384  0.3880  0.1299  0.0570
 6445TIP3    H119299   3.165   1.842   5.411  0.6630 -0.2173 -0.7074
 6445TIP3    H219300   3.209   1.977   5.466 -1.1737 -0.0548  0.4668
 6446TIP3   OH219301   2.025   3.080   4.814 -0.0928 -0.0749  0.0764
 6446TIP3    H119302   2.099   3.138   4.835 -1.2029  0.7073  2.1200
 6446TIP3    H219303   2.064   3.011   4.761  2.3684 -0.2959  1.9511
 6447TIP3   OH219304   7.138   2.118   1.576  0.2160  0.5936 -0.3620
 6447TIP3    H119305   7.044   2.105   1.584  0.4649 -1.0144  0.3048
 6447TIP3    H219306   7.159   2.183   1.643 -0.3320  0.5284 -0.1212
 6448TIP3   OH219307   3.184   2.622   2.311  0.6594 -0.1121 -0.3595
 6448TIP3    H119308   3.219   2.679   2.242 -0.8629 -1.2462 -2.1799
 6448TIP3    H219309   3.217   2.535   2.289  0.6100 -0.4102  0.6984
 6449TIP3   OH219310   3.602   5.952   1.941 -0.5908 -0.3128 -0.1593
 6449TIP3    H119311   3.688   5.955   1.984  0.6013 -0.4072 -2.3853
 6449TIP3    H219312   3.544   6.000   2.001  1.1406  0.2982  1.1246
 6450TIP3   OH219313   6.438   1.888   4.883  0.5901 -0.0517  0.1038
 6450TIP3    H119314   6.453   1.961   4.943  0.6179  0.9518 -1.0842
 6450TIP3    H219315   6.344   1.890   4.865  0.7779  0.4411 -0.8499
 6451TIP3   OH219316   4.458   2.240   2.329 -0.6393 -0.1130 -0.8456
 6451TIP3    H119317   4.419   2.233   2.242 -2.9298  0.4484  0.0799
 6451TIP3    H219318   4.469   2.334   2.343 -0.7841 -0.1775 -0.3022
 6452TIP3   OH219319   4.608   3.247   1.091  0.0460  0.0164 -0.6005
 6452TIP3    H119320   4.643   3.199   1.165 -0.1929  2.7324  1.4347
 6452TIP3    H219321   4.653   3.331   1.092  0.0950  0.1578 -3.6509
 6453TIP3   OH219322   6.300   6.485   1.651 -0.3969  1.0243 -0.1891
 6453TIP3    H119323   6.357   6.562   1.645  0.2614  0.9822  3.3727
 6453TIP3    H219324   6.215   6.521   1.674 -0.2355  0.7728  0.8545
 6454TIP3   OH219325   5.543   6.792   2.937  0.6129  0.5647 -0.2646
 6454TIP3    H119326   5.465   6.766   2.889  1.5624 -0.2378 -1.4613
 6454TIP3    H219327   5.532   6.752   3.024 -0.4134  0.6959 -0.3227
 6455TIP3   OH219328   4.930   6.734   5.530 -0.1410  0.0561 -0.5538
 6455TIP3    H119329   4.985   6.656   5.533  0.4239  0.4590 -0.1571
 6455TIP3    H219330   4.927   6.758   5.437 -0.7018 -0.6928 -0.7397
 6456TIP3   OH219331   5.920   1.092   5.571  0.4175 -0.0795 -0.5875
 6456TIP3    H119332   5.888   1.032   5.503 -1.2373  0.9042 -0.7388
 6456TIP3    H219333   5.981   1.149   5.526 -2.1378  1.8615 -1.8589
 6457TIP3   OH219334   6.005   1.091   2.912  0.0598  0.3154 -0.4098
 6457TIP3    H119335   5.992   1.141   2.832  4.9630  3.0791  0.1207
 6457TIP3    H219336   5.978   1.150   2.982 -0.8466 -0.6913  0.1198
 6458TIP3   OH219337   4.380   3.090   0.342  0.0449  0.3832  0.1045
 6458TIP3    H119338   4.341   3.043   0.268 -0.3067 -0.0740  0.5734
 6458TIP3    H219339   4.314   3.086   0.411 -0.1065  1.8018  0.0771
 6459TIP3   OH219340   2.458   1.817   5.814  0.6697  0.0406 -0.3959
 6459TIP3    H119341   2.406   1.882   5.861  0.3774  0.2508 -1.0034
 6459TIP3    H219342   2.544   1.859   5.803  0.8523 -0.1491  0.2532
 6460TIP3   OH219343   3.481   1.088   2.224 -0.4722 -0.0815 -0.3066
 6460TIP3    H119344   3.460   1.152   2.155  1.0556  0.0243 -0.7032
 6460TIP3    H219345   3.540   1.135   2.283 -0.5339 -0.6665  0.2216
 6461TIP3   OH219346   5.099   0.310   3.158 -0.0368  0.0520 -0.1255
 6461TIP3    H119347   5.012   0.286   3.190 -0.2262  1.8728  0.8458
 6461TIP3    H219348   5.084   0.385   3.101  0.8452 -0.0383 -0.4926
 6462TIP3   OH219349   2.110   6.660   0.817  0.4814 -0.0772  0.4303
 6462TIP3    H119350   2.044   6.628   0.755  0.5624 -0.5491  0.5816
 6462TIP3    H219351   2.143   6.581   0.859  2.2365  0.0042 -0.7155
 6463TIP3   OH219352   4.908   2.251   4.027 -0.2408 -0.2903 -0.1764
 6463TIP3    H119353   4.936   2.201   4.103 -2.3247 -2.2442 -0.5817
 6463TIP3    H219354   4.844   2.194   3.983 -0.5841  1.5824 -2.2847
 6464TIP3   OH219355   2.346   6.395   0.576 -0.3686  0.5788  0.6759
 6464TIP3    H119356   2.286   6.465   0.602  0.5400  0.6010  2.8923
 6464TIP3    H219357   2.288   6.326   0.542 -1.3690  1.8366 -0.2867
 6465TIP3   OH219358   4.244   5.577   5.514  0.5082  0.4407  0.7932
 6465TIP3    H119359   4.281   5.589   5.602  2.3864  1.0176 -0.0275
 6465TIP3    H219360   4.156   5.612   5.521  0.7799  0.9188  2.3390
 6466TIP3   OH219361   1.897   6.763   1.789 -0.5654  0.4313  0.1490
 6466TIP3    H119362   1.930   6.849   1.761 -2.6333  1.2282  0.0213
 6466TIP3    H219363   1.887   6.771   1.883  0.5793 -0.1864  0.3423
 6467TIP3   OH219364   5.019   2.157   2.547  0.5035  0.4201 -0.7694
 6467TIP3    H119365   4.955   2.107   2.598  0.2781  1.5854  0.1402
 6467TIP3    H219366   5.102   2.111   2.559  0.4044  0.5345  0.4698
 6468TIP3   OH219367   5.327   2.730   0.233 -0.1400 -0.1706 -0.3963
 6468TIP3    H119368   5.297   2.818   0.209  0.5777 -0.0087 -0.7387
 6468TIP3    H219369   5.302   2.720   0.325  1.4860  1.1846  0.2594
 6469TIP3   OH219370   2.205   0.120   0.960 -0.2024 -0.3883 -0.2483
 6469TIP3    H119371   2.198   0.030   0.930 -0.3094 -0.6341  0.4867
 6469TIP3    H219372   2.199   0.173   0.881 -1.3080 -0.9820 -0.5702
 6470TIP3   OH219373   5.325   5.496   0.384 -0.5049  0.2299  0.1892
 6470TIP3    H119374   5.313   5.401   0.380 -0.5972  0.2092  0.9133
 6470TIP3    H219375   5.247   5.529   0.427  0.2134  0.4753  1.3395
 6471TIP3   OH219376   5.835   1.872   3.562  0.1126  0.2081  0.2712
 6471TIP3    H119377   5.911   1.814   3.551  0.0141  0.2431 -0.6451
 6471TIP3    H219378   5.865   1.958   3.533 -0.1083  0.3471  0.4504
 6472TIP3   OH219379   0.057   2.567   3.478  0.0169  0.1524 -0.0754
 6472TIP3    H119380   0.036   2.485   3.524  1.3725  0.5239  1.3148
 6472TIP3    H219381  -0.026   2.615   3.476 -0.7635 -1.1477 -0.7629
 6473TIP3   OH219382   2.639   1.458   3.727 -0.8931 -0.2794 -0.4401
 6473TIP3    H119383   2.657   1.508   3.648 -0.6082  1.5709  0.7243
 6473TIP3    H219384   2.662   1.368   3.705  0.7694  0.4521 -1.9297
 6474TIP3   OH219385   3.205   0.229   3.719  0.1740 -0.2596  0.3529
 6474TIP3    H119386   3.180   0.267   3.803  0.9087 -2.2817  1.5650
 6474TIP3    H219387   3.124   0.189   3.686  0.1017 -0.3451  0.6245
 6475TIP3   OH219388   4.387   2.086   4.451 -0.3749  0.2174  0.0194
 6475TIP3    H119389   4.415   2.120   4.536  1.0297 -1.8166  0.4415
 6475TIP3    H219390   4.464   2.094   4.395 -0.4703 -0.8258 -0.2903
 6476TIP3   OH219391   0.975   0.967   0.489 -0.6398 -0.3171 -0.3187
 6476TIP3    H119392   0.918   0.940   0.561 -1.2131 -2.4020 -1.4733
 6476TIP3    H219393   1.058   0.922   0.506 -0.4675 -0.0710 -0.4970
 6477TIP3   OH219394   3.144   0.918   4.640 -0.4904  0.0041  0.2689
 6477TIP3    H119395   3.124   0.874   4.557 -0.5191  1.1430 -0.3469
 6477TIP3    H219396   3.185   1.001   4.614  1.6756 -0.6170  1.4256
 6478TIP3   OH219397   1.786   6.590   4.769  0.0886  0.5542 -0.4137
 6478TIP3    H119398   1.868   6.632   4.797  1.5372  0.2623 -3.6891
 6478TIP3    H219399   1.722   6.661   4.768  0.9980  1.4090 -0.2896
 6479TIP3   OH219400   3.797   6.699   4.489  0.3703 -0.6594  0.1750
 6479TIP3    H119401   3.828   6.729   4.404 -0.6577 -2.5413 -0.9331
 6479TIP3    H219402   3.870   6.717   4.549  0.6956  1.7042 -0.8327
 6480TIP3   OH219403   0.493   1.171   2.965  0.3328 -0.0428 -1.0328
 6480TIP3    H119404   0.492   1.261   2.933  0.1539 -0.3964 -2.0442
 6480TIP3    H219405   0.538   1.177   3.050 -0.0365  1.0505 -0.8948
 6481TIP3   OH219406   5.607   4.890   5.798  0.3533  0.1398  0.5098
 6481TIP3    H119407   5.588   4.972   5.753 -1.1672 -1.3131 -1.7194
 6481TIP3    H219408   5.665   4.914   5.870 -0.0682  3.1320 -0.0512
 6482TIP3   OH219409   1.759   0.364   0.573 -0.3083 -0.4899  0.1479
 6482TIP3    H119410   1.820   0.336   0.505 -0.5229  0.7499 -0.5764
 6482TIP3    H219411   1.675   0.328   0.546 -0.2985 -0.4324  0.0434
 6483TIP3   OH219412   1.982   1.428   4.220  0.5032  0.1117  0.0752
 6483TIP3    H119413   1.954   1.366   4.287 -0.8243  0.6193  0.0093
 6483TIP3    H219414   2.059   1.387   4.180  1.1019 -0.3486  1.6625
 6484TIP3   OH219415   0.491   2.507   2.105 -0.1508  0.0590  0.1157
 6484TIP3    H119416   0.493   2.488   2.011  0.5903 -0.6532  0.2622
 6484TIP3    H219417   0.402   2.540   2.120 -0.7165 -1.0367 -0.6149
 6485TIP3   OH219418   4.652   5.739   5.213 -0.2867  0.0470  0.9719
 6485TIP3    H119419   4.738   5.699   5.200 -0.1586  0.2411  1.2230
 6485TIP3    H219420   4.659   5.825   5.173 -0.7061 -0.3392  0.0264
 6486TIP3   OH219421   6.701   3.383   2.433 -0.2673 -0.0131  0.0534
 6486TIP3    H119422   6.656   3.415   2.355  1.5584  1.1043 -0.6057
 6486TIP3    H219423   6.745   3.302   2.404  0.2845  0.3193 -0.0566
 6487TIP3   OH219424   2.376   0.333   0.174  0.3019 -0.0768  0.4690
 6487TIP3    H119425   2.433   0.408   0.191  0.2106 -0.2130  1.3954
 6487TIP3    H219426   2.287   0.368   0.183  0.2204  0.0670 -0.6871
 6488TIP3   OH219427   2.379   6.647   5.167  0.4565  0.1678 -1.1686
 6488TIP3    H119428   2.378   6.604   5.082 -0.0732 -0.2080 -0.9778
 6488TIP3    H219429   2.347   6.736   5.150 -1.6311 -0.5077 -1.0604
 6489TIP3   OH219430   6.753   3.858   2.838 -0.8271 -0.3451 -0.2181
 6489TIP3    H119431   6.688   3.790   2.823 -1.5713  0.1854  0.4886
 6489TIP3    H219432   6.778   3.887   2.751 -1.9804 -0.1663 -0.5065
 6490TIP3   OH219433   6.166   1.927   2.836 -0.1462  0.2030  0.2173
 6490TIP3    H119434   6.137   2.017   2.822  0.0992  0.1111 -1.0169
 6490TIP3    H219435   6.234   1.914   2.769  0.2153 -0.7208  0.7516
 6491TIP3   OH219436   1.904   2.631   5.048 -0.0782  0.3204 -0.0039
 6491TIP3    H119437   1.846   2.573   5.000  0.2667 -0.1379  0.1302
 6491TIP3    H219438   1.914   2.590   5.133 -1.4715  1.6137  0.8466
 6492TIP3   OH219439   5.292   3.867   3.886  0.0587 -0.1284 -0.3729
 6492TIP3    H119440   5.214   3.884   3.833  0.3095  1.0027 -0.4026
 6492TIP3    H219441   5.261   3.874   3.976 -0.3493 -1.9701 -0.3217
 6493TIP3   OH219442   6.502   4.198   3.749 -0.3334  0.1997  0.3734
 6493TIP3    H119443   6.472   4.230   3.664 -0.1301  1.5624  0.7923
 6493TIP3    H219444   6.526   4.107   3.733 -1.4909  0.0671 -0.7337
 6494TIP3   OH219445   4.213   6.422   1.057  0.1592 -0.0290  0.7284
 6494TIP3    H119446   4.156   6.471   1.116 -2.0921  0.0443 -1.3731
 6494TIP3    H219447   4.270   6.372   1.116 -0.5218  1.6255  2.9288
 6495TIP3   OH219448   6.069   2.354   2.273 -0.6314 -0.2459  0.1453
 6495TIP3    H119449   6.058   2.259   2.263 -0.8395 -0.0703 -1.4765
 6495TIP3    H219450   6.109   2.364   2.360 -0.1055 -1.8493  0.1201
 6496TIP3   OH219451   2.609   0.162   3.449 -0.2226 -0.3219  0.1790
 6496TIP3    H119452   2.623   0.102   3.376 -1.1158  0.2839 -0.5074
 6496TIP3    H219453   2.631   0.111   3.527  0.5427 -1.0364 -0.4905
 6497TIP3   OH219454   1.456   2.377   5.601 -0.2836 -0.0802  0.2011
 6497TIP3    H119455   1.466   2.454   5.657 -1.0681  0.5542 -0.5117
 6497TIP3    H219456   1.508   2.397   5.524  1.2080 -1.1668  0.8760
 6498TIP3   OH219457   0.840   6.057   0.285  0.6332  0.6394  0.2638
 6498TIP3    H119458   0.757   6.073   0.329 -0.0926  1.4105 -1.3157
 6498TIP3    H219459   0.889   6.138   0.297  0.3092  0.9712 -0.5677
 6499TIP3   OH219460   0.024   0.687   1.679  0.1429  0.1641  0.1908
 6499TIP3    H119461  -0.005   0.597   1.694 -1.5644  0.4467 -1.0897
 6499TIP3    H219462   0.047   0.689   1.586  1.0951  0.8213  0.4292
 6500TIP3   OH219463   2.121   2.575   4.696 -0.4421  0.0395 -0.5635
 6500TIP3    H119464   2.193   2.604   4.641 -0.8887 -0.9364 -1.6948
 6500TIP3    H219465   2.159   2.567   4.783  0.6001  0.3229 -0.9822
 6501TIP3   OH219466   3.780   5.379   2.709  0.3238  0.6538 -0.3861
 6501TIP3    H119467   3.736   5.446   2.656 -0.1363  0.9351  0.3455
 6501TIP3    H219468   3.825   5.429   2.777 -0.4006  0.1903  0.4363
 6502TIP3   OH219469   6.991   5.114   1.158  0.1363 -1.0588 -0.1966
 6502TIP3    H119470   7.038   5.149   1.082 -0.2528 -2.3894 -1.0820
 6502TIP3    H219471   6.983   5.188   1.218  1.1927 -0.1978 -1.0920
 6503TIP3   OH219472   4.547   4.445   2.286  0.2866 -0.1896 -0.2755
 6503TIP3    H119473   4.495   4.430   2.207  1.8687  1.4440 -1.7405
 6503TIP3    H219474   4.512   4.526   2.323  1.6606  0.8692 -1.2212
 6504TIP3   OH219475   4.373   4.071   3.413  0.5623 -0.5655  0.1554
 6504TIP3    H119476   4.361   3.994   3.469 -0.4281 -0.6587 -0.1765
 6504TIP3    H219477   4.395   4.035   3.327  1.8270 -0.4275  0.4006
 6505TIP3   OH219478   3.566   2.131   1.711 -0.4634 -0.0678  0.3213
 6505TIP3    H119479   3.583   2.048   1.755 -1.3697 -0.2248  0.3888
 6505TIP3    H219480   3.607   2.197   1.767 -0.4618 -0.3864  0.6980
 6506TIP3   OH219481   7.152   5.974   5.731 -0.1569  0.1822  0.0028
 6506TIP3    H119482   7.247   5.965   5.738  0.0052  1.1866 -0.6954
 6506TIP3    H219483   7.124   5.895   5.685  0.4808  0.3828 -0.7530
 6507TIP3   OH219484   2.286   4.105   1.707  0.0900  0.2710 -0.6413
 6507TIP3    H119485   2.379   4.094   1.689 -0.1279 -1.6370 -0.7461
 6507TIP3    H219486   2.278   4.092   1.802 -0.4185 -2.7401 -1.0107
 6508TIP3   OH219487   5.529   2.919   0.840 -0.2384  0.7722 -0.5197
 6508TIP3    H119488   5.503   2.990   0.781 -0.0313  0.7012 -0.6993
 6508TIP3    H219489   5.618   2.898   0.814 -0.0333  0.9461  0.0259
 6509TIP3   OH219490   3.481   6.651   3.233  0.1417 -0.1940 -0.6128
 6509TIP3    H119491   3.434   6.621   3.155 -0.4797 -1.4949  0.2252
 6509TIP3    H219492   3.452   6.741   3.245 -0.1462 -0.1412 -1.5826
 6510TIP3   OH219493   0.257   1.150   0.554 -0.3781  0.0584  0.2197
 6510TIP3    H119494   0.288   1.077   0.608 -2.0118 -0.6755  0.2209
 6510TIP3    H219495   0.208   1.108   0.483  1.8427  0.9862 -1.9897
 6511TIP3   OH219496   2.584   3.107   3.229 -0.5941 -0.8065  0.8017
 6511TIP3    H119497   2.565   3.196   3.260  1.8824 -0.1102  0.5241
 6511TIP3    H219498   2.551   3.050   3.298 -2.1697  0.3067  1.0177
 6512TIP3   OH219499   4.279   1.874   1.098  0.5794 -0.8584 -0.0063
 6512TIP3    H119500   4.219   1.927   1.046  2.8324  0.5440 -1.3568
 6512TIP3    H219501   4.241   1.786   1.097 -1.5465  0.0163 -0.5517
 6513TIP3   OH219502   5.539   3.516   0.229 -0.6227 -0.0562 -0.0929
 6513TIP3    H119503   5.612   3.532   0.289  0.1528 -0.0348 -1.0163
 6513TIP3    H219504   5.541   3.589   0.168 -3.2323  1.5463  1.5392
 6514TIP3   OH219505   2.948   1.489   0.793  0.2652 -0.3316  0.0958
 6514TIP3    H119506   2.931   1.582   0.806  0.2200  0.2640 -3.3069
 6514TIP3    H219507   2.916   1.470   0.705  1.1216 -3.3660  0.3031
 6515TIP3   OH219508   0.559   2.987   0.707 -0.5819  0.2986 -0.1023
 6515TIP3    H119509   0.649   3.017   0.696 -0.4733  0.3498  0.8120
 6515TIP3    H219510   0.519   2.997   0.620  0.0140  1.2142 -0.2865
 6516TIP3   OH219511   0.373   3.261   0.882 -0.0877  0.4071  0.5716
 6516TIP3    H119512   0.349   3.228   0.795  0.3706  1.8214 -0.1187
 6516TIP3    H219513   0.467   3.244   0.889  0.0534  1.0842  0.4112
 6517TIP3   OH219514   3.691   5.974   3.619  0.3183 -0.2130 -0.1961
 6517TIP3    H119515   3.623   5.977   3.553  0.0953 -1.0355 -0.0186
 6517TIP3    H219516   3.738   5.892   3.601  1.4707  0.4984 -0.5219
 6518TIP3   OH219517   0.496   4.851   1.616 -0.2509  0.1001 -0.1251
 6518TIP3    H119518   0.535   4.921   1.669 -0.8605  3.1970 -3.3583
 6518TIP3    H219519   0.557   4.841   1.542 -0.7907 -2.0529 -0.3478
 6519TIP3   OH219520   1.140   3.627   4.459 -1.0091  0.0139  0.1230
 6519TIP3    H119521   1.180   3.566   4.521  0.2332  1.2535  0.5876
 6519TIP3    H219522   1.086   3.684   4.514  0.7786  1.6713  0.2424
 6520TIP3   OH219523   1.939   6.666   4.325  0.0867 -0.8070  0.0053
 6520TIP3    H119524   1.912   6.689   4.236  2.5375  0.3981 -0.5000
 6520TIP3    H219525   2.035   6.669   4.323  0.2178 -0.5510  2.7301
 6521TIP3   OH219526   1.628   1.842   5.227 -0.0171 -0.1636  0.4606
 6521TIP3    H119527   1.636   1.752   5.256 -0.1593  0.2983  2.0482
 6521TIP3    H219528   1.536   1.853   5.204  0.1673 -0.6339 -0.5141
 6522TIP3   OH219529   6.181   0.996   2.328 -0.1782 -0.1623 -0.3479
 6522TIP3    H119530   6.110   0.949   2.284 -0.2632  0.1681 -0.5648
 6522TIP3    H219531   6.260   0.967   2.283 -0.2185 -0.1902 -0.4014
 6523TIP3   OH219532   3.698   5.646   2.626  0.1707 -0.1395 -0.0637
 6523TIP3    H119533   3.739   5.706   2.563  1.5556 -0.5323  0.4236
 6523TIP3    H219534   3.663   5.703   2.694 -2.1232  0.3611 -1.5372
 6524TIP3   OH219535   0.127   2.287   3.599 -0.2244  0.0669  0.5896
 6524TIP3    H119536   0.200   2.234   3.632 -2.1241 -2.0117  1.7500
 6524TIP3    H219537   0.049   2.235   3.618 -2.0421  2.1343 -0.6904
 6525TIP3   OH219538   1.299   4.277   0.216 -0.1697  0.8753 -0.1397
 6525TIP3    H119539   1.361   4.205   0.204 -0.5486  0.4528  0.3995
 6525TIP3    H219540   1.355   4.354   0.232  0.2171  0.3266  1.2783
 6526TIP3   OH219541   4.921   3.843   0.649  0.0672 -0.5210 -0.1810
 6526TIP3    H119542   4.938   3.911   0.715 -0.0968  1.3186 -1.9379
 6526TIP3    H219543   4.834   3.864   0.615 -0.2337 -1.9842 -0.3749
 6527TIP3   OH219544   3.808   6.681   4.866  0.0862  0.3539 -0.5599
 6527TIP3    H119545   3.882   6.651   4.814 -0.4288  0.0682 -1.1555
 6527TIP3    H219546   3.847   6.727   4.940  0.8969 -1.1697  0.0165
 6528TIP3   OH219547   5.828   0.118   5.626  0.0777  0.2688 -0.4688
 6528TIP3    H119548   5.846   0.026   5.645 -0.9126  0.0759 -0.3732
 6528TIP3    H219549   5.911   0.162   5.640  0.2611 -0.4121  0.8205
 6529TIP3   OH219550   0.224   0.740   4.831  0.7247  0.4484 -0.2554
 6529TIP3    H119551   0.291   0.672   4.845 -0.7223 -1.0459 -0.2824
 6529TIP3    H219552   0.193   0.761   4.919  0.4890  0.3471 -0.3127
 6530TIP3   OH219553   3.564   0.405   2.998 -0.4786 -0.6006  0.0221
 6530TIP3    H119554   3.521   0.334   2.951  0.5978 -0.7923 -0.7123
 6530TIP3    H219555   3.511   0.483   2.978  0.5178 -0.4534 -2.4549
 6531TIP3   OH219556   5.221   1.605   1.918 -0.1433 -0.2372 -0.2260
 6531TIP3    H119557   5.154   1.621   1.852 -1.1929 -0.1334  0.8123
 6531TIP3    H219558   5.225   1.686   1.968 -0.4383 -0.7774  0.7190
 6532TIP3   OH219559   1.706   0.922   4.556 -0.2195 -0.2121 -0.0850
 6532TIP3    H119560   1.791   0.908   4.597  0.3994  0.2699 -1.1757
 6532TIP3    H219561   1.671   0.834   4.542 -0.2547 -0.3994  1.0448
 6533TIP3   OH219562   6.572   4.206   0.604 -0.5653  0.2048  0.0157
 6533TIP3    H119563   6.580   4.219   0.509 -0.5116  0.7264  0.0887
 6533TIP3    H219564   6.522   4.125   0.613  2.9754 -2.2412 -0.4731
 6534TIP3   OH219565   0.722   4.946   3.307 -0.3001  0.0227  0.4107
 6534TIP3    H119566   0.641   4.996   3.298 -0.7367 -0.7448 -0.0611
 6534TIP3    H219567   0.693   4.861   3.340  0.5976  0.6047  2.9163
 6535TIP3   OH219568   4.676   5.365   2.170  0.7168  0.3569 -0.0550
 6535TIP3    H119569   4.659   5.275   2.198  2.4857  0.1716  0.5182
 6535TIP3    H219570   4.650   5.366   2.077  0.8742 -0.7990 -0.1258
 6536TIP3   OH219571   0.783   6.697   3.202 -0.1906 -0.3578 -0.0481
 6536TIP3    H119572   0.693   6.728   3.193 -0.1239 -0.4399 -1.0030
 6536TIP3    H219573   0.778   6.603   3.190 -0.3689 -0.8092  2.7190
 6537TIP3   OH219574   0.883   2.779   0.224 -0.5179  0.3878 -0.6019
 6537TIP3    H119575   0.951   2.769   0.290 -0.0527 -1.2367 -1.2864
 6537TIP3    H219576   0.918   2.737   0.146 -1.5407  1.2105 -1.5446
 6538TIP3   OH219577   2.873   4.865   4.971  0.0130  0.6572 -0.2346
 6538TIP3    H119578   2.863   4.958   4.992  0.2101  0.2963  1.7043
 6538TIP3    H219579   2.960   4.858   4.932 -0.9049  1.5829 -2.5631
 6539TIP3   OH219580   3.069   4.440   5.703  0.1263 -0.0135 -0.1301
 6539TIP3    H119581   2.997   4.446   5.765  0.7816  1.0617  0.5718
 6539TIP3    H219582   3.105   4.529   5.700  1.6960 -0.6187 -0.1268
 6540TIP3   OH219583   3.808   2.777   0.846  0.2186 -0.5834  0.2485
 6540TIP3    H119584   3.756   2.701   0.873 -0.1279  0.3061  2.2379
 6540TIP3    H219585   3.757   2.853   0.874  0.5185  0.4486 -1.7743
 6541TIP3   OH219586   0.383   3.936   4.628 -0.3896 -0.3861  0.2315
 6541TIP3    H119587   0.464   3.970   4.592 -0.0132 -2.0214 -0.6079
 6541TIP3    H219588   0.394   3.841   4.625 -2.7904 -0.7331 -1.1157
 6542TIP3   OH219589   2.260   1.431   3.769 -0.6912  0.5988  0.1955
 6542TIP3    H119590   2.327   1.492   3.798  2.2926 -1.1840 -2.3122
 6542TIP3    H219591   2.235   1.462   3.682 -1.0377 -0.2868 -0.0311
 6543TIP3   OH219592   2.475   5.250   1.646  0.1832  0.1910  0.2636
 6543TIP3    H119593   2.508   5.185   1.708  0.2753 -3.2179 -2.9469
 6543TIP3    H219594   2.554   5.281   1.601 -0.1622 -1.6872 -1.8086
 6544TIP3   OH219595   4.495   4.433   3.538  0.1641 -0.1857  0.4397
 6544TIP3    H119596   4.453   4.375   3.602 -1.4418 -0.4547 -0.8291
 6544TIP3    H219597   4.458   4.520   3.556 -0.2497 -0.2519 -0.0735
 6545TIP3   OH219598   1.179   2.771   4.388 -0.5794 -0.0914 -0.0654
 6545TIP3    H119599   1.130   2.794   4.310  0.3321 -1.2014 -1.0088
 6545TIP3    H219600   1.176   2.675   4.391 -1.7678 -0.0581  2.0587
 6546TIP3   OH219601   0.548   2.591   4.841 -0.0054  1.3021  0.4384
 6546TIP3    H119602   0.595   2.574   4.922  0.0115  1.2040  0.4079
 6546TIP3    H219603   0.455   2.587   4.866 -0.0895 -1.3161 -0.0366
 6547TIP3   OH219604   1.366   3.318   1.847  0.1245  0.0195 -0.0909
 6547TIP3    H119605   1.356   3.377   1.922  0.9458 -0.7083  0.6154
 6547TIP3    H219606   1.335   3.369   1.773 -0.7481  0.7471  0.7424
 6548TIP3   OH219607   2.453   3.495   0.074 -0.6146 -0.3397  0.2904
 6548TIP3    H119608   2.441   3.450   0.158 -2.3557 -0.4808  0.0052
 6548TIP3    H219609   2.370   3.540   0.059  0.2464  1.0397 -0.5889
 6549TIP3   OH219610   3.365   4.766   1.328  0.0622 -0.5788  0.4371
 6549TIP3    H119611   3.348   4.818   1.250  1.4397  0.2651  0.6705
 6549TIP3    H219612   3.336   4.678   1.305  0.3387 -0.3143 -0.9922
 6550TIP3   OH219613   2.507   1.184   2.440  0.3281  0.0272 -0.5203
 6550TIP3    H119614   2.421   1.218   2.466  0.9289  1.6892 -0.5723
 6550TIP3    H219615   2.569   1.231   2.496  1.2261 -1.1364 -0.4949
 6551TIP3   OH219616   0.059   1.036   2.846  0.0086 -0.0084  0.2604
 6551TIP3    H119617   0.096   1.105   2.902  0.8473 -0.2878  0.0591
 6551TIP3    H219618  -0.002   1.082   2.789 -0.3417  0.3861  0.9381
 6552TIP3   OH219619   0.272   3.155   0.644 -0.0866  0.3051 -0.1586
 6552TIP3    H119620   0.313   3.078   0.604 -0.0914 -0.2511  0.8723
 6552TIP3    H219621   0.231   3.201   0.570  1.1955  0.1317 -1.0059
 6553TIP3   OH219622   7.030   1.663   0.578 -0.7080  0.1505  0.8814
 6553TIP3    H119623   6.935   1.658   0.593 -0.8960  1.4582  0.1919
 6553TIP3    H219624   7.067   1.672   0.666 -1.2722  0.3549  1.1014
 6554TIP3   OH219625   1.583   3.554   4.961  0.5393  0.5491 -0.0934
 6554TIP3    H119626   1.543   3.569   4.875  1.0651 -0.7120 -0.5818
 6554TIP3    H219627   1.597   3.459   4.964 -1.4482  0.2383  2.2676
 6555TIP3   OH219628   6.633   4.720   0.872  0.0199 -0.1958  0.4971
 6555TIP3    H119629   6.623   4.714   0.967 -0.4845  2.0988  0.6681
 6555TIP3    H219630   6.544   4.710   0.838 -0.2904  1.8455  0.5552
 6556TIP3   OH219631   7.119   1.816   4.574 -0.1600  0.2167 -0.2986
 6556TIP3    H119632   7.064   1.838   4.500 -1.7792 -0.7922  0.5363
 6556TIP3    H219633   7.064   1.833   4.651 -0.8867 -4.2854  0.5006
 6557TIP3   OH219634   7.220   6.548   3.006 -0.2922  0.1006 -0.1581
 6557TIP3    H119635   7.162   6.589   3.069  0.4971  2.6062 -0.9492
 6557TIP3    H219636   7.241   6.617   2.943  1.7560 -1.3105 -1.1675
 6558TIP3   OH219637   0.152   0.062   4.504 -0.1353  0.3065 -0.2645
 6558TIP3    H119638   0.093   0.068   4.580  1.5534  0.4377  1.1074
 6558TIP3    H219639   0.131   0.139   4.452 -2.9927 -1.0073 -1.2758
 6559TIP3   OH219640   4.415   3.414   2.409  0.4933  0.1170  0.1330
 6559TIP3    H119641   4.393   3.396   2.318  0.0380  0.7509  0.1091
 6559TIP3    H219642   4.456   3.334   2.440  1.3328  0.1399 -0.8439
 6560TIP3   OH219643   1.205   4.331   4.325 -0.6477 -0.1521  0.4874
 6560TIP3    H119644   1.111   4.347   4.335 -0.4415  1.1233  0.6373
 6560TIP3    H219645   1.225   4.261   4.386 -2.1367 -3.1156 -2.1764
 6561TIP3   OH219646   5.016   1.657   3.856  0.4851  0.4172  0.0710
 6561TIP3    H119647   4.954   1.720   3.891  0.0606  0.7848 -1.3087
 6561TIP3    H219648   5.036   1.599   3.931 -0.4268  1.1285  0.8884
 6562TIP3   OH219649   3.910   4.911   4.775 -0.1769  0.3797 -0.3786
 6562TIP3    H119650   3.888   4.980   4.713 -0.5487  0.9382  0.3639
 6562TIP3    H219651   3.836   4.909   4.836  0.6698  0.5529  0.6656
 6563TIP3   OH219652   7.194   4.383   3.775 -0.0138 -0.3241 -0.1901
 6563TIP3    H119653   7.205   4.303   3.724 -1.0058 -0.9073  0.4594
 6563TIP3    H219654   7.103   4.379   3.806  0.2764  0.4768  0.8202
 6564TIP3   OH219655   5.795   0.764   1.334 -0.1545  0.2216 -0.3042
 6564TIP3    H119656   5.829   0.740   1.247 -0.9780 -0.7346 -0.3920
 6564TIP3    H219657   5.828   0.695   1.392  0.1525  0.6981  0.0879
 6565TIP3   OH219658   2.786   2.697   5.075  0.1978  0.4498  0.8340
 6565TIP3    H119659   2.841   2.771   5.103  0.3620  0.2411  1.0743
 6565TIP3    H219660   2.804   2.687   4.982 -1.0631  1.7561  0.4305
 6566TIP3   OH219661   5.773   3.936   2.603 -0.4281  0.4348  0.2757
 6566TIP3    H119662   5.825   3.971   2.530 -0.5757 -0.4851 -0.2908
 6566TIP3    H219663   5.685   3.927   2.568 -0.6920  0.7693  0.8361
 6567TIP3   OH219664   4.113   0.542   1.356 -0.1111  0.2803  0.4501
 6567TIP3    H119665   4.065   0.610   1.308 -1.2223 -2.8084 -3.4002
 6567TIP3    H219666   4.070   0.539   1.442 -1.6540  2.7369 -0.1319
 6568TIP3   OH219667   4.994   3.432   4.730  0.3059  0.4442 -0.2223
 6568TIP3    H119668   5.031   3.371   4.794  1.2618  0.1868 -1.0021
 6568TIP3    H219669   5.039   3.412   4.648 -0.1028  1.5155 -0.7307
 6569TIP3   OH219670   2.095   4.337   0.591 -0.4789 -0.1585  0.1565
 6569TIP3    H119671   2.019   4.393   0.607  0.2866  0.8351  0.3556
 6569TIP3    H219672   2.057   4.256   0.555 -1.4948  0.9571 -1.4042
 6570TIP3   OH219673   1.131   6.508   0.915  0.4394  0.3279  0.3437
 6570TIP3    H119674   1.060   6.570   0.897  0.3112  0.0632 -0.0887
 6570TIP3    H219675   1.099   6.456   0.989 -0.3730 -0.6267 -0.6481
 6571TIP3   OH219676   2.844   1.536   5.355  0.1335  0.3710 -0.0122
 6571TIP3    H119677   2.828   1.563   5.264  0.9627 -0.1025 -0.3113
 6571TIP3    H219678   2.936   1.557   5.371  0.0945  0.1020  0.5883
 6572TIP3   OH219679   2.812   3.233   3.511  1.0346  0.2913  0.3557
 6572TIP3    H119680   2.889   3.263   3.560  0.5805 -1.2565  2.0973
 6572TIP3    H219681   2.752   3.199   3.577 -0.3740 -0.2686 -1.1319
 6573TIP3   OH219682   4.405   4.979   1.276 -0.0675 -0.3370  0.3103
 6573TIP3    H119683   4.454   5.041   1.222 -1.2283  0.7605  0.4546
 6573TIP3    H219684   4.405   5.019   1.363  0.0065 -1.0332  0.6285
 6574TIP3   OH219685   2.927   0.411   2.564 -0.6138  0.2956 -0.2399
 6574TIP3    H119686   2.918   0.466   2.642 -1.7281 -0.0739 -0.0921
 6574TIP3    H219687   2.838   0.393   2.537 -0.2386  0.6463 -1.7888
 6575TIP3   OH219688   4.075   0.615   2.357  0.4934  0.4081  0.3903
 6575TIP3    H119689   4.027   0.546   2.404 -1.6411  2.1975  0.9888
 6575TIP3    H219690   4.167   0.593   2.371 -0.1035 -1.6888  1.5029
 6576TIP3   OH219691   1.567   5.346   0.415  0.2078  0.1129 -0.3945
 6576TIP3    H119692   1.529   5.321   0.499  3.2881 -0.8701  0.8397
 6576TIP3    H219693   1.556   5.441   0.412  0.6645  0.2823  1.5368
 6577TIP3   OH219694   6.091   1.268   5.375 -0.8324 -0.7866 -0.0955
 6577TIP3    H119695   6.171   1.242   5.329 -0.6838 -0.7777  0.1578
 6577TIP3    H219696   6.117   1.276   5.467 -1.7135 -3.4940  0.4830
 6578TIP3   OH219697   0.797   2.150   5.360 -0.3307  0.0952  0.0843
 6578TIP3    H119698   0.888   2.119   5.355  0.3410  1.8895  0.2138
 6578TIP3    H219699   0.793   2.219   5.294 -1.0833  1.2389  1.3000
 6579TIP3   OH219700   0.970   5.141   0.124  0.1029  0.0784 -0.3196
 6579TIP3    H119701   1.025   5.134   0.046  0.6005 -1.1341  0.1295
 6579TIP3    H219702   1.029   5.126   0.198 -0.6901 -0.5055  0.2107
 6580TIP3   OH219703   6.001   5.273   1.483  0.1729 -0.1513  0.2966
 6580TIP3    H119704   5.972   5.319   1.404 -0.1973 -0.5201  0.2184
 6580TIP3    H219705   6.097   5.280   1.481  0.1788 -0.3930 -0.3217
 6581TIP3   OH219706   0.935   0.716   0.846  0.7528 -0.4454  0.3083
 6581TIP3    H119707   1.026   0.731   0.819  0.7237  2.8960  1.6256
 6581TIP3    H219708   0.896   0.803   0.848 -2.3813 -1.7248  0.3171
 6582TIP3   OH219709   1.568   0.717   2.799 -0.4304  0.4292 -0.1414
 6582TIP3    H119710   1.509   0.650   2.765  0.1462 -0.9162  1.3630
 6582TIP3    H219711   1.556   0.714   2.894 -0.7928  2.8913 -0.0422
 6583TIP3   OH219712   5.289   5.530   0.107  0.2602 -0.6372  0.0930
 6583TIP3    H119713   5.372   5.508   0.064  0.0258 -2.1546  0.3750
 6583TIP3    H219714   5.306   5.513   0.200 -0.1619 -0.2842  0.2351
 6584TIP3   OH219715   2.734   0.149   2.606  0.6415 -0.5219 -0.1852
 6584TIP3    H119716   2.828   0.133   2.593  0.8125 -1.0163  1.3743
 6584TIP3    H219717   2.724   0.243   2.592  1.6119 -0.2512  0.7694
 6585TIP3   OH219718   6.703   5.226   5.406  0.1708  0.0604  0.4773
 6585TIP3    H119719   6.726   5.158   5.343 -0.1956  0.7932 -0.4752
 6585TIP3    H219720   6.625   5.193   5.450 -1.2577  0.7192 -1.4345
 6586TIP3   OH219721   3.880   4.194   4.120 -0.1143  0.2980 -0.3935
 6586TIP3    H119722   3.849   4.104   4.106  2.5456 -0.8656  0.4914
 6586TIP3    H219723   3.845   4.218   4.206  0.7469 -0.7221  0.2786
 6587TIP3   OH219724   3.788   2.757   0.381  0.1518  0.3964  0.6182
 6587TIP3    H119725   3.724   2.739   0.450 -0.2699  0.3194  0.2073
 6587TIP3    H219726   3.737   2.760   0.300  0.6140  0.7099  0.3346
 6588TIP3   OH219727   7.150   3.127   5.050  0.4121  0.1499 -0.8741
 6588TIP3    H119728   7.198   3.132   4.967 -0.7220 -1.6918 -1.6958
 6588TIP3    H219729   7.170   3.210   5.094  1.1369  1.1415 -2.9337
 6589TIP3   OH219730   0.433   1.440   4.270  0.1932 -0.2795  0.2112
 6589TIP3    H119731   0.450   1.503   4.339 -0.0643 -0.4938  0.4724
 6589TIP3    H219732   0.405   1.360   4.316  0.8486 -0.6962 -0.0986
 6590TIP3   OH219733   6.212   2.584   0.074  0.5813  0.0116 -0.0463
 6590TIP3    H119734   6.306   2.604   0.079  0.6473 -0.1124 -0.7018
 6590TIP3    H219735   6.184   2.580   0.166  1.0775  0.6833  0.1429
 6591TIP3   OH219736   1.981   1.645   4.574  0.3062 -0.0502  0.1341
 6591TIP3    H119737   2.059   1.610   4.530  0.7703 -0.2735  1.1094
 6591TIP3    H219738   1.921   1.571   4.579  0.1344  0.0507 -0.3711
 6592TIP3   OH219739   2.733   4.571   3.361  0.1574  0.1696 -0.2908
 6592TIP3    H119740   2.714   4.480   3.340  1.1474 -0.4006  1.1689
 6592TIP3    H219741   2.681   4.590   3.439 -0.7936  1.1756 -1.1339
 6593TIP3   OH219742   2.344   3.421   4.972 -0.0002  0.0774  0.3229
 6593TIP3    H119743   2.397   3.351   4.934 -0.4585  0.6759 -1.5010
 6593TIP3    H219744   2.279   3.375   5.026  0.7593 -0.7862  0.5269
 6594TIP3   OH219745   0.975   4.236   3.816  0.0380  0.2166  0.2737
 6594TIP3    H119746   1.055   4.184   3.828  0.3017  0.4277 -0.5180
 6594TIP3    H219747   1.006   4.324   3.795 -0.3465 -0.0865 -1.8439
 6595TIP3   OH219748   6.884   3.152   2.159  0.0992 -0.1207 -0.5332
 6595TIP3    H119749   6.874   3.075   2.103  0.6643 -0.5363 -0.0749
 6595TIP3    H219750   6.830   3.219   2.117 -0.2994 -0.7253 -1.0080
 6596TIP3   OH219751   1.186   4.949   4.539 -0.2124 -0.3420  0.0487
 6596TIP3    H119752   1.164   5.041   4.527  1.2838  0.0378  0.0674
 6596TIP3    H219753   1.102   4.903   4.531 -0.9977  1.0224  0.1768
 6597TIP3   OH219754   3.265   5.536   1.576  0.4611  0.4087  0.3927
 6597TIP3    H119755   3.298   5.456   1.617  0.4242 -0.4539 -1.2093
 6597TIP3    H219756   3.341   5.573   1.531  0.4249  1.1772  0.9420
 6598TIP3   OH219757   0.887   1.957   3.628 -0.2888  0.4533  0.3122
 6598TIP3    H119758   0.872   1.924   3.716 -0.9718 -0.5289 -0.1429
 6598TIP3    H219759   0.818   2.023   3.615  0.1558  1.0011  0.6997
 6599TIP3   OH219760   6.897   4.458   5.463  0.2377  0.8249  0.2339
 6599TIP3    H119761   6.972   4.496   5.509 -0.3141  0.8731  1.1150
 6599TIP3    H219762   6.869   4.385   5.518 -0.3977  0.8431 -0.0515
 6600TIP3   OH219763   3.211   5.480   5.518 -0.3056  0.5129  0.4240
 6600TIP3    H119764   3.162   5.457   5.440 -1.5952  0.2061  1.2926
 6600TIP3    H219765   3.225   5.396   5.563  3.1562  0.1984 -0.9352
 6601TIP3   OH219766   1.700   3.976   0.678  0.0269  0.3918 -0.2319
 6601TIP3    H119767   1.627   4.037   0.682 -0.9900 -0.6297 -1.9235
 6601TIP3    H219768   1.683   3.912   0.747 -1.2775 -0.4206 -1.2669
 6602TIP3   OH219769   1.523   0.260   0.440 -0.1124 -0.5412  0.1257
 6602TIP3    H119770   1.550   0.273   0.349 -2.3826 -3.1979 -1.0636
 6602TIP3    H219771   1.448   0.318   0.451 -0.4033 -0.8888 -0.0091
 6603TIP3   OH219772   4.539   0.818   0.231  0.0615 -0.0976  0.3590
 6603TIP3    H119773   4.545   0.812   0.327 -0.1609  0.7865  0.4368
 6603TIP3    H219774   4.446   0.832   0.213  0.0606 -0.5431 -0.0153
 6604TIP3   OH219775   4.111   1.321   1.145  0.0825 -0.6090  0.4634
 6604TIP3    H119776   4.090   1.375   1.069 -1.5127  0.8532  1.8716
 6604TIP3    H219777   4.207   1.315   1.144  0.1859  0.7160 -0.7583
 6605TIP3   OH219778   1.800   5.158   5.754  0.6000 -0.7035  0.3141
 6605TIP3    H119779   1.833   5.169   5.665  0.7122 -0.4365  0.3883
 6605TIP3    H219780   1.707   5.140   5.743  0.6606 -0.9093  0.1305
 6606TIP3   OH219781   1.660   0.017   3.374  0.2282  0.0095  0.4371
 6606TIP3    H119782   1.631   0.074   3.302 -0.7044 -2.3965 -1.2057
 6606TIP3    H219783   1.613  -0.065   3.360  2.8373 -1.8161  1.6222
 6607TIP3   OH219784   3.942   1.941   1.979 -0.4342 -0.3200  0.4730
 6607TIP3    H119785   4.004   1.986   2.036  0.3536 -1.2501  0.3758
 6607TIP3    H219786   3.921   2.005   1.912 -0.6242  0.4601  1.2543
 6608TIP3   OH219787   2.985   6.502   1.016  0.5470 -0.9019  0.6484
 6608TIP3    H119788   2.904   6.462   1.047  0.3013 -0.6063  0.3903
 6608TIP3    H219789   3.001   6.574   1.077  0.7012 -1.0584  0.7935
 6609TIP3   OH219790   2.638   0.682   2.480 -0.9616  0.6861  0.2296
 6609TIP3    H119791   2.654   0.748   2.412  1.9157 -0.7069 -0.5877
 6609TIP3    H219792   2.650   0.730   2.562  1.7335  1.1570 -0.3432
 6610TIP3   OH219793   0.616   2.150   5.572 -0.2359  0.0273  0.2923
 6610TIP3    H119794   0.680   2.127   5.505  1.5366 -0.4680  2.0454
 6610TIP3    H219795   0.573   2.229   5.539  0.3979 -0.3453 -1.4992
 6611TIP3   OH219796   7.154   4.042   0.680 -0.2753 -0.1052  0.5633
 6611TIP3    H119797   7.223   4.097   0.645 -1.2161  0.4565 -0.5011
 6611TIP3    H219798   7.158   4.054   0.774 -0.6101  2.0197  0.3533
 6612TIP3   OH219799   4.080   3.192   5.395 -0.8972 -0.4485 -0.1874
 6612TIP3    H119800   4.106   3.240   5.316 -1.5890 -1.9567 -1.3909
 6612TIP3    H219801   4.127   3.109   5.389 -0.7570 -0.4821  1.1537
 6613TIP3   OH219802   0.465   4.069   3.988  0.0155 -0.2134 -0.2669
 6613TIP3    H119803   0.418   4.146   4.021 -0.1007 -0.1136 -0.6528
 6613TIP3    H219804   0.514   4.036   4.063 -4.2428 -3.1749  1.6349
 6614TIP3   OH219805   2.831   4.039   4.509  0.0248 -0.2025 -0.2766
 6614TIP3    H119806   2.875   4.116   4.544 -2.2149  0.3392  1.5135
 6614TIP3    H219807   2.879   3.965   4.547  0.5227  0.3399  0.1636
 6615TIP3   OH219808   0.857   1.857   3.887 -0.2274 -0.2998 -0.0975
 6615TIP3    H119809   0.950   1.855   3.911 -0.2783  0.4434  0.2102
 6615TIP3    H219810   0.829   1.766   3.887  0.3128 -0.4672  0.5946
 6616TIP3   OH219811   0.868   1.426   5.082 -0.0170  0.1241 -0.1351
 6616TIP3    H119812   0.815   1.371   5.026  0.0571  0.5659 -0.6453
 6616TIP3    H219813   0.835   1.409   5.171 -0.8198  0.1918 -0.4138
 6617TIP3   OH219814   2.225   4.601   3.094 -0.9556 -0.0787 -0.0051
 6617TIP3    H119815   2.158   4.668   3.082  0.1589  0.7114 -2.6252
 6617TIP3    H219816   2.183   4.520   3.062 -0.5541  0.5375 -2.2881
 6618TIP3   OH219817   3.316   4.294   4.696  0.1755 -0.0149  0.2403
 6618TIP3    H119818   3.320   4.203   4.665  1.1038  0.1773 -0.2549
 6618TIP3    H219819   3.324   4.287   4.791 -0.1835 -0.4761  0.2414
 6619TIP3   OH219820   2.014   3.696   1.148  0.4073  0.1747 -0.9614
 6619TIP3    H119821   1.986   3.627   1.088 -1.2873  1.4810 -1.7737
 6619TIP3    H219822   2.105   3.676   1.167 -0.0762 -2.3829 -0.9863
 6620TIP3   OH219823   5.588   4.235   1.201 -0.1400  0.0387 -0.8647
 6620TIP3    H119824   5.598   4.211   1.293  0.4328 -0.0637 -0.9535
 6620TIP3    H219825   5.675   4.224   1.163 -0.1983  0.8307 -1.2443
 6621TIP3   OH219826   3.696   2.999   4.085  0.0241  0.2063 -0.1126
 6621TIP3    H119827   3.697   3.089   4.055 -1.8170 -0.7392 -3.4398
 6621TIP3    H219828   3.743   2.950   4.017  2.1152 -1.3096  2.2095
 6622TIP3   OH219829   2.143   1.816   5.876  0.2015 -0.1454  0.3407
 6622TIP3    H119830   2.195   1.883   5.832  2.7282 -0.8897  2.0151
 6622TIP3    H219831   2.141   1.743   5.813 -0.5320  0.5720 -0.5085
 6623TIP3   OH219832   1.268   2.174   2.561 -0.4736  0.1186 -0.0727
 6623TIP3    H119833   1.225   2.259   2.571  0.1291  0.2046  2.5807
 6623TIP3    H219834   1.354   2.194   2.525 -1.1543  0.3616 -1.6097
 6624TIP3   OH219835   1.842   3.451   2.018  0.4585  0.4434  0.1853
 6624TIP3    H119836   1.917   3.488   2.064  1.5911 -0.2849 -1.0311
 6624TIP3    H219837   1.820   3.516   1.951  1.3522 -0.2395 -0.8133
 6625TIP3   OH219838   5.237   1.259   5.789  0.1492 -0.9198 -0.9955
 6625TIP3    H119839   5.145   1.231   5.782 -0.4101  0.8982 -1.4801
 6625TIP3    H219840   5.250   1.273   5.882  0.1042 -1.6986 -0.8673
 6626TIP3   OH219841   5.614   0.026   4.997  0.6934  0.3715  0.5568
 6626TIP3    H119842   5.650  -0.004   5.081 -0.2023  1.7833  1.4990
 6626TIP3    H219843   5.689   0.026   4.938  1.2161 -1.2898  1.1455
 6627TIP3   OH219844   5.474   5.967   1.220 -0.3265  0.0970 -0.4190
 6627TIP3    H119845   5.461   6.035   1.153 -0.4536  0.4459 -0.0416
 6627TIP3    H219846   5.396   5.912   1.211 -0.7498  0.6154 -0.0122
 6628TIP3   OH219847   2.927   1.386   2.706  0.0233 -0.1209  0.2769
 6628TIP3    H119848   2.922   1.446   2.632 -0.7628  1.2665  1.4149
 6628TIP3    H219849   2.991   1.320   2.679  0.9489  1.2369 -1.0045
 6629TIP3   OH219850   3.851   0.115   5.836 -0.2422 -0.0396  1.0253
 6629TIP3    H119851   3.756   0.125   5.840 -0.4074 -1.3438  0.9052
 6629TIP3    H219852   3.884   0.200   5.808 -1.4708  0.0827 -0.1048
 6630TIP3   OH219853   5.878   6.789   4.185 -0.9329  0.1275  0.1005
 6630TIP3    H119854   5.788   6.760   4.200 -0.3394 -1.0450  1.5602
 6630TIP3    H219855   5.912   6.808   4.272 -0.2977  2.3220 -0.5506
 6631TIP3   OH219856   6.155   6.139   0.081  0.2584  0.1831  0.1281
 6631TIP3    H119857   6.073   6.089   0.078  0.3390  0.0369  0.3115
 6631TIP3    H219858   6.127   6.231   0.082  0.1495  0.2920 -3.3595
 6632TIP3   OH219859   5.038   3.203   2.132 -0.1555  0.2574 -0.0508
 6632TIP3    H119860   5.012   3.227   2.043  0.0161 -0.8468 -0.4155
 6632TIP3    H219861   5.069   3.112   2.124 -0.2335  0.1124  1.1529
 6633TIP3   OH219862   0.556   2.151   0.767 -0.5939 -0.0694 -0.3236
 6633TIP3    H119863   0.574   2.069   0.722  0.2412 -0.5650  0.8697
 6633TIP3    H219864   0.617   2.214   0.729 -0.1416 -0.3962 -0.1389
 6634TIP3   OH219865   4.415   1.802   4.391 -0.2344  0.1120 -0.1824
 6634TIP3    H119866   4.377   1.889   4.406  0.1139  0.1523  0.4920
 6634TIP3    H219867   4.364   1.743   4.447 -2.0712 -0.5521 -2.4093
 6635TIP3   OH219868   1.765   2.120   4.613 -0.3860  0.1082 -0.4692
 6635TIP3    H119869   1.797   2.032   4.635 -1.9408 -0.1204  1.1841
 6635TIP3    H219870   1.724   2.110   4.527  0.4257 -0.5072 -0.7994
 6636TIP3   OH219871   2.739   3.599   1.605  0.2065  0.1991  0.2676
 6636TIP3    H119872   2.737   3.682   1.558 -0.9342  0.3898  0.6334
 6636TIP3    H219873   2.758   3.623   1.696 -1.3529  0.1860  0.6105
 6637TIP3   OH219874   0.742   2.773   2.385 -0.1648  0.0569 -0.3217
 6637TIP3    H119875   0.692   2.768   2.466  2.0708 -0.2868  1.1177
 6637TIP3    H219876   0.795   2.693   2.384  1.3883  1.0295 -1.0283
 6638TIP3   OH219877   2.403   1.813   3.389  0.2650 -0.1510  0.5184
 6638TIP3    H119878   2.391   1.851   3.302  1.2070 -1.2861 -0.1294
 6638TIP3    H219879   2.493   1.833   3.413  0.5243 -1.2247  0.5159
 6639TIP3   OH219880   5.412   4.146   1.637 -0.3759 -0.3627 -0.1822
 6639TIP3    H119881   5.494   4.099   1.650 -0.4686 -0.6930 -0.7706
 6639TIP3    H219882   5.348   4.097   1.689 -0.5643 -1.1558 -1.1523
 6640TIP3   OH219883   1.186   2.755   1.514 -0.1255  0.3551  0.4839
 6640TIP3    H119884   1.198   2.816   1.442  0.5997  0.0477  0.3367
 6640TIP3    H219885   1.151   2.809   1.586  0.5073  0.9454  0.3595
 6641TIP3   OH219886   3.506   5.798   5.909 -0.0418  0.0230  0.3189
 6641TIP3    H119887   3.474   5.718   5.866 -0.9261  0.2178  0.6108
 6641TIP3    H219888   3.596   5.806   5.877 -0.3300 -0.4231 -0.6775
 6642TIP3   OH219889   2.135   4.276   5.665  0.1006  0.1762  0.2996
 6642TIP3    H119890   2.184   4.354   5.689  0.2151  0.5238 -0.9927
 6642TIP3    H219891   2.045   4.295   5.694  0.4284  0.0946  1.4415
 6643TIP3   OH219892   2.469   1.256   3.857 -0.4577 -0.0898  0.8148
 6643TIP3    H119893   2.430   1.184   3.908  0.0114 -1.6074 -0.8652
 6643TIP3    H219894   2.396   1.295   3.811 -0.4682 -0.7761  0.2332
 6644TIP3   OH219895   6.839   1.880   0.319  0.0815  0.0075  0.0921
 6644TIP3    H119896   6.843   1.934   0.398  1.2503 -0.8372  0.6385
 6644TIP3    H219897   6.751   1.842   0.320 -0.0187  0.2368  0.8201
 6645TIP3   OH219898   4.912   3.850   0.259  0.0722 -0.4944  0.4260
 6645TIP3    H119899   4.927   3.936   0.299 -1.3006  0.9762 -1.9470
 6645TIP3    H219900   4.836   3.815   0.306  0.9786 -0.7134  1.7865
 6646TIP3   OH219901   1.805   1.996   1.554 -0.7621  0.3832  0.3506
 6646TIP3    H119902   1.792   1.902   1.572  0.1775  0.2177  0.2463
 6646TIP3    H219903   1.804   2.002   1.459 -1.1683  0.5366  0.3644
 6647TIP3   OH219904   1.679   4.012   1.054 -0.2643 -0.2286 -0.0321
 6647TIP3    H119905   1.742   4.085   1.055 -0.9862  0.4027  0.1074
 6647TIP3    H219906   1.595   4.052   1.074 -0.7200 -1.0703 -0.1972
 6648TIP3   OH219907   6.238   3.534   3.830 -0.3547  0.4019 -0.0908
 6648TIP3    H119908   6.262   3.531   3.923 -0.9127  2.1470  0.1318
 6648TIP3    H219909   6.146   3.560   3.830 -0.3705  0.3717 -1.1377
 6649TIP3   OH219910   5.409   0.477   2.815 -0.4589  0.0575 -0.0612
 6649TIP3    H119911   5.361   0.442   2.740 -0.8612 -0.8101  0.5830
 6649TIP3    H219912   5.492   0.508   2.778  0.4830 -2.7627 -0.4987
 6650TIP3   OH219913   0.268   4.179   1.158 -0.0455 -0.3490 -1.6752
 6650TIP3    H119914   0.295   4.093   1.192 -1.3911  0.0810  0.7542
 6650TIP3    H219915   0.345   4.235   1.170 -0.0327 -0.5732 -0.5616
 6651TIP3   OH219916   5.365   1.831   2.814 -0.1277 -0.2079 -0.1872
 6651TIP3    H119917   5.394   1.754   2.765 -0.0444  0.3099 -0.9649
 6651TIP3    H219918   5.291   1.800   2.865 -0.9753 -0.4989 -1.5459
 6652TIP3   OH219919   1.016   3.569   1.730  0.0648  0.3908 -0.0823
 6652TIP3    H119920   1.025   3.643   1.670  0.8572  0.5659  0.2436
 6652TIP3    H219921   1.081   3.505   1.700  0.9582  0.7657  0.9905
 6653TIP3   OH219922   2.419   5.744   3.189  0.4598  0.1207  0.0690
 6653TIP3    H119923   2.474   5.794   3.250  0.3452  0.0111  0.2632
 6653TIP3    H219924   2.334   5.787   3.193  0.6179  0.4919 -0.4798
 6654TIP3   OH219925   4.122   5.066   4.445 -0.0734 -0.2680 -0.6520
 6654TIP3    H119926   4.155   5.071   4.534 -0.1082  3.0278 -0.7254
 6654TIP3    H219927   4.032   5.034   4.454 -0.1601  0.2741  0.5379
 6655TIP3   OH219928   0.677   4.916   4.135  0.1036 -0.1615  0.8209
 6655TIP3    H119929   0.606   4.979   4.149  0.4625  0.9964 -1.8672
 6655TIP3    H219930   0.647   4.863   4.061  1.9404  0.2759 -0.3036
 6656TIP3   OH219931   1.754   6.629   1.587 -0.2637 -0.0410  0.5495
 6656TIP3    H119932   1.790   6.655   1.672  1.5570 -2.2294  0.5464
 6656TIP3    H219933   1.831   6.611   1.533 -1.3354 -2.1472 -0.3943
 6657TIP3   OH219934   5.500   4.814   1.708  0.1999 -0.0399  0.1594
 6657TIP3    H119935   5.496   4.794   1.614  0.1254  0.4375  0.0573
 6657TIP3    H219936   5.589   4.848   1.722  0.2931 -0.3399  0.3114
 6658TIP3   OH219937   6.315   5.824   2.567  0.0131 -0.0596  0.1922
 6658TIP3    H119938   6.403   5.862   2.572  0.3454 -0.5838 -1.1926
 6658TIP3    H219939   6.314   5.757   2.635  0.1399  0.9738  1.2468
 6659TIP3   OH219940   1.217   6.687   3.562 -0.1681  0.1590  0.7699
 6659TIP3    H119941   1.233   6.777   3.532  0.8475 -1.0186 -2.7166
 6659TIP3    H219942   1.304   6.647   3.564 -0.8583 -1.9738 -2.6775
 6660TIP3   OH219943   2.674   1.448   1.606  0.1366  0.0125  0.7474
 6660TIP3    H119944   2.754   1.396   1.614 -0.5204 -1.3301 -0.8583
 6660TIP3    H219945   2.614   1.411   1.671 -0.7543 -2.2148 -1.1692
 6661TIP3   OH219946   6.553   5.946   1.438  0.1607  0.2612  0.1956
 6661TIP3    H119947   6.575   5.857   1.464 -0.5704  0.1146  0.3257
 6661TIP3    H219948   6.581   6.000   1.511 -0.2343  0.0364  0.5201
 6662TIP3   OH219949   4.797   6.688   2.721 -0.5539  0.0485 -0.7520
 6662TIP3    H119950   4.886   6.655   2.712 -0.6395 -0.9643  1.3644
 6662TIP3    H219951   4.807   6.778   2.752 -0.1727 -0.6967  1.4724
 6663TIP3   OH219952   2.363   3.322   1.099 -0.1823  0.3502  0.3157
 6663TIP3    H119953   2.345   3.367   1.181  0.8965  0.3886  0.5547
 6663TIP3    H219954   2.406   3.388   1.044  1.2237 -0.2864  0.5943
 6664TIP3   OH219955   0.854   1.422   3.821  0.2515 -0.5064  0.5860
 6664TIP3    H119956   0.767   1.439   3.786 -0.2256 -1.4840  1.2410
 6664TIP3    H219957   0.901   1.379   3.749  0.8238  1.6151 -0.3873
 6665TIP3   OH219958   4.574   5.796   0.052  0.6902 -0.2602 -0.0408
 6665TIP3    H119959   4.602   5.855  -0.018 -0.6900 -0.8458 -1.1068
 6665TIP3    H219960   4.519   5.731   0.009 -0.5374 -0.3942  1.6472
 6666TIP3   OH219961   6.333   0.968   0.648 -0.2413 -0.5546  0.5252
 6666TIP3    H119962   6.325   0.985   0.742 -0.3558 -0.1861  0.4499
 6666TIP3    H219963   6.408   1.021   0.620 -1.3565  0.8496  0.0539
 6667TIP3   OH219964   1.564   5.204   4.119 -0.0427  0.0077  0.4801
 6667TIP3    H119965   1.622   5.129   4.125  1.8450  1.4888  1.7083
 6667TIP3    H219966   1.617   5.273   4.080 -0.7967  1.5431  2.0356
 6668TIP3   OH219967   0.900   1.968   4.245 -0.7941 -0.4870 -0.4822
 6668TIP3    H119968   0.947   2.034   4.295  0.8400 -0.5215 -1.8759
 6668TIP3    H219969   0.871   2.014   4.166  0.3669 -1.3715 -1.4725
 6669TIP3   OH219970   4.736   4.324   3.104 -0.6529 -0.0529  0.0846
 6669TIP3    H119971   4.684   4.282   3.173 -0.2217  0.7005  0.8975
 6669TIP3    H219972   4.763   4.407   3.142  0.2627  0.0358 -0.7116
 6670TIP3   OH219973   4.806   1.526   1.476  0.2135 -0.0884 -0.8629
 6670TIP3    H119974   4.803   1.584   1.553  1.2117 -0.1844 -0.7396
 6670TIP3    H219975   4.737   1.463   1.491  0.0707  0.2000 -0.2808
 6671TIP3   OH219976   2.097   0.624   0.418  0.2038 -0.3544 -0.4575
 6671TIP3    H119977   2.145   0.703   0.441  0.4425 -0.2871 -1.1650
 6671TIP3    H219978   2.022   0.656   0.367  0.3298 -0.5879 -0.7908
 6672TIP3   OH219979   0.693   0.911   4.389 -0.3332 -0.2390 -0.5919
 6672TIP3    H119980   0.693   0.938   4.297  0.3932 -1.0140 -0.8335
 6672TIP3    H219981   0.783   0.884   4.406 -0.5635 -0.5369  0.2264
 6673TIP3   OH219982   4.502   5.908   4.901 -0.7535 -0.0859  0.7225
 6673TIP3    H119983   4.422   5.952   4.928 -0.4021  1.5257 -0.6548
 6673TIP3    H219984   4.522   5.946   4.815 -0.1657 -2.6585 -0.3816
 6674TIP3   OH219985   6.315   3.852   0.460 -0.2745  0.0457  0.1321
 6674TIP3    H119986   6.297   3.921   0.396  1.3464 -1.0628 -1.6225
 6674TIP3    H219987   6.374   3.893   0.523  2.9827 -0.2883 -2.4144
 6675TIP3   OH219988   5.256   4.084   5.273 -0.6942  0.5503 -0.2248
 6675TIP3    H119989   5.197   4.156   5.249  0.5687  1.7553  0.1400
 6675TIP3    H219990   5.228   4.059   5.361 -1.8916 -0.2379 -0.8021
 6676TIP3   OH219991   1.195   4.919   2.385 -0.2528  0.2351 -0.3166
 6676TIP3    H119992   1.116   4.973   2.393  0.1796  0.7155  0.9055
 6676TIP3    H219993   1.164   4.830   2.400 -0.3756  0.5573  1.5463
 6677TIP3   OH219994   3.215   3.066   1.048 -0.1742  0.3485  0.0727
 6677TIP3    H119995   3.283   3.061   1.116 -0.3935  0.5832  0.3143
 6677TIP3    H219996   3.260   3.107   0.974  0.5665 -1.5706 -0.5830
 6678TIP3   OH219997   2.371   5.961   2.374 -0.2721  0.3397  0.2797
 6678TIP3    H119998   2.420   6.040   2.349  0.3664 -0.5108 -1.3175
 6678TIP3    H219999   2.281   5.978   2.347 -0.3082  0.8269  0.6912
 6679TIP3   OH220000   1.463   0.100   5.405 -0.6206 -0.1921 -0.0064
 6679TIP3    H120001   1.469   0.082   5.499 -2.7617 -1.1364  0.0082
 6679TIP3    H220002   1.487   0.017   5.363  1.6266  0.5852 -0.3983
 6680TIP3   OH220003   0.561   1.076   4.979  0.0614 -0.4646 -0.4574
 6680TIP3    H120004   0.599   1.164   4.967  0.4496 -0.2038  2.0808
 6680TIP3    H220005   0.474   1.093   5.015  0.1114 -1.1092 -0.0272
 6681TIP3   OH220006   3.342   3.710   4.139  0.0319 -0.3074  0.0987
 6681TIP3    H120007   3.374   3.633   4.092 -0.7227 -0.1892 -0.6405
 6681TIP3    H220008   3.277   3.676   4.200  1.2065 -0.4925  1.2654
 6682TIP3   OH220009   3.606   2.731   3.811 -0.3825 -0.2310 -0.7576
 6682TIP3    H120010   3.528   2.775   3.845  0.6667 -0.9769  2.9539
 6682TIP3    H220011   3.679   2.789   3.832  0.5880 -1.8718  0.6799
 6683TIP3   OH220012   1.455   4.445   3.480 -0.0551  0.2121  0.3851
 6683TIP3    H120013   1.469   4.537   3.457  0.0782  0.1850  0.3542
 6683TIP3    H220014   1.360   4.437   3.492 -0.1775  0.1263 -0.5893
 6684TIP3   OH220015   5.221   5.890   0.509  0.6795 -0.0016  0.2856
 6684TIP3    H120016   5.261   5.953   0.449  1.5778 -0.1515  0.6980
 6684TIP3    H220017   5.183   5.944   0.579  0.2194  0.1433 -0.0774
 6685TIP3   OH220018   4.470   6.510   4.374 -0.0920  0.5806 -0.5799
 6685TIP3    H120019   4.512   6.448   4.434 -0.0115  2.0852  0.9745
 6685TIP3    H220020   4.542   6.545   4.321 -0.1160 -0.4907 -1.3544
 6686TIP3   OH220021   3.272   0.949   1.981  0.4223  0.2429 -0.1498
 6686TIP3    H120022   3.304   0.882   2.042 -1.1796 -0.9680 -0.5823
 6686TIP3    H220023   3.240   1.020   2.037  1.0173  0.1364  0.3391
 6687TIP3   OH220024   0.114   4.615   0.269  0.1952 -0.3551  0.9893
 6687TIP3    H120025   0.084   4.526   0.288 -0.4486 -0.6539 -1.2052
 6687TIP3    H220026   0.041   4.671   0.297 -1.4981 -0.9059 -1.9366
 6688TIP3   OH220027   4.513   6.612   2.092  0.1477  0.4464  0.2294
 6688TIP3    H120028   4.478   6.684   2.040 -2.3859  0.7231  2.1237
 6688TIP3    H220029   4.595   6.647   2.128 -0.2594  1.8475 -0.1223
 6689TIP3   OH220030   4.630   6.582   0.461 -0.0661  0.3975  0.5726
 6689TIP3    H120031   4.674   6.617   0.538 -0.1228  1.3695  0.1729
 6689TIP3    H220032   4.673   6.624   0.387  0.2598 -0.8327  0.0420
 6690TIP3   OH220033   3.813   6.653   2.480  0.1263 -0.0146 -0.2240
 6690TIP3    H120034   3.731   6.702   2.484  0.4810  0.9621 -2.6650
 6690TIP3    H220035   3.825   6.635   2.387  1.9197 -1.5072  0.2365
 6691TIP3   OH220036   2.228   5.518   2.144  0.5970 -0.0153  0.7847
 6691TIP3    H120037   2.186   5.604   2.134 -0.3134 -0.2821  2.0306
 6691TIP3    H220038   2.166   5.456   2.107  0.7831 -0.2406  0.8494
 6692TIP3   OH220039   4.426   2.705   2.235  1.0453  0.2666  0.4346
 6692TIP3    H120040   4.482   2.638   2.274 -0.8093 -1.6610 -0.0712
 6692TIP3    H220041   4.352   2.713   2.295  0.3262  0.4893 -0.4544
 6693TIP3   OH220042   5.286   4.850   5.744 -0.5442  0.5158 -0.5559
 6693TIP3    H120043   5.275   4.755   5.739  1.2081  0.1924  0.6915
 6693TIP3    H220044   5.335   4.873   5.665  0.1741  0.1674 -0.2189
 6694TIP3   OH220045   5.838   2.515   4.997  0.0974  0.3993 -0.2004
 6694TIP3    H120046   5.903   2.502   5.066  1.4029 -0.0936 -1.4723
 6694TIP3    H220047   5.755   2.521   5.044  0.9036 -0.1481  1.3965
 6695TIP3   OH220048   0.536   5.789   0.616 -0.3093 -0.8649 -0.3802
 6695TIP3    H120049   0.605   5.842   0.656 -0.3195  0.5549 -2.1414
 6695TIP3    H220050   0.570   5.765   0.530 -1.3873 -1.4885 -0.6594
 6696TIP3   OH220051   3.248   2.526   0.661  0.1476 -0.6666  0.1287
 6696TIP3    H120052   3.160   2.541   0.695  0.5932  0.3246  0.8980
 6696TIP3    H220053   3.242   2.550   0.568 -0.1232  0.5479  0.4448
 6697TIP3   OH220054   6.460   5.213   1.325 -0.2892  0.5531 -0.1742
 6697TIP3    H120055   6.553   5.195   1.340 -0.1082  0.7578 -0.9714
 6697TIP3    H220056   6.435   5.273   1.395  0.0685  0.1427  0.3035
 6698TIP3   OH220057   3.184   5.496   1.098 -0.2555 -0.0951 -0.0213
 6698TIP3    H120058   3.170   5.530   1.009 -1.9483 -0.3030  0.1188
 6698TIP3    H220059   3.247   5.556   1.137  0.0384  0.3706 -1.1614
 6699TIP3   OH220060   0.809   2.964   1.638 -0.2627  0.4421  0.2777
 6699TIP3    H120061   0.775   2.888   1.685  0.6592 -0.6443 -0.7460
 6699TIP3    H220062   0.734   2.999   1.590 -0.2263 -1.3121 -1.1493
 6700TIP3   OH220063   5.964   5.850   5.468  0.8382 -0.1005 -0.0534
 6700TIP3    H120064   6.014   5.821   5.392  2.3032 -1.1945  1.2704
 6700TIP3    H220065   6.015   5.923   5.504  0.6124 -0.1591  0.3971
 6701TIP3   OH220066   1.177   0.530   3.240  0.4320  0.1325  0.3125
 6701TIP3    H120067   1.230   0.487   3.307  0.3445  0.0336  0.3178
 6701TIP3    H220068   1.125   0.595   3.288 -0.2288 -0.4903  0.4574
 6702TIP3   OH220069   3.479   6.707   2.342  0.0668 -0.2298  0.5897
 6702TIP3    H120070   3.443   6.623   2.314 -0.0203  0.0286 -0.0967
 6702TIP3    H220071   3.487   6.757   2.261  0.8718  0.1376  0.8830
 6703TIP3   OH220072   1.668   3.268   0.516  0.3156 -0.2336  0.3430
 6703TIP3    H120073   1.666   3.282   0.610  0.9930 -0.8490  0.4615
 6703TIP3    H220074   1.584   3.226   0.496  0.4261 -0.6778  0.7786
 6704TIP3   OH220075   3.360   3.629   3.716  0.0732 -0.1127  0.0169
 6704TIP3    H120076   3.343   3.537   3.697 -0.1327 -0.0208 -0.2529
 6704TIP3    H220077   3.294   3.652   3.781  0.6569 -0.3761  0.7077
 6705TIP3   OH220078   1.208   0.393   4.235 -0.5573 -0.0173  0.5082
 6705TIP3    H120079   1.130   0.429   4.194 -0.6675  0.0396  0.7649
 6705TIP3    H220080   1.243   0.332   4.170  0.6894  1.9082 -0.7206
 6706TIP3   OH220081   6.638   3.347   1.022 -0.9202  0.0111  0.2382
 6706TIP3    H120082   6.713   3.295   0.993  0.0659  1.3380  0.3262
 6706TIP3    H220083   6.617   3.403   0.947  0.5261  2.2119  1.3758
 6707TIP3   OH220084   3.304   2.443   0.942  0.2473  0.2329  0.0032
 6707TIP3    H120085   3.224   2.446   0.994  1.1051 -1.0018  1.4866
 6707TIP3    H220086   3.275   2.461   0.852 -1.7451 -0.5683  0.4265
 6708TIP3   OH220087   1.019   1.258   0.736  0.6319 -0.0006  0.0798
 6708TIP3    H120088   1.026   1.185   0.797  0.2320 -1.1756 -1.2186
 6708TIP3    H220089   1.110   1.276   0.708  0.7190 -0.0660  0.3252
 6709TIP3   OH220090   0.492   4.405   5.238  0.0721 -0.2139 -0.1029
 6709TIP3    H120091   0.423   4.456   5.282  1.2280  0.5020  0.9547
 6709TIP3    H220092   0.479   4.316   5.269  0.0832  0.0534  0.6980
 6710TIP3   OH220093   0.320   3.856   4.125 -0.0884 -0.2367  0.0045
 6710TIP3    H120094   0.287   3.855   4.215 -2.4213  1.2576 -0.7333
 6710TIP3    H220095   0.241   3.865   4.072  1.4106  1.8687 -2.0427
 6711TIP3   OH220096   1.099   3.300   1.687 -0.5847 -0.4273  0.1734
 6711TIP3    H120097   1.165   3.242   1.649 -0.6713  0.2049 -1.0215
 6711TIP3    H220098   1.049   3.245   1.747  0.1028 -1.2756 -0.0186
 6712TIP3   OH220099   1.189   5.594   1.674 -0.0047  0.2375 -0.0069
 6712TIP3    H120100   1.211   5.639   1.593 -2.3622  0.7258 -0.4597
 6712TIP3    H220101   1.262   5.613   1.733  1.3934  0.5054 -1.7324
 6713TIP3   OH220102   5.640   3.698   4.141 -0.8035 -0.1826 -0.2924
 6713TIP3    H120103   5.553   3.698   4.182  0.0274 -1.9916  1.6556
 6713TIP3    H220104   5.624   3.663   4.053 -2.0822 -0.2107 -0.0730
 6714TIP3   OH220105   4.319   6.057   5.326 -0.4396  0.7253 -0.0163
 6714TIP3    H120106   4.353   5.972   5.351  1.2522  1.7275  1.2990
 6714TIP3    H220107   4.235   6.038   5.284  0.0009 -1.5750  0.0321
 6715TIP3   OH220108   7.160   3.793   1.304 -0.4622 -0.1611 -0.4080
 6715TIP3    H120109   7.083   3.740   1.282 -0.0396  0.0962 -2.7679
 6715TIP3    H220110   7.209   3.799   1.222  1.7822  0.1932  0.8874
 6716TIP3   OH220111   1.791   0.270   3.651  0.2664 -0.0193 -0.1263
 6716TIP3    H120112   1.696   0.262   3.650 -0.0250  2.2976  1.2157
 6716TIP3    H220113   1.819   0.241   3.564 -1.8252  0.7008 -1.0972
 6717TIP3   OH220114   5.357   0.161   4.135  0.1262 -0.4543  0.3737
 6717TIP3    H120115   5.417   0.090   4.109  0.1812 -0.4368  0.4516
 6717TIP3    H220116   5.310   0.183   4.055  0.1848 -0.5070  0.3243
 6718TIP3   OH220117   6.661   2.748   1.830  0.3131  0.1866 -0.9052
 6718TIP3    H120118   6.581   2.713   1.869  0.1581  1.5391  0.0464
 6718TIP3    H220119   6.630   2.807   1.761  0.5703 -1.3048 -2.3619
 6719TIP3   OH220120   5.229   4.750   2.766 -0.0500 -0.3189 -0.7239
 6719TIP3    H120121   5.284   4.702   2.704  0.1449 -2.3546  0.9070
 6719TIP3    H220122   5.292   4.794   2.823 -0.1043 -1.3837  0.1877
 6720TIP3   OH220123   5.185   0.617   0.522  0.2223 -0.6362  0.2287
 6720TIP3    H120124   5.097   0.640   0.492  0.9996  1.3611 -0.7339
 6720TIP3    H220125   5.181   0.626   0.617 -0.7942 -1.2937  0.2567
 6721TIP3   OH220126   2.311   2.757   5.169  0.1957  0.3260 -0.4954
 6721TIP3    H120127   2.391   2.705   5.177  0.9358  1.7116  1.9233
 6721TIP3    H220128   2.341   2.845   5.149 -0.8785  0.4766 -1.5707
 6722TIP3   OH220129   1.286   5.449   4.305 -0.1104 -0.9602  0.2569
 6722TIP3    H120130   1.357   5.507   4.277  0.2170 -0.7660  1.4522
 6722TIP3    H220131   1.218   5.508   4.337 -0.5218 -1.1739 -0.2207
 6723TIP3   OH220132   3.833   4.132   5.729  0.5063  0.5896 -0.1819
 6723TIP3    H120133   3.831   4.118   5.634 -1.2615  1.3919 -0.3054
 6723TIP3    H220134   3.926   4.141   5.750  0.9840 -0.3842 -1.7045
 6724TIP3   OH220135   7.220   3.355   0.587  0.0537  0.3029  0.7975
 6724TIP3    H120136   7.167   3.430   0.559  1.4219  1.0367  0.0691
 6724TIP3    H220137   7.173   3.279   0.554 -1.8165  0.7303  2.2794
 6725TIP3   OH220138   5.440   5.008   4.484  0.8644  0.0657  0.3802
 6725TIP3    H120139   5.531   4.979   4.476  0.2881 -1.3502 -1.6354
 6725TIP3    H220140   5.388   4.929   4.471 -0.7208  0.4966  3.1859
 6726TIP3   OH220141   6.682   4.762   1.984 -0.4019 -0.4001  0.0052
 6726TIP3    H120142   6.741   4.775   2.059 -1.0036 -0.7749  0.5575
 6726TIP3    H220143   6.655   4.671   1.991  0.3611 -0.7517 -1.2966
 6727TIP3   OH220144   6.993   2.095   5.025  0.2212 -0.0348 -0.3770
 6727TIP3    H120145   7.033   2.061   5.105 -1.1890  0.7735  0.7171
 6727TIP3    H220146   6.925   2.155   5.055 -0.5082  0.1313 -2.1859
 6728TIP3   OH220147   4.438   4.711   2.269 -0.3789  0.1527  0.0440
 6728TIP3    H120148   4.424   4.803   2.290  0.2737 -0.1937  2.3861
 6728TIP3    H220149   4.427   4.705   2.174  0.3436  2.7678 -0.2778
 6729TIP3   OH220150   2.972   2.383   1.531 -0.2135 -0.1394  0.2265
 6729TIP3    H120151   3.027   2.317   1.573  1.5106  0.0156 -1.6737
 6729TIP3    H220152   2.901   2.334   1.491  1.0468 -0.9097 -1.1546
 6730TIP3   OH220153   6.096   4.494   2.594 -0.1638 -0.0572  0.2413
 6730TIP3    H120154   6.042   4.515   2.670 -2.2816  0.8231 -1.3923
 6730TIP3    H220155   6.124   4.403   2.608  1.2171  0.7166  2.9784
 6731TIP3   OH220156   2.172   2.885   2.314  0.6479 -0.0991  0.0628
 6731TIP3    H120157   2.124   2.953   2.266 -0.7695 -0.9263  0.2438
 6731TIP3    H220158   2.104   2.841   2.365  1.9749  0.2828  2.2909
 6732TIP3   OH220159   3.991   3.665   5.285 -0.1624  0.6208  0.2862
 6732TIP3    H120160   3.904   3.647   5.250  0.6203 -1.4226 -0.7477
 6732TIP3    H220161   4.027   3.732   5.227 -0.7348  0.8795  0.2259
 6733TIP3   OH220162   6.242   4.846   3.783 -0.5493 -0.4297 -0.0360
 6733TIP3    H120163   6.307   4.899   3.738 -1.1780  1.2073  0.9238
 6733TIP3    H220164   6.205   4.791   3.713 -0.1805  0.6917 -1.1615
 6734TIP3   OH220165   1.296   0.683   1.564  0.2028 -0.1392  0.1857
 6734TIP3    H120166   1.280   0.632   1.485 -0.3113  0.3014  0.0019
 6734TIP3    H220167   1.359   0.750   1.539 -0.3983  0.3628 -0.0047
 6735TIP3   OH220168   3.678   1.512   5.699 -0.0180 -0.0810  0.2178
 6735TIP3    H120169   3.658   1.426   5.661  1.3734  0.0281 -0.8451
 6735TIP3    H220170   3.609   1.569   5.666  0.5744 -0.2273 -1.3741
 6736TIP3   OH220171   1.388   4.407   1.912  0.2265  0.4067 -0.4496
 6736TIP3    H120172   1.305   4.370   1.883  0.0408  1.0334 -0.7252
 6736TIP3    H220173   1.455   4.360   1.862 -0.0323  0.7418 -1.1152
 6737TIP3   OH220174   3.556   1.427   3.402  0.5863 -0.4197 -0.1778
 6737TIP3    H120175   3.569   1.519   3.378  1.8585 -0.4332  0.4064
 6737TIP3    H220176   3.641   1.386   3.387  0.8997 -0.8419  2.4186
 6738TIP3   OH220177   3.859   4.512   0.933 -0.9154 -0.1291 -0.1288
 6738TIP3    H120178   3.920   4.439   0.940 -0.0513  0.5809 -0.0344
 6738TIP3    H220179   3.790   4.480   0.875 -1.1916 -1.4243  0.8746
 6739TIP3   OH220180   1.308   2.632   0.164 -0.7825  0.2520 -0.3867
 6739TIP3    H120181   1.334   2.565   0.101 -0.1879 -0.1030  0.2282
 6739TIP3    H220182   1.215   2.615   0.179 -0.4047 -1.1577  0.5843
 6740TIP3   OH220183   3.992   6.787   2.623  0.0898  0.5086  0.2398
 6740TIP3    H120184   3.951   6.862   2.667  0.0077 -0.2682  1.5343
 6740TIP3    H220185   3.920   6.747   2.574 -0.1890  0.4716  0.6707
 6741TIP3   OH220186   6.768   1.082   2.818 -0.3383  0.1052  0.9958
 6741TIP3    H120187   6.679   1.056   2.843  0.3997 -3.5480  0.4319
 6741TIP3    H220188   6.813   0.999   2.802  2.8416  1.8633  0.0206
 6742TIP3   OH220189   5.136   3.896   1.478 -0.1674  0.1572  0.3408
 6742TIP3    H120190   5.231   3.899   1.487 -0.2801 -0.3305  2.1744
 6742TIP3    H220191   5.111   3.987   1.459  0.6967  0.1574 -0.8902
 6743TIP3   OH220192   6.854   3.003   1.915 -0.0706  0.2107  0.0271
 6743TIP3    H120193   6.882   3.076   1.859 -0.4196 -0.3064 -0.8472
 6743TIP3    H220194   6.783   2.961   1.866 -0.8031  0.0986  1.1388
 6744TIP3   OH220195   3.391   3.647   4.763  0.5084 -0.2519  0.1163
 6744TIP3    H120196   3.450   3.694   4.822 -0.5567 -0.6347  1.5445
 6744TIP3    H220197   3.406   3.687   4.677  1.0151  1.3799  0.9215
 6745TIP3   OH220198   1.991   4.143   3.423  0.2117 -0.4702  0.5591
 6745TIP3    H120199   2.075   4.106   3.393  0.6938  0.7621  0.3305
 6745TIP3    H220200   1.999   4.145   3.519  1.1731  1.2057  0.4873
 6746TIP3   OH220201   1.310   3.330   5.196  0.3207  0.1420  0.0639
 6746TIP3    H120202   1.261   3.258   5.237  2.1294 -0.5687  1.1003
 6746TIP3    H220203   1.324   3.393   5.267  0.2657  0.6864 -0.4058
 6747TIP3   OH220204   2.712   3.340   1.520  0.0304 -0.3998  0.1987
 6747TIP3    H120205   2.753   3.426   1.530  1.6983 -1.1672  0.2335
 6747TIP3    H220206   2.768   3.280   1.571 -1.6357 -1.3716  0.9861
 6748TIP3   OH220207   3.672   5.701   3.527 -0.2071  0.1409 -0.7120
 6748TIP3    H120208   3.634   5.614   3.539  0.9750 -0.1919  1.2554
 6748TIP3    H220209   3.740   5.689   3.461 -0.4880 -0.2828 -0.9246
 6749TIP3   OH220210   0.629   2.414   5.570  0.8754  0.0162  0.4973
 6749TIP3    H120211   0.641   2.417   5.475 -0.8617 -1.1279  0.2109
 6749TIP3    H220212   0.636   2.506   5.597 -1.9702  0.8694 -1.2319
 6750TIP3   OH220213   6.328   5.366   0.501 -0.7792 -0.1558 -0.3030
 6750TIP3    H120214   6.241   5.371   0.462 -0.9106  1.1527  0.1059
 6750TIP3    H220215   6.380   5.432   0.455 -0.1789 -0.4984 -0.1309
 6751TIP3   OH220216   2.566   4.508   1.283  0.0339  0.0333 -0.2990
 6751TIP3    H120217   2.585   4.492   1.376  1.2324  0.1445 -0.5087
 6751TIP3    H220218   2.627   4.451   1.236 -0.2918  0.2765 -1.0237
 6752TIP3   OH220219   1.859   1.561   0.853  0.3857 -0.0759  0.5000
 6752TIP3    H120220   1.780   1.580   0.803 -0.5998  0.5108  2.1760
 6752TIP3    H220221   1.904   1.493   0.803 -1.2096 -0.4610 -0.4708
 6753TIP3   OH220222   3.640   4.713   4.376  0.3437 -0.4105 -0.1956
 6753TIP3    H120223   3.690   4.740   4.453 -0.3753  0.8168 -0.1290
 6753TIP3    H220224   3.580   4.646   4.408 -1.9397  2.0385  1.0381
 6754TIP3   OH220225   0.557   1.062   3.324 -0.6874  0.3158  0.0677
 6754TIP3    H120226   0.620   1.008   3.370 -0.6943  1.0394  0.9651
 6754TIP3    H220227   0.610   1.121   3.270 -0.5603  1.0754  0.9919
 6755TIP3   OH220228   6.287   1.482   2.298  0.4278 -0.2295  0.1089
 6755TIP3    H120229   6.260   1.435   2.377  0.5744 -0.1258  0.2197
 6755TIP3    H220230   6.334   1.558   2.330 -1.4281  1.0457  0.0002
 6756TIP3   OH220231   6.080   6.551   5.540  0.3839  0.7865 -0.1296
 6756TIP3    H120232   6.074   6.455   5.533  0.8010  0.7630 -0.1680
 6756TIP3    H220233   6.038   6.583   5.461 -0.6389  0.6592  0.3448
 6757TIP3   OH220234   3.553   3.617   3.364 -0.3576  0.3405  0.9103
 6757TIP3    H120235   3.599   3.537   3.339 -0.8861  0.4661 -0.5521
 6757TIP3    H220236   3.461   3.591   3.367 -0.4584  0.7216  1.1772
 6758TIP3   OH220237   1.628   6.773   5.165  0.6252  0.0492 -0.2538
 6758TIP3    H120238   1.619   6.747   5.073  0.4286 -0.5214 -0.0753
 6758TIP3    H220239   1.694   6.842   5.164 -0.3156  0.9565 -0.9889
 6759TIP3   OH220240   2.363   0.981   3.517  0.2481 -0.3645  0.2690
 6759TIP3    H120241   2.429   0.924   3.557 -0.1795 -0.1629  1.2916
 6759TIP3    H220242   2.280   0.952   3.555 -0.0119  0.7353  0.5790
 6760TIP3   OH220243   2.045   2.209   5.503 -0.0954 -0.0438 -0.5227
 6760TIP3    H120244   2.004   2.130   5.539  1.3431 -0.9016 -0.6789
 6760TIP3    H220245   2.019   2.208   5.411 -0.7506  0.1221 -0.3456
 6761TIP3   OH220246   4.247   3.689   4.188 -0.2740  0.4160  0.1920
 6761TIP3    H120247   4.209   3.673   4.274  0.7294 -0.1104  0.5472
 6761TIP3    H220248   4.337   3.715   4.206  0.0062  0.0975 -0.7095
 6762TIP3   OH220249   6.405   3.710   1.800  0.1978 -0.0032 -0.3044
 6762TIP3    H120250   6.449   3.683   1.880  0.7553 -0.2838 -0.7006
 6762TIP3    H220251   6.314   3.725   1.827 -0.1082 -2.0925 -0.0089
 6763TIP3   OH220252   2.975   3.242   2.489  0.0738 -0.4088  0.8446
 6763TIP3    H120253   2.944   3.157   2.520  1.5581 -0.8349  1.2411
 6763TIP3    H220254   2.969   3.236   2.393 -2.3150  0.0513  0.9181
 6764TIP3   OH220255   5.742   4.270   5.581  0.0465  0.1078  0.6183
 6764TIP3    H120256   5.793   4.303   5.655  0.7292  0.7833 -0.1373
 6764TIP3    H220257   5.717   4.348   5.532 -0.0537 -0.3620 -0.0877
 6765TIP3   OH220258   3.927   6.363   2.542  0.1217 -0.7864 -0.0083
 6765TIP3    H120259   3.908   6.447   2.498  0.8346 -0.8547 -0.4752
 6765TIP3    H220260   3.889   6.297   2.485 -1.6758 -0.7398  1.0610
 6766TIP3   OH220261   1.302   3.754   4.780 -0.3832 -0.1461 -0.0790
 6766TIP3    H120262   1.221   3.760   4.729  0.5461  1.0188 -1.5268
 6766TIP3    H220263   1.288   3.814   4.854 -0.5672  0.6872 -0.7635
 6767TIP3   OH220264   2.588  -0.005   3.246  0.1904 -0.3233 -0.6181
 6767TIP3    H120265   2.502   0.004   3.204 -0.3351  2.0961  0.8020
 6767TIP3    H220266   2.651   0.010   3.176 -0.5505 -0.8607 -1.4235
 6768TIP3   OH220267   5.242   4.406   0.546 -0.2870 -0.9150  0.0889
 6768TIP3    H120268   5.151   4.420   0.569 -0.1577 -1.9968  1.3205
 6768TIP3    H220269   5.243   4.403   0.450 -1.6022 -1.3278  0.0786
 6769TIP3   OH220270   1.340   4.000   3.944  0.2314  0.1552  0.2196
 6769TIP3    H120271   1.371   4.091   3.943 -1.0008  0.6020 -0.5543
 6769TIP3    H220272   1.349   3.970   3.854  1.4251 -0.8082  0.6319
 6770TIP3   OH220273   5.532   4.419   1.746 -0.7367  0.7827 -0.3143
 6770TIP3    H120274   5.507   4.328   1.728  0.1537  0.6001 -0.6631
 6770TIP3    H220275   5.449   4.465   1.753 -1.1800  0.1944 -1.4659
 6771TIP3   OH220276   5.404   3.771   5.375  0.2089  0.4485 -0.0908
 6771TIP3    H120277   5.398   3.687   5.330 -0.8382  0.0895  0.6569
 6771TIP3    H220278   5.482   3.813   5.339 -0.0388 -0.2333 -1.5005
 6772TIP3   OH220279   1.362   5.912   5.127 -0.2084  0.4158 -0.6024
 6772TIP3    H120280   1.379   5.927   5.220  0.7654 -0.3807 -0.6190
 6772TIP3    H220281   1.302   5.981   5.101 -2.0751 -0.4855  1.0705
 6773TIP3   OH220282   1.129   6.152   1.866 -0.1774  0.1266  0.5762
 6773TIP3    H120283   1.075   6.129   1.942 -0.4197  0.0219  0.3728
 6773TIP3    H220284   1.193   6.214   1.901 -1.8523  2.0895  0.3677
 6774TIP3   OH220285   0.275   4.791   2.064 -0.0612  0.1411 -0.0143
 6774TIP3    H120286   0.198   4.831   2.103 -0.4862  0.1900 -0.8819
 6774TIP3    H220287   0.338   4.784   2.136 -0.6992  0.5345  0.5899
 6775TIP3   OH220288   4.018   3.873   0.329  0.1275  0.1435  0.2693
 6775TIP3    H120289   3.983   3.851   0.243  1.9281 -1.3533 -0.1503
 6775TIP3    H220290   4.074   3.949   0.314  2.3198 -1.5115 -0.4337
 6776TIP3   OH220291   2.062   5.309   0.463  0.9013 -0.5937  0.5171
 6776TIP3    H120292   2.062   5.353   0.378  0.6047  0.7460  1.1995
 6776TIP3    H220293   2.152   5.318   0.494  1.4044 -2.3658 -0.2624
 6777TIP3   OH220294   5.139   4.939   1.343  0.5849 -1.5828  0.1257
 6777TIP3    H120295   5.123   4.985   1.426 -1.2856 -0.2012 -0.9316
 6777TIP3    H220296   5.228   4.963   1.319 -0.1129  1.1178 -0.0755
 6778TIP3   OH220297   2.677   6.603   1.192 -0.0905 -0.3118  0.4050
 6778TIP3    H120298   2.693   6.693   1.223  1.0756  0.7360 -2.8302
 6778TIP3    H220299   2.585   6.602   1.166 -0.3083 -0.3121  1.1570
 6779TIP3   OH220300   2.584   5.757   1.724 -0.6392  0.1294 -0.0665
 6779TIP3    H120301   2.610   5.714   1.642  0.2048  0.7927 -0.1609
 6779TIP3    H220302   2.539   5.688   1.774 -0.8187 -0.3896 -0.9127
 6780TIP3   OH220303   7.078   2.166   4.748 -0.2150 -0.6895  0.3026
 6780TIP3    H120304   7.045   2.170   4.838 -1.7930  1.3173 -0.2876
 6780TIP3    H220305   7.004   2.133   4.697 -0.1121  0.3924 -0.5673
 6781TIP3   OH220306   4.815   5.933   5.026 -0.2231 -0.2795 -0.3166
 6781TIP3    H120307   4.827   5.858   4.968 -0.7595  0.6531 -1.6956
 6781TIP3    H220308   4.772   5.999   4.971  0.0773  0.9780  0.9004
 6782TIP3   OH220309   5.252   5.638   2.744 -0.0158 -0.1104  0.5872
 6782TIP3    H120310   5.345   5.656   2.729 -0.2426  0.0563 -0.7808
 6782TIP3    H220311   5.234   5.562   2.689 -1.1851  1.2376 -0.9818
 6783TIP3   OH220312   1.024   1.248   0.301  0.1849  0.3924 -0.0784
 6783TIP3    H120313   1.056   1.158   0.293 -1.1336 -0.1366  0.4386
 6783TIP3    H220314   1.095   1.301   0.263 -0.2026 -1.0228 -3.1457
 6784TIP3   OH220315   0.240   3.746   4.927 -0.5137 -0.3878 -0.2937
 6784TIP3    H120316   0.154   3.763   4.966 -0.3310  1.8401 -0.7485
 6784TIP3    H220317   0.258   3.823   4.873  1.8867 -0.6676 -0.0072
 6785TIP3   OH220318   4.208   1.365   3.682 -0.0621 -0.1963  0.7754
 6785TIP3    H120319   4.172   1.439   3.730 -2.1476 -1.0848  0.6810
 6785TIP3    H220320   4.132   1.323   3.642  1.4094 -0.4390 -1.9943
 6786TIP3   OH220321   3.999   0.403   5.135  0.0154  0.0329  0.2158
 6786TIP3    H120322   3.993   0.463   5.208  0.5394 -0.1978  0.4518
 6786TIP3    H220323   4.072   0.435   5.082  0.2618 -0.3582  0.3121
 6787TIP3   OH220324   6.988   2.398   4.940  0.3332  0.0713  0.2567
 6787TIP3    H120325   6.904   2.359   4.968  0.1667  0.4237  0.2519
 6787TIP3    H220326   6.967   2.443   4.858  0.7898 -0.8460 -0.3820
 6788TIP3   OH220327   6.338   3.642   1.178  0.5616 -0.5445  0.7927
 6788TIP3    H120328   6.352   3.625   1.271  1.8584 -0.0881  0.7051
 6788TIP3    H220329   6.351   3.557   1.136  0.2602 -0.6921  0.9940
 6789TIP3   OH220330   7.082   1.800   2.788 -0.0786 -0.2315  0.1401
 6789TIP3    H120331   7.067   1.708   2.806 -0.7117 -0.0325  0.6475
 6789TIP3    H220332   6.999   1.832   2.752  0.1685  0.1195 -0.1355
 6790TIP3   OH220333   3.430   0.678   2.844  0.4621 -0.2810  0.3555
 6790TIP3    H120334   3.350   0.724   2.820  0.2942 -0.8024 -0.0946
 6790TIP3    H220335   3.498   0.745   2.839  0.4761 -0.3809 -1.8246
 6791TIP3   OH220336   2.990   4.711   0.895  0.3296  0.3024 -0.7001
 6791TIP3    H120337   2.907   4.665   0.908  0.7873 -0.4493 -0.3344
 6791TIP3    H220338   2.966   4.795   0.856 -0.6791  0.4794  0.2707
 6792TIP3   OH220339   0.845   1.001   4.738 -0.2321 -0.2770 -0.3285
 6792TIP3    H120340   0.835   0.960   4.824  0.1898 -0.7594 -0.5121
 6792TIP3    H220341   0.927   0.967   4.703 -0.5201 -0.2703 -1.0307
 6793TIP3   OH220342   0.424   4.344   2.673 -0.5451 -0.1073  0.0959
 6793TIP3    H120343   0.372   4.271   2.706 -0.1690 -0.8002 -0.7983
 6793TIP3    H220344   0.501   4.303   2.634  0.1522  0.8399  0.4552
 6794TIP3   OH220345   2.933   4.766   2.239 -0.4512 -0.0062  0.4711
 6794TIP3    H120346   2.942   4.808   2.324  0.0370  1.6257 -0.3463
 6794TIP3    H220347   2.888   4.683   2.257  0.5429 -0.1651  2.4220
 6795TIP3   OH220348   1.871   4.235   1.038 -0.5751  0.4197  0.5137
 6795TIP3    H120349   1.869   4.287   1.118  0.3939  1.4659 -0.1284
 6795TIP3    H220350   1.960   4.201   1.033 -1.6126 -3.0428  1.9497
 6796TIP3   OH220351   4.590   3.827   2.559 -0.3222 -0.1794 -0.2722
 6796TIP3    H120352   4.569   3.768   2.632  1.6423  0.1425  0.6371
 6796TIP3    H220353   4.557   3.912   2.586 -0.9702 -0.3701 -0.4613
 6797TIP3   OH220354   6.682   0.931   0.998 -0.1304 -0.0752  0.0219
 6797TIP3    H120355   6.669   0.871   0.925  1.4105  0.7966 -1.0227
 6797TIP3    H220356   6.645   1.014   0.967 -1.4233 -0.2011  1.1074
 6798TIP3   OH220357   3.899   3.069   4.420  0.8930 -0.4743 -0.6808
 6798TIP3    H120358   3.835   3.123   4.374  1.3078  0.8117  0.1996
 6798TIP3    H220359   3.957   3.132   4.463  1.3961 -1.6181  0.3706
 6799TIP3   OH220360   0.980   0.976   2.312 -0.3264 -0.1721 -0.1352
 6799TIP3    H120361   1.007   0.937   2.229  1.1678  1.3669 -0.4061
 6799TIP3    H220362   1.031   1.056   2.320  0.9578 -1.1512  3.1521
 6800TIP3   OH220363   6.945   1.381   4.294 -0.6162 -0.5726  0.6276
 6800TIP3    H120364   6.884   1.374   4.221 -1.4762  0.1357  1.2513
 6800TIP3    H220365   6.903   1.332   4.365 -0.8447  0.5489  1.2907
 6801TIP3   OH220366   2.973   2.661   1.590 -0.3088  0.1953  0.0478
 6801TIP3    H120367   2.968   2.568   1.568 -2.3649  0.7667 -2.3328
 6801TIP3    H220368   3.046   2.694   1.537 -0.1856  0.1164  0.1680
 6802TIP3   OH220369   6.765   6.432   3.814  0.0841  0.1738 -0.1763
 6802TIP3    H120370   6.712   6.374   3.869 -1.0843  0.6255 -0.7992
 6802TIP3    H220371   6.733   6.417   3.725  1.9447 -0.5398 -0.7767
 6803TIP3   OH220372   3.606   5.484   0.522  0.3349  0.3955 -0.4385
 6803TIP3    H120373   3.568   5.404   0.485  0.1438  0.0478  0.5050
 6803TIP3    H220374   3.537   5.521   0.577  1.1849 -0.0196  0.9561
 6804TIP3   OH220375   0.196   5.185   3.248  0.1133  0.2617  0.2208
 6804TIP3    H120376   0.218   5.217   3.335  2.7200 -1.6587  0.3990
 6804TIP3    H220377   0.226   5.094   3.248  2.0881  0.7356 -3.2576
 6805TIP3   OH220378   6.671   5.850   5.298 -0.1882 -0.0438  0.2663
 6805TIP3    H120379   6.695   5.855   5.390  2.5332  0.2945 -0.3763
 6805TIP3    H220380   6.625   5.767   5.289 -0.2916 -0.1762  1.8696
 6806TIP3   OH220381   1.677   3.507   5.682 -0.2882 -0.0790 -0.6384
 6806TIP3    H120382   1.645   3.588   5.642 -0.8720  0.1284  0.2144
 6806TIP3    H220383   1.603   3.446   5.675 -0.3153 -0.1120 -0.0949
 6807TIP3   OH220384   3.794   3.994   5.498  0.0725 -0.2238 -0.3434
 6807TIP3    H120385   3.722   4.041   5.455 -1.0255 -1.2066  0.3682
 6807TIP3    H220386   3.753   3.918   5.538  2.0386 -2.9870 -3.0978
 6808TIP3   OH220387   3.395   6.395   5.509  0.4139 -0.0163 -0.0518
 6808TIP3    H120388   3.428   6.306   5.518 -0.1258 -0.0880  1.4227
 6808TIP3    H220389   3.317   6.398   5.564  0.1817  1.2591 -0.4104
 6809TIP3   OH220390   1.591   2.397   1.400  0.0800  0.0093  0.2077
 6809TIP3    H120391   1.684   2.408   1.382  0.1454  1.3351  1.1670
 6809TIP3    H220392   1.571   2.466   1.463 -1.2769 -1.0361  0.9866
 6810TIP3   OH220393   3.421   5.523   0.750 -0.1509  0.1923 -0.0649
 6810TIP3    H120394   3.457   5.442   0.787 -0.9684 -0.6250 -1.0000
 6810TIP3    H220395   3.335   5.533   0.791 -0.1931  0.4014 -0.2017
 6811TIP3   OH220396   0.377   5.330   1.710  0.4812 -0.5524  0.2248
 6811TIP3    H120397   0.365   5.263   1.642  1.7143  0.3594 -0.9438
 6811TIP3    H220398   0.403   5.408   1.662 -1.6258  1.0250  1.4831
 6812TIP3   OH220399   6.669   4.191   1.890  0.3273 -0.1082 -0.3563
 6812TIP3    H120400   6.759   4.197   1.922  1.0485 -1.6194 -1.9250
 6812TIP3    H220401   6.625   4.267   1.927  1.6963 -0.4098  2.1384
 6813TIP3   OH220402   1.106   4.668   2.929 -0.8373  0.5782  0.1005
 6813TIP3    H120403   1.013   4.670   2.907 -0.8256  2.0526  0.0844
 6813TIP3    H220404   1.133   4.759   2.927  1.0500  0.0582 -1.6777
 6814TIP3   OH220405   4.285   4.601   4.614 -0.2529  0.1763 -0.2178
 6814TIP3    H120406   4.377   4.625   4.604 -0.6178  1.9563  0.3613
 6814TIP3    H220407   4.241   4.682   4.639 -2.0083 -0.6134 -0.5532
 6815TIP3   OH220408   5.980   0.028   1.208 -0.2751 -0.1781 -0.1942
 6815TIP3    H120409   5.914   0.098   1.207  0.4759  0.5577  0.1533
 6815TIP3    H220410   5.991   0.005   1.116  0.4824  1.1632 -0.4605
 6816TIP3   OH220411   2.049   1.749   5.289  0.2955 -0.1282  0.1273
 6816TIP3    H120412   2.114   1.683   5.314  2.0063  1.9030  1.3796
 6816TIP3    H220413   1.993   1.704   5.226  1.1215 -2.8707  1.1892
 6817TIP3   OH220414   3.077   3.590   3.012 -0.4289 -0.0723  0.5479
 6817TIP3    H120415   3.087   3.538   3.092  0.1443  1.5617  1.5724
 6817TIP3    H220416   3.157   3.642   3.006  0.3308 -1.3811 -2.0620
 6818TIP3   OH220417   2.273   5.398   5.274  0.6881  0.1199 -0.0317
 6818TIP3    H120418   2.255   5.356   5.357  0.4594  1.1095  0.4316
 6818TIP3    H220419   2.259   5.492   5.290 -0.2721  0.2486 -1.4134
 6819TIP3   OH220420   5.657   2.357   3.754 -0.2953  0.2021 -0.1817
 6819TIP3    H120421   5.630   2.408   3.678 -2.4356 -0.5210  0.0295
 6819TIP3    H220422   5.616   2.400   3.829 -1.2683 -1.1716  0.1137
 6820TIP3   OH220423   0.405   5.011   0.904  0.2861 -0.1652 -0.2181
 6820TIP3    H120424   0.436   4.971   0.823  1.1239 -1.1502  0.5737
 6820TIP3    H220425   0.344   4.947   0.941  0.6010 -0.1266  0.3827
 6821TIP3   OH220426   3.183   4.779   3.584  0.3996 -0.7119 -0.0383
 6821TIP3    H120427   3.153   4.863   3.620 -0.4836 -1.5353  1.2464
 6821TIP3    H220428   3.157   4.782   3.492 -0.2785  0.1500  0.1638
 6822TIP3   OH220429   0.226   6.348   0.543  0.3335  0.1647  0.0932
 6822TIP3    H120430   0.247   6.401   0.466 -0.2880  1.9033  1.0619
 6822TIP3    H220431   0.133   6.330   0.535 -0.7500  3.7101  2.2381
 6823TIP3   OH220432   0.637   3.262   5.739 -0.8885 -0.5552 -0.2796
 6823TIP3    H120433   0.696   3.248   5.813 -0.1417  2.0376 -0.2658
 6823TIP3    H220434   0.554   3.224   5.767  0.0465 -1.8967  0.8076
 6824TIP3   OH220435   1.886   3.112   0.495 -0.1238  0.1360 -0.2975
 6824TIP3    H120436   1.816   3.177   0.486  0.0773  0.6348  1.3233
 6824TIP3    H220437   1.852   3.051   0.560  0.6999  0.0485  0.0585
 6825TIP3   OH220438   5.289   1.522   4.058  0.5068 -0.6863  0.8490
 6825TIP3    H120439   5.361   1.575   4.092 -0.7798  0.2454  2.2502
 6825TIP3    H220440   5.306   1.434   4.093 -0.0914 -0.0301  2.9805
 6826TIP3   OH220441   5.957   1.047   0.262  0.1544  0.4729 -0.0738
 6826TIP3    H120442   6.004   1.049   0.179 -0.5366 -0.2348 -0.4966
 6826TIP3    H220443   6.022   1.019   0.327  0.0924 -1.6075 -0.8339
 6827TIP3   OH220444   6.458   6.221   0.617  0.0372  0.4077 -0.1329
 6827TIP3    H120445   6.424   6.142   0.660  0.2678  0.5701  0.3550
 6827TIP3    H220446   6.499   6.189   0.537 -0.3643  0.0939 -0.2155
 6828TIP3   OH220447   5.712   3.523   2.867  0.4618  0.1310  0.6193
 6828TIP3    H120448   5.702   3.587   2.937 -1.7770  0.1904  0.2998
 6828TIP3    H220449   5.704   3.438   2.910 -0.8147  0.1658  0.4829
 6829TIP3   OH220450   6.527   2.508   1.947 -0.3620 -0.1698  0.6517
 6829TIP3    H120451   6.524   2.505   2.042 -0.4391 -0.9002  0.6298
 6829TIP3    H220452   6.446   2.552   1.921 -0.4604 -0.1988  0.9156
 6830TIP3   OH220453   3.020   3.610   2.734 -0.2465 -0.1105  0.5256
 6830TIP3    H120454   2.933   3.582   2.705 -0.6777  0.7199  0.9867
 6830TIP3    H220455   3.013   3.614   2.829  0.0624  0.7016  0.5223
 6831TIP3   OH220456   6.762   4.042   5.118 -0.1296 -0.0103  0.3056
 6831TIP3    H120457   6.774   4.110   5.185  1.8103  0.6593 -0.6478
 6831TIP3    H220458   6.795   3.962   5.159  0.3405  0.2426  0.4348
 6832TIP3   OH220459   5.528   3.894   3.467  0.1886 -0.1804  0.1188
 6832TIP3    H120460   5.439   3.862   3.450 -0.1396 -0.3595  2.0045
 6832TIP3    H220461   5.536   3.895   3.562  0.3405  4.8428  0.3312
 6833TIP3   OH220462   1.238   0.912   5.377  0.2533 -0.2600  0.2302
 6833TIP3    H120463   1.302   0.948   5.439  0.6026 -3.2521  1.7629
 6833TIP3    H220464   1.155   0.952   5.403  0.6978 -0.1140  1.4971
 6834TIP3   OH220465   7.160   6.320   0.605 -0.5298 -0.1774  0.1105
 6834TIP3    H120466   7.071   6.309   0.637 -0.7116 -0.0051 -0.3239
 6834TIP3    H220467   7.192   6.398   0.649 -0.2590 -0.7736  0.9852
 6835TIP3   OH220468   7.040   4.593   0.871 -0.3026 -0.8400 -0.2506
 6835TIP3    H120469   6.986   4.653   0.923  0.1762  0.0234 -0.7099
 6835TIP3    H220470   7.022   4.618   0.780  2.3066  0.8827 -0.4300
 6836TIP3   OH220471   3.189   6.013   4.117  0.0914  0.3026  0.0588
 6836TIP3    H120472   3.193   6.054   4.031  0.2041  1.6959  0.6906
 6836TIP3    H220473   3.246   6.067   4.172 -0.3993 -0.2315  1.1319
 6837TIP3   OH220474   3.028   0.498   2.812 -0.2932 -0.2146  0.3364
 6837TIP3    H120475   2.995   0.519   2.899 -0.2957 -0.2921  0.3549
 6837TIP3    H220476   3.023   0.402   2.808 -0.9023 -0.1781  0.0162
 6838TIP3   OH220477   6.355   5.679   5.370 -0.3055 -0.4634 -0.5972
 6838TIP3    H120478   6.354   5.768   5.333 -0.4394 -0.5424 -0.7876
 6838TIP3    H220479   6.446   5.652   5.365 -0.2882 -0.3933 -0.6807
 6839TIP3   OH220480   4.426   6.507   3.015 -0.0943 -0.3390  0.4402
 6839TIP3    H120481   4.471   6.493   2.932 -1.5758  1.6681 -0.7914
 6839TIP3    H220482   4.478   6.458   3.079  2.6700  0.2718 -1.1794
 6840TIP3   OH220483   4.036   6.660   4.659 -0.2442 -0.2874 -0.3801
 6840TIP3    H120484   4.117   6.624   4.623 -0.6193 -0.1182 -1.4501
 6840TIP3    H220485   4.064   6.735   4.711  0.4643 -1.5660  1.1382
 6841TIP3   OH220486   3.221   5.494   4.487 -0.0271 -0.7273  0.3861
 6841TIP3    H120487   3.128   5.479   4.502 -0.2060 -0.2633 -0.2181
 6841TIP3    H220488   3.229   5.589   4.481  0.6589 -0.6903  1.4699
 6842TIP3   OH220489   2.415   3.687   4.605 -0.1768  0.3877 -0.1128
 6842TIP3    H120490   2.422   3.781   4.618 -0.2780  0.1936  1.5232
 6842TIP3    H220491   2.332   3.674   4.559  0.0326  1.1060 -0.7122
 6843TIP3   OH220492   5.784   4.269   0.145 -0.0929 -0.6014  0.7602
 6843TIP3    H120493   5.727   4.291   0.219 -3.3315 -2.8797 -0.8017
 6843TIP3    H220494   5.851   4.211   0.182 -1.3570 -1.3150  2.0331
 6844TIP3   OH220495   4.534   3.220   2.549 -0.2269  0.6184 -0.5315
 6844TIP3    H120496   4.608   3.209   2.490  0.2302  0.7871  0.0111
 6844TIP3    H220497   4.527   3.137   2.596  0.2389  0.9478  0.1279
 6845TIP3   OH220498   6.465   1.424   1.296  0.2223 -0.2414 -0.0586
 6845TIP3    H120499   6.421   1.427   1.381  1.4897  1.2077  0.5902
 6845TIP3    H220500   6.443   1.337   1.261 -2.3783  0.0708  0.5921
 6846TIP3   OH220501   2.318   2.509   1.392  0.1340  0.7349  0.1627
 6846TIP3    H120502   2.388   2.562   1.431  0.1767  0.6022  0.2690
 6846TIP3    H220503   2.238   2.538   1.436  0.0461  1.2481 -0.3227
 6847TIP3   OH220504   3.812   5.039   3.249 -0.1888  0.0099 -0.0982
 6847TIP3    H120505   3.842   5.065   3.162  0.5403  0.2107  0.2065
 6847TIP3    H220506   3.716   5.049   3.246 -0.1808 -0.1104 -0.9104
 6848TIP3   OH220507   1.111   0.188   3.073 -0.1933  0.0573  0.4059
 6848TIP3    H120508   1.041   0.229   3.123  0.0486 -0.1558  0.9261
 6848TIP3    H220509   1.090   0.207   2.981 -0.7654  0.2466  0.5752
 6849TIP3   OH220510   3.854   4.721   0.210 -0.1546  0.1985 -0.4249
 6849TIP3    H120511   3.797   4.684   0.142 -0.2424  0.3678 -0.4431
 6849TIP3    H220512   3.796   4.736   0.284  0.1369 -0.9637  0.0569
 6850TIP3   OH220513   2.530   0.019   0.856  0.1353 -0.4168 -0.1309
 6850TIP3    H120514   2.574   0.041   0.774  0.0700 -1.9708 -0.6232
 6850TIP3    H220515   2.474   0.094   0.874  1.4447  0.6999 -0.5851
 6851TIP3   OH220516   2.243   0.921   1.047  0.3714  0.1196 -0.0190
 6851TIP3    H120517   2.214   1.003   1.006  0.7184 -0.2591 -1.0466
 6851TIP3    H220518   2.162   0.881   1.079 -0.2266 -0.6253 -2.3039
 6852TIP3   OH220519   0.129   5.759   1.040  0.1166  0.1903 -0.1774
 6852TIP3    H120520   0.187   5.797   0.976 -0.3655 -0.4376 -1.0101
 6852TIP3    H220521   0.057   5.721   0.989 -0.3263 -0.2464  0.7277
 6853TIP3   OH220522   2.569   4.338   0.851 -0.2253 -0.0659 -0.5499
 6853TIP3    H120523   2.591   4.249   0.825  1.8061 -0.0795  0.9744
 6853TIP3    H220524   2.487   4.357   0.806  1.2370 -1.2801 -4.1085
 6854TIP3   OH220525   6.770   2.257   5.057 -0.2088 -0.1636  0.1898
 6854TIP3    H120526   6.740   2.299   4.976 -2.3923  0.1767  1.1027
 6854TIP3    H220527   6.696   2.203   5.085  1.1516 -1.6489  1.0705
 6855TIP3   OH220528   2.552   0.448   4.610 -0.1892 -0.7392 -0.0312
 6855TIP3    H120529   2.597   0.396   4.676  0.8467 -0.9790 -0.9097
 6855TIP3    H220530   2.608   0.443   4.533 -1.7716 -1.1441 -1.2025
 6856TIP3   OH220531   5.731   4.081   2.834  0.1441  0.5693 -0.3008
 6856TIP3    H120532   5.663   4.143   2.806 -0.1497  0.5205  0.2918
 6856TIP3    H220533   5.721   4.007   2.774 -0.5756  0.4020  0.0085
 6857TIP3   OH220534   0.764   0.607   3.199 -0.0616 -0.3092 -0.1274
 6857TIP3    H120535   0.698   0.593   3.267 -0.8277  0.9814 -0.5674
 6857TIP3    H220536   0.751   0.535   3.138  1.6415 -2.3795  1.8001
 6858TIP3   OH220537   3.963   0.731   1.224  0.2845  0.4886 -0.3505
 6858TIP3    H120538   3.871   0.752   1.243  0.7390  1.8432  0.5034
 6858TIP3    H220539   3.982   0.779   1.144  1.0379  2.7115  1.0622
 6859TIP3   OH220540   0.909   2.960   0.484 -0.8511  0.4793  0.2213
 6859TIP3    H120541   0.916   2.878   0.533 -0.6687 -0.0680 -0.6949
 6859TIP3    H220542   0.819   2.962   0.453 -0.2848 -0.5249 -1.6570
 6860TIP3   OH220543   4.033   5.341   2.059 -0.2952  0.0844  0.1380
 6860TIP3    H120544   4.008   5.426   2.023  0.0635 -0.2544 -0.9347
 6860TIP3    H220545   3.970   5.279   2.023 -0.9707 -0.0278  1.4454
 6861TIP3   OH220546   4.197   4.369   3.043 -0.0819 -0.4416  0.6045
 6861TIP3    H120547   4.207   4.274   3.035  0.8995 -0.2266 -1.1738
 6861TIP3    H220548   4.285   4.404   3.030 -0.5821  0.7517  0.2941
 6862TIP3   OH220549   0.302   0.213   4.058 -0.2066  0.1095 -0.1297
 6862TIP3    H120550   0.274   0.131   4.016 -0.3068 -0.3126  0.7317
 6862TIP3    H220551   0.230   0.274   4.042  0.3565  0.3823 -1.7350
 6863TIP3   OH220552   2.689   1.581   3.493 -0.4789 -0.5336 -0.8434
 6863TIP3    H120553   2.674   1.676   3.484 -1.2212 -0.7330 -2.0069
 6863TIP3    H220554   2.736   1.557   3.413 -0.2225 -1.1439 -0.5172
 6864TIP3   OH220555   3.994   4.516   3.144  0.6040 -0.9320  0.4190
 6864TIP3    H120556   4.088   4.512   3.163  0.5420 -1.4265  0.6318
 6864TIP3    H220557   3.967   4.424   3.140  0.2255 -0.7974 -0.1240
 6865TIP3   OH220558   5.605   3.648   5.832 -0.6218  0.1050 -0.2644
 6865TIP3    H120559   5.605   3.629   5.738  0.4938 -1.0676 -0.0538
 6865TIP3    H220560   5.512   3.654   5.855 -0.9522 -1.1722 -1.1490
 6866TIP3   OH220561   3.989   3.433   5.829  0.7775 -0.2161  0.3863
 6866TIP3    H120562   3.940   3.416   5.749 -0.7313  0.6254  1.0984
 6866TIP3    H220563   3.986   3.350   5.877  0.4841 -0.3093  0.2065
 6867TIP3   OH220564   3.016   4.879   4.105 -0.2236  0.3493 -0.0192
 6867TIP3    H120565   3.008   4.956   4.049  3.0901  0.3333 -0.7443
 6867TIP3    H220566   2.988   4.806   4.049  0.6739  0.6157 -0.8518
 6868TIP3   OH220567   0.671   4.002   0.444 -0.1245 -0.1259 -0.0783
 6868TIP3    H120568   0.667   4.027   0.536  0.0085 -1.6641  0.3796
 6868TIP3    H220569   0.607   3.931   0.436  2.0823 -2.1937 -0.4067
 6869TIP3   OH220570   6.588   3.896   3.712  0.2355 -0.0742 -0.1719
 6869TIP3    H120571   6.614   3.858   3.796  2.4966  1.0266 -0.3177
 6869TIP3    H220572   6.635   3.846   3.646 -0.1330  0.2245 -0.6756
 6870TIP3   OH220573   7.114   2.229   2.876  0.8379  0.1316  0.3594
 6870TIP3    H120574   7.048   2.181   2.927  2.3254  0.0247  2.2996
 6870TIP3    H220575   7.129   2.174   2.799  0.7066 -1.3025  1.3072
 6871TIP3   OH220576   3.903   0.316   3.378  0.3853 -0.6859 -0.7116
 6871TIP3    H120577   3.845   0.303   3.303 -0.6296  1.5113 -0.3916
 6871TIP3    H220578   3.909   0.411   3.388 -0.5491 -0.8388  2.7095
 6872TIP3   OH220579   5.577   1.646   0.180 -0.5006 -0.0096  0.4004
 6872TIP3    H120580   5.598   1.561   0.140  1.1707  0.9239 -0.8316
 6872TIP3    H220581   5.629   1.647   0.261 -0.7914 -0.2845  0.5940
 6873TIP3   OH220582   4.193   2.606   4.549 -0.3484  0.6411 -0.0840
 6873TIP3    H120583   4.135   2.639   4.617 -0.5799 -0.6822  0.3928
 6873TIP3    H220584   4.179   2.512   4.549 -0.0403  0.5668 -1.6963
 6874TIP3   OH220585   0.414   4.689   5.384 -0.2949 -0.5423  0.7248
 6874TIP3    H120586   0.433   4.709   5.475 -1.5697 -1.5179  1.2427
 6874TIP3    H220587   0.338   4.744   5.362 -0.0176 -0.3373  0.2587
 6875TIP3   OH220588   3.083   0.314   1.237  0.8608  0.1636  0.3176
 6875TIP3    H120589   3.071   0.314   1.142  1.4446  0.6634  0.2351
 6875TIP3    H220590   3.177   0.323   1.249  0.9244 -1.0980  0.9453
 6876TIP3   OH220591   2.098   4.363   3.004 -0.4027  0.3353 -0.5594
 6876TIP3    H120592   2.115   4.303   3.076  0.5783  1.7732  0.4525
 6876TIP3    H220593   2.106   4.309   2.925  3.0051 -0.4284  0.1587
 6877TIP3   OH220594   0.293   1.904   2.988  0.2060 -0.2626  0.3107
 6877TIP3    H120595   0.198   1.895   2.993 -0.1955  2.8590  0.2163
 6877TIP3    H220596   0.318   1.857   2.909 -1.6719  1.0885 -1.1662
 6878TIP3   OH220597   1.603   0.460   3.089  0.3129 -0.0674 -0.3989
 6878TIP3    H120598   1.674   0.408   3.052  0.5529 -0.4409  0.5655
 6878TIP3    H220599   1.523   0.418   3.056  0.5216  0.3151 -1.4305
 6879TIP3   OH220600   0.966   1.378   5.765 -0.0504 -0.0909 -0.3429
 6879TIP3    H120601   0.891   1.431   5.792 -0.3543  0.1038 -1.4775
 6879TIP3    H220602   1.043   1.429   5.792 -0.3331  0.2019 -0.0830
 6880TIP3   OH220603   1.524   6.647   0.185 -1.0555  0.5392  0.1222
 6880TIP3    H120604   1.564   6.649   0.272  0.7552  0.2253 -0.6513
 6880TIP3    H220605   1.588   6.600   0.131 -0.6784  3.3337 -2.0549
 6881TIP3   OH220606   1.904   4.583   1.020  0.0027  0.3092  0.3727
 6881TIP3    H120607   1.909   4.666   1.066  2.4078  0.0148  0.7803
 6881TIP3    H220608   1.910   4.517   1.090  0.8342 -0.1509 -0.1156
 6882TIP3   OH220609   0.577   5.882   4.734  0.2184 -0.3135 -0.1500
 6882TIP3    H120610   0.485   5.858   4.723  0.8079 -3.2146  0.3600
 6882TIP3    H220611   0.622   5.799   4.746  2.8387  1.0652  0.3481
 6883TIP3   OH220612   2.637   4.775   3.896  0.1287  0.4396  0.2262
 6883TIP3    H120613   2.707   4.771   3.831 -3.3766  0.3777 -4.0395
 6883TIP3    H220614   2.610   4.684   3.907 -2.1577  0.7495 -1.9680
 6884TIP3   OH220615   2.766   3.896   3.893 -0.1768  0.2759  0.0800
 6884TIP3    H120616   2.771   3.851   3.977 -1.3305  1.1506  0.6458
 6884TIP3    H220617   2.796   3.831   3.829  0.4020 -0.5088  1.1133
 6885TIP3   OH220618   0.719   6.593   5.310 -0.3044 -0.0664  0.2108
 6885TIP3    H120619   0.655   6.592   5.382 -0.9968 -0.1418 -0.3949
 6885TIP3    H220620   0.697   6.671   5.259  0.2886  0.0760  0.1683
 6886TIP3   OH220621   4.563   6.412   1.905  0.1991  0.3133  0.2516
 6886TIP3    H120622   4.548   6.461   1.986  0.5490  0.2285  0.3698
 6886TIP3    H220623   4.518   6.462   1.838 -0.5595  0.0997  0.5816
 6887TIP3   OH220624   0.111   5.925   2.354 -0.1122  0.3275 -0.0585
 6887TIP3    H120625   0.188   5.949   2.304 -0.0412  0.5402  0.1502
 6887TIP3    H220626   0.056   5.876   2.293  0.1649  0.2209 -0.2199
 6888TIP3   OH220627   1.943   1.366   3.378 -0.6256 -0.1699  0.0918
 6888TIP3    H120628   1.917   1.454   3.405 -1.3409  0.2957 -1.9387
 6888TIP3    H220629   1.860   1.322   3.357 -0.1408 -0.4008 -1.4833
 6889TIP3   OH220630   1.680   5.474   4.380 -0.1862 -0.2900  0.2647
 6889TIP3    H120631   1.651   5.457   4.469 -2.0845 -0.8184 -0.4165
 6889TIP3    H220632   1.710   5.389   4.347  1.9635  0.1788  0.8400
 6890TIP3   OH220633   0.808   0.517   0.680  1.0389 -0.2835 -0.9439
 6890TIP3    H120634   0.788   0.557   0.595 -0.5031 -0.2836 -0.6120
 6890TIP3    H220635   0.847   0.587   0.731  1.3752 -0.1089 -1.4308
 6891TIP3   OH220636   2.270   4.362   1.609  0.5197 -0.0851  0.0347
 6891TIP3    H120637   2.266   4.270   1.635 -0.1869  0.1898  0.9637
 6891TIP3    H220638   2.360   4.374   1.579  1.3271 -0.5388  2.0733
 6892TIP3   OH220639   4.677   4.024   3.835 -0.3473 -0.8843  0.2475
 6892TIP3    H120640   4.644   3.963   3.901 -0.6492 -0.0987  0.8402
 6892TIP3    H220641   4.598   4.063   3.797 -0.1422 -0.1339  0.5825
 6893TIP3   OH220642   6.251   2.626   1.238  0.1466  0.6307 -0.3893
 6893TIP3    H120643   6.205   2.581   1.308 -0.2486  0.3698 -0.8092
 6893TIP3    H220644   6.275   2.557   1.177 -2.5609  1.1608 -2.2656
 6894TIP3   OH220645   2.252   5.184   2.695 -0.4717  0.0509 -0.3228
 6894TIP3    H120646   2.298   5.108   2.661  0.3842  0.4879 -0.1758
 6894TIP3    H220647   2.221   5.157   2.781  0.9834  0.2768  0.2991
 6895TIP3   OH220648   6.094   1.805   4.157 -0.0803  0.1848 -0.2693
 6895TIP3    H120649   6.034   1.735   4.132  0.4087 -0.5022  0.4490
 6895TIP3    H220650   6.147   1.768   4.228 -1.2565  1.9702  1.6434
 6896TIP3   OH220651   5.311   1.689   4.689 -0.1157 -0.0193 -0.2519
 6896TIP3    H120652   5.342   1.778   4.669  0.0516 -0.1022 -0.3634
 6896TIP3    H220653   5.372   1.657   4.756  0.8428 -0.6596 -1.3902
 6897TIP3   OH220654   7.065   1.144   2.062  0.1727 -0.7015 -0.2791
 6897TIP3    H120655   7.155   1.128   2.034  0.6295 -1.9361  1.7085
 6897TIP3    H220656   7.057   1.239   2.063  2.3317 -0.4443  1.8774
 6898TIP3   OH220657   4.536   6.304   0.174 -0.1000 -0.2954 -0.2344
 6898TIP3    H120658   4.516   6.211   0.165  0.2336 -0.2974 -0.9445
 6898TIP3    H220659   4.522   6.322   0.267 -1.6408 -0.7084 -0.3541
 6899TIP3   OH220660   6.077   0.076   1.805 -0.3482  0.0015  0.0823
 6899TIP3    H120661   6.145   0.032   1.855 -2.2048 -0.3171  2.5601
 6899TIP3    H220662   6.083   0.168   1.832 -0.8027 -0.0045  0.2148
 6900TIP3   OH220663   5.900   4.801   2.413  0.2441 -0.3354  0.7156
 6900TIP3    H120664   5.982   4.792   2.364  0.5220  3.1639  0.3366
 6900TIP3    H220665   5.925   4.784   2.504  0.9914 -1.0074  0.4009
 6901TIP3   OH220666   6.006   1.522   5.699  0.5936 -0.3766  0.2118
 6901TIP3    H120667   5.968   1.596   5.652 -0.1404 -0.7896  0.1385
 6901TIP3    H220668   6.039   1.560   5.781  0.1259  0.0129  0.2235
 6902TIP3   OH220669   6.947   0.755   4.976 -0.4498 -0.2226  0.2953
 6902TIP3    H120670   6.938   0.810   4.899 -0.8159 -0.5809  0.0785
 6902TIP3    H220671   6.883   0.790   5.038  0.2524  0.4374  0.6672
 6903TIP3   OH220672   7.135   2.699   3.124  0.0468 -0.0406  0.1811
 6903TIP3    H120673   7.139   2.616   3.077  2.4650  0.3041 -0.3388
 6903TIP3    H220674   7.213   2.747   3.096 -1.2309  2.4160  0.5127
 6904TIP3   OH220675   2.694   5.461   0.364 -0.3432 -0.2128 -0.4750
 6904TIP3    H120676   2.697   5.414   0.280 -0.3301  0.5520 -0.9131
 6904TIP3    H220677   2.605   5.497   0.368 -0.1975  0.1352 -0.3745
 6905TIP3   OH220678   7.107   0.985   3.246  0.0545  0.4316  0.0617
 6905TIP3    H120679   7.142   0.930   3.316  0.0647 -0.8104 -0.8656
 6905TIP3    H220680   7.137   1.073   3.266  1.4723 -0.1736  0.7245
 6906TIP3   OH220681   0.695   6.455   3.119  0.0826  0.0337 -0.8261
 6906TIP3    H120682   0.647   6.433   3.199 -0.2432 -0.1713 -1.0743
 6906TIP3    H220683   0.717   6.370   3.080 -0.4291  0.1318 -1.3466
 6907TIP3   OH220684   3.189   1.650   4.838 -0.3601  0.0464 -0.0995
 6907TIP3    H120685   3.155   1.713   4.901 -0.2336  0.9738 -0.9354
 6907TIP3    H220686   3.236   1.703   4.773  1.6367 -1.0856  0.3422
 6908TIP3   OH220687   1.716   4.608   5.796 -0.1164 -0.0132  0.1461
 6908TIP3    H120688   1.729   4.569   5.710  0.7911 -0.3495  0.4301
 6908TIP3    H220689   1.802   4.607   5.837 -0.8598 -1.6854  1.8387
 6909TIP3   OH220690   3.067   0.919   0.229 -0.3623  0.0307  0.0730
 6909TIP3    H120691   3.031   0.842   0.186 -0.5288 -0.1491  0.5319
 6909TIP3    H220692   3.023   0.993   0.186 -1.0535 -0.1745  0.4063
 6910TIP3   OH220693   4.059   2.479   4.838 -0.6796 -0.2853 -0.1541
 6910TIP3    H120694   4.049   2.446   4.749  0.5217 -0.8575 -0.0971
 6910TIP3    H220695   4.122   2.551   4.830  0.5796 -1.2809  0.4023
 6911TIP3   OH220696   6.396   1.725   2.365 -0.0796  0.4384 -0.4320
 6911TIP3    H120697   6.425   1.797   2.422 -1.4124  0.7593 -0.1288
 6911TIP3    H220698   6.393   1.763   2.277  1.0856  0.1966 -0.5959
 6912TIP3   OH220699   2.405   6.626   1.181  0.7804 -0.5076 -0.1399
 6912TIP3    H120700   2.403   6.607   1.088  1.4143  1.3528 -0.5797
 6912TIP3    H220701   2.331   6.577   1.217  1.5689 -2.6968 -1.2765
 6913TIP3   OH220702   4.729   0.755   2.412  0.4450  0.2908  0.1464
 6913TIP3    H120703   4.816   0.719   2.397 -0.0230 -0.4319 -0.9781
 6913TIP3    H220704   4.691   0.698   2.479  0.3535 -0.2051 -0.3294
 6914TIP3   OH220705   3.723   6.326   0.776  0.4118  0.1992 -0.2935
 6914TIP3    H120706   3.656   6.298   0.838  0.6921  0.4475  0.1254
 6914TIP3    H220707   3.805   6.319   0.825  0.6834 -0.0146 -0.7734
 6915TIP3   OH220708   4.386   1.362   4.598  0.0659 -0.0989 -0.0391
 6915TIP3    H120709   4.368   1.269   4.612  1.4205 -0.0488  3.0029
 6915TIP3    H220710   4.380   1.401   4.685  0.7840  2.4377 -1.0155
 6916TIP3   OH220711   3.087   2.077   5.175  0.0891 -0.3543 -0.1194
 6916TIP3    H120712   3.008   2.117   5.212  1.4312  1.7266  0.6623
 6916TIP3    H220713   3.125   2.028   5.248 -1.5978 -3.4029 -1.0936
 6917TIP3   OH220714   1.345   2.815   4.824 -0.4246 -0.2021 -0.1690
 6917TIP3    H120715   1.288   2.808   4.900  1.1387 -0.9497  0.9846
 6917TIP3    H220716   1.304   2.760   4.757 -1.4340 -0.1085  0.3626
 6918TIP3   OH220717   5.533   3.579   5.215  0.1811 -0.0566 -0.2750
 6918TIP3    H120718   5.620   3.592   5.252  0.0228 -0.7809  0.3760
 6918TIP3    H220719   5.536   3.491   5.177 -0.7594 -0.7810  1.2311
 6919TIP3   OH220720   6.513   6.351   2.779  0.9102  0.2451  0.3700
 6919TIP3    H120721   6.517   6.370   2.873 -2.5655  0.2755  0.6642
 6919TIP3    H220722   6.495   6.258   2.774 -0.4526  0.5047 -0.1213
 6920TIP3   OH220723   5.250   2.590   4.961 -0.1567 -0.2090 -0.2776
 6920TIP3    H120724   5.205   2.542   4.892  1.2012  0.1656 -1.4863
 6920TIP3    H220725   5.212   2.678   4.958 -0.3805 -0.3040 -0.2628
 6921TIP3   OH220726   6.386   3.815   2.677  0.1179 -0.0808  0.4872
 6921TIP3    H120727   6.377   3.910   2.685  1.6241  0.0428  0.9454
 6921TIP3    H220728   6.442   3.790   2.751  0.4880 -1.1975 -0.1527
 6922TIP3   OH220729   2.809   1.778   2.467  0.0310  0.5403 -0.3099
 6922TIP3    H120730   2.829   1.862   2.508 -1.1621  0.3397  0.7440
 6922TIP3    H220731   2.723   1.790   2.428  0.8792  0.5340 -2.3218
 6923TIP3   OH220732   1.610   5.398   1.724  0.1959  0.2340 -0.0274
 6923TIP3    H120733   1.548   5.422   1.793 -0.5786  1.0774 -0.9958
 6923TIP3    H220734   1.668   5.334   1.766  1.0283  2.2120  2.0261
 6924TIP3   OH220735   3.094   5.741   1.652 -0.2868  0.0237  0.7555
 6924TIP3    H120736   3.141   5.669   1.611  1.8825  1.0159  1.3537
 6924TIP3    H220737   3.068   5.708   1.738 -1.9785 -0.9825 -0.0936
 6925TIP3   OH220738   1.624   2.477   3.470 -0.6199 -1.2249  0.5746
 6925TIP3    H120739   1.671   2.395   3.472  0.7598 -0.4569  0.8002
 6925TIP3    H220740   1.687   2.541   3.437 -1.0477  0.1042  2.1421
 6926TIP3   OH220741   7.095   0.986   1.494 -0.0983 -0.3436  0.0890
 6926TIP3    H120742   7.075   1.044   1.568 -0.7438  0.2168 -0.5065
 6926TIP3    H220743   7.044   0.907   1.512 -1.6495  0.4551 -0.5958
 6927TIP3   OH220744   1.233   6.092   3.992  0.2099 -0.1824 -0.1957
 6927TIP3    H120745   1.252   5.998   3.991 -0.5457 -0.3502 -1.6833
 6927TIP3    H220746   1.140   6.097   4.016  0.1301  0.1553 -0.5689
 6928TIP3   OH220747   0.826   3.493   2.966  1.0128 -0.2325 -0.1409
 6928TIP3    H120748   0.798   3.406   2.938  1.0024 -1.1640  2.5023
 6928TIP3    H220749   0.821   3.546   2.887 -2.6012 -1.7134 -1.0982
 6929TIP3   OH220750   2.514   5.568   1.302 -0.1578  0.4099  0.5485
 6929TIP3    H120751   2.506   5.660   1.327 -0.1918  0.5917 -0.1235
 6929TIP3    H220752   2.462   5.521   1.367 -2.8087  1.1483 -0.8912
 6930TIP3   OH220753   4.061   2.842   0.759  0.1381 -0.5616 -0.3228
 6930TIP3    H120754   3.966   2.838   0.767  0.2002  0.5769  1.8751
 6930TIP3    H220755   4.084   2.933   0.782  1.7558 -0.7825 -0.8870
 6931TIP3   OH220756   2.916   5.135   5.029 -0.1959 -0.0134 -0.2393
 6931TIP3    H120757   3.005   5.165   5.014 -0.9426  3.3589  1.2308
 6931TIP3    H220758   2.863   5.214   5.026 -2.7725 -1.5123  1.5254
 6932TIP3   OH220759   6.946   5.062   4.969  0.0997  0.2269  0.2684
 6932TIP3    H120760   7.025   5.008   4.959 -0.2662 -0.5130  1.2018
 6932TIP3    H220761   6.979   5.152   4.970  1.1794 -0.1185  2.4266
 6933TIP3   OH220762   6.368   0.966   5.841 -0.2439 -0.1851  0.0198
 6933TIP3    H120763   6.408   1.043   5.799  1.3807 -0.3716  1.1188
 6933TIP3    H220764   6.416   0.892   5.803 -1.6272 -0.6711 -0.8458
 6934TIP3   OH220765   6.845   2.086   4.587  0.9561 -0.3035 -0.2350
 6934TIP3    H120766   6.841   2.009   4.644 -0.1069 -1.0211 -1.2321
 6934TIP3    H220767   6.804   2.058   4.506  1.7235  0.9412 -1.0899
 6935TIP3   OH220768   5.446   0.153   3.445 -0.7674 -0.4143  0.6119
 6935TIP3    H120769   5.534   0.191   3.446 -0.2552 -1.2299 -2.6263
 6935TIP3    H220770   5.413   0.168   3.533  1.9988  1.3326  1.4939
 6936TIP3   OH220771   5.495   6.264   5.151 -0.3027 -0.4030  0.0153
 6936TIP3    H120772   5.558   6.241   5.083 -1.4364  0.6639 -1.4500
 6936TIP3    H220773   5.432   6.321   5.107 -0.3945  1.3649  2.2627
 6937TIP3   OH220774   2.125   0.074   3.069 -0.2146  0.3003 -0.3417
 6937TIP3    H120775   2.170   0.151   3.035 -2.1372  2.3295  1.4424
 6937TIP3    H220776   2.128   0.083   3.164 -3.5102  0.1315 -0.0940
 6938TIP3   OH220777   5.613   5.326   0.235  0.2300 -0.6908  0.1292
 6938TIP3    H120778   5.652   5.340   0.321  0.7326 -0.8800 -0.0606
 6938TIP3    H220779   5.673   5.265   0.192 -1.1788 -2.3771  0.4506
 6939TIP3   OH220780   1.924   1.598   3.647 -0.4912  0.9729 -0.0890
 6939TIP3    H120781   1.866   1.629   3.577 -1.4686 -0.5287  0.0022
 6939TIP3    H220782   2.009   1.586   3.604 -1.4394 -1.4308 -1.5143
 6940TIP3   OH220783   7.077   1.936   2.225 -0.5504  0.0152  0.1311
 6940TIP3    H120784   7.065   1.933   2.320 -0.1433 -2.1053  0.1568
 6940TIP3    H220785   6.997   1.977   2.192 -2.7586 -3.1327  1.1095
 6941TIP3   OH220786   0.576   6.217   5.229 -0.2986  0.1994  0.3453
 6941TIP3    H120787   0.559   6.300   5.185 -0.0243 -0.4868 -1.1221
 6941TIP3    H220788   0.649   6.236   5.289 -0.8954  1.2367  0.7658
 6942TIP3   OH220789   6.093   3.801   0.643 -0.1689  0.1351 -0.0669
 6942TIP3    H120790   6.156   3.776   0.576 -1.3786 -2.1241 -0.4712
 6942TIP3    H220791   6.046   3.876   0.606  0.9749  0.6137 -0.5645
 6943TIP3   OH220792   5.324   2.256   3.729  0.7712 -0.3494  0.1057
 6943TIP3    H120793   5.370   2.229   3.808  2.7388  0.8605 -0.5769
 6943TIP3    H220794   5.270   2.329   3.757  1.3080 -0.0546  0.3757
 6944TIP3   OH220795   1.749   2.246   3.655  0.0826 -0.6044 -0.1102
 6944TIP3    H120796   1.756   2.311   3.726 -1.6937  0.9156 -1.2254
 6944TIP3    H220797   1.688   2.181   3.689  0.7407 -0.9384  0.4652
 6945TIP3   OH220798   5.056   4.260   5.227  0.0800  0.2563 -0.0706
 6945TIP3    H120799   5.069   4.338   5.172  0.8388  0.7014  0.7292
 6945TIP3    H220800   4.986   4.211   5.182  0.4490  0.7726 -1.2482
 6946TIP3   OH220801   0.798   3.511   5.421  0.1272 -0.5315  0.0953
 6946TIP3    H120802   0.806   3.524   5.516 -0.4141 -1.1734  0.2374
 6946TIP3    H220803   0.871   3.561   5.384  0.2283 -0.1095  0.8347
 6947TIP3   OH220804   4.912   1.766   1.097 -0.2478 -0.3229  0.5725
 6947TIP3    H120805   4.904   1.760   1.192  1.5872  0.5552  0.8350
 6947TIP3    H220806   4.970   1.694   1.073  2.7963  1.8454  0.7603
 6948TIP3   OH220807   1.258   3.712   5.242  0.1851 -0.3050 -0.2314
 6948TIP3    H120808   1.347   3.678   5.230  0.8675  0.7404  1.4536
 6948TIP3    H220809   1.239   3.696   5.335 -0.9489  0.4814 -0.3089
 6949TIP3   OH220810   1.673   2.975  -0.013  0.0967 -0.4671 -0.0989
 6949TIP3    H120811   1.760   3.001   0.018  1.0187 -2.1824 -1.0967
 6949TIP3    H220812   1.669   2.880   0.004 -2.0863 -0.2373  1.0611
 6950TIP3   OH220813   5.343   2.778   1.139 -0.1695  0.7813  0.1325
 6950TIP3    H120814   5.346   2.797   1.233 -0.4666 -0.5038  0.4170
 6950TIP3    H220815   5.281   2.706   1.131 -0.2101  0.9258 -1.0706
 6951TIP3   OH220816   7.086   5.940   4.303 -0.5159  0.1687 -0.0351
 6951TIP3    H120817   7.177   5.911   4.299 -0.3865  0.4296  0.8367
 6951TIP3    H220818   7.091   6.033   4.322 -0.9566 -0.0476  1.2667
 6952TIP3   OH220819   0.506   4.813   5.631 -0.1553  0.2758 -0.1542
 6952TIP3    H120820   0.600   4.817   5.650 -0.1315 -0.5706 -0.0659
 6952TIP3    H220821   0.469   4.886   5.679  0.4439  0.5601 -0.1090
 6953TIP3   OH220822   0.265   3.277   1.844 -0.2215 -0.2686  0.2705
 6953TIP3    H120823   0.293   3.252   1.932 -0.7096  0.5415  0.6678
 6953TIP3    H220824   0.170   3.261   1.843 -0.0362 -1.3935 -0.5045
 6954TIP3   OH220825   3.600   5.827   0.085 -0.5756 -0.0215 -0.2571
 6954TIP3    H120826   3.541   5.883   0.136 -1.1078  2.0414 -2.9002
 6954TIP3    H220827   3.672   5.884   0.060 -0.1616 -1.0265 -1.4939
 6955TIP3   OH220828   0.555   1.922   0.620  0.7481  0.5613 -0.2342
 6955TIP3    H120829   0.623   1.884   0.564 -1.6379 -1.9947 -1.6797
 6955TIP3    H220830   0.512   1.845   0.660 -2.4402  1.8580 -0.8693
 6956TIP3   OH220831   4.141   5.510   1.622 -0.3296  0.0498  0.0226
 6956TIP3    H120832   4.095   5.428   1.609  0.3679 -0.1895 -1.0639
 6956TIP3    H220833   4.072   5.572   1.648 -0.8463 -0.8696  0.9132
 6957TIP3   OH220834   2.022   5.747   2.450  0.3222 -0.4876  0.3612
 6957TIP3    H120835   2.106   5.719   2.486  0.2909  1.4731  2.1248
 6957TIP3    H220836   2.044   5.819   2.390 -0.0813  0.1493  0.9614
 6958TIP3   OH220837   0.367   1.475   0.116 -0.4480 -0.3660  0.1578
 6958TIP3    H120838   0.428   1.548   0.128  0.0232 -0.8407  0.6967
 6958TIP3    H220839   0.366   1.431   0.201  0.4643 -1.9044 -0.6001
 6959TIP3   OH220840   3.241   4.471   3.329 -0.8230  0.1383 -0.2421
 6959TIP3    H120841   3.157   4.513   3.344 -0.8837 -0.1368  0.2198
 6959TIP3    H220842   3.296   4.501   3.401 -0.9437 -0.7546  0.2351
 6960TIP3   OH220843   4.341   5.311   5.349 -0.4411 -0.3006  0.0695
 6960TIP3    H120844   4.383   5.397   5.349  2.7550 -1.6779  1.2741
 6960TIP3    H220845   4.349   5.281   5.258  0.3228 -0.0961  0.0576
 6961TIP3   OH220846   0.506   2.022   1.923  0.0308  0.1083 -0.1494
 6961TIP3    H120847   0.499   2.087   1.992  0.0898  0.7323 -0.7166
 6961TIP3    H220848   0.460   2.061   1.849 -0.6783 -0.8643 -0.2404
 6962TIP3   OH220849   5.469   1.698   2.367  0.0724  0.3863 -0.2036
 6962TIP3    H120850   5.562   1.699   2.345 -0.2665  0.1237 -1.7280
 6962TIP3    H220851   5.463   1.647   2.448  1.1821 -0.0220 -0.3761
 6963TIP3   OH220852   6.074   6.764   1.046  0.1256 -0.0635  0.0506
 6963TIP3    H120853   6.006   6.754   1.113 -0.9279  1.3575 -0.7466
 6963TIP3    H220854   6.102   6.855   1.054 -0.2386  0.2248 -1.6099
 6964TIP3   OH220855   5.658   0.988   1.603 -0.0129  0.4560  0.1978
 6964TIP3    H120856   5.682   1.069   1.649  0.7711  0.9952 -1.0988
 6964TIP3    H220857   5.572   1.007   1.566  0.4674  1.0095 -0.7049
 6965TIP3   OH220858   6.106   3.484   2.695  0.4247  0.5943 -0.3069
 6965TIP3    H120859   6.033   3.423   2.689 -0.0994  0.9531  1.7091
 6965TIP3    H220860   6.065   3.570   2.684  1.0121  0.6927 -2.0937
 6966TIP3   OH220861   7.022   6.614   1.474  0.2338 -0.1136  0.4052
 6966TIP3    H120862   6.945   6.608   1.531 -0.7756  0.7884 -0.8291
 6966TIP3    H220863   7.012   6.698   1.429  0.7729 -0.9918 -1.4271
 6967TIP3   OH220864   6.417   4.658   2.197 -0.6810 -0.5436 -0.5700
 6967TIP3    H120865   6.438   4.580   2.249 -0.7225 -1.0567 -1.3063
 6967TIP3    H220866   6.448   4.637   2.108  1.2478  1.0938 -0.3703
 6968TIP3   OH220867   0.365   5.965   2.214 -0.0871  0.7275  0.5861
 6968TIP3    H120868   0.346   6.033   2.150  0.8018 -1.7677 -2.5614
 6968TIP3    H220869   0.415   6.010   2.283 -1.9968  3.7355  0.1798
 6969TIP3   OH220870   6.424   5.586   3.886 -0.0803 -0.3832  0.3911
 6969TIP3    H120871   6.389   5.672   3.862  0.4548 -0.0374  0.8149
 6969TIP3    H220872   6.350   5.526   3.875 -0.6462  0.2384  0.7332
 6970TIP3   OH220873   3.298   4.276   5.704  0.1353 -0.0634 -0.0447
 6970TIP3    H120874   3.299   4.224   5.623  1.2868 -2.0520  1.1458
 6970TIP3    H220875   3.207   4.303   5.713 -0.4297 -1.4459 -1.0381
 6971TIP3   OH220876   1.209   5.475   5.292  0.8933 -0.3214  0.1832
 6971TIP3    H120877   1.282   5.537   5.284 -0.7971  1.6231 -1.1384
 6971TIP3    H220878   1.177   5.487   5.381  1.0246  0.1837  0.1676
 6972TIP3   OH220879   5.463   1.459   4.523  0.1741  0.2273 -0.3327
 6972TIP3    H120880   5.442   1.443   4.615  0.3209 -1.2487 -0.5295
 6972TIP3    H220881   5.378   1.465   4.480  0.0521 -2.3971 -0.5937
 6973TIP3   OH220882   0.277   1.407   2.606  0.3295 -0.3069 -0.2488
 6973TIP3    H120883   0.264   1.313   2.615  0.8176 -0.4636 -1.1055
 6973TIP3    H220884   0.338   1.416   2.533 -0.3723  0.7082 -0.7399
 6974TIP3   OH220885   2.041   0.605   3.355  0.0641  0.4276 -0.4058
 6974TIP3    H120886   2.067   0.533   3.297 -0.8408 -0.4923  0.3054
 6974TIP3    H220887   1.945   0.604   3.354  0.0326  0.4124  1.0766
 6975TIP3   OH220888   6.782   2.962   2.791  0.2616  0.1432 -0.8608
 6975TIP3    H120889   6.776   2.867   2.789 -1.7615 -0.0607  3.5035
 6975TIP3    H220890   6.872   2.980   2.819 -0.1320 -0.7108  1.0783
 6976TIP3   OH220891   0.890   3.306   0.078 -0.1805  0.2400 -0.6770
 6976TIP3    H120892   0.835   3.384   0.073  1.4534  1.5470  0.4761
 6976TIP3    H220893   0.976   3.339   0.105  0.5880 -1.9577 -0.2138
 6977TIP3   OH220894   0.376   3.084   4.313  0.2501  0.0040 -0.4856
 6977TIP3    H120895   0.302   3.060   4.369 -1.5448  0.6694 -2.4561
 6977TIP3    H220896   0.424   3.149   4.364  0.9058 -2.0985  1.7913
 6978TIP3   OH220897   5.247   3.761   5.580 -0.8731 -0.2795  0.1127
 6978TIP3    H120898   5.308   3.788   5.511 -0.8258 -0.0452  0.2440
 6978TIP3    H220899   5.276   3.673   5.604  1.5449  1.0141  2.5056
 6979TIP3   OH220900   5.428   0.530   1.983 -0.1296 -0.4838 -0.0702
 6979TIP3    H120901   5.387   0.498   2.063  1.5093 -0.9613  0.6316
 6979TIP3    H220902   5.423   0.626   1.990  0.5110 -0.5052  0.9140
 6980TIP3   OH220903   2.658   1.188   2.218  0.2672 -0.0812 -0.1860
 6980TIP3    H120904   2.739   1.154   2.256  0.3315  0.3574  0.0714
 6980TIP3    H220905   2.590   1.167   2.282  0.4190  0.9095  0.3194
 6981TIP3   OH220906   2.825   0.167   4.592 -0.2365  0.1591  0.3643
 6981TIP3    H120907   2.749   0.177   4.534 -1.1477 -2.1283  1.0452
 6981TIP3    H220908   2.807   0.225   4.665 -0.9000  0.3028  0.0952
 6982TIP3   OH220909   4.206   1.207   1.575  0.2078  1.0513 -0.0872
 6982TIP3    H120910   4.161   1.258   1.642  1.0436 -0.3791  1.6294
 6982TIP3    H220911   4.148   1.133   1.558  0.2892  1.0806 -0.5146
 6983TIP3   OH220912   1.682   5.602   5.467 -0.3323 -0.3830  0.1557
 6983TIP3    H120913   1.743   5.672   5.491 -0.0587 -0.0292 -1.4381
 6983TIP3    H220914   1.654   5.565   5.550 -0.1520  1.3476  1.0337
 6984TIP3   OH220915   4.333   2.239   4.810 -0.0803  0.2798  0.2967
 6984TIP3    H120916   4.407   2.237   4.750 -0.2947 -1.2490  0.0429
 6984TIP3    H220917   4.269   2.295   4.768  0.6759  1.0980  0.2172
 6985TIP3   OH220918   0.124   0.950   1.757 -0.4951 -0.4527  0.8477
 6985TIP3    H120919   0.122   0.974   1.665  0.7717 -0.8114  0.7069
 6985TIP3    H220920   0.058   0.881   1.766 -0.2419 -0.7987  0.0909
 6986TIP3   OH220921   4.314   4.274   1.664 -0.5948  0.7675 -0.3719
 6986TIP3    H120922   4.255   4.346   1.642 -1.9190  0.3195  1.4531
 6986TIP3    H220923   4.284   4.201   1.610 -1.6939  0.5843  0.4394
 6987TIP3   OH220924   0.585   3.269   5.107  0.0214  0.6347 -0.1030
 6987TIP3    H120925   0.565   3.264   5.013 -0.4421  0.1646  0.0161
 6987TIP3    H220926   0.529   3.203   5.147  0.7071  0.3613  0.4276
 6988TIP3   OH220927   7.149   5.109   2.494 -0.3838 -0.6090  0.3070
 6988TIP3    H120928   7.073   5.107   2.437 -0.0352 -1.6254 -0.1320
 6988TIP3    H220929   7.124   5.169   2.565 -1.6813 -1.1278  0.3052
 6989TIP3   OH220930   3.018   3.941   1.041 -0.6573  0.5180 -0.0860
 6989TIP3    H120931   3.008   3.969   1.132  2.3469 -0.9472  0.8662
 6989TIP3    H220932   3.109   3.910   1.036 -1.5572 -2.2157 -2.8074
 6990TIP3   OH220933   1.670   6.745   3.795 -0.3583  0.0846 -0.3036
 6990TIP3    H120934   1.602   6.688   3.830  0.6858 -0.2313  1.3131
 6990TIP3    H220935   1.684   6.811   3.863  2.3593 -1.0691  0.4135
 6991TIP3   OH220936   3.409   6.644   4.348  0.3415 -0.3747  0.2252
 6991TIP3    H120937   3.361   6.718   4.384 -1.7811 -1.5842  0.0191
 6991TIP3    H220938   3.344   6.594   4.299  1.7226 -2.3253  0.2406
 6992TIP3   OH220939   4.150   2.476   3.017 -0.5178 -0.1322 -0.3473
 6992TIP3    H120940   4.096   2.414   2.968 -0.0161  0.4781 -1.7364
 6992TIP3    H220941   4.225   2.494   2.959  0.4874  0.0695  0.9530
 6993TIP3   OH220942   0.683   0.984   4.129  0.4692 -0.2952  0.0237
 6993TIP3    H120943   0.611   1.041   4.158  1.4137 -0.4738  3.0365
 6993TIP3    H220944   0.747   1.044   4.090 -0.5321  0.0567 -1.1542
 6994TIP3   OH220945   1.925   4.939   0.002  0.0332 -0.5650  0.4952
 6994TIP3    H120946   1.978   5.009  -0.036 -0.8016 -0.3634 -0.3478
 6994TIP3    H220947   1.975   4.909   0.078  1.6440 -0.8206 -0.6094
 6995TIP3   OH220948   2.975   1.352   5.558 -0.4065  0.5302  0.2732
 6995TIP3    H120949   3.046   1.357   5.494 -2.9659  1.1371 -2.7763
 6995TIP3    H220950   3.017   1.367   5.643  3.0565  0.7054 -1.3378
 6996TIP3   OH220951   4.612   3.507   4.173 -0.0242  0.1615  0.7279
 6996TIP3    H120952   4.542   3.506   4.107  2.0179 -0.0761 -1.6005
 6996TIP3    H220953   4.663   3.428   4.155  1.4867  0.8993  1.5791
 6997TIP3   OH220954   0.599   0.074   5.760  0.3634 -0.0177  0.1716
 6997TIP3    H120955   0.564   0.119   5.684  0.8142 -0.6781 -0.4384
 6997TIP3    H220956   0.672   0.022   5.726  0.1661 -0.8207  0.9308
 6998TIP3   OH220957   0.436   3.304   4.473  0.2992  0.0587  0.2623
 6998TIP3    H120958   0.526   3.327   4.451  0.2035  1.1231  0.8883
 6998TIP3    H220959   0.436   3.296   4.568 -0.3235  0.3306  0.2902
 6999TIP3   OH220960   0.200   4.274   3.057  0.6750  0.3838 -0.2618
 6999TIP3    H120961   0.202   4.352   3.112 -0.7927 -0.2666  0.7542
 6999TIP3    H220962   0.118   4.281   3.008  1.8365  0.8402 -2.2902
 7000TIP3   OH220963   4.146   2.989   3.795 -0.5973  0.4159 -0.7522
 7000TIP3    H120964   4.214   3.054   3.774 -0.5115  0.3600 -0.6444
 7000TIP3    H220965   4.166   2.961   3.884 -0.4818  0.0487 -0.8925
 7001TIP3   OH220966   4.073   0.247   0.322  0.2975  0.2771  0.3157
 7001TIP3    H120967   4.145   0.185   0.309 -0.4379 -0.7333  0.9227
 7001TIP3    H220968   4.048   0.236   0.413 -0.7337  0.5012  0.0748
 7002TIP3   OH220969   6.797   2.638   3.389 -0.7014  0.4323 -0.2042
 7002TIP3    H120970   6.719   2.632   3.444  1.2090  0.7782  2.7256
 7002TIP3    H220971   6.832   2.549   3.387 -1.2724  0.1946 -1.8370
 7003TIP3   OH220972   5.331   1.869   2.021 -0.2454  0.1444 -0.7727
 7003TIP3    H120973   5.264   1.863   2.089 -3.4383  1.0460 -3.6082
 7003TIP3    H220974   5.391   1.937   2.053  0.5474 -1.9138  2.6582
 7004TIP3   OH220975   5.093   6.449   4.337 -0.1792  0.3152  0.2911
 7004TIP3    H120976   5.055   6.372   4.295  1.1400 -0.1156 -0.1494
 7004TIP3    H220977   5.094   6.516   4.269  0.3493  0.1517  0.1319
 7005TIP3   OH220978   0.459   2.042   1.441  0.3675  0.5412  0.2561
 7005TIP3    H120979   0.462   2.019   1.348  0.0068  1.1125  0.0954
 7005TIP3    H220980   0.534   1.997   1.480  1.4972  1.5985 -0.6067
 7006TIP3   OH220981   5.415   6.455   1.079 -0.5522 -0.0358 -0.1071
 7006TIP3    H120982   5.328   6.489   1.099 -0.2998 -0.0868  1.1272
 7006TIP3    H220983   5.438   6.497   0.995 -0.9397  1.5401  0.5378
 7007TIP3   OH220984   7.092   0.960   2.283  0.1598 -0.2352  0.5391
 7007TIP3    H120985   7.007   0.946   2.324 -0.4345 -0.1007 -0.6019
 7007TIP3    H220986   7.075   1.026   2.215  0.9966 -0.8193 -0.2630
 7008TIP3   OH220987   5.864   6.374   3.132  0.0544  0.1003  0.3787
 7008TIP3    H120988   5.900   6.394   3.045  0.6796 -4.1519 -0.5651
 7008TIP3    H220989   5.769   6.371   3.118  0.1012  0.1667  0.0310
 7009TIP3   OH220990   0.346   3.773   3.640 -0.3021 -0.2620  0.2047
 7009TIP3    H120991   0.316   3.847   3.692 -1.0541 -0.3451 -0.1044
 7009TIP3    H220992   0.352   3.701   3.703 -0.1465 -0.0934  0.3860
 7010TIP3   OH220993   2.050   0.340   2.800  0.0749  0.5235  0.2622
 7010TIP3    H120994   1.981   0.396   2.762  0.7167 -0.3747 -2.4927
 7010TIP3    H220995   2.014   0.252   2.797  1.5174 -0.0653 -1.9285
 7011TIP3   OH220996   4.602   2.456   1.984 -0.6908 -0.1455 -0.4261
 7011TIP3    H120997   4.668   2.455   1.915  0.0813  4.2548 -0.0798
 7011TIP3    H220998   4.650   2.484   2.062 -2.6413  1.9736  0.1145
 7012TIP3   OH220999   0.972   2.938   5.160 -0.6808  0.3559  0.5753
 7012TIP3    H121000   1.025   2.916   5.237  1.3007  0.5960 -0.6339
 7012TIP3    H221001   0.882   2.936   5.191  0.0489  0.3974  2.8761
 7013TIP3   OH221002   2.679   1.026   4.945  0.4511  0.7858 -0.2351
 7013TIP3    H121003   2.600   1.070   4.976  0.4044  1.0458 -0.7172
 7013TIP3    H221004   2.749   1.062   4.999 -0.0230 -1.2365  1.9681
 7014TIP3   OH221005   0.913   3.126   1.831 -0.5800 -0.5498 -0.1983
 7014TIP3    H121006   0.861   3.070   1.774 -0.9841 -0.3123 -0.0628
 7014TIP3    H221007   0.869   3.210   1.829  1.6844  0.7415 -2.8568
 7015TIP3   OH221008   0.196   6.366   3.470 -0.1302 -0.2108  0.0206
 7015TIP3    H121009   0.157   6.279   3.474  3.3653 -1.9313 -0.2980
 7015TIP3    H221010   0.272   6.357   3.414  0.4736  3.0687  0.0743
 7016TIP3   OH221011   5.242   0.589   5.584 -0.5449 -0.7431  0.7444
 7016TIP3    H121012   5.310   0.634   5.533 -1.1489  0.0292  0.5925
 7016TIP3    H221013   5.280   0.505   5.607  0.8278  0.0410  1.4688
 7017TIP3   OH221014   4.398   4.997   2.188  0.3948  0.8255 -0.3829
 7017TIP3    H121015   4.328   4.970   2.246  1.3148  0.1243  0.4385
 7017TIP3    H221016   4.358   5.062   2.130 -1.1024 -0.0912 -0.4246
 7018TIP3   OH221017   0.987   1.905   5.211  0.1792  0.5731 -0.5269
 7018TIP3    H121018   1.040   1.858   5.147 -0.2269 -2.8502  1.3722
 7018TIP3    H221019   0.914   1.941   5.161  1.3461  0.5034 -2.3605
 7019TIP3   OH221020   1.429   1.639   1.819  0.0738 -0.3294 -0.3380
 7019TIP3    H121021   1.506   1.618   1.871 -0.6091 -0.3576  0.6762
 7019TIP3    H221022   1.437   1.733   1.801  1.4367 -0.7036 -2.1031
 7020TIP3   OH221023   0.554   4.860   4.975 -0.6640 -0.0863 -0.6096
 7020TIP3    H121024   0.474   4.809   4.987 -1.2541  1.0558  0.6099
 7020TIP3    H221025   0.618   4.818   5.032 -1.5263  1.2493  1.4447
 7021TIP3   OH221026   2.518   2.108   3.503  0.3838 -0.1353  0.0751
 7021TIP3    H121027   2.569   2.031   3.475  1.2702  1.5903 -3.7219
 7021TIP3    H221028   2.585   2.175   3.520 -0.4530  0.9277 -0.7168
 7022TIP3   OH221029   2.289   2.091   5.183 -0.7840  0.0284 -0.5308
 7022TIP3    H121030   2.287   2.097   5.279 -1.2778 -1.1400 -0.4506
 7022TIP3    H221031   2.209   2.042   5.161  0.4680 -1.7359 -1.3722
 7023TIP3   OH221032   0.116   5.463   5.000 -0.0538  0.3335  0.5210
 7023TIP3    H121033   0.182   5.460   5.070  0.3124 -0.0222  0.1655
 7023TIP3    H221034   0.116   5.375   4.963  0.9541  0.9439 -1.0255
 7024TIP3   OH221035   0.385   5.470   2.429 -0.2038 -0.1377 -0.2439
 7024TIP3    H121036   0.348   5.552   2.462  0.4020 -0.6485  1.8421
 7024TIP3    H221037   0.309   5.413   2.417 -0.6462  0.7478 -1.8740
 7025TIP3   OH221038   6.835   0.868   2.380  0.2793  0.7339 -0.6167
 7025TIP3    H121039   6.797   0.919   2.453  0.7312 -0.3029  0.3742
 7025TIP3    H221040   6.761   0.850   2.323 -0.4091  0.2149  0.4068
 7026TIP3   OH221041   1.528   5.939   1.930  0.0461  0.2799 -0.2456
 7026TIP3    H121042   1.549   5.852   1.963  0.8309  0.8574  0.8154
 7026TIP3    H221043   1.462   5.973   1.991 -0.6657  0.2381 -0.9660
 7027TIP3   OH221044   6.347   4.700   5.037  0.3797  0.0936  0.3444
 7027TIP3    H121045   6.253   4.685   5.049  0.4823 -2.8669 -1.3614
 7027TIP3    H221046   6.389   4.640   5.099  1.1127  0.3388  0.0942
 7028TIP3   OH221047   3.937   0.566   0.548  0.3657 -0.1140  0.2678
 7028TIP3    H121048   3.856   0.609   0.520  0.2058 -1.1399 -0.9442
 7028TIP3    H221049   3.939   0.578   0.643 -1.6197 -0.7292  0.4407
 7029TIP3   OH221050   6.807   4.240   5.593  0.2232  0.6662  0.2546
 7029TIP3    H121051   6.834   4.210   5.680  0.6462 -0.3172 -0.1972
 7029TIP3    H221052   6.831   4.169   5.534 -2.2959  0.2297 -0.3719
 7030TIP3   OH221053   1.365   2.444   3.376  0.0934 -0.1334 -0.0986
 7030TIP3    H121054   1.446   2.447   3.426 -0.5241  0.1942  0.9077
 7030TIP3    H221055   1.308   2.508   3.419 -1.1007 -1.1983 -0.0580
 7031TIP3   OH221056   2.298   5.010   0.538  0.3251 -0.4626 -0.7564
 7031TIP3    H121057   2.212   5.023   0.580  0.0405 -0.9125 -1.2038
 7031TIP3    H221058   2.339   4.940   0.589 -0.0602 -1.0764 -1.2865
 7032TIP3   OH221059   5.966   3.367   4.048 -0.1706  0.0290 -0.0672
 7032TIP3    H121060   6.033   3.410   4.101  2.6883 -0.7077 -2.8351
 7032TIP3    H221061   5.921   3.439   4.004 -0.4489  0.4741  0.9115
 7033TIP3   OH221062   0.112   2.230   4.393 -0.0059  0.0854 -0.6900
 7033TIP3    H121063   0.155   2.285   4.459  1.6782  0.2033 -1.8242
 7033TIP3    H221064   0.024   2.217   4.427  0.7477  0.2797  1.5054
 7034TIP3   OH221065   0.162   5.344   0.187 -0.6132 -0.2274 -0.4024
 7034TIP3    H121066   0.088   5.405   0.196 -0.9939 -0.9176  1.6918
 7034TIP3    H221067   0.239   5.401   0.182 -1.1774  0.4783 -1.7953
 7035TIP3   OH221068   4.855   2.464   2.430 -0.0927 -0.0278  0.5261
 7035TIP3    H121069   4.856   2.406   2.354 -2.1424 -1.0872  1.2455
 7035TIP3    H221070   4.948   2.476   2.452  0.8197  2.4389 -3.6089
 7036TIP3   OH221071   1.396   1.741   0.076 -0.4346  0.0957 -0.0923
 7036TIP3    H121072   1.450   1.820   0.074 -0.0168 -0.0811  1.8271
 7036TIP3    H221073   1.434   1.685   0.009  0.7216  0.6443  0.0717
 7037TIP3   OH221074   1.865   4.129   0.511 -0.6689  0.3491  0.0240
 7037TIP3    H121075   1.808   4.084   0.574  0.4329 -0.9062  0.1890
 7037TIP3    H221076   1.826   4.110   0.426 -0.9691  0.2230  0.1871
 7038TIP3   OH221077   0.329   0.588   4.557  0.0595  0.1231 -0.3039
 7038TIP3    H121078   0.313   0.605   4.650 -0.2810 -0.3244 -0.2777
 7038TIP3    H221079   0.386   0.659   4.529  0.4752  0.0475  0.3418
 7039TIP3   OH221080   5.105   0.190   4.744 -0.1672 -0.4761 -0.5801
 7039TIP3    H121081   5.125   0.179   4.837  0.1093 -0.6502 -0.6575
 7039TIP3    H221082   5.173   0.139   4.699 -0.7408 -1.0027 -0.8599
 7040TIP3   OH221083   3.124   4.877   1.511 -0.4989  0.0630  0.6983
 7040TIP3    H121084   3.211   4.898   1.476 -1.7327  2.7495 -1.0761
 7040TIP3    H221085   3.096   4.957   1.555 -1.9578 -0.8757  1.5705
 7041TIP3   OH221086   6.031   1.684   3.503  0.6450  0.1459  0.5400
 7041TIP3    H121087   6.082   1.703   3.425  0.3228 -0.9344  0.0553
 7041TIP3    H221088   6.097   1.671   3.572  1.0131 -0.7573  0.0281
 7042TIP3   OH221089   0.593   1.366   5.223  0.2179  0.7110 -0.3673
 7042TIP3    H121090   0.516   1.373   5.168 -0.0525  0.7225  0.0077
 7042TIP3    H221091   0.600   1.451   5.267  1.0422  1.0768 -1.1736
 7043TIP3   OH221092   2.717   5.612   2.557  0.2495  0.2032  0.1502
 7043TIP3    H121093   2.653   5.652   2.499  0.1820 -2.9098 -2.1630
 7043TIP3    H221094   2.666   5.580   2.632 -0.2386  1.0650  0.1972
 7044TIP3   OH221095   4.232   4.305   3.670 -0.6487  0.2318 -0.2774
 7044TIP3    H121096   4.184   4.314   3.588 -0.6193 -0.8291 -0.4272
 7044TIP3    H221097   4.172   4.258   3.728  0.6503 -2.5092 -0.9532
 7045TIP3   OH221098   2.630   0.016   5.769 -0.2456  0.3853  0.1011
 7045TIP3    H121099   2.598   0.065   5.845  0.1437  1.0349 -0.1493
 7045TIP3    H221100   2.679   0.080   5.718  2.2119 -0.7184  0.8857
 7046TIP3   OH221101   3.840   1.299   2.982 -0.5951 -0.1118  0.4081
 7046TIP3    H121102   3.815   1.388   3.008  0.9244  0.9352 -1.4414
 7046TIP3    H221103   3.790   1.283   2.902 -0.6705 -0.8452  0.5952
 7047TIP3   OH221104   7.045   3.628   0.133 -0.2223 -0.1586 -0.2936
 7047TIP3    H121105   7.054   3.547   0.183  1.3515 -0.2342 -0.6594
 7047TIP3    H221106   7.056   3.601   0.041 -2.5019  0.0659 -0.7062
 7048TIP3   OH221107   6.320   1.537   1.514 -0.3497  0.6047 -0.2718
 7048TIP3    H121108   6.348   1.481   1.586  0.6885  1.6622  0.1781
 7048TIP3    H221109   6.363   1.621   1.530 -3.1968  2.1487  0.0434
 7049TIP3   OH221110   2.289   0.965   1.625  0.0501  0.2685 -0.8336
 7049TIP3    H121111   2.298   0.870   1.633  1.3169  0.3707 -0.7503
 7049TIP3    H221112   2.290   0.981   1.531  0.5487  0.2464 -0.8351
 7050TIP3   OH221113   4.282   5.994   0.477  0.5991  0.3626 -0.4594
 7050TIP3    H121114   4.276   5.899   0.488 -0.5964  0.4602 -0.1692
 7050TIP3    H221115   4.374   6.010   0.454  1.2482 -0.6858  1.2277
 7051TIP3   OH221116   6.843   1.415   4.593 -0.0795 -1.1633  0.6341
 7051TIP3    H121117   6.872   1.495   4.636  0.9156 -1.3548  0.3318
 7051TIP3    H221118   6.763   1.441   4.547  1.4798  0.3006 -1.4386
 7052TIP3   OH221119   1.422   5.596   2.513 -0.3789 -0.7679  0.1437
 7052TIP3    H121120   1.467   5.534   2.569 -0.8179 -0.9244  0.3244
 7052TIP3    H221121   1.369   5.542   2.454  0.3532 -0.6292 -0.6801
 7053TIP3   OH221122   3.116   2.411   1.866 -0.0946 -0.1281 -0.1296
 7053TIP3    H121123   3.206   2.388   1.890  0.4828 -0.6691 -2.6151
 7053TIP3    H221124   3.085   2.337   1.814 -1.1780  1.0448 -1.2248
 7054TIP3   OH221125   0.206   6.708   1.697 -0.0548  0.2552  1.0073
 7054TIP3    H121126   0.284   6.756   1.670 -1.4437  1.1610 -1.8783
 7054TIP3    H221127   0.151   6.773   1.740 -1.5011  1.2557 -2.0097
 7055TIP3   OH221128   1.500   0.117   4.958 -0.3952 -0.2870 -0.0309
 7055TIP3    H121129   1.421   0.171   4.966 -0.3657 -0.3927  1.0157
 7055TIP3    H221130   1.572   0.180   4.961 -0.4226 -0.1564 -1.3083
 7056TIP3   OH221131   4.422   1.235   3.251  0.5326 -0.0824 -0.0184
 7056TIP3    H121132   4.399   1.224   3.159  0.0315  2.1738 -0.2278
 7056TIP3    H221133   4.472   1.156   3.274 -0.2190 -1.1608 -1.9121
 7057TIP3   OH221134   6.379   4.788   5.439 -0.0050 -0.2870 -0.1467
 7057TIP3    H121135   6.455   4.740   5.471  0.3363 -0.2033 -0.8156
 7057TIP3    H221136   6.415   4.857   5.384 -0.4820  0.7780  0.8250
 7058TIP3   OH221137   0.025   2.678   1.412 -0.5663  0.5261 -0.0285
 7058TIP3    H121138   0.038   2.771   1.431  0.0158  0.4201  0.1230
 7058TIP3    H221139   0.065   2.665   1.326  0.9698  0.0699  0.7049
 7059TIP3   OH221140   4.856   2.489   0.577  0.1713  0.4386  0.1571
 7059TIP3    H121141   4.763   2.485   0.553 -0.0380  1.3012  0.7757
 7059TIP3    H221142   4.859   2.455   0.666  0.3338  1.0616  0.3986
 7060TIP3   OH221143   7.149   4.973   4.439 -0.0273 -0.0712 -0.4614
 7060TIP3    H121144   7.060   4.996   4.413  0.1425  2.0127  0.6048
 7060TIP3    H221145   7.138   4.902   4.502 -1.0604  0.8739  0.4774
 7061TIP3   OH221146   4.872   3.260   4.345 -0.6096 -0.4566 -0.0574
 7061TIP3    H121147   4.843   3.173   4.369 -1.7230  0.4440  2.0863
 7061TIP3    H221148   4.923   3.290   4.420 -0.9916  1.0703 -0.3750
 7062TIP3   OH221149   1.442   4.660   5.635 -0.3085 -0.3504 -0.3119
 7062TIP3    H121150   1.481   4.580   5.598 -0.6152 -0.7321  0.1779
 7062TIP3    H221151   1.518   4.712   5.663 -0.1166 -1.5797  1.6694
 7063TIP3   OH221152   6.975   6.691   5.565 -0.4675 -0.2984 -0.7626
 7063TIP3    H121153   7.038   6.650   5.624 -0.4175 -0.5854 -1.0144
 7063TIP3    H221154   6.922   6.747   5.621  0.0144 -0.0473 -0.5471
 7064TIP3   OH221155   1.207   5.878   5.447  1.1536  0.2017 -0.3285
 7064TIP3    H121156   1.297   5.898   5.423  1.1419 -0.2725 -0.7781
 7064TIP3    H221157   1.213   5.830   5.529  1.1315  2.9960  1.4599
 7065TIP3   OH221158   4.131   4.458   0.711  0.1876 -0.1753  0.5746
 7065TIP3    H121159   4.072   4.499   0.648 -0.9338 -2.9867 -0.3076
 7065TIP3    H221160   4.088   4.470   0.796 -0.0369  0.5461  0.3643
 7066TIP3   OH221161   4.876   5.030   4.430  0.0104  0.3088 -0.1228
 7066TIP3    H121162   4.795   4.982   4.416 -1.3430  2.7370 -1.3336
 7066TIP3    H221163   4.944   4.975   4.393 -1.4443 -0.6485 -1.4723
 7067TIP3   OH221164   4.201   3.992   4.887  0.2331  0.2380  0.1288
 7067TIP3    H121165   4.224   4.028   4.973  0.3997 -1.1952  0.7180
 7067TIP3    H221166   4.248   4.047   4.825 -2.9737  3.8835  0.5832
 7068TIP3   OH221167   1.959   6.075   3.378  0.3885 -0.0611  0.2854
 7068TIP3    H121168   1.924   6.008   3.320 -1.4694 -1.9960  3.3535
 7068TIP3    H221169   2.034   6.033   3.420  0.6333  0.6458  0.5699
 7069TIP3   OH221170   0.098   4.533   1.360  0.3068 -0.4229 -0.0390
 7069TIP3    H121171   0.039   4.607   1.372  1.5894  0.6306  0.0630
 7069TIP3    H221172   0.094   4.484   1.442  0.6093  0.4252  0.4896
 7070TIP3   OH221173   2.353   3.428   2.821 -0.2523 -0.0121  0.1198
 7070TIP3    H121174   2.347   3.393   2.732  3.5198 -0.8159 -0.0047
 7070TIP3    H221175   2.387   3.356   2.873  2.5374  1.7879  1.0184
 7071TIP3   OH221176   2.023   1.640   5.027  0.1115  0.4398 -0.2715
 7071TIP3    H121177   2.046   1.565   4.972 -0.1763  0.4320 -0.3790
 7071TIP3    H221178   1.938   1.617   5.064 -0.1646  0.8930 -0.6204
 7072TIP3   OH221179   3.273   4.058   5.117 -0.1814  0.6710  0.2342
 7072TIP3    H121180   3.343   4.018   5.065  0.3534  2.3968 -0.4201
 7072TIP3    H221181   3.278   4.151   5.097 -0.8572  1.2125  2.3393
 7073TIP3   OH221182   5.138   0.922   3.892  0.1448 -0.7229  0.5298
 7073TIP3    H121183   5.078   0.925   3.967 -0.2646  1.9829  0.2102
 7073TIP3    H221184   5.225   0.920   3.931 -0.0798 -0.0391  1.0921
 7074TIP3   OH221185   6.174   0.426   0.375 -0.3155  0.4107 -0.6416
 7074TIP3    H121186   6.217   0.381   0.302  0.3663  0.4549 -0.2725
 7074TIP3    H221187   6.163   0.516   0.344 -0.9899  0.1840 -1.0880
 7075TIP3   OH221188   5.070   4.783   1.600 -0.0275  0.2895 -0.0091
 7075TIP3    H121189   5.096   4.782   1.508 -1.0327 -0.8114 -0.3127
 7075TIP3    H221190   5.051   4.691   1.620 -1.2146  0.7028  0.8666
 7076TIP3   OH221191   6.369   5.636   1.565 -0.5205  0.2207 -0.1875
 7076TIP3    H121192   6.416   5.606   1.643 -1.7060  0.9635  0.8556
 7076TIP3    H221193   6.311   5.705   1.597 -1.6318 -0.0185 -1.5886
 7077TIP3   OH221194   3.565   2.178   1.435  0.4325  0.3974 -0.5983
 7077TIP3    H121195   3.658   2.156   1.431  0.1667 -0.9072 -0.1460
 7077TIP3    H221196   3.539   2.159   1.525 -0.6649 -1.0385 -1.1734
 7078TIP3   OH221197   5.844   3.819   5.071 -0.2260  0.0274 -0.0728
 7078TIP3    H121198   5.935   3.790   5.077  0.2187  1.5085  0.6176
 7078TIP3    H221199   5.834   3.847   4.980  0.0712  0.0735 -0.0912
 7079TIP3   OH221200   1.777   4.637   1.373  0.3240  0.2337  0.0185
 7079TIP3    H121201   1.738   4.725   1.367  1.6553  0.9454  1.0808
 7079TIP3    H221202   1.704   4.580   1.397 -0.0119  1.6290  2.7362
 7080TIP3   OH221203   4.602   5.208   4.465  0.6165  0.4377  0.0478
 7080TIP3    H121204   4.687   5.185   4.428  0.8302 -0.2438  0.9122
 7080TIP3    H221205   4.556   5.254   4.395  1.6593  0.7160 -0.4626
 7081TIP3   OH221206   1.172   4.804   4.268  0.0565 -0.2109  0.2289
 7081TIP3    H121207   1.236   4.868   4.237  1.4773 -1.1549  1.1032
 7081TIP3    H221208   1.088   4.836   4.234  0.7754  1.8082  0.1979
 7082TIP3   OH221209   3.645   0.859   2.822  0.3501 -0.5458 -0.0678
 7082TIP3    H121210   3.733   0.838   2.854  1.0353  1.8477 -0.1198
 7082TIP3    H221211   3.655   0.870   2.728  0.4892  1.4809  0.1199
 7083TIP3   OH221212   3.931   6.087   1.873  0.4495 -0.4889 -0.1781
 7083TIP3    H121213   3.998   6.018   1.880  1.4268  0.3934 -0.4991
 7083TIP3    H221214   3.927   6.125   1.961 -0.5844 -1.3732  0.1794
 7084TIP3   OH221215   4.919   2.348   2.909  0.2298  0.1510  0.1583
 7084TIP3    H121216   4.859   2.315   2.976  0.8301 -0.4668  0.4003
 7084TIP3    H221217   4.987   2.394   2.958  0.2482  0.3881 -0.0846
 7085TIP3   OH221218   0.363   6.234   0.205 -0.6471 -0.1790  0.1418
 7085TIP3    H121219   0.337   6.208   0.293 -0.1299 -0.1217  0.3130
 7085TIP3    H221220   0.282   6.227   0.154 -1.6610  2.4248  1.2038
 7086TIP3   OH221221   1.359   2.938   2.164 -0.5387  0.0483 -0.1066
 7086TIP3    H121222   1.371   2.990   2.085  2.3878 -1.4870 -0.8177
 7086TIP3    H221223   1.338   2.850   2.132  0.0737 -0.4545  0.8282
 7087TIP3   OH221224   4.126   6.446   2.319  0.4487  0.1405 -0.1196
 7087TIP3    H121225   4.165   6.362   2.295 -1.3458 -0.6232 -0.5316
 7087TIP3    H221226   4.084   6.429   2.404  1.3885  1.0776  0.5598
 7088TIP3   OH221227   1.666   5.817   0.175 -0.3271  0.1099 -0.3572
 7088TIP3    H121228   1.571   5.819   0.179 -0.4654 -2.0501 -1.4830
 7088TIP3    H221229   1.686   5.759   0.101  1.8620 -0.1313  0.3567
 7089TIP3   OH221230   0.895   1.639   4.239 -0.7718  0.4834 -0.2378
 7089TIP3    H121231   0.886   1.610   4.148  1.7546 -0.0231 -0.3948
 7089TIP3    H221232   0.923   1.730   4.232  1.4934 -0.1510 -0.0945
 7090TIP3   OH221233   0.428   1.666   3.864 -1.0503  0.3095 -0.5105
 7090TIP3    H121234   0.419   1.678   3.770 -1.3360  1.4340 -0.3492
 7090TIP3    H221235   0.357   1.717   3.902 -0.3401  0.6854  0.3523
 7091TIP3   OH221236   0.477   2.968   3.844  0.0824 -0.1408 -0.0928
 7091TIP3    H121237   0.570   2.987   3.835 -0.0300  0.4292 -0.0870
 7091TIP3    H221238   0.466   2.881   3.804  0.8354 -0.8025  1.0734
 7092TIP3   OH221239   4.685   5.973   1.777  0.2500  0.1659 -0.0007
 7092TIP3    H121240   4.680   5.911   1.850  0.2739 -1.0188 -0.9881
 7092TIP3    H221241   4.771   5.958   1.738 -0.2605 -0.1021 -1.0450
 7093TIP3   OH221242   5.476   0.218   1.414 -0.0348  0.3572  0.7661
 7093TIP3    H121243   5.474   0.287   1.480 -0.0421 -0.1948  1.3420
 7093TIP3    H221244   5.476   0.136   1.463  1.2176 -0.0546  0.1092
 7094TIP3   OH221245   7.041   5.696   0.599  0.3598  0.3464  0.7294
 7094TIP3    H121246   6.996   5.780   0.604  1.6545  1.1458 -0.3126
 7094TIP3    H221247   6.971   5.632   0.586 -0.5744  1.3837  0.4766
 7095TIP3   OH221248   0.303   4.844   3.837 -0.7058 -0.1797  0.0108
 7095TIP3    H121249   0.327   4.853   3.745  0.4603  1.8961  0.4601
 7095TIP3    H221250   0.301   4.749   3.852  2.1029 -0.5721 -1.4123
 7096TIP3   OH221251   6.710   2.775   2.342 -0.3216 -0.6443 -0.1941
 7096TIP3    H121252   6.761   2.790   2.262 -0.2343 -2.0167 -0.4112
 7096TIP3    H221253   6.728   2.853   2.395 -0.7990  0.5506 -1.6933
 7097TIP3   OH221254   5.548   3.205   3.192  0.3070 -0.1449  0.4054
 7097TIP3    H121255   5.569   3.284   3.243 -0.1074 -0.5979  1.3017
 7097TIP3    H221256   5.515   3.239   3.109  1.6698  0.6083  0.1265
 7098TIP3   OH221257   2.975   2.588   0.590  0.1290 -0.0388 -0.2901
 7098TIP3    H121258   2.911   2.519   0.576  1.2748 -1.1103 -0.3961
 7098TIP3    H221259   2.926   2.669   0.576 -0.9725 -0.8452 -1.3100
 7099TIP3   OH221260   2.629   3.372   0.386 -0.2430 -0.0339 -0.0400
 7099TIP3    H121261   2.656   3.462   0.367 -0.6668 -0.0905 -0.9747
 7099TIP3    H221262   2.537   3.380   0.412 -0.2954 -0.1943 -0.1725
 7100TIP3   OH221263   0.630   5.889   1.580  0.2117  0.3034 -0.2643
 7100TIP3    H121264   0.573   5.954   1.540  0.1417  1.2333  1.2529
 7100TIP3    H221265   0.670   5.843   1.506 -1.7315  0.2803 -1.3593
 7101TIP3   OH221266   2.142   6.216   3.893  0.1637  0.6740 -0.6413
 7101TIP3    H121267   2.090   6.172   3.825  2.0147 -0.9448 -1.1270
 7101TIP3    H221268   2.146   6.153   3.965  0.1985  1.3977 -0.0001
 7102TIP3   OH221269   6.450   2.628   0.272  0.0136 -0.2179  0.6355
 7102TIP3    H121270   6.412   2.700   0.322  0.8455  0.4186  0.3565
 7102TIP3    H221271   6.536   2.613   0.311 -0.8671 -2.3589  1.9493
 7103TIP3   OH221272   6.811   1.914   2.322  0.7127 -0.6359  0.2473
 7103TIP3    H121273   6.758   1.984   2.284  0.2948 -0.4316  1.1739
 7103TIP3    H221274   6.768   1.833   2.292 -0.4094 -0.4757  1.3197
 7104TIP3   OH221275  -0.004   4.623   0.622  0.6734 -0.0343  0.1432
 7104TIP3    H121276  -0.026   4.548   0.568  1.6111 -1.1112  1.1912
 7104TIP3    H221277   0.061   4.590   0.684  2.6377  2.1117 -0.6011
 7105TIP3   OH221278   2.180   5.499   3.868  0.3399 -0.0711 -0.3664
 7105TIP3    H121279   2.226   5.526   3.947  1.3803  2.5903 -1.7676
 7105TIP3    H221280   2.088   5.522   3.885  0.5449  0.4278  0.0730
 7106TIP3   OH221281   5.157   5.611   4.330  0.1902  0.2604 -0.8203
 7106TIP3    H121282   5.208   5.685   4.297  0.9058  0.4437  0.6248
 7106TIP3    H221283   5.222   5.550   4.365 -0.5241  0.5622  1.1908
 7107TIP3   OH221284   0.627   1.383   1.565  0.0731 -0.4746 -0.1849
 7107TIP3    H121285   0.579   1.455   1.523 -2.3061 -1.5898  0.4430
 7107TIP3    H221286   0.650   1.325   1.493 -1.5310 -0.9930 -0.3390
 7108TIP3   OH221287   3.845   5.122   5.364 -0.3368 -0.2051 -0.1915
 7108TIP3    H121288   3.938   5.119   5.386 -0.3709 -2.2796 -0.1032
 7108TIP3    H221289   3.843   5.119   5.269 -0.3107 -0.6928 -0.1788
 7109TIP3   OH221290   3.103   0.849   5.799 -0.5308 -0.4676 -0.6856
 7109TIP3    H121291   3.052   0.806   5.731 -1.6551 -0.3167  0.0279
 7109TIP3    H221292   3.070   0.812   5.881 -0.5008  0.6579 -0.1333
 7110TIP3   OH221293   5.521   5.438   1.127 -0.2335  0.5538 -0.3746
 7110TIP3    H121294   5.513   5.482   1.043  0.4176  1.7740  0.1787
 7110TIP3    H221295   5.592   5.374   1.114 -1.6158 -0.8557 -1.3684
 7111TIP3   OH221296   0.686   3.822   1.657  0.2055  0.3162 -0.2383
 7111TIP3    H121297   0.700   3.759   1.586 -0.9917  0.1604 -0.3610
 7111TIP3    H221298   0.611   3.875   1.628 -1.2823 -0.7059  1.5091
 7112TIP3   OH221299   7.173   4.204   5.219  0.0889  0.1303  0.0962
 7112TIP3    H121300   7.188   4.297   5.235 -0.3067  0.2085  0.0196
 7112TIP3    H221301   7.151   4.168   5.305  0.4809  0.0602  0.1683
 7113TIP3   OH221302   0.437   5.179   5.021  0.6370 -0.0078  0.2382
 7113TIP3    H121303   0.474   5.092   5.040  1.4773  0.6408  1.7744
 7113TIP3    H221304   0.476   5.236   5.087 -1.1805  1.2343  0.3156
 7114TIP3   OH221305   1.608   3.186   3.694  0.3968  0.1906  0.3568
 7114TIP3    H121306   1.575   3.201   3.783  0.2562  0.3756  0.2740
 7114TIP3    H221307   1.695   3.227   3.693  0.2131  0.5789  0.2758
 7115TIP3   OH221308   3.375   4.502   5.439 -0.1622 -0.2324 -0.5031
 7115TIP3    H121309   3.420   4.421   5.414  0.4619 -0.1108  0.2147
 7115TIP3    H221310   3.282   4.480   5.430 -0.0064 -0.1344 -3.0984
 7116TIP3   OH221311   5.040   1.779   2.729  0.2219 -0.2470  0.3305
 7116TIP3    H121312   4.990   1.733   2.796  0.6467 -2.1982 -0.5960
 7116TIP3    H221313   5.039   1.719   2.654  0.6734  1.3779 -1.0292
 7117TIP3   OH221314   5.517   2.990   0.528  0.0867 -0.2572 -0.5473
 7117TIP3    H121315   5.509   3.062   0.590  0.0436 -0.4022 -0.3812
 7117TIP3    H221316   5.443   2.933   0.549  1.1815 -1.3169  0.5928
 7118TIP3   OH221317   3.929   6.070   1.361 -0.4299  0.0153 -0.1041
 7118TIP3    H121318   3.933   6.055   1.266  0.0523 -2.6527  0.2419
 7118TIP3    H221319   3.840   6.044   1.385 -0.3898  0.1901  0.2299
 7119TIP3   OH221320   6.619   6.164   2.482 -0.2439  0.0213  0.2489
 7119TIP3    H121321   6.533   6.205   2.495  0.8240  2.2726  0.7361
 7119TIP3    H221322   6.673   6.196   2.554  1.7089  0.7929 -1.4419
 7120TIP3   OH221323   1.788   2.129   2.097  0.7166  0.3734 -0.3416
 7120TIP3    H121324   1.764   2.136   2.005  1.2580 -0.3617 -0.5486
 7120TIP3    H221325   1.881   2.154   2.099  0.6083  0.7508  0.0626
 7121TIP3   OH221326   5.792   4.104   5.230  0.2835 -0.4372  0.2562
 7121TIP3    H121327   5.700   4.091   5.206 -0.2077  0.3408  1.5851
 7121TIP3    H221328   5.814   4.190   5.193  0.7988 -1.0559 -0.9140
 7122TIP3   OH221329   1.102   4.460   5.213 -0.1818  0.6054 -0.2416
 7122TIP3    H121330   1.109   4.523   5.141  2.6047  0.2514 -0.3814
 7122TIP3    H221331   1.139   4.506   5.288 -4.7652  1.7089  1.6861
 7123TIP3   OH221332   0.531   4.275   0.943  0.0423  0.3343  0.2196
 7123TIP3    H121333   0.503   4.289   1.034  1.1229 -1.4725  0.8770
 7123TIP3    H221334   0.455   4.301   0.890 -1.0330  0.2912  1.6873
 7124TIP3   OH221335   7.025   6.708   0.788 -0.1510 -0.0138 -0.0959
 7124TIP3    H121336   7.030   6.758   0.706  2.8934  0.0020 -0.0314
 7124TIP3    H221337   7.062   6.622   0.766 -3.3186 -1.6456  0.3220
 7125TIP3   OH221338   4.049   1.717  -0.003  0.1170  0.2165 -0.0309
 7125TIP3    H121339   3.994   1.727   0.074  0.6775 -0.3534  0.4567
 7125TIP3    H221340   4.121   1.779   0.010 -0.1153  0.5774 -0.4118
 7126TIP3   OH221341   6.409   2.789   1.425 -0.2083  0.1990 -0.2723
 7126TIP3    H121342   6.332   2.799   1.481  0.0864  1.4400 -0.0508
 7126TIP3    H221343   6.378   2.736   1.351 -0.2053 -2.8577  1.7490
 7127TIP3   OH221344   4.675   0.593   0.805 -0.4898 -0.4113  0.0477
 7127TIP3    H121345   4.712   0.518   0.851  0.6279  0.4807  0.6698
 7127TIP3    H221346   4.742   0.662   0.814 -2.2821  1.2979  1.2107
 7128TIP3   OH221347   1.998   1.857   3.357  0.2411 -0.0823  0.1015
 7128TIP3    H121348   1.934   1.861   3.286 -0.0665  0.9292  0.4102
 7128TIP3    H221349   1.955   1.901   3.430  1.6180  1.5037  0.0251
 7129TIP3   OH221350   0.721   1.002   5.614 -1.1884  0.4235  0.0741
 7129TIP3    H121351   0.733   0.938   5.685  0.4059 -0.2416 -0.7464
 7129TIP3    H221352   0.692   0.950   5.539  0.6471  0.5182 -0.7570
 7130TIP3   OH221353   5.850   0.103   1.656 -0.0013 -0.3168 -0.3394
 7130TIP3    H121354   5.864   0.048   1.579 -0.3237 -1.4172  0.3579
 7130TIP3    H221355   5.919   0.077   1.717 -1.2451 -1.3237  0.7109
 7131TIP3   OH221356   6.609   2.316   3.237  0.6712  0.2701  0.6844
 7131TIP3    H121357   6.683   2.351   3.188 -0.5767 -0.1114 -1.5956
 7131TIP3    H221358   6.532   2.336   3.183 -0.9228  0.5140  2.8662
 7132TIP3   OH221359   1.832   1.797   3.105 -0.0489  0.0410  0.1274
 7132TIP3    H121360   1.832   1.761   3.016  1.9850 -0.3400  0.2295
 7132TIP3    H221361   1.780   1.877   3.099  0.0929  0.0475 -1.4266
 7133TIP3   OH221362   2.748   0.556   3.630 -0.2185 -0.1686 -0.5664
 7133TIP3    H121363   2.804   0.489   3.669 -0.0403 -0.1831 -0.8444
 7133TIP3    H221364   2.795   0.584   3.552  1.1054  2.2856  0.9778
 7134TIP3   OH221365   4.719   4.287   5.424 -0.2630  0.4380 -0.5630
 7134TIP3    H121366   4.706   4.256   5.334  0.8538  0.9366 -0.9125
 7134TIP3    H221367   4.809   4.319   5.425 -0.5814  1.3401  0.4788
 7135TIP3   OH221368   4.710   6.147   2.879  0.1096 -0.1357  0.0681
 7135TIP3    H121369   4.619   6.135   2.904  0.4689  0.2132  1.6751
 7135TIP3    H221370   4.751   6.061   2.896 -0.0202 -0.4660 -1.2067
 7136TIP3   OH221371   6.346   3.065   0.858  0.0890 -0.4073  0.1689
 7136TIP3    H121372   6.441   3.056   0.863  0.1088  0.0854  0.8555
 7136TIP3    H221373   6.313   3.023   0.938 -0.3172 -1.1005 -0.3488
 7137TIP3   OH221374   6.618   6.429   0.677  0.0157 -0.6142 -0.0362
 7137TIP3    H121375   6.564   6.354   0.651 -0.9527  0.1442 -0.2869
 7137TIP3    H221376   6.634   6.476   0.596  0.3095 -0.3491  0.1733
 7138TIP3   OH221377   3.233   3.928   0.745  0.0118 -0.1045  0.2529
 7138TIP3    H121378   3.211   3.840   0.715  0.4561 -0.3964  0.7504
 7138TIP3    H221379   3.279   3.913   0.828  0.2785  0.5851  0.2304
 7139TIP3   OH221380   3.131   1.231   4.990 -0.2240  0.4808  0.0782
 7139TIP3    H121381   3.098   1.296   4.928 -1.9293  0.5880  1.0335
 7139TIP3    H221382   3.201   1.277   5.038 -0.2662  1.0449 -0.3883
 7140TIP3   OH221383   3.903   2.569   4.204 -0.5133 -0.2650 -0.2953
 7140TIP3    H121384   3.853   2.564   4.122  0.9767 -0.4985 -1.2196
 7140TIP3    H221385   3.857   2.635   4.255 -0.1709  1.6206 -2.2718
 7141TIP3   OH221386   3.284   4.728   2.512 -0.2734  0.2694  0.5591
 7141TIP3    H121387   3.234   4.760   2.587 -0.9053  2.4428 -0.7088
 7141TIP3    H221388   3.252   4.639   2.498 -0.8485  0.1830  2.2461
 7142TIP3   OH221389   1.341   6.767   1.494 -0.2277 -0.2288  0.2605
 7142TIP3    H121390   1.362   6.762   1.401  0.2559  1.1292  0.2810
 7142TIP3    H221391   1.357   6.678   1.527  0.8065 -0.4216 -0.7053
 7143TIP3   OH221392   4.782   4.047   3.580 -0.4068 -0.3706  0.1979
 7143TIP3    H121393   4.795   4.141   3.568 -0.7234 -0.4637 -0.9646
 7143TIP3    H221394   4.781   4.035   3.675  0.9954  0.6083  0.3645
 7144TIP3   OH221395   5.093   6.469   5.709  0.7511 -0.2783 -0.1874
 7144TIP3    H121396   5.162   6.512   5.659 -0.1866  0.8601 -0.5580
 7144TIP3    H221397   5.078   6.527   5.783 -1.9822  1.2375 -1.7874
 7145TIP3   OH221398   3.567   4.737   0.335 -0.0508  0.6438 -0.1727
 7145TIP3    H121399   3.478   4.770   0.347 -0.6468 -0.8997 -0.1259
 7145TIP3    H221400   3.556   4.652   0.292  1.4845  1.0991 -1.5885
 7146TIP3   OH221401   1.948   3.418   2.441  0.1302 -0.2714  0.2000
 7146TIP3    H121402   1.861   3.393   2.410  0.1691 -1.5572  1.0534
 7146TIP3    H221403   1.942   3.513   2.455 -0.8032 -0.1746 -0.7507
 7147TIP3   OH221404   4.708   0.250   2.759 -0.3166 -0.4071 -0.0813
 7147TIP3    H121405   4.657   0.234   2.680  0.2841 -1.5600 -0.2456
 7147TIP3    H221406   4.791   0.205   2.744  0.0762 -0.0424  0.9192
 7148TIP3   OH221407   5.390   0.984   0.090  0.2721 -0.4211  0.2831
 7148TIP3    H121408   5.364   1.037   0.166 -1.1944  0.4161 -0.7502
 7148TIP3    H221409   5.408   0.897   0.126 -0.1962  0.0076  1.6029
 7149TIP3   OH221410   6.591   0.079   0.098  0.5775 -0.3358  0.0908
 7149TIP3    H121411   6.562   0.068   0.007  0.5407 -1.3768  0.2149
 7149TIP3    H221412   6.514   0.055   0.150  0.0995  1.6784  0.4298
 7150TIP3   OH221413   6.789   1.573  -0.019  0.2735  0.3509 -0.1092
 7150TIP3    H121414   6.723   1.636  -0.047  0.1299  0.7890  1.1523
 7150TIP3    H221415   6.789   1.579   0.077  1.9515  0.1858 -0.0584
 7151TIP3   OH221416   0.074   1.601   4.618 -0.2286  0.0224  0.1653
 7151TIP3    H121417   0.023   1.524   4.593  0.8778 -0.0995 -1.9057
 7151TIP3    H221418   0.012   1.673   4.614 -0.2522 -0.0346 -2.8559
 7152TIP3   OH221419   2.786   3.513   2.624 -0.4828 -0.1294 -0.0970
 7152TIP3    H121420   2.782   3.468   2.539 -0.1876 -1.4523  0.5626
 7152TIP3    H221421   2.728   3.588   2.614 -0.9573 -0.6229 -1.2636
 7153TIP3   OH221422   1.437   4.990   3.233  0.1037  0.0969 -0.2379
 7153TIP3    H121423   1.418   5.021   3.322  0.1654 -0.3021 -0.0812
 7153TIP3    H221424   1.532   4.993   3.226  0.0492  1.1760 -0.6842
 7154TIP3   OH221425   4.384   1.767   3.317 -0.8405 -0.1894 -0.0970
 7154TIP3    H121426   4.434   1.687   3.298 -1.6655 -0.6025 -0.5945
 7154TIP3    H221427   4.345   1.751   3.403 -0.9095 -0.2764 -0.1438
 7155TIP3   OH221428   6.705   6.691   2.180 -0.5275 -0.7631  0.4497
 7155TIP3    H121429   6.702   6.741   2.098  0.2449  0.6182  1.2201
 7155TIP3    H221430   6.763   6.617   2.161 -0.2945 -0.4164 -0.2271
 7156TIP3   OH221431   6.177   5.546   1.879  0.1840 -0.1020 -0.1248
 7156TIP3    H121432   6.213   5.520   1.964 -0.2474  1.2468  0.4890
 7156TIP3    H221433   6.221   5.628   1.858  0.1712 -0.3384 -1.1479
 7157TIP3   OH221434   2.479   0.147   1.421 -0.0761 -0.2966  0.1682
 7157TIP3    H121435   2.499   0.054   1.422 -1.8510 -0.7167  1.3188
 7157TIP3    H221436   2.406   0.155   1.359  0.1185  0.3629  0.0114
 7158TIP3   OH221437   1.315   5.079   3.013 -0.0960 -0.0971  0.3971
 7158TIP3    H121438   1.351   5.167   2.999 -0.4803 -0.1918 -1.4333
 7158TIP3    H221439   1.369   5.042   3.083  2.5892  0.2593 -1.3155
 7159TIP3   OH221440   4.410   5.377   2.364 -0.0828  0.4660 -0.6531
 7159TIP3    H121441   4.487   5.324   2.345  0.0303  0.7196 -0.8996
 7159TIP3    H221442   4.433   5.465   2.333 -0.2745  0.6558 -0.2612
 7160TIP3   OH221443   6.232   1.591   3.961 -0.5563  0.0760 -0.3304
 7160TIP3    H121444   6.160   1.575   4.021  0.4609 -1.2058  0.6024
 7160TIP3    H221445   6.286   1.658   4.004  0.9651 -1.8927  0.9653
 7161TIP3   OH221446   6.342   3.449   5.690 -0.6248 -0.0122  0.9173
 7161TIP3    H121447   6.282   3.385   5.650 -0.8226  0.3962  0.5536
 7161TIP3    H221448   6.310   3.534   5.660  0.8079  0.1687 -0.2587
 7162TIP3   OH221449   6.828   1.359   5.705  0.1887  0.5871 -0.2567
 7162TIP3    H121450   6.835   1.285   5.764  0.8257  0.1589 -0.8536
 7162TIP3    H221451   6.782   1.427   5.755  1.4162  0.5216  0.9807
 7163TIP3   OH221452   2.419   5.069   5.566  0.3962 -0.0828  0.0271
 7163TIP3    H121453   2.389   5.047   5.477 -0.5902  1.0833  0.0552
 7163TIP3    H221454   2.344   5.049   5.622  0.6228  0.2749  0.4612
 7164TIP3   OH221455   1.191   5.718   3.813 -0.7390  0.0294  0.0845
 7164TIP3    H121456   1.128   5.646   3.822 -0.5513  0.0056  1.5194
 7164TIP3    H221457   1.221   5.735   3.903  1.8739 -0.4586 -0.6098
 7165TIP3   OH221458   3.290   0.036   4.363  0.0453 -1.2143  0.3602
 7165TIP3    H121459   3.305  -0.048   4.407  1.1346 -1.8002 -1.0405
 7165TIP3    H221460   3.198   0.055   4.379  0.4009 -1.3137  2.9687
 7166TIP3   OH221461   3.551   4.960   2.044  0.1063 -0.4105  0.3449
 7166TIP3    H121462   3.478   4.904   2.019 -0.1179 -0.2071  0.5455
 7166TIP3    H221463   3.625   4.926   1.994 -0.2087 -0.3666 -0.1535
 7167TIP3   OH221464   6.082   3.704   2.168 -0.1991  0.6427  0.2121
 7167TIP3    H121465   6.175   3.695   2.189 -0.5701 -2.2488  0.9558
 7167TIP3    H221466   6.036   3.671   2.246 -1.7522 -1.7798 -1.6080
 7168TIP3   OH221467   2.057   1.294   2.764 -0.0204 -0.0075  0.5626
 7168TIP3    H121468   2.101   1.279   2.848 -2.2838 -0.4096  1.7763
 7168TIP3    H221469   2.048   1.207   2.726  0.3142  0.0808  0.2845
 7169TIP3   OH221470   0.304   5.969   4.964 -0.2747  0.0089 -0.4478
 7169TIP3    H121471   0.300   5.884   4.921  1.6600  0.0817 -0.8245
 7169TIP3    H221472   0.390   5.971   5.005 -1.1463  0.9053  1.4573
 7170TIP3   OH221473   4.108   0.276   0.823  0.2450 -0.5415 -0.6681
 7170TIP3    H121474   4.175   0.342   0.805  1.5909 -1.8871 -0.7792
 7170TIP3    H221475   4.083   0.242   0.737 -0.0321 -0.5542 -0.5822
 7171TIP3   OH221476   0.404   2.758   1.403  0.1664  0.0869 -0.0719
 7171TIP3    H121477   0.421   2.761   1.497  3.6991  1.7581 -0.5894
 7171TIP3    H221478   0.348   2.834   1.387 -0.4805 -0.2210  0.6497
 7172TIP3   OH221479   5.544   0.749   1.431 -0.1446  0.0929  0.3582
 7172TIP3    H121480   5.528   0.698   1.352  0.8254 -1.5154  1.1572
 7172TIP3    H221481   5.634   0.780   1.422  0.0986 -0.4067  0.9768
 7173TIP3   OH221482   6.708   0.705   4.142 -0.2116  1.0780  0.0939
 7173TIP3    H121483   6.762   0.651   4.200 -0.7242  1.5843  1.0570
 7173TIP3    H221484   6.697   0.788   4.188 -1.2249  1.2369 -0.3943
 7174TIP3   OH221485   4.467   6.176   2.978  0.0989 -0.2395  0.7664
 7174TIP3    H121486   4.390   6.128   2.947 -1.0663  1.4998  0.8173
 7174TIP3    H221487   4.457   6.180   3.073  1.3149 -1.6647  0.9997
 7175TIP3   OH221488   1.707   0.449   4.314  0.5693  0.5271 -0.3408
 7175TIP3    H121489   1.760   0.529   4.310  0.5626  0.5042 -0.9359
 7175TIP3    H221490   1.705   0.416   4.224  2.0792 -1.1206  0.1588
 7176TIP3   OH221491   3.612   5.825   4.198 -0.1742 -0.0165 -0.2179
 7176TIP3    H121492   3.588   5.737   4.226 -0.5797 -0.1078 -0.8243
 7176TIP3    H221493   3.652   5.812   4.112  0.6903  0.2931  0.1291
 7177TIP3   OH221494   7.108   6.423   1.920 -0.0670  0.0699  0.0762
 7177TIP3    H121495   7.169   6.492   1.945 -0.0636 -0.2752  1.0936
 7177TIP3    H221496   7.133   6.399   1.831  2.1220 -0.9127  0.8780
 7178TIP3   OH221497   4.365   3.997   4.608 -0.0843  0.2404  0.1159
 7178TIP3    H121498   4.320   4.023   4.528  1.3718  0.3243 -0.7184
 7178TIP3    H221499   4.458   3.997   4.584  0.2510 -1.8241  1.1920
 7179TIP3   OH221500   5.331   6.158   3.083 -0.4994 -0.0129 -0.0312
 7179TIP3    H121501   5.411   6.147   3.032 -0.8008 -1.2672 -0.2801
 7179TIP3    H221502   5.293   6.070   3.088 -1.2175  0.3294  1.1515
 7180TIP3   OH221503   0.795   5.465   4.165  0.2048 -0.1271 -0.1084
 7180TIP3    H121504   0.855   5.395   4.191  0.6296  0.2229 -0.1404
 7180TIP3    H221505   0.711   5.421   4.152  0.1238 -0.4216  1.2349
 7181TIP3   OH221506   5.810   2.838   5.100 -0.2291 -0.1606 -0.0639
 7181TIP3    H121507   5.904   2.821   5.112 -0.4607 -0.6042  1.4276
 7181TIP3    H221508   5.771   2.750   5.097 -0.6339  0.0279 -0.3505
 7182TIP3   OH221509   1.293   2.227   3.218 -0.6925  0.1758 -0.3713
 7182TIP3    H121510   1.363   2.182   3.266 -0.8457 -1.3455 -1.5187
 7182TIP3    H221511   1.288   2.313   3.260  0.1464 -0.5664  1.3841
 7183TIP3   OH221512   3.961   4.123   4.631 -0.0356  0.3200 -0.2469
 7183TIP3    H121513   3.989   4.215   4.631  1.0119  0.0223  0.9827
 7183TIP3    H221514   3.886   4.122   4.571  0.5736  1.7687 -1.1132
 7184TIP3   OH221515   1.575   3.006   1.664  0.3113  0.1042  0.4445
 7184TIP3    H121516   1.507   3.052   1.614 -0.4202  0.8493  2.0644
 7184TIP3    H221517   1.527   2.937   1.711  0.4033  1.4527  2.6194
 7185TIP3   OH221518   3.096   3.187   3.145  0.2873  0.0532  1.1161
 7185TIP3    H121519   3.083   3.220   3.057  0.0401  0.2878  1.2408
 7185TIP3    H221520   3.008   3.171   3.179  0.3458  0.7414  1.6148
 7186TIP3   OH221521   5.910   4.114   2.427 -0.0146  0.0262 -1.0504
 7186TIP3    H121522   5.998   4.095   2.395  0.2339  1.0231 -0.9887
 7186TIP3    H221523   5.925   4.159   2.511 -0.5649  0.5248 -1.2153
 7187TIP3   OH221524   0.837   1.591   1.245  0.0195  0.9922 -0.2571
 7187TIP3    H121525   0.784   1.670   1.236 -0.1758  0.9176  0.1880
 7187TIP3    H221526   0.903   1.613   1.310  0.2950  0.9589 -0.5237
 7188TIP3   OH221527   1.437   1.270   4.781 -0.1471  0.4474 -0.0729
 7188TIP3    H121528   1.384   1.219   4.842  0.2997  0.9840  0.7855
 7188TIP3    H221529   1.443   1.357   4.821 -0.0233  0.8771 -0.9890
 7189TIP3   OH221530   0.123   1.918   1.586  0.7845  0.3246 -0.0634
 7189TIP3    H121531   0.039   1.963   1.581  0.3992 -0.3772  0.0405
 7189TIP3    H221532   0.179   1.964   1.523  0.1061  0.3272 -0.6732
 7190TIP3   OH221533   3.569   1.472   4.593  0.5551  0.4115  0.3687
 7190TIP3    H121534   3.608   1.554   4.621  2.6181 -0.3122 -0.1921
 7190TIP3    H221535   3.597   1.408   4.659  0.3069 -0.1374 -0.0394
 7191TIP3   OH221536   3.171   4.753   3.874  0.1713  0.5827  0.2371
 7191TIP3    H121537   3.170   4.741   3.779 -0.9398  0.1426  0.2923
 7191TIP3    H221538   3.164   4.665   3.910 -1.1419  0.8530  0.6970
 7192TIP3   OH221539   6.831   5.325   1.560 -1.1284  0.5009 -0.2033
 7192TIP3    H121540   6.806   5.417   1.548 -2.4248 -0.0546 -2.3974
 7192TIP3    H221541   6.924   5.323   1.538 -1.0423  1.3010  0.0330
 7193TIP3   OH221542   0.121   5.532   3.954  0.6024 -0.1340 -0.0226
 7193TIP3    H121543   0.027   5.515   3.946  0.7960 -0.9126 -0.7681
 7193TIP3    H221544   0.127   5.604   4.017 -0.4322 -0.7610  0.8255
 7194TIP3   OH221545   6.732   1.162   4.369 -0.2065 -0.3605 -0.0671
 7194TIP3    H121546   6.703   1.225   4.303 -0.2551  0.8354  1.0620
 7194TIP3    H221547   6.703   1.077   4.335 -0.1153  0.2009 -1.6369
 7195TIP3   OH221548   3.220   3.562   0.179 -0.6657  0.0576  0.4283
 7195TIP3    H121549   3.249   3.612   0.255 -0.2937  0.2177  0.1859
 7195TIP3    H221550   3.124   3.559   0.186 -0.7280  1.2291  0.1775
 7196TIP3   OH221551   4.828   1.887   4.185  0.2609 -0.8477  0.6746
 7196TIP3    H121552   4.765   1.914   4.252  0.6531 -1.6757  1.4014
 7196TIP3    H221553   4.894   1.956   4.186 -1.3326  0.8354 -1.1565
 7197TIP3   OH221554   3.453   4.458   5.834  0.0540  0.6600  0.0756
 7197TIP3    H121555   3.434   4.460   5.928  1.7437  0.6643  0.4546
 7197TIP3    H221556   3.406   4.382   5.801  0.4649 -0.1006  1.1861
 7198TIP3   OH221557   5.540   0.841   0.704  0.1270  0.6147  0.4323
 7198TIP3    H121558   5.563   0.889   0.624  0.6228  0.3588  0.4199
 7198TIP3    H221559   5.613   0.781   0.718 -1.4015 -1.6820 -0.7541
 7199TIP3   OH221560   3.457   0.296   1.529  0.3727  0.0211 -0.7507
 7199TIP3    H121561   3.528   0.319   1.589 -1.1003 -0.2831  1.2184
 7199TIP3    H221562   3.473   0.204   1.507 -0.5233 -0.7279  1.4410
 7200TIP3   OH221563   6.128   6.060   0.566  0.1400  0.1798  0.1202
 7200TIP3    H121564   6.194   6.072   0.498 -0.1103 -1.6836 -0.5099
 7200TIP3    H221565   6.066   6.131   0.552  0.0716 -0.1936 -1.6533
 7201TIP3   OH221566   6.282   2.017   3.784 -0.2489  0.5210  0.2318
 7201TIP3    H121567   6.349   1.976   3.730 -0.4165  0.4254  0.0980
 7201TIP3    H221568   6.310   2.000   3.874 -0.4893 -0.1627  0.1768
 7202TIP3   OH221569   3.154   3.678   3.902 -0.1535  0.4752 -0.7236
 7202TIP3    H121570   3.102   3.749   3.864 -1.2670  0.5533  0.8603
 7202TIP3    H221571   3.090   3.617   3.936  0.7917  0.0049  0.2678
 7203TIP3   OH221572   1.564   6.667   0.535  0.0748  0.4022  0.2042
 7203TIP3    H121573   1.601   6.583   0.510 -1.0078  0.4613 -1.7920
 7203TIP3    H221574   1.577   6.671   0.630  0.4278 -1.8569  0.3154
 7204TIP3   OH221575   2.572   1.939   5.168  0.1469  0.0237  0.5479
 7204TIP3    H121576   2.511   1.987   5.113  1.7371  1.2118 -0.2748
 7204TIP3    H221577   2.532   1.852   5.179 -0.4492 -0.1330 -2.1736
 7205TIP3   OH221578   2.560   6.434   0.024  0.5060 -0.2767 -0.2993
 7205TIP3    H121579   2.501   6.431   0.099  0.3315 -0.2716 -0.4352
 7205TIP3    H221580   2.505   6.409  -0.051  0.8034 -0.8029 -0.3494
 7206TIP3   OH221581   3.747   2.432   5.857  0.5341 -0.1390 -0.0197
 7206TIP3    H121582   3.742   2.340   5.831  0.8960  0.3366 -1.9473
 7206TIP3    H221583   3.703   2.436   5.942 -0.8620 -1.8155 -0.6081
 7207TIP3   OH221584   2.611   2.462   2.318  0.1607 -0.4652 -0.0102
 7207TIP3    H121585   2.603   2.539   2.374  0.6161 -0.0392 -0.5241
 7207TIP3    H221586   2.684   2.482   2.260 -0.5054 -0.7742 -0.9724
 7208TIP3   OH221587   5.568   4.539   1.341  0.4235 -0.3272  0.5644
 7208TIP3    H121588   5.536   4.475   1.277 -0.6120  0.3717  0.3515
 7208TIP3    H221589   5.526   4.513   1.423 -1.9679  1.4103  0.0076
 7209TIP3   OH221590   5.940   5.301   0.258 -0.0026 -0.6728  0.6665
 7209TIP3    H121591   5.907   5.341   0.338 -3.5163 -1.9219  0.0489
 7209TIP3    H221592   5.892   5.345   0.188  0.4111 -1.9128 -0.4401
 7210TIP3   OH221593   5.280   6.701   3.736  0.8079 -0.0385  0.4387
 7210TIP3    H121594   5.186   6.684   3.728  0.9178 -0.5156  0.1547
 7210TIP3    H221595   5.300   6.681   3.827  1.1025 -2.3304 -0.0842
 7211TIP3   OH221596   2.353   6.209   0.832 -0.0112  0.1331  0.2145
 7211TIP3    H121597   2.366   6.273   0.763  2.6947  0.2601  0.7357
 7211TIP3    H221598   2.381   6.126   0.793  1.6271  0.2212  1.1047
 7212TIP3   OH221599   0.537   5.306   5.254 -0.3797 -0.0681  0.2402
 7212TIP3    H121600   0.576   5.387   5.219  1.3118 -1.1045 -0.3751
 7212TIP3    H221601   0.510   5.329   5.343 -1.0039  1.4882 -0.3149
 7213TIP3   OH221602   3.517   5.178   4.650 -0.3206  0.0686  0.1714
 7213TIP3    H121603   3.423   5.187   4.641 -0.1802  1.2148 -0.3279
 7213TIP3    H221604   3.545   5.131   4.571 -0.7009 -2.2310  1.3385
 7214TIP3   OH221605   1.249   0.811   3.392  0.0622  0.0755  0.4652
 7214TIP3    H121606   1.230   0.899   3.359 -0.9845 -0.0341  0.7417
 7214TIP3    H221607   1.254   0.821   3.487 -0.4514 -0.2293  0.5269
 7215TIP3   OH221608   4.548   3.229   4.965 -0.3280 -0.0493 -0.3786
 7215TIP3    H121609   4.608   3.288   5.011 -1.0611  0.6872 -0.3688
 7215TIP3    H221610   4.581   3.226   4.875 -0.0537  0.0452 -0.2821
 7216TIP3   OH221611   5.462   2.157   1.486 -0.5512  0.5798 -0.0930
 7216TIP3    H121612   5.451   2.224   1.418  0.1738  0.9574  0.1509
 7216TIP3    H221613   5.508   2.086   1.442  0.5105  1.0966  0.1547
 7217TIP3   OH221614   5.784   1.079   0.833  0.2486 -0.5157 -0.3068
 7217TIP3    H121615   5.804   1.146   0.767  1.9201  0.3157  0.9760
 7217TIP3    H221616   5.774   1.128   0.914  0.1939 -1.7083  0.4186
 7218TIP3   OH221617   0.413   2.262   5.366  0.7572  0.0135 -0.1237
 7218TIP3    H121618   0.350   2.300   5.427 -0.3577  2.5862 -2.6330
 7218TIP3    H221619   0.479   2.330   5.355 -0.1762  0.5600 -3.2143
 7219TIP3   OH221620   0.066   4.361   1.126 -0.2917  0.1099 -0.4426
 7219TIP3    H121621   0.150   4.315   1.122 -0.5472 -0.6120  1.3673
 7219TIP3    H221622   0.082   4.434   1.187 -0.3206  1.5290 -2.0644
 7220TIP3   OH221623   3.527   5.473   1.847 -0.2206  0.1881  0.2197
 7220TIP3    H121624   3.517   5.567   1.829  0.0293  0.3700  1.0005
 7220TIP3    H221625   3.503   5.463   1.939  0.4097 -0.4021  0.3335
 7221TIP3   OH221626   5.137   0.796   3.652  0.4865  0.1673  0.2555
 7221TIP3    H121627   5.104   0.839   3.731 -3.3290 -1.3767 -0.2818
 7221TIP3    H221628   5.231   0.792   3.664  0.1465  0.7522  4.3196
 7222TIP3   OH221629   5.774   1.617   5.146 -0.3499 -0.5143 -0.5681
 7222TIP3    H121630   5.821   1.566   5.212 -1.0862 -1.4929 -0.7884
 7222TIP3    H221631   5.688   1.633   5.185  0.0017  0.9452 -0.3272
 7223TIP3   OH221632   7.093   4.742   2.782  0.0491 -0.7520  0.3021
 7223TIP3    H121633   7.038   4.682   2.732 -0.5207  0.4654 -0.5740
 7223TIP3    H221634   7.038   4.819   2.796  0.7606 -0.4196  1.4039
 7224TIP3   OH221635   2.254   0.681   0.750 -0.0815 -0.3264 -0.3812
 7224TIP3    H121636   2.334   0.729   0.774 -0.6444  0.4749 -0.0422
 7224TIP3    H221637   2.285   0.606   0.700  0.8957 -0.1012 -0.1433
 7225TIP3   OH221638   6.788   2.917   3.212 -0.3838  0.2378 -0.3737
 7225TIP3    H121639   6.871   2.921   3.166 -0.7052 -0.8382 -1.0613
 7225TIP3    H221640   6.812   2.907   3.304  0.2476 -0.4531 -0.6074
 7226TIP3   OH221641   0.741   2.193   1.676  0.8955  0.1693 -0.2425
 7226TIP3    H121642   0.750   2.112   1.726  2.2172 -0.9942 -2.2277
 7226TIP3    H221643   0.753   2.167   1.585 -0.7996  2.2809 -1.1747
 7227TIP3   OH221644   6.701   2.374   4.816  0.3275  0.1811  0.1839
 7227TIP3    H121645   6.767   2.359   4.747 -0.0240 -0.3126 -0.0543
 7227TIP3    H221646   6.620   2.389   4.768  0.1305  0.0815  0.4875
 7228TIP3   OH221647   4.504   4.445   5.239 -0.3329 -0.1058 -0.2829
 7228TIP3    H121648   4.475   4.478   5.154 -1.7619  1.6613  0.8049
 7228TIP3    H221649   4.577   4.387   5.219 -0.6938  0.1762 -2.7085
 7229TIP3   OH221650   4.694   5.331   2.921  0.4008  0.0178 -0.0978
 7229TIP3    H121651   4.722   5.249   2.962  2.2043  0.3289 -0.6399
 7229TIP3    H221652   4.611   5.309   2.878 -0.2416 -0.9487  1.5455
 7230TIP3   OH221653   6.375   4.075   3.494 -0.5670  0.4945 -0.1213
 7230TIP3    H121654   6.371   4.000   3.554 -1.6492  1.0909  0.5825
 7230TIP3    H221655   6.285   4.085   3.462  0.0186  0.0814 -2.0203
 7231TIP3   OH221656   2.021   6.534   3.512  0.9053  0.3059 -0.1775
 7231TIP3    H121657   2.043   6.446   3.482  0.6197  0.2389 -0.1945
 7231TIP3    H221658   1.959   6.520   3.584  0.2834  0.5159 -0.6701
 7232TIP3   OH221659   6.803   5.981   2.191  0.5612  0.1602  0.3792
 7232TIP3    H121660   6.760   5.898   2.171  1.2476 -0.0719 -0.1781
 7232TIP3    H221661   6.824   5.975   2.284  1.6696 -0.8066  0.0838
 7233TIP3   OH221662   0.632   2.414   5.299  0.1796 -0.1701 -0.2718
 7233TIP3    H121663   0.581   2.495   5.301 -0.2002 -0.3892 -0.6911
 7233TIP3    H221664   0.673   2.414   5.212  1.0590  0.0998  0.1387
 7234TIP3   OH221665   1.344   6.059   2.077 -0.5148  0.3823 -0.5770
 7234TIP3    H121666   1.304   5.976   2.102 -0.8360  0.7172  0.0590
 7234TIP3    H221667   1.290   6.126   2.121  0.3685  0.8713 -0.2206
 7235TIP3   OH221668   1.607   5.434   1.037 -0.3639 -0.4797  0.6995
 7235TIP3    H121669   1.544   5.363   1.024  1.2762 -2.0601  0.9790
 7235TIP3    H221670   1.649   5.414   1.121  1.6542 -0.4131 -0.2424
 7236TIP3   OH221671   4.770   0.610   2.675 -0.2128 -0.3763  0.3892
 7236TIP3    H121672   4.834   0.540   2.690  1.7963  0.8482 -1.6430
 7236TIP3    H221673   4.781   0.669   2.750  0.6135 -0.5023  0.3773
 7237TIP3   OH221674   5.757   0.927   5.369 -0.0968  0.6073 -0.0078
 7237TIP3    H121675   5.692   0.891   5.308  0.5370 -0.3673 -0.1310
 7237TIP3    H221676   5.804   0.851   5.403  0.6347  1.2511  0.4864
 7238TIP3   OH221677   0.178   0.015   3.935  0.7056 -0.4365  0.2698
 7238TIP3    H121678   0.092   0.043   3.904  0.8759  0.1295  0.3128
 7238TIP3    H221679   0.203  -0.056   3.875  0.1373 -0.7230  0.3622
 7239TIP3   OH221680   4.930   1.432   3.640 -0.0706 -0.1199 -0.0320
 7239TIP3    H121681   4.943   1.506   3.699  0.8646 -0.1206 -0.2278
 7239TIP3    H221682   4.997   1.369   3.665 -1.5393 -1.4046  0.8681
 7240TIP3   OH221683   6.569   1.783   0.399 -0.0425 -0.4182  0.0457
 7240TIP3    H121684   6.505   1.853   0.389 -0.3047 -0.5318  0.9248
 7240TIP3    H221685   6.518   1.706   0.420 -0.0314 -1.5401 -3.4055
 7241TIP3   OH221686   3.552   3.881   0.142 -0.4088 -0.2240 -0.1871
 7241TIP3    H121687   3.604   3.927   0.208  2.0223 -1.5601 -1.0351
 7241TIP3    H221688   3.591   3.907   0.058  0.3594 -2.8652 -0.7486
 7242TIP3   OH221689   6.588   5.874   2.514  0.0854 -0.0230 -0.0015
 7242TIP3    H121690   6.607   5.968   2.522  0.3025  0.0088 -0.7664
 7242TIP3    H221691   6.665   5.830   2.549  0.2781  0.0920 -0.2771
 7243TIP3   OH221692   5.214   4.565   0.020  0.2126  0.5385 -0.4060
 7243TIP3    H121693   5.266   4.561  -0.060 -1.0178  1.6787 -1.2835
 7243TIP3    H221694   5.209   4.658   0.042 -0.2333  0.3185  0.4782
 7244TIP3   OH221695   5.672   6.676   3.822  0.4627  0.0805 -0.1920
 7244TIP3    H121696   5.654   6.640   3.735 -2.2853  1.9544 -0.5117
 7244TIP3    H221697   5.619   6.756   3.827  1.1675  0.4893  2.9140
 7245TIP3   OH221698   2.915   4.195   5.317 -0.5892  0.0435  0.3807
 7245TIP3    H121699   2.983   4.131   5.338  0.7348  0.8857 -1.1011
 7245TIP3    H221700   2.855   4.192   5.392  2.4142  1.0583  3.0390
 7246TIP3   OH221701   0.474   2.779   3.535  0.0090 -0.4226 -0.5467
 7246TIP3    H121702   0.446   2.871   3.532  1.1554  0.1417  2.2257
 7246TIP3    H221703   0.393   2.729   3.545 -0.4728  0.6904  1.8625
 7247TIP3   OH221704   5.937   1.670   4.375  0.2680  0.3000  0.2203
 7247TIP3    H121705   5.905   1.664   4.465  2.0101  0.2407  0.8634
 7247TIP3    H221706   5.932   1.764   4.354  0.0184  0.3342  0.4327
 7248TIP3   OH221707   3.801   2.868   4.917  0.4025  0.3544  0.6759
 7248TIP3    H121708   3.834   2.957   4.930 -1.5258  0.8610  3.0814
 7248TIP3    H221709   3.868   2.811   4.955  0.6308  0.9849  1.2425
 7249TIP3   OH221710   1.267   1.295   0.643 -0.3572 -0.1034 -0.3868
 7249TIP3    H121711   1.316   1.226   0.597 -2.2479 -1.3483 -0.6942
 7249TIP3    H221712   1.228   1.347   0.573 -0.0828  0.4082 -0.1594
 7250TIP3   OH221713   0.618   6.491   5.086  0.2657 -0.0027 -0.1902
 7250TIP3    H121714   0.659   6.557   5.029  0.9898 -0.4465 -0.2055
 7250TIP3    H221715   0.655   6.509   5.173  0.9007 -0.7278 -0.3025
 7251TIP3   OH221716   5.657   1.059   4.760  0.3703 -0.2422 -0.1346
 7251TIP3    H121717   5.696   1.131   4.811  0.4429  0.2476 -0.8680
 7251TIP3    H221718   5.722   1.039   4.694  0.1100 -0.6112 -0.2789
 7252TIP3   OH221719   0.209   1.199   3.074  0.0400  0.0106 -0.2300
 7252TIP3    H121720   0.294   1.235   3.047 -0.6499  2.5872  0.7484
 7252TIP3    H221721   0.224   1.167   3.162  0.2959 -0.7928 -0.5557
 7253TIP3   OH221722   5.599   1.853   4.799 -0.3958 -0.3843  0.3133
 7253TIP3    H121723   5.675   1.811   4.759 -0.1358 -0.1983  0.6122
 7253TIP3    H221724   5.583   1.930   4.744  0.4530  0.3185  1.0147
 7254TIP3   OH221725   6.951   3.739   3.833  0.3505  0.1941  0.2895
 7254TIP3    H121726   6.967   3.833   3.845  0.3465  0.0332  1.8442
 7254TIP3    H221727   7.039   3.700   3.834  0.3038  0.0907  0.7386
 7255TIP3   OH221728   5.106   6.302   2.975  0.7618  0.1087  0.7797
 7255TIP3    H121729   5.140   6.239   3.039  0.4916 -0.0201  0.7944
 7255TIP3    H221730   5.172   6.372   2.974 -0.3037  1.2202  2.8472
 7256TIP3   OH221731   5.604   1.947   2.403  0.3770  0.1592  0.4366
 7256TIP3    H121732   5.565   1.860   2.411  1.4814 -0.3139  0.8135
 7256TIP3    H221733   5.592   1.987   2.490  2.0939 -0.5957  1.0688
 7257TIP3   OH221734   4.568   0.498   0.067  0.1939  0.6829 -0.4719
 7257TIP3    H121735   4.635   0.449   0.020 -0.1044  0.3378 -0.5378
 7257TIP3    H221736   4.489   0.445   0.058 -0.0618  1.0353 -0.3020
 7258TIP3   OH221737   5.718   5.339   0.953 -0.2273  0.4542  0.0387
 7258TIP3    H121738   5.637   5.355   0.906 -0.7772 -0.5395  0.6136
 7258TIP3    H221739   5.746   5.252   0.924 -0.1688  0.1533  0.9630
 7259TIP3   OH221740   6.035   4.902   1.716  0.5215 -0.8768  0.5516
 7259TIP3    H121741   6.069   4.839   1.652 -1.0140  0.4139 -1.7077
 7259TIP3    H221742   6.104   4.968   1.724  0.4816 -0.7052 -0.3594
 7260TIP3   OH221743   5.341   1.858   3.162 -0.1378 -0.2522  0.3127
 7260TIP3    H121744   5.253   1.890   3.140 -0.6827 -1.2252  0.9532
 7260TIP3    H221745   5.333   1.829   3.253  0.3124 -2.0552 -0.1779
 7261TIP3   OH221746   4.186   1.357   2.139 -0.2870  0.0329 -0.4574
 7261TIP3    H121747   4.170   1.295   2.210 -0.4767  0.5812 -0.0145
 7261TIP3    H221748   4.111   1.346   2.081 -1.4076  1.2735  0.6675
 7262TIP3   OH221749   5.557   3.871   0.343  0.0880  0.5560 -0.1441
 7262TIP3    H121750   5.543   3.869   0.438 -0.4934  0.0856 -0.2323
 7262TIP3    H221751   5.474   3.839   0.306  0.5637  0.0310 -0.7843
 7263TIP3   OH221752   6.112   2.183   2.698 -0.0540  0.0209  0.6196
 7263TIP3    H121753   6.171   2.153   2.628  2.0934  2.8846  1.0164
 7263TIP3    H221754   6.058   2.250   2.657 -1.3716 -0.8441  0.8837
 7264TIP3   OH221755   5.581   5.187   2.677 -0.0387 -0.1007  0.3408
 7264TIP3    H121756   5.486   5.195   2.675 -0.2595 -2.0817  1.0169
 7264TIP3    H221757   5.598   5.108   2.728  1.9748  0.1355  0.1351
 7265TIP3   OH221758   2.007   1.743   1.637  0.6351 -0.3036  0.2491
 7265TIP3    H121759   2.049   1.686   1.572  0.2113  1.0914 -1.3223
 7265TIP3    H221760   1.915   1.744   1.613  0.4913  0.3413  0.7769
 7266TIP3   OH221761   4.284   6.531   4.613  0.2941 -0.3834 -0.2873
 7266TIP3    H121762   4.331   6.593   4.668  0.9913 -0.3320 -0.9211
 7266TIP3    H221763   4.351   6.492   4.557 -0.3447 -0.6405 -0.9027
 7267TIP3   OH221764   6.663   1.616   4.982  0.4042 -0.7104  0.1418
 7267TIP3    H121765   6.757   1.600   4.986  0.7479  1.1625  0.9883
 7267TIP3    H221766   6.646   1.673   5.058 -1.2620 -0.3890 -0.4354
 7268TIP3   OH221767   3.887   0.979   0.479 -0.2532  0.6972  0.2493
 7268TIP3    H121768   3.899   0.915   0.409  1.8969  1.0398  0.2114
 7268TIP3    H221769   3.813   1.032   0.451 -1.1843 -0.8780 -0.3948
 7269TIP3   OH221770   5.005   3.631   3.203  0.1172  0.5553  0.0992
 7269TIP3    H121771   5.070   3.665   3.141 -0.1378  0.6268 -0.1273
 7269TIP3    H221772   4.969   3.709   3.245  1.3922  0.4643  1.4755
 7270TIP3   OH221773   3.938   2.738   1.878  0.3794  0.1813  0.1235
 7270TIP3    H121774   3.878   2.796   1.925 -0.7265 -0.2586 -0.7097
 7270TIP3    H221775   3.885   2.698   1.809  1.3471 -1.1071  0.0792
 7271TIP3   OH221776   4.131   5.788   1.012  0.3950 -0.3371  0.0039
 7271TIP3    H121777   4.048   5.741   1.011 -0.3646  0.9697  0.3986
 7271TIP3    H221778   4.108   5.881   1.008  1.7695  0.1191  1.3052
 7272TIP3   OH221779   0.080   5.241   5.590  0.2696 -0.1183 -0.0393
 7272TIP3    H121780   0.018   5.313   5.602  1.4438  0.7778  0.9703
 7272TIP3    H221781   0.052   5.174   5.652  0.6044  0.4935  0.7801
 7273TIP3   OH221782   5.587   4.517   5.502 -0.6394  0.6971  0.0047
 7273TIP3    H121783   5.513   4.500   5.560 -0.4001  0.1936  0.1658
 7273TIP3    H221784   5.630   4.594   5.540 -0.1503  0.0273  0.8351
 7274TIP3   OH221785   1.269   4.817   5.475 -0.6869 -0.3416 -0.4599
 7274TIP3    H121786   1.351   4.797   5.521 -0.1718 -0.2767 -1.3226
 7274TIP3    H221787   1.203   4.820   5.543  0.1581  0.3301  0.3582
 7275TIP3   OH221788   1.838   5.115   0.426 -0.1496 -0.0844 -0.3355
 7275TIP3    H121789   1.861   5.207   0.424  0.2886 -0.1970 -0.6983
 7275TIP3    H221790   1.919   5.069   0.402 -0.4944 -0.5353 -0.6658
 7276TIP3   OH221791   1.685   1.598   4.484 -0.0432 -0.8498  0.1367
 7276TIP3    H121792   1.598   1.626   4.514  1.1016  2.5958  0.6202
 7276TIP3    H221793   1.667   1.525   4.425 -3.0559 -1.8305  2.0127
 7277TIP3   OH221794   2.540   5.524   0.710 -0.2029 -0.4053 -0.0903
 7277TIP3    H121795   2.567   5.542   0.800 -2.2696 -1.5574  0.8474
 7277TIP3    H221796   2.621   5.505   0.663  0.7345 -2.7552  2.2676
 7278TIP3   OH221797   0.632   2.695   5.583 -0.1809 -0.4599  0.2695
 7278TIP3    H121798   0.583   2.777   5.580 -0.5911 -0.5409  2.6668
 7278TIP3    H221799   0.704   2.707   5.522  1.0142  2.5493  2.0699
 7279TIP3   OH221800   0.713   0.775   2.937 -0.4935 -0.2113 -0.2533
 7279TIP3    H121801   0.686   0.684   2.929  0.5601 -0.3271 -4.2134
 7279TIP3    H221802   0.631   0.825   2.937 -1.0018 -1.0261 -0.0238
 7280TIP3   OH221803   4.591   3.084   1.841 -0.4353 -0.0036  0.2974
 7280TIP3    H121804   4.540   3.153   1.799  2.3430  2.0223 -0.0740
 7280TIP3    H221805   4.605   3.116   1.930  0.2323 -0.4564  0.3629
 7281TIP3   OH221806   0.944   4.073   3.210  0.1396 -0.0807  0.8371
 7281TIP3    H121807   0.953   4.113   3.297 -1.1231 -0.7244  1.2965
 7281TIP3    H221808   0.931   3.980   3.228 -2.6852  0.0993  0.1553
 7282TIP3   OH221809   3.921   3.497   0.048  0.1168  0.0258  0.0196
 7282TIP3    H121810   3.932   3.409   0.011 -0.0193 -0.1244  0.3317
 7282TIP3    H221811   3.893   3.481   0.139  0.0334  0.3905  0.0574
 7283TIP3   OH221812   3.906   4.471   4.089 -0.0723  0.4815  0.8874
 7283TIP3    H121813   3.904   4.376   4.099  0.5755  0.3412 -0.1274
 7283TIP3    H221814   3.995   4.496   4.111 -0.1349  0.8023  0.7782
 7284TIP3   OH221815   4.531   5.608   2.312  0.0692  0.3896 -0.0940
 7284TIP3    H121816   4.513   5.696   2.345 -0.1384 -0.2002  1.4353
 7284TIP3    H221817   4.619   5.587   2.344  0.4795  0.3490 -1.1812
 7285TIP3   OH221818   5.668   5.486   4.381 -0.1245  0.7921  0.0154
 7285TIP3    H121819   5.660   5.507   4.474  0.7032 -1.2945  0.6063
 7285TIP3    H221820   5.745   5.429   4.375 -0.2234  0.7848 -1.9318
 7286TIP3   OH221821   6.092   2.834   5.165  0.0803 -0.8043 -0.4525
 7286TIP3    H121822   6.116   2.771   5.234  0.8123 -0.0110  0.0375
 7286TIP3    H221823   6.153   2.906   5.177 -0.9261  0.1315 -0.8400
 7287TIP3   OH221824   2.267   1.998   0.075 -0.4529  0.0919  0.6271
 7287TIP3    H121825   2.225   2.061   0.017  0.3890 -1.1147 -1.3862
 7287TIP3    H221826   2.298   2.051   0.149 -1.0923  1.7718 -0.2570
 7288TIP3   OH221827   3.814   6.624   2.198  0.1422 -0.2940 -0.2087
 7288TIP3    H121828   3.739   6.610   2.140  0.2886  2.0233 -1.0717
 7288TIP3    H221829   3.875   6.553   2.177 -0.9637 -1.0671 -0.9009
 7289TIP3   OH221830   6.560   4.431   4.936  0.0842 -0.1261 -0.3317
 7289TIP3    H121831   6.484   4.423   4.878  0.9464 -1.0040 -1.3728
 7289TIP3    H221832   6.631   4.387   4.889  0.8185 -0.8754  1.3987
 7290TIP3   OH221833   1.896   1.885   2.018  0.4615  0.4637  0.1272
 7290TIP3    H121834   1.825   1.854   1.962  1.2339 -1.5903  0.1874
 7290TIP3    H221835   1.857   1.954   2.071 -0.8132  1.0698 -1.5175
 7291TIP3   OH221836   3.795   0.344   2.725  0.1844 -0.1424 -0.3115
 7291TIP3    H121837   3.807   0.375   2.815 -1.3637 -1.6482  0.4791
 7291TIP3    H221838   3.880   0.358   2.683  1.2900 -0.4221  1.7163
 7292TIP3   OH221839   1.748   1.886   3.795 -0.7187  0.3399  0.0291
 7292TIP3    H121840   1.814   1.819   3.816 -1.7370 -0.4116  0.9347
 7292TIP3    H221841   1.799   1.966   3.782  0.4896 -0.4905 -0.5831
 7293TIP3   OH221842   2.301   2.658   5.833 -0.0542  0.5539 -0.1459
 7293TIP3    H121843   2.323   2.743   5.871  0.8454  1.1060 -1.7699
 7293TIP3    H221844   2.378   2.635   5.781 -0.3023 -1.2589  0.2308
 7294TIP3   OH221845   3.418   2.098   1.958  0.4300 -0.1871  0.1249
 7294TIP3    H121846   3.417   2.176   1.903  1.6017 -0.1217  0.1597
 7294TIP3    H221847   3.345   2.110   2.019  0.0295  0.4344 -0.4647
 7295TIP3   OH221848   5.641   1.076   2.835  0.2556 -0.2664 -0.1708
 7295TIP3    H121849   5.708   1.014   2.807 -0.9294 -1.2177 -0.9617
 7295TIP3    H221850   5.582   1.025   2.891 -1.3193 -0.1691 -1.6517
 7296TIP3   OH221851   4.175   4.094   2.988 -0.0195  0.0198 -0.2884
 7296TIP3    H121852   4.194   4.113   2.897  0.2358 -1.1779 -0.4980
 7296TIP3    H221853   4.200   4.002   3.000 -4.0816 -1.2916 -0.1879
 7297TIP3   OH221854   0.794   2.172   1.395  0.2040 -0.6266  0.1035
 7297TIP3    H121855   0.793   2.263   1.368 -0.4870 -0.6438  0.0733
 7297TIP3    H221856   0.865   2.133   1.343  1.0101  0.0498  0.6665
 7298TIP3   OH221857   6.281   0.802   1.356  0.2648 -0.9875  0.2038
 7298TIP3    H121858   6.303   0.810   1.449  2.7287  0.1180 -0.3755
 7298TIP3    H221859   6.319   0.718   1.330 -2.0504 -2.2048  0.5262
 7299TIP3   OH221860   3.493   4.023   2.177  0.3683  0.1013  0.3009
 7299TIP3    H121861   3.418   4.000   2.233 -0.0771 -0.9128 -0.6685
 7299TIP3    H221862   3.476   3.977   2.095 -0.3223  3.5431 -1.6730
 7300TIP3   OH221863   3.207   3.433   5.564  0.1845  0.4480 -0.3350
 7300TIP3    H121864   3.224   3.357   5.509  0.7413  0.4173 -0.1336
 7300TIP3    H221865   3.143   3.403   5.628 -0.1843  0.3769 -0.7300
 7301TIP3   OH221866   3.030   0.525   1.442 -0.6749  0.2986  0.3212
 7301TIP3    H121867   3.054   0.460   1.375  0.3094  1.3391 -0.3807
 7301TIP3    H221868   2.946   0.560   1.412 -0.3242  0.6356 -0.2984
 7302TIP3   OH221869   3.774   0.442   4.309 -0.3237  0.1775  0.2445
 7302TIP3    H121870   3.708   0.373   4.300  0.7263 -0.7011 -1.1034
 7302TIP3    H221871   3.724   0.524   4.307 -1.4435 -0.4891  0.2389
 7303TIP3   OH221872   6.879   1.172   1.876 -0.0822  0.3275  0.3659
 7303TIP3    H121873   6.810   1.107   1.864 -0.5126  0.6345  1.0664
 7303TIP3    H221874   6.935   1.136   1.945  1.3565 -0.6192 -1.2307
 7304TIP3   OH221875   5.053   2.818   5.251 -0.6355  0.3989  0.5524
 7304TIP3    H121876   5.097   2.893   5.213 -0.1306 -0.4207 -0.5256
 7304TIP3    H221877   4.971   2.810   5.201 -1.6167  1.3508  1.9235
 7305TIP3   OH221878   5.699   0.162   2.352 -0.2211 -0.0949 -0.1471
 7305TIP3    H121879   5.789   0.178   2.323 -1.2204 -0.1767 -3.8147
 7305TIP3    H221880   5.665   0.248   2.373  0.2979  0.1234 -0.1837
 7306TIP3   OH221881   6.448   2.689   2.420  0.1339 -0.1047 -0.2069
 7306TIP3    H121882   6.392   2.735   2.483  0.7715 -1.7647  1.6690
 7306TIP3    H221883   6.530   2.739   2.421  0.2770 -0.3353  0.6102
 7307TIP3   OH221884   6.013   6.499   2.190  0.1483 -0.3713  0.2937
 7307TIP3    H121885   5.972   6.515   2.105 -1.3757 -0.2099  1.0238
 7307TIP3    H221886   6.096   6.456   2.169 -0.1506 -0.2503 -1.2681
 7308TIP3   OH221887   2.193   5.137   4.813 -0.1344 -0.8327  0.2224
 7308TIP3    H121888   2.198   5.223   4.855 -0.1306 -1.6578  2.0019
 7308TIP3    H221889   2.233   5.077   4.875 -0.3647 -2.1776 -0.8707
 7309TIP3   OH221890   4.601   2.787   3.779  0.1708  0.1765 -0.1127
 7309TIP3    H121891   4.685   2.814   3.817  1.3684 -3.7850  0.6027
 7309TIP3    H221892   4.626   2.738   3.700 -1.5738  0.0046 -0.5872
 7310TIP3   OH221893   5.792   1.999   4.639 -0.4320 -0.7057  0.6890
 7310TIP3    H121894   5.792   2.066   4.570 -0.4337 -1.1496  0.2548
 7310TIP3    H221895   5.864   1.940   4.615 -0.5231 -0.9385  0.9900
 7311TIP3   OH221896   3.589   2.090   3.822 -0.1983 -0.6999  0.3674
 7311TIP3    H121897   3.552   2.017   3.772 -0.0408 -0.6529  0.1804
 7311TIP3    H221898   3.683   2.072   3.825 -0.3741 -1.6290  2.1515
 7312TIP3   OH221899   7.233   3.665   2.166 -0.1967 -0.0062  0.0221
 7312TIP3    H121900   7.231   3.655   2.261 -0.2664 -0.3537 -0.0169
 7312TIP3    H221901   7.155   3.618   2.135 -0.4581  0.5420 -0.1663
 7313TIP3   OH221902   5.015   0.185   0.304  0.6368  0.2011 -0.0914
 7313TIP3    H121903   5.066   0.211   0.381  1.5512 -1.0320 -0.2371
 7313TIP3    H221904   4.925   0.207   0.326  1.0241  0.8669  0.8915
 7314TIP3   OH221905   5.498   1.590   4.208  0.0550 -0.8033  0.4643
 7314TIP3    H121906   5.502   1.609   4.302  0.4941  1.3437  0.0529
 7314TIP3    H221907   5.590   1.585   4.181  0.0602 -4.8463  0.6919
 7315TIP3   OH221908   0.502   6.149   1.519  0.0660 -0.3961  0.2819
 7315TIP3    H121909   0.578   6.163   1.462 -0.2458 -1.0513 -0.3055
 7315TIP3    H221910   0.492   6.232   1.565  1.5224 -0.4964  0.8389
 7316TIP3   OH221911   5.233   3.595   0.679  0.2487  0.1027  0.6507
 7316TIP3    H121912   5.162   3.588   0.615 -1.4184  0.5802  2.3611
 7316TIP3    H221913   5.205   3.665   0.738  1.3080 -0.8892  2.3936
 7317TIP3   OH221914   2.237   0.102   3.329 -0.2854  0.2358 -0.4652
 7317TIP3    H121915   2.314   0.137   3.373 -0.9055  0.3560  0.5593
 7317TIP3    H221916   2.216   0.022   3.376 -1.4993  0.8450  0.0758
 7318TIP3   OH221917   4.023   3.237   1.089  0.3184  0.2050 -0.5128
 7318TIP3    H121918   4.039   3.174   1.159 -0.2007  0.0455 -0.5284
 7318TIP3    H221919   4.109   3.271   1.067  0.6393 -0.6455 -0.6320
 7319TIP3   OH221920   6.520   4.025   5.460  0.2911  0.2487  0.2611
 7319TIP3    H121921   6.585   4.092   5.439  0.4031  0.1123  0.1729
 7319TIP3    H221922   6.499   4.040   5.552  0.9548 -0.1469  0.4752
 7320TIP3   OH221923   0.363   4.944   4.501  0.2438 -0.0858 -0.3920
 7320TIP3    H121924   0.450   4.935   4.461  0.3661  1.1858 -0.4440
 7320TIP3    H221925   0.304   4.955   4.426  0.0233 -0.8959 -0.3535
 7321TIP3   OH221926   1.015   6.556   5.160  1.0312 -0.1255 -0.1928
 7321TIP3    H121927   0.926   6.565   5.194  1.0076  0.8223 -0.4773
 7321TIP3    H221928   1.052   6.484   5.210  0.1932 -0.3479  0.1271
 7322TIP3   OH221929   0.526   4.258   4.182  0.3922  0.4659 -0.5203
 7322TIP3    H121930   0.604   4.312   4.170  0.3873  0.3297 -1.1959
 7322TIP3    H221931   0.461   4.318   4.218  0.5429  0.7847 -0.7719
 7323TIP3   OH221932   1.494   1.722   1.025 -0.0366 -0.2053 -0.0080
 7323TIP3    H121933   1.422   1.749   0.968 -0.0064  1.5483  0.7280
 7323TIP3    H221934   1.455   1.719   1.113  0.6060 -0.0023  0.2852
 7324TIP3   OH221935   4.358   3.287   5.688  0.3399  0.0495 -0.5917
 7324TIP3    H121936   4.338   3.217   5.626  0.6454  0.2061 -0.8655
 7324TIP3    H221937   4.304   3.361   5.659 -0.3834 -0.2299  0.0089
 7325TIP3   OH221938   5.051   4.724   4.048 -0.1681  0.2764 -0.5949
 7325TIP3    H121939   5.021   4.649   3.996 -1.1145  1.1764 -1.4026
 7325TIP3    H221940   5.009   4.712   4.133 -2.9575  1.4585 -1.6690
 7326TIP3   OH221941   4.587   0.556   5.838  0.5650 -0.0656 -0.1044
 7326TIP3    H121942   4.532   0.499   5.784 -0.6143  0.9828 -0.0667
 7326TIP3    H221943   4.585   0.517   5.925  1.4944 -1.0995 -0.5256
 7327TIP3   OH221944   2.703   6.686   4.069 -0.6408  0.4032  0.0578
 7327TIP3    H121945   2.740   6.714   3.985  1.4706  0.1784  0.8720
 7327TIP3    H221946   2.666   6.766   4.106 -0.2614  0.8134 -0.4302
 7328TIP3   OH221947   2.583   1.785   4.874 -0.2570  0.2168  0.0710
 7328TIP3    H121948   2.658   1.752   4.824  0.2146  1.7358 -0.2764
 7328TIP3    H221949   2.588   1.880   4.864 -1.7273  0.3892  0.7896
 7329TIP3   OH221950   0.699   6.193   3.490 -0.1937 -0.4644 -0.0575
 7329TIP3    H121951   0.789   6.218   3.467 -0.1025  0.2559  1.0272
 7329TIP3    H221952   0.704   6.100   3.511  0.2334 -0.4951 -0.2849
 7330TIP3   OH221953   3.075   4.988   4.725  0.7337 -0.2541 -0.2142
 7330TIP3    H121954   3.091   4.916   4.785  0.5986 -0.6747 -0.6755
 7330TIP3    H221955   3.120   4.963   4.644  1.5293  0.6385 -0.0681
 7331TIP3   OH221956   4.564   3.932   5.843  0.5235  0.0521  0.1609
 7331TIP3    H121957   4.625   3.961   5.775 -0.3376 -0.2330 -0.7592
 7331TIP3    H221958   4.489   3.992   5.835 -0.8665 -1.7292 -1.1271
 7332TIP3   OH221959   2.824   4.801   0.074 -0.2494  1.2058 -0.2194
 7332TIP3    H121960   2.848   4.769  -0.013 -1.2617 -1.2739  0.3173
 7332TIP3    H221961   2.907   4.814   0.119  0.3108  3.1640 -1.7111
 7333TIP3   OH221962   5.275   5.961   2.657  0.5612  0.0896  0.0330
 7333TIP3    H121963   5.346   5.924   2.708  0.2092  0.3515  0.7186
 7333TIP3    H221964   5.305   5.953   2.566  2.1112  1.5299  0.3703
 7334TIP3   OH221965   0.236   0.355   2.306 -0.0301 -0.4268 -0.5192
 7334TIP3    H121966   0.315   0.391   2.346 -0.2448 -0.5033 -0.0166
 7334TIP3    H221967   0.194   0.430   2.264  1.0435 -0.6441 -2.0519
 7335TIP3   OH221968   2.127   4.575   1.538 -0.0434 -0.2241  0.3452
 7335TIP3    H121969   2.164   4.491   1.565  0.5106 -0.0078  0.2819
 7335TIP3    H221970   2.059   4.593   1.603 -0.2280 -0.7608  0.3074
 7336TIP3   OH221971   5.956   3.930   3.233  0.0474 -0.1305  0.1021
 7336TIP3    H121972   5.934   3.945   3.141 -0.0509 -0.8716  0.0032
 7336TIP3    H221973   5.872   3.916   3.277 -0.1371  2.4191  0.7508
 7337TIP3   OH221974   6.550   0.452   1.371 -0.1803  0.0979  0.2774
 7337TIP3    H121975   6.645   0.438   1.366 -0.1523  0.6033 -0.6353
 7337TIP3    H221976   6.528   0.501   1.292 -1.0767  0.7356  0.9010
 7338TIP3   OH221977   2.665   6.829   5.644 -0.1048  0.1299 -0.0484
 7338TIP3    H121978   2.674   6.837   5.549  3.3624 -0.8885  0.0636
 7338TIP3    H221979   2.642   6.737   5.659  0.4681  0.0055  0.1057
 7339TIP3   OH221980   5.092   6.516   3.948 -0.4122 -0.8075 -0.5424
 7339TIP3    H121981   5.081   6.486   3.858  1.5215 -2.1173 -0.3988
 7339TIP3    H221982   5.008   6.496   3.990 -0.4899 -2.5454 -1.4440
 7340TIP3   OH221983   1.385   1.403   1.717  0.2054  1.2087  0.0368
 7340TIP3    H121984   1.465   1.368   1.679 -0.2216  1.2567 -0.9478
 7340TIP3    H221985   1.412   1.487   1.756  0.6680  1.1371 -0.1205
 7341TIP3   OH221986   5.593   0.682   2.414  0.4951 -0.2199  0.1401
 7341TIP3    H121987   5.600   0.767   2.369  0.3988  0.1149  0.7391
 7341TIP3    H221988   5.500   0.671   2.431  0.4922 -0.5207 -0.0752
 7342TIP3   OH221989   0.669   6.352   2.492  0.1007  0.1307  0.2955
 7342TIP3    H121990   0.740   6.415   2.502  0.8669 -0.6224 -0.2003
 7342TIP3    H221991   0.676   6.323   2.401  0.5636 -1.5676  0.8284
 7343TIP3   OH221992   5.575   0.997   0.438 -0.2607 -0.4388 -0.4221
 7343TIP3    H121993   5.600   0.966   0.351  2.8700  3.3381 -1.1573
 7343TIP3    H221994   5.497   1.050   0.423 -1.2390 -1.8206 -0.4028
 7344TIP3   OH221995   3.810   6.607   1.411 -0.0894  0.0077 -0.2003
 7344TIP3    H121996   3.846   6.521   1.433 -0.1744  0.2654  1.0303
 7344TIP3    H221997   3.835   6.621   1.319  0.3638 -1.0987 -0.2636
 7345TIP3   OH221998   4.399   5.523   2.887 -0.0869 -0.4241  0.5576
 7345TIP3    H121999   4.406   5.456   2.954 -1.6814 -0.4051  0.7890
 7345TIP3    H222000   4.388   5.474   2.805  1.2097 -0.4386  0.3659
 7346TIP3   OH222001   2.222   5.075   4.013 -0.1272  0.4317 -0.1923
 7346TIP3    H122002   2.268   5.070   4.097 -0.9406  1.1238  0.3091
 7346TIP3    H222003   2.202   5.168   4.002 -1.1710  0.1789 -0.5212
 7347TIP3   OH222004   2.658   3.895   5.244 -0.3698 -0.7008 -0.5387
 7347TIP3    H122005   2.642   3.874   5.153  2.3337 -0.6329 -1.1285
 7347TIP3    H222006   2.727   3.834   5.271  1.1905  1.3379  0.4218
 7348TIP3   OH222007   2.656   3.589   4.733 -0.2132 -0.4518 -0.1125
 7348TIP3    H122008   2.580   3.635   4.697 -0.6349 -0.7917  0.3234
 7348TIP3    H222009   2.629   3.564   4.821  0.7762  0.2835  0.4086
 7349TIP3   OH222010   1.209   0.516   2.722 -0.0622  0.9709 -0.2000
 7349TIP3    H122011   1.297   0.515   2.684 -0.3022  2.1828 -0.8416
 7349TIP3    H222012   1.220   0.557   2.807  0.3344 -0.9677  0.7504
 7350TIP3   OH222013   1.738   4.716   4.311  0.4679  0.0297  0.0806
 7350TIP3    H122014   1.722   4.699   4.404  0.4497  0.4240  0.1507
 7350TIP3    H222015   1.756   4.629   4.274  0.2458 -0.1599  0.4049
 7351TIP3   OH222016   1.999   1.436   0.145  0.2268  0.0694 -0.9524
 7351TIP3    H122017   1.971   1.500   0.211  0.9410 -0.5305 -0.0348
 7351TIP3    H222018   2.032   1.489   0.073  1.5079  0.7663  0.1027
 7352TIP3   OH222019   5.160   2.529   5.679  0.4181 -0.3383  0.2946
 7352TIP3    H122020   5.129   2.450   5.724 -1.3811  1.1726  1.9344
 7352TIP3    H222021   5.232   2.560   5.733  0.7301 -0.5199 -0.0133
 7353TIP3   OH222022  -0.028   1.084   0.673 -0.1088 -0.2705  0.1335
 7353TIP3    H122023  -0.016   1.142   0.597 -1.8827  1.0035  0.7569
 7353TIP3    H222024   0.049   1.100   0.728  0.6583 -0.4000 -0.8673
 7354TIP3   OH222025   6.309   1.871   5.886  0.6657 -0.2742  0.4257
 7354TIP3    H122026   6.254   1.879   5.808 -0.3491  0.7586  1.2193
 7354TIP3    H222027   6.392   1.836   5.853  0.5555  0.9330 -1.2605
 7355TIP3   OH222028   1.172   4.993   3.878  0.1328 -0.2628 -0.6749
 7355TIP3    H122029   1.172   5.024   3.968  0.4005  4.0736 -1.9685
 7355TIP3    H222030   1.264   4.990   3.853  0.0161 -0.4128 -1.1109
 7356TIP3   OH222031   1.490   2.847   2.843  0.5964  0.3662 -0.1008
 7356TIP3    H122032   1.472   2.861   2.750  0.6779  1.5313  0.0513
 7356TIP3    H222033   1.504   2.934   2.879 -0.1229 -0.0168  1.1570
 7357TIP3   OH222034   6.122   6.616   4.368  0.5116  0.0705  0.0103
 7357TIP3    H122035   6.141   6.537   4.317 -0.4777  0.7650 -1.5153
 7357TIP3    H222036   6.174   6.685   4.326  0.3367  0.5031  0.4865
 7358TIP3   OH222037   0.252   4.428   2.251  0.8887 -0.3989  0.2836
 7358TIP3    H122038   0.232   4.509   2.297  0.6474 -0.5851  0.5043
 7358TIP3    H222039   0.316   4.383   2.307 -0.3160 -1.1943  1.0480
 7359TIP3   OH222040   2.984   4.996   4.367  0.6608  0.2010  0.2176
 7359TIP3    H122041   3.013   4.951   4.288  0.7541  0.5734  0.0338
 7359TIP3    H222042   2.987   4.930   4.436  1.1461  0.0243  0.0282
 7360TIP3   OH222043   0.103   1.705   2.232 -0.1086 -0.5878  0.1029
 7360TIP3    H122044   0.124   1.722   2.324  2.7381  0.9967 -0.7101
 7360TIP3    H222045   0.103   1.792   2.191 -2.2879 -1.1592 -1.2745
 7361TIP3   OH222046   4.001   6.350   3.807 -0.5141  0.0752 -0.1962
 7361TIP3    H122047   3.977   6.277   3.864  0.2915 -0.1610 -0.1486
 7361TIP3    H222048   3.971   6.324   3.720 -1.3395  0.2402  0.0299
 7362TIP3   OH222049   6.861   5.892   0.604  0.2057 -0.0664 -0.4977
 7362TIP3    H122050   6.776   5.887   0.649  0.5263  3.3130  0.8065
 7362TIP3    H222051   6.838   5.909   0.512 -0.5133 -0.6248 -0.4321
 7363TIP3   OH222052   5.980   0.824   3.220  0.4525 -0.3553 -0.8667
 7363TIP3    H122053   6.050   0.782   3.170  0.8978 -0.1525 -0.4185
 7363TIP3    H222054   5.961   0.905   3.173  1.8767  0.5639  0.0566
 7364TIP3   OH222055   4.215   4.529   4.124 -0.7672  0.3526 -0.4714
 7364TIP3    H122056   4.247   4.619   4.112 -2.4508  0.9849 -0.4691
 7364TIP3    H222057   4.246   4.482   4.047 -0.3313  1.0730 -0.7425
 7365TIP3   OH222058   6.866   4.692   1.787  0.2884  0.5518 -0.2295
 7365TIP3    H122059   6.948   4.681   1.834  0.0145  1.1463  0.4186
 7365TIP3    H222060   6.805   4.725   1.854 -0.9651 -1.5708 -0.2424
 7366TIP3   OH222061   2.232   4.077   5.171 -0.4754  0.0322  0.4430
 7366TIP3    H122062   2.198   4.132   5.242  1.3880  1.0751  0.5845
 7366TIP3    H222063   2.241   4.136   5.097 -0.1842 -0.5113  0.0361
 7367TIP3   OH222064   3.483   5.412   1.263  0.2131 -0.2136 -0.1025
 7367TIP3    H122065   3.430   5.491   1.252 -0.5850 -0.8589 -1.1189
 7367TIP3    H222066   3.419   5.341   1.272  0.9129 -0.6968  1.3084
 7368TIP3   OH222067   1.954   4.700   5.101  0.5252  0.2485 -0.0197
 7368TIP3    H122068   1.880   4.702   5.163  0.2353 -0.3583 -0.3405
 7368TIP3    H222069   1.957   4.788   5.065  0.5512  0.5476  0.6898
 7369TIP3   OH222070   0.114   3.258   1.389 -0.2071  0.0368 -0.1247
 7369TIP3    H122071   0.160   3.284   1.309  0.0406  0.4661  0.1554
 7369TIP3    H222072   0.025   3.290   1.377 -0.7949 -1.7882 -1.1752
 7370TIP3   OH222073   5.568   5.970   4.784 -0.7952 -0.1927 -0.0052
 7370TIP3    H122074   5.649   5.972   4.733 -0.9479 -0.1636 -0.2472
 7370TIP3    H222075   5.530   6.057   4.774 -0.3414  0.1313  0.9543
 7371TIP3   OH222076   3.306   3.034   4.331  0.5523 -0.0543 -0.1803
 7371TIP3    H122077   3.379   3.088   4.301 -0.2655  0.4931 -1.2368
 7371TIP3    H222078   3.228   3.087   4.312 -0.1964 -1.1657 -0.2609
 7372TIP3   OH222079   1.462   0.934   5.598 -0.0350  0.0515 -0.4683
 7372TIP3    H122080   1.450   0.840   5.616 -0.4549  0.1577 -0.1553
 7372TIP3    H222081   1.494   0.938   5.509 -0.2102 -0.3862 -0.5533
 7373TIP3   OH222082   4.341   0.444   0.824  0.1798 -0.4972 -0.2896
 7373TIP3    H122083   4.366   0.523   0.776 -1.2621 -0.2243 -0.6484
 7373TIP3    H222084   4.366   0.372   0.766  2.7001 -0.4372  0.5875
 7374TIP3   OH222085   1.897   4.112   1.335  0.6165  0.3855 -0.2311
 7374TIP3    H122086   1.960   4.076   1.273  0.9683 -2.3028  1.5189
 7374TIP3    H222087   1.950   4.153   1.403  0.6127 -1.9896  1.3090
 7375TIP3   OH222088   3.059   3.170   4.265  0.1320 -0.3678 -0.4258
 7375TIP3    H122089   3.032   3.165   4.173  2.5958 -2.6369 -1.1519
 7375TIP3    H222090   3.014   3.097   4.307  3.7979 -3.5664 -1.4416
 7376TIP3   OH222091   4.411   2.035   0.779  0.2472  0.1523  0.3491
 7376TIP3    H122092   4.331   2.015   0.827  1.8155 -2.9265  1.9364
 7376TIP3    H222093   4.467   2.078   0.843  1.0708 -0.7950  0.2903
 7377TIP3   OH222094   1.993   3.293   4.358  0.0467 -0.3246  0.5035
 7377TIP3    H122095   1.927   3.231   4.392 -0.2577 -0.2606  0.0338
 7377TIP3    H222096   1.947   3.377   4.353 -0.3079 -0.5815 -1.2484
 7378TIP3   OH222097   2.537   5.478   3.212  0.2902  0.4647  0.2913
 7378TIP3    H122098   2.564   5.467   3.121  1.5790  0.0753  0.6928
 7378TIP3    H222099   2.483   5.557   3.212  2.0938  1.7810 -0.4876
 7379TIP3   OH222100   1.782   3.394   4.087 -0.1088 -0.0495 -0.4796
 7379TIP3    H122101   1.789   3.299   4.087  1.0620  0.0057 -1.3262
 7379TIP3    H222102   1.825   3.422   4.168 -0.6533 -0.2412 -0.1207
 7380TIP3   OH222103   2.901   4.418   1.586  0.0498 -0.0602  0.0744
 7380TIP3    H122104   2.936   4.488   1.530 -0.7278 -0.3892 -0.8640
 7380TIP3    H222105   2.806   4.430   1.582 -0.0112  0.2173  1.7687
 7381TIP3   OH222106   1.108   5.331   1.853 -0.0798 -0.0860 -0.0368
 7381TIP3    H122107   1.121   5.280   1.774  2.1800  0.1815  0.1045
 7381TIP3    H222108   1.159   5.411   1.839 -1.3314  0.9194  0.8629
 7382TIP3   OH222109   5.813   0.713   0.767 -0.5073 -0.4393 -0.2576
 7382TIP3    H122110   5.812   0.794   0.715 -2.8256 -1.0959 -1.3650
 7382TIP3    H222111   5.871   0.654   0.718 -1.6501 -0.6120 -1.4702
 7383TIP3   OH222112   0.913   0.732   4.531  0.0708 -0.2043  0.4115
 7383TIP3    H122113   0.980   0.677   4.490 -0.1274 -0.4736  0.4412
 7383TIP3    H222114   0.961   0.807   4.566  0.2412  0.0322 -0.3210
 7384TIP3   OH222115   6.481   4.919   3.096 -0.2126  0.0368  0.5284
 7384TIP3    H122116   6.512   4.949   3.182 -0.5065 -0.3731  0.7826
 7384TIP3    H222117   6.386   4.912   3.106 -0.3698  1.0032 -0.1565
 7385TIP3   OH222118   0.384   6.094   2.685 -0.3205  0.0648 -0.4384
 7385TIP3    H122119   0.383   6.022   2.748 -0.6682 -1.8740 -2.5536
 7385TIP3    H222120   0.293   6.104   2.658  0.1587 -1.2871 -2.8618
 7386TIP3   OH222121   1.918   0.347   0.873 -0.0989 -0.1693 -0.1530
 7386TIP3    H122122   1.969   0.390   0.804 -1.1984 -1.2900 -1.7471
 7386TIP3    H222123   1.858   0.289   0.826  0.3712 -2.4195  1.8241
 7387TIP3   OH222124   1.271   2.397   5.334 -0.3006 -0.1598 -0.9042
 7387TIP3    H122125   1.259   2.418   5.241  0.6378  0.5189 -0.8800
 7387TIP3    H222126   1.365   2.397   5.347 -0.3522 -1.8743 -0.3036
 7388TIP3   OH222127   3.946   6.815   5.402  0.8806 -0.5323 -0.7701
 7388TIP3    H122128   3.885   6.761   5.353  0.9361 -0.2021 -1.2127
 7388TIP3    H222129   3.912   6.814   5.492  1.7257 -2.5191 -0.4273
 7389TIP3   OH222130   1.754   4.443   4.149 -0.2796 -0.1768 -0.0883
 7389TIP3    H122131   1.824   4.497   4.113  0.3627 -0.3667  0.8237
 7389TIP3    H222132   1.676   4.466   4.098 -0.3144  2.5003  1.0269
 7390TIP3   OH222133   6.454   1.928   3.611 -0.0818 -0.1618 -0.0334
 7390TIP3    H122134   6.389   1.986   3.571 -0.3020 -0.8767 -0.7279
 7390TIP3    H222135   6.513   1.904   3.540 -0.8653 -1.9775 -0.1393
 7391TIP3   OH222136   3.447   1.546   2.962 -0.0796  0.1807  0.3342
 7391TIP3    H122137   3.383   1.483   2.994 -1.1755  0.1455 -1.7232
 7391TIP3    H222138   3.399   1.598   2.898  2.1229 -0.3785 -1.9338
 7392TIP3   OH222139   0.290   3.532   2.079  0.1040  0.1230 -0.2227
 7392TIP3    H122140   0.230   3.601   2.051  0.2143 -0.3717 -1.7644
 7392TIP3    H222141   0.234   3.462   2.111 -0.1183 -0.0242 -0.9224
 7393TIP3   OH222142   2.770   3.106   5.292  0.0312  0.2211 -0.0471
 7393TIP3    H122143   2.738   3.081   5.205  0.4215 -1.7415  0.3197
 7393TIP3    H222144   2.696   3.087   5.350 -0.0325  0.9962  0.1355
 7394TIP3   OH222145   2.884   4.626   4.012  0.4277  0.5154 -0.2553
 7394TIP3    H122146   2.838   4.688   4.069  0.5235 -0.1586  0.5760
 7394TIP3    H222147   2.874   4.542   4.056 -0.0509 -0.1424 -1.5800
 7395TIP3   OH222148   6.178   0.807   3.024  0.0223  0.1135 -0.2329
 7395TIP3    H122149   6.225   0.878   2.980 -0.7442  0.4533 -0.5189
 7395TIP3    H222150   6.189   0.732   2.967 -0.0590  0.2741 -0.4594
 7396TIP3   OH222151   6.179   2.506   4.095  0.2680  0.0860 -0.7443
 7396TIP3    H122152   6.165   2.415   4.068 -1.6209 -0.2482  1.0467
 7396TIP3    H222153   6.246   2.500   4.164  0.0219  0.0134 -0.5086
 7397TIP3   OH222154   3.448   4.217   4.170  0.5490 -0.5997 -0.4402
 7397TIP3    H122155   3.358   4.244   4.184 -0.0704 -1.8651 -1.7463
 7397TIP3    H222156   3.500   4.280   4.221 -1.1415 -1.4132  2.5353
 7398TIP3   OH222157   5.185   6.034   2.198 -0.0019 -0.3739 -0.0459
 7398TIP3    H122158   5.217   5.994   2.118  1.5705 -0.9920  0.8428
 7398TIP3    H222159   5.188   5.964   2.263 -2.7559 -0.3342  0.2686
 7399TIP3   OH222160   6.265   2.155   2.439 -0.5500  0.3744  0.2178
 7399TIP3    H122161   6.223   2.148   2.353 -0.4194 -0.8734  0.2321
 7399TIP3    H222162   6.287   2.248   2.448 -2.3022  0.8560 -0.2564
 7400TIP3   OH222163   5.010   6.657   3.706  0.1768 -0.5423 -0.1089
 7400TIP3    H122164   4.988   6.570   3.672 -0.4195 -0.6004  0.3961
 7400TIP3    H222165   4.948   6.715   3.663  0.4520 -0.3947 -0.3048
 7401TIP3   OH222166   4.431   0.328   2.825  0.2742  0.1555 -0.1996
 7401TIP3    H122167   4.520   0.313   2.793  0.4966 -0.1903  0.5561
 7401TIP3    H222168   4.417   0.259   2.890 -0.0757  0.9774  0.6170
 7402TIP3   OH222169   6.316   5.888   1.314 -0.7711 -0.0177  0.3491
 7402TIP3    H122170   6.259   5.881   1.390  1.6722 -0.8961  2.2158
 7402TIP3    H222171   6.401   5.912   1.350  0.2859  0.4121 -2.2317
 7403TIP3   OH222172   4.985   5.133   2.487 -0.3458 -0.6320  0.6326
 7403TIP3    H122173   5.045   5.066   2.520 -1.2094 -0.8763  1.7660
 7403TIP3    H222174   4.942   5.091   2.412  2.9581  0.5662 -2.1940
 7404TIP3   OH222175   6.512   2.690   1.082  0.3031 -0.0863  0.1179
 7404TIP3    H122176   6.550   2.766   1.125 -0.4979  0.3767  0.0306
 7404TIP3    H222177   6.524   2.618   1.144  3.1164 -0.4516 -0.7054
 7405TIP3   OH222178   5.326   5.651   1.426 -0.2905  0.1104 -0.3630
 7405TIP3    H122179   5.300   5.585   1.361 -0.1933  1.7482 -2.1461
 7405TIP3    H222180   5.244   5.687   1.457 -0.4107 -1.6910  1.6358
 7406TIP3   OH222181   1.579   5.912   4.163  0.2738 -0.2219 -0.3267
 7406TIP3    H122182   1.619   5.916   4.250 -1.1014  2.3548  0.2894
 7406TIP3    H222183   1.624   5.980   4.113 -2.7694  2.4439  0.2554
 7407TIP3   OH222184   3.964   1.299   3.567  0.0094  0.1264 -0.2383
 7407TIP3    H122185   3.935   1.250   3.490 -1.2648 -0.2767  0.4740
 7407TIP3    H222186   3.953   1.391   3.542 -1.5784 -0.0019 -0.1455
 7408TIP3   OH222187   5.516   5.851   5.035 -0.0146 -0.1479  0.0168
 7408TIP3    H122188   5.478   5.765   5.019  1.5539 -0.7745 -0.5436
 7408TIP3    H222189   5.542   5.883   4.948 -0.4411  0.8454  0.2328
 7409TIP3   OH222190   7.159   6.742   1.219  0.3951  0.1275 -0.4133
 7409TIP3    H122191   7.106   6.663   1.208  1.5128 -0.7670  0.3460
 7409TIP3    H222192   7.247   6.715   1.194  0.6178  1.4310 -1.1025
 7410TIP3   OH222193   5.365   5.236   3.159 -0.1837 -0.2089  0.8548
 7410TIP3    H122194   5.364   5.272   3.070  0.6447 -1.6976  0.1996
 7410TIP3    H222195   5.276   5.206   3.175 -0.1869 -0.5202  0.2628
 7411TIP3   OH222196   3.836   6.176   4.415  0.0143 -0.0732 -0.4271
 7411TIP3    H122197   3.797   6.254   4.455  0.7261  0.5806 -0.9852
 7411TIP3    H222198   3.766   6.140   4.360 -0.4816 -0.1299  0.2283
 7412TIP3   OH222199   6.221   2.038   1.856 -0.5017 -0.3647 -0.5046
 7412TIP3    H122200   6.222   1.956   1.808  1.3160 -1.6825  1.6172
 7412TIP3    H222201   6.313   2.060   1.870 -0.9497  1.2939  0.1876
 7413TIP3   OH222202   6.557   4.320   4.136  0.1139 -0.6705 -0.0220
 7413TIP3    H122203   6.499   4.286   4.205 -0.9534 -2.0095 -1.5035
 7413TIP3    H222204   6.608   4.244   4.108  1.5232  0.1622  0.1797
 7414TIP3   OH222205   4.000   0.135   0.595 -0.4509 -0.4076 -0.0940
 7414TIP3    H122206   3.982   0.042   0.577 -1.7655 -0.0350 -0.8611
 7414TIP3    H222207   3.917   0.179   0.577 -0.7387  0.5830  3.1788
 7415TIP3   OH222208   3.428   0.294   5.728 -0.5397  0.2778  0.1877
 7415TIP3    H122209   3.366   0.247   5.784  0.9656 -0.4208  1.3481
 7415TIP3    H222210   3.445   0.376   5.774  0.4065 -0.1293  0.5959
 7416TIP3   OH222211   6.221   5.537   3.240  0.6277  0.0971 -0.0063
 7416TIP3    H122212   6.244   5.505   3.327  0.9141  0.1345 -0.0672
 7416TIP3    H222213   6.128   5.555   3.245  0.4704 -0.6924  0.0500
 7417TIP3   OH222214   5.879   3.360   2.261  0.4341  0.3626 -0.3757
 7417TIP3    H122215   5.891   3.396   2.173  2.3848 -0.0394 -0.3154
 7417TIP3    H222216   5.842   3.273   2.246  0.7382  0.3033 -0.7972
 7418TIP3   OH222217   3.041   1.680   0.410 -0.4545 -0.4284 -0.0552
 7418TIP3    H122218   3.123   1.729   0.415 -0.2905 -0.6900 -0.1520
 7418TIP3    H222219   3.058   1.612   0.345 -0.5052 -0.9432  0.4651
 7419TIP3   OH222220   6.204   0.729   0.289  0.5815  0.0499  0.0817
 7419TIP3    H122221   6.266   0.802   0.294  1.1187 -0.4638  1.5489
 7419TIP3    H222222   6.139   0.749   0.357  0.7102 -0.7929  0.4702
 7420TIP3   OH222223   2.399   5.814   0.858  0.4127  0.3334 -0.6336
 7420TIP3    H122224   2.454   5.892   0.858  1.9991 -0.7205 -1.6783
 7420TIP3    H222225   2.446   5.751   0.912 -1.1159  0.2419  0.6459
 7421TIP3   OH222226   2.373   5.867   2.640 -0.0897 -0.0735 -0.4725
 7421TIP3    H122227   2.340   5.949   2.676  1.6762  0.8239 -0.8028
 7421TIP3    H222228   2.404   5.890   2.552  1.0509 -0.9358 -0.3158
 7422TIP3   OH222229   2.851   2.925   4.650 -0.0028 -0.1581 -0.5487
 7422TIP3    H122230   2.939   2.920   4.688 -0.0157  1.5400 -0.1860
 7422TIP3    H222231   2.825   2.834   4.637  1.0558 -0.7437  1.0861
 7423TIP3   OH222232   2.515   5.967   4.356 -0.1636  0.3425  1.1798
 7423TIP3    H122233   2.581   6.026   4.392  0.9531 -0.5197  0.6014
 7423TIP3    H222234   2.496   6.002   4.269 -0.3849  0.5182  1.2974
 7424TIP3   OH222235   3.235   2.551   3.810 -0.3452  0.5735 -0.2876
 7424TIP3    H122236   3.236   2.642   3.840 -1.7126  0.6875 -0.5368
 7424TIP3    H222237   3.148   2.538   3.773  0.7257 -0.0427 -2.7617
 7425TIP3   OH222238   0.041   1.304   3.492 -0.5544  0.2098 -0.0404
 7425TIP3    H122239   0.090   1.250   3.554 -1.2983 -0.9151 -0.4161
 7425TIP3    H222240  -0.027   1.345   3.546 -0.0385  0.7343  0.2283
 7426TIP3   OH222241   5.803   3.611   0.730  0.0452 -0.6795  0.1243
 7426TIP3    H122242   5.843   3.632   0.815 -0.3008 -0.2166  0.1776
 7426TIP3    H222243   5.714   3.584   0.751 -0.5830  1.0165 -0.1995
 7427TIP3   OH222244   4.417   5.935   0.760  0.1570  0.0443 -0.0809
 7427TIP3    H122245   4.379   5.857   0.719  0.4547 -0.0332 -0.2082
 7427TIP3    H222246   4.473   5.901   0.829  1.9471  0.0223 -1.4568
 7428TIP3   OH222247   0.391   5.603   1.527 -0.1800  0.0380 -0.4318
 7428TIP3    H122248   0.339   5.661   1.583  1.7550 -0.7698  2.4576
 7428TIP3    H222249   0.334   5.528   1.511 -1.0815  0.6647 -0.2499
 7429TIP3   OH222250   2.071   4.593   3.777 -0.1726 -0.6523  0.3377
 7429TIP3    H122251   2.112   4.679   3.766 -0.3548 -0.5786  0.2292
 7429TIP3    H222252   2.045   4.568   3.688  0.2919 -1.0252  0.3014
 7430TIP3   OH222253   4.845   4.693   2.537 -0.4917 -0.5898  0.5156
 7430TIP3    H122254   4.921   4.751   2.540 -0.3739 -0.6247 -1.1745
 7430TIP3    H222255   4.790   4.723   2.610  0.2512  0.6932  0.5830
 7431TIP3   OH222256   1.923   2.677   2.781  0.1510 -0.1746 -0.6760
 7431TIP3    H122257   1.945   2.760   2.823  1.9391 -1.2832  0.6585
 7431TIP3    H222258   1.847   2.645   2.830  0.1103  0.1555 -0.5176
 7432TIP3   OH222259   3.515   1.603   5.146  0.0753  0.4716 -0.0616
 7432TIP3    H122260   3.606   1.574   5.146  0.2504  0.9397  1.3501
 7432TIP3    H222261   3.520   1.697   5.126 -0.1295  0.3977 -0.4518
 7433TIP3   OH222262   1.128   5.097   2.625 -0.0411 -0.2091 -0.1360
 7433TIP3    H122263   1.213   5.120   2.585  0.3037 -1.7787 -0.3646
 7433TIP3    H222264   1.069   5.087   2.550 -0.2870  0.2783 -0.0125
 7434TIP3   OH222265   5.242   4.590   1.429  0.3146 -0.0810  0.1795
 7434TIP3    H122266   5.175   4.569   1.494  0.0690 -3.4548 -0.9846
 7434TIP3    H222267   5.302   4.515   1.431  0.8194  0.1335 -2.7707
 7435TIP3   OH222268   2.588   6.500   0.502  0.4654 -0.1885 -0.2151
 7435TIP3    H122269   2.593   6.542   0.588  0.0164  0.7981 -0.6587
 7435TIP3    H222270   2.508   6.449   0.505  0.1912  0.2393 -0.2190
 7436TIP3   OH222271   5.040   5.400   2.448  0.6982 -0.0275 -0.0468
 7436TIP3    H122272   5.009   5.309   2.452 -0.8448  0.4357 -0.7887
 7436TIP3    H222273   4.962   5.453   2.464  1.9303  1.2116  2.5593
 7437TIP3   OH222274   6.896   0.308   1.600  0.3116  0.0900 -0.4429
 7437TIP3    H122275   6.838   0.347   1.535  1.1483  1.3766 -0.4573
 7437TIP3    H222276   6.839   0.292   1.676 -0.4960 -0.6920 -1.1902
 7438TIP3   OH222277   0.247   2.548   2.342 -0.1268 -0.7687  0.0751
 7438TIP3    H122278   0.268   2.619   2.280  0.4211  0.9064  2.0642
 7438TIP3    H222279   0.244   2.469   2.288 -0.5436  0.7136 -2.2241
 7439TIP3   OH222280   1.569   4.133   5.533  0.0212  0.1155 -0.2345
 7439TIP3    H122281   1.553   4.122   5.627 -0.8549 -0.4100 -0.4336
 7439TIP3    H222282   1.543   4.049   5.495  0.5075  0.2783 -0.9331
 7440TIP3   OH222283   3.323   4.025   4.605 -0.0933 -0.3144  0.2135
 7440TIP3    H122284   3.271   4.020   4.525  0.0506 -1.2545  0.1653
 7440TIP3    H222285   3.389   3.956   4.595 -0.2303 -0.6142  1.2406
 7441TIP3   OH222286   4.577   3.268   1.500  0.4647 -0.2188 -0.2577
 7441TIP3    H122287   4.511   3.250   1.568  0.3239  0.4681 -0.2097
 7441TIP3    H222288   4.563   3.199   1.435  0.2012 -0.5272  0.1170
 7442TIP3   OH222289   2.345   5.504   1.540 -0.4850  0.2891 -0.4510
 7442TIP3    H122290   2.393   5.431   1.579  2.0340  1.6650 -0.7457
 7442TIP3    H222291   2.292   5.539   1.612  0.4292 -0.1185  0.4384
 7443TIP3   OH222292   3.031   2.338   0.846  0.0620 -0.3620  0.4832
 7443TIP3    H122293   2.990   2.311   0.764  0.1896  1.3787 -0.1967
 7443TIP3    H222294   3.014   2.265   0.907 -3.2947 -0.1330  0.0000
 7444TIP3   OH222295   7.075   3.163   4.099  0.0807 -0.2694 -0.0514
 7444TIP3    H122296   7.048   3.246   4.061 -0.7189 -1.1373 -1.4276
 7444TIP3    H222297   7.001   3.136   4.154  0.5682  0.1758  0.8535
 7445TIP3   OH222298   5.874   2.385   3.275 -0.8164  0.5787 -0.0254
 7445TIP3    H122299   5.898   2.368   3.366 -0.2746  0.7695 -0.1261
 7445TIP3    H222300   5.916   2.315   3.225 -1.6121  0.1299 -0.0695
 7446TIP3   OH222301   3.954   6.287   5.080 -0.3086 -0.5843 -0.5577
 7446TIP3    H122302   3.861   6.302   5.096 -0.1649 -1.4211  1.2681
 7446TIP3    H222303   3.985   6.370   5.042 -1.7507 -0.2651 -1.1212
 7447TIP3   OH222304   0.340   5.918   4.461  0.7908 -0.1341  0.0010
 7447TIP3    H122305   0.426   5.875   4.470 -0.5589 -3.1082  0.0006
 7447TIP3    H222306   0.302   5.879   4.383 -1.3067 -0.3356  1.0630
 7448TIP3   OH222307   3.160   2.524   5.141  0.0934  0.1087 -0.3736
 7448TIP3    H122308   3.193   2.436   5.120  0.4082  0.0557  0.3116
 7448TIP3    H222309   3.233   2.582   5.117  0.1058  0.1296 -0.2845
 7449TIP3   OH222310   3.305   1.756   1.520 -0.2893 -0.3587  0.0795
 7449TIP3    H122311   3.325   1.806   1.441 -0.2278 -1.1668 -0.4308
 7449TIP3    H222312   3.215   1.725   1.506  0.4248 -2.2681 -0.6690
 7450TIP3   OH222313   2.730   5.561   4.112  0.3410  0.0425  0.0056
 7450TIP3    H122314   2.756   5.539   4.201 -0.7305  1.0170  0.5880
 7450TIP3    H222315   2.802   5.615   4.079  0.5104  0.1104  0.4727
 7451TIP3   OH222316   6.946   3.174   3.573 -0.7438 -0.0823  0.3056
 7451TIP3    H122317   6.890   3.250   3.559  0.7724  0.7141 -1.9241
 7451TIP3    H222318   6.894   3.100   3.543 -1.3684  0.3724  0.2485
 7452TIP3   OH222319   3.161   3.050   4.946 -0.1632  0.7035  0.3268
 7452TIP3    H122320   3.191   3.074   4.858  2.0244 -1.0644  0.5100
 7452TIP3    H222321   3.219   3.097   5.005 -0.6061  0.6288  0.8296
 7453TIP3   OH222322   5.631   6.716   1.525  0.5144 -0.0327 -0.2497
 7453TIP3    H122323   5.543   6.742   1.551  0.3480 -0.1327 -0.7086
 7453TIP3    H222324   5.619   6.670   1.442  1.0520  0.4055 -0.5777
 7454TIP3   OH222325   5.344   6.278   5.380 -0.0558  0.7530 -0.7164
 7454TIP3    H122326   5.256   6.253   5.352 -1.0231  2.7043  0.3616
 7454TIP3    H222327   5.403   6.231   5.321 -1.7911 -0.8901 -1.2247
 7455TIP3   OH222328   1.762   2.883   3.229  0.0455  0.1611  0.2175
 7455TIP3    H122329   1.782   2.829   3.306  0.4721  1.3853  1.0014
 7455TIP3    H222330   1.693   2.943   3.259 -1.9375 -1.2659 -1.2495
 7456TIP3   OH222331   5.901   4.295   3.246  0.2034  0.2492  0.5316
 7456TIP3    H122332   5.850   4.215   3.237  1.0932 -0.6864  2.9919
 7456TIP3    H222333   5.978   4.280   3.191  0.1652 -0.4175  0.6492
 7457TIP3   OH222334   5.901   0.327   3.578  0.2418  0.0212 -0.3169
 7457TIP3    H122335   5.989   0.294   3.559  0.2770  0.2192 -0.5106
 7457TIP3    H222336   5.890   0.317   3.672  0.6051  0.3162 -0.2425
 7458TIP3   OH222337   1.274   3.783   2.504 -0.4795  0.2023  0.4566
 7458TIP3    H122338   1.280   3.703   2.452  0.5886  1.4143 -1.4135
 7458TIP3    H222339   1.236   3.755   2.587  2.7735 -2.8664  1.1697
 7459TIP3   OH222340   2.239   5.622   1.080  0.1302 -0.1444 -0.3704
 7459TIP3    H122341   2.182   5.611   1.004  0.1776 -1.2595 -0.2590
 7459TIP3    H222342   2.188   5.676   1.140 -1.0912 -1.6311 -0.0126
 7460TIP3   OH222343   3.527   3.135   4.782  0.3184 -0.1518  0.0277
 7460TIP3    H122344   3.528   3.109   4.874  2.1712 -1.1226 -0.2168
 7460TIP3    H222345   3.482   3.220   4.782  0.0631 -0.2441  1.7908
 7461TIP3   OH222346   4.246   4.492   1.094  0.2228 -0.2728  1.0395
 7461TIP3    H122347   4.268   4.517   1.183  0.2418  0.2003  0.9052
 7461TIP3    H222348   4.284   4.561   1.039 -0.7339  0.0321  0.7373
 7462TIP3   OH222349   1.169   2.330   3.833 -0.4571 -0.1833  0.4157
 7462TIP3    H122350   1.091   2.287   3.800 -0.9401  2.2832 -2.1032
 7462TIP3    H222351   1.239   2.266   3.820 -1.4500 -1.0355 -1.0703
 7463TIP3   OH222352   5.863   2.993   1.386 -0.1892  0.2387  0.3470
 7463TIP3    H122353   5.785   3.018   1.435 -0.0789  1.1052  0.0965
 7463TIP3    H222354   5.934   2.996   1.450 -0.1766  0.5799  0.3182
 7464TIP3   OH222355   6.459   1.776   4.183  0.2098  0.2173  0.2383
 7464TIP3    H122356   6.395   1.740   4.245 -0.7215 -0.8097 -1.2421
 7464TIP3    H222357   6.428   1.865   4.166 -0.7193 -0.1846 -0.2730
 7465TIP3   OH222358   1.371   5.670   0.898 -0.1329  0.1586 -0.0981
 7465TIP3    H122359   1.339   5.593   0.946  0.6014 -0.8027 -1.0905
 7465TIP3    H222360   1.426   5.716   0.961  0.8751 -1.1244 -0.0030
 7466TIP3   OH222361   1.827   5.342   3.577  0.3743  0.3386  0.3623
 7466TIP3    H122362   1.870   5.427   3.564 -1.1809  1.5391  2.3725
 7466TIP3    H222363   1.771   5.331   3.501 -0.3483  1.7747  0.6493
 7467TIP3   OH222364   3.164   0.815   2.808  0.4466 -0.1718 -0.1715
 7467TIP3    H122365   3.140   0.906   2.792  0.9731  0.1391  0.7568
 7467TIP3    H222366   3.080   0.768   2.804  0.3411  0.0914 -2.1820
 7468TIP3   OH222367   2.806   5.542   0.597  0.2860 -0.5154 -0.0836
 7468TIP3    H122368   2.771   5.543   0.508  1.1233 -0.5941 -0.4258
 7468TIP3    H222369   2.848   5.627   0.607  1.7417 -1.1750 -0.4113
 7469TIP3   OH222370   6.104   3.207   0.844  0.2241  0.3787  0.1788
 7469TIP3    H122371   6.065   3.207   0.757  0.8036  1.8505 -0.1157
 7469TIP3    H222372   6.178   3.147   0.838 -0.0915  0.0174 -0.1575
 7470TIP3   OH222373   2.941   1.184   2.987  0.0767  0.3954  0.1129
 7470TIP3    H122374   2.906   1.273   2.976 -1.2354  0.0850  1.5102
 7470TIP3    H222375   2.939   1.168   3.081  2.5442 -0.2714  0.1106
 7471TIP3   OH222376   1.532   3.622   5.218 -0.3538 -0.3760  0.3123
 7471TIP3    H122377   1.534   3.596   5.125 -0.3494 -0.5813  0.3688
 7471TIP3    H222378   1.552   3.541   5.265  1.7917  0.1396  0.4222
 7472TIP3   OH222379   5.937   1.148   2.636 -0.0445 -0.2070  0.2152
 7472TIP3    H122380   5.868   1.214   2.627 -0.1149  0.1401  2.6143
 7472TIP3    H222381   5.894   1.066   2.613 -1.1678  0.0628  1.2211
 7473TIP3   OH222382   1.881   0.430   1.603  0.2614  0.7099  0.1152
 7473TIP3    H122383   1.861   0.347   1.559 -0.7199  1.3953 -0.7825
 7473TIP3    H222384   1.883   0.494   1.533  0.6754  1.5085  0.8477
 7474TIP3   OH222385   0.117   0.686   4.043  0.1883 -0.2374 -0.4117
 7474TIP3    H122386   0.039   0.701   3.989  0.1409 -0.3544 -0.3780
 7474TIP3    H222387   0.160   0.771   4.049  0.3172 -0.2758 -0.8265
 7475TIP3   OH222388   3.960   1.213   5.059 -0.0764  0.0357  0.7514
 7475TIP3    H122389   3.923   1.299   5.080 -0.0540  0.3202 -0.2997
 7475TIP3    H222390   3.884   1.155   5.051 -0.2775  0.4401 -0.5977
 7476TIP3   OH222391   5.281   2.546   2.362 -0.2874 -0.6209  0.3974
 7476TIP3    H122392   5.196   2.580   2.333  0.2387  1.3917  1.0579
 7476TIP3    H222393   5.260   2.464   2.407 -1.9649  0.2040  1.1830
 7477TIP3   OH222394   0.765   1.934   5.058 -0.0103  0.0676  0.2855
 7477TIP3    H122395   0.669   1.930   5.060 -0.0622  1.0209  0.2052
 7477TIP3    H222396   0.792   1.851   5.018 -0.7910 -0.3063  0.5219
 7478TIP3   OH222397   2.921   0.218   1.426  0.1154 -0.2928  0.3334
 7478TIP3    H122398   2.968   0.272   1.491 -0.5576  0.0911  0.5095
 7478TIP3    H222399   2.970   0.231   1.345 -0.2894  0.9572  0.2657
 7479TIP3   OH222400   3.318   4.810   1.978  0.5558 -0.0603  0.2296
 7479TIP3    H122401   3.275   4.797   1.893  0.2226 -1.4167  0.5760
 7479TIP3    H222402   3.304   4.727   2.025  2.2334  0.0234  0.9509
 7480TIP3   OH222403   0.066   6.637   4.068  0.4002  0.4492  0.3059
 7480TIP3    H122404   0.007   6.566   4.044  0.5604  0.7108 -0.9488
 7480TIP3    H222405   0.145   6.593   4.099  0.1526  0.0810  0.4181
 7481TIP3   OH222406   3.247   0.943   0.892 -0.0788  0.1112 -0.2756
 7481TIP3    H122407   3.210   0.891   0.963 -1.7905 -0.1731 -1.3096
 7481TIP3    H222408   3.292   0.879   0.836  1.3469  0.3467  0.5439
 7482TIP3   OH222409   0.995   5.232   2.124  0.0555 -0.2509  0.3422
 7482TIP3    H122410   0.992   5.222   2.029  2.1048  0.5701  0.1444
 7482TIP3    H222411   0.974   5.324   2.138  2.5363  0.3764  0.4004
 7483TIP3   OH222412   0.989   5.665   3.488 -0.1029 -0.0152  0.2130
 7483TIP3    H122413   1.056   5.732   3.500  0.6308 -0.7059  0.0214
 7483TIP3    H222414   0.984   5.653   3.393 -0.7475  0.2783  0.2066
 7484TIP3   OH222415   3.529   1.023   1.870 -0.1585  0.1231  0.3198
 7484TIP3    H122416   3.576   0.956   1.820 -1.8959  0.9191 -2.6305
 7484TIP3    H222417   3.442   0.985   1.886 -1.3568  1.7195 -1.8722
 7485TIP3   OH222418   4.233   5.606   3.718  0.0562  0.1721 -0.3087
 7485TIP3    H122419   4.289   5.600   3.640  0.1479  0.3349 -0.2569
 7485TIP3    H222420   4.175   5.681   3.700  0.0740  0.2065 -0.2227
 7486TIP3   OH222421   6.735   5.364   5.117 -0.0251  0.1395  0.2530
 7486TIP3    H122422   6.807   5.301   5.115  0.6564  0.9136 -0.0802
 7486TIP3    H222423   6.709   5.368   5.209 -0.1362 -0.6798  0.2647
 7487TIP3   OH222424  -0.013   6.084   4.849 -0.5987  0.3759  0.8329
 7487TIP3    H122425   0.071   6.077   4.803 -0.9701 -1.2779  0.3693
 7487TIP3    H222426  -0.044   6.172   4.828  0.4328  0.5644  0.0024
 7488TIP3   OH222427   0.178   1.900   4.574  0.6152 -0.3711  0.0705
 7488TIP3    H122428   0.210   1.815   4.544 -0.0353 -0.6725  0.2011
 7488TIP3    H222429   0.083   1.894   4.566  0.5458  0.2580  0.3204
 7489TIP3   OH222430   4.929   3.778   5.296 -0.3158  0.2091 -0.5224
 7489TIP3    H122431   4.924   3.790   5.391 -0.2974 -1.1755 -0.3305
 7489TIP3    H222432   5.005   3.720   5.284  0.3920  1.2923 -1.4809
 7490TIP3   OH222433   0.774   6.174   1.482 -0.0373 -0.0381 -0.0076
 7490TIP3    H122434   0.789   6.267   1.500 -3.0969  0.3587  1.0617
 7490TIP3    H222435   0.799   6.129   1.563  1.5005 -0.2127 -0.5455
 7491TIP3   OH222436   4.925   1.415   4.058  1.1230 -0.1471  0.0629
 7491TIP3    H122437   4.917   1.494   4.111 -2.0469 -0.4665  0.2511
 7491TIP3    H222438   4.981   1.357   4.109  1.4603  1.0573  1.1111
 7492TIP3   OH222439   1.357   2.393   1.761 -0.0900  0.5846 -0.1991
 7492TIP3    H122440   1.425   2.376   1.696  1.1469  1.3299  0.8433
 7492TIP3    H222441   1.294   2.450   1.717 -0.5121 -0.7914 -1.4470
 7493TIP3   OH222442   5.596   4.599   2.070 -0.8736 -0.2595 -0.2418
 7493TIP3    H122443   5.639   4.523   2.108 -2.3780 -1.0427 -0.0105
 7493TIP3    H222444   5.660   4.669   2.077  0.3955 -1.4037 -0.0740
 7494TIP3   OH222445   6.642   2.235   0.304  0.0168 -0.5229  0.6294
 7494TIP3    H122446   6.560   2.283   0.309  1.0612  1.4168 -0.0674
 7494TIP3    H222447   6.638   2.174   0.379 -0.8553  1.4851  2.3205
 7495TIP3   OH222448   4.106   1.151   0.442  0.4120 -0.0664 -0.4112
 7495TIP3    H122449   4.078   1.166   0.351  0.2220 -0.0933 -0.3575
 7495TIP3    H222450   4.035   1.100   0.481  1.6714 -2.4243 -0.9880
 7496TIP3   OH222451   4.430   4.385   4.950 -0.2074  0.0843 -0.1995
 7496TIP3    H122452   4.420   4.477   4.925  0.3339  0.1690 -0.1152
 7496TIP3    H222453   4.502   4.353   4.896  1.2457  0.3705  1.4734
 7497TIP3   OH222454   5.195   5.841   2.936  0.4208  0.6222 -0.2360
 7497TIP3    H122455   5.170   5.785   2.862  0.2245  1.9454 -1.2150
 7497TIP3    H222456   5.291   5.834   2.939  0.3657 -0.1930  0.0253
 7498TIP3   OH222457   1.370   1.815   5.188  0.3544 -0.1245 -0.0375
 7498TIP3    H122458   1.305   1.828   5.120 -0.3794 -0.8364  0.4994
 7498TIP3    H222459   1.341   1.870   5.261  1.7209  1.4773 -0.6398
 7499TIP3   OH222460   2.154   1.439   5.663 -0.3041  0.0418 -0.1231
 7499TIP3    H122461   2.151   1.431   5.759  1.1320  0.8139  0.0142
 7499TIP3    H222462   2.242   1.471   5.644 -1.0574  1.3949 -1.5905
 7500TIP3   OH222463   6.719   3.916   1.794 -0.1716  0.4629  0.0733
 7500TIP3    H122464   6.761   3.836   1.827 -0.1230  0.1217 -0.7957
 7500TIP3    H222465   6.735   3.981   1.862  2.1018  0.4454 -0.3647
 7501TIP3   OH222466   3.385   1.788   3.455  0.0573 -0.8358 -0.2772
 7501TIP3    H122467   3.423   1.725   3.393 -1.2710 -1.5689 -0.3892
 7501TIP3    H222468   3.292   1.765   3.459 -0.1546  0.0983  0.9311
 7502TIP3   OH222469   2.997   1.093   5.704  0.3388  0.0025 -0.0961
 7502TIP3    H122470   3.048   1.056   5.776 -0.0437 -2.4506 -0.9987
 7502TIP3    H222471   3.051   1.079   5.626 -0.5251 -0.1393 -0.6857
 7503TIP3   OH222472   4.414   4.036   0.564 -0.0291 -0.2333 -0.2004
 7503TIP3    H122473   4.403   3.941   0.570  0.0009 -0.2672 -0.6555
 7503TIP3    H222474   4.349   4.072   0.624  2.2324 -0.6229  2.7407
 7504TIP3   OH222475   3.147   6.443   5.729  0.8143  0.1843  0.0030
 7504TIP3    H122476   3.147   6.475   5.819 -0.6435  1.7866 -0.4971
 7504TIP3    H222477   3.062   6.470   5.694 -0.7160 -4.4648 -0.5377
 7505TIP3   OH222478   0.790   0.730   2.119 -0.2403  0.4070  0.4348
 7505TIP3    H122479   0.851   0.794   2.082  0.5578  0.3639  1.6144
 7505TIP3    H222480   0.841   0.649   2.125 -0.1654  0.5358  2.0505
 7506TIP3   OH222481   5.761   0.261   4.605 -0.1550 -0.5156 -0.2264
 7506TIP3    H122482   5.738   0.175   4.569  0.1192 -0.0654 -1.5325
 7506TIP3    H222483   5.708   0.269   4.684  0.9229 -2.5284  0.7959
 7507TIP3   OH222484   0.647   3.767   0.616 -0.4116 -0.0530 -0.1123
 7507TIP3    H122485   0.639   3.702   0.546  0.2187 -0.5442  0.2572
 7507TIP3    H222486   0.715   3.732   0.673  0.0686  1.0350  0.0026
 7508TIP3   OH222487   1.290   5.847   5.757 -0.0350 -0.0950 -0.1607
 7508TIP3    H122488   1.337   5.886   5.831 -1.3088  1.7794 -0.2900
 7508TIP3    H222489   1.282   5.754   5.781  2.4838 -0.2097  0.4686
 7509TIP3   OH222490   6.110   0.498   5.497  0.1699 -0.5452  0.5172
 7509TIP3    H122491   6.173   0.526   5.431  0.7606 -0.7595  0.9815
 7509TIP3    H222492   6.030   0.546   5.476  0.1442 -1.1162 -0.7495
 7510TIP3   OH222493   6.655   0.380   4.913 -0.0717  0.1678 -0.3939
 7510TIP3    H122494   6.638   0.462   4.960  3.1859  0.4322  0.5877
 7510TIP3    H222495   6.671   0.407   4.823 -1.0519  0.3090 -0.5416
 7511TIP3   OH222496   5.607   4.614   5.126  0.1734  0.4152 -0.1788
 7511TIP3    H122497   5.677   4.616   5.061  1.5218  0.6831  1.2204
 7511TIP3    H222498   5.653   4.612   5.210 -1.4533  3.1690  0.8956
 7512TIP3   OH222499   2.407   6.393   4.212  0.3704 -0.5686  0.1815
 7512TIP3    H122500   2.410   6.369   4.304  3.4113  1.3522  0.7176
 7512TIP3    H222501   2.499   6.406   4.187 -0.2733 -1.7705 -3.3667
 7513TIP3   OH222502   5.650   5.128   5.673  0.1422  0.7703  0.1394
 7513TIP3    H122503   5.594   5.202   5.696 -0.9865 -0.0750  0.1730
 7513TIP3    H222504   5.650   5.126   5.577  0.0572  0.7370  0.1397
 7514TIP3   OH222505   6.277   4.709   2.610 -0.5491  0.3286  0.1664
 7514TIP3    H122506   6.242   4.626   2.579 -1.7879  1.4150 -1.5289
 7514TIP3    H222507   6.372   4.694   2.615 -0.7224 -1.1148 -0.3077
 7515TIP3   OH222508   4.116   5.000   1.842  0.1501 -0.3753  0.1180
 7515TIP3    H122509   4.196   5.037   1.879 -0.3874 -0.8469  1.8176
 7515TIP3    H222510   4.049   5.068   1.856  0.3653  0.3586 -2.0178
 7516TIP3   OH222511   2.728   0.814   4.764  0.1149 -0.0465  0.3131
 7516TIP3    H122512   2.700   0.868   4.838 -1.5163  0.2564 -0.4939
 7516TIP3    H222513   2.734   0.725   4.800  0.5146  0.2789  1.0765
 7517TIP3   OH222514   2.486   4.961   3.086 -0.1674  0.8546 -0.4757
 7517TIP3    H122515   2.453   4.975   3.175  0.2757  1.8416 -0.4573
 7517TIP3    H222516   2.408   4.953   3.032 -0.4403  1.0617 -0.1117
 7518TIP3   OH222517   2.285   3.283   3.384 -0.3643 -0.2171  0.1997
 7518TIP3    H122518   2.295   3.312   3.475  1.6174  0.5706 -0.2143
 7518TIP3    H222519   2.345   3.339   3.334 -0.6406 -1.3248 -1.4614
 7519TIP3   OH222520   7.082   2.435   3.669 -0.1580 -0.2070  0.2918
 7519TIP3    H122521   7.122   2.349   3.685  0.8982  0.3061  0.4901
 7519TIP3    H222522   7.104   2.486   3.747  0.9438  0.8509 -0.6719
 7520TIP3   OH222523   6.572   4.737   2.583  0.2481 -0.0222 -0.5139
 7520TIP3    H122524   6.591   4.760   2.674  1.3654  0.8973 -0.9640
 7520TIP3    H222525   6.557   4.821   2.540 -0.1947 -0.4487 -1.2105
 7521TIP3   OH222526   5.801   5.369   0.481  0.4968 -0.5005  0.5398
 7521TIP3    H122527   5.879   5.362   0.536  0.3597 -0.8782  0.6862
 7521TIP3    H222528   5.747   5.435   0.526  0.2893 -0.9646  0.9753
 7522TIP3   OH222529   1.162   1.572   5.041  0.2568  0.1131  0.1665
 7522TIP3    H122530   1.153   1.664   5.017 -2.7447 -0.2973 -0.6988
 7522TIP3    H222531   1.114   1.564   5.123  0.8613 -0.6192  0.4594
 7523TIP3   OH222532   3.000   3.304   4.666  0.0041 -0.3557  0.2999
 7523TIP3    H122533   3.012   3.394   4.697  0.7055 -0.9771  1.9555
 7523TIP3    H222534   3.089   3.274   4.647 -0.3029 -0.4521 -1.0258
 7524TIP3   OH222535   2.695   1.042   3.537 -0.0126  0.7968 -0.3333
 7524TIP3    H122536   2.719   1.085   3.619  1.8839 -0.1704 -0.3227
 7524TIP3    H222537   2.710   0.949   3.553  1.8710  0.7061 -2.1936
 7525TIP3   OH222538   1.901   0.209   5.135 -1.0720 -1.5745 -0.0543
 7525TIP3    H122539   1.890   0.222   5.229  1.3746  1.1047 -0.0017
 7525TIP3    H222540   1.828   0.256   5.096 -1.1493 -1.2512  0.4724
 7526TIP3   OH222541   1.743   3.655   1.834 -0.2770 -0.3328 -0.3691
 7526TIP3    H122542   1.745   3.750   1.825 -1.9808 -0.4061 -2.3852
 7526TIP3    H222543   1.765   3.623   1.746 -0.0597 -1.7935  0.1955
 7527TIP3   OH222544   1.394   1.372   5.057  0.8867 -0.1255 -0.3696
 7527TIP3    H122545   1.362   1.332   5.138 -0.0073  0.0348 -0.6342
 7527TIP3    H222546   1.321   1.426   5.026  0.4337 -1.7146 -2.3209
 7528TIP3   OH222547   6.778   5.035   1.822 -0.0906  0.4496 -0.2871
 7528TIP3    H122548   6.708   4.986   1.778 -0.4651  1.1650 -0.4899
 7528TIP3    H222549   6.823   5.081   1.752  0.8639 -0.3413 -0.2085
 7529TIP3   OH222550   3.840   2.642   1.644 -0.7188  0.3810  0.2740
 7529TIP3    H122551   3.889   2.715   1.606 -1.1448 -0.3752 -1.8777
 7529TIP3    H222552   3.749   2.658   1.619 -0.7347 -1.1827 -0.8419
 7530TIP3   OH222553   3.551   0.847   3.088  0.1835 -0.3128 -0.3456
 7530TIP3    H122554   3.573   0.865   2.997 -2.8555  1.3678 -0.8896
 7530TIP3    H222555   3.503   0.925   3.117  0.3310 -1.1482  2.4398
 7531TIP3   OH222556   6.630   5.249   2.511  0.3088  0.2418  0.6737
 7531TIP3    H122557   6.594   5.338   2.509 -0.9396 -0.2384  0.3568
 7531TIP3    H222558   6.697   5.248   2.444  0.9417  1.1782  1.2705
 7532TIP3   OH222559   4.071   5.867   2.023 -0.4460 -0.3622 -0.0351
 7532TIP3    H122560   4.128   5.823   1.960  0.8219  2.4103 -0.9817
 7532TIP3    H222561   4.131   5.916   2.079 -1.7175  3.0788 -1.3841
 7533TIP3   OH222562   5.383   6.185   3.770  0.7359 -0.5190 -0.2608
 7533TIP3    H122563   5.359   6.108   3.822 -0.0180  0.2532  0.5791
 7533TIP3    H222564   5.337   6.174   3.687 -0.7882 -0.1533  0.4971
 7534TIP3   OH222565   5.168   3.607   2.963 -1.1463  0.2805 -0.2261
 7534TIP3    H122566   5.214   3.688   2.985  0.6030 -0.5347 -0.7272
 7534TIP3    H222567   5.197   3.586   2.874 -0.4481 -1.6051  0.3962
 7535TIP3   OH222568   5.274   6.218   5.759  0.0602  0.0405 -0.0220
 7535TIP3    H122569   5.222   6.296   5.742  0.5217  0.2225 -0.6343
 7535TIP3    H222570   5.351   6.228   5.703  1.3830  0.3818  1.7673
 7536TIP3   OH222571   1.543   3.015   0.857  0.0991  0.2033 -0.2045
 7536TIP3    H122572   1.452   3.039   0.837  0.5908 -0.0485 -3.1811
 7536TIP3    H222573   1.535   2.951   0.927 -2.1608 -0.6410 -1.1220
 7537TIP3   OH222574   6.443   4.030   1.753 -0.1455 -0.8782 -0.9923
 7537TIP3    H122575   6.532   4.005   1.779 -0.4856  0.2837  1.5481
 7537TIP3    H222576   6.388   3.958   1.784 -0.3398 -0.4096 -0.2208
 7538TIP3   OH222577   2.761   2.675   2.891 -0.1068  0.2018 -0.2828
 7538TIP3    H122578   2.734   2.760   2.924  0.8840 -0.6767  3.2309
 7538TIP3    H222579   2.835   2.694   2.833 -2.2736  1.8917 -2.6923
 7539TIP3   OH222580   4.856   5.962   4.076  0.7239 -1.3763 -0.3086
 7539TIP3    H122581   4.882   5.939   3.987 -0.2043 -1.8279 -0.4763
 7539TIP3    H222582   4.761   5.950   4.077  0.5609 -0.1517  0.3864
 7540TIP3   OH222583   0.502   0.813   5.109 -0.8409 -0.4626  0.0287
 7540TIP3    H122584   0.555   0.737   5.084  0.7932  0.3999  0.7315
 7540TIP3    H222585   0.523   0.879   5.043 -1.2134 -0.1634  0.2082
 7541TIP3   OH222586   2.341   6.214   1.567 -0.0833 -0.3156 -0.2918
 7541TIP3    H122587   2.326   6.146   1.501 -0.2217 -1.0371  0.4623
 7541TIP3    H222588   2.418   6.184   1.615 -1.1084 -0.8393  1.1222
 7542TIP3   OH222589   1.005   0.623   1.092 -0.0953  0.5071  0.2911
 7542TIP3    H122590   0.982   0.674   1.014  0.5890 -0.5867 -0.6579
 7542TIP3    H222591   0.937   0.557   1.100  0.6770 -0.3983 -0.3535
 7543TIP3   OH222592   6.213   3.774   2.484  0.4344 -0.1322 -0.4263
 7543TIP3    H122593   6.133   3.726   2.505 -0.8783  1.3197 -1.8513
 7543TIP3    H222594   6.252   3.795   2.569  1.9442 -4.8781  0.3297
 7544TIP3   OH222595   2.771   4.477   2.865 -0.4804 -0.1281 -0.9088
 7544TIP3    H122596   2.828   4.524   2.805  1.1686  0.2737  0.8785
 7544TIP3    H222597   2.743   4.542   2.929 -0.7415 -0.9128 -0.2025
 7545TIP3   OH222598   5.450   3.551   3.193 -0.3492  0.5236 -0.3105
 7545TIP3    H122599   5.479   3.474   3.242 -1.6975 -0.3444 -0.8360
 7545TIP3    H222600   5.530   3.602   3.178  0.5701 -0.8077 -0.0136
 7546TIP3   OH222601   4.924   6.229   0.035  0.3823  0.0736  0.4025
 7546TIP3    H122602   4.940   6.244   0.128  0.2625  0.6268  0.3419
 7546TIP3    H222603   4.985   6.160   0.011  0.1780 -0.3119  0.9666
 7547TIP3   OH222604   2.804   2.076   4.392 -0.1934 -0.5390  0.2259
 7547TIP3    H122605   2.882   2.131   4.394  0.2838 -0.9877 -2.3665
 7547TIP3    H222606   2.762   2.089   4.477  1.4271  1.5659  0.7595
 7548TIP3   OH222607   2.575   0.792   2.759  0.7626 -0.0226  0.0399
 7548TIP3    H122608   2.627   0.871   2.746  1.1713 -0.3822 -0.5183
 7548TIP3    H222609   2.517   0.814   2.833  1.5571  0.4451  0.5411
 7549TIP3   OH222610   3.200   3.406   2.491  0.4283 -0.0766  0.1720
 7549TIP3    H122611   3.145   3.331   2.516  0.3971 -0.2596 -0.4087
 7549TIP3    H222612   3.242   3.434   2.572 -0.8002  0.2954  0.7023
 7550TIP3   OH222613   0.973   2.180   5.139 -0.0740  0.6789 -0.1919
 7550TIP3    H122614   0.898   2.194   5.081 -1.1198  0.9241  1.1747
 7550TIP3    H222615   1.050   2.193   5.082 -1.0267  2.6672 -1.1482
 7551TIP3   OH222616   2.402   3.050   5.813 -0.1817 -0.0989 -0.3957
 7551TIP3    H122617   2.398   3.029   5.720 -1.1687 -1.2695 -0.1095
 7551TIP3    H222618   2.441   2.973   5.854 -0.0382  0.2788  0.1958
 7552TIP3   OH222619   3.655   3.322   0.032 -0.2339 -0.1859  0.8531
 7552TIP3    H122620   3.748   3.301   0.025  0.1590  1.6153 -0.1633
 7552TIP3    H222621   3.634   3.363  -0.052 -1.7724  0.0697  1.3338
 7553TIP3   OH222622   6.816   0.413   1.329 -0.3740  0.0457  0.0749
 7553TIP3    H122623   6.818   0.334   1.276  0.3607 -0.5752  1.0112
 7553TIP3    H222624   6.906   0.446   1.327 -0.0173 -0.7159  1.9916
 7554TIP3   OH222625   0.460   0.402   1.747 -0.3026  0.4258 -0.0073
 7554TIP3    H122626   0.405   0.466   1.701  0.9643  2.7157  1.4502
 7554TIP3    H222627   0.438   0.414   1.840  0.2657 -1.0091  0.3443
 7555TIP3   OH222628   0.044   1.849   4.205 -0.2148  0.5446  0.3128
 7555TIP3    H122629  -0.016   1.782   4.173 -0.6643  0.5779  1.0604
 7555TIP3    H222630   0.124   1.801   4.228  0.8124  0.7241 -2.4474
 7556TIP3   OH222631   2.382   6.793   2.968  0.8642 -0.3119  0.0827
 7556TIP3    H122632   2.384   6.808   3.062  1.8036  1.2931 -0.1697
 7556TIP3    H222633   2.294   6.757   2.952  0.7723 -0.8236  1.5757
 7557TIP3   OH222634   1.572   3.264   1.382  0.1054  0.4212  0.6256
 7557TIP3    H122635   1.654   3.236   1.423  1.7282  1.8532 -1.4400
 7557TIP3    H222636   1.528   3.317   1.449  0.9668 -0.1512  1.6697
 7558TIP3   OH222637   4.712   2.238   1.309 -0.1801 -0.6789 -0.1645
 7558TIP3    H122638   4.766   2.311   1.340 -1.0320 -0.5005  0.9416
 7558TIP3    H222639   4.711   2.249   1.213 -0.4381  0.8666 -0.0155
 7559TIP3   OH222640   6.162   2.469   1.823  0.1109  0.3099  0.2542
 7559TIP3    H122641   6.136   2.502   1.909 -0.4660  2.0456 -0.5336
 7559TIP3    H222642   6.227   2.532   1.792 -0.3691  0.2515 -0.9393
 7560TIP3   OH222643   1.608   4.895   5.091 -0.1123  0.2360  0.1658
 7560TIP3    H122644   1.518   4.913   5.064 -0.2343  0.8676  0.9638
 7560TIP3    H222645   1.608   4.803   5.115 -0.7225  0.4033  0.8292
 7561TIP3   OH222646   0.886   1.328   2.150 -0.2830 -0.0460 -0.3977
 7561TIP3    H122647   0.894   1.362   2.238  4.8209  1.7515 -1.2202
 7561TIP3    H222648   0.953   1.259   2.144 -0.9450 -0.6057 -2.6502
 7562TIP3   OH222649   3.978   3.645   1.786 -0.0173 -0.3249  0.1039
 7562TIP3    H122650   3.933   3.633   1.703  1.9516 -0.8228 -0.9522
 7562TIP3    H222651   4.017   3.732   1.779  2.3538 -1.3697 -0.6760
 7563TIP3   OH222652   1.734   2.310   5.890  1.1273 -0.2290  0.1185
 7563TIP3    H122653   1.781   2.357   5.822  0.5865 -0.5420 -0.4824
 7563TIP3    H222654   1.775   2.223   5.893 -0.0412 -0.8607 -1.1236
 7564TIP3   OH222655   7.179   1.012   4.097 -0.5083 -0.2573 -0.2776
 7564TIP3    H122656   7.275   1.002   4.098 -0.6409 -1.8243  1.0106
 7564TIP3    H222657   7.163   1.099   4.133  0.4409  0.6321 -1.8564
 7565TIP3   OH222658   0.454   4.078   2.141 -0.0995 -0.2074 -0.2433
 7565TIP3    H122659   0.481   4.016   2.209  2.5837  0.2877 -0.7583
 7565TIP3    H222660   0.494   4.046   2.061 -0.0558  1.2609 -0.8456
 7566TIP3   OH222661   7.037   6.377   2.820 -0.3161 -0.1176 -0.6344
 7566TIP3    H122662   7.037   6.303   2.882 -0.3566  0.3072 -0.1164
 7566TIP3    H222663   7.094   6.442   2.861  1.0742 -0.4899 -1.8744
 7567TIP3   OH222664   2.348   6.688   4.793 -0.7311  0.2262  0.2584
 7567TIP3    H122665   2.363   6.778   4.822 -1.1409 -0.1129  1.5789
 7567TIP3    H222666   2.434   6.656   4.767 -0.5137  0.8637  0.1843
 7568TIP3   OH222667   3.534   5.778   0.791 -0.2050  0.6683 -0.2345
 7568TIP3    H122668   3.576   5.795   0.707 -2.3823  0.3698 -1.4570
 7568TIP3    H222669   3.489   5.695   0.779  2.5690 -1.4698  2.5663
 7569TIP3   OH222670   2.450   2.291   2.177 -0.2373  0.4998  0.6452
 7569TIP3    H122671   2.366   2.334   2.195  0.6259  2.8689 -0.5435
 7569TIP3    H222672   2.514   2.339   2.228  0.8858  1.2408 -1.3352
 7570TIP3   OH222673   0.676   3.704   4.470  0.1921 -0.4001 -0.5793
 7570TIP3    H122674   0.718   3.772   4.522 -1.0462 -0.9047  1.1754
 7570TIP3    H222675   0.739   3.684   4.400  1.0105  1.7782 -0.5237
 7571TIP3   OH222676   5.449   1.321   0.779 -0.1259  0.8220  0.1794
 7571TIP3    H122677   5.418   1.326   0.870 -4.3247 -0.7782 -0.9490
 7571TIP3    H222678   5.376   1.284   0.730  2.0787  1.2174 -3.8797
 7572TIP3   OH222679   0.244   5.970   5.309  0.0566  0.7965  0.0425
 7572TIP3    H122680   0.310   5.961   5.240  0.2116 -0.0653  0.2885
 7572TIP3    H222681   0.279   5.918   5.382 -0.5610  0.9160  0.4257
 7573TIP3   OH222682   6.482   6.078   2.745  0.3813  0.7995  0.2155
 7573TIP3    H122683   6.386   6.082   2.744  0.3555  0.3632  0.5894
 7573TIP3    H222684   6.503   6.019   2.818  0.9607  1.5895  0.7056
 7574TIP3   OH222685   0.372   2.612   4.578 -0.6926 -0.3539 -0.4654
 7574TIP3    H122686   0.342   2.666   4.505  0.3697  1.3539  0.2964
 7574TIP3    H222687   0.465   2.597   4.561 -0.3810  0.2447  0.6139
 7575TIP3   OH222688   6.527   1.286   0.860 -0.6259 -0.0603  0.4006
 7575TIP3    H122689   6.431   1.288   0.867 -0.6676  0.8678 -0.4006
 7575TIP3    H222690   6.557   1.308   0.948 -1.1259 -1.2596  0.9067
 7576TIP3   OH222691   1.326   1.627   3.684  0.3040 -0.0362  0.4675
 7576TIP3    H122692   1.393   1.653   3.621  0.9568 -0.5907  0.9260
 7576TIP3    H222693   1.245   1.666   3.650  0.9993  1.3829  0.3672
 7577TIP3   OH222694   1.335   1.941   4.103 -0.6462  0.2013 -0.4331
 7577TIP3    H122695   1.303   1.858   4.138 -1.5990  0.2656 -1.1034
 7577TIP3    H222696   1.430   1.934   4.106 -0.7184 -0.8459 -0.3329
 7578TIP3   OH222697   3.448   0.870   4.498 -0.4258 -0.2135 -0.2652
 7578TIP3    H122698   3.460   0.927   4.573 -4.3676  0.4326  0.0975
 7578TIP3    H222699   3.478   0.784   4.528 -1.5275  0.1129  1.9845
 7579TIP3   OH222700   6.256   1.701   4.358  0.3721  0.2131 -0.2557
 7579TIP3    H122701   6.252   1.628   4.420 -1.8338  0.1693 -0.3899
 7579TIP3    H222702   6.238   1.779   4.411  0.4099  0.4052 -0.5254
 7580TIP3   OH222703   4.582   4.867   4.803 -0.2453  0.5545  0.1774
 7580TIP3    H122704   4.520   4.796   4.822  0.2040 -0.0109 -0.4249
 7580TIP3    H222705   4.535   4.923   4.740 -0.5298  0.6940  0.5121
 7581TIP3   OH222706   4.696   6.752   0.268 -0.3536 -0.6491  0.1821
 7581TIP3    H122707   4.691   6.679   0.206  0.9463  0.3708 -1.2055
 7581TIP3    H222708   4.610   6.793   0.262  0.0892  0.1205 -1.9109
 7582TIP3   OH222709   1.982   1.454   2.177 -0.3739  0.1664 -0.6593
 7582TIP3    H122710   1.903   1.430   2.226  0.4364 -1.9947 -0.3293
 7582TIP3    H222711   2.031   1.373   2.168  2.8012  1.7350  0.8706
 7583TIP3   OH222712   6.671   4.813   1.186 -0.2349  0.1181  0.7625
 7583TIP3    H122713   6.582   4.816   1.150 -0.4927 -1.7354  1.1766
 7583TIP3    H222714   6.677   4.728   1.230  1.6465  0.3377  1.0155
 7584TIP3   OH222715   0.125   1.844   0.978  0.1630  0.1515  0.2282
 7584TIP3    H122716   0.070   1.836   0.900  0.7235 -0.5999 -0.1006
 7584TIP3    H222717   0.088   1.781   1.040  1.4094 -1.3295 -0.4664
 7585TIP3   OH222718   5.730   6.196   4.968 -0.4664  0.0816  0.3312
 7585TIP3    H122719   5.773   6.111   4.967 -0.4400  0.0902  0.5952
 7585TIP3    H222720   5.664   6.191   4.899  1.3240  0.7824 -1.5432
 7586TIP3   OH222721   6.036   1.439   4.860 -0.0809  0.0201  0.0850
 7586TIP3    H122722   5.968   1.472   4.802 -0.5159  0.3883  0.7888
 7586TIP3    H222723   6.057   1.514   4.916 -0.4928 -0.6584  1.1616
 7587TIP3   OH222724   1.038   0.590   0.025  0.6579 -0.0282  0.4221
 7587TIP3    H122725   1.104   0.660   0.016 -0.0765  0.4492 -2.0372
 7587TIP3    H222726   1.086   0.510   0.008  1.2321 -0.0519  1.9535
 7588TIP3   OH222727   3.974   2.814   3.602  0.0605  0.6570  0.1591
 7588TIP3    H122728   4.039   2.749   3.575  0.7016  0.9943  0.8482
 7588TIP3    H222729   4.025   2.881   3.648 -0.7048  1.2176  0.1979
 7589TIP3   OH222730   5.326   4.518   4.108 -0.1153 -0.1897  0.2232
 7589TIP3    H122731   5.249   4.572   4.092  0.5283  0.8393  0.5418
 7589TIP3    H222732   5.336   4.518   4.204  0.6320  0.1791  0.1469
 7590TIP3   OH222733   0.065   5.308   0.738  0.1681  0.1958  0.2958
 7590TIP3    H122734   0.039   5.328   0.648 -0.3914 -2.1046 -0.1120
 7590TIP3    H222735   0.127   5.377   0.760  0.9552  0.3822 -2.1519
 7591TIP3   OH222736   3.795   6.650   5.262 -0.1691  0.8540  0.3363
 7591TIP3    H122737   3.712   6.662   5.309 -0.9163  0.5843 -0.8532
 7591TIP3    H222738   3.812   6.556   5.265  0.0280  0.8927  0.4619
 7592TIP3   OH222739   5.073   6.371   3.333  0.3200 -0.0998 -0.3235
 7592TIP3    H122740   5.077   6.466   3.321 -0.3531 -0.2450 -1.9245
 7592TIP3    H222741   4.979   6.352   3.339  0.4648 -0.6455  0.3488
 7593TIP3   OH222742   5.073   5.376   0.988 -0.9621  0.2703  0.5325
 7593TIP3    H122743   4.998   5.340   1.035 -2.1466 -0.0554 -1.4707
 7593TIP3    H222744   5.036   5.410   0.907  0.9845  0.6431 -0.2551
 7594TIP3   OH222745   3.573   1.877   1.943  0.3003 -0.3287 -0.0616
 7594TIP3    H122746   3.544   1.962   1.976  0.1930 -0.1816 -0.5306
 7594TIP3    H222747   3.578   1.822   2.021  0.3313  0.0955  0.2413
 7595TIP3   OH222748   4.986   0.392   5.095  0.1226 -0.3438  0.3088
 7595TIP3    H122749   5.024   0.309   5.067  1.4073  0.6572 -1.0360
 7595TIP3    H222750   5.027   0.410   5.180  0.5036 -0.6580  0.1930
 7596TIP3   OH222751   0.854   4.833   2.604 -0.0581 -0.5680 -0.2935
 7596TIP3    H122752   0.928   4.808   2.549  1.7154  0.5972  1.4261
 7596TIP3    H222753   0.868   4.786   2.686 -0.4985  0.6134  0.4878
 7597TIP3   OH222754   2.281   4.874   3.435 -0.6888  0.3659  0.0583
 7597TIP3    H122755   2.376   4.868   3.446 -0.3037  0.3750 -2.5367
 7597TIP3    H222756   2.258   4.958   3.475  0.2412  0.0444  1.3468
 7598TIP3   OH222757   5.953   5.559   3.185  0.3555  0.5964  0.1092
 7598TIP3    H122758   5.864   5.551   3.220  0.6890 -1.5991  0.5916
 7598TIP3    H222759   5.941   5.591   3.095 -0.9554 -0.0670  0.0280
 7599TIP3   OH222760   6.110   6.690   1.375  0.1813 -0.7522 -0.0829
 7599TIP3    H122761   6.187   6.681   1.319  0.4510 -0.4472  0.2369
 7599TIP3    H222762   6.071   6.602   1.376 -0.3937 -0.5409 -1.5419
 7600TIP3   OH222763   1.595   5.176   3.515 -0.2194  0.2605  0.0145
 7600TIP3    H122764   1.638   5.091   3.512 -0.7512 -0.0231  0.3644
 7600TIP3    H222765   1.581   5.192   3.608  1.2538  1.4341  0.0809
 7601TIP3   OH222766   6.706   3.225   4.104 -0.2300 -0.0258 -0.1133
 7601TIP3    H122767   6.630   3.204   4.158 -1.0553  0.9040 -0.8792
 7601TIP3    H222768   6.683   3.194   4.017  0.8799 -1.0423 -0.0622
 7602TIP3   OH222769   0.639   6.330   4.458 -0.1305  0.0223 -0.3081
 7602TIP3    H122770   0.663   6.385   4.533  0.8127  0.4608 -0.9119
 7602TIP3    H222771   0.641   6.241   4.491  0.6265  0.1863  0.1097
 7603TIP3   OH222772   6.615   5.529   5.395 -0.0228 -0.4521 -0.0508
 7603TIP3    H122773   6.627   5.602   5.456  0.9472  0.3863 -1.2008
 7603TIP3    H222774   6.704   5.505   5.369 -0.4212 -0.7242 -1.2083
 7604TIP3   OH222775   4.974   0.596   2.280  0.3580 -0.6253 -0.3771
 7604TIP3    H122776   5.004   0.664   2.219  2.2991 -1.7633 -0.7843
 7604TIP3    H222777   5.038   0.525   2.271 -0.6489 -1.8317  1.2545
 7605TIP3   OH222778   6.297   2.429   2.490 -0.0312  0.3362  0.0923
 7605TIP3    H122779   6.300   2.525   2.494 -0.6610  0.3416  0.5535
 7605TIP3    H222780   6.313   2.401   2.580 -1.6016  0.0690  0.3153
 7606TIP3   OH222781   4.032   0.622   5.274 -0.1482 -0.0956 -0.3925
 7606TIP3    H122782   4.095   0.689   5.300 -1.6411  0.7188  1.3568
 7606TIP3    H222783   3.948   0.656   5.302 -1.0242 -2.5213  0.1960
 7607TIP3   OH222784   6.841   6.434   4.562 -0.0192 -0.1702 -0.1542
 7607TIP3    H122785   6.870   6.411   4.650  0.7177 -1.9116 -0.8008
 7607TIP3    H222786   6.746   6.442   4.569  0.1637  1.4474  1.1236
 7608TIP3   OH222787   5.491   1.034   3.514  0.5259  0.7860  0.0515
 7608TIP3    H122788   5.530   0.987   3.440  0.4293 -0.3002  0.6641
 7608TIP3    H222789   5.536   1.118   3.515  2.4153 -0.1648  0.3062
 7609TIP3   OH222790   1.933   5.217   1.274  0.0286  0.3249  0.0124
 7609TIP3    H122791   2.003   5.153   1.290 -0.9990 -0.9469 -0.4031
 7609TIP3    H222792   1.937   5.277   1.349  0.9567 -0.2707  0.4579
 7610TIP3   OH222793   6.386   3.470   4.312 -0.0846 -0.2996 -0.2824
 7610TIP3    H122794   6.431   3.423   4.382 -2.1389 -0.0015  1.3451
 7610TIP3    H222795   6.369   3.557   4.349 -0.8247  0.0096 -1.3146
 7611TIP3   OH222796   2.998   4.168   1.500 -0.0298 -0.1479 -0.1605
 7611TIP3    H122797   3.044   4.237   1.453  2.3159 -1.4789  0.0287
 7611TIP3    H222798   2.982   4.206   1.587 -0.4111  0.7526 -0.6033
 7612TIP3   OH222799   6.081   0.494   5.190  0.5285 -0.0206 -0.5660
 7612TIP3    H122800   6.043   0.408   5.208  1.5632 -0.6336 -1.2426
 7612TIP3    H222801   6.159   0.498   5.245  0.2355  0.6891 -0.1858
 7613TIP3   OH222802   6.844   0.070   0.237 -0.0195 -0.3543  0.1914
 7613TIP3    H122803   6.838   0.136   0.306 -0.9270 -1.1063  0.8485
 7613TIP3    H222804   6.759   0.073   0.193  0.6211  0.2816 -1.0834
 7614TIP3   OH222805   4.508   1.855   1.250  0.2358  0.2239  0.2296
 7614TIP3    H122806   4.428   1.863   1.197 -0.0644 -0.0925  0.6306
 7614TIP3    H222807   4.542   1.768   1.228  1.2734  0.9194 -1.0442
 7615TIP3   OH222808   5.985   4.789   5.040 -0.4436  0.0767  0.0649
 7615TIP3    H122809   5.936   4.730   4.983  0.4017  0.8534 -1.5119
 7615TIP3    H222810   5.985   4.873   4.994  0.1089  0.7839  1.3035
 7616TIP3   OH222811   6.310   2.772   2.993  0.1272 -0.0533 -0.7603
 7616TIP3    H122812   6.219   2.744   2.989  0.0519 -0.5349  2.1339
 7616TIP3    H222813   6.360   2.700   2.955 -0.4081 -2.2966  2.4128
 7617TIP3   OH222814   5.425   6.705   2.091 -0.1072 -0.4096 -0.1244
 7617TIP3    H122815   5.456   6.614   2.094  1.5926  0.1263 -0.3753
 7617TIP3    H222816   5.343   6.701   2.043 -1.4056 -2.1394  2.0117
 7618TIP3   OH222817   4.354   0.140   1.440 -0.8430 -0.1156 -0.0635
 7618TIP3    H122818   4.382   0.048   1.437 -2.3601 -0.6070  0.0908
 7618TIP3    H222819   4.365   0.172   1.351  2.0976  0.3530  0.3701
 7619TIP3   OH222820   3.953   5.409   2.346 -0.3437  0.2890  0.1461
 7619TIP3    H122821   3.874   5.356   2.335  0.4930 -0.8672 -0.5437
 7619TIP3    H222822   4.005   5.392   2.267 -0.8075  3.5909 -1.0389
 7620TIP3   OH222823   2.056   4.188   5.392  0.1746  0.1359  0.3938
 7620TIP3    H122824   2.099   4.234   5.464 -0.4846  0.0565  0.8520
 7620TIP3    H222825   1.977   4.239   5.376 -0.9441 -1.1909  1.3922
 7621TIP3   OH222826   5.612   5.131   5.389 -0.1437 -0.3150  0.1811
 7621TIP3    H122827   5.696   5.142   5.344  1.5787  0.1559  3.2062
 7621TIP3    H222828   5.562   5.209   5.366  1.3555  0.7525  0.3572
 7622TIP3   OH222829   0.051   1.337   0.520  0.1865 -0.2766 -0.3858
 7622TIP3    H122830   0.057   1.388   0.601 -0.2897 -2.4629  1.1333
 7622TIP3    H222831   0.131   1.284   0.520 -0.7351 -1.7087 -0.3019
 7623TIP3   OH222832   6.293   5.462   2.441 -0.0621 -0.4915  0.4070
 7623TIP3    H122833   6.387   5.481   2.434 -0.4867  1.3766 -1.2236
 7623TIP3    H222834   6.282   5.426   2.529  2.2968 -1.6444  0.3074
 7624TIP3   OH222835   6.066   3.650   3.001 -0.0664 -0.0706  0.3028
 7624TIP3    H122836   6.151   3.689   2.982  0.6233 -0.3889  2.4501
 7624TIP3    H222837   6.005   3.723   2.998  0.5209  0.4279  0.1825
 7625TIP3   OH222838   5.016   4.739   3.649  0.3475  1.0896  0.0948
 7625TIP3    H122839   5.032   4.794   3.572  0.2727  1.8759  0.6245
 7625TIP3    H222840   4.924   4.755   3.670  0.1277  0.2000 -0.1647
 7626TIP3   OH222841   5.364   0.331   4.608 -0.2000 -0.1431 -0.2073
 7626TIP3    H122842   5.352   0.268   4.538 -1.3047  0.8434 -0.9503
 7626TIP3    H222843   5.317   0.409   4.578  0.1254  0.6278  1.2007
 7627TIP3   OH222844   6.240   3.088   5.853  0.2383 -0.0954  0.4940
 7627TIP3    H122845   6.185   3.148   5.903  0.4381 -0.0259  0.6332
 7627TIP3    H222846   6.329   3.103   5.886  0.2918 -0.4664  0.5270
 7628TIP3   OH222847   2.522   2.000   2.897 -0.2529 -0.9347 -0.5985
 7628TIP3    H122848   2.448   1.953   2.857 -2.4745  0.2519  1.8396
 7628TIP3    H222849   2.577   1.931   2.934 -1.0417 -1.7924 -0.9730
 7629TIP3   OH222850   6.011   1.502   2.536 -0.3439 -0.4243 -0.3540
 7629TIP3    H122851   5.916   1.509   2.552 -0.2365 -0.5727  0.4260
 7629TIP3    H222852   6.032   1.579   2.485 -0.5890  0.6020  1.0356
 7630TIP3   OH222853   3.906   3.886   0.789 -0.1256  0.4440 -0.2417
 7630TIP3    H122854   4.000   3.879   0.773 -0.2080 -0.5979 -0.3361
 7630TIP3    H222855   3.878   3.960   0.734  0.7094  1.0735  0.1604
 7631TIP3   OH222856   4.558   4.427   1.591  0.3624 -0.1644  0.1485
 7631TIP3    H122857   4.519   4.373   1.660  0.0248 -0.1363 -0.0196
 7631TIP3    H222858   4.642   4.457   1.628  1.3596 -2.1491 -0.3759
 7632TIP3   OH222859   3.550   0.253   4.322  0.0083  0.0762 -0.5648
 7632TIP3    H122860   3.599   0.249   4.404 -0.6855  0.8608 -0.0938
 7632TIP3    H222861   3.516   0.164   4.311  0.6964 -0.2193 -0.3822
 7633TIP3   OH222862   4.267   1.821   2.605  0.0773 -0.0728  0.2177
 7633TIP3    H122863   4.332   1.864   2.550 -0.1356  1.4050  1.0938
 7633TIP3    H222864   4.194   1.804   2.546  1.0846 -1.4852 -0.7077
 7634TIP3   OH222865   3.855   0.417   1.967 -0.1485 -0.1509  0.3759
 7634TIP3    H122866   3.763   0.404   1.993 -0.2359 -1.3798 -0.4528
 7634TIP3    H222867   3.872   0.509   1.986 -2.2571  0.7292 -1.5502
 7635TIP3   OH222868   4.268   0.867   3.225 -0.5344 -0.6629  0.0953
 7635TIP3    H122869   4.230   0.904   3.305  0.9294 -2.8214  1.9453
 7635TIP3    H222870   4.234   0.777   3.222 -0.9440 -0.4770 -2.0439
 7636TIP3   OH222871   2.916   6.509   0.743 -0.0567  0.5003 -0.4568
 7636TIP3    H122872   2.960   6.513   0.828 -1.0466  1.2914  0.0475
 7636TIP3    H222873   2.827   6.478   0.764 -0.0988  0.0192 -1.2944
 7637TIP3   OH222874   1.328   5.398   0.984 -0.1068 -0.1948  0.1589
 7637TIP3    H122875   1.235   5.394   1.004 -0.3592  0.4624 -0.8039
 7637TIP3    H222876   1.370   5.422   1.067 -1.0195  1.6365  0.1296
 7638TIP3   OH222877   3.548   6.593   5.405  0.5706 -0.1351 -0.1159
 7638TIP3    H122878   3.611   6.587   5.476  1.5829  0.4943 -0.9176
 7638TIP3    H222879   3.498   6.512   5.409  0.4245  0.0094  1.4591
 7639TIP3   OH222880   5.745   2.928   4.302  0.5179 -0.4451 -0.1091
 7639TIP3    H122881   5.780   2.990   4.239  1.4528  0.2099  1.0080
 7639TIP3    H222882   5.651   2.946   4.304  0.3967 -0.7814 -1.6054
 7640TIP3   OH222883   6.909   3.083   4.906 -0.1559  0.5435 -0.0864
 7640TIP3    H122884   6.975   3.079   4.975 -0.1684  0.5246 -0.0756
 7640TIP3    H222885   6.952   3.129   4.834 -0.3124  1.0230  0.1248
 7641TIP3   OH222886   2.452   0.281   0.945 -0.0650 -0.2827  0.2031
 7641TIP3    H122887   2.398   0.236   1.010 -0.0474 -0.6959 -0.0695
 7641TIP3    H222888   2.390   0.328   0.890 -0.1299 -0.5380  0.0573
 7642TIP3   OH222889   5.214   6.713   1.948 -0.2640  0.0991  0.6586
 7642TIP3    H122890   5.149   6.659   1.993 -2.2633  2.6854  1.0927
 7642TIP3    H222891   5.202   6.693   1.856 -2.4282  1.1615  0.6429
 7643TIP3   OH222892   4.084   1.062   4.531  0.8052 -0.1157 -0.1225
 7643TIP3    H122893   4.157   1.022   4.484  0.1484 -2.2959  0.6139
 7643TIP3    H222894   4.006   1.036   4.481  0.2570 -0.9006  1.0935
 7644TIP3   OH222895   1.553   4.760   1.666  0.2212  0.3191 -0.2335
 7644TIP3    H122896   1.589   4.674   1.686  0.8726  0.5226 -0.4931
 7644TIP3    H222897   1.459   4.750   1.674  0.1806 -0.7976 -1.6630
 7645TIP3   OH222898   3.663   2.093   3.011 -0.1034  0.5411  0.0717
 7645TIP3    H122899   3.611   2.135   3.079  0.6147  2.1292 -0.3222
 7645TIP3    H222900   3.613   2.107   2.931  0.6160  1.5686 -0.2184
 7646TIP3   OH222901   2.284   5.103   3.598  0.1804  0.0987  0.0611
 7646TIP3    H122902   2.344   5.097   3.673 -1.4354 -0.3596  1.3929
 7646TIP3    H222903   2.218   5.166   3.626  1.0663  2.1880 -2.1893
 7647TIP3   OH222904   1.748   5.127   1.978  0.1415  0.4090 -0.4337
 7647TIP3    H122905   1.734   5.185   2.053  0.0513  1.0417 -0.9322
 7647TIP3    H222906   1.785   5.184   1.910  2.1167 -0.5468 -0.2286
 7648TIP3   OH222907   1.698   2.971   0.651 -0.5684  0.1271 -0.3091
 7648TIP3    H122908   1.635   2.951   0.720  0.1265 -0.2011  0.2371
 7648TIP3    H222909   1.647   2.966   0.570 -1.0303 -1.0890  0.0476
 7649TIP3   OH222910   0.410   3.624   3.299 -0.3174  0.5268  0.1000
 7649TIP3    H122911   0.456   3.574   3.232  0.4894  0.1949  0.8851
 7649TIP3    H222912   0.322   3.587   3.299 -0.4659  0.8308 -1.0677
 7650TIP3   OH222913   4.891   3.104   0.429 -0.7441 -0.1710  0.3465
 7650TIP3    H122914   4.805   3.107   0.386 -1.4807 -0.5548  1.7574
 7650TIP3    H222915   4.936   3.032   0.385 -1.2663 -0.1975 -0.1711
 7651TIP3   OH222916   3.450   1.228   5.435  0.0852 -0.0691 -0.0213
 7651TIP3    H122917   3.468   1.179   5.355  3.6919  1.0106 -0.0683
 7651TIP3    H222918   3.535   1.232   5.480 -0.6892  3.4932  1.4638
 7652TIP3   OH222919   3.819   1.454   5.161 -0.7051  0.3816  0.7018
 7652TIP3    H122920   3.850   1.450   5.252  2.5689 -1.1606 -0.3517
 7652TIP3    H222921   3.863   1.530   5.124  0.6250 -0.9095 -0.4280
 7653TIP3   OH222922   3.212   4.354   4.236  0.5522 -0.0357 -0.1308
 7653TIP3    H122923   3.192   4.342   4.329  0.2296  0.2102 -0.1660
 7653TIP3    H222924   3.147   4.301   4.190  0.0302  0.6717 -0.2413
 7654TIP3   OH222925   0.586   5.904   0.141 -0.3579  0.0878 -0.0988
 7654TIP3    H122926   0.672   5.887   0.102 -0.3514 -2.1241  0.7677
 7654TIP3    H222927   0.545   5.966   0.080  1.9442  1.5182 -0.3385
 7655TIP3   OH222928   4.879   0.240   3.349  0.3628  0.0406 -0.0754
 7655TIP3    H122929   4.954   0.222   3.406  0.8852  1.3069 -0.3342
 7655TIP3    H222930   4.829   0.307   3.396 -1.2009 -1.5172  0.5832
 7656TIP3   OH222931   3.183   4.473   2.465  0.3135 -0.4022  0.6092
 7656TIP3    H122932   3.176   4.431   2.379 -0.7965  0.8386  0.0652
 7656TIP3    H222933   3.208   4.402   2.524  1.9031 -1.1353 -0.8480
 7657TIP3   OH222934   5.635   0.029   4.459 -0.4874  0.4593 -0.8061
 7657TIP3    H122935   5.633  -0.007   4.547 -0.1139  0.3585 -0.8392
 7657TIP3    H222936   5.550   0.006   4.422 -0.0074 -1.0125 -1.0706
 7658TIP3   OH222937   2.863   0.194   0.803 -0.2918  0.7867 -0.0212
 7658TIP3    H122938   2.810   0.180   0.724 -1.2340  1.6506  0.4355
 7658TIP3    H222939   2.805   0.239   0.863  0.6045  0.6635  0.9636
 7659TIP3   OH222940   4.753   5.052   3.048 -0.1481  0.3585  0.1481
 7659TIP3    H122941   4.796   5.045   2.963 -0.6030  2.5250 -0.3177
 7659TIP3    H222942   4.814   5.011   3.110 -0.5199 -2.7269 -1.3609
 7660TIP3   OH222943   2.793   0.704   4.212  0.0202 -0.0198 -0.3284
 7660TIP3    H122944   2.849   0.628   4.196 -0.8430 -0.6873 -0.2431
 7660TIP3    H222945   2.851   0.768   4.253  0.2796 -1.4936  1.7973
 7661TIP3   OH222946   5.086   4.757   5.094 -0.4156 -0.4786 -0.2913
 7661TIP3    H122947   5.181   4.761   5.101 -0.4967  1.4256  0.1513
 7661TIP3    H222948   5.054   4.796   5.176 -1.5438  0.4910 -1.1546
 7662TIP3   OH222949   2.205   3.182   2.037 -0.5171  0.2074  0.1545
 7662TIP3    H122950   2.290   3.138   2.047 -0.6689 -0.2757 -0.5412
 7662TIP3    H222951   2.167   3.182   2.124 -0.0075 -0.0154  0.3809
 7663TIP3   OH222952   1.831   2.639   3.381 -0.0056 -0.3227 -0.6798
 7663TIP3    H122953   1.845   2.677   3.468  1.0034 -1.6496 -0.2246
 7663TIP3    H222954   1.915   2.602   3.358 -0.6330 -1.1958 -1.6246
 7664TIP3   OH222955   2.718   0.950   5.737 -0.2153 -0.0729 -0.8517
 7664TIP3    H122956   2.680   0.970   5.823 -0.2996 -0.9566 -0.6769
 7664TIP3    H222957   2.801   0.997   5.737  0.1879 -0.7558  0.0679
 7665TIP3   OH222958   3.313   0.502   1.828 -0.1727 -0.1115 -0.3707
 7665TIP3    H122959   3.271   0.429   1.874  0.6370 -0.1860  0.2663
 7665TIP3    H222960   3.394   0.464   1.792 -0.2163  0.2389 -0.8495
 7666TIP3   OH222961   5.243   4.324   2.054 -0.6237  0.3910  0.1822
 7666TIP3    H122962   5.241   4.404   2.001  0.4666  0.5917  0.4160
 7666TIP3    H222963   5.151   4.309   2.077 -1.3733 -0.4283 -2.8030
 7667TIP3   OH222964   5.794   4.812   2.117 -0.0491  0.2358 -0.2710
 7667TIP3    H122965   5.777   4.838   2.208  0.3133  0.9538 -0.3976
 7667TIP3    H222966   5.854   4.880   2.084 -0.8521  0.4545 -1.3102
 7668TIP3   OH222967   6.362   3.257   4.980 -0.1764  0.2761  0.9272
 7668TIP3    H122968   6.455   3.236   4.971 -0.5279 -1.7632  1.4048
 7668TIP3    H222969   6.351   3.339   4.933  1.8014  0.4061  0.5989
 7669TIP3   OH222970   5.069   6.234   4.638  0.3388  0.4333 -0.5060
 7669TIP3    H122971   5.075   6.172   4.711 -2.0494 -1.1131 -1.5346
 7669TIP3    H222972   5.147   6.216   4.585  0.4905 -0.6047  0.0423
 7670TIP3   OH222973   3.500   3.908   3.351 -0.1632  0.2413  0.5844
 7670TIP3    H122974   3.506   3.924   3.445 -0.7228 -2.1128  1.0986
 7670TIP3    H222975   3.408   3.884   3.336  0.4159 -1.8666 -0.0394
 7671TIP3   OH222976   0.053   5.875   3.284 -0.6749 -0.2392  0.1816
 7671TIP3    H122977   0.049   5.918   3.199 -1.5111 -0.4117  0.1231
 7671TIP3    H222978   0.143   5.845   3.292 -0.1197  1.2876  0.1098
 7672TIP3   OH222979   0.710   1.787   4.398 -0.0019 -0.5597  0.2836
 7672TIP3    H122980   0.740   1.876   4.377 -1.7189 -0.2805 -1.2382
 7672TIP3    H222981   0.763   1.731   4.341 -1.0140 -0.2146 -1.0620
 7673TIP3   OH222982   3.342   1.382   1.182 -0.2297  0.4808  0.7726
 7673TIP3    H122983   3.401   1.441   1.136  0.7762  0.5468  2.0819
 7673TIP3    H222984   3.254   1.411   1.157  0.2718  1.3980  0.0291
 7674TIP3   OH222985   3.821   0.920   2.133  0.5719  0.6850 -0.0010
 7674TIP3    H122986   3.760   0.964   2.075  0.7925  0.2414 -0.5796
 7674TIP3    H222987   3.879   0.871   2.075  0.5231 -0.1242  0.6128
 7675TIP3   OH222988   0.651   6.719   2.358  0.5957  0.5179  0.0625
 7675TIP3    H122989   0.568   6.696   2.401  1.8022 -1.6295  1.4140
 7675TIP3    H222990   0.626   6.783   2.291 -2.2726 -0.6986 -0.1807
 7676TIP3   OH222991   1.416   3.485   4.410 -0.4435  0.1064 -0.1626
 7676TIP3    H122992   1.358   3.425   4.455 -0.5738  1.3793  1.4608
 7676TIP3    H222993   1.410   3.460   4.318 -2.8809 -0.3664  0.0635
 7677TIP3   OH222994   2.992   5.423   0.441  0.4207 -0.1245  0.4723
 7677TIP3    H122995   2.902   5.403   0.414 -0.1122  1.7918  0.6517
 7677TIP3    H222996   3.025   5.482   0.373  1.5791 -0.8438  0.3888
 7678TIP3   OH222997   6.031   4.396   2.141 -0.1476 -0.2579 -0.2087
 7678TIP3    H122998   6.026   4.313   2.094  0.0847  1.0991 -2.7873
 7678TIP3    H222999   5.985   4.379   2.223  0.0503 -2.9579 -0.5544
 7679TIP3   OH223000   6.219   4.358   1.623  0.2164  0.1087 -0.2314
 7679TIP3    H123001   6.269   4.321   1.695  0.1122 -0.3242 -0.3792
 7679TIP3    H223002   6.286   4.391   1.562  0.3035  0.4203  0.0342
 7680TIP3   OH223003   2.956   1.519   4.558  0.7936 -0.4914 -0.4787
 7680TIP3    H123004   2.899   1.523   4.482  0.7934 -1.7826 -0.5604
 7680TIP3    H223005   2.964   1.426   4.578  2.8899 -0.3560 -0.4885
 7681TIP3   OH223006   4.685   0.638   1.977  0.3426  0.1782  0.7878
 7681TIP3    H123007   4.699   0.587   2.056 -0.0441  0.8375  1.2896
 7681TIP3    H223008   4.718   0.582   1.906  0.4843 -0.5064  1.3841
 7682TIP3   OH223009   5.307   6.247   2.652  0.1390 -0.0959 -0.0444
 7682TIP3    H123010   5.310   6.253   2.557 -1.2388 -1.5084 -0.2240
 7682TIP3    H223011   5.291   6.154   2.670 -2.3296  0.4985  1.4404
 7683TIP3   OH223012   2.615   5.763   2.311  0.3202  0.3147 -0.1109
 7683TIP3    H123013   2.521   5.783   2.314  0.5096  1.0602  1.2920
 7683TIP3    H223014   2.630   5.737   2.220 -1.0760  0.9919 -0.5694
 7684TIP3   OH223015   4.835   6.558   1.932  0.0521  0.2595  0.2301
 7684TIP3    H123016   4.764   6.504   1.898 -0.7325  0.9089  0.7913
 7684TIP3    H223017   4.890   6.496   1.980 -0.1499 -0.2521 -0.1872
 7685TIP3   OH223018   5.845   0.591   0.280  0.3016  0.5274 -0.3237
 7685TIP3    H123019   5.767   0.627   0.237  0.3016  1.2015  0.2161
 7685TIP3    H223020   5.870   0.658   0.344  1.2610  0.2694 -0.4097
 7686TIP3   OH223021   5.417   0.394   2.211 -0.3773  0.5072  0.0170
 7686TIP3    H123022   5.365   0.328   2.257  1.0565 -0.7394 -0.0655
 7686TIP3    H223023   5.507   0.374   2.234  0.3289  0.5512 -2.3821
 7687TIP3   OH223024   4.177   6.726   5.678 -0.3199  0.3716  0.0857
 7687TIP3    H123025   4.165   6.655   5.615 -2.1584 -0.5111  1.3395
 7687TIP3    H223026   4.161   6.805   5.627 -0.0677 -0.2135 -0.9378
 7688TIP3   OH223027   3.721   2.656   2.100  0.4970 -0.1660  0.1363
 7688TIP3    H123028   3.694   2.663   2.191 -0.3096 -0.3495 -0.0727
 7688TIP3    H223029   3.725   2.747   2.069  2.0689 -0.0166  0.6904
 7689TIP3   OH223030   3.107   1.454   5.183 -0.1575  0.7115  0.5045
 7689TIP3    H123031   3.100   1.536   5.232 -0.8371  1.1254 -0.2628
 7689TIP3    H223032   3.170   1.472   5.114 -0.2506  0.5673  0.3807
 7690TIP3   OH223033   3.786   5.927   2.138  0.5556 -0.4382  0.0595
 7690TIP3    H123034   3.876   5.895   2.138  0.6273 -0.2534 -0.7103
 7690TIP3    H223035   3.792   6.014   2.177  0.5198 -0.9092  1.1482
 7691TIP3   OH223036   3.386   3.436   3.034  0.2293  0.1615 -0.5381
 7691TIP3    H123037   3.311   3.382   3.010  0.3542  0.5910 -1.9978
 7691TIP3    H223038   3.459   3.374   3.040  0.2460  0.0511 -1.5884
 7692TIP3   OH223039   1.896   0.577   4.927  0.3451 -0.6690  0.4510
 7692TIP3    H123040   1.850   0.608   5.005 -0.4361 -0.8339  0.0707
 7692TIP3    H223041   1.988   0.591   4.946  0.1243 -0.0622  1.1228
 7693TIP3   OH223042   0.941   3.781   4.608 -0.8055  0.0487 -0.3038
 7693TIP3    H123043   0.940   3.876   4.615 -1.6114  0.0700 -0.5990
 7693TIP3    H223044   0.902   3.751   4.690  0.2828 -0.0657  0.1873
 7694TIP3   OH223045   1.702   5.366   0.684  0.0193  0.1822  0.2851
 7694TIP3    H123046   1.680   5.274   0.700  0.5562 -0.1096 -0.5733
 7694TIP3    H223047   1.620   5.406   0.655 -0.4964  0.2659  1.7597
 7695TIP3   OH223048   4.762   4.655   2.011  0.3164  0.0554 -0.3508
 7695TIP3    H123049   4.669   4.678   2.019  0.0130 -0.5041 -1.8055
 7695TIP3    H223050   4.803   4.733   1.975  0.0172 -0.3128 -1.5562
 7696TIP3   OH223051   2.194   1.705   4.008 -0.0287 -0.2672  0.0414
 7696TIP3    H123052   2.247   1.756   3.947 -2.1620  2.1129 -0.0033
 7696TIP3    H223053   2.253   1.686   4.081  1.5112  0.1890 -1.0312
 7697TIP3   OH223054   3.493   2.780   3.499 -0.4731 -0.4003  0.6145
 7697TIP3    H123055   3.570   2.786   3.442 -0.5921 -2.1438  0.2053
 7697TIP3    H223056   3.506   2.849   3.564  0.5845  0.4401 -0.4365
 7698TIP3   OH223057   6.142   0.775   4.276 -0.0335 -0.3375  0.4506
 7698TIP3    H123058   6.089   0.854   4.272 -0.2681 -0.5034  0.2280
 7698TIP3    H223059   6.116   0.731   4.357  0.4155  0.0323  0.8011
 7699TIP3   OH223060   7.001   6.564   3.783  0.1973 -0.3607 -0.0167
 7699TIP3    H123061   6.914   6.525   3.791 -0.3975  0.9293  0.1171
 7699TIP3    H223062   7.015   6.571   3.688  0.9140 -2.1235 -0.0777
 7700TIP3   OH223063   2.079   3.765   4.294  0.2466 -0.4512 -0.1476
 7700TIP3    H123064   2.157   3.810   4.260  0.6162 -1.5982 -0.8794
 7700TIP3    H223065   2.096   3.755   4.388 -0.0468  1.3021  0.1169
 7701TIP3   OH223066   5.002   1.640   2.513  0.0960  0.0775 -0.4985
 7701TIP3    H123067   5.022   1.560   2.464 -1.0727  0.2732 -1.3433
 7701TIP3    H223068   4.965   1.699   2.448 -0.4129  0.7742  0.3980
 7702TIP3   OH223069   2.441   0.673   5.540  0.3097  0.3942  0.2092
 7702TIP3    H123070   2.530   0.701   5.520  0.5378 -0.5024 -0.0992
 7702TIP3    H223071   2.415   0.725   5.615  1.7768 -0.5873  1.4565
 7703TIP3   OH223072   2.586   4.902   0.013  0.1283 -0.6334 -0.4595
 7703TIP3    H123073   2.523   4.921   0.083  0.8635  1.6866 -0.3461
 7703TIP3    H223074   2.656   4.855   0.057  0.2097  0.0939  0.2242
 7704TIP3   OH223075   6.857   3.672   4.906 -0.7469 -0.6476 -0.3160
 7704TIP3    H123076   6.785   3.663   4.968  1.1736 -0.4497  2.0588
 7704TIP3    H223077   6.882   3.582   4.884 -0.2607 -0.7553  0.6518
 7705TIP3   OH223078   4.231   5.272   4.303  0.1097 -0.5545 -0.6191
 7705TIP3    H123079   4.182   5.223   4.370  1.2994 -0.3964  0.4013
 7705TIP3    H223080   4.163   5.322   4.257 -0.6694  0.0101  1.0549
 7706TIP3   OH223081   0.945   3.135   3.344 -0.4555  0.5879 -0.0701
 7706TIP3    H123082   0.990   3.219   3.343 -1.0055  0.8836 -0.5834
 7706TIP3    H223083   1.007   3.074   3.304  0.6106  0.3786  1.7909
 7707TIP3   OH223084   1.243   6.448   0.293  0.1394  0.2209  0.5087
 7707TIP3    H123085   1.249   6.516   0.361 -1.0725  1.2553 -0.3658
 7707TIP3    H223086   1.206   6.494   0.217  2.4481 -0.6306 -1.2384
 7708TIP3   OH223087   6.517   2.917   5.032  0.5870  0.3255  0.5179
 7708TIP3    H123088   6.422   2.932   5.031  0.6581  1.1354  2.3231
 7708TIP3    H223089   6.528   2.834   4.986 -1.0411  0.0505  0.5482
 7709TIP3   OH223090   5.655   1.283   4.459  0.0355 -0.3269  0.2231
 7709TIP3    H123091   5.589   1.224   4.420  0.4731  1.4144 -3.6252
 7709TIP3    H223092   5.603   1.355   4.495 -0.3147 -0.8753  0.8315
 7710TIP3   OH223093   6.673   5.103   2.794 -0.2850  0.8581 -0.1272
 7710TIP3    H123094   6.751   5.127   2.844  1.0182 -0.6627 -1.3473
 7710TIP3    H223095   6.679   5.155   2.714 -0.4146  0.5728 -0.3215
 7711TIP3   OH223096   6.698   5.208   3.203 -0.2785  0.2501 -0.1337
 7711TIP3    H123097   6.678   5.273   3.270 -1.0339  0.3077 -0.4112
 7711TIP3    H223098   6.648   5.131   3.229  0.5089 -0.1830  0.1194
 7712TIP3   OH223099   5.895   3.861   4.791 -0.0846  0.5965 -0.1217
 7712TIP3    H123100   5.830   3.883   4.724  1.6532  1.0217 -1.7479
 7712TIP3    H223101   5.939   3.783   4.756  0.8383  0.8099  0.5301
 7713TIP3   OH223102   1.424   0.374   1.629 -0.2314  0.5199 -0.1334
 7713TIP3    H123103   1.370   0.378   1.550 -0.8244  0.9542  0.2831
 7713TIP3    H223104   1.450   0.282   1.635 -0.8676  0.3145 -0.3867
 7714TIP3   OH223105   5.367   3.967   2.179 -0.4391 -0.6420  0.1472
 7714TIP3    H123106   5.335   3.877   2.187 -0.7634 -0.4651  0.9204
 7714TIP3    H223107   5.306   4.019   2.231 -0.0586 -0.0215 -0.0200
 7715TIP3   OH223108   3.332   6.215   4.264 -0.1393 -0.5072 -0.1472
 7715TIP3    H123109   3.362   6.225   4.354 -0.6306 -1.1925  0.1050
 7715TIP3    H223110   3.237   6.230   4.269  0.1439  2.1789 -1.0108
 7716TIP3   OH223111   1.484   1.559   5.548  0.0286  0.6274  0.5251
 7716TIP3    H123112   1.407   1.539   5.602  0.2897  1.1029  1.0898
 7716TIP3    H223113   1.538   1.616   5.604  0.5425  0.7220 -0.0581
 7717TIP3   OH223114   2.370   0.889   2.516 -0.0797 -0.4901  0.6017
 7717TIP3    H123115   2.317   0.838   2.577  0.4393 -0.1217  1.3609
 7717TIP3    H223116   2.392   0.969   2.563 -1.9033  1.0734 -0.9589
 7718TIP3   OH223117   5.524   3.070   0.267 -0.1185  0.2171 -0.6168
 7718TIP3    H123118   5.435   3.067   0.234 -0.1346 -0.9834 -0.5296
 7718TIP3    H223119   5.529   2.998   0.330  1.1701 -0.3457 -1.3164
 7719TIP3   OH223120   0.458   3.085   3.172  0.1490  0.0489 -0.3426
 7719TIP3    H123121   0.547   3.104   3.202  0.2762 -0.5731 -0.3047
 7719TIP3    H223122   0.403   3.099   3.248  0.5907 -2.5262  0.5287
 7720TIP3   OH223123   3.386   4.397   0.722 -0.8540 -0.0480  0.2878
 7720TIP3    H123124   3.331   4.364   0.793  0.8733 -3.7777  0.1540
 7720TIP3    H223125   3.377   4.331   0.653  2.3984  0.0634 -0.3755
 7721TIP3   OH223126   0.442   3.005   5.809 -0.2002 -0.1172 -1.1279
 7721TIP3    H123127   0.439   2.983   5.716  0.5476 -1.7105 -0.8052
 7721TIP3    H223128   0.352   3.028   5.832 -0.3652  0.4230 -2.2595
 7722TIP3   OH223129   4.920   3.013   4.197  0.1955  0.3133 -0.2338
 7722TIP3    H123130   4.956   3.098   4.222 -0.9736  0.6406  0.4160
 7722TIP3    H223131   4.949   2.954   4.267 -0.0819  0.4690  0.0185
 7723TIP3   OH223132   6.442   0.605   1.579  0.2170 -0.5676 -0.1911
 7723TIP3    H123133   6.478   0.541   1.518 -0.3237 -0.7576 -0.3172
 7723TIP3    H223134   6.519   0.646   1.619  0.5839 -1.8431  0.4747
 7724TIP3   OH223135   5.600   3.103   4.795 -0.2036  0.6329 -1.0350
 7724TIP3    H123136   5.576   3.191   4.766 -0.8928  0.7584 -0.1367
 7724TIP3    H223137   5.524   3.048   4.773  0.2157  0.2631 -1.5752
 7725TIP3   OH223138   4.409   6.715   2.841  0.0709 -0.0983 -0.5235
 7725TIP3    H123139   4.414   6.665   2.922  0.1359 -0.2135 -0.5975
 7725TIP3    H223140   4.500   6.739   2.822 -0.1061  1.3446  0.3114
 7726TIP3   OH223141   3.150  -0.017   0.670  0.4282 -0.5090  0.6366
 7726TIP3    H123142   3.143   0.075   0.695  1.4579  0.1165 -1.2067
 7726TIP3    H223143   3.236  -0.044   0.702  0.0933 -0.8837  1.2509
 7727TIP3   OH223144   2.007   1.189   5.590  0.0679  0.0752 -0.5178
 7727TIP3    H123145   1.964   1.238   5.660  1.3873 -0.1685  0.5002
 7727TIP3    H223146   2.080   1.245   5.563 -0.5493  0.2553 -1.8531
 7728TIP3   OH223147  -0.002   2.197   5.903  0.2021  0.3970 -0.0815
 7728TIP3    H123148  -0.016   2.118   5.849  1.4423 -2.1066  2.9460
 7728TIP3    H223149   0.091   2.218   5.891  0.3790  0.0861  0.7331
 7729TIP3   OH223150   3.534   5.110   3.196 -0.4824  0.1441  0.2372
 7729TIP3    H123151   3.528   5.025   3.154 -0.8008  0.5095 -0.4626
 7729TIP3    H223152   3.476   5.167   3.145 -0.3054  0.7715  0.7195
 7730TIP3   OH223153   6.129   0.573   2.822 -0.8930  0.2503  0.5994
 7730TIP3    H123154   6.152   0.661   2.793 -0.7395  0.3584  1.0389
 7730TIP3    H223155   6.211   0.523   2.812 -1.3866 -0.2743 -1.2170
 7731TIP3   OH223156   4.565   6.087   1.293  0.3414  0.5680  0.5611
 7731TIP3    H123157   4.618   6.131   1.227 -0.0511  1.7225  0.9806
 7731TIP3    H223158   4.627   6.033   1.342  0.3762 -1.7722 -1.8442
 7732TIP3   OH223159   6.730   3.417   0.142  0.0335  0.0319  0.2169
 7732TIP3    H123160   6.718   3.508   0.168  0.2266  0.3990 -0.9150
 7732TIP3    H223161   6.646   3.392   0.103  0.3352  0.0802 -0.4753
 7733TIP3   OH223162   1.954   3.004   3.099 -0.4954 -0.4269  0.6003
 7733TIP3    H123163   1.884   2.956   3.141 -0.5516 -0.0352  0.9570
 7733TIP3    H223164   2.028   2.999   3.160 -0.1950 -0.8726  0.2098
 7734TIP3   OH223165   4.982   1.640   4.236 -0.4620 -0.2725  0.4560
 7734TIP3    H123166   4.928   1.647   4.315  0.4118  1.4240  0.9389
 7734TIP3    H223167   4.952   1.710   4.179  1.8848  1.4600  1.1999
 7735TIP3   OH223168   3.245   2.818   2.666 -0.6779 -0.0715 -0.5411
 7735TIP3    H123169   3.272   2.802   2.757 -0.5871  0.8814 -0.3918
 7735TIP3    H223170   3.295   2.895   2.639 -0.2527 -0.7025 -1.6163
 7736TIP3   OH223171   2.134   0.386   2.418  0.0140 -0.1989 -0.0146
 7736TIP3    H123172   2.213   0.434   2.442 -0.1937  1.1292 -1.7622
 7736TIP3    H223173   2.159   0.337   2.340 -0.8425  0.0958 -0.4771
 7737TIP3   OH223174   7.194   4.177   4.674  0.5124  0.1045  0.0867
 7737TIP3    H123175   7.136   4.235   4.724  1.7718  1.5020 -0.0046
 7737TIP3    H223176   7.136   4.133   4.612 -0.5981  0.6874  0.6756
 7738TIP3   OH223177   5.653   0.099   4.141  0.3401  0.6675 -0.7018
 7738TIP3    H123178   5.740   0.111   4.180 -0.4892  1.5326  1.0104
 7738TIP3    H223179   5.670   0.087   4.048  2.2414  1.8584 -0.5696
 7739TIP3   OH223180   6.047   0.265   5.653 -0.1856 -0.0336 -0.1542
 7739TIP3    H123181   6.103   0.193   5.622  1.2368  0.6076  0.7927
 7739TIP3    H223182   6.064   0.336   5.592 -1.1871 -0.3149 -0.7770
 7740TIP3   OH223183   0.957   4.926   4.128 -0.0519 -0.5221 -0.2349
 7740TIP3    H123184   0.871   4.891   4.105 -0.1319  0.0076 -0.7913
 7740TIP3    H223185   0.938   5.000   4.185  0.0188 -0.3043 -0.4894
 7741TIP3   OH223186   6.170   3.054   1.841  1.1220  0.7197 -0.5373
 7741TIP3    H123187   6.244   3.105   1.873  1.3986  0.8307 -1.3383
 7741TIP3    H223188   6.181   2.968   1.883  1.9357  0.6048 -0.9594
 7742TIP3   OH223189   4.579   2.683   4.308 -0.2856 -0.2888 -0.1541
 7742TIP3    H123190   4.640   2.644   4.245  1.1360 -0.1470  1.0688
 7742TIP3    H223191   4.518   2.733   4.255  0.1830 -1.0688 -1.4869
 7743TIP3   OH223192   0.499   1.244   0.972 -0.5627  0.0884  0.2970
 7743TIP3    H123193   0.495   1.340   0.981  0.4904  0.1157  0.6087
 7743TIP3    H223194   0.433   1.211   1.033 -1.3862  0.6291 -0.2788
 7744TIP3   OH223195   1.548   4.100   5.809  0.2157 -0.1191  0.2127
 7744TIP3    H123196   1.454   4.082   5.808  0.0468  0.7004 -1.1647
 7744TIP3    H223197   1.556   4.183   5.856  0.3982 -0.8465  1.4881
 7745TIP3   OH223198   0.615   5.579   2.805 -0.5737 -0.2710 -0.0118
 7745TIP3    H123199   0.610   5.518   2.880  1.5437  0.9750  1.2330
 7745TIP3    H223200   0.550   5.646   2.825  0.7874  0.7040  1.4293
 7746TIP3   OH223201   3.007   2.038   0.300 -0.0365 -0.4170 -0.0979
 7746TIP3    H123202   3.036   2.129   0.308 -0.0974 -0.4418  0.4791
 7746TIP3    H223203   2.932   2.042   0.241 -0.6255  0.0461  0.6543
 7747TIP3   OH223204   4.432   5.424   1.434 -0.0748  0.9130  0.2869
 7747TIP3    H123205   4.347   5.454   1.401  0.4000  1.4467 -0.4861
 7747TIP3    H223206   4.491   5.498   1.417  0.4818  0.6613  1.0866
 7748TIP3   OH223207   3.616   2.815   2.913 -0.5225 -0.2216 -0.2662
 7748TIP3    H123208   3.529   2.811   2.953 -0.9190 -0.9380 -1.1601
 7748TIP3    H223209   3.675   2.786   2.983 -1.0255  0.0264  0.2740
 7749TIP3   OH223210   3.925   1.741   0.270 -0.5131 -0.0473 -0.0944
 7749TIP3    H123211   3.895   1.805   0.334  1.8213 -0.5398  1.6245
 7749TIP3    H223212   3.848   1.687   0.251 -1.4803  0.6658  1.6221
 7750TIP3   OH223213   2.294   2.028   4.645  0.2296 -0.3925 -0.1979
 7750TIP3    H123214   2.288   1.947   4.695  1.2496  0.1070  0.7768
 7750TIP3    H223215   2.298   1.999   4.554 -0.7049 -1.3655  0.0516
 7751TIP3   OH223216   4.423   2.487   4.034  0.2476  0.5851  0.8811
 7751TIP3    H123217   4.353   2.539   3.995  0.2959  0.5597  0.7625
 7751TIP3    H223218   4.486   2.473   3.963 -0.6529 -1.2177  0.3888
 7752TIP3   OH223219   5.124   0.537   3.412  0.2637  0.0989  0.6669
 7752TIP3    H123220   5.068   0.563   3.339  0.7660 -1.1282 -0.2003
 7752TIP3    H223221   5.090   0.452   3.439  1.2749 -0.3677  0.5410
 7753TIP3   OH223222   5.247   3.134   2.571  0.7438  0.1545 -0.0058
 7753TIP3    H123223   5.334   3.174   2.580  0.0221  1.8098  0.0343
 7753TIP3    H223224   5.193   3.182   2.634  0.2663 -2.4170  1.6797
 7754TIP3   OH223225   2.982   2.051   2.000 -0.2463  0.0567  0.0374
 7754TIP3    H123226   2.909   2.080   2.055 -1.4558 -1.9148 -0.4462
 7754TIP3    H223227   2.945   1.981   1.946  1.7149 -0.1850 -1.0696
 7755TIP3   OH223228   6.178   3.887   1.164 -0.7346  0.9664 -0.2264
 7755TIP3    H123229   6.206   3.873   1.255 -3.0141  1.5310  0.6232
 7755TIP3    H223230   6.202   3.806   1.119 -2.2377 -0.5908  1.6096
 7756TIP3   OH223231   5.614   2.286   4.842  0.4939  0.6832  0.1657
 7756TIP3    H123232   5.619   2.242   4.927  2.5012  2.1655  0.9179
 7756TIP3    H223233   5.694   2.260   4.797  0.1286  1.0134 -0.6972
 7757TIP3   OH223234   4.308   0.562   5.202  0.3131 -0.7617 -0.4985
 7757TIP3    H123235   4.364   0.611   5.141  0.1977  0.4078  0.3094
 7757TIP3    H223236   4.219   0.588   5.179 -0.1271 -3.6326 -2.6847
 7758TIP3   OH223237   6.985   3.183   0.720  0.6017  0.2312  0.1957
 7758TIP3    H123238   7.058   3.139   0.764  0.7508 -0.6234 -0.8609
 7758TIP3    H223239   6.965   3.127   0.645 -0.2008  1.2056 -0.3436
 7759TIP3   OH223240   5.034   2.854   4.433  0.4008  0.0401  0.6691
 7759TIP3    H123241   5.065   2.878   4.520 -2.2595  1.1069  1.4125
 7759TIP3    H223242   4.956   2.801   4.449 -0.8414  1.2427 -1.0207
 7760TIP3   OH223243   6.981   5.077   3.403 -0.2489 -0.0805  0.8614
 7760TIP3    H123244   6.922   5.002   3.402  0.5288 -0.6957  0.3524
 7760TIP3    H223245   7.065   5.041   3.430  0.2484  0.5085  0.1377
 7761TIP3   OH223246   3.206   5.763   4.522 -0.5464 -0.7021  0.6072
 7761TIP3    H123247   3.264   5.814   4.466  0.6440 -2.0743  0.5372
 7761TIP3    H223248   3.121   5.807   4.514  0.1131  0.4464 -0.4953
 7762TIP3   OH223249   2.055   0.401   0.597 -0.5229  0.1274 -0.1118
 7762TIP3    H123250   2.022   0.342   0.529 -1.2539 -0.8527  1.0318
 7762TIP3    H223251   2.074   0.483   0.552  1.2212 -1.1890 -1.8979
 7763TIP3   OH223252   7.099   3.861   2.480 -0.6898 -0.2603 -0.1004
 7763TIP3    H123253   7.148   3.784   2.451  1.0686  0.7016  0.1744
 7763TIP3    H223254   7.087   3.913   2.400  1.2578  0.8145  0.2312
 7764TIP3   OH223255   4.310   1.387   4.340  0.2628  0.3586  0.2031
 7764TIP3    H123256   4.347   1.394   4.429  1.0399  1.2718 -0.1803
 7764TIP3    H223257   4.218   1.364   4.354  0.3107  0.7614  1.2528
 7765TIP3   OH223258   1.996   4.105   3.702  0.7082  0.3210 -0.0507
 7765TIP3    H123259   1.936   4.158   3.755  0.4475  2.5147 -2.3886
 7765TIP3    H223260   2.080   4.110   3.749  0.3109  1.5799  0.5720
 7766TIP3   OH223261   2.828   5.742   0.932 -0.4855  0.3757 -0.2470
 7766TIP3    H123262   2.793   5.656   0.958  0.9320 -0.2831 -0.4042
 7766TIP3    H223263   2.885   5.767   1.005 -0.5058  0.9529 -0.4274
 7767TIP3   OH223264   5.174   6.263   0.851 -1.3698 -0.2997  0.1859
 7767TIP3    H123265   5.259   6.269   0.806 -1.4619  0.9086  0.1296
 7767TIP3    H223266   5.129   6.190   0.808 -0.5108 -0.7113 -0.0348
 7768TIP3   OH223267   1.901   3.395   0.749 -0.4933 -0.7383 -0.4702
 7768TIP3    H123268   1.880   3.473   0.698 -1.7499  1.2404  2.7630
 7768TIP3    H223269   1.817   3.349   0.757 -0.1691 -1.3851 -0.7199
 7769TIP3   OH223270   0.332   5.949   0.228  0.0494  0.2126  0.5327
 7769TIP3    H123271   0.321   6.025   0.171 -0.0798 -0.3451 -0.1997
 7769TIP3    H223272   0.421   5.920   0.213 -0.5998 -1.1392 -0.9264
 7770TIP3   OH223273   3.473   5.134   3.954  0.2749  0.1014 -0.1392
 7770TIP3    H123274   3.509   5.151   3.867  0.0350  2.6345  0.1825
 7770TIP3    H223275   3.383   5.106   3.936 -0.0660  1.4878 -0.7055
 7771TIP3   OH223276   2.197   2.713   0.482 -0.7340  0.4862 -0.4807
 7771TIP3    H123277   2.197   2.620   0.503 -0.5275  0.3872 -0.9124
 7771TIP3    H223278   2.137   2.721   0.408 -0.2107  0.5899 -0.9005
 7772TIP3   OH223279   5.114   5.483   3.622 -0.5137 -0.5006 -0.2289
 7772TIP3    H123280   5.166   5.520   3.694  0.6213  1.4068 -1.9240
 7772TIP3    H223281   5.142   5.391   3.617  1.0297 -0.1003  0.3756
 7773TIP3   OH223282   5.639   0.582   4.340  0.4910  0.3826  0.0709
 7773TIP3    H123283   5.726   0.611   4.368  0.5279  1.0214 -0.6822
 7773TIP3    H223284   5.651   0.492   4.311  0.4134 -0.4030  2.2756
 7774TIP3   OH223285   5.593   3.144   1.309  0.0317 -0.1062  0.1522
 7774TIP3    H123286   5.585   3.070   1.249  1.1464  0.9756 -1.4118
 7774TIP3    H223287   5.575   3.107   1.396 -0.1377 -2.0353 -0.6587
 7775TIP3   OH223288   1.196   4.282   2.699  0.0564  0.0982 -0.6619
 7775TIP3    H123289   1.242   4.366   2.690 -1.0478  0.6530 -1.4339
 7775TIP3    H223290   1.265   4.216   2.692  1.2254  0.9358  1.9194
 7776TIP3   OH223291   2.524   4.201   4.294  0.1656  0.3583  0.3979
 7776TIP3    H123292   2.506   4.232   4.205 -0.8956 -0.0540  0.4472
 7776TIP3    H223293   2.545   4.108   4.283 -1.4482 -0.0837  0.6816
 7777TIP3   OH223294   6.280   3.346   0.240 -0.3106  0.3101  0.3768
 7777TIP3    H123295   6.197   3.361   0.284 -1.2702 -1.2895 -0.7574
 7777TIP3    H223296   6.256   3.331   0.148  1.5271  2.7566 -0.6225
 7778TIP3   OH223297   2.855   0.589   4.821  0.0240 -0.2994 -0.6334
 7778TIP3    H123298   2.814   0.502   4.825  2.8011 -1.7058 -0.1721
 7778TIP3    H223299   2.929   0.578   4.762  0.6795  1.6842 -0.2648
 7779TIP3   OH223300   3.855   2.442   0.280 -0.5594 -0.5106  0.0113
 7779TIP3    H123301   3.840   2.434   0.186  2.2984 -2.8730 -0.3917
 7779TIP3    H223302   3.936   2.493   0.287 -0.9698  0.0165  1.2353
 7780TIP3   OH223303   6.700   2.918   1.148  0.6918 -0.0614 -0.6021
 7780TIP3    H123304   6.697   2.977   1.073  1.8227  2.7257  1.3750
 7780TIP3    H223305   6.632   2.951   1.207  1.4406 -0.6429  0.6209
 7781TIP3   OH223306   5.053   4.793   0.625  0.4524 -0.5606 -0.0464
 7781TIP3    H123307   5.030   4.790   0.532 -0.4929 -0.3815  0.1755
 7781TIP3    H223308   4.998   4.726   0.666  0.2960 -0.1054  0.5008
 7782TIP3   OH223309   1.284   6.761   4.096  0.1156  0.1507  0.1981
 7782TIP3    H123310   1.320   6.679   4.064 -1.3570 -0.7577  0.7892
 7782TIP3    H223311   1.190   6.745   4.104 -0.2074  1.8970  0.3148
 7783TIP3   OH223312   1.564   1.301   2.832 -0.4625  0.2799  0.3935
 7783TIP3    H123313   1.643   1.257   2.864  0.4801  1.1244 -0.7031
 7783TIP3    H223314   1.585   1.325   2.742 -1.5260  1.6148  0.4777
 7784TIP3   OH223315   2.702   4.967   0.573  0.1298  0.4393  0.1211
 7784TIP3    H123316   2.699   5.058   0.601 -0.4076  0.1132  1.1561
 7784TIP3    H223317   2.743   4.970   0.486 -0.3443  1.7084 -0.0747
 7785TIP3   OH223318   3.785   5.843   4.585  0.4575  0.2306 -0.3359
 7785TIP3    H123319   3.799   5.777   4.517  0.3457 -2.2727  1.9369
 7785TIP3    H223320   3.857   5.905   4.573  1.1694 -0.8275 -1.9237
 7786TIP3   OH223321   1.654   4.505   1.666  0.5770 -0.0557  0.3172
 7786TIP3    H123322   1.623   4.487   1.578  1.5519 -0.3424  0.0091
 7786TIP3    H223323   1.666   4.418   1.705 -0.4031  0.0772  0.9452
 7787TIP3   OH223324   5.536   5.350   1.581  0.0048  0.4138  0.4262
 7787TIP3    H123325   5.608   5.412   1.589  0.5295  0.1140 -1.5778
 7787TIP3    H223326   5.532   5.307   1.667  0.8841  1.8324  1.2114
 7788TIP3   OH223327   6.813   4.636   0.669 -0.3245  0.5033  0.6243
 7788TIP3    H123328   6.838   4.543   0.671 -0.1190  0.5096 -0.7549
 7788TIP3    H223329   6.753   4.646   0.742 -0.0454 -0.6281  1.0357
 7789TIP3   OH223330   3.160   1.880   0.733 -0.2942 -0.4444 -0.3931
 7789TIP3    H123331   3.245   1.840   0.751 -0.9280 -1.4765  0.3839
 7789TIP3    H223332   3.181   1.971   0.714  0.8666 -0.3449  1.1443
 7790TIP3   OH223333   3.810   3.500   2.773  0.2255  0.3708 -0.0652
 7790TIP3    H123334   3.853   3.478   2.856  1.4461 -0.4426 -0.8787
 7790TIP3    H223335   3.744   3.432   2.762 -0.9249  1.2824  0.8962
 7791TIP3   OH223336   3.230   4.674   5.733  0.4179  0.4158 -0.3818
 7791TIP3    H123337   3.198   4.701   5.819 -0.3369  0.7586 -0.7614
 7791TIP3    H223338   3.322   4.653   5.747  0.1743 -0.0322  0.6160
 7792TIP3   OH223339   4.705   0.770   4.736  0.1632 -0.2648 -0.2134
 7792TIP3    H123340   4.798   0.770   4.761 -0.1300 -0.0450  0.9558
 7792TIP3    H223341   4.694   0.848   4.682  0.6674 -0.3389 -0.4290
 7793TIP3   OH223342   5.667   6.432   2.658  0.1780  0.0695  0.0093
 7793TIP3    H123343   5.761   6.446   2.658  0.1586  0.2059  0.0965
 7793TIP3    H223344   5.630   6.518   2.638  0.0590  0.1281  0.4567
 7794TIP3   OH223345   6.976   5.124   2.256 -0.3214  0.5865 -0.0724
 7794TIP3    H123346   6.925   5.088   2.184  1.0068 -0.9037 -0.3180
 7794TIP3    H223347   7.065   5.133   2.221 -0.4629  3.8226  0.1090
 7795TIP3   OH223348   0.818   2.207   3.092  0.2919  0.4814 -0.6835
 7795TIP3    H123349   0.851   2.281   3.041  0.9014  0.1227 -0.8226
 7795TIP3    H223350   0.802   2.242   3.179  1.2951  0.6027 -0.5473
 7796TIP3   OH223351   0.397   5.843   2.828  0.3849  0.1194  0.2169
 7796TIP3    H123352   0.352   5.833   2.912  1.5350 -2.8325  0.6305
 7796TIP3    H223353   0.328   5.833   2.762 -0.4333  1.8643  0.7469
 7797TIP3   OH223354   3.487   5.557   5.029 -0.7967 -0.3421  0.9152
 7797TIP3    H123355   3.468   5.467   5.056 -0.5597 -0.8234 -0.4212
 7797TIP3    H223356   3.462   5.560   4.936 -0.5314  0.8890  0.8640
 7798TIP3   OH223357   2.902   5.922   5.717 -0.5084  0.0608 -0.1951
 7798TIP3    H123358   2.969   5.991   5.729  0.9240 -1.5437  1.7417
 7798TIP3    H223359   2.945   5.856   5.663 -1.6133  0.2951 -1.4085
 7799TIP3   OH223360   3.489   1.481   0.320  0.0689  0.0956  0.4524
 7799TIP3    H123361   3.417   1.452   0.375 -1.4747 -0.8850 -1.8902
 7799TIP3    H223362   3.537   1.545   0.373 -2.8254  1.2079  1.9253
 7800TIP3   OH223363   3.574   6.711   1.482 -0.5892  0.2222  0.2786
 7800TIP3    H123364   3.557   6.747   1.395 -0.2556  0.4997  0.3240
 7800TIP3    H223365   3.666   6.685   1.480 -0.6524 -0.0199  0.4605
 7801TIP3   OH223366   0.373   3.964   5.119 -0.0851  0.1887  0.6308
 7801TIP3    H123367   0.408   3.983   5.032 -0.3330  0.5204  0.6002
 7801TIP3    H223368   0.278   3.969   5.108 -0.1314 -0.1772  0.8307
 7802TIP3   OH223369   5.930   6.599   2.686 -0.3658 -0.0547  0.2377
 7802TIP3    H123370   5.887   6.662   2.744 -0.9276 -0.8573  0.7282
 7802TIP3    H223371   5.964   6.651   2.613 -1.0421  0.7653  0.4982
 7803TIP3   OH223372   5.305   4.443   4.404 -0.6069  0.0660  0.2058
 7803TIP3    H123373   5.254   4.443   4.485 -3.4240  0.8649 -1.4293
 7803TIP3    H223374   5.337   4.353   4.396  0.2715  0.1170  2.4628
 7804TIP3   OH223375   6.384   5.977   3.321  0.1998  0.1092  0.1508
 7804TIP3    H123376   6.317   5.913   3.345  0.1906 -0.3626 -1.1053
 7804TIP3    H223377   6.466   5.939   3.350  0.4127 -1.3469 -2.2061
 7805TIP3   OH223378   4.827   5.851   3.775  0.9729  0.5892 -0.1735
 7805TIP3    H123379   4.860   5.800   3.701  0.5016  1.9191 -1.3460
 7805TIP3    H223380   4.732   5.847   3.767  0.8477 -0.4788  1.2704
 7806TIP3   OH223381   6.406   2.712   0.610  0.0642  0.5531 -0.5145
 7806TIP3    H123382   6.313   2.733   0.599 -0.3659 -0.3377  1.0673
 7806TIP3    H223383   6.413   2.681   0.701  1.4497 -1.6528 -1.2979
 7807TIP3   OH223384   2.919   0.473   4.183  0.2451 -0.1906 -0.0516
 7807TIP3    H123385   2.889   0.390   4.146 -0.4773  0.1267 -0.2080
 7807TIP3    H223386   2.981   0.447   4.252  1.3345 -0.7876 -1.2169
 7808TIP3   OH223387   2.997   6.027   2.376 -0.1728  0.1159 -0.8934
 7808TIP3    H123388   2.986   6.122   2.386 -2.5361 -0.0719 -1.1034
 7808TIP3    H223389   3.036   5.999   2.459 -1.0752  1.0798 -0.1076
 7809TIP3   OH223390   4.703   6.775   1.818  0.2787 -0.3282  0.1040
 7809TIP3    H123391   4.740   6.734   1.897 -0.5445  1.0488  1.2615
 7809TIP3    H223392   4.612   6.794   1.842 -0.3247 -0.8708 -1.5975
 7810TIP3   OH223393   1.505   1.007   3.441 -0.1697  0.2409  0.2765
 7810TIP3    H123394   1.478   1.036   3.528  0.5047  1.0747  0.2145
 7810TIP3    H223395   1.423   0.997   3.393 -0.4290  2.1943  0.2552
 7811TIP3   OH223396   5.443   6.191   1.059 -0.3262 -0.6346  0.3777
 7811TIP3    H123397   5.376   6.168   0.996 -0.0457  0.1487 -0.2183
 7811TIP3    H223398   5.422   6.280   1.086  0.1275 -0.6007  0.6415
 7812TIP3   OH223399   4.050   4.843   5.137 -0.1061 -0.0566 -0.4323
 7812TIP3    H123400   4.036   4.807   5.050 -0.0999  0.6689 -0.7350
 7812TIP3    H223401   4.004   4.927   5.137 -0.5520 -0.2921  0.4385
 7813TIP3   OH223402   5.161   2.513   0.730 -0.1311 -0.2280  0.1306
 7813TIP3    H123403   5.217   2.441   0.757  1.9302  1.1941 -0.1216
 7813TIP3    H223404   5.188   2.532   0.640 -2.1294 -0.4677 -0.5762
 7814TIP3   OH223405   6.947   5.135   0.447  0.4013  0.5037  0.8046
 7814TIP3    H123406   6.943   5.199   0.376  1.5250  0.4921  0.7209
 7814TIP3    H223407   6.970   5.053   0.403 -2.3071 -0.3184  0.7117
 7815TIP3   OH223408   5.031   6.376   3.703 -0.3651 -0.4094 -0.0359
 7815TIP3    H123409   5.055   6.332   3.621 -0.9917  0.1765 -0.5448
 7815TIP3    H223410   4.960   6.322   3.738 -0.9029 -0.0014 -0.4873
 7816TIP3   OH223411   5.794   0.118   0.270  0.0303  0.0897  0.3091
 7816TIP3    H123412   5.842   0.141   0.349 -0.3945  0.7543  0.3869
 7816TIP3    H223413   5.704   0.103   0.300 -0.6269  2.4277 -0.2959
 7817TIP3   OH223414   1.428   6.688   4.430 -0.0763  0.4441 -0.1317
 7817TIP3    H123415   1.430   6.767   4.483  1.7011 -0.0308  0.5595
 7817TIP3    H223416   1.518   6.658   4.427 -0.9053 -2.5774  1.1391
 7818TIP3   OH223417   3.614   6.478   2.056  0.6948  0.0892 -0.4495
 7818TIP3    H123418   3.543   6.459   2.117  1.0986  0.1523  0.0440
 7818TIP3    H223419   3.584   6.554   2.007  1.4270  1.6933  1.4662
 7819TIP3   OH223420   6.809   3.363   5.591 -0.1909  0.4156  0.2074
 7819TIP3    H123421   6.874   3.294   5.576 -0.1898  0.5829 -0.6142
 7819TIP3    H223422   6.851   3.424   5.651  1.2663  1.6360 -1.9305
 7820TIP3   OH223423   4.457   0.921   0.867  0.4627 -0.1998  0.4167
 7820TIP3    H123424   4.542   0.901   0.906  0.3424  0.2025  0.9060
 7820TIP3    H223425   4.413   0.975   0.933 -0.6312 -1.3412  0.6577
 7821TIP3   OH223426   5.376   0.972   5.243 -0.8150  0.0082 -0.3674
 7821TIP3    H123427   5.339   0.918   5.173 -1.1784  0.2442 -0.3612
 7821TIP3    H223428   5.362   0.921   5.323  0.9911 -0.9613 -0.6397
 7822TIP3   OH223429   6.734   1.167   3.348  0.3145 -0.0118  0.0253
 7822TIP3    H123430   6.802   1.127   3.293 -0.8462 -0.4656 -1.1192
 7822TIP3    H223431   6.699   1.095   3.400 -1.4829 -0.4675 -1.7295
 7823TIP3   OH223432   4.070   0.932   5.016 -0.4404  0.2100 -0.0325
 7823TIP3    H123433   4.098   1.019   5.044 -1.0399  0.1958  0.6164
 7823TIP3    H223434   4.052   0.943   4.922 -0.2039  0.7037 -0.0270
 7824TIP3   OH223435   5.869   4.070   0.893 -0.5208  0.6281  0.4203
 7824TIP3    H123436   5.879   4.011   0.819 -2.1583  0.5530  0.2296
 7824TIP3    H223437   5.900   4.154   0.861  2.1018 -0.1065  0.7814
 7825TIP3   OH223438   0.484   3.472   1.898  0.6337  0.6505  0.2755
 7825TIP3    H123439   0.446   3.512   1.976  0.9543 -1.8849  1.8662
 7825TIP3    H223440   0.413   3.422   1.859  0.4308  2.0258 -1.2343
 7826TIP3   OH223441   2.771   3.434   2.351  0.3198 -0.5416  0.2086
 7826TIP3    H123442   2.676   3.424   2.342 -0.3448  2.3235  2.4886
 7826TIP3    H223443   2.805   3.345   2.350 -2.5451 -1.7494  0.7402
 7827TIP3   OH223444   1.368   6.538   5.004 -0.1073 -0.1924 -0.0747
 7827TIP3    H123445   1.459   6.515   5.022  0.2471  1.6141  0.6589
 7827TIP3    H223446   1.362   6.540   4.909  0.2212 -1.7488 -0.1417
 7828TIP3   OH223447   0.590   3.724   4.994 -0.0749  0.4503  0.0400
 7828TIP3    H123448   0.504   3.735   4.954  0.1718  0.5519 -0.4735
 7828TIP3    H223449   0.577   3.661   5.064 -0.5967  0.5788  0.0595
 7829TIP3   OH223450   4.606   5.629   0.265  0.3339 -0.1365  0.3630
 7829TIP3    H123451   4.622   5.697   0.200 -1.0753 -0.0914  0.0313
 7829TIP3    H223452   4.558   5.561   0.217 -0.1071 -0.4163  1.1856
 7830TIP3   OH223453   5.086   5.183   4.502 -0.2500  0.2010 -0.2445
 7830TIP3    H123454   5.049   5.097   4.480 -1.2236 -0.2566  2.7768
 7830TIP3    H223455   5.010   5.240   4.514  0.3118  0.9542 -0.2096
 7831TIP3   OH223456   5.746   1.605   2.349 -0.1556 -0.5527  0.2630
 7831TIP3    H123457   5.820   1.665   2.356 -0.5313  0.1279 -1.1634
 7831TIP3    H223458   5.783   1.526   2.308 -0.2400 -0.1442 -0.6188
 7832TIP3   OH223459   0.245   4.208   3.439  0.3019 -0.2235  0.2626
 7832TIP3    H123460   0.312   4.272   3.463 -0.4886  0.9782 -0.6447
 7832TIP3    H223461   0.266   4.184   3.349  0.0863 -0.5829  0.3066
 7833TIP3   OH223462   2.098   6.019   4.601 -0.5510  0.4224  0.0618
 7833TIP3    H123463   2.058   5.983   4.680  0.0851 -2.8725 -0.9352
 7833TIP3    H223464   2.026   6.027   4.539 -0.3768 -1.9019 -0.5403
 7834TIP3   OH223465   1.689   3.261   0.838 -0.0475  0.0123 -0.2345
 7834TIP3    H123466   1.648   3.302   0.915  0.9731 -2.5944  1.8349
 7834TIP3    H223467   1.635   3.185   0.820  1.2223 -0.8698 -0.4063
 7835TIP3   OH223468   5.740   2.564   1.980 -0.7613  0.5340 -0.0790
 7835TIP3    H123469   5.659   2.580   1.932 -0.2453  0.6935 -0.9266
 7835TIP3    H223470   5.757   2.470   1.969  0.4388  0.9155 -2.0360
 7836TIP3   OH223471   3.320   4.108   3.103 -0.3545  0.7190  0.3761
 7836TIP3    H123472   3.300   4.015   3.096 -0.1975  0.8345 -2.8235
 7836TIP3    H223473   3.415   4.113   3.103 -0.3305  0.9051 -1.4493
 7837TIP3   OH223474   6.712   3.730   3.499 -0.0945  0.5692 -0.1471
 7837TIP3    H123475   6.692   3.794   3.431  2.4439 -0.2380 -1.7813
 7837TIP3    H223476   6.806   3.718   3.494  0.2139  0.2669  3.4157
 7838TIP3   OH223477   2.149   1.938   1.349 -0.5623  0.0742  0.1548
 7838TIP3    H123478   2.121   1.927   1.440 -0.3214  1.9731  0.4991
 7838TIP3    H223479   2.082   1.994   1.309 -1.4566 -1.8940 -1.3012
 7839TIP3   OH223480   5.398   1.394   1.718 -0.2786  0.3032  0.4275
 7839TIP3    H123481   5.408   1.306   1.681  0.3560  0.2944  0.6007
 7839TIP3    H223482   5.466   1.399   1.785  0.0660  1.1270  0.0287
 7840TIP3   OH223483   1.397   4.120   3.540 -0.0502 -0.3297  0.0643
 7840TIP3    H123484   1.487   4.090   3.535 -0.1030 -0.2621 -1.8543
 7840TIP3    H223485   1.364   4.115   3.451 -0.4981  4.0614 -0.2686
 7841TIP3   OH223486   1.594   6.717   3.307  0.1691 -0.0067 -0.3690
 7841TIP3    H123487   1.627   6.798   3.267 -1.3491  1.1788  0.6219
 7841TIP3    H223488   1.568   6.744   3.395  0.6173 -1.8530  0.3679
 7842TIP3   OH223489   2.279   1.461   0.445  0.2669 -0.0327 -0.2145
 7842TIP3    H123490   2.228   1.437   0.367  0.9862  0.5822 -0.8820
 7842TIP3    H223491   2.369   1.469   0.414  0.4846  0.7234  0.5732
 7843TIP3   OH223492   2.597   6.660   3.329 -0.1193  0.0705 -0.4356
 7843TIP3    H123493   2.556   6.577   3.306 -1.5344  1.3694 -3.0040
 7843TIP3    H223494   2.527   6.725   3.323  0.7557  1.4505  2.2419
 7844TIP3   OH223495   4.645   3.826   2.169  0.3854  0.7130  0.7722
 7844TIP3    H123496   4.689   3.857   2.248  1.9617  0.2912  0.0922
 7844TIP3    H223497   4.711   3.833   2.100  0.1268 -1.9676  0.1291
 7845TIP3   OH223498   2.295   6.556   3.214  0.0571 -0.5224  0.1472
 7845TIP3    H123499   2.252   6.560   3.129  1.1354 -1.6969 -0.4776
 7845TIP3    H223500   2.349   6.635   3.217 -0.5235 -0.1134  0.0614
 7846TIP3   OH223501   3.542   3.837   1.921 -0.3933  0.3795  0.3518
 7846TIP3    H123502   3.618   3.878   1.881 -0.3177  0.0421  0.1513
 7846TIP3    H223503   3.536   3.750   1.881  0.1856 -0.2944  1.6685
 7847TIP3   OH223504   5.273   4.272   4.007 -0.3604  0.3266 -0.1586
 7847TIP3    H123505   5.301   4.356   4.043  1.2886 -0.9117  1.7037
 7847TIP3    H223506   5.187   4.256   4.046 -0.5078  0.9684 -0.2232
 7848TIP3   OH223507   4.218   3.505   0.112 -0.1094  0.8861 -0.5557
 7848TIP3    H123508   4.131   3.482   0.078 -0.0014 -0.2187 -0.1303
 7848TIP3    H223509   4.278   3.442   0.071  0.3193  0.9181  0.0051
 7849TIP3   OH223510   7.096   0.995   5.163  0.3471 -0.3677 -0.0517
 7849TIP3    H123511   7.057   0.908   5.156  1.6129 -0.8926 -0.7548
 7849TIP3    H223512   7.190   0.980   5.159  0.6309  0.9310  1.0765
 7850TIP3   OH223513   4.818   6.762   1.213 -0.3735  0.1934  0.0869
 7850TIP3    H123514   4.888   6.698   1.216  0.2060  0.7268 -1.2182
 7850TIP3    H223515   4.749   6.725   1.268  1.2965  0.1438  2.3107
 7851TIP3   OH223516   4.222   1.139   5.091 -0.1175  0.3060 -0.1311
 7851TIP3    H123517   4.272   1.188   5.156 -0.5813 -0.3379  0.7230
 7851TIP3    H223518   4.138   1.184   5.086 -0.3604 -0.0965  0.2841
 7852TIP3   OH223519   6.460   6.756   1.148 -0.2281 -0.2589  0.2273
 7852TIP3    H123520   6.548   6.722   1.167 -0.3468 -0.3198  0.6831
 7852TIP3    H223521   6.418   6.687   1.097  0.1915  0.0229 -0.5253
 7853TIP3   OH223522   5.137   0.394   1.013  0.3994 -0.3135 -0.5711
 7853TIP3    H123523   5.173   0.309   0.989  2.6204  0.3048  0.2589
 7853TIP3    H223524   5.157   0.450   0.938  1.0610 -0.0027 -0.1721
 7854TIP3   OH223525   3.450   2.006   5.313  0.0740 -0.4482  0.1735
 7854TIP3    H123526   3.488   1.955   5.241 -0.6666 -1.1435  0.2621
 7854TIP3    H223527   3.377   1.953   5.344 -1.7204  1.3282 -0.7377
 7855TIP3   OH223528   4.343   1.694   4.717 -0.2442 -0.2617  0.2769
 7855TIP3    H123529   4.339   1.699   4.813  1.9577 -2.2771  0.5647
 7855TIP3    H223530   4.272   1.634   4.693 -0.1585 -0.5578  0.7509
 7856TIP3   OH223531   0.348   4.343   0.746 -0.0222 -0.0543 -0.5320
 7856TIP3    H123532   0.362   4.431   0.710 -2.1520  0.3357 -0.5836
 7856TIP3    H223533   0.339   4.288   0.668  0.2625 -0.1206 -0.5175
 7857TIP3   OH223534   6.241   1.994   4.045  0.0867 -0.0121 -0.2435
 7857TIP3    H123535   6.192   1.944   4.110  1.6948 -0.0538  1.0255
 7857TIP3    H223536   6.178   2.057   4.010 -1.4291 -1.5275 -0.3610
 7858TIP3   OH223537   6.553   0.545   3.000 -0.8008 -0.2810  0.5216
 7858TIP3    H123538   6.537   0.634   3.030  0.9837  1.5787 -3.2941
 7858TIP3    H223539   6.626   0.515   3.054 -0.4117  1.2103  0.8803
 7859TIP3   OH223540   3.656   2.645   2.349 -0.6109 -0.0749 -0.6360
 7859TIP3    H123541   3.684   2.575   2.409  0.2233 -0.2454 -1.2125
 7859TIP3    H223542   3.627   2.715   2.407  1.0822  0.1386  0.0198
 7860TIP3   OH223543   1.226   3.104   5.338 -0.0766  0.1273 -0.2317
 7860TIP3    H123544   1.173   3.025   5.346  0.3520 -0.0313  1.5517
 7860TIP3    H223545   1.295   3.094   5.404 -1.0189  2.7323  1.3088
 7861TIP3   OH223546   5.541   1.711   3.017 -0.4440 -0.1188 -0.1243
 7861TIP3    H123547   5.508   1.736   2.931 -0.6585 -1.2587 -0.3924
 7861TIP3    H223548   5.508   1.779   3.076 -1.1073  0.1587 -0.7928
 7862TIP3   OH223549   4.690   2.769   4.595  0.2264 -0.0495  0.2122
 7862TIP3    H123550   4.774   2.747   4.555  0.2580  1.4443 -0.5851
 7862TIP3    H223551   4.662   2.687   4.636  1.5111 -0.8864 -0.4959
 7863TIP3   OH223552   6.794   1.427   2.440  0.2681  0.4210 -0.1430
 7863TIP3    H123553   6.724   1.405   2.503  0.1139  1.2947  0.0023
 7863TIP3    H223554   6.875   1.419   2.491  0.1632  0.8479  0.0991
 7864TIP3   OH223555   6.798   4.803   4.276 -0.0489  0.1126 -0.1937
 7864TIP3    H123556   6.834   4.738   4.336 -1.6204 -0.5340  0.0899
 7864TIP3    H223557   6.855   4.879   4.287 -0.0773 -0.1053  1.8813
 7865TIP3   OH223558   6.780   1.201   0.428  0.4890  0.3505  0.3509
 7865TIP3    H123559   6.855   1.246   0.389  1.6430  0.6463  2.7065
 7865TIP3    H223560   6.808   1.111   0.437  0.6473  0.4854  1.3532
 7866TIP3   OH223561   4.621   1.376   2.150 -0.3534 -0.5969 -0.6292
 7866TIP3    H123562   4.654   1.318   2.082 -3.5924 -0.0547 -2.9212
 7866TIP3    H223563   4.545   1.331   2.186  0.6992 -0.4173  2.0970
 7867TIP3   OH223564   6.305   6.626   5.851  0.1887  0.1756 -0.6302
 7867TIP3    H123565   6.315   6.591   5.763  1.6595  2.1568 -1.3137
 7867TIP3    H223566   6.363   6.572   5.905  0.0511 -0.4040 -1.0552
 7868TIP3   OH223567   1.401   5.162   5.461  0.0128  0.3068  0.5218
 7868TIP3    H123568   1.473   5.100   5.457  0.4282  0.8179  0.0886
 7868TIP3    H223569   1.429   5.237   5.409 -1.2850  0.0475 -0.6284
 7869TIP3   OH223570   4.440   3.063   0.922  0.1089  0.4893 -0.0355
 7869TIP3    H123571   4.487   3.112   0.989  1.2529 -0.5417 -0.0627
 7869TIP3    H223572   4.456   3.113   0.841  0.5122  0.5742  0.0936
 7870TIP3   OH223573   4.028   4.207   3.808 -0.2565  0.1200  0.1474
 7870TIP3    H123574   4.031   4.178   3.899  0.2970 -1.1715 -0.2575
 7870TIP3    H223575   4.001   4.129   3.759  1.9941  0.0310 -1.0816
 7871TIP3   OH223576   0.479   4.167   2.963  0.0122  0.0241  0.2879
 7871TIP3    H123577   0.454   4.129   2.879 -0.6108  1.7137 -0.3354
 7871TIP3    H223578   0.412   4.136   3.024 -0.6515  0.3316 -0.2710
 7872TIP3   OH223579   1.595   4.375   2.657  0.2720  0.1128 -0.0231
 7872TIP3    H123580   1.626   4.389   2.567  3.7984  1.9263  1.2749
 7872TIP3    H223581   1.540   4.452   2.675  1.7479  1.1623  0.1515
 7873TIP3   OH223582   0.555   0.791   4.590  0.2694  0.9442  0.4743
 7873TIP3    H123583   0.591   0.841   4.518 -1.2667  0.8367 -0.4130
 7873TIP3    H223584   0.631   0.763   4.641  1.2804  2.3281 -0.2144
 7874TIP3   OH223585   0.035   6.772   3.783 -0.0249 -0.1981 -0.0338
 7874TIP3    H123586  -0.044   6.730   3.816 -0.7453  1.6988  0.7962
 7874TIP3    H223587   0.094   6.699   3.762 -1.3611 -1.6035  0.8741
 7875TIP3   OH223588   0.585   4.757   1.032 -0.2551  0.3204 -0.4658
 7875TIP3    H123589   0.519   4.693   1.006  0.0919  0.5651 -2.0651
 7875TIP3    H223590   0.668   4.715   1.010  0.0740  0.5651  0.2742
 7876TIP3   OH223591   0.444   2.759   1.670 -0.0289 -0.1176 -0.4016
 7876TIP3    H123592   0.370   2.723   1.718 -1.4395  0.8161 -1.7759
 7876TIP3    H223593   0.453   2.848   1.703 -0.0073  0.0226 -0.7855
 7877TIP3   OH223594   2.530   5.611   0.996 -0.2212  0.8678  0.2146
 7877TIP3    H123595   2.445   5.582   1.031  0.5876 -1.4519  0.4591
 7877TIP3    H223596   2.591   5.596   1.068  0.6433  1.0818 -0.4660
 7878TIP3   OH223597   4.831   3.817   1.583  0.2520  0.2489  0.3171
 7878TIP3    H123598   4.916   3.857   1.563  0.7758  0.0030  1.9337
 7878TIP3    H223599   4.843   3.724   1.566 -0.1063  0.3654 -0.6744
 7879TIP3   OH223600   5.090   1.443   0.447  0.3717  0.1409 -0.5404
 7879TIP3    H123601   5.049   1.372   0.497  0.8100 -0.3951 -0.9348
 7879TIP3    H223602   5.170   1.463   0.495  0.0211  0.6905 -0.1746
 7880TIP3   OH223603   4.069   5.214   1.584 -0.0753  0.7384  0.3382
 7880TIP3    H123604   4.139   5.214   1.650 -0.3560 -1.4486  0.7119
 7880TIP3    H223605   4.099   5.154   1.516 -2.2893 -1.9279  1.4594
 7881TIP3   OH223606   7.177   0.217   3.980 -0.0722 -0.0101  0.0006
 7881TIP3    H123607   7.111   0.286   3.991 -0.0822  0.0879 -0.6399
 7881TIP3    H223608   7.260   0.261   3.992 -0.1059 -0.0486  0.3857
 7882TIP3   OH223609   4.280   6.404   0.638  0.0888 -0.0475 -0.2169
 7882TIP3    H123610   4.302   6.483   0.687 -2.2500 -0.1306  1.0954
 7882TIP3    H223611   4.191   6.418   0.606 -0.2978 -2.0257 -0.1476
 7883TIP3   OH223612   4.938   2.032   2.790  0.1597  0.3657  0.1960
 7883TIP3    H123613   4.975   1.945   2.773  0.3518  0.2691  1.0591
 7883TIP3    H223614   5.013   2.084   2.821 -0.1331  0.5858  0.5396
 7884TIP3   OH223615   4.550   4.277   3.310  0.4088 -0.1679  0.0368
 7884TIP3    H123616   4.528   4.344   3.374 -2.1919 -0.3520 -0.5584
 7884TIP3    H223617   4.513   4.196   3.346  0.2162 -0.5535 -0.9836
 7885TIP3   OH223618   0.616   4.674   5.207 -0.1571 -0.1112 -0.6414
 7885TIP3    H123619   0.592   4.590   5.167  1.7622 -1.6151  1.1418
 7885TIP3    H223620   0.550   4.689   5.275 -1.0595  0.3712 -1.5917
 7886TIP3   OH223621   4.816   1.497   4.458 -0.6635 -0.3227  0.1824
 7886TIP3    H123622   4.810   1.535   4.546  0.3547 -1.8610  0.9598
 7886TIP3    H223623   4.759   1.420   4.462 -1.1948  0.0096 -0.7603
 7887TIP3   OH223624   4.005   4.762   1.931  0.3088 -0.7451  0.6318
 7887TIP3    H123625   4.057   4.839   1.908 -1.5428  1.3746  2.9674
 7887TIP3    H223626   4.022   4.750   2.024 -1.3673 -1.6095  0.8460
 7888TIP3   OH223627   5.927   3.299   4.383  0.0589  0.0796 -0.5441
 7888TIP3    H123628   5.891   3.244   4.314  0.4224 -0.4755 -0.2982
 7888TIP3    H223629   5.898   3.388   4.361 -0.5959 -0.2198 -0.9015
 7889TIP3   OH223630   6.631   0.806   0.758  0.1572  0.2406 -0.3141
 7889TIP3    H123631   6.690   0.744   0.715 -1.1482 -0.5563 -1.0304
 7889TIP3    H223632   6.663   0.892   0.732  1.8428 -0.1246  0.4725
 7890TIP3   OH223633   5.500   0.852   4.717 -0.0643  0.0100  0.3586
 7890TIP3    H123634   5.565   0.784   4.731  0.3358  0.4694  0.7663
 7890TIP3    H223635   5.541   0.932   4.749 -0.8567  0.2933  0.7038
 7891TIP3   OH223636   6.692   4.502   1.689  0.1516 -0.2642 -0.1619
 7891TIP3    H123637   6.647   4.486   1.772 -0.2012  1.0702 -0.0738
 7891TIP3    H223638   6.763   4.563   1.711  0.7248 -0.7290 -0.6619
 7892TIP3   OH223639   3.372   6.192   4.557  0.3703  0.2890  0.1725
 7892TIP3    H123640   3.440   6.244   4.600 -0.7707  2.9577 -1.0120
 7892TIP3    H223641   3.417   6.114   4.526  2.0843  0.2613  2.5017
 7893TIP3   OH223642   5.920   1.342   4.527  0.5179  0.2686  0.0766
 7893TIP3    H123643   5.943   1.435   4.536 -0.0155  0.3013  1.3284
 7893TIP3    H223644   5.826   1.343   4.511  0.6190 -0.0356 -0.5385
 7894TIP3   OH223645   6.927   0.374   3.982 -0.3907  0.4511  0.0116
 7894TIP3    H123646   6.868   0.314   3.936  0.5834 -0.6843  0.1876
 7894TIP3    H223647   6.869   0.425   4.039 -1.2810 -0.1051 -0.3702
 7895TIP3   OH223648   5.267   2.577   3.908 -0.5712  0.3667  0.2692
 7895TIP3    H123649   5.203   2.506   3.901 -1.5915  1.3548 -0.7157
 7895TIP3    H223650   5.236   2.631   3.981 -1.5076  1.4426 -0.8864
 7896TIP3   OH223651   5.828   1.645   2.042  0.3280 -0.4085 -0.4611
 7896TIP3    H123652   5.811   1.715   2.106  1.7664  0.1965 -0.6911
 7896TIP3    H223653   5.853   1.569   2.095 -0.6342 -0.5712 -0.2316
 7897TIP3   OH223654   5.290   1.563   3.388  0.3079  0.5004  0.5259
 7897TIP3    H123655   5.378   1.552   3.351 -0.1576  0.0181 -0.5014
 7897TIP3    H223656   5.281   1.657   3.404  0.6943  0.6631 -0.1870
 7898TIP3   OH223657   4.275   5.142   0.883  0.5404 -0.0147  0.2119
 7898TIP3    H123658   4.361   5.100   0.875  0.9576  0.8876 -0.2517
 7898TIP3    H223659   4.277   5.185   0.968  1.9398  2.8981 -1.1520
 7899TIP3   OH223660   1.447   1.061   4.079  0.5884 -0.1359 -0.1509
 7899TIP3    H123661   1.484   1.144   4.049  1.7161  0.5890  2.8163
 7899TIP3    H223662   1.352   1.071   4.069  0.8317  0.4692 -2.1315
 7900TIP3   OH223663   2.175   4.946   2.371  0.1767  0.1253 -0.1755
 7900TIP3    H123664   2.105   5.011   2.377  0.7258  0.7128  0.0012
 7900TIP3    H223665   2.134   4.864   2.399 -0.4313  0.4661 -0.0457
 7901TIP3   OH223666   5.365   1.484   3.798 -0.2021  0.1073  0.0063
 7901TIP3    H123667   5.351   1.508   3.889  0.3919  2.2374 -0.4132
 7901TIP3    H223668   5.443   1.532   3.771 -0.2120 -0.6659 -1.5695
 7902TIP3   OH223669   0.028   3.951   5.624  0.1940 -0.1899  0.1219
 7902TIP3    H123670   0.098   3.888   5.606  2.4609  2.6542 -2.0639
 7902TIP3    H223671   0.058   3.998   5.702 -0.9968 -1.0186  1.1354
 7903TIP3   OH223672   5.988   2.416   2.647  0.3884 -0.1789  0.1900
 7903TIP3    H123673   5.924   2.470   2.601 -2.2168 -0.6524  2.9886
 7903TIP3    H223674   6.040   2.478   2.698  0.2060  0.0150  0.1400
 7904TIP3   OH223675   6.095   5.241   2.936 -0.0013 -0.0226 -0.1269
 7904TIP3    H123676   6.139   5.289   2.866 -1.6487  0.5125 -0.8450
 7904TIP3    H223677   6.011   5.286   2.947 -0.6749 -1.4143  0.7079
 7905TIP3   OH223678   1.958   4.668   0.604 -0.2357  0.1300 -0.1647
 7905TIP3    H123679   1.939   4.595   0.545 -1.6984  1.7457 -1.8340
 7905TIP3    H223680   1.881   4.676   0.659  0.5553 -0.5040  1.0593
 7906TIP3   OH223681   6.924   4.300   5.026  0.1858  0.2454 -0.0443
 7906TIP3    H123682   6.937   4.290   5.121 -2.1599  0.0067  0.3079
 7906TIP3    H223683   6.934   4.211   4.992 -0.6143  0.0385  0.2360
 7907TIP3   OH223684   3.384   0.229   2.889  0.1866  0.0866  0.2153
 7907TIP3    H123685   3.365   0.162   2.824 -1.5561  1.1696 -0.4639
 7907TIP3    H223686   3.357   0.191   2.972 -0.1862 -0.2833 -0.0725
 7908TIP3   OH223687   3.626   6.485   4.225  0.0305 -0.4765  0.4355
 7908TIP3    H123688   3.658   6.452   4.309  1.8948  1.3545  0.5381
 7908TIP3    H223689   3.535   6.511   4.242  0.4837  0.1955  2.0086
 7909TIP3   OH223690   7.198   4.091   0.383 -0.1774  0.2932  0.1660
 7909TIP3    H123691   7.258   4.017   0.368 -2.1814 -1.2975 -0.4279
 7909TIP3    H223692   7.111   4.052   0.381 -1.3138  2.6751  0.0897
 7910TIP3   OH223693   0.096   5.533   3.670 -0.0078 -0.1846  0.5217
 7910TIP3    H123694   0.134   5.513   3.756 -0.1996 -1.2452  0.3780
 7910TIP3    H223695   0.157   5.596   3.631  1.1324 -1.1428  0.6734
 7911TIP3   OH223696   3.907   5.410   2.993  0.7131 -0.0757 -0.1526
 7911TIP3    H123697   3.985   5.399   3.048  0.4834  0.8269  0.3714
 7911TIP3    H223698   3.928   5.485   2.936 -0.3237  1.1739  1.0362
 7912TIP3   OH223699   2.698   3.415   3.713 -0.2912 -0.0622  0.0561
 7912TIP3    H123700   2.675   3.323   3.705  0.1639 -0.1665 -0.0450
 7912TIP3    H223701   2.791   3.416   3.736 -0.0759  0.3804 -0.7658
 7913TIP3   OH223702   5.060   4.858   2.565  0.2569 -0.2141  0.2854
 7913TIP3    H123703   5.119   4.809   2.622 -1.5207 -1.8829  0.8230
 7913TIP3    H223704   5.107   4.864   2.481  1.6326 -0.4713  1.0161
 7914TIP3   OH223705   1.031   2.674   0.042  0.0015 -0.3894 -0.0141
 7914TIP3    H123706   1.019   2.586   0.004  0.2716  0.3893 -2.0442
 7914TIP3    H223707   1.084   2.721  -0.022 -1.4648  1.7490  0.2234
 7915TIP3   OH223708   1.926   3.985   5.784 -0.2453  0.6353  0.0695
 7915TIP3    H123709   1.896   3.940   5.705  0.5881  1.9994 -1.0729
 7915TIP3    H223710   1.968   3.916   5.836  0.5337 -0.0224 -1.3708
 7916TIP3   OH223711   0.349   5.676   2.196  0.3088 -0.1884 -0.2930
 7916TIP3    H123712   0.375   5.765   2.219 -0.0241 -0.6376  2.0857
 7916TIP3    H223713   0.398   5.620   2.256  0.7452 -1.6839 -1.9315
 7917TIP3   OH223714   3.490   1.381   0.798  0.7990  0.5152 -0.2501
 7917TIP3    H123715   3.538   1.463   0.812  0.3501  0.6762  0.4144
 7917TIP3    H223716   3.401   1.401   0.828  0.5925 -0.0972 -0.4607
 7918TIP3   OH223717   0.651   2.874   0.329  0.4384  0.2860  0.2999
 7918TIP3    H123718   0.704   2.800   0.300  1.6916  1.4606 -0.5469
 7918TIP3    H223719   0.654   2.935   0.256 -2.5469  0.2234  0.0063
 7919TIP3   OH223720   4.355   1.011   1.917 -0.3652 -0.0825  0.0101
 7919TIP3    H123721   4.289   1.003   1.986  0.3219 -0.7592  0.6010
 7919TIP3    H223722   4.390   0.923   1.906  0.3237  0.2316 -0.4105
 7920TIP3   OH223723   6.453   3.278   4.525 -0.1496  0.2527  0.7486
 7920TIP3    H123724   6.361   3.304   4.519  0.4442  2.3094 -0.5618
 7920TIP3    H223725   6.450   3.183   4.531 -2.3353  0.1810 -0.3279
 7921TIP3   OH223726   2.634   5.455   5.798  0.3279  0.3215  0.3335
 7921TIP3    H123727   2.630   5.360   5.803  1.1074  0.1555 -1.2605
 7921TIP3    H223728   2.692   5.481   5.870 -0.3311 -0.3446  1.1158
 7922TIP3   OH223729   6.020   4.967   1.042 -0.2122  0.1961 -0.3471
 7922TIP3    H123730   6.032   4.889   1.095  0.8577  0.0292 -0.8028
 7922TIP3    H223731   6.046   4.941   0.954 -1.8455  0.5045 -0.9569
 7923TIP3   OH223732   6.100   4.239   1.073  0.1129  0.2611 -0.6014
 7923TIP3    H123733   6.018   4.249   1.121 -0.9122 -2.8616 -1.4728
 7923TIP3    H223734   6.165   4.223   1.142 -0.3045  1.0918  0.0068
 7924TIP3   OH223735   4.932   6.660   1.650  0.0515 -0.2033  0.1369
 7924TIP3    H123736   4.891   6.635   1.733 -1.0452 -0.6147 -0.5118
 7924TIP3    H223737   5.020   6.690   1.675 -1.2386  2.5660  1.8232
 7925TIP3   OH223738   5.291   5.460   4.800  0.3740 -0.2637 -0.0270
 7925TIP3    H123739   5.246   5.491   4.722  0.1237  0.9732  0.5706
 7925TIP3    H223740   5.306   5.367   4.785 -1.3456 -0.4533 -0.7290
 7926TIP3   OH223741   0.418   3.199   4.816 -0.1836 -0.3402 -0.0367
 7926TIP3    H123742   0.330   3.233   4.832 -0.1434 -0.2549  0.0064
 7926TIP3    H223743   0.409   3.104   4.822 -0.1108 -0.3004  0.7925
 7927TIP3   OH223744   5.717   0.885   3.390 -0.1738  0.0585 -0.2344
 7927TIP3    H123745   5.760   0.857   3.470 -1.3434 -1.7335 -0.1836
 7927TIP3    H223746   5.721   0.809   3.332  0.7377  1.3294 -1.9715
 7928TIP3   OH223747   5.636   3.373   4.563 -0.3500  0.5811  0.2009
 7928TIP3    H123748   5.614   3.391   4.472 -0.6992  0.8636  0.3403
 7928TIP3    H223749   5.711   3.430   4.581  1.1294 -1.0347 -0.5415
 7929TIP3   OH223750   1.873   2.622   3.713  0.1400  0.3983 -0.3993
 7929TIP3    H123751   1.946   2.636   3.653  1.0904 -1.0354  0.3345
 7929TIP3    H223752   1.897   2.672   3.791  0.1898  0.1889 -0.2785
 7930TIP3   OH223753   5.111   2.471   2.062 -0.3345  0.2826 -0.4296
 7930TIP3    H123754   5.047   2.477   1.991 -2.4638  3.2436  1.5188
 7930TIP3    H223755   5.173   2.542   2.044 -0.2180  0.3165  0.0925
 7931TIP3   OH223756   1.642   3.502   3.349  0.2315  0.4921  0.3694
 7931TIP3    H123757   1.719   3.558   3.357  0.6551 -0.3564  4.1107
 7931TIP3    H223758   1.676   3.413   3.352 -0.7295  0.0058 -1.4575
 7932TIP3   OH223759   2.610   4.900   4.543  0.2881 -0.4216  0.3193
 7932TIP3    H123760   2.631   4.844   4.617  0.5567  0.1893  0.7175
 7932TIP3    H223761   2.667   4.977   4.554 -2.3674  1.5240  1.7135
 7933TIP3   OH223762   6.628   4.547   4.302  0.1159 -0.4522 -0.3359
 7933TIP3    H123763   6.614   4.467   4.252 -0.4769 -0.7360  0.2649
 7933TIP3    H223764   6.722   4.547   4.323 -0.2048 -2.0218  1.3384
 7934TIP3   OH223765   4.620   5.082   5.220 -0.3819 -0.3935 -0.0826
 7934TIP3    H123766   4.596   5.151   5.158 -2.4359 -0.4265  0.6235
 7934TIP3    H223767   4.575   5.004   5.188  2.0217 -1.5344 -0.9454
 7935TIP3   OH223768   4.827   6.129   4.529 -0.4286  0.1330 -0.0560
 7935TIP3    H123769   4.810   6.064   4.597 -3.0919  1.8423  1.0812
 7935TIP3    H223770   4.921   6.149   4.537 -0.1108 -1.6614  1.2501
 7936TIP3   OH223771   4.546   5.060   0.886 -0.2969 -0.7844  0.0715
 7936TIP3    H123772   4.620   5.081   0.828  0.3442  1.4679  1.5377
 7936TIP3    H223773   4.587   5.019   0.962 -0.6988 -0.6302  0.3719
 7937TIP3   OH223774   5.932   1.032   4.973 -0.3944  0.3967  0.2280
 7937TIP3    H123775   6.009   1.067   4.929 -0.6191 -0.7689 -1.1600
 7937TIP3    H223776   5.875   1.108   4.986  0.7006  1.1543  0.6893
 7938TIP3   OH223777   2.528   2.454   4.128  0.1139  0.0549 -0.4662
 7938TIP3    H123778   2.470   2.522   4.162  1.4467  0.5326  0.9495
 7938TIP3    H223779   2.616   2.491   4.136  0.9921 -2.2119  1.3500
 7939TIP3   OH223780   3.922  -0.022   2.362  0.0959 -0.1600 -0.6300
 7939TIP3    H123781   3.956   0.051   2.414 -0.5279 -0.0156 -0.4225
 7939TIP3    H223782   3.861   0.018   2.301 -1.2085 -0.6490  0.3205
 7940TIP3   OH223783   2.109   2.260   0.314  0.3147  0.6173 -0.2589
 7940TIP3    H123784   2.110   2.164   0.310  0.5135  0.4902  1.9019
 7940TIP3    H223785   2.182   2.287   0.258  2.3383 -0.6704  1.6233
 7941TIP3   OH223786   3.538   0.159   0.745 -0.2196  0.1206  0.0091
 7941TIP3    H123787   3.632   0.158   0.759 -0.0683 -0.9025 -0.8927
 7941TIP3    H223788   3.524   0.099   0.671 -1.8821 -2.3612  2.1547
 7942TIP3   OH223789   6.767   1.296   0.031  0.1909  0.0138 -0.2804
 7942TIP3    H123790   6.823   1.303   0.108 -1.5648  0.6584  1.0052
 7942TIP3    H223791   6.748   1.386   0.007 -0.3788 -0.1876 -0.6131
 7943TIP3   OH223792   0.705   3.750   2.997  0.9744  0.5215 -0.2767
 7943TIP3    H123793   0.673   3.661   2.981 -0.1775  1.0542 -1.1040
 7943TIP3    H223794   0.770   3.740   3.066 -0.0361 -0.8064  0.5443
 7944TIP3   OH223795   4.754   2.295   2.666 -0.0661  0.0126 -0.0428
 7944TIP3    H123796   4.828   2.293   2.726  0.5932 -1.0067 -0.8610
 7944TIP3    H223797   4.790   2.266   2.582 -1.1200  0.7282 -0.7657
 7945TIP3   OH223798   4.037   6.100   0.380 -0.1781  0.0362 -0.3112
 7945TIP3    H123799   4.121   6.079   0.421 -0.6274  0.8786  1.1205
 7945TIP3    H223800   4.053   6.182   0.333 -0.1015  0.0068 -0.3357
 7946TIP3   OH223801   5.633   1.585   3.754 -0.4350  0.4886 -0.3213
 7946TIP3    H123802   5.717   1.558   3.792 -1.1317 -0.5645  0.5037
 7946TIP3    H223803   5.606   1.659   3.807  0.0024  0.8968 -0.6518
 7947TIP3   OH223804   6.463   0.971   5.032 -0.1518 -0.3521 -0.2421
 7947TIP3    H123805   6.553   0.946   5.050 -0.6811 -1.2393  1.3948
 7947TIP3    H223806   6.464   1.003   4.942  2.0964  1.2048  0.2645
 7948TIP3   OH223807   1.333   6.492   4.278  0.1811 -0.4797  0.1427
 7948TIP3    H123808   1.339   6.586   4.290 -1.2081  0.1459 -2.9493
 7948TIP3    H223809   1.406   6.470   4.219  0.1430 -1.2241  0.3567
 7949TIP3   OH223810   0.975   3.344   2.649 -0.7549  0.4988  0.6147
 7949TIP3    H123811   0.990   3.253   2.622  3.3158  1.3796 -0.7750
 7949TIP3    H223812   0.924   3.382   2.577 -0.1490 -0.0657 -0.1380
 7950TIP3   OH223813   0.616   6.650   4.253 -0.3844 -0.1220 -0.2111
 7950TIP3    H123814   0.526   6.618   4.248 -0.3436 -0.5151  1.1589
 7950TIP3    H223815   0.655   6.600   4.325  0.9954 -0.1195 -0.9241
 7951TIP3   OH223816   4.411   3.880   3.234  0.0466 -0.1983  0.2371
 7951TIP3    H123817   4.493   3.856   3.191 -0.6138  0.5566 -1.5566
 7951TIP3    H223818   4.349   3.812   3.206 -0.3256  0.1523  0.2024
 7952TIP3   OH223819   6.648   1.881   1.392 -0.2375  0.1432 -0.4691
 7952TIP3    H123820   6.565   1.930   1.394 -0.6540 -0.4834  2.2103
 7952TIP3    H223821   6.654   1.847   1.303 -3.3436 -0.5298 -0.5288
 7953TIP3   OH223822   3.608   1.399   4.003  0.5707  0.1405 -0.3348
 7953TIP3    H123823   3.513   1.397   3.992  0.4412  0.9048  0.6099
 7953TIP3    H223824   3.640   1.333   3.941 -0.6679 -1.1645  0.3688
 7954TIP3   OH223825   7.112   2.944   1.072 -0.2902 -0.0588 -0.1167
 7954TIP3    H123826   7.129   3.035   1.047 -2.0213 -0.3606 -2.9069
 7954TIP3    H223827   7.071   2.906   0.994 -0.0444 -3.1193  1.1269
 7955TIP3   OH223828   4.588   2.404   0.907  0.1512  0.5779  0.1847
 7955TIP3    H123829   4.678   2.379   0.885  0.3369  0.1128  1.3979
 7955TIP3    H223830   4.544   2.321   0.927 -0.7186  0.7426 -0.9046
 7956TIP3   OH223831   5.581   1.769   3.954  0.7261  0.0728  0.3700
 7956TIP3    H123832   5.589   1.800   4.044  1.1726 -0.3489  0.4806
 7956TIP3    H223833   5.621   1.838   3.901  0.2995  0.4060  0.4728
 7957TIP3   OH223834   1.709   2.500   4.830  0.2109  0.2701  0.2476
 7957TIP3    H123835   1.693   2.423   4.885 -0.2024 -0.8279 -1.3235
 7957TIP3    H223836   1.769   2.468   4.762 -2.1530  0.4762 -2.1171
 7958TIP3   OH223837   4.990   4.115   0.494  0.0575 -0.2158  0.3588
 7958TIP3    H123838   4.924   4.123   0.425  0.9596 -0.3393 -0.5349
 7958TIP3    H223839   4.959   4.173   0.563 -0.3587  0.6607 -0.5419
 7959TIP3   OH223840   4.486   6.264   2.241 -0.5386  0.4900  0.0070
 7959TIP3    H123841   4.404   6.236   2.280 -1.7880  2.3354 -1.1172
 7959TIP3    H223842   4.481   6.236   2.150 -0.8285  2.2571 -0.5608
 7960TIP3   OH223843   1.308   6.001   3.136  0.2868 -0.5449 -0.0677
 7960TIP3    H123844   1.292   6.093   3.115  0.9914 -0.1071  1.1651
 7960TIP3    H223845   1.238   5.954   3.092 -0.5618  0.6640 -0.0696
 7961TIP3   OH223846   6.201   5.053   3.982  0.0382 -0.4506 -0.1892
 7961TIP3    H123847   6.214   5.012   3.896 -1.1246 -1.2251 -0.0218
 7961TIP3    H223848   6.261   5.007   4.040 -0.4176 -1.1432 -0.2486
 7962TIP3   OH223849   4.712   1.086   2.302 -0.7296 -0.3762 -0.0626
 7962TIP3    H123850   4.653   1.131   2.242  0.1326 -0.4381 -0.9892
 7962TIP3    H223851   4.665   1.084   2.385 -1.7834  0.0735 -0.6273
 7963TIP3   OH223852   2.214   6.399   1.875 -0.0380 -0.3556  0.0173
 7963TIP3    H123853   2.296   6.447   1.884  0.1695 -0.8292  0.7458
 7963TIP3    H223854   2.235   6.311   1.905 -0.6763 -0.6267 -0.3162
 7964TIP3   OH223855   2.281   5.172   3.292  0.0911 -0.3381 -0.1085
 7964TIP3    H123856   2.372   5.154   3.270  1.1198  3.9205 -0.3559
 7964TIP3    H223857   2.273   5.151   3.385  0.9856 -1.7461 -0.3349
 7965TIP3   OH223858   6.078   5.973   1.166  0.1198  0.8120 -0.8488
 7965TIP3    H123859   6.159   5.926   1.144 -0.3332 -0.1547 -0.5268
 7965TIP3    H223860   6.012   5.937   1.107 -0.5346  0.0383  0.3216
 7966TIP3   OH223861   5.895   6.833   1.519  0.3953 -0.0221 -0.2634
 7966TIP3    H123862   5.950   6.763   1.484  1.7389  1.3825 -1.1054
 7966TIP3    H223863   5.810   6.792   1.532  1.4859 -2.1818  0.6836
 7967TIP3   OH223864   3.871   3.231   4.741 -0.1418 -0.8944  0.1358
 7967TIP3    H123865   3.795   3.273   4.701  0.7943 -0.1313 -0.9056
 7967TIP3    H223866   3.942   3.244   4.678  1.8323  1.6710  2.6090
 7968TIP3   OH223867   1.893   4.085   2.353 -0.5372 -0.7026 -0.3754
 7968TIP3    H123868   1.924   4.033   2.427 -0.0373 -0.5290 -0.4600
 7968TIP3    H223869   1.952   4.160   2.349 -1.2482 -0.1299 -0.2691
 7969TIP3   OH223870   4.089   2.491   2.355  0.3222  0.2245  0.9297
 7969TIP3    H123871   4.124   2.580   2.358 -1.1827  0.8150  1.7011
 7969TIP3    H223872   4.051   2.483   2.268 -1.4339  1.1266  1.5673
 7970TIP3   OH223873   2.601   5.562   3.708  0.5120  0.7056 -0.4457
 7970TIP3    H123874   2.680   5.597   3.666  1.7496 -1.4409 -0.0930
 7970TIP3    H223875   2.591   5.615   3.787  1.3125  1.3231 -0.7376
 7971TIP3   OH223876   2.089   6.257   3.525  0.2351 -0.0417 -0.3860
 7971TIP3    H123877   2.070   6.194   3.595 -0.2410  0.5721  0.0562
 7971TIP3    H223878   2.034   6.229   3.452 -2.1035  1.3659  0.6854
 7972TIP3   OH223879   2.567   6.020   0.942  0.4450  0.0395 -0.3259
 7972TIP3    H123880   2.645   5.968   0.958 -0.5229 -1.1967  0.5584
 7972TIP3    H223881   2.580   6.058   0.855  1.7422 -0.6434 -0.4450
 7973TIP3   OH223882   5.685   1.706   5.472 -0.0833 -0.5624  0.4988
 7973TIP3    H123883   5.619   1.765   5.509 -0.5890 -0.3664 -0.6558
 7973TIP3    H223884   5.643   1.670   5.393  1.6781  0.6639 -1.0743
 7974TIP3   OH223885   5.711   6.068   2.985  0.2800 -0.3218 -0.2271
 7974TIP3    H123886   5.805   6.081   2.971  0.2732  1.2319  0.9573
 7974TIP3    H223887   5.705   6.021   3.068 -0.0043 -0.5028 -0.3467
 7975TIP3   OH223888   0.204   6.533   0.197 -0.3624 -0.0453 -0.5355
 7975TIP3    H123889   0.289   6.549   0.237 -0.7426  0.8913 -0.0778
 7975TIP3    H223890   0.141   6.538   0.269 -0.8656 -0.1849 -0.9534
 7976TIP3   OH223891   2.374   4.132   2.833 -0.2403 -0.1196  0.0967
 7976TIP3    H123892   2.447   4.119   2.773 -0.1890  1.4320 -0.2188
 7976TIP3    H223893   2.412   4.180   2.907 -1.0702  1.4791 -0.4643
 7977TIP3   OH223894   5.723   4.957   3.543  0.2402 -0.0024  0.3533
 7977TIP3    H123895   5.641   4.954   3.592  0.1079 -1.2935  0.0843
 7977TIP3    H223896   5.778   4.889   3.583  0.4942 -0.3964 -0.6312
 7978TIP3   OH223897   3.012   5.983   0.104  0.6335  0.1815 -0.2746
 7978TIP3    H123898   3.083   5.950   0.159 -0.5611  0.3247  1.4473
 7978TIP3    H223899   3.035   6.075   0.090  2.0556 -0.3654 -1.9317
 7979TIP3   OH223900   4.763   0.876   1.573  0.4157  0.2076  0.0868
 7979TIP3    H123901   4.829   0.880   1.642  1.6683  2.0877 -1.1382
 7979TIP3    H223902   4.802   0.821   1.505  1.2216  2.0805 -1.0480
 7980TIP3   OH223903   4.741   2.349   5.868 -0.2831  0.1526  0.3069
 7980TIP3    H123904   4.808   2.370   5.804  1.6817 -0.5118  2.0289
 7980TIP3    H223905   4.693   2.275   5.830  0.8991 -0.3001 -0.3516
 7981TIP3   OH223906   5.697   3.829   5.328  0.1455  0.0404 -0.1093
 7981TIP3    H123907   5.760   3.817   5.258 -0.6054 -0.9714 -0.6275
 7981TIP3    H223908   5.722   3.912   5.369  0.6307  0.6171 -1.5311
 7982TIP3   OH223909   0.278   5.863   5.550 -0.3314  0.0693 -0.5471
 7982TIP3    H123910   0.267   5.770   5.571 -0.9790  0.5112  1.2502
 7982TIP3    H223911   0.266   5.908   5.634  0.6836  1.7327 -1.2542
 7983TIP3   OH223912   1.831   4.348   5.306  0.0058  0.4427 -0.3764
 7983TIP3    H123913   1.860   4.388   5.224 -2.6134  0.1218 -1.5509
 7983TIP3    H223914   1.763   4.286   5.279  0.0248 -0.6801  1.9413
 7984TIP3   OH223915   3.474   5.846   4.477  0.2810  0.4001  0.5432
 7984TIP3    H123916   3.512   5.759   4.460 -2.8248 -0.6265 -2.3134
 7984TIP3    H223917   3.520   5.904   4.416 -1.2724 -0.4672 -1.5799
 7985TIP3   OH223918   2.344   2.917   4.351 -0.0429  0.6371  0.4084
 7985TIP3    H123919   2.261   2.871   4.340 -0.4286  1.8285 -2.6575
 7985TIP3    H223920   2.352   2.929   4.446 -2.2514 -1.4240  0.9613
 7986TIP3   OH223921   1.663   0.241   3.937 -0.3072  0.3729 -0.2578
 7986TIP3    H123922   1.708   0.229   4.021 -4.1260 -0.9740  1.8496
 7986TIP3    H223923   1.654   0.152   3.902 -1.7303  0.5254 -0.3272
 7987TIP3   OH223924   2.355   6.316   3.315 -0.5893 -0.2860  0.1387
 7987TIP3    H123925   2.320   6.361   3.238 -2.8912 -0.2328  1.1154
 7987TIP3    H223926   2.323   6.368   3.389  0.6150 -0.9624  1.1641
 7988TIP3   OH223927   6.688   3.767   4.589 -0.1446 -0.0899 -0.3413
 7988TIP3    H123928   6.688   3.676   4.618  0.5340  0.0598  0.1635
 7988TIP3    H223929   6.754   3.810   4.644 -1.6681  1.1029  0.6564
 7989TIP3   OH223930   1.897   5.429   5.330 -0.0856 -0.1039  0.5717
 7989TIP3    H123931   1.881   5.522   5.315  2.1460  0.1804 -0.3262
 7989TIP3    H223932   1.947   5.425   5.412  1.6362 -0.2922 -0.4476
 7990TIP3   OH223933   4.921   5.388   2.047  0.5281  0.3936 -0.6979
 7990TIP3    H123934   4.850   5.359   2.104  2.5888 -0.3639  1.6473
 7990TIP3    H223935   4.935   5.480   2.069  0.2543  0.5594 -1.2010
 7991TIP3   OH223936   7.086   3.253   2.937  0.1060  0.3252 -0.4031
 7991TIP3    H123937   7.077   3.157   2.934 -0.1854  0.3138  0.3952
 7991TIP3    H223938   7.000   3.284   2.967 -0.0778  0.9086 -1.4997
 7992TIP3   OH223939   1.522   3.544   2.741  0.2723  0.2959  0.3170
 7992TIP3    H123940   1.502   3.575   2.830  0.1944  1.1654  0.0062
 7992TIP3    H223941   1.534   3.624   2.690  1.0541 -0.1910 -0.2956
 7993TIP3   OH223942   6.366   3.462   2.868  0.1715  0.0687 -0.0556
 7993TIP3    H123943   6.419   3.397   2.822  0.1771  0.3336 -0.4248
 7993TIP3    H223944   6.287   3.471   2.814  0.6343  1.1418 -0.5676
 7994TIP3   OH223945   0.145   1.074   1.492  0.4823 -0.3378 -0.9709
 7994TIP3    H123946   0.135   1.164   1.524  1.4077 -0.3051 -0.7447
 7994TIP3    H223947   0.056   1.046   1.471 -0.6278 -1.0767  3.6229
 7995TIP3   OH223948   0.517   1.759   1.897 -0.2500 -0.2459  0.2818
 7995TIP3    H123949   0.573   1.754   1.974  0.8159  2.6066 -0.1811
 7995TIP3    H223950   0.485   1.849   1.896 -0.9821 -0.4614 -2.0829
 7996TIP3   OH223951   1.336   4.071   4.331  0.1557  0.4789  0.7301
 7996TIP3    H123952   1.384   3.994   4.302  0.7952  1.5727 -1.3262
 7996TIP3    H223953   1.379   4.144   4.288 -1.9631  1.7545  0.6167
 7997TIP3   OH223954   1.823   4.652   0.094 -0.9247 -0.1126  0.0365
 7997TIP3    H123955   1.911   4.670   0.129 -0.8792 -0.3006  0.0203
 7997TIP3    H223956   1.767   4.716   0.138 -0.7421  0.1747 -0.1379
 7998TIP3   OH223957   3.699   0.071   2.224  0.4055  0.1013 -0.1665
 7998TIP3    H123958   3.671   0.052   2.134  0.8611 -0.0631 -0.2793
 7998TIP3    H223959   3.771   0.133   2.214  0.3519  0.2058  0.0925
 7999TIP3   OH223960   5.587   2.488   5.756  0.1377 -0.6303  0.3838
 7999TIP3    H123961   5.572   2.582   5.763 -0.1211 -0.7560  2.0641
 7999TIP3    H223962   5.616   2.475   5.666 -1.6199  0.7842 -0.4428
 8000TIP3   OH223963   0.830   2.930   5.719 -1.0277  0.5879  0.0061
 8000TIP3    H123964   0.793   2.922   5.807  0.1356  1.1801  0.5604
 8000TIP3    H223965   0.858   2.841   5.697 -0.8408  0.5338  0.4483
 8001TIP3   OH223966   4.763   5.918   1.444 -0.0970 -0.2475 -0.4081
 8001TIP3    H123967   4.695   5.851   1.452 -0.3816  0.2118  1.5396
 8001TIP3    H223968   4.822   5.901   1.518 -1.1473  2.6177  1.2762
 8002TIP3   OH223969   4.708   0.963   0.599 -0.0384 -0.1226  0.6378
 8002TIP3    H123970   4.662   1.037   0.561 -1.8846 -0.5717  1.8578
 8002TIP3    H223971   4.675   0.887   0.551  1.9808 -0.2130 -0.7355
 8003TIP3   OH223972   4.816   4.388   2.822  0.4727 -0.0225 -0.7172
 8003TIP3    H123973   4.790   4.352   2.906 -0.5385 -1.6330 -1.6589
 8003TIP3    H223974   4.903   4.424   2.836 -0.3487  1.3046  1.4124
 8004TIP3   OH223975   3.014   0.381   5.766  0.7469  0.0011 -0.0286
 8004TIP3    H123976   2.996   0.427   5.684  1.6808  0.4664  0.0126
 8004TIP3    H223977   3.054   0.299   5.739  0.5739 -0.0771 -0.0500
 8005TIP3   OH223978   2.924   2.686   5.597 -0.1543 -0.1909  0.0517
 8005TIP3    H123979   2.968   2.608   5.563 -1.5942 -0.5470 -1.1154
 8005TIP3    H223980   2.995   2.748   5.613  0.8319 -0.8717 -1.3995
 8006TIP3   OH223981   2.691   5.309   1.435  0.0725  0.0925  0.1382
 8006TIP3    H123982   2.767   5.253   1.450  0.4203  0.4271 -0.3455
 8006TIP3    H223983   2.659   5.284   1.349  0.0150  0.3903  0.0712
 8007TIP3   OH223984   0.340   0.459   3.305  0.8783 -0.5625  0.2535
 8007TIP3    H123985   0.293   0.528   3.258  0.8306  0.0437  1.1528
 8007TIP3    H223986   0.271   0.401   3.338  0.9083 -0.9517 -0.3520
 8008TIP3   OH223987   1.523   3.699   3.820  0.4212  0.1695  0.2202
 8008TIP3    H123988   1.539   3.779   3.770  0.8724 -0.7665 -1.1880
 8008TIP3    H223989   1.610   3.668   3.846  0.2550  0.0662  0.6762
 8009TIP3   OH223990   4.215   2.737   2.425  0.6559  0.6278  0.0108
 8009TIP3    H123991   4.242   2.662   2.479  0.4289  0.4758 -0.0820
 8009TIP3    H223992   4.191   2.805   2.489  0.5530  0.5082  0.1018
 8010TIP3   OH223993   2.840  -0.028   1.287  0.2170 -0.3190  0.2212
 8010TIP3    H123994   2.788   0.040   1.244  0.8588 -0.7996 -1.4132
 8010TIP3    H223995   2.915   0.018   1.324  0.3910 -0.0706 -0.4382
 8011TIP3   OH223996   2.288   2.066   5.815 -0.5182 -0.2759 -0.0571
 8011TIP3    H123997   2.212   2.122   5.799  0.5029  0.1770 -4.7085
 8011TIP3    H223998   2.350   2.124   5.860 -2.0284  0.0089  1.7726
 8012TIP3   OH223999   5.326   0.644   2.311  0.6110  0.1266 -0.3023
 8012TIP3    H124000   5.307   0.699   2.235  0.0899 -0.1994 -0.4115
 8012TIP3    H224001   5.368   0.566   2.275  0.8346  0.2014 -0.2045
 8013TIP3   OH224002   3.572   5.237   2.061 -0.3205 -0.0949  0.6587
 8013TIP3    H124003   3.622   5.248   1.981 -1.9419  0.1061 -0.3784
 8013TIP3    H224004   3.556   5.143   2.067  0.8791 -0.2737  1.4738
 8014TIP3   OH224005   7.032   2.941   5.212 -0.1513  0.5066 -0.1346
 8014TIP3    H124006   7.058   3.014   5.155  0.4037  0.5195  0.1268
 8014TIP3    H224007   7.111   2.886   5.218 -0.7550 -0.4848 -0.8766
 8015TIP3   OH224008   0.396   3.249   5.379 -0.2987 -0.7189  0.1721
 8015TIP3    H124009   0.349   3.284   5.454  2.5556  1.2397  1.2068
 8015TIP3    H224010   0.482   3.291   5.382  0.1718 -0.9212 -3.9046
 8016TIP3   OH224011   6.695   3.631   5.127 -0.0928 -0.8574  0.1479
 8016TIP3    H124012   6.718   3.659   5.216 -0.7333  0.8005 -0.1545
 8016TIP3    H224013   6.655   3.545   5.138  1.3314 -1.4055  1.2555
 8017TIP3   OH224014   4.762   0.714   0.070 -0.2307 -0.0275  0.0437
 8017TIP3    H124015   4.719   0.754   0.145 -0.0188  1.9464 -0.8143
 8017TIP3    H224016   4.699   0.648   0.039 -1.1129  0.4079  0.8481
 8018TIP3   OH224017   3.427   0.120   0.339  0.4585  0.5277  0.7959
 8018TIP3    H124018   3.512   0.096   0.302  0.0874  0.8136 -0.2646
 8018TIP3    H224019   3.393   0.186   0.279 -0.7791 -0.0113  0.8921
 8019TIP3   OH224020   1.352   1.014   2.081  0.2821  0.3744 -0.3747
 8019TIP3    H124021   1.431   1.026   2.028 -0.7030 -1.5024 -2.4285
 8019TIP3    H224022   1.280   1.036   2.022 -0.8247  1.4089  1.2597
 8020TIP3   OH224023   6.848   2.060   0.523  0.0975 -0.1933 -0.2822
 8020TIP3    H124024   6.828   2.057   0.617  2.4803 -2.9072  0.2834
 8020TIP3    H224025   6.929   2.111   0.517  0.1937 -0.4033 -0.8146
 8021TIP3   OH224026   7.137   0.613   0.437  0.0378  0.2665  0.8587
 8021TIP3    H124027   7.130   0.689   0.495 -1.4537 -0.4148  1.6328
 8021TIP3    H224028   7.071   0.630   0.369  0.3756  0.1054  0.4876
 8022TIP3   OH224029   4.630   1.089   5.824  0.0117 -0.1896 -0.1157
 8022TIP3    H124030   4.649   1.178   5.853  0.6314 -0.2308 -0.3953
 8022TIP3    H224031   4.563   1.058   5.885  0.4238  0.1553  0.5201
 8023TIP3   OH224032   2.461   4.931   0.264  0.0474  0.6427 -0.1165
 8023TIP3    H124033   2.541   4.881   0.276 -1.9672 -3.1103 -0.7261
 8023TIP3    H224034   2.450   4.980   0.346  1.5405 -0.9912  1.1257
 8024TIP3   OH224035   3.276   2.242   5.057 -0.1013  0.3935  0.3951
 8024TIP3    H124036   3.221   2.175   5.096 -0.5067  0.3691 -0.1996
 8024TIP3    H224037   3.330   2.195   4.993 -0.5939  0.6589 -0.2351
 8025TIP3   OH224038   2.666   2.744   3.860  0.9243 -0.1899 -0.3534
 8025TIP3    H124039   2.751   2.754   3.903  0.0992  0.2143  1.2277
 8025TIP3    H224040   2.609   2.704   3.926 -0.2375 -0.0481 -1.2343
 8026TIP3   OH224041   5.233   6.425   0.310  0.2950 -0.2906  0.1958
 8026TIP3    H124042   5.139   6.441   0.315  0.4951  1.0241  0.1131
 8026TIP3    H224043   5.241   6.341   0.264 -0.8692 -1.3054  1.7632
 8027TIP3   OH224044   4.374   4.576   0.750 -0.2982 -0.0805  0.0367
 8027TIP3    H124045   4.455   4.525   0.743 -0.1099  0.2910 -0.4835
 8027TIP3    H224046   4.305   4.509   0.748 -0.0216 -0.3800  0.2261
 8028TIP3   OH224047   5.339   4.805   0.889 -0.0780  0.5238 -0.3258
 8028TIP3    H124048   5.365   4.767   0.805  1.3560  1.9158 -0.5581
 8028TIP3    H224049   5.420   4.811   0.939 -0.7732  0.5093  0.8502
 8029TIP3   OH224050   5.991   6.726   0.751 -0.5916 -0.1400  0.0615
 8029TIP3    H124051   5.900   6.756   0.751 -0.5037  0.2434  1.7476
 8029TIP3    H224052   6.001   6.682   0.836  1.6759  2.6830  1.4339
 8030TIP3   OH224053   4.558   5.308   5.082  0.6369  0.4233 -0.9907
 8030TIP3    H124054   4.575   5.368   5.155 -0.2084 -0.1413 -0.3008
 8030TIP3    H224055   4.512   5.361   5.018  0.6893  0.7363 -0.7744
 8031TIP3   OH224056   0.507   1.632   5.369 -0.0017  0.6986 -0.0698
 8031TIP3    H124057   0.582   1.686   5.343  0.8596 -1.2623 -1.8843
 8031TIP3    H224058   0.432   1.675   5.328 -0.4544  4.0125  3.5880
 8032TIP3   OH224059   6.557   4.438   3.384  0.5538  0.3767  0.3092
 8032TIP3    H124060   6.581   4.461   3.474 -1.0625  2.9820  0.1838
 8032TIP3    H224061   6.595   4.508   3.331 -1.1924  0.6484 -0.6366
 8033TIP3   OH224062   3.429   0.615   3.160  0.0773 -0.4038  0.0457
 8033TIP3    H124063   3.451   0.694   3.111 -0.8071 -0.2865 -0.1909
 8033TIP3    H224064   3.500   0.604   3.222  1.2493 -0.5633 -1.2658
 8034TIP3   OH224065   1.291   1.392   5.695  0.1863  0.5622 -0.0575
 8034TIP3    H124066   1.224   1.457   5.718 -0.6184  0.1470 -1.1665
 8034TIP3    H224067   1.300   1.338   5.774  0.6042  1.7675  0.7553
 8035TIP3   OH224068   3.699   1.937   3.399 -0.5934  0.1180  0.3298
 8035TIP3    H124069   3.624   1.995   3.385 -0.1068  0.8703  0.7955
 8035TIP3    H224070   3.691   1.910   3.490 -1.2077 -1.1356 -0.0623
 8036TIP3   OH224071   0.936   4.250   4.317 -0.0734 -0.3020 -0.0955
 8036TIP3    H124072   0.907   4.308   4.388 -1.4993  0.2007 -1.0496
 8036TIP3    H224073   0.860   4.243   4.259  0.4712 -2.1487 -0.6546
 8037TIP3   OH224074   0.206   5.217   0.430  0.0842  0.0360  0.2899
 8037TIP3    H124075   0.180   5.140   0.380 -0.5325  0.0155  0.6323
 8037TIP3    H224076   0.182   5.291   0.374 -0.1881  0.0015  0.3591
 8038TIP3   OH224077   1.186   6.347   2.422  0.7443  0.1804 -0.4956
 8038TIP3    H124078   1.148   6.275   2.370  0.1161  0.1719 -0.0233
 8038TIP3    H224079   1.278   6.349   2.394  0.5635 -0.2361 -1.1542
 8039TIP3   OH224080   1.235   4.288   3.709  0.2313 -0.2024  0.1902
 8039TIP3    H124081   1.266   4.299   3.799  1.1325  0.2102 -0.1653
 8039TIP3    H224082   1.298   4.228   3.669  1.2566  1.5282 -0.8718
 8040TIP3   OH224083   4.599   0.719   5.287 -0.2003 -0.7234  0.2274
 8040TIP3    H124084   4.663   0.696   5.219  0.8715  0.9854  0.5872
 8040TIP3    H224085   4.603   0.646   5.348  0.2771 -1.3635 -0.5361
 8041TIP3   OH224086   6.333   5.742   0.825 -0.2392  0.7413 -0.8271
 8041TIP3    H124087   6.330   5.733   0.920 -3.4536 -1.2946 -0.9874
 8041TIP3    H224088   6.404   5.684   0.798 -0.6537 -0.2988  0.2396
 8042TIP3   OH224089   6.304   3.848   0.047  0.7850 -0.2835  0.7921
 8042TIP3    H124090   6.277   3.938   0.027 -1.6512 -1.1201 -0.0824
 8042TIP3    H224091   6.333   3.812  -0.036 -1.6186 -1.3056  0.3070
 8043TIP3   OH224092   0.759   3.490   2.131  0.1228  0.2936 -0.1112
 8043TIP3    H124093   0.735   3.566   2.078 -1.9975 -0.3528 -0.1432
 8043TIP3    H224094   0.678   3.463   2.174  0.9689 -1.5485  0.4411
 8044TIP3   OH224095   0.979   5.770   5.685 -0.2553  0.3342  0.1483
 8044TIP3    H124096   0.976   5.777   5.780  0.6139 -1.2018  0.3193
 8044TIP3    H224097   0.936   5.849   5.653  0.8382  1.6555  1.8067
 8045TIP3   OH224098   6.377   2.682   3.862 -0.6206 -0.2470  0.3547
 8045TIP3    H124099   6.341   2.644   3.782  1.0560 -1.3017  0.0433
 8045TIP3    H224100   6.416   2.764   3.834  1.0625 -1.1866 -0.2301
 8046TIP3   OH224101   0.466   6.298   4.257 -0.5385  0.3166  0.2057
 8046TIP3    H124102   0.390   6.353   4.273 -1.4282 -0.3484 -1.4976
 8046TIP3    H224103   0.526   6.317   4.329 -1.9044  1.5735  1.0391
 8047TIP3   OH224104   1.935   4.416   1.245  0.0577  0.2309  0.1608
 8047TIP3    H124105   2.005   4.388   1.304  2.0312  2.2678 -1.0381
 8047TIP3    H224106   1.877   4.469   1.300  1.4341  1.4580  0.4958
 8048TIP3   OH224107   6.007   1.981   0.094  0.0228  0.0489 -0.2143
 8048TIP3    H124108   6.028   1.969   0.187 -0.5896  0.4835 -0.0134
 8048TIP3    H224109   5.912   1.969   0.089 -0.3146  2.3761 -0.3718
 8049TIP3   OH224110   6.864   4.924   4.720  0.5495 -0.5925  0.0976
 8049TIP3    H124111   6.916   4.958   4.792  0.6067 -1.1681  0.3295
 8049TIP3    H224112   6.928   4.896   4.654  0.4889  2.0077 -1.1764
 8050TIP3   OH224113   1.585   3.080   3.289  0.4575  0.2879 -0.0635
 8050TIP3    H124114   1.496   3.091   3.322 -0.3737  0.8396 -2.3367
 8050TIP3    H224115   1.612   3.168   3.262  1.1001 -0.1354 -0.8441
 8051TIP3   OH224116   5.379   3.984   4.168 -0.0232 -0.4723 -0.2344
 8051TIP3    H124117   5.390   3.904   4.220 -2.4468 -1.1650 -0.6730
 8051TIP3    H224118   5.462   3.993   4.120  0.5436 -2.3626  0.3085
 8052TIP3   OH224119   7.036   4.566   3.395 -0.1544  0.6857  0.3933
 8052TIP3    H124120   7.123   4.573   3.434  0.0990  0.0386 -0.0498
 8052TIP3    H224121   6.995   4.493   3.440  0.7705 -1.2205 -1.6865
 8053TIP3   OH224122   7.149   0.513   2.925 -0.2203 -0.2283 -0.9014
 8053TIP3    H124123   7.109   0.599   2.914  0.5883  0.2194 -0.4548
 8053TIP3    H224124   7.231   0.519   2.875  0.0373 -0.5939 -0.5274
 8054TIP3   OH224125   1.590   3.046   3.992 -0.0382  0.2030  0.3514
 8054TIP3    H124126   1.580   2.964   3.944 -0.1693  0.7934 -0.6438
 8054TIP3    H224127   1.536   3.109   3.945  0.0271  0.8584  1.1277
 8055TIP3   OH224128   3.536   4.023   5.374 -0.2003  0.0303 -0.1472
 8055TIP3    H124129   3.451   3.984   5.391 -0.5802  0.3203 -1.2568
 8055TIP3    H224130   3.578   3.963   5.312  0.3294 -0.0108  0.2398
 8056TIP3   OH224131   0.064   1.729   5.050  0.1547 -0.1855 -0.0268
 8056TIP3    H124132   0.076   1.773   4.965 -0.6256 -0.4724 -0.2886
 8056TIP3    H224133   0.019   1.794   5.104 -0.2910 -0.3818 -0.1639
 8057TIP3   OH224134   6.781   0.436   3.152  0.2244 -0.8010 -0.2287
 8057TIP3    H124135   6.854   0.424   3.212 -1.7986 -0.7921  2.3797
 8057TIP3    H224136   6.765   0.349   3.115  1.0188 -0.9506 -0.2437
 8058TIP3   OH224137   0.355   0.127   0.630  0.1545  0.1939  0.8010
 8058TIP3    H124138   0.403   0.209   0.614  2.3653 -1.4135 -1.6348
 8058TIP3    H224139   0.370   0.109   0.723  2.2277  1.0955  0.7095
 8059TIP3   OH224140   2.345   1.333   5.077  0.3490  0.2151 -0.6198
 8059TIP3    H124141   2.438   1.355   5.069  0.2079  1.4215  0.6463
 8059TIP3    H224142   2.302   1.394   5.018  0.1949  1.4231  0.6821
 8060TIP3   OH224143   3.229   6.506   3.765 -0.6892 -0.2052 -0.9982
 8060TIP3    H124144   3.163   6.439   3.745 -2.0648 -0.2509  2.8225
 8060TIP3    H224145   3.180   6.575   3.811  1.5038  1.0738 -0.4362
 8061TIP3   OH224146   4.739   1.885   0.919  0.2895  0.2709  0.2531
 8061TIP3    H124147   4.664   1.827   0.932 -0.8466  1.2592 -1.5451
 8061TIP3    H224148   4.803   1.855   0.984 -2.0641  0.1565  2.7002
 8062TIP3   OH224149   3.322   3.186   5.112 -0.0287 -0.0094  0.3753
 8062TIP3    H124150   3.417   3.178   5.108  0.0366  1.3229 -2.0617
 8062TIP3    H224151   3.305   3.226   5.197  1.9765  3.5913 -0.7354
 8063TIP3   OH224152   5.314   5.411   5.548  0.2946  0.0343 -0.2367
 8063TIP3    H124153   5.339   5.384   5.459  0.8286 -1.6264  0.3736
 8063TIP3    H224154   5.223   5.384   5.556  0.6870 -1.2648  0.2046
 8064TIP3   OH224155   1.955   5.700   0.057  0.2035 -0.3172 -0.2669
 8064TIP3    H124156   2.024   5.670  -0.001  0.1669  0.4203 -0.7015
 8064TIP3    H224157   1.877   5.702   0.003 -0.4953 -2.4844  0.5641
 8065TIP3   OH224158   6.885   5.511   5.340 -0.3156 -0.0097  0.0269
 8065TIP3    H124159   6.915   5.534   5.428 -0.1576 -1.0889  0.2749
 8065TIP3    H224160   6.952   5.452   5.306 -0.2091  0.6524 -0.9610
 8066TIP3   OH224161   1.256   5.231   1.621 -0.0531 -0.3305 -0.0258
 8066TIP3    H124162   1.195   5.177   1.570 -0.6839 -0.1170  0.4946
 8066TIP3    H224163   1.339   5.224   1.574 -0.1308 -1.7161 -0.0076
 8067TIP3   OH224164   5.251   2.715   4.362 -0.0808  0.1252 -0.5127
 8067TIP3    H124165   5.309   2.742   4.432 -1.3396  0.2669  0.5196
 8067TIP3    H224166   5.171   2.766   4.376 -0.5949 -0.3167 -1.6719
 8068TIP3   OH224167   3.981   0.911   4.756 -0.6985 -0.7248  0.3655
 8068TIP3    H124168   3.893   0.932   4.787 -1.0287 -0.5978 -0.6269
 8068TIP3    H224169   3.994   0.967   4.680  0.1554 -0.9176  0.3521
 8069TIP3   OH224170   0.790   4.150   0.262  0.3365  0.2404  0.0506
 8069TIP3    H124171   0.790   4.243   0.285 -1.6092  0.4415 -0.5463
 8069TIP3    H224172   0.753   4.107   0.338 -0.0399  0.1395 -0.1840
 8070TIP3   OH224173   0.692   3.355   2.568  0.2631  0.0079  0.0932
 8070TIP3    H124174   0.616   3.412   2.559 -0.8098 -1.2430  0.8786
 8070TIP3    H224175   0.658   3.266   2.556  2.1405 -0.4994 -2.7637
 8071TIP3   OH224176   3.410   1.151   0.125  0.2922  0.2549 -0.5158
 8071TIP3    H124177   3.363   1.129   0.206  1.2726 -0.4807 -0.1244
 8071TIP3    H224178   3.502   1.157   0.152  0.8963 -1.7443 -1.8648
 8072TIP3   OH224179   0.037   4.531   3.556  0.6525  0.3431 -0.4688
 8072TIP3    H124180   0.015   4.502   3.644  1.7700  0.8464 -0.0020
 8072TIP3    H224181   0.110   4.592   3.568  1.7576 -0.6270 -1.8221
 8073TIP3   OH224182   2.821   3.695   1.840 -0.4384  0.0531 -0.4338
 8073TIP3    H124183   2.824   3.681   1.934  1.5949 -0.3751 -0.5173
 8073TIP3    H224184   2.903   3.741   1.820 -1.7115  1.9309 -1.7479
 8074TIP3   OH224185   0.711   5.324   4.846 -0.3294 -0.2074 -0.1930
 8074TIP3    H124186   0.622   5.291   4.848  0.0942 -1.3566  0.6993
 8074TIP3    H224187   0.761   5.262   4.899  0.9181  0.6522 -0.3199
 8075TIP3   OH224188   3.301   2.277   2.480 -0.4037  0.1204 -0.4745
 8075TIP3    H124189   3.388   2.279   2.439  0.3946  0.7267  1.1583
 8075TIP3    H224190   3.315   2.312   2.568 -1.8041 -2.1756  0.7779
 8076TIP3   OH224191   1.821   6.526   3.704  0.0350  0.3847 -0.6168
 8076TIP3    H124192   1.749   6.463   3.709  0.1158  0.4159  1.9003
 8076TIP3    H224193   1.780   6.611   3.717  0.6128  0.2799  2.5678
 8077TIP3   OH224194   5.045   3.749   1.201 -0.3448  0.4710 -0.4592
 8077TIP3    H124195   5.064   3.815   1.268 -0.4027  0.9816 -0.9350
 8077TIP3    H224196   5.079   3.667   1.237 -0.5525  0.6991  0.2794
 8078TIP3   OH224197   3.388   4.243   0.378 -0.3139 -0.5339 -0.0767
 8078TIP3    H124198   3.371   4.214   0.468 -0.3855  0.7142  0.3292
 8078TIP3    H224199   3.465   4.193   0.351  0.4607 -0.0290  1.1226
 8079TIP3   OH224200   4.074   4.312   0.966  0.4633  0.3458  0.5081
 8079TIP3    H124201   4.157   4.359   0.964  0.1999  0.8054 -0.0751
 8079TIP3    H224202   4.097   4.223   0.940  0.4890  0.9700 -1.8348
 8080TIP3   OH224203   3.561   2.522   0.014  0.0229 -0.0787 -0.4242
 8080TIP3    H124204   3.512   2.553   0.090 -0.2414  0.3282 -0.7576
 8080TIP3    H224205   3.532   2.432   0.001  0.7001 -0.4444  0.4722
 8081TIP3   OH224206   3.523   3.266   2.282 -0.2929 -0.5307 -0.6328
 8081TIP3    H124207   3.587   3.307   2.224  0.4577 -0.8466 -0.0438
 8081TIP3    H224208   3.438   3.293   2.247  0.1432 -0.6076 -1.7961
 8082TIP3   OH224209   0.165   0.392   4.695 -0.5576 -0.4183  0.9030
 8082TIP3    H124210   0.239   0.349   4.737  0.6479  1.2148  0.5229
 8082TIP3    H224211   0.204   0.460   4.640 -2.1586 -1.4316 -1.6604
 8083TIP3   OH224212   0.198   5.027   5.390 -0.1313  0.4644 -0.0482
 8083TIP3    H124213   0.294   5.027   5.394 -0.1235  2.0275  0.4573
 8083TIP3    H224214   0.171   5.003   5.478 -0.2694 -2.4303 -0.7909
 8084TIP3   OH224215   2.801   0.056   1.975 -0.2891  0.3705 -0.0964
 8084TIP3    H124216   2.825   0.022   1.889  1.6677  2.1123 -0.3237
 8084TIP3    H224217   2.741   0.128   1.956  0.2412  0.8357 -0.0396
 8085TIP3   OH224218   1.520   2.545   2.624  0.0398  0.3406 -0.0142
 8085TIP3    H124219   1.448   2.580   2.677  0.6167 -0.2149  1.1805
 8085TIP3    H224220   1.506   2.450   2.625  0.8516  0.2184  0.3353
 8086TIP3   OH224221   1.722   0.661   5.125 -0.1451  0.1969 -0.0490
 8086TIP3    H124222   1.647   0.701   5.081  1.4807  0.8622 -2.4430
 8086TIP3    H224223   1.766   0.734   5.168 -0.6627 -0.1367  1.0686
 8087TIP3   OH224224   6.849   5.355   2.642  0.3791 -0.0237 -0.7257
 8087TIP3    H124225   6.865   5.343   2.548  0.1155  1.1615 -0.9411
 8087TIP3    H224226   6.754   5.359   2.650  0.3871 -0.4982 -0.3444
 8088TIP3   OH224227   0.032   6.583   0.399  0.8338 -0.1678 -0.0632
 8088TIP3    H124228   0.013   6.576   0.493  1.4390  1.6936  0.2558
 8088TIP3    H224229   0.051   6.676   0.386 -1.9427  0.1857 -2.5726
 8089TIP3   OH224230   3.468   3.494   5.214  0.0569 -0.1579 -0.2108
 8089TIP3    H124231   3.391   3.541   5.182  0.5753  2.8901  2.4935
 8089TIP3    H224232   3.511   3.462   5.135 -2.3467  0.6548 -1.9777
 8090TIP3   OH224233   3.954   2.442   5.697  0.1509 -0.2289  0.0680
 8090TIP3    H124234   3.930   2.432   5.789  0.0054 -1.0726 -0.0508
 8090TIP3    H224235   3.875   2.418   5.649 -0.1008  1.2061 -0.2759
 8091TIP3   OH224236   6.328   4.273   3.971 -0.0986  0.3673  0.5202
 8091TIP3    H124237   6.325   4.310   4.059  0.8307  2.0917 -0.1251
 8091TIP3    H224238   6.415   4.297   3.938 -1.0985  1.3942 -1.5389
 8092TIP3   OH224239   4.037   4.676   4.908 -0.2937  0.2604 -0.3817
 8092TIP3    H124240   4.055   4.753   4.855  0.2614 -0.9629 -2.0392
 8092TIP3    H224241   3.972   4.626   4.858 -1.1557 -0.0501  0.9857
 8093TIP3   OH224242   1.415   5.385   4.858  0.4053  0.0569 -0.0421
 8093TIP3    H124243   1.416   5.326   4.933  1.3749  0.6045  0.3947
 8093TIP3    H224244   1.325   5.381   4.825  0.2237 -0.9339  0.5493
 8094TIP3   OH224245   3.308   1.374   1.457  0.5256  0.2245 -0.1785
 8094TIP3    H124246   3.231   1.320   1.472  0.1435  1.1784  1.5462
 8094TIP3    H224247   3.320   1.373   1.362 -0.7530 -1.0762 -0.3634
 8095TIP3   OH224248   6.385   4.064   2.777  0.4385 -0.0555  0.7288
 8095TIP3    H124249   6.455   4.104   2.725 -0.0489 -1.9890 -1.5955
 8095TIP3    H224250   6.426   4.047   2.862  2.2870  0.3223 -0.0283
 8096TIP3   OH224251   1.332   5.733   1.483 -0.3679 -0.1329  0.3844
 8096TIP3    H124252   1.385   5.653   1.486 -1.3454 -0.9044 -1.2441
 8096TIP3    H224253   1.395   5.803   1.470  0.4114 -0.7637  0.6517
 8097TIP3   OH224254   1.319   2.613   2.798  0.4881  0.1764  0.3885
 8097TIP3    H124255   1.288   2.604   2.888  1.5254 -1.0145  0.6543
 8097TIP3    H224256   1.396   2.669   2.804 -0.3700  1.4280  0.0073
 8098TIP3   OH224257   6.663   0.959   5.635  0.4788 -0.0374  0.2210
 8098TIP3    H124258   6.590   0.904   5.663  0.0310 -0.2420 -1.2427
 8098TIP3    H224259   6.634   1.048   5.652  0.2437 -0.1572  0.4468
 8099TIP3   OH224260   5.069   3.131   2.966 -0.0172 -0.0616  0.8933
 8099TIP3    H124261   5.014   3.140   2.887  1.1327 -0.1286  0.0545
 8099TIP3    H224262   5.013   3.161   3.037 -0.6972  1.2027 -0.1114
 8100TIP3   OH224263   0.305   5.526   1.081 -0.3453 -0.0801  0.1767
 8100TIP3    H124264   0.395   5.554   1.062 -1.1035  0.9919 -2.1262
 8100TIP3    H224265   0.309   5.430   1.077  0.6305 -0.0320 -0.2867
 8101TIP3   OH224266   3.695   0.218   3.189  0.7755  0.8978 -0.0967
 8101TIP3    H124267   3.651   0.266   3.119 -0.1524  1.3931  0.8095
 8101TIP3    H224268   3.633   0.219   3.262  1.0908 -0.9085  0.2528
 8102TIP3   OH224269   4.113   1.107   4.066 -1.3339  0.2928  0.5578
 8102TIP3    H124270   4.097   1.024   4.021  1.0115 -1.1105  2.0889
 8102TIP3    H224271   4.199   1.134   4.035 -1.8826  1.9738  0.4148
 8103TIP3   OH224272   3.213   1.885   4.708 -0.0190  0.2400  0.4546
 8103TIP3    H124273   3.153   1.859   4.638  0.1965 -0.3314  0.4793
 8103TIP3    H224274   3.192   1.977   4.724 -0.8116  0.0832  0.3781
 8104TIP3   OH224275   2.647   1.769   2.962  0.4623  0.9606  0.0759
 8104TIP3    H124276   2.629   1.695   3.020 -0.6718  1.3032  0.1801
 8104TIP3    H224277   2.736   1.796   2.985  0.4940  0.2960  0.7740
 8105TIP3   OH224278   2.703   6.451   4.181 -0.7164  0.6261  0.3522
 8105TIP3    H124279   2.711   6.540   4.148  1.6179  0.5679  0.5775
 8105TIP3    H224280   2.775   6.442   4.244 -0.3155 -1.6921 -0.3275
 8106TIP3   OH224281   2.580   6.044   2.983  0.0167 -0.2716  0.1793
 8106TIP3    H124282   2.500   6.028   3.034 -1.2092 -0.0022 -1.5826
 8106TIP3    H224283   2.624   5.959   2.979 -1.4590 -1.0197 -0.8953
 8107TIP3   OH224284   6.415   4.867   0.553 -0.1581 -0.0007  0.4355
 8107TIP3    H124285   6.471   4.908   0.487 -1.0337  1.0294  0.2948
 8107TIP3    H224286   6.332   4.913   0.544 -0.7271 -0.8443  1.2896
 8108TIP3   OH224287   6.360   5.099   1.041 -0.5355  0.2900  0.2103
 8108TIP3    H124288   6.392   5.145   1.118 -0.9184  1.7033 -0.4453
 8108TIP3    H224289   6.394   5.010   1.050 -0.6415  0.3984  2.0407
 8109TIP3   OH224290   7.019   2.534   1.168 -0.1046 -0.1902  0.0659
 8109TIP3    H124291   6.965   2.593   1.220  0.6908  1.8192 -1.2678
 8109TIP3    H224292   7.039   2.583   1.088  0.9565 -2.1195 -0.9483
 8110TIP3   OH224293   5.483   3.589   1.489  0.6446  0.0736 -0.5822
 8110TIP3    H124294   5.488   3.496   1.466  1.4581  0.5565 -2.5670
 8110TIP3    H224295   5.550   3.600   1.557 -0.9063 -1.1497  1.2421
 8111TIP3   OH224296   1.094   1.579   3.229  0.4572 -0.0518  0.0956
 8111TIP3    H124297   1.066   1.648   3.290 -0.0570  0.1706 -0.3796
 8111TIP3    H224298   1.012   1.550   3.187  0.5848 -1.3332  0.6741
 8112TIP3   OH224299   3.759   4.290   2.735 -0.7583  0.0331  0.3802
 8112TIP3    H124300   3.703   4.328   2.669  1.1077 -0.7152 -1.7597
 8112TIP3    H224301   3.778   4.202   2.703  1.1923  0.0813  1.2343
 8113TIP3   OH224302   2.996   5.491   4.623  0.0276  0.4965 -0.4759
 8113TIP3    H124303   3.018   5.445   4.703  1.4710  0.5515 -0.8215
 8113TIP3    H224304   2.905   5.520   4.636 -0.4755 -1.2951  0.2638
 8114TIP3   OH224305   6.090   2.393   4.529  0.3208  0.3046 -0.0187
 8114TIP3    H124306   6.180   2.421   4.511  0.2202 -0.5676 -2.1011
 8114TIP3    H224307   6.041   2.475   4.538  1.3596  0.7953  1.5257
 8115TIP3   OH224308   5.830   1.237   0.433  0.0957  0.4818 -0.3359
 8115TIP3    H124309   5.893   1.228   0.504  1.9128 -0.2771 -1.9591
 8115TIP3    H224310   5.848   1.163   0.375 -1.1537  1.2016 -1.7127
 8116TIP3   OH224311   6.690   6.164   3.343  0.1303  0.4018 -0.5052
 8116TIP3    H124312   6.721   6.248   3.378  0.8541  0.1382 -0.5108
 8116TIP3    H224313   6.653   6.186   3.257  2.1489  0.4383 -1.4211
 8117TIP3   OH224314   1.751   1.504   1.765 -0.4801 -0.0176  0.6785
 8117TIP3    H124315   1.845   1.509   1.777 -0.4190 -1.1344  0.7867
 8117TIP3    H224316   1.714   1.529   1.850 -0.3319  1.6246  0.2796
 8118TIP3   OH224317   6.619   2.294   0.980  0.0980  0.1738 -0.4818
 8118TIP3    H124318   6.710   2.313   0.957  0.1315  0.2518 -0.2906
 8118TIP3    H224319   6.576   2.279   0.896  0.0029  1.3819 -0.6784
 8119TIP3   OH224320   5.029   2.671   2.288 -0.4152  0.6385 -0.1686
 8119TIP3    H124321   4.955   2.715   2.330  1.5112  2.4385  1.6564
 8119TIP3    H224322   5.021   2.694   2.195 -2.7602 -0.2842 -0.2572
 8120TIP3   OH224323   4.567   6.456   2.800 -0.5324 -0.1325 -0.0878
 8120TIP3    H124324   4.560   6.381   2.740 -2.0861 -0.0072 -0.1078
 8120TIP3    H224325   4.645   6.502   2.771 -0.9873 -0.3306 -1.7506
 8121TIP3   OH224326   0.288   2.324   4.159  0.2969 -0.0839  0.2174
 8121TIP3    H124327   0.233   2.282   4.224  0.6921 -1.0337 -0.0257
 8121TIP3    H224328   0.228   2.376   4.105 -0.1481  0.0061  0.7987
 8122TIP3   OH224329   3.464   1.135   4.724  0.2811  0.0888 -0.2080
 8122TIP3    H124330   3.381   1.173   4.694  0.1794 -0.7377 -1.0261
 8122TIP3    H224331   3.476   1.170   4.812 -1.3908 -0.4322  0.2698
 8123TIP3   OH224332   3.893   5.641   4.424 -0.0274 -0.3673  0.1302
 8123TIP3    H124333   3.866   5.627   4.334 -0.6692  2.0319 -0.1206
 8123TIP3    H224334   3.976   5.689   4.418  0.5730 -1.2586  0.8579
 8124TIP3   OH224335   5.077   3.565   5.410  0.0036 -0.4737 -0.2056
 8124TIP3    H124336   5.148   3.515   5.370 -0.8463 -1.0626 -0.9977
 8124TIP3    H224337   5.120   3.614   5.480  1.2415 -0.6030 -0.8431
 8125TIP3   OH224338   4.158   5.399   3.161  0.1476  0.0907 -0.2918
 8125TIP3    H124339   4.237   5.353   3.134  0.8864  0.2317  1.5267
 8125TIP3    H224340   4.097   5.330   3.186 -0.4988 -0.0361 -2.0451
 8126TIP3   OH224341   4.836   3.444   5.519 -0.0727  0.0117  0.0838
 8126TIP3    H124342   4.911   3.481   5.473  0.0834 -1.2860 -0.7398
 8126TIP3    H224343   4.760   3.483   5.475  0.0898 -0.5641 -0.7327
 8127TIP3   OH224344   4.169   5.182   3.674 -0.3903 -0.4634  0.0183
 8127TIP3    H124345   4.261   5.175   3.650  0.2418 -0.8144  2.2973
 8127TIP3    H224346   4.168   5.248   3.744 -1.7622 -0.9689  0.5074
 8128TIP3   OH224347   5.395   1.242   4.146 -0.2102 -0.6402 -0.5147
 8128TIP3    H124348   5.433   1.191   4.218 -1.6586 -0.5356  0.3790
 8128TIP3    H224349   5.415   1.191   4.068  0.4275 -1.3516  0.0949
 8129TIP3   OH224350   0.289   4.674   5.710 -0.0185 -0.0487  0.0681
 8129TIP3    H124351   0.320   4.595   5.754 -1.1237 -0.4539  0.1555
 8129TIP3    H224352   0.368   4.715   5.677  0.5855 -1.1894  0.0322
 8130TIP3   OH224353   5.693   3.768   2.302  0.2173 -0.4026 -0.3296
 8130TIP3    H124354   5.750   3.749   2.228  1.2660  0.5193  0.2247
 8130TIP3    H224355   5.680   3.863   2.300  0.4411 -0.3291  0.7751
 8131TIP3   OH224356   3.671   0.611   1.513 -0.5393 -0.1821 -0.1621
 8131TIP3    H124357   3.718   0.566   1.583 -0.5275 -1.0576 -0.7131
 8131TIP3    H224358   3.720   0.692   1.499  0.6953 -0.9674 -0.5687
 8132TIP3   OH224359   4.730   0.919   3.905  0.7772  0.3615 -0.1505
 8132TIP3    H124360   4.765   0.833   3.928  0.8218 -0.1839 -2.0541
 8132TIP3    H224361   4.784   0.981   3.953  1.9277 -0.6148 -0.1539
 8133TIP3   OH224362   2.493   6.499   2.273  0.0166 -0.0939 -0.0253
 8133TIP3    H124363   2.457   6.489   2.185  0.1582 -3.2533  0.1694
 8133TIP3    H224364   2.453   6.579   2.306  1.2910  2.2514 -3.5021
 8134TIP3   OH224365   0.228   4.532   2.662 -0.1942 -0.2216 -0.6521
 8134TIP3    H124366   0.144   4.489   2.647 -0.7852  0.4256  0.6632
 8134TIP3    H224367   0.293   4.464   2.646 -0.9657 -0.7851 -1.4944
 8135TIP3   OH224368   1.763   3.596   3.890  0.3671 -0.6078  0.0499
 8135TIP3    H124369   1.819   3.661   3.931  0.4884  0.7253 -2.0528
 8135TIP3    H224370   1.766   3.520   3.948 -0.5250  1.5316  3.1165
 8136TIP3   OH224371   3.153   4.770   4.854  0.7387 -0.5066  0.4653
 8136TIP3    H124372   3.172   4.702   4.789 -0.8446 -2.8454  2.2816
 8136TIP3    H224373   3.219   4.756   4.922  0.9370  0.3788  0.4619
 8137TIP3   OH224374   1.679   6.273   4.509 -0.3687 -0.4496  0.3459
 8137TIP3    H124375   1.583   6.282   4.515 -0.4245 -0.6533 -0.2371
 8137TIP3    H224376   1.703   6.317   4.428 -0.2269 -2.2126 -0.6390
 8138TIP3   OH224377   7.005   0.489   2.565  0.6344  0.2941  0.0419
 8138TIP3    H124378   7.063   0.565   2.568  1.0644 -0.0687  1.7732
 8138TIP3    H224379   6.942   0.504   2.635  0.8628 -1.0548  0.5607
 8139TIP3   OH224380   3.374   1.149   2.762  0.8476  0.0450  0.2061
 8139TIP3    H124381   3.348   1.105   2.842 -0.4430 -0.1334 -0.2984
 8139TIP3    H224382   3.293   1.163   2.714  1.6352 -0.2298 -1.2685
 8140TIP3   OH224383   2.098   1.942   2.856  0.1748 -1.1378 -0.1113
 8140TIP3    H124384   2.128   2.030   2.832  1.4464 -0.8738  2.1978
 8140TIP3    H224385   2.174   1.886   2.843 -0.2395 -1.6559 -0.3146
 8141TIP3   OH224386   4.003   1.672   0.680  0.1437  0.2904 -0.2929
 8141TIP3    H124387   4.003   1.605   0.612  1.0056 -2.4093  2.1493
 8141TIP3    H224388   4.081   1.725   0.662  1.9423 -2.0703 -0.0264
 8142TIP3   OH224389   3.081   3.431   3.254  0.0654 -0.5647  0.0626
 8142TIP3    H124390   2.987   3.424   3.239 -0.2312 -0.3599  1.6381
 8142TIP3    H224391   3.115   3.344   3.236 -1.1626 -2.0364  3.9378
 8143TIP3   OH224392   2.367   3.162   0.197  0.3348 -0.1467 -0.4589
 8143TIP3    H124393   2.315   3.160   0.116 -2.5250  1.6047  1.1695
 8143TIP3    H224394   2.388   3.071   0.215 -2.4761 -1.0196 -1.1181
 8144TIP3   OH224395   3.440   2.524   3.618 -0.1102 -0.7500 -0.1878
 8144TIP3    H124396   3.428   2.602   3.564 -1.8042 -1.8112 -1.4273
 8144TIP3    H224397   3.372   2.530   3.685 -1.0052 -1.6979 -0.9838
 8145TIP3   OH224398   6.800   6.586   4.069 -0.2134 -0.1260  0.5110
 8145TIP3    H124399   6.787   6.533   3.990  1.0522 -0.0480  0.2381
 8145TIP3    H224400   6.772   6.528   4.140  0.1308 -0.7771  0.1321
 8146TIP3   OH224401   4.238   5.106   2.917  0.2269 -0.0426  0.1536
 8146TIP3    H124402   4.170   5.123   2.852 -0.0365 -1.1086  0.1264
 8146TIP3    H224403   4.210   5.024   2.959  0.2422  0.7863  1.8140
 8147TIP3   OH224404   4.391   3.476   2.936 -0.7130  0.2654 -0.0792
 8147TIP3    H124405   4.383   3.431   2.852  1.2400  1.8549 -1.1908
 8147TIP3    H224406   4.484   3.474   2.956 -1.1073  0.0474  2.0459
 8148TIP3   OH224407   6.301   1.157   5.197  0.6607 -0.1133 -0.2703
 8148TIP3    H124408   6.225   1.102   5.214  1.3769 -0.6896  1.2083
 8148TIP3    H224409   6.364   1.099   5.154  0.8261 -0.0281 -0.1444
 8149TIP3   OH224410   0.533   3.039   1.609 -0.1340 -0.0080  0.4120
 8149TIP3    H124411   0.447   3.078   1.596  0.5009  1.5599  0.7003
 8149TIP3    H224412   0.560   3.067   1.696  0.4975 -0.8188  0.4913
 8150TIP3   OH224413   4.154   6.403   5.335  0.1761  0.3392  0.4987
 8150TIP3    H124414   4.237   6.449   5.344 -0.2415  1.7531 -1.9798
 8150TIP3    H224415   4.177   6.319   5.297  0.4588  1.0126 -0.8728
 8151TIP3   OH224416   6.275   2.608   2.203  0.1465  0.3883 -0.2687
 8151TIP3    H124417   6.330   2.638   2.275 -0.2578 -0.5411  0.4600
 8151TIP3    H224418   6.191   2.587   2.244 -0.4501  0.8918 -1.2016
 8152TIP3   OH224419   6.934   3.037   5.898 -0.1795 -0.0428  0.2069
 8152TIP3    H124420   6.972   2.987   5.825  0.3505 -0.5989  0.8464
 8152TIP3    H224421   6.860   2.983   5.927 -0.6268  0.3698 -0.1667
 8153TIP3   OH224422   2.921   6.320   2.113  0.0602 -0.4768 -0.2158
 8153TIP3    H124423   2.981   6.270   2.058  1.5461 -0.3737  1.2255
 8153TIP3    H224424   2.873   6.376   2.052  0.2487 -1.7259 -1.5776
 8154TIP3   OH224425   4.490   6.623   5.711 -0.5578  0.3618  0.1668
 8154TIP3    H124426   4.466   6.684   5.781 -2.2617 -0.8023  0.6452
 8154TIP3    H224427   4.457   6.664   5.632 -1.3927  0.2310  0.4419
 8155TIP3   OH224428   6.985   1.682   0.202  0.5717 -0.4217  0.1188
 8155TIP3    H124429   6.998   1.605   0.256  0.5380  0.7958  1.9524
 8155TIP3    H224430   6.967   1.752   0.264 -1.0086  0.7560 -1.5545
 8156TIP3   OH224431   3.638   3.145   4.541 -0.8278  0.4180 -0.1165
 8156TIP3    H124432   3.589   3.137   4.623 -0.9040  0.6585 -0.1372
 8156TIP3    H224433   3.726   3.114   4.563 -1.3233 -1.2800 -0.4238
 8157TIP3   OH224434   2.733   0.473   5.880 -0.5282 -0.9361  0.5341
 8157TIP3    H124435   2.665   0.417   5.917 -0.6115 -1.1795  0.0201
 8157TIP3    H224436   2.788   0.414   5.830 -0.4745 -0.5959  0.1904
 8158TIP3   OH224437   1.161   6.593   0.077 -0.2537  0.5341 -0.4434
 8158TIP3    H124438   1.077   6.637   0.072  0.3594  1.6671 -1.1028
 8158TIP3    H224439   1.203   6.611  -0.007  0.7605  0.2302 -0.0216
 8159TIP3   OH224440   6.623   5.986   0.696  0.4799 -0.4576 -0.2866
 8159TIP3    H124441   6.573   5.924   0.750 -0.3402  0.1654 -0.3086
 8159TIP3    H224442   6.661   6.047   0.759  0.5227 -0.4381 -0.3313
 8160TIP3   OH224443   5.890   6.004   0.087  0.3028  0.2045 -0.0784
 8160TIP3    H124444   5.948   5.983   0.160  0.7253  1.2831 -0.0941
 8160TIP3    H224445   5.803   6.009   0.127  0.4232  0.0612  0.2072
 8161TIP3   OH224446   3.774   1.286   1.068 -0.4331  0.3724  0.0383
 8161TIP3    H124447   3.831   1.352   1.106  1.2479 -1.4122  0.7424
 8161TIP3    H224448   3.763   1.221   1.137 -1.2878 -0.5549 -0.9391
 8162TIP3   OH224449   1.403   0.998   2.987  0.2874  0.7766 -0.1026
 8162TIP3    H124450   1.464   0.949   3.042  0.7482  0.3218 -0.9965
 8162TIP3    H224451   1.318   0.957   3.003  0.7238 -0.5567 -1.0919
 8163TIP3   OH224452   6.456   3.491   0.444 -0.2362 -0.4113  0.3978
 8163TIP3    H124453   6.531   3.537   0.407  1.1184 -2.1056  0.9175
 8163TIP3    H224454   6.383   3.514   0.387  0.4300  2.0487  0.4416
 8164TIP3   OH224455   1.585   0.605   1.532 -0.3570 -0.0929 -0.3724
 8164TIP3    H124456   1.544   0.519   1.538 -0.6538  0.0549 -0.2922
 8164TIP3    H224457   1.545   0.656   1.602  0.8519 -0.3190  0.5286
 8165TIP3   OH224458   6.655   0.824   3.059  0.0347 -0.1028  0.1335
 8165TIP3    H124459   6.725   0.885   3.083 -1.5831  1.2496  1.6388
 8165TIP3    H224460   6.584   0.880   3.028 -1.5656 -1.1516  1.7070
 8166TIP3   OH224461   6.798   3.963   5.572  0.2422  0.1409  0.6524
 8166TIP3    H124462   6.709   3.933   5.591 -0.1070  0.5602 -0.2203
 8166TIP3    H224463   6.855   3.904   5.621 -0.4663 -1.1117  0.0146
 8167TIP3   OH224464   0.419   4.391   4.812 -0.5290 -0.4443 -0.1718
 8167TIP3    H124465   0.377   4.347   4.886 -0.2368 -1.2373 -0.4649
 8167TIP3    H224466   0.370   4.473   4.802 -0.0925  0.0356  1.3621
 8168TIP3   OH224467   1.147   3.906   5.501 -0.0694  0.4986 -0.5705
 8168TIP3    H124468   1.116   3.819   5.475  3.7328 -1.1207 -0.3034
 8168TIP3    H224469   1.146   3.905   5.596 -0.2695  0.8560 -0.5680
 8169TIP3   OH224470   1.279   4.560   1.478  0.5091  0.3738 -0.1033
 8169TIP3    H124471   1.229   4.503   1.537  1.3772 -0.0286  0.2679
 8169TIP3    H224472   1.212   4.608   1.429 -0.3001  1.8983  2.2812
 8170TIP3   OH224473   6.602   1.334   2.582  0.1872 -0.0678 -0.3256
 8170TIP3    H124474   6.528   1.394   2.574 -0.5276 -0.7933  0.5219
 8170TIP3    H224475   6.562   1.250   2.606  1.3650 -0.1415  1.6564
 8171TIP3   OH224476   3.044   4.881   1.248  0.4956  0.1279  0.1342
 8171TIP3    H124477   3.046   4.867   1.342  0.0478 -2.3847 -0.1575
 8171TIP3    H224478   2.968   4.832   1.218  0.4552  1.1254 -1.5239
 8172TIP3   OH224479   5.505   2.204   2.374 -0.0294  0.0613  0.3747
 8172TIP3    H124480   5.415   2.224   2.402 -0.1970  0.1196 -0.1966
 8172TIP3    H224481   5.523   2.117   2.411  0.7317  1.2027  2.9579
 8173TIP3   OH224482   1.543   6.771   4.743 -0.7446  0.1778 -0.1333
 8173TIP3    H124483   1.483   6.805   4.810  0.8749  1.9520  0.5028
 8173TIP3    H224484   1.508   6.803   4.660 -3.3467 -2.8699 -0.4051
 8174TIP3   OH224485   0.095   3.913   2.201  0.3075  0.2944 -0.5699
 8174TIP3    H124486   0.138   3.917   2.286  0.6283  0.2124 -0.7257
 8174TIP3    H224487   0.093   3.820   2.179 -0.7008  0.2154 -0.1894
 8175TIP3   OH224488   1.293   1.156   5.553 -0.1287  0.2286  0.3522
 8175TIP3    H124489   1.264   1.229   5.608  0.3981  0.4194  0.3825
 8175TIP3    H224490   1.358   1.110   5.606 -2.5768 -2.1065  1.5799
 8176TIP3   OH224491   1.604   2.054   0.946  0.7179 -0.4099 -0.4199
 8176TIP3    H124492   1.658   2.130   0.966  1.2578 -0.2903 -2.2095
 8176TIP3    H224493   1.666   1.981   0.940  0.3425 -0.7862  0.0874
 8177TIP3   OH224494   4.067   3.494   2.665  0.5461  0.3469  1.1192
 8177TIP3    H124495   3.976   3.497   2.694  0.2089  1.3630  0.0157
 8177TIP3    H224496   4.097   3.407   2.691 -1.3081 -0.7450 -0.1299
 8178TIP3   OH224497   3.016   1.038   2.770 -0.0679 -0.1408 -0.2358
 8178TIP3    H124498   3.064   1.107   2.725 -1.6891  1.6704  0.6779
 8178TIP3    H224499   2.989   1.077   2.853 -0.3114 -2.1716  0.7102
 8179TIP3   OH224500   2.426   4.581   2.722  0.1500 -0.1583  0.3183
 8179TIP3    H124501   2.437   4.576   2.817 -1.9898 -0.9655  0.5836
 8179TIP3    H224502   2.335   4.557   2.707 -0.3168  2.3492 -1.7471
 8180TIP3   OH224503   1.009   5.515   3.877  0.6530 -0.6119  0.6739
 8180TIP3    H124504   0.924   5.547   3.846  1.1623  0.3902  0.2802
 8180TIP3    H224505   0.990   5.479   3.964 -0.2834 -0.9728  0.3373
 8181TIP3   OH224506   4.357   3.318   2.724 -0.1043  0.3478  0.6848
 8181TIP3    H124507   4.278   3.291   2.678  0.1145 -1.1120  1.0939
 8181TIP3    H224508   4.427   3.313   2.658 -0.1815  0.5799  0.5872
 8182TIP3   OH224509   0.503   6.134   3.157 -0.4723 -0.0944 -0.3826
 8182TIP3    H124510   0.556   6.124   3.078 -0.5188 -0.8007 -0.3253
 8182TIP3    H224511   0.538   6.069   3.218 -1.2358 -0.3858 -0.2513
 8183TIP3   OH224512   5.599   3.204   3.914 -0.1763 -0.5793 -0.2468
 8183TIP3    H124513   5.612   3.123   3.864 -1.0340 -0.7916 -0.1503
 8183TIP3    H224514   5.621   3.274   3.853  0.1642 -0.8712 -0.4666
 8184TIP3   OH224515   0.308   3.202   2.978 -0.7236 -0.0041  0.1537
 8184TIP3    H124516   0.374   3.167   3.037 -0.7626  1.3215  1.0207
 8184TIP3    H224517   0.231   3.217   3.033 -1.8417 -1.6410 -0.8626
 8185TIP3   OH224518   3.233   1.149   4.436 -0.4033 -0.3896  0.4558
 8185TIP3    H124519   3.324   1.177   4.442 -0.5128 -0.3940  3.7006
 8185TIP3    H224520   3.185   1.230   4.416  0.1313 -0.0228  0.6144
 8186TIP3   OH224521   7.136   3.343   3.747  0.0608 -0.4482 -0.4678
 8186TIP3    H124522   7.118   3.250   3.739  1.6353 -0.7597 -0.8961
 8186TIP3    H224523   7.176   3.353   3.833  0.8546 -0.3702 -0.8316
 8187TIP3   OH224524   5.204   1.917   5.856 -0.3551  0.3305 -0.0447
 8187TIP3    H124525   5.287   1.927   5.903 -0.2823 -2.2965  0.5815
 8187TIP3    H224526   5.226   1.933   5.764  0.9548 -0.6227  0.0665
 8188TIP3   OH224527   3.773   2.287   1.841  0.1465  0.1848  0.1408
 8188TIP3    H124528   3.758   2.303   1.934  0.1108 -0.6440  0.2803
 8188TIP3    H224529   3.857   2.241   1.837  0.5110  0.8573 -0.3028
 8189TIP3   OH224530   4.366   2.242   1.510  0.1342 -0.1114  0.6041
 8189TIP3    H124531   4.427   2.172   1.531  0.1625  0.0213  0.9598
 8189TIP3    H224532   4.309   2.249   1.586  0.3207  0.4569  0.6937
 8190TIP3   OH224533   6.711   4.139   2.406  0.0406  0.4501  0.1408
 8190TIP3    H124534   6.756   4.212   2.362 -2.5385  1.9244 -0.2125
 8190TIP3    H224535   6.682   4.083   2.335  1.1545 -0.4673  0.3703
 8191TIP3   OH224536   0.566   5.868   5.777 -0.6220 -0.5121  0.0491
 8191TIP3    H124537   0.622   5.851   5.854 -1.2150 -2.0125  0.1899
 8191TIP3    H224538   0.518   5.947   5.799  1.1381  0.5966  0.0923
 8192TIP3   OH224539   4.561   3.667   5.159 -0.4196 -0.0499 -0.5216
 8192TIP3    H124540   4.473   3.675   5.122 -0.3003 -0.5317 -0.9229
 8192TIP3    H224541   4.546   3.655   5.252 -0.6934  2.1342 -0.2243
 8193TIP3   OH224542   0.261   5.422   2.071  0.2946  0.0299  0.0901
 8193TIP3    H124543   0.316   5.366   2.125 -0.4163  0.0040  0.8064
 8193TIP3    H224544   0.296   5.510   2.085  1.4529 -0.2102 -1.0880
 8194TIP3   OH224545   5.681   4.483   2.874 -0.1534  0.2177  0.3703
 8194TIP3    H124546   5.698   4.564   2.923  3.7960 -1.3211  1.8960
 8194TIP3    H224547   5.646   4.423   2.940 -0.0221 -0.2804 -0.0130
 8195TIP3   OH224548   5.589   4.642   2.407  0.1119 -0.1481  0.4157
 8195TIP3    H124549   5.670   4.669   2.364 -0.9268  0.9951 -0.9058
 8195TIP3    H224550   5.600   4.668   2.498  1.5433 -0.7541  0.4437
 8196TIP3   OH224551   2.414   0.821   5.776 -0.0864  0.5073  0.7785
 8196TIP3    H124552   2.366   0.904   5.768 -0.2196  0.5602  1.9325
 8196TIP3    H224553   2.362   0.770   5.838  0.7022  0.0727  1.0848
 8197TIP3   OH224554   4.705   4.961   3.513  0.0365 -0.2997 -0.3067
 8197TIP3    H124555   4.648   4.931   3.442  1.4731  0.2214 -1.7770
 8197TIP3    H224556   4.761   5.027   3.471  0.3365  0.7045  1.5681
 8198TIP3   OH224557   1.073   4.026   0.192  0.4138  0.6256  0.3951
 8198TIP3    H124558   0.978   4.016   0.203  0.5141 -0.4167  0.4123
 8198TIP3    H224559   1.110   3.997   0.276  0.7487  1.3196  0.5005
 8199TIP3   OH224560   6.094   5.864   3.665 -1.1539 -0.4887  0.1096
 8199TIP3    H124561   6.146   5.830   3.737 -2.2877 -0.8737  0.7623
 8199TIP3    H224562   6.009   5.884   3.703 -1.0500  1.5752 -0.5911
 8200TIP3   OH224563   0.174   3.719   0.853  0.7148 -0.4203 -0.2748
 8200TIP3    H124564   0.267   3.726   0.831  0.9262 -0.6664  0.5007
 8200TIP3    H224565   0.129   3.735   0.771  1.4273  0.3844 -0.5255
 8201TIP3   OH224566   5.930   0.666   5.755  0.6201 -0.5073 -0.7550
 8201TIP3    H124567   5.951   0.584   5.800  0.5013 -0.5015 -0.6875
 8201TIP3    H224568   5.996   0.728   5.784 -1.8161  0.7433  2.8250
 8202TIP3   OH224569   6.682   4.321   1.448 -0.0578 -0.2303  0.0221
 8202TIP3    H124570   6.736   4.338   1.525  0.7238 -0.1296 -0.5393
 8202TIP3    H224571   6.699   4.229   1.426 -0.5451 -0.3603  0.1658
 8203TIP3   OH224572   6.596   4.588   0.489 -0.5677 -0.1152  0.6647
 8203TIP3    H124573   6.551   4.560   0.569  0.0712 -1.2998  0.6341
 8203TIP3    H224574   6.664   4.648   0.519  0.9040 -2.0027  1.2662
 8204TIP3   OH224575   1.287   1.687   4.198  0.3666  0.2459 -0.4907
 8204TIP3    H124576   1.237   1.659   4.274  3.9231 -2.9372  0.9811
 8204TIP3    H224577   1.264   1.624   4.129 -0.1048  0.8797 -0.9312
 8205TIP3   OH224578   6.892   6.350   0.732 -0.4676 -0.4447  0.2960
 8205TIP3    H124579   6.826   6.417   0.752  0.7750  0.1792  2.6835
 8205TIP3    H224580   6.869   6.276   0.788  0.7045 -0.2972  0.9979
 8206TIP3   OH224581   1.121   3.506   2.803 -0.4208  0.3814  0.5215
 8206TIP3    H124582   1.080   3.587   2.773 -0.7383 -0.6050 -1.9719
 8206TIP3    H224583   1.084   3.438   2.747  0.3309 -1.4180  2.0847
 8207TIP3   OH224584   0.740   2.386   1.891  0.2649 -0.6808  0.2822
 8207TIP3    H124585   0.715   2.316   1.832 -0.7154  0.9202 -1.2943
 8207TIP3    H224586   0.688   2.461   1.863  2.9438  1.3563  0.3398
 8208TIP3   OH224587   0.145   4.634   4.385 -0.0347 -0.2620  0.3912
 8208TIP3    H124588   0.238   4.626   4.406  0.1597 -0.0404 -0.3321
 8208TIP3    H224589   0.144   4.656   4.291 -0.8372 -0.8666  0.2505
 8209TIP3   OH224590   3.901   3.670   2.391 -0.4203  0.1375  0.0271
 8209TIP3    H124591   3.832   3.611   2.360  0.7536 -0.8959 -0.7137
 8209TIP3    H224592   3.982   3.634   2.354  0.6109  0.9081  1.4228
 8210TIP3   OH224593   1.606   0.839   0.319 -0.1495 -0.4388  0.1402
 8210TIP3    H124594   1.602   0.746   0.300 -0.9509 -0.8497  2.0607
 8210TIP3    H224595   1.554   0.850   0.399 -1.1866  1.8573 -0.7511
 8211TIP3   OH224596   0.047   5.509   4.327  0.3516 -0.9408  0.2575
 8211TIP3    H124597   0.051   5.413   4.321  1.8261 -0.8030 -2.8148
 8211TIP3    H224598  -0.003   5.536   4.251  2.3268  0.8030 -0.5246
 8212TIP3   OH224599   3.261   2.481   4.513 -0.7495 -0.0327  0.4179
 8212TIP3    H124600   3.307   2.564   4.499 -1.1835  0.0915 -0.2859
 8212TIP3    H224601   3.330   2.420   4.539 -0.1985  0.1951 -0.4734
 8213TIP3   OH224602   2.268   1.348   0.714 -0.3472 -0.0396 -0.0224
 8213TIP3    H124603   2.272   1.420   0.777 -2.1631 -0.5150  0.7019
 8213TIP3    H224604   2.263   1.390   0.628 -2.1686  0.7776  0.4320
 8214TIP3   OH224605   2.774   4.540   0.950  0.2698  0.2404  0.4784
 8214TIP3    H124606   2.704   4.474   0.953 -0.0111  0.5342  0.4193
 8214TIP3    H224607   2.729   4.622   0.931  0.2244  1.0368  3.5330
 8215TIP3   OH224608   0.887   4.126   5.140 -0.0194  0.1461 -0.2630
 8215TIP3    H124609   0.857   4.201   5.191 -2.5364  1.2335 -3.0648
 8215TIP3    H224610   0.821   4.058   5.154  0.9007 -0.6763  0.2557
 8216TIP3   OH224611   6.494   3.047   4.685  0.5156  0.2965 -0.6481
 8216TIP3    H124612   6.400   3.039   4.705  0.5334  1.1269 -0.2091
 8216TIP3    H224613   6.537   3.051   4.770  0.9360  0.1276 -0.8498
 8217TIP3   OH224614   3.182   6.282   1.995 -0.3222  0.2453 -0.6236
 8217TIP3    H124615   3.231   6.199   2.000 -2.0273 -0.7864 -0.2091
 8217TIP3    H224616   3.250   6.349   1.990  1.1617 -1.0663  0.5880
 8218TIP3   OH224617   6.100   6.019   1.994 -0.7372  0.2348  0.2936
 8218TIP3    H124618   6.016   5.974   1.981 -0.6497  0.2321 -0.2976
 8218TIP3    H224619   6.080   6.112   1.980 -0.7992  0.3229  0.9426
 8219TIP3   OH224620   4.835   1.369   5.715 -0.5715 -1.0242 -0.6442
 8219TIP3    H124621   4.795   1.365   5.628  0.5914  1.2430 -1.3653
 8219TIP3    H224622   4.804   1.452   5.751  0.5706 -0.9698  0.2522
 8220TIP3   OH224623   2.103   4.733   0.094  0.0513 -0.0523 -0.1465
 8220TIP3    H124624   2.190   4.729   0.054  0.5957 -0.0856  0.9866
 8220TIP3    H224625   2.113   4.687   0.177 -0.6235  1.3226  0.7397
 8221TIP3   OH224626   1.244   4.548   5.439  0.0835 -0.3100 -0.8881
 8221TIP3    H124627   1.152   4.562   5.456 -0.8333 -1.0571 -4.3808
 8221TIP3    H224628   1.289   4.616   5.489 -2.5848  2.0323 -1.4112
 8222TIP3   OH224629   0.441   6.262   0.673 -0.0201 -0.1395  0.3460
 8222TIP3    H124630   0.416   6.174   0.703 -1.1414  0.4815  1.3163
 8222TIP3    H224631   0.363   6.296   0.631  1.2357 -0.6305 -2.6707
 8223TIP3   OH224632   3.642   0.645   3.319 -0.4370  0.9238  0.7645
 8223TIP3    H124633   3.637   0.728   3.271  0.9219  0.3084 -0.5203
 8223TIP3    H224634   3.735   0.623   3.319 -0.6620 -0.1372  1.9241
 8224TIP3   OH224635   0.800   0.588   5.551  0.1952  0.3954 -0.0776
 8224TIP3    H124636   0.828   0.498   5.536  1.5121  0.3356  2.2430
 8224TIP3    H224637   0.713   0.593   5.511  0.3415 -1.6973 -0.8014
 8225TIP3   OH224638   2.580   4.405   0.504  0.7585 -0.2765  0.0474
 8225TIP3    H124639   2.648   4.347   0.540  2.0673  2.3379  2.1498
 8225TIP3    H224640   2.511   4.406   0.570  0.0050 -0.6383 -0.7180
 8226TIP3   OH224641   3.022   0.088   4.419 -0.0380 -0.0081  0.1484
 8226TIP3    H124642   2.959   0.103   4.489  0.1427 -1.2983  0.6141
 8226TIP3    H224643   2.992   0.007   4.377  0.9622 -0.3056 -0.0108
 8227TIP3   OH224644   3.953   0.054   4.049  0.4764  0.5899 -0.3125
 8227TIP3    H124645   4.006   0.100   4.114 -0.2256  1.2870 -0.2133
 8227TIP3    H224646   3.877   0.023   4.098  0.8369 -0.5200 -0.4234
 8228TIP3   OH224647   2.130   2.584   5.327  0.5047 -0.1096  0.2181
 8228TIP3    H124648   2.189   2.642   5.279  1.4581 -0.9851  0.2746
 8228TIP3    H224649   2.185   2.509   5.350 -0.5877 -0.8526  0.4814
 8229TIP3   OH224650   0.869   3.792   3.242  0.1007 -0.0050  0.3583
 8229TIP3    H124651   0.826   3.736   3.307  1.3274  0.2880  1.4729
 8229TIP3    H224652   0.953   3.750   3.226  0.7882  1.1628  0.7537
 8230TIP3   OH224653   1.449   1.598   1.356  0.1410  0.0738  0.5850
 8230TIP3    H124654   1.498   1.516   1.362  1.3679  0.6189 -1.2384
 8230TIP3    H224655   1.357   1.571   1.346  0.5336 -1.0860 -0.0893
 8231TIP3   OH224656   6.297   4.039   4.788  0.3431 -0.4036  0.0586
 8231TIP3    H124657   6.266   4.032   4.878  1.8685 -0.8801  0.5924
 8231TIP3    H224658   6.252   3.968   4.742 -0.4634 -0.1436  0.4240
 8232TIP3   OH224659   4.215   0.067   0.190  0.1387 -0.5697 -0.3418
 8232TIP3    H124660   4.279   0.023   0.246 -1.2085 -0.2744  1.5468
 8232TIP3    H224661   4.189   0.001   0.126 -0.0803 -1.7817  0.9424
 8233TIP3   OH224662   2.472   3.107   0.737 -0.0688 -0.1392  0.0338
 8233TIP3    H124663   2.385   3.074   0.714 -0.1377  0.3604 -0.4613
 8233TIP3    H224664   2.478   3.096   0.831 -1.1014  0.8129  0.2322
 8234TIP3   OH224665   3.073   3.014   5.787 -0.0185 -0.3342 -0.2344
 8234TIP3    H124666   3.102   2.999   5.877  1.4836  2.0391 -0.2470
 8234TIP3    H224667   3.118   2.946   5.736 -0.8024 -1.6303  0.7542
 8235TIP3   OH224668   3.136   1.171   2.171  0.0377  0.2795 -0.5433
 8235TIP3    H124669   3.114   1.163   2.264 -1.1367 -0.5705 -0.8698
 8235TIP3    H224670   3.150   1.265   2.159  1.2572  0.3005  0.6904
 8236TIP3   OH224671   1.396   4.044   0.734 -0.0231 -0.3400 -0.3389
 8236TIP3    H124672   1.413   3.951   0.747  0.2068 -0.7684 -3.1732
 8236TIP3    H224673   1.301   4.052   0.733 -0.0436 -0.4808  0.1931
 8237TIP3   OH224674   2.285   2.650   3.951  0.2470  0.4783 -0.6719
 8237TIP3    H124675   2.244   2.679   3.870 -1.6663 -1.2244 -0.3919
 8237TIP3    H224676   2.360   2.597   3.923 -0.4565 -0.1743 -1.3602
 8238TIP3   OH224677   5.751   3.035   2.737 -0.2679  0.4532 -0.0026
 8238TIP3    H124678   5.768   3.072   2.824 -0.7921 -0.1423  0.3624
 8238TIP3    H224679   5.703   2.954   2.755  0.3163 -0.0857 -0.8213
 8239TIP3   OH224680   2.236   2.599   1.828  0.7656 -0.5382 -0.0258
 8239TIP3    H124681   2.169   2.659   1.861  1.6571  0.9812 -0.8411
 8239TIP3    H224682   2.319   2.637   1.858  1.5506  0.3225 -2.8881
 8240TIP3   OH224683   3.095   3.678   3.520  0.4915  0.6662  0.3091
 8240TIP3    H124684   3.110   3.752   3.579 -0.3862  0.5541  0.6853
 8240TIP3    H224685   3.033   3.712   3.455  1.4651  0.7976 -0.5808
 8241TIP3   OH224686   2.777   0.319   4.872 -0.2852 -0.2683 -0.1402
 8241TIP3    H124687   2.802   0.329   4.964  0.7319  0.9941 -0.5316
 8241TIP3    H224688   2.681   0.320   4.874 -0.3305 -1.7732  1.0342
 8242TIP3   OH224689   0.168   6.628   1.419  0.0482 -0.2418  0.1802
 8242TIP3    H124690   0.186   6.611   1.511  1.2367 -1.1744 -0.1963
 8242TIP3    H224691   0.103   6.562   1.395  0.9795 -1.0947 -0.0477
 8243TIP3   OH224692   1.561   6.308   5.196  0.7765 -0.1659 -0.9343
 8243TIP3    H124693   1.591   6.383   5.247  0.7444 -1.3712  0.9241
 8243TIP3    H224694   1.497   6.345   5.135 -0.8934  1.0477  1.3963
 8244TIP3   OH224695   4.283   0.041   2.349 -0.0211  0.0251 -0.1663
 8244TIP3    H124696   4.260   0.087   2.268  0.5779  1.1747  0.2905
 8244TIP3    H224697   4.226   0.081   2.415 -1.1982 -1.5733 -0.1596
 8245TIP3   OH224698   1.442   2.088   4.498  0.3240  0.0082  0.1324
 8245TIP3    H124699   1.521   2.093   4.444 -1.3734  0.3730 -2.4928
 8245TIP3    H224700   1.473   2.050   4.580  2.7202 -3.1106 -1.9317
 8246TIP3   OH224701   6.201   2.291   3.764 -0.5189  0.6326 -0.0586
 8246TIP3    H124702   6.224   2.198   3.758 -1.1470  0.5225 -1.0960
 8246TIP3    H224703   6.147   2.298   3.843  0.5660  0.3614  0.7311
 8247TIP3   OH224704   5.784   2.776   1.583  0.3539 -0.4332  0.4496
 8247TIP3    H124705   5.854   2.710   1.584  1.0511  0.2897  0.6139
 8247TIP3    H224706   5.814   2.843   1.645 -0.1523  0.2277 -0.0049
 8248TIP3   OH224707   0.463   3.669   1.317  0.1555  0.5015  0.3238
 8248TIP3    H124708   0.497   3.580   1.307  0.3195  0.5495  0.4757
 8248TIP3    H224709   0.371   3.661   1.291 -0.0256  0.1332  1.0499
 8249TIP3   OH224710   2.723   4.379   0.246  0.0651 -0.7810  0.6278
 8249TIP3    H124711   2.673   4.390   0.327  1.3852 -0.3285  1.4130
 8249TIP3    H224712   2.802   4.430   0.260 -1.1679  2.3232 -2.3423
 8250TIP3   OH224713   0.029   4.333   3.323 -0.1303 -0.8216  0.3315
 8250TIP3    H124714   0.021   4.401   3.391  1.1791 -0.0715 -0.2165
 8250TIP3    H224715   0.117   4.299   3.335  0.1988 -0.5308 -1.1141
 8251TIP3   OH224716   5.136   5.214   5.136 -0.3233 -0.1443  0.4774
 8251TIP3    H124717   5.135   5.294   5.083 -0.0925  0.3485  1.1912
 8251TIP3    H224718   5.046   5.181   5.131 -0.4108  0.1343  0.1441
 8252TIP3   OH224719   3.673   5.932   1.384  0.3683  0.0406 -0.0096
 8252TIP3    H124720   3.745   5.875   1.358  1.4454  0.9164  0.9111
 8252TIP3    H224721   3.664   5.919   1.478  0.0838  0.7786  0.0732
 8253TIP3   OH224722   6.822   5.391   2.042  0.1191 -0.1159  0.3503
 8253TIP3    H124723   6.856   5.480   2.038 -0.6133  0.3562  2.9338
 8253TIP3    H224724   6.879   5.341   1.984  1.6634  1.6857  0.2155
 8254TIP3   OH224725   4.244   5.952   4.367  0.1160  0.1489  0.4743
 8254TIP3    H124726   4.337   5.943   4.348  0.1752 -0.3395  0.9673
 8254TIP3    H224727   4.202   5.881   4.320 -0.2631  1.5140 -1.3630
 8255TIP3   OH224728   1.181   5.935   3.636 -0.2454 -0.5974 -0.1622
 8255TIP3    H124729   1.188   5.873   3.709  0.7622  0.5509  0.7600
 8255TIP3    H224730   1.126   6.005   3.670  1.7401  0.8556  0.2026
 8256TIP3   OH224731   3.045   2.904   1.752  0.0611 -0.0770 -0.1703
 8256TIP3    H124732   3.055   2.817   1.714  0.6570 -0.7864  1.5511
 8256TIP3    H224733   3.134   2.931   1.775 -0.0611  1.1824 -1.0154
 8257TIP3   OH224734   3.019   5.049   2.889 -0.0625 -0.3395 -0.2807
 8257TIP3    H124735   2.929   5.017   2.892 -0.2945  0.0728 -1.6748
 8257TIP3    H224736   3.020   5.107   2.813  1.0520  0.7066  0.4929
 8258TIP3   OH224737   4.283   6.449   5.637 -0.2063 -0.2606  0.4560
 8258TIP3    H124738   4.213   6.389   5.611  0.8315 -1.1190 -0.4598
 8258TIP3    H224739   4.272   6.460   5.731 -3.3076  1.9170  0.0061
 8259TIP3   OH224740   6.686   3.478   3.073  0.6244  0.3856  0.3839
 8259TIP3    H124741   6.720   3.549   3.128  1.8882 -0.5213  0.8207
 8259TIP3    H224742   6.611   3.445   3.122  0.4115  0.9933  0.4848
 8260TIP3   OH224743   2.487   3.409   3.235  0.3201 -0.9005  0.3107
 8260TIP3    H124744   2.474   3.477   3.168 -0.2082 -0.7982  0.5118
 8260TIP3    H224745   2.537   3.452   3.303  1.5352 -1.2223 -0.3557
 8261TIP3   OH224746   6.071   4.397   4.264 -0.1568 -0.0063 -0.3738
 8261TIP3    H124747   5.984   4.358   4.249  0.2604 -0.7037 -1.0385
 8261TIP3    H224748   6.090   4.379   4.356  0.3264 -2.0073 -0.8406
 8262TIP3   OH224749   4.585   2.158   5.751  0.3478  0.1701  0.1460
 8262TIP3    H124750   4.649   2.095   5.716 -0.4689 -0.0626 -0.9654
 8262TIP3    H224751   4.538   2.190   5.674 -1.9624 -0.8392  1.0391
 8263TIP3   OH224752   0.588   1.553   3.121  0.2207 -0.0407 -0.2354
 8263TIP3    H124753   0.554   1.543   3.210  0.7626  0.0870 -0.0063
 8263TIP3    H224754   0.605   1.647   3.112  0.0067 -0.0304 -0.5362
 8264TIP3   OH224755   4.166   4.340   1.361  0.3415  0.4566 -1.2068
 8264TIP3    H124756   4.136   4.255   1.391 -0.1688  0.4231 -1.8104
 8264TIP3    H224757   4.124   4.353   1.276 -0.2085  1.6448 -0.7814
 8265TIP3   OH224758   6.472   1.666   4.771 -0.5566 -0.1144 -0.0072
 8265TIP3    H124759   6.530   1.625   4.835  0.1571  1.6013  0.4924
 8265TIP3    H224760   6.443   1.747   4.813 -1.0392  0.4567 -1.3788
 8266TIP3   OH224761   5.479   1.903   4.445 -0.0599  0.4902 -0.2911
 8266TIP3    H124762   5.544   1.833   4.441  1.4446  1.8459 -1.2000
 8266TIP3    H224763   5.399   1.864   4.412 -0.2898 -1.7491  2.5454
 8267TIP3   OH224764   4.815   5.222   3.486 -0.2231 -0.0529 -0.0997
 8267TIP3    H124765   4.905   5.209   3.515 -0.0352 -0.2108 -0.7391
 8267TIP3    H224766   4.768   5.249   3.565  0.5907  1.0096  0.0388
 8268TIP3   OH224767   2.791   1.843   5.567  0.1706  0.0298 -0.2595
 8268TIP3    H124768   2.855   1.894   5.618 -0.2428  0.2838  0.0067
 8268TIP3    H224769   2.845   1.782   5.517  0.6077  0.0187  0.2117
 8269TIP3   OH224770   2.745   3.422   5.296 -0.2199 -0.3639 -0.1727
 8269TIP3    H124771   2.790   3.357   5.350 -2.1979 -0.5696  1.3139
 8269TIP3    H224772   2.808   3.494   5.288  1.3003 -1.6560 -0.2999
 8270TIP3   OH224773   1.114   6.125   4.513 -0.6959  0.1823 -0.3089
 8270TIP3    H124774   1.151   6.060   4.573 -1.7282  1.9938  2.4800
 8270TIP3    H224775   1.035   6.084   4.479  0.0547 -0.9867 -0.7063
 8271TIP3   OH224776   2.230   1.912   1.037 -0.2411  0.9773 -0.8110
 8271TIP3    H124777   2.284   1.917   0.958 -0.1555  1.9917 -0.6990
 8271TIP3    H224778   2.154   1.860   1.012  0.4129  0.1826 -1.1877
 8272TIP3   OH224779   0.881   4.022   0.824 -0.3226  0.0751 -0.2744
 8272TIP3    H124780   0.813   4.064   0.772 -0.0502  0.6499 -0.1744
 8272TIP3    H224781   0.857   4.043   0.915  0.9715  1.8292 -0.3057
 8273TIP3   OH224782   3.744   3.718   1.589 -0.6598 -0.0109 -0.0292
 8273TIP3    H124783   3.706   3.631   1.596 -2.2440  0.4515 -1.8172
 8273TIP3    H224784   3.736   3.739   1.496  0.2112  1.8091  0.2715
 8274TIP3   OH224785   6.144   3.468   0.910 -0.3183  0.2822 -0.2232
 8274TIP3    H124786   6.106   3.469   0.998  1.9207 -0.7212  0.8165
 8274TIP3    H224787   6.148   3.375   0.886  1.6801  0.3084 -0.1564
 8275TIP3   OH224788   0.967   3.671   5.238  0.3816 -0.2890  0.3007
 8275TIP3    H124789   0.960   3.618   5.159  0.0945 -0.3379  0.3578
 8275TIP3    H224790   1.057   3.706   5.236  0.1450  0.3112 -0.4337
 8276TIP3   OH224791   5.438   3.024   1.506 -0.3059  0.2714  0.5934
 8276TIP3    H124792   5.403   3.045   1.592  0.8532 -0.0494  1.1603
 8276TIP3    H224793   5.370   3.054   1.445 -1.2150  0.3507  1.6059
 8277TIP3   OH224794   3.967   6.580   3.292 -0.1800 -0.2607 -0.6657
 8277TIP3    H124795   4.032   6.546   3.352  0.6716 -0.2923 -1.5850
 8277TIP3    H224796   3.973   6.675   3.301  0.7923 -0.2192 -1.5400
 8278TIP3   OH224797   1.388   2.063   1.145  0.1493 -0.8922  0.1991
 8278TIP3    H124798   1.438   2.066   1.063  0.8367 -1.4762  0.5818
 8278TIP3    H224799   1.324   1.993   1.130  0.4564 -1.1911  0.2480
 8279TIP3   OH224800   1.490   0.307   3.690  0.8233  1.0191  0.0096
 8279TIP3    H124801   1.507   0.364   3.764  0.1918 -0.1510  1.1027
 8279TIP3    H224802   1.519   0.220   3.719  0.1167  0.4484 -0.9184
 8280TIP3   OH224803   4.610   3.996   2.932  0.5761  0.1486 -0.4383
 8280TIP3    H124804   4.571   4.074   2.891  0.4064  0.6782  0.6975
 8280TIP3    H224805   4.686   3.976   2.878  1.1694  1.6821 -0.2200
 8281TIP3   OH224806   1.952   4.931   1.622  0.3342 -1.0683  0.0642
 8281TIP3    H124807   2.027   4.981   1.655 -1.2041  1.4790 -0.0481
 8281TIP3    H224808   1.886   4.939   1.690 -0.4603 -1.8099 -0.5903
 8282TIP3   OH224809   5.525   2.661   1.841  0.1538  0.1863 -0.0634
 8282TIP3    H124810   5.514   2.754   1.862 -1.9550  0.2900 -1.2877
 8282TIP3    H224811   5.500   2.655   1.748  0.5386 -1.5629 -0.0811
 8283TIP3   OH224812   5.990   2.980   1.136 -0.5209  0.1031  0.3088
 8283TIP3    H124813   5.994   2.885   1.129  0.1820  0.2175 -1.3583
 8283TIP3    H224814   5.931   2.997   1.209 -3.0626 -1.6035 -1.1874
 8284TIP3   OH224815   4.706   1.163   1.464 -0.0614  0.2413 -0.5846
 8284TIP3    H124816   4.736   1.144   1.375 -0.8420 -0.8356 -0.6349
 8284TIP3    H224817   4.769   1.119   1.521  0.3828  0.8492 -0.6003
 8285TIP3   OH224818   1.522   1.686   2.868  0.2130  0.1986  0.3905
 8285TIP3    H124819   1.526   1.778   2.892 -0.8190  0.0929  1.0129
 8285TIP3    H224820   1.569   1.681   2.784  0.7716  1.1755  0.6333
 8286TIP3   OH224821   1.456   0.342   4.377  0.5440  0.7135 -0.8726
 8286TIP3    H124822   1.545   0.364   4.349  0.6918 -3.0956 -4.1826
 8286TIP3    H224823   1.399   0.392   4.319  0.4987  1.9564  0.2064
 8287TIP3   OH224824   6.076   6.396   0.447  0.8836 -0.0760  0.4068
 8287TIP3    H124825   6.017   6.380   0.521  0.8507  1.5513  0.7656
 8287TIP3    H224826   6.115   6.482   0.465 -0.9188  1.5466 -2.6303
 8288TIP3   OH224827   6.457   0.376   3.379 -0.7677 -0.1072 -0.8583
 8288TIP3    H124828   6.450   0.460   3.335 -0.0848  1.3188  1.5506
 8288TIP3    H224829   6.541   0.341   3.352  0.5430  1.6652  0.6867
 8289TIP3   OH224830   6.219   3.880   2.913 -0.3202 -0.4357 -0.3310
 8289TIP3    H124831   6.282   3.920   2.852 -2.5235  0.2299 -2.3291
 8289TIP3    H224832   6.213   3.943   2.985  0.5501 -0.0377 -0.5874
 8290TIP3   OH224833   2.918   3.873   2.705  0.0323 -0.4205  0.3109
 8290TIP3    H124834   2.912   3.968   2.698 -1.1125 -0.4759  0.2845
 8290TIP3    H224835   2.961   3.846   2.624 -0.2602  0.0277 -0.0013
 8291TIP3   OH224836   2.967   0.085   3.905  0.6005  0.1189  0.1042
 8291TIP3    H124837   3.040   0.062   3.963  0.9709 -2.1018 -1.1050
 8291TIP3    H224838   2.902   0.016   3.920  0.8019 -0.6686 -2.1706
 8292TIP3   OH224839   2.742   0.597   1.377  0.1697  0.3074 -0.2950
 8292TIP3    H124840   2.742   0.692   1.367  1.3412  0.5000  1.1724
 8292TIP3    H224841   2.677   0.579   1.444  1.7750  0.3880  1.3789
 8293TIP3   OH224842   0.835   3.874   5.388 -0.2743  0.4038  0.6033
 8293TIP3    H124843   0.776   3.917   5.326  2.6322  2.4409 -1.0310
 8293TIP3    H224844   0.878   3.806   5.336  0.2094  0.2648  1.1775
 8294TIP3   OH224845   4.105   4.805   0.601  0.1356  0.1057  0.5222
 8294TIP3    H124846   4.168   4.801   0.673  2.2920  0.1807 -1.2544
 8294TIP3    H224847   4.145   4.864   0.537 -2.1285  0.7593 -0.3955
 8295TIP3   OH224848   6.436   3.668   5.872  0.0486 -0.3624  0.4024
 8295TIP3    H124849   6.422   3.641   5.963 -0.5908 -1.7812 -0.0884
 8295TIP3    H224850   6.490   3.598   5.835  1.8654  1.0886  0.1264
 8296TIP3   OH224851   6.224   3.164   0.554  0.2587  0.2965 -0.7404
 8296TIP3    H124852   6.144   3.113   0.536 -0.0163  0.5269 -0.1625
 8296TIP3    H224853   6.274   3.157   0.472 -0.4375  0.3134 -1.1810
 8297TIP3   OH224854   5.702   4.036   2.013 -0.9264 -0.6067  0.4431
 8297TIP3    H124855   5.772   3.971   2.025  0.3657  0.2030 -1.9481
 8297TIP3    H224856   5.647   4.026   2.090  2.1507 -0.8519  2.8316
 8298TIP3   OH224857   3.203   6.195   2.611  0.1270 -0.2179 -0.2657
 8298TIP3    H124858   3.186   6.260   2.679 -1.4598  0.3593 -1.1639
 8298TIP3    H224859   3.142   6.123   2.631  1.4658 -1.2350  0.3849
 8299TIP3   OH224860   2.389   0.640   4.117  0.2972  0.0149 -0.4008
 8299TIP3    H124861   2.347   0.698   4.054  2.0934  1.2452 -0.5197
 8299TIP3    H224862   2.393   0.555   4.073 -0.3072  0.3502 -1.1155
 8300TIP3   OH224863   1.261   4.686   1.739 -0.1006 -0.4291  0.1653
 8300TIP3    H124864   1.215   4.612   1.779  0.9211 -1.1897 -0.0033
 8300TIP3    H224865   1.273   4.661   1.647 -0.0932  0.1277  0.0078
 8301TIP3   OH224866   0.685   0.542   0.408  0.1619 -0.3717  0.3016
 8301TIP3    H124867   0.728   0.593   0.339  1.6787 -0.9391  0.7937
 8301TIP3    H224868   0.618   0.493   0.362 -1.1999  1.8379 -0.2260
 8302TIP3   OH224869   6.740   5.832   4.838 -0.1833 -0.0321 -0.2625
 8302TIP3    H124870   6.807   5.826   4.907 -1.4938 -1.7160  0.9515
 8302TIP3    H224871   6.787   5.866   4.762  1.9477 -0.6828  0.6789
 8303TIP3   OH224872   2.076   0.465   4.027  0.2034 -0.5349  0.0539
 8303TIP3    H124873   2.024   0.394   4.063 -2.2979  0.6968 -0.8435
 8303TIP3    H224874   2.098   0.520   4.102 -1.8381  0.1068  0.2461
 8304TIP3   OH224875   5.154   2.956   2.230  0.1564 -0.1112  0.0589
 8304TIP3    H124876   5.094   2.887   2.200 -0.9864  0.3235  1.2617
 8304TIP3    H224877   5.186   2.924   2.315 -1.3900  1.3696  1.2578
 8305TIP3   OH224878   5.693   2.171   0.387 -0.3251  0.6953 -0.1819
 8305TIP3    H124879   5.754   2.198   0.455 -1.0119  2.0734 -0.0775
 8305TIP3    H224880   5.652   2.252   0.358 -0.7133  0.0287 -1.6058
 8306TIP3   OH224881   4.974   2.125   3.257  0.3351 -0.4989 -0.1999
 8306TIP3    H124882   5.011   2.044   3.222  2.2059  0.1284  0.2420
 8306TIP3    H224883   5.039   2.193   3.237  0.0241  0.4289  1.6951
 8307TIP3   OH224884   2.659   6.338   3.883 -0.1301  0.2386 -0.1960
 8307TIP3    H124885   2.620   6.350   3.969  1.3238 -1.7993  0.8565
 8307TIP3    H224886   2.752   6.323   3.901  0.0731 -1.0375 -2.0209
 8308TIP3   OH224887   6.839   6.006   0.355  0.4181  0.2483 -0.1078
 8308TIP3    H124888   6.868   5.987   0.266  0.6201 -0.1012  0.0293
 8308TIP3    H224889   6.850   6.100   0.365 -0.4999  0.4447 -0.7700
 8309TIP3   OH224890   1.631   0.706   4.120  0.0314  0.0384 -0.3945
 8309TIP3    H124891   1.695   0.685   4.052  0.9133  2.6731 -0.5077
 8309TIP3    H224892   1.546   0.685   4.081  0.6896 -3.2566 -0.3429
 8310TIP3   OH224893   4.884   2.504   1.887  0.2611  0.1395  0.0158
 8310TIP3    H124894   4.873   2.598   1.880 -0.3548  0.1068  0.4231
 8310TIP3    H224895   4.886   2.472   1.797 -3.2526  0.1565 -0.2318
 8311TIP3   OH224896   3.681   1.732   1.751  0.8095  0.0622  0.1165
 8311TIP3    H124897   3.613   1.680   1.708  2.2922 -1.6064 -0.2841
 8311TIP3    H224898   3.636   1.771   1.827 -0.2856 -2.1169  0.6569
 8312TIP3   OH224899   2.823   3.969   2.363  0.2109  0.1827 -0.6830
 8312TIP3    H124900   2.737   3.932   2.385  1.5049 -2.3919  0.5201
 8312TIP3    H224901   2.826   3.966   2.267 -0.7648 -0.4631 -0.7096
 8313TIP3   OH224902   6.315   6.367   4.510  0.2228 -0.5333  0.3206
 8313TIP3    H124903   6.275   6.279   4.511 -2.9121  0.7053 -1.2379
 8313TIP3    H224904   6.262   6.418   4.571  1.3994  0.5116  0.5052
 8314TIP3   OH224905   6.984   4.569   0.316 -0.1867 -0.4974  0.2066
 8314TIP3    H124906   7.037   4.528   0.384  0.2766 -1.0010 -0.4348
 8314TIP3    H224907   6.904   4.517   0.313 -1.9821  1.8007  2.9675
 8315TIP3   OH224908   1.100   4.380   3.195 -0.8726 -0.1769 -0.6051
 8315TIP3    H124909   1.040   4.454   3.192  0.5545  1.0413 -0.0354
 8315TIP3    H224910   1.110   4.360   3.288  2.1463  1.8686 -0.3552
 8316TIP3   OH224911   3.909   0.284   1.246 -0.1687 -0.1340 -0.2210
 8316TIP3    H124912   3.931   0.235   1.325  0.8451 -1.3079 -1.1760
 8316TIP3    H224913   3.835   0.340   1.271 -0.2855 -0.9532  1.3595
 8317TIP3   OH224914   3.262   4.379   3.059 -0.4606  0.1735  0.0293
 8317TIP3    H124915   3.294   4.289   3.073  1.6798  1.0107  0.9738
 8317TIP3    H224916   3.293   4.427   3.135 -0.2184  2.0454 -1.1897
 8318TIP3   OH224917   1.610   4.969   5.467  0.3821 -0.2103 -0.5152
 8318TIP3    H124918   1.627   4.875   5.469  0.8931 -0.1631  2.8393
 8318TIP3    H224919   1.685   5.006   5.421  1.5177 -1.2815  0.4121
 8319TIP3   OH224920   0.442   1.029   0.002 -0.1486  0.1011 -0.2585
 8319TIP3    H124921   0.436   0.934  -0.003  2.2999 -0.1246 -0.0112
 8319TIP3    H224922   0.444   1.048   0.096  0.2232  0.2927 -0.3005
 8320TIP3   OH224923   0.830   3.684   4.865  0.2150 -0.0335 -0.7044
 8320TIP3    H124924   0.737   3.678   4.888  0.3861  1.0553  0.3335
 8320TIP3    H224925   0.871   3.613   4.915  0.1369  0.3948 -0.0157
 8321TIP3   OH224926   3.961   2.029   4.299 -0.1322  0.2527 -0.5859
 8321TIP3    H124927   3.903   2.080   4.243 -0.2789 -1.8466 -2.4474
 8321TIP3    H224928   4.018   2.095   4.340 -0.4427  1.9361 -2.6668
 8322TIP3   OH224929   2.957   4.453   2.635  0.6144 -0.2028 -0.0893
 8322TIP3    H124930   3.028   4.500   2.591  0.8305  0.2510  0.7289
 8322TIP3    H224931   2.999   4.402   2.704 -0.0643  2.9498  2.9622
 8323TIP3   OH224932   6.313   1.194   2.943  0.5461  0.1554 -0.5278
 8323TIP3    H124933   6.368   1.269   2.924 -0.4081  1.7378  2.3566
 8323TIP3    H224934   6.224   1.225   2.926 -0.0489  0.5549  2.6943
 8324TIP3   OH224935   4.461   2.054   4.940 -0.6362  0.1291 -0.0000
 8324TIP3    H124936   4.512   2.105   5.003  1.5441 -1.4377 -0.3805
 8324TIP3    H224937   4.396   2.115   4.907 -0.8458  1.4448  2.5869
 8325TIP3   OH224938   6.332   4.404   4.759 -0.0232 -0.1204  0.1332
 8325TIP3    H124939   6.328   4.308   4.752  1.4032 -0.2174  0.3665
 8325TIP3    H224940   6.265   4.426   4.823 -1.7797 -0.7531 -1.3897
 8326TIP3   OH224941   6.236   6.822   3.651 -0.7752 -0.3189 -0.0235
 8326TIP3    H124942   6.274   6.737   3.672  0.0785 -0.4943 -2.0991
 8326TIP3    H224943   6.160   6.829   3.709  0.6635 -1.2739  2.0883
 8327TIP3   OH224944   1.315   3.139   3.297  0.1029  0.5826  0.0987
 8327TIP3    H124945   1.295   3.215   3.242 -1.4767  0.0654 -0.0754
 8327TIP3    H224946   1.313   3.174   3.387 -1.3869  0.6140  0.0711
 8328TIP3   OH224947   1.664   6.576   5.735 -0.2834 -0.3715 -0.5726
 8328TIP3    H124948   1.696   6.644   5.794 -0.7428  0.0317 -0.7758
 8328TIP3    H224949   1.736   6.515   5.727 -0.6137 -1.0959  1.3907
 8329TIP3   OH224950   0.200   6.336   2.014 -0.2186 -0.4949 -0.1510
 8329TIP3    H124951   0.153   6.264   2.055 -0.6238  0.7392  1.6470
 8329TIP3    H224952   0.292   6.318   2.032 -0.0868 -1.8402 -1.9136
 8330TIP3   OH224953   2.245   4.070   4.667 -0.4619  0.0713  0.1688
 8330TIP3    H124954   2.194   4.149   4.685 -0.9275 -0.3736  0.8831
 8330TIP3    H224955   2.246   4.023   4.750 -0.6207 -0.9105 -0.3618
 8331TIP3   OH224956   3.112   5.917   1.020  0.5030 -0.0201 -0.0464
 8331TIP3    H124957   3.074   6.004   1.035 -2.2171 -0.6399 -2.3860
 8331TIP3    H224958   3.083   5.864   1.094  0.4356  0.5661  0.3517
 8332TIP3   OH224959   2.425   1.044   5.102  0.3704  0.0412 -0.1481
 8332TIP3    H124960   2.361   1.114   5.116 -1.6793 -1.5917 -0.7080
 8332TIP3    H224961   2.375   0.976   5.057  2.8610 -0.8575 -1.7635
 8333TIP3   OH224962   2.613   5.101   2.701  0.4390  0.0124 -0.2218
 8333TIP3    H124963   2.550   5.071   2.636 -0.2779 -0.3855  0.6470
 8333TIP3    H224964   2.687   5.133   2.649 -0.3607  0.2572 -1.2478
 8334TIP3   OH224965   6.762   3.419   4.856  0.5255 -0.1325 -0.6298
 8334TIP3    H124966   6.777   3.428   4.762  1.2628  0.7362 -0.4412
 8334TIP3    H224967   6.698   3.348   4.863 -0.7172  0.7908 -1.8827
 8335TIP3   OH224968   0.807   0.252   2.847  0.6246 -0.4865 -0.4794
 8335TIP3    H124969   0.777   0.165   2.871  0.2002 -0.7711 -1.9540
 8335TIP3    H224970   0.797   0.304   2.927 -1.2571 -1.2378 -0.1779
 8336TIP3   OH224971   3.618   4.905   5.264  0.4645 -0.3457 -0.3236
 8336TIP3    H124972   3.555   4.846   5.305  0.7628  0.3777  1.2266
 8336TIP3    H224973   3.693   4.904   5.322  0.9294  0.6861 -0.8867
 8337TIP3   OH224974   3.804   3.014   5.248 -0.4289 -0.0816 -0.5000
 8337TIP3    H124975   3.841   3.055   5.170 -1.3580  1.6661 -0.0469
 8337TIP3    H224976   3.867   3.033   5.318 -1.1959  1.2059 -0.1426
 8338TIP3   OH224977   6.197   3.191   4.148  0.3423 -0.0947  0.1017
 8338TIP3    H124978   6.243   3.271   4.171  1.9236 -0.2219 -2.1792
 8338TIP3    H224979   6.117   3.220   4.105  1.1925  0.3654 -1.2596
 8339TIP3   OH224980   2.209   2.265   1.149 -0.7003 -0.3547 -0.5567
 8339TIP3    H124981   2.146   2.327   1.185 -0.9846  0.2364 -1.9947
 8339TIP3    H224982   2.263   2.239   1.224 -2.0404 -0.1497  0.5186
 8340TIP3   OH224983   0.209   3.860   4.375 -0.0396 -0.7048 -0.0120
 8340TIP3    H124984   0.118   3.887   4.388  0.0869  0.6279 -1.6167
 8340TIP3    H224985   0.259   3.916   4.435  0.1544  2.4495 -2.8203
 8341TIP3   OH224986   4.262   1.776   3.998  0.3294  0.1954  0.4648
 8341TIP3    H124987   4.188   1.729   4.036 -1.3322  0.7793 -1.7853
 8341TIP3    H224988   4.250   1.866   4.026  0.5813  0.1648  0.6675
 8342TIP3   OH224989   3.113   3.195   0.764 -0.5483 -0.9223  0.6060
 8342TIP3    H124990   3.132   3.266   0.703  0.5175 -0.3499  1.5818
 8342TIP3    H224991   3.032   3.222   0.808 -1.5287 -1.5027 -0.7413
 8343TIP3   OH224992   4.737   6.290   5.221 -0.0279  0.6227  0.8171
 8343TIP3    H124993   4.670   6.263   5.284 -1.4592  2.0136 -0.0532
 8343TIP3    H224994   4.730   6.225   5.151 -1.6323  1.6479 -0.0291
 8344TIP3   OH224995   0.355   6.740   3.983 -0.3224 -0.0770 -0.1992
 8344TIP3    H124996   0.348   6.645   3.997 -1.5174 -0.1217 -0.9241
 8344TIP3    H224997   0.264   6.769   3.973  0.1155  0.8658 -1.7616
 8345TIP3   OH224998   4.564   4.824   5.113 -0.5337  0.0165  0.0899
 8345TIP3    H124999   4.504   4.776   5.170  1.3665 -0.5779  1.7197
 8345TIP3    H225000   4.621   4.756   5.076  0.5704  0.7358  0.4202
 8346TIP3   OH225001   0.670   6.778   1.750  0.6734 -0.3513 -0.5840
 8346TIP3    H125002   0.635   6.757   1.836 -0.8342  1.1121 -0.7929
 8346TIP3    H225003   0.762   6.751   1.754  0.6801 -0.1462  1.5477
 8347TIP3   OH225004   1.618   4.261   2.082 -0.1730  0.4193 -0.2754
 8347TIP3    H125005   1.675   4.278   2.157  0.8432  1.2572 -1.2190
 8347TIP3    H225006   1.583   4.347   2.059  0.4181  0.3562 -1.4557
 8348TIP3   OH225007   2.247   3.454   4.459 -0.2151  0.5035  0.0068
 8348TIP3    H125008   2.174   3.415   4.508 -1.0452 -0.1805 -1.6779
 8348TIP3    H225009   2.325   3.413   4.496 -0.9941 -2.0606 -0.9824
 8349TIP3   OH225010   2.918   4.032   4.248  0.2851  0.1427 -0.0028
 8349TIP3    H125011   2.905   4.123   4.220 -0.4103 -0.1389 -0.6299
 8349TIP3    H225012   2.874   4.028   4.333  0.2136  0.3660 -0.0273
 8350TIP3   OH225013   2.083   0.310   3.703  0.6362 -0.3923  0.2586
 8350TIP3    H125014   2.016   0.374   3.679  1.8037  0.3999 -1.0800
 8350TIP3    H225015   2.109   0.336   3.792  0.6040  0.5971 -0.0018
 8351TIP3   OH225016   4.574   3.126   4.258 -0.0854 -0.0491  0.1582
 8351TIP3    H125017   4.635   3.106   4.329 -0.0418 -1.4306 -0.2300
 8351TIP3    H225018   4.622   3.188   4.202  0.1937  0.4057  0.8832
 8352TIP3   OH225019   6.364   0.241   3.856  0.2481  0.4663 -0.4037
 8352TIP3    H125020   6.393   0.313   3.913  0.2860  1.0162 -1.1122
 8352TIP3    H225021   6.275   0.264   3.830  0.6619  0.8316 -1.5426
 8353TIP3   OH225022   6.420   1.392   5.622  0.3092 -0.3906  0.1407
 8353TIP3    H125023   6.338   1.343   5.617  0.2478 -0.3945  1.1248
 8353TIP3    H225024   6.457   1.386   5.533 -0.2555 -1.2448 -0.0451
 8354TIP3   OH225025   4.942   0.516   5.514  0.1025  0.3202  0.2552
 8354TIP3    H125026   5.035   0.495   5.505 -0.3221 -1.9090  0.5415
 8354TIP3    H225027   4.936   0.560   5.599  0.9071  0.7100  0.1256
 8355TIP3   OH225028   6.171   2.095   1.036 -0.1745  0.1391  0.0955
 8355TIP3    H125029   6.100   2.142   0.993 -0.7147 -0.0563  0.7503
 8355TIP3    H225030   6.181   2.139   1.120  0.8715  0.5261 -0.2166
 8356TIP3   OH225031   3.735   1.192   0.454 -0.4033 -0.7628  0.2454
 8356TIP3    H125032   3.699   1.213   0.368  0.6505  1.1995  0.2246
 8356TIP3    H225033   3.669   1.223   0.516  0.3249  1.0710  0.1682
 8357TIP3   OH225034   6.872   4.069   0.783  0.1603 -0.1320 -0.1431
 8357TIP3    H125035   6.909   4.006   0.845  2.3163  2.4595  1.4363
 8357TIP3    H225036   6.943   4.086   0.721  0.3334  1.9786  0.5325
 8358TIP3   OH225037   2.528   0.853   1.817  0.2534  0.3866  0.2725
 8358TIP3    H125038   2.435   0.831   1.809  0.1627  1.2255 -1.3507
 8358TIP3    H225039   2.573   0.769   1.804 -0.2345  0.2911 -1.0101
 8359TIP3   OH225040   1.587   5.727   2.973 -0.1570  0.6401  0.0221
 8359TIP3    H125041   1.664   5.748   2.921  1.1115 -0.8292  1.2031
 8359TIP3    H225042   1.560   5.640   2.942  0.5674 -0.2219  1.6563
 8360TIP3   OH225043   7.005   6.375   3.327  0.1614  0.2663  0.1560
 8360TIP3    H125044   6.981   6.456   3.282  1.0900  1.9057  2.3966
 8360TIP3    H225045   7.076   6.338   3.274  0.0995  1.2136 -0.6216
 8361TIP3   OH225046   3.709   6.005   0.883  0.0189 -0.0890  0.0853
 8361TIP3    H125047   3.785   5.983   0.831  0.0519 -0.0564  0.1198
 8361TIP3    H225048   3.649   5.931   0.871 -0.5567  0.5491 -1.1092
 8362TIP3   OH225049   6.303   1.628   2.925 -0.1777  0.2981 -0.3885
 8362TIP3    H125050   6.385   1.627   2.974 -1.4023 -1.8478  1.8958
 8362TIP3    H225051   6.250   1.695   2.968 -0.4728 -0.0766 -0.1498
 8363TIP3   OH225052   0.935   3.912   5.815 -0.0630  0.5841  0.5289
 8363TIP3    H125053   0.904   3.955   5.895 -3.1440  0.0724 -0.2516
 8363TIP3    H225054   0.921   3.976   5.746 -0.9540 -0.2355 -0.0771
 8364TIP3   OH225055   3.878   4.499   4.738 -0.0671  0.3564  0.3467
 8364TIP3    H125056   3.924   4.422   4.705  0.7199  0.0886  1.9419
 8364TIP3    H225057   3.786   4.476   4.733  0.1760 -0.9899  1.3940
 8365TIP3   OH225058   0.833   4.589   4.975  0.8103 -0.0537 -0.2857
 8365TIP3    H125059   0.927   4.578   4.992  0.6207  1.1111  1.8497
 8365TIP3    H225060   0.793   4.510   5.011  0.7929  0.5146  0.9897
 8366TIP3   OH225061   5.908   3.521   1.511  0.0358  0.3051 -0.0888
 8366TIP3    H125062   5.953   3.531   1.427 -0.6753 -1.0330 -0.6479
 8366TIP3    H225063   5.870   3.607   1.528  1.1327  0.9023 -0.5734
 8367TIP3   OH225064   6.501   5.578   1.791  0.0068 -0.1981 -0.3430
 8367TIP3    H125065   6.576   5.633   1.815 -0.0376  0.9314 -2.5130
 8367TIP3    H225066   6.540   5.492   1.771  0.5749  0.0417 -0.3021
 8368TIP3   OH225067   5.911   4.635   3.709 -0.0458  0.2491  0.8906
 8368TIP3    H125068   5.879   4.682   3.786  0.2085 -1.3333  2.0105
 8368TIP3    H225069   6.004   4.656   3.706 -0.2955  1.3344  0.2321
 8369TIP3   OH225070   5.033   0.248   3.818  0.5796 -0.2953  0.2503
 8369TIP3    H125071   4.992   0.335   3.813 -1.1226 -1.1260 -1.1992
 8369TIP3    H225072   5.114   0.263   3.866  0.5915  2.2127 -0.3968
 8370TIP3   OH225073   0.322   4.467   3.219 -0.1370 -0.1703 -0.0820
 8370TIP3    H125074   0.382   4.459   3.293 -0.9188 -0.8848  0.4993
 8370TIP3    H225075   0.362   4.533   3.162  0.9291 -0.2644  0.5342
 8371TIP3   OH225076   2.815   3.870   5.559  0.1846 -0.5523  0.4937
 8371TIP3    H125077   2.725   3.839   5.568  0.1156 -0.4420  0.2088
 8371TIP3    H225078   2.858   3.842   5.639 -0.9542  2.3137  2.2718
 8372TIP3   OH225079   2.402   0.053   4.879 -0.2352 -0.1146 -0.1880
 8372TIP3    H125080   2.421   0.070   4.972  0.0388 -0.8309 -0.1057
 8372TIP3    H225081   2.432   0.132   4.834  1.9794 -0.7366  0.0622
 8373TIP3   OH225082   1.663   2.123   1.784  0.5337  0.0930  0.1116
 8373TIP3    H125083   1.575   2.101   1.752  0.1904 -0.5129  1.4042
 8373TIP3    H225084   1.721   2.102   1.711 -0.1841 -1.5688 -0.0264
 8374TIP3   OH225085   7.188   0.186   2.695  0.1160 -0.0761  0.3863
 8374TIP3    H125086   7.212   0.164   2.605  0.0275  0.0503  0.3310
 8374TIP3    H225087   7.230   0.271   2.710 -3.4933  2.2311 -1.0949
 8375TIP3   OH225088   0.875   1.811   2.847  0.4892  0.2748 -0.2107
 8375TIP3    H125089   0.885   1.906   2.857  0.1104  0.4122 -1.0669
 8375TIP3    H225090   0.869   1.797   2.752 -0.7479 -0.4713 -0.0452
 8376TIP3   OH225091   5.467   4.120   0.143  0.0852 -0.2122  0.3526
 8376TIP3    H125092   5.550   4.086   0.175  0.0284  0.2880  1.0427
 8376TIP3    H225093   5.401   4.077   0.196 -0.0709 -0.1848  0.1826
 8377TIP3   OH225094   1.516   6.289   1.338 -0.1965  0.0094 -0.2550
 8377TIP3    H125095   1.597   6.309   1.292 -1.2029  0.5144 -1.9214
 8377TIP3    H225096   1.452   6.273   1.268 -2.2136  2.4280  0.8738
 8378TIP3   OH225097   1.119   0.600   3.946 -0.1905 -0.6356 -0.3589
 8378TIP3    H125098   1.142   0.543   3.872  1.8503 -0.9651  0.4716
 8378TIP3    H225099   1.032   0.634   3.923 -0.0576 -1.5101 -2.4229
 8379TIP3   OH225100   2.804   5.839   3.269  0.0961 -0.6475 -0.3985
 8379TIP3    H125101   2.814   5.747   3.293  0.8649 -0.2132  1.1007
 8379TIP3    H225102   2.717   5.863   3.300  0.7011 -0.3560  1.2098
 8380TIP3   OH225103   0.624   0.657   1.918  0.0135  0.0063 -0.5046
 8380TIP3    H125104   0.689   0.691   1.980 -0.6423 -0.3762  0.4145
 8380TIP3    H225105   0.677   0.616   1.850  0.7606 -0.6617  0.4344
 8381TIP3   OH225106   4.108   5.897   1.473 -0.5211  0.5886 -0.4047
 8381TIP3    H125107   4.200   5.910   1.451 -1.0330 -0.2861 -3.4828
 8381TIP3    H225108   4.062   5.963   1.422 -1.7009  0.1650  0.0843
 8382TIP3   OH225109   6.422   0.914   3.962 -0.0772  0.1287  0.1455
 8382TIP3    H125110   6.396   0.830   3.923  0.7408 -0.4220  0.7470
 8382TIP3    H225111   6.369   0.979   3.916  1.7506 -0.3254 -2.8861
 8383TIP3   OH225112   0.254   4.042   0.893  0.2432 -0.7480  0.0214
 8383TIP3    H125113   0.250   4.111   0.959  0.6448  2.4082 -2.9526
 8383TIP3    H225114   0.348   4.023   0.886  0.1978 -1.1048  0.3456
 8384TIP3   OH225115   5.507   2.760   1.559  0.2307  0.3067 -0.3031
 8384TIP3    H125116   5.471   2.843   1.527 -1.7007 -0.2305  0.3682
 8384TIP3    H225117   5.600   2.778   1.572 -0.1889  2.4505  0.0627
 8385TIP3   OH225118   6.499   5.592   3.486  0.6557 -0.0398  0.3619
 8385TIP3    H125119   6.562   5.641   3.539  0.3727  1.0266 -0.2685
 8385TIP3    H225120   6.415   5.633   3.505  0.3387 -0.5991  0.1880
 8386TIP3   OH225121   5.279   4.350   2.322 -0.4569  0.0583  0.2071
 8386TIP3    H125122   5.188   4.380   2.323 -0.8718 -1.1179  0.0895
 8386TIP3    H225123   5.299   4.336   2.229  0.0950  0.9793  0.1708
 8387TIP3   OH225124   6.059   6.199   5.237  0.1722  0.1476 -0.1030
 8387TIP3    H125125   6.030   6.289   5.249  0.3540  0.6492 -2.8607
 8387TIP3    H225126   6.073   6.166   5.326 -0.5197  2.6123  0.9871
 8388TIP3   OH225127   4.565   5.955   4.463  0.3423 -0.1954  0.3251
 8388TIP3    H125128   4.626   6.028   4.456 -0.6025  0.5571 -0.3142
 8388TIP3    H225129   4.517   5.971   4.544 -2.4395  2.0270 -1.5439
 8389TIP3   OH225130   0.269   5.735   1.931  0.2643 -0.1840 -0.3202
 8389TIP3    H125131   0.354   5.726   1.888  0.6232 -0.6381  0.4719
 8389TIP3    H225132   0.290   5.741   2.024 -0.5823 -0.4555 -0.1094
 8390TIP3   OH225133   6.321   6.329   0.333  0.2493 -0.5750  0.2960
 8390TIP3    H125134   6.372   6.387   0.390  1.5551 -0.2870 -1.1042
 8390TIP3    H225135   6.231   6.358   0.344  0.7703  1.1531  0.3201
 8391TIP3   OH225136   5.233   5.229   5.831 -0.0812  0.9959 -0.3273
 8391TIP3    H125137   5.195   5.248   5.917 -0.0505  1.6340 -0.4514
 8391TIP3    H225138   5.159   5.233   5.771  0.1129  1.8931 -0.5197
 8392TIP3   OH225139   1.637   1.477   1.057 -0.0392 -0.8810 -0.2070
 8392TIP3    H125140   1.634   1.481   1.152 -0.9021 -0.6330 -0.2385
 8392TIP3    H225141   1.611   1.565   1.029  0.2101 -0.9519 -0.6747
 8393TIP3   OH225142   0.157   4.218   5.782  0.1404 -0.1207 -0.1344
 8393TIP3    H125143   0.099   4.193   5.854  0.9276 -0.6731  0.3218
 8393TIP3    H225144   0.235   4.253   5.825 -0.0750  1.1649 -0.7483
 8394TIP3   OH225145   6.610   5.386   0.958 -0.2854 -0.1700  0.2254
 8394TIP3    H125146   6.541   5.320   0.969 -1.0731  0.0708 -2.5091
 8394TIP3    H225147   6.585   5.433   0.879  2.8650  0.1436 -0.6987
 8395TIP3   OH225148   6.416   4.278   2.322 -0.0775 -0.6463 -0.3258
 8395TIP3    H125149   6.477   4.341   2.363  1.5110 -2.0212 -0.4544
 8395TIP3    H225150   6.367   4.242   2.396 -1.2940  0.9599 -0.2856
 8396TIP3   OH225151   2.477   4.591   2.180  0.2165 -0.6292  0.2573
 8396TIP3    H125152   2.517   4.514   2.141  0.7485 -1.2200  1.9071
 8396TIP3    H225153   2.547   4.631   2.233 -0.0656  0.9552 -0.4841
 8397TIP3   OH225154   3.188   0.498   2.175 -0.4143  0.2037 -0.0348
 8397TIP3    H125155   3.120   0.522   2.238  1.5171  1.6516  1.6682
 8397TIP3    H225156   3.191   0.402   2.178 -0.0519  0.2117  2.6084
 8398TIP3   OH225157   1.981   1.310   0.710 -0.8024  0.4882 -0.0994
 8398TIP3    H125158   2.072   1.291   0.732 -0.8116  0.5751  0.0111
 8398TIP3    H225159   1.980   1.313   0.614 -0.8651 -0.4101 -0.1389
 8399TIP3   OH225160   1.476   3.532   0.359 -0.2153 -0.0486  0.1011
 8399TIP3    H125161   1.521   3.450   0.339  1.5546  0.9688 -0.2711
 8399TIP3    H225162   1.383   3.513   0.343  0.2870 -1.6138 -1.1568
 8400TIP3   OH225163   6.481   3.287   0.628  0.6707 -0.2878  0.3158
 8400TIP3    H125164   6.460   3.365   0.575 -0.1191 -0.8155 -0.1703
 8400TIP3    H225165   6.404   3.231   0.619  2.1325 -2.1620 -1.2331
 8401TIP3   OH225166   0.093   1.528   0.706  0.1973  0.3303  0.2022
 8401TIP3    H125167   0.006   1.567   0.719 -1.1246 -2.2342 -0.2376
 8401TIP3    H225168   0.131   1.527   0.794 -0.9075  0.0587  0.7075
 8402TIP3   OH225169   4.595   1.918   2.642 -0.3946 -0.5289  0.9783
 8402TIP3    H125170   4.602   1.993   2.583 -0.1252  0.6342  2.4248
 8402TIP3    H225171   4.605   1.841   2.586  1.6371  0.5663 -0.2451
 8403TIP3   OH225172   4.411   3.258   2.139 -0.0315  0.1264  0.4717
 8403TIP3    H125173   4.332   3.301   2.106  0.6013  0.3703 -0.7705
 8403TIP3    H225174   4.384   3.167   2.152 -0.6342  0.2980  0.4384
 8404TIP3   OH225175   0.249   4.214   1.771 -0.0408  0.0047 -0.5239
 8404TIP3    H125176   0.299   4.205   1.689  1.2735 -0.4991  0.3060
 8404TIP3    H225177   0.315   4.215   1.840 -1.1200  0.6070  0.5391
 8405TIP3   OH225178   1.465   5.513   0.678  0.5011 -0.0645  0.1547
 8405TIP3    H125179   1.455   5.487   0.769 -1.0217 -0.8385 -0.1863
 8405TIP3    H225180   1.402   5.584   0.667 -1.4424 -1.8308 -0.9230
 8406TIP3   OH225181   2.251   6.485   4.944  0.2128  0.1864 -0.4863
 8406TIP3    H125182   2.166   6.455   4.913 -0.2743  0.9018  0.1046
 8406TIP3    H225183   2.277   6.554   4.883  0.8378 -0.7011 -1.2359
 8407TIP3   OH225184   0.020   3.803   0.564  0.0871  0.1951  0.1877
 8407TIP3    H125185   0.108   3.840   0.555 -0.1033  0.3654 -1.0942
 8407TIP3    H225186  -0.032   3.874   0.601 -0.1751  1.1373 -1.8463
 8408TIP3   OH225187   1.918   5.008   2.356  0.1199 -0.1042  0.2695
 8408TIP3    H125188   1.886   4.983   2.270  0.6856 -0.8512  0.2610
 8408TIP3    H225189   1.862   5.081   2.383 -1.7768 -1.5612  0.4120
 8409TIP3   OH225190   0.628   0.671   1.501  0.4884  0.3013  0.1445
 8409TIP3    H125191   0.544   0.709   1.526  0.8716  0.0078  2.0405
 8409TIP3    H225192   0.674   0.657   1.584  0.7297 -3.5544 -0.4598
 8410TIP3   OH225193   1.391   4.178   1.492 -0.0036 -0.2043 -0.0540
 8410TIP3    H125194   1.345   4.095   1.483 -0.0116 -0.2607  0.5029
 8410TIP3    H225195   1.343   4.238   1.434 -1.4353  0.0095  1.2961
 8411TIP3   OH225196   4.060   6.057   5.225  0.1332  0.5994 -0.6473
 8411TIP3    H125197   4.016   6.121   5.170 -1.4087  0.8704  0.8244
 8411TIP3    H225198   4.002   5.981   5.225  0.5080  0.3030 -0.0261
 8412TIP3   OH225199   6.195   3.657   1.466 -0.3328 -0.0078 -0.2603
 8412TIP3    H125200   6.205   3.752   1.458  1.1908 -0.2474 -2.2572
 8412TIP3    H225201   6.145   3.632   1.388  1.9453 -1.0857 -1.4852
 8413TIP3   OH225202   3.294   6.302   1.074 -0.4110 -0.0370 -0.4043
 8413TIP3    H125203   3.240   6.310   1.152  0.7508  1.1447  0.3293
 8413TIP3    H225204   3.354   6.230   1.094  0.0289  0.4043 -0.0784
 8414TIP3   OH225205   3.177   1.583   4.090 -0.0204 -0.3578  0.0462
 8414TIP3    H125206   3.169   1.493   4.058  0.5023  0.0123 -1.1836
 8414TIP3    H225207   3.242   1.623   4.032 -1.7736  1.4285 -0.8151
 8415TIP3   OH225208   2.305   2.002   5.557  0.2367  0.5127 -0.0922
 8415TIP3    H125209   2.327   2.011   5.650  0.3795 -0.0657 -0.0659
 8415TIP3    H225210   2.390   1.995   5.513  0.1914 -2.7052  0.1048
 8416TIP3   OH225211   0.435   2.348   2.758  0.4608  0.8597  0.3817
 8416TIP3    H125212   0.480   2.414   2.811 -1.3425  2.3544  0.1278
 8416TIP3    H225213   0.410   2.280   2.821  1.5102  0.8478  0.8039
 8417TIP3   OH225214   4.818   3.381   2.680  0.1716  0.6424 -0.5890
 8417TIP3    H125215   4.767   3.429   2.616 -2.1929  0.7064  1.2156
 8417TIP3    H225216   4.755   3.354   2.746  2.2198 -0.7964  0.9207
 8418TIP3   OH225217   1.650   6.168   3.215  0.3320 -0.3851 -0.2036
 8418TIP3    H125218   1.567   6.120   3.213  1.0174 -1.6754 -2.6299
 8418TIP3    H225219   1.630   6.252   3.174  0.1466 -0.5800 -0.5195
 8419TIP3   OH225220   4.850   0.663   1.431 -0.5299  0.1640 -0.5100
 8419TIP3    H125221   4.884   0.636   1.345 -0.9945 -0.1394 -0.5994
 8419TIP3    H225222   4.869   0.590   1.489 -1.3265 -0.1403 -0.6349
 8420TIP3   OH225223   0.557   5.321   4.396  0.7240  0.3646  0.5443
 8420TIP3    H125224   0.558   5.407   4.354  1.5819  0.3401  0.4855
 8420TIP3    H225225   0.473   5.317   4.442 -0.8660 -0.1397 -2.2039
 8421TIP3   OH225226   1.728   1.925   5.801  0.0542 -0.3144 -0.5858
 8421TIP3    H125227   1.782   1.918   5.880 -0.6850 -0.2943 -0.0736
 8421TIP3    H225228   1.705   1.834   5.781  0.8172 -0.3857 -1.1946
 8422TIP3   OH225229   3.513   5.950   3.147  0.4352 -0.7018  0.5375
 8422TIP3    H125230   3.535   6.043   3.150 -0.1910 -0.4867 -0.8293
 8422TIP3    H225231   3.588   5.909   3.105 -0.5057 -0.3376 -1.6781
 8423TIP3   OH225232   0.127   0.606   3.188  0.6256 -0.8016 -0.0869
 8423TIP3    H125233   0.131   0.669   3.116  1.3724 -1.3968 -0.5922
 8423TIP3    H225234   0.054   0.549   3.165  0.0023 -0.1728  0.3288
 8424TIP3   OH225235   5.833   5.050   1.572  0.4508  0.7980  0.2795
 8424TIP3    H125236   5.875   5.007   1.646  1.1788  2.1268  0.6756
 8424TIP3    H225237   5.888   5.127   1.554 -1.0098  1.8077 -0.1109
 8425TIP3   OH225238   0.413   2.020   4.625 -0.9194 -0.4113 -0.1353
 8425TIP3    H125239   0.445   1.987   4.541 -0.9048 -0.5238 -0.0854
 8425TIP3    H225240   0.318   2.027   4.613 -0.8056  0.5839 -0.5175
 8426TIP3   OH225241   0.188   6.801   0.075  0.6207  0.2769  0.1503
 8426TIP3    H125242   0.126   6.729   0.071 -1.3631  1.9300 -2.2995
 8426TIP3    H225243   0.229   6.793   0.161 -4.1153 -0.0631  2.7268
 8427TIP3   OH225244   5.025   6.130   2.465 -0.8514  0.2230  0.0935
 8427TIP3    H125245   5.026   6.131   2.561 -2.0947 -0.5734  0.1365
 8427TIP3    H225246   5.000   6.219   2.441 -1.8352  0.0849  0.5573
 8428TIP3   OH225247   4.010   1.510   0.960  0.1774 -0.7119 -0.6520
 8428TIP3    H125248   3.989   1.592   1.005  2.4003 -1.0433  1.1762
 8428TIP3    H225249   4.046   1.537   0.876  0.0556  0.1448 -0.4384
 8429TIP3   OH225250   2.482   3.561   0.989  0.4241 -0.5049  0.7762
 8429TIP3    H125251   2.515   3.597   0.907  0.3342  0.3697  1.1143
 8429TIP3    H225252   2.560   3.542   1.040  0.4563  0.5698  1.1567
 8430TIP3   OH225253   1.910   4.078   5.014  0.1339  0.0502  0.0525
 8430TIP3    H125254   1.922   4.062   5.107 -1.5504  0.9046  0.4690
 8430TIP3    H225255   1.853   4.155   5.010  1.6734  1.2029 -1.7107
 8431TIP3   OH225256   5.989   2.994   0.593  0.4744 -0.8111 -0.4503
 8431TIP3    H125257   5.972   3.086   0.613  1.2771 -0.6986 -0.2453
 8431TIP3    H225258   5.941   2.978   0.511 -0.4548 -0.4865  0.0170
 8432TIP3   OH225259   0.752   0.426   2.336 -0.2230  0.0774  0.3430
 8432TIP3    H125260   0.800   0.371   2.398  1.2503  0.6403 -0.2626
 8432TIP3    H225261   0.819   0.459   2.276 -1.3777  0.8838 -0.5460
 8433TIP3   OH225262   5.618   4.912   1.464 -0.1611  0.7060 -0.1660
 8433TIP3    H125263   5.678   4.838   1.451 -0.0143  0.5672  1.1673
 8433TIP3    H225264   5.666   4.971   1.523 -0.6804  1.3937 -0.4199
 8434TIP3   OH225265   3.007   0.012   0.099  0.0992 -0.6305  0.1752
 8434TIP3    H125266   3.050   0.025   0.184 -0.8902 -0.1388  0.6136
 8434TIP3    H225267   2.960   0.093   0.083  0.0966 -0.8046 -0.7502
 8435TIP3   OH225268   2.029   1.172   1.397 -0.4674 -0.3166  0.3614
 8435TIP3    H125269   2.029   1.255   1.348 -1.7151  0.4978  1.6372
 8435TIP3    H225270   2.117   1.136   1.385 -0.2387  0.6587 -1.1026
 8436TIP3   OH225271   0.890   0.205   4.513  0.3882  0.6156 -0.3879
 8436TIP3    H125272   0.830   0.143   4.555  2.0815 -1.2540 -0.5394
 8436TIP3    H225273   0.837   0.251   4.449 -0.9124 -0.9184 -0.4757
 8437TIP3   OH225274   4.524   4.370   4.575  0.2654  0.1952 -0.3257
 8437TIP3    H125275   4.536   4.353   4.669 -0.8125  0.2238 -0.1677
 8437TIP3    H225276   4.612   4.386   4.542  0.4905  2.3722  1.1035
 8438TIP3   OH225277   4.659   0.257   1.246  0.5039  0.2821  0.0022
 8438TIP3    H125278   4.572   0.224   1.221 -0.7153  2.5223  0.9929
 8438TIP3    H225279   4.676   0.330   1.187  1.7241 -0.0759 -0.1233
 8439TIP3   OH225280   4.999   0.645   3.008 -0.4251  0.5136 -0.2799
 8439TIP3    H125281   4.998   0.661   3.102 -0.8540  0.1284 -0.2150
 8439TIP3    H225282   4.925   0.586   2.993  0.6316 -0.7670 -0.6240
 8440TIP3   OH225283   1.179   2.187   4.948  0.4796  0.3453 -0.2411
 8440TIP3    H125284   1.103   2.175   4.891  0.2256 -0.9886  0.3482
 8440TIP3    H225285   1.251   2.146   4.901  0.0080 -1.9614  0.9066
 8441TIP3   OH225286   0.604   4.753   2.445  0.1687  0.7283  0.3177
 8441TIP3    H125287   0.596   4.678   2.505 -0.1775  0.5432  0.0470
 8441TIP3    H225288   0.655   4.817   2.494  3.4341 -0.9269 -0.6276
 8442TIP3   OH225289   3.184   5.699   5.146  0.4308  0.2097 -0.4675
 8442TIP3    H125290   3.217   5.611   5.166  2.1407  0.9320  0.1185
 8442TIP3    H225291   3.102   5.706   5.195  0.0510 -1.1903 -0.8580
 8443TIP3   OH225292   6.404   3.373   1.946 -0.6562 -0.2283  0.1780
 8443TIP3    H125293   6.361   3.289   1.959  0.1762 -0.6161  0.5124
 8443TIP3    H225294   6.498   3.354   1.957 -0.1439  0.1009 -2.7272
 8444TIP3   OH225295   6.006   1.778   3.841 -0.4642 -0.0105  0.3450
 8444TIP3    H125296   6.095   1.780   3.805 -0.6919 -0.0198 -0.2255
 8444TIP3    H225297   6.010   1.835   3.918  0.2442 -0.6724  0.8172
 8445TIP3   OH225298   3.347   4.803   3.264 -0.0536 -0.1819  0.6324
 8445TIP3    H125299   3.408   4.813   3.191  1.0375  1.2129  1.6561
 8445TIP3    H225300   3.261   4.809   3.225  0.5158  0.9662 -0.5053
 8446TIP3   OH225301   2.525   6.820   4.401 -0.0072 -0.3533  0.0992
 8446TIP3    H125302   2.501   6.823   4.309 -3.2518 -0.8020  0.8215
 8446TIP3    H225303   2.564   6.734   4.414  0.6349 -0.2155 -0.8636
 8447TIP3   OH225304   1.810   1.978   4.965  0.2426  0.3332  0.1627
 8447TIP3    H125305   1.793   1.936   5.050 -1.1555  2.5374  1.0500
 8447TIP3    H225306   1.905   1.993   4.965  0.2185  0.5864  1.4800
 8448TIP3   OH225307   3.714   2.909   1.931  0.1370  0.1394  0.0836
 8448TIP3    H125308   3.638   2.880   1.880  0.2867  0.3665 -0.2722
 8448TIP3    H225309   3.695   2.999   1.954 -0.3202 -0.2288  1.1789
 8449TIP3   OH225310   2.265   1.505   4.508 -0.0770  0.2167 -0.4572
 8449TIP3    H125311   2.267   1.413   4.482  1.3306  0.3494 -0.9134
 8449TIP3    H225312   2.337   1.514   4.571 -0.5458  0.8916 -0.0026
 8450TIP3   OH225313   7.166   2.070   1.974  0.6608 -0.0494  0.3841
 8450TIP3    H125314   7.260   2.089   1.971  0.5669  0.3580 -0.7010
 8450TIP3    H225315   7.158   1.994   2.032  1.9920 -1.8635 -1.6497
 8451TIP3   OH225316   3.765   5.547   5.065 -0.0182 -0.2374 -0.0482
 8451TIP3    H125317   3.684   5.596   5.079  0.4608  0.7950 -0.7429
 8451TIP3    H225318   3.745   5.458   5.094 -1.1356  0.1965  0.5729
 8452TIP3   OH225319   4.814   4.648   1.328  1.4248 -0.0579 -0.3077
 8452TIP3    H125320   4.728   4.677   1.357  1.2890  1.0218 -1.6471
 8452TIP3    H225321   4.806   4.553   1.317  1.2291 -0.3934  2.1136
 8453TIP3   OH225322   6.182   6.788   2.183 -0.0960 -0.5262  0.0336
 8453TIP3    H125323   6.265   6.815   2.145  0.0867 -0.0332  0.7689
 8453TIP3    H225324   6.191   6.693   2.196  1.0118 -0.2332  1.6756
 8454TIP3   OH225325   0.219   6.103   1.176 -0.4154  0.3608  0.3570
 8454TIP3    H125326   0.262   6.136   1.256  0.2033  0.1192  0.1297
 8454TIP3    H225327   0.205   6.010   1.194 -0.7625  0.4183  0.3903
 8455TIP3   OH225328   6.537   0.783   2.427  0.6583 -0.1186  0.3456
 8455TIP3    H125329   6.490   0.725   2.368  0.4718  0.5966 -0.2168
 8455TIP3    H225330   6.514   0.871   2.398  1.6679  0.2446  0.5981
 8456TIP3   OH225331   4.724   6.469   5.498  0.1204 -0.2684  0.4210
 8456TIP3    H125332   4.703   6.561   5.514 -1.3589 -0.3398 -0.8776
 8456TIP3    H225333   4.739   6.464   5.403 -0.7900 -1.5285  0.3242
 8457TIP3   OH225334   6.532   4.397   1.030 -0.4416 -0.4553 -0.1752
 8457TIP3    H125335   6.596   4.346   0.980  0.6389  2.2878 -1.7907
 8457TIP3    H225336   6.584   4.445   1.095 -0.9177  1.1036 -0.8892
 8458TIP3   OH225337   7.111   6.391   1.133 -0.4124 -0.3052 -0.2889
 8458TIP3    H125338   7.137   6.322   1.071  0.0557 -1.0495  0.7028
 8458TIP3    H225339   7.046   6.348   1.190 -1.7040  0.6979 -0.9520
 8459TIP3   OH225340   1.743   4.340   0.801  0.2297  0.3006 -0.0556
 8459TIP3    H125341   1.665   4.337   0.857  0.8892  1.7112  1.0074
 8459TIP3    H225342   1.811   4.298   0.853  0.9234  1.8859  0.4021
 8460TIP3   OH225343   1.208   1.679   2.555 -0.6547 -0.2131  0.0724
 8460TIP3    H125344   1.258   1.760   2.542 -1.3074  0.2717  0.5209
 8460TIP3    H225345   1.121   1.699   2.520 -1.0308 -0.4749  0.8399
 8461TIP3   OH225346   2.976   0.563   2.333  0.3946 -0.3236 -0.1598
 8461TIP3    H125347   2.906   0.517   2.288  0.0635  0.2931 -0.2845
 8461TIP3    H225348   2.982   0.520   2.418 -1.6316  1.0169  0.7160
 8462TIP3   OH225349   4.601   4.687   3.386 -0.0528 -0.2697  0.5681
 8462TIP3    H125350   4.544   4.720   3.455 -2.1766  2.4955 -2.2511
 8462TIP3    H225351   4.555   4.612   3.349  1.1317 -1.8146  2.0674
 8463TIP3   OH225352   6.006   5.633   5.714  0.6657 -0.3014 -0.2231
 8463TIP3    H125353   5.926   5.656   5.761  1.3064 -1.2387  1.3716
 8463TIP3    H225354   5.975   5.599   5.630 -0.6039 -0.6796  0.3783
 8464TIP3   OH225355   2.055   6.712   5.802  0.0843  0.3756 -0.7000
 8464TIP3    H125356   1.983   6.695   5.742 -0.0369 -1.1060 -0.1890
 8464TIP3    H225357   2.015   6.761   5.874 -0.2944  0.0836 -0.7053
 8465TIP3   OH225358   3.110   4.401   5.427 -0.5337  0.2554 -0.0588
 8465TIP3    H125359   3.075   4.424   5.513 -0.9529  0.6955 -0.3437
 8465TIP3    H225360   3.097   4.306   5.421  0.1183  0.1064  0.6333
 8466TIP3   OH225361   3.214   5.178   4.993 -0.1984  0.2600 -0.1950
 8466TIP3    H125362   3.223   5.161   4.900 -0.8155 -3.2917  0.2561
 8466TIP3    H225363   3.266   5.109   5.035 -0.6444  1.2231  2.1081
 8467TIP3   OH225364   5.920   0.684   5.394  0.3042  0.2306 -0.0687
 8467TIP3    H125365   5.961   0.655   5.313 -1.3945  0.9318 -1.2273
 8467TIP3    H225366   5.869   0.608   5.424  0.3472  0.2103 -0.0460
 8468TIP3   OH225367   1.116   6.411   4.637 -0.3067 -0.4072  0.4129
 8468TIP3    H125368   1.177   6.355   4.590  2.1228  1.9113  0.5798
 8468TIP3    H225369   1.117   6.379   4.727  0.8919 -0.2535  0.4639
 8469TIP3   OH225370   2.942   0.992   2.076  0.3098 -0.3059 -0.4464
 8469TIP3    H125371   2.924   0.944   2.156 -0.6310  2.2425  0.9610
 8469TIP3    H225372   3.012   1.053   2.100 -0.6971  1.2039 -1.2488
 8470TIP3   OH225373   4.353   2.574   2.000 -0.2886  0.4214 -0.5172
 8470TIP3    H125374   4.358   2.610   2.088 -0.4496  0.7138 -0.6268
 8470TIP3    H225375   4.445   2.563   1.973 -0.1908  2.3722 -1.1346
 8471TIP3   OH225376   4.423   1.421   1.155  0.1685 -0.4352  0.2746
 8471TIP3    H125377   4.419   1.412   1.060 -0.5292 -1.5562  0.3915
 8471TIP3    H225378   4.515   1.441   1.173  0.4281 -0.7973 -0.5895
 8472TIP3   OH225379   6.211   2.990   5.591 -0.9040  0.3284  0.1568
 8472TIP3    H125380   6.239   3.074   5.555  0.0942  0.0038  0.1442
 8472TIP3    H225381   6.226   2.997   5.685  1.0525 -0.4854 -0.0386
 8473TIP3   OH225382   4.651   0.701   3.360 -0.3092  0.8061 -0.1091
 8473TIP3    H125383   4.631   0.785   3.402  1.3409  0.6580  1.0792
 8473TIP3    H225384   4.630   0.636   3.427 -2.1570  0.1865 -1.2375
 8474TIP3   OH225385   6.749   6.302   1.116 -0.2691 -0.1431 -0.8696
 8474TIP3    H125386   6.706   6.382   1.146  0.3239  0.1906 -0.9021
 8474TIP3    H225387   6.693   6.232   1.149 -0.8106  0.2800 -0.8663
 8475TIP3   OH225388   0.980   4.969   1.755 -0.3498 -0.0715 -0.7598
 8475TIP3    H125389   0.913   5.034   1.776  0.7882  1.2998 -1.1541
 8475TIP3    H225390   0.984   4.912   1.832 -0.4032  1.2063  0.2244
 8476TIP3   OH225391   4.563   5.409   1.892  0.9303  0.1342  0.3154
 8476TIP3    H125392   4.543   5.356   1.815  1.5596 -0.6904  0.7002
 8476TIP3    H225393   4.570   5.498   1.859  1.9182 -0.3037 -0.7097
 8477TIP3   OH225394   6.419   6.252   4.099 -0.2117 -0.7003 -0.8382
 8477TIP3    H125395   6.512   6.252   4.076  0.7501 -0.9477  2.4914
 8477TIP3    H225396   6.409   6.176   4.156 -2.4249 -0.4909 -0.8743
 8478TIP3   OH225397   5.756   6.067   5.581 -0.3488 -0.0078 -0.0752
 8478TIP3    H125398   5.686   6.029   5.528 -1.7140  0.1466  1.5378
 8478TIP3    H225399   5.802   5.992   5.618  0.3489 -0.1096 -1.1072
 8479TIP3   OH225400   4.583   5.322   1.643 -0.6550  0.1286 -0.2643
 8479TIP3    H125401   4.678   5.325   1.626 -0.4583  0.4865  0.8005
 8479TIP3    H225402   4.544   5.366   1.568  0.0689  0.5004 -0.4357
 8480TIP3   OH225403   5.712   3.112   2.246  0.2173 -0.0248 -0.2107
 8480TIP3    H125404   5.674   3.189   2.203 -0.9253 -2.1357 -3.3742
 8480TIP3    H225405   5.637   3.068   2.286  0.9481  0.7020  2.1003
 8481TIP3   OH225406   1.841   6.348   3.962  0.7971  0.1256 -0.5545
 8481TIP3    H125407   1.928   6.346   3.924 -0.4807  1.6122 -3.9443
 8481TIP3    H225408   1.836   6.432   4.008  1.1555 -0.0128 -0.2590
 8482TIP3   OH225409   1.007   4.626   4.707  0.4282 -0.5826 -0.4909
 8482TIP3    H125410   0.968   4.538   4.716  3.4933 -2.1015 -0.7590
 8482TIP3    H225411   1.042   4.627   4.617  1.9236  0.2112  0.0740
 8483TIP3   OH225412   4.197   0.697   5.808  0.1447  0.0931  0.0277
 8483TIP3    H125413   4.126   0.710   5.871  1.3657  0.9941  1.2686
 8483TIP3    H225414   4.236   0.784   5.797  0.8838 -0.3332 -0.8567
 8484TIP3   OH225415   6.572   5.158   2.004 -0.0379  0.1812  0.7155
 8484TIP3    H125416   6.659   5.159   1.962 -0.1146  0.1009  0.5495
 8484TIP3    H225417   6.511   5.152   1.930 -0.1073 -2.7449  0.8663
 8485TIP3   OH225418   1.038   6.615   3.771  0.5221  0.4056  0.0821
 8485TIP3    H125419   0.959   6.629   3.719  0.2714 -0.0576  0.3329
 8485TIP3    H225420   1.109   6.611   3.706  0.2924  0.4456 -0.1748
 8486TIP3   OH225421   4.345   5.727   0.580  0.2631  0.4191 -0.3588
 8486TIP3    H125422   4.387   5.648   0.546  0.4503 -0.2662  1.3432
 8486TIP3    H225423   4.264   5.695   0.620 -0.9317  1.4570 -1.8173
 8487TIP3   OH225424   0.049   1.743   1.226 -0.2601 -0.6403  0.0437
 8487TIP3    H125425  -0.021   1.801   1.254 -0.8134 -1.0042 -0.5704
 8487TIP3    H225426   0.013   1.655   1.235 -0.1718 -0.7943 -1.0499
 8488TIP3   OH225427   4.685   6.232   4.069  0.2526  0.6662 -0.1691
 8488TIP3    H125428   4.652   6.215   3.980  1.9729 -1.9316 -0.4238
 8488TIP3    H225429   4.626   6.183   4.126  1.1791 -0.5661 -0.2415
 8489TIP3   OH225430   5.752   0.686   3.161 -0.8492 -0.1378  0.0483
 8489TIP3    H125431   5.783   0.638   3.084 -1.8177 -1.7615  0.6053
 8489TIP3    H225432   5.831   0.718   3.204 -0.3094  1.3463 -1.9173
 8490TIP3   OH225433   1.689   1.152   4.763  0.3908  0.3514  0.2010
 8490TIP3    H125434   1.603   1.190   4.777  0.5271  1.5349 -1.8953
 8490TIP3    H225435   1.679   1.096   4.687  1.2354 -0.3973  0.6206
 8491TIP3   OH225436   6.910   6.290   4.173 -0.2657 -0.6111 -0.0194
 8491TIP3    H125437   6.964   6.362   4.142 -0.6288 -0.3694 -0.1055
 8491TIP3    H225438   6.927   6.285   4.267 -0.6040 -0.0895  0.0755
 8492TIP3   OH225439   5.203   2.469   4.520  0.3732 -0.1277  0.1592
 8492TIP3    H125440   5.239   2.544   4.472 -1.3154  0.1616 -0.7274
 8492TIP3    H225441   5.243   2.392   4.479  0.1741  0.1893 -0.6353
 8493TIP3   OH225442   2.730   3.032   1.411  0.5924 -0.2201  0.3400
 8493TIP3    H125443   2.799   3.080   1.455  0.0375  1.2793 -0.3367
 8493TIP3    H225444   2.680   3.100   1.365 -0.5576 -1.4019 -0.2112
 8494TIP3   OH225445   0.095   0.790   2.369 -0.0644 -0.0952  0.4171
 8494TIP3    H125446   0.144   0.864   2.403  1.9366 -0.8436 -0.6284
 8494TIP3    H225447   0.019   0.828   2.326  0.0238  1.1922  1.3601
 8495TIP3   OH225448   5.217   6.189   0.186  0.2742  0.0142 -0.4648
 8495TIP3    H125449   5.167   6.181   0.105  0.0733 -1.6735 -0.2197
 8495TIP3    H225450   5.270   6.110   0.189  0.5722  0.2441  0.8515
 8496TIP3   OH225451   6.834   5.426   3.957  0.9345 -0.4818  0.2584
 8496TIP3    H125452   6.773   5.449   3.887 -0.1714  1.0520  1.6654
 8496TIP3    H225453   6.795   5.462   4.037  2.3602 -1.8040  1.6268
 8497TIP3   OH225454   3.489   2.487   3.292 -0.1841 -0.1859  0.0008
 8497TIP3    H125455   3.442   2.533   3.361  0.4826  0.8442 -0.2016
 8497TIP3    H225456   3.578   2.475   3.327 -0.6487 -2.5005  0.5612
 8498TIP3   OH225457   1.527   1.489   0.447 -0.0211 -0.1783  0.1065
 8498TIP3    H125458   1.567   1.570   0.480  0.0025 -0.1504  0.0129
 8498TIP3    H225459   1.588   1.459   0.379 -0.7747  0.5516 -0.9374
 8499TIP3   OH225460   5.009   2.040   5.556 -0.0251 -0.1448 -0.1292
 8499TIP3    H125461   4.989   1.947   5.564 -1.7709  0.1478 -0.6246
 8499TIP3    H225462   5.103   2.043   5.537  0.0671 -1.7929 -0.0707
 8500TIP3   OH225463   6.799   0.872   2.099 -0.0789  0.0648  0.2289
 8500TIP3    H125464   6.866   0.810   2.069  0.0734  0.0665  0.5545
 8500TIP3    H225465   6.846   0.929   2.159  0.1687  1.5093 -1.2711
 8501TIP3   OH225466   6.181   1.399   2.771  0.5991  0.1162  0.0215
 8501TIP3    H125467   6.103   1.427   2.724  1.2079  0.7183 -0.6417
 8501TIP3    H225468   6.213   1.478   2.814  0.2832 -0.3394  1.1401
 8502TIP3   OH225469   4.941   1.234   1.742 -0.4154 -0.0086 -0.0911
 8502TIP3    H125470   4.973   1.270   1.659 -0.2394 -2.4308 -1.1550
 8502TIP3    H225471   4.999   1.272   1.808  1.4982 -0.4023 -1.4404
 8503TIP3   OH225472   2.898   3.277   0.911 -0.4602 -0.4875 -0.1805
 8503TIP3    H125473   2.885   3.214   0.981  0.8474 -2.3732 -1.5603
 8503TIP3    H225474   2.809   3.301   0.884 -0.9716 -0.7806  1.1572
 8504TIP3   OH225475   0.995   1.185   2.992 -0.3276  0.7531 -0.6109
 8504TIP3    H125476   0.969   1.117   2.930 -0.7212  1.2498 -0.9932
 8504TIP3    H225477   1.080   1.216   2.961 -1.2458  2.1236 -1.8499
 8505TIP3   OH225478   5.712   6.545   5.517 -0.0271  0.2572  0.1237
 8505TIP3    H125479   5.637   6.572   5.465  1.1816  3.5415 -0.1777
 8505TIP3    H225480   5.768   6.498   5.456  0.0383  1.5356 -0.8498
 8506TIP3   OH225481   5.965   4.100   0.241  0.4104  0.0808  0.4091
 8506TIP3    H125482   5.913   4.046   0.300 -0.4266  0.7871  0.3228
 8506TIP3    H225483   6.052   4.102   0.281 -0.1641  0.6207  1.6754
 8507TIP3   OH225484   4.183   6.097   0.761  0.9022  0.0535 -0.3511
 8507TIP3    H125485   4.235   6.017   0.762  0.5008 -0.2111 -0.5352
 8507TIP3    H225486   4.208   6.140   0.679  1.6694  0.4896  0.0968
 8508TIP3   OH225487   6.691   0.637   5.869 -0.3888 -0.2867  0.0630
 8508TIP3    H125488   6.732   0.554   5.848 -1.0330 -0.4035 -0.8106
 8508TIP3    H225489   6.763   0.701   5.867 -0.1425 -0.5773 -0.8598
 8509TIP3   OH225490   2.043   0.505   1.829  0.4785  0.7639  0.2366
 8509TIP3    H125491   1.958   0.497   1.784 -0.3166  1.7545  1.5050
 8509TIP3    H225492   2.037   0.587   1.877  1.4272 -0.0801  1.8784
 8510TIP3   OH225493   0.863   0.303   5.620 -0.0764 -0.0009 -0.6158
 8510TIP3    H125494   0.918   0.270   5.691 -0.6668 -0.9251 -0.5629
 8510TIP3    H225495   0.873   0.237   5.550 -0.6240  0.1442 -0.8361
 8511TIP3   OH225496   4.911   0.204   5.817  0.0097 -0.5462  0.0037
 8511TIP3    H125497   4.967   0.159   5.753 -0.8407  1.2578 -2.1146
 8511TIP3    H225498   4.826   0.161   5.808  0.1132 -0.8942  0.6220
 8512TIP3   OH225499   2.480   4.305   4.024  0.4155 -0.3952  0.2332
 8512TIP3    H125500   2.451   4.220   3.993  0.4980 -0.4873  0.4062
 8512TIP3    H225501   2.407   4.364   4.005  0.2878 -0.5395  0.2705
 8513TIP3   OH225502   0.533   3.980   1.488  0.4983 -0.1930  0.6017
 8513TIP3    H125503   0.606   4.009   1.433 -0.4482  2.3403  0.5710
 8513TIP3    H225504   0.467   4.048   1.479 -1.5484 -1.9524  1.3615
 8514TIP3   OH225505   1.984   2.270   5.157 -0.1806  0.8255 -0.7422
 8514TIP3    H125506   2.040   2.196   5.181 -1.3143 -0.2832 -1.4160
 8514TIP3    H225507   2.002   2.284   5.064  0.3451  1.6905 -0.5170
 8515TIP3   OH225508   0.784   3.091   2.635  0.3817  0.4260 -0.2558
 8515TIP3    H125509   0.733   3.059   2.710 -0.4305  0.7896 -0.6409
 8515TIP3    H225510   0.864   3.039   2.637  0.2254  0.1904  0.6651
 8516TIP3   OH225511   5.586   4.944   3.989 -0.9253  0.0595 -0.3045
 8516TIP3    H125512   5.491   4.946   3.979 -0.8031 -1.1575 -2.2960
 8516TIP3    H225513   5.619   5.003   3.922 -0.2527 -0.0041 -0.0382
 8517TIP3   OH225514   2.777   5.902   2.684  0.1801 -0.0115 -0.6462
 8517TIP3    H125515   2.785   5.825   2.628  0.5647 -0.8501  0.5208
 8517TIP3    H225516   2.734   5.870   2.763  2.4110  0.4135  0.8326
 8518TIP3   OH225517   1.927   3.532   5.567 -0.2210 -1.2424 -0.0994
 8518TIP3    H125518   1.888   3.585   5.498  1.4731 -0.3473 -0.4009
 8518TIP3    H225519   1.854   3.513   5.626 -1.2141 -0.0582 -0.9018
 8519TIP3   OH225520   3.679   6.332   5.156  0.3552 -0.2721  0.1488
 8519TIP3    H125521   3.618   6.273   5.113 -0.5314  1.3929 -0.9753
 8519TIP3    H225522   3.695   6.292   5.242  1.3584 -3.1338 -1.2456
 8520TIP3   OH225523   5.233   4.137   0.282  0.0832  0.0287  0.0203
 8520TIP3    H125524   5.213   4.211   0.225  0.2532  0.2858  0.2882
 8520TIP3    H225525   5.158   4.130   0.340  0.8108  1.1238  1.1608
 8521TIP3   OH225526   3.334   0.725   0.736  0.2814 -0.3647  0.1214
 8521TIP3    H125527   3.402   0.683   0.683  1.5250 -0.1645  1.5010
 8521TIP3    H225528   3.343   0.686   0.823  0.0535  1.1772  0.8831
 8522TIP3   OH225529   1.676   3.265   4.985 -0.2644 -0.0637  0.2490
 8522TIP3    H125530   1.622   3.219   5.049 -1.0204 -1.3632 -1.2510
 8522TIP3    H225531   1.762   3.223   4.991  0.2458  1.1015  1.6916
 8523TIP3   OH225532   5.190   2.704   1.905 -0.0025  0.9329  0.3981
 8523TIP3    H125533   5.227   2.626   1.864 -0.0647  2.0208 -1.8267
 8523TIP3    H225534   5.266   2.760   1.922 -0.1091  0.9967  0.6713
 8524TIP3   OH225535   4.471   6.135   4.257  0.1356 -0.2460 -0.2705
 8524TIP3    H125536   4.392   6.186   4.275  0.8157  0.4395  0.8976
 8524TIP3    H225537   4.446   6.077   4.185 -1.3439  0.1463 -0.1095
 8525TIP3   OH225538   0.881   5.437   5.524 -0.7407 -0.1390  0.0701
 8525TIP3    H125539   0.824   5.478   5.588 -0.1209 -1.6590  1.6870
 8525TIP3    H225540   0.970   5.462   5.551 -0.4070 -1.7464  0.5557
 8526TIP3   OH225541   3.560   6.496   1.117 -0.2221  0.5934 -0.3942
 8526TIP3    H125542   3.530   6.517   1.029 -0.3466  0.0277 -0.4936
 8526TIP3    H225543   3.482   6.466   1.163  0.2732 -1.7495 -0.9207
 8527TIP3   OH225544   1.631   2.657   5.638 -0.2160 -0.0970  0.2071
 8527TIP3    H125545   1.699   2.714   5.674  0.0388  1.0270 -1.8805
 8527TIP3    H225546   1.549   2.693   5.674  0.1220 -0.1957  1.1166
 8528TIP3   OH225547   2.520   0.386   1.620 -0.5762  0.2957 -0.0987
 8528TIP3    H125548   2.431   0.398   1.652 -0.8149  0.9733 -0.9666
 8528TIP3    H225549   2.512   0.319   1.552 -0.1140 -0.9658  1.0455
 8529TIP3   OH225550   2.896   4.361   2.151 -0.6380 -0.7383 -0.4409
 8529TIP3    H125551   2.919   4.314   2.232 -0.3594  3.6262  2.3791
 8529TIP3    H225552   2.978   4.400   2.123 -1.6678  2.8386  0.9999
 8530TIP3   OH225553   4.559   4.442   2.725 -0.2721  0.9044  0.1484
 8530TIP3    H125554   4.653   4.427   2.734 -0.2651  1.0439  0.3175
 8530TIP3    H225555   4.548   4.535   2.747 -0.6721  0.4879  1.8400
 8531TIP3   OH225556   3.196   0.493   3.065  0.5547 -0.1866  0.1206
 8531TIP3    H125557   3.278   0.522   3.105  0.4957 -1.3031  1.0956
 8531TIP3    H225558   3.222   0.436   2.993  0.6684  2.0280 -1.7093
 8532TIP3   OH225559   4.022   0.041   1.806 -0.0734  0.4960  0.1744
 8532TIP3    H125560   4.078   0.063   1.881  0.0915 -0.7437  0.4274
 8532TIP3    H225561   4.064   0.085   1.732  1.4176 -0.6292  0.3022
 8533TIP3   OH225562   0.409   6.545   0.625  0.2695  0.0539  0.2644
 8533TIP3    H125563   0.491   6.502   0.652 -0.1780 -0.4370  0.8878
 8533TIP3    H225564   0.341   6.481   0.645 -0.4970  1.2606  1.8342
 8534TIP3   OH225565   2.521   0.663   4.391  0.0080 -0.0790 -0.1903
 8534TIP3    H125566   2.607   0.623   4.395 -0.6002 -1.5232 -0.6745
 8534TIP3    H225567   2.485   0.634   4.307 -1.1007  0.1738  0.1756
 8535TIP3   OH225568   2.257   6.120   2.705 -0.3393 -0.5616  0.2788
 8535TIP3    H125569   2.223   6.135   2.617 -0.0679 -1.3203  0.0308
 8535TIP3    H225570   2.346   6.155   2.703  0.4454 -2.4356 -0.4265
 8536TIP3   OH225571   6.155   3.198   1.105  0.0661  0.7381  0.6449
 8536TIP3    H125572   6.132   3.189   1.012  3.2712 -0.7166 -0.1521
 8536TIP3    H225573   6.120   3.119   1.146 -0.4026  0.8449  0.4575
 8537TIP3   OH225574   5.659   6.690   2.567 -0.3067 -0.0386  0.3964
 8537TIP3    H125575   5.698   6.697   2.480  0.8451 -0.1474  0.8865
 8537TIP3    H225576   5.731   6.707   2.627 -1.0869  0.0290  1.3350
 8538TIP3   OH225577   3.487   3.949   5.020 -0.0563 -0.7374 -0.1881
 8538TIP3    H125578   3.537   3.895   5.081  1.0563  0.8713  0.3880
 8538TIP3    H225579   3.553   4.001   4.975 -1.1729  1.9923  1.1211
 8539TIP3   OH225580   7.035   3.394   0.257 -0.8291 -0.2732 -0.5006
 8539TIP3    H125581   7.075   3.356   0.335 -0.9050  0.3600 -0.1522
 8539TIP3    H225582   7.037   3.323   0.192 -2.5343 -1.4826  0.6705
 8540TIP3   OH225583   4.253   3.999   4.347  0.1408  0.0880  0.2520
 8540TIP3    H125584   4.297   3.995   4.262  0.3934 -1.0987  0.4222
 8540TIP3    H225585   4.162   3.974   4.328  0.7721 -2.8704  0.6778
 8541TIP3   OH225586   1.571   1.930   0.030  0.0826  0.1619  0.1671
 8541TIP3    H125587   1.610   1.896  -0.051  0.1539  0.0058  0.2678
 8541TIP3    H225588   1.645   1.963   0.080  0.1262 -0.4335  0.5039
 8542TIP3   OH225589   4.297   4.938   3.190 -0.3208  0.3676  0.2250
 8542TIP3    H125590   4.279   4.851   3.153 -1.8260  0.7421  0.0405
 8542TIP3    H225591   4.393   4.940   3.199 -0.2458 -1.2580  0.1274
 8543TIP3   OH225592   4.555   5.626   4.094 -0.6505  0.2545  0.5488
 8543TIP3    H125593   4.593   5.660   4.175 -3.1654  0.4714  1.7347
 8543TIP3    H225594   4.617   5.560   4.065  0.5187  0.4301  2.4454
 8544TIP3   OH225595   5.451   5.899   2.939 -0.0631  0.1588 -0.1685
 8544TIP3    H125596   5.529   5.900   2.994  0.8830  0.7310 -1.4827
 8544TIP3    H225597   5.481   5.867   2.854 -1.2981  0.2007 -0.6520
 8545TIP3   OH225598   4.063   3.957   3.398  0.0423  0.3446  0.2224
 8545TIP3    H125599   4.056   4.050   3.377 -1.8542  0.5273  1.3649
 8545TIP3    H225600   4.148   3.948   3.443 -0.6201  1.9677  1.9340
 8546TIP3   OH225601   3.600   4.030   2.996 -0.2669  0.1128 -0.0590
 8546TIP3    H125602   3.695   4.018   3.004 -0.1748  0.1666 -0.9925
 8546TIP3    H225603   3.581   4.010   2.905 -1.5025 -2.1489  0.6112
 8547TIP3   OH225604   4.413   5.054   1.895 -0.2622 -0.4899  0.2131
 8547TIP3    H125605   4.501   5.027   1.921 -0.1415 -0.8924 -0.5865
 8547TIP3    H225606   4.384   5.113   1.965  0.3754 -0.8863  0.8146
 8548TIP3   OH225607   1.817   2.722   1.961  0.0065 -0.4103  0.3514
 8548TIP3    H125608   1.875   2.776   1.908  0.1171  0.0905  0.9656
 8548TIP3    H225609   1.773   2.784   2.020 -1.7113 -0.6804 -0.5816
 8549TIP3   OH225610   5.780   5.577   5.335 -0.0731 -0.3819  0.6351
 8549TIP3    H125611   5.708   5.626   5.296  0.2514 -0.2680  0.1741
 8549TIP3    H225612   5.840   5.644   5.369 -0.8414 -0.4703  2.2817
 8550TIP3   OH225613   4.010   2.497   2.654 -0.0760  0.6210  0.0202
 8550TIP3    H125614   4.097   2.494   2.614 -0.0718  1.2255 -0.0304
 8550TIP3    H225615   4.027   2.506   2.748 -0.0870 -0.6374  0.1607
 8551TIP3   OH225616   3.253   1.836   2.011 -0.3755 -0.1098  0.0309
 8551TIP3    H125617   3.198   1.895   1.960  0.1511 -1.1656 -1.8590
 8551TIP3    H225618   3.341   1.848   1.976  0.1014 -0.5396  1.0323
 8552TIP3   OH225619   6.235   2.245   5.852  0.2636  0.1961  0.1825
 8552TIP3    H125620   6.301   2.192   5.898 -1.2042  0.0909  2.3050
 8552TIP3    H225621   6.216   2.196   5.772  1.0355 -0.9707  0.6852
 8553TIP3   OH225622   2.500   1.305   3.408  0.1940  0.2862  0.2683
 8553TIP3    H125623   2.539   1.375   3.460 -1.3554  0.9068  0.6556
 8553TIP3    H225624   2.406   1.320   3.415 -0.2158 -2.1162  0.7884
 8554TIP3   OH225625   1.599   6.359   3.665  0.7991  0.1894 -0.2637
 8554TIP3    H125626   1.664   6.325   3.603 -0.8426 -0.0013 -1.9745
 8554TIP3    H225627   1.515   6.326   3.632 -0.1884  0.4057  1.8796
 8555TIP3   OH225628   6.493   1.997   2.460  0.3195 -0.3893 -0.0579
 8555TIP3    H125629   6.412   2.046   2.446  0.3070 -0.5529 -0.6110
 8555TIP3    H225630   6.562   2.057   2.431  0.2689 -0.8659 -1.2133
 8556TIP3   OH225631   6.981   0.955   1.068  0.4758  0.1846  0.2978
 8556TIP3    H125632   6.994   0.991   0.980 -0.3871 -2.7279 -1.1543
 8556TIP3    H225633   6.890   0.925   1.068  0.2395  0.6983  2.4844
 8557TIP3   OH225634   3.059   6.399   4.570 -0.2591 -0.0801  0.1018
 8557TIP3    H125635   3.056   6.308   4.599  0.0418  0.2121  1.0725
 8557TIP3    H225636   3.140   6.434   4.607  1.1248 -0.1685 -2.5729
 8558TIP3   OH225637   1.051   6.553   3.374 -0.5040  0.4322 -0.0930
 8558TIP3    H125638   1.100   6.604   3.438 -0.6076 -0.4982  0.7471
 8558TIP3    H225639   0.975   6.606   3.354  0.3200  1.4387 -0.6477
 8559TIP3   OH225640   6.283   6.655   4.866 -0.1554  0.2308  0.5384
 8559TIP3    H125641   6.374   6.639   4.843 -0.3587 -0.4554  0.1717
 8559TIP3    H225642   6.285   6.731   4.924  0.6407  0.2460  0.4955
 8560TIP3   OH225643   4.317   1.635   2.808  0.4769  0.2271  0.0869
 8560TIP3    H125644   4.303   1.556   2.756  0.6698 -0.2939  0.8082
 8560TIP3    H225645   4.297   1.708   2.748 -1.3129 -0.3827 -0.1267
 8561TIP3   OH225646   4.849   2.349   0.817  0.1954 -0.3336 -0.2749
 8561TIP3    H125647   4.802   2.268   0.795 -0.6223  0.3987 -1.3274
 8561TIP3    H225648   4.937   2.320   0.839 -0.4581 -1.6474  0.7578
 8562TIP3   OH225649   3.228   3.884   5.775  0.0384 -0.2156 -0.4253
 8562TIP3    H125650   3.291   3.945   5.813  0.1851 -0.4293 -0.3247
 8562TIP3    H225651   3.263   3.865   5.688 -1.4389  2.0241 -1.6093
 8563TIP3   OH225652   6.595   4.037   2.163  0.8477 -0.0709 -0.1026
 8563TIP3    H125653   6.630   4.061   2.077 -0.2751  0.7547 -0.3577
 8563TIP3    H225654   6.543   4.113   2.190 -0.7559 -1.2260  0.2321
 8564TIP3   OH225655   0.158   1.421   3.847  0.0497  0.4156  0.4715
 8564TIP3    H125656   0.162   1.485   3.776 -0.7460 -0.4564 -0.4000
 8564TIP3    H225657   0.118   1.468   3.920  1.9078  1.6506  0.7498
 8565TIP3   OH225658   0.082   6.579   2.025  0.1721  0.0895 -0.2227
 8565TIP3    H125659   0.080   6.485   2.040 -0.0803  0.3875  2.0374
 8565TIP3    H225660   0.151   6.611   2.083  0.6215  1.2457 -1.3550
 8566TIP3   OH225661   0.187   2.241   5.555 -0.3070  0.0163 -1.1109
 8566TIP3    H125662   0.100   2.269   5.584 -0.6322 -2.0597  0.1611
 8566TIP3    H225663   0.246   2.271   5.623 -0.5911 -1.7947  0.0002
 8567TIP3   OH225664   6.575   4.016   4.763 -0.3189  0.1990  0.0123
 8567TIP3    H125665   6.592   3.937   4.814 -0.3886 -2.4264 -3.5750
 8567TIP3    H225666   6.481   4.032   4.771 -0.5064 -0.8085 -0.0850
 8568TIP3   OH225667   5.394   6.693   4.945  0.3148 -0.0041  0.2719
 8568TIP3    H125668   5.422   6.774   4.986  0.6708 -0.6492  1.3356
 8568TIP3    H225669   5.299   6.701   4.938  0.4217  0.8197 -0.3512
 8569TIP3   OH225670   1.247   0.033   0.332 -0.2078  0.1624  0.1155
 8569TIP3    H125671   1.276  -0.014   0.253  0.7341 -1.3481  1.2913
 8569TIP3    H225672   1.213   0.116   0.299 -1.3743 -1.0593 -2.0417
 8570TIP3   OH225673   0.020   0.048   3.299  0.2384  0.9909  0.0974
 8570TIP3    H125674   0.068   0.056   3.217  1.2239  0.6614  0.6240
 8570TIP3    H225675  -0.072   0.060   3.275  0.5137  0.8702 -1.0508
 8571TIP3   OH225676   0.311   2.884   4.040 -0.0862  0.1124 -0.0748
 8571TIP3    H125677   0.338   2.943   3.970 -0.3103  2.6203  1.8212
 8571TIP3    H225678   0.393   2.863   4.086 -0.3367  1.3070  0.9537
 8572TIP3   OH225679   6.237   4.131   0.377  0.4059 -0.7211  0.0368
 8572TIP3    H125680   6.187   4.158   0.455 -0.5647 -0.8733 -0.5163
 8572TIP3    H225681   6.234   4.208   0.320  1.9429 -0.2684  0.5299
 8573TIP3   OH225682   1.712   5.380   3.323  0.4025 -0.3555 -0.2263
 8573TIP3    H125683   1.712   5.475   3.333 -0.8235 -0.1855 -1.6018
 8573TIP3    H225684   1.621   5.354   3.339  0.4528 -1.1406 -1.1238
 8574TIP3   OH225685   4.624   0.105   0.786  0.3396  0.5151 -0.2129
 8574TIP3    H125686   4.577   0.022   0.784 -2.0007  1.6423  1.9397
 8574TIP3    H225687   4.697   0.093   0.726  1.7950 -4.0484  2.0234
 8575TIP3   OH225688   1.354   2.092   2.809  0.0348 -0.8780 -0.2890
 8575TIP3    H125689   1.285   2.086   2.875  1.4050 -1.2427  1.1478
 8575TIP3    H225690   1.309   2.127   2.732 -1.5487 -0.1583  0.8967
 8576TIP3   OH225691   2.515   4.986   0.967  0.1524 -0.2591 -0.6052
 8576TIP3    H125692   2.428   4.971   1.002  0.0464 -0.3395 -0.9007
 8576TIP3    H225693   2.504   4.982   0.872  0.5357 -0.5963 -0.6393
 8577TIP3   OH225694   7.042   2.604   2.056  0.1933 -0.0354  0.2022
 8577TIP3    H125695   7.016   2.547   2.129  2.8578 -1.8302 -0.1092
 8577TIP3    H225696   7.007   2.561   1.978  1.1919 -0.6857  0.0809
 8578TIP3   OH225697   3.655   3.410   5.013  0.1946 -0.1244  0.1713
 8578TIP3    H125698   3.695   3.497   5.017 -0.6637  0.2878 -0.0447
 8578TIP3    H225699   3.653   3.389   4.920 -0.8871  0.2391  0.1064
 8579TIP3   OH225700   0.727   3.266   2.856 -0.5580  0.0326  0.4270
 8579TIP3    H125701   0.754   3.271   2.765 -0.3836 -1.7957  0.3454
 8579TIP3    H225702   0.631   3.272   2.853 -0.5142  0.6768  0.1968
 8580TIP3   OH225703   0.063   5.394   1.222 -0.4264 -0.0215 -0.1041
 8580TIP3    H125704   0.116   5.468   1.193 -1.5893  0.8565 -0.0611
 8580TIP3    H225705   0.047   5.343   1.143 -1.6315  1.1010 -0.6271
 8581TIP3   OH225706   5.563   6.037   5.843  0.2465  0.7298  0.1039
 8581TIP3    H125707   5.656   6.059   5.844 -0.0001  1.8502  0.2104
 8581TIP3    H225708   5.518   6.122   5.838 -0.7839  0.2476  0.7185
 8582TIP3   OH225709   4.794   2.065   4.638 -0.0247 -0.9456 -0.4519
 8582TIP3    H125710   4.787   2.083   4.544 -1.5924 -0.3850 -0.2572
 8582TIP3    H225711   4.722   2.004   4.656 -0.2270 -0.4434  0.5215
 8583TIP3   OH225712   4.417   4.116   3.765  0.1932 -0.0116  0.6416
 8583TIP3    H125713   4.391   4.034   3.725  1.1755  0.0291 -0.1362
 8583TIP3    H225714   4.351   4.179   3.737  0.7299 -0.0360 -0.7768
 8584TIP3   OH225715   1.738   4.647   0.781  0.0991  0.8918  0.0206
 8584TIP3    H125716   1.779   4.638   0.867  0.9984  0.1750 -0.4630
 8584TIP3    H225717   1.697   4.561   0.766 -0.7875  1.2906  0.0844
 8585TIP3   OH225718   2.942   0.707   0.101  0.0734 -0.0621  0.3676
 8585TIP3    H125719   2.870   0.645   0.105 -0.0421  0.0732  0.4193
 8585TIP3    H225720   2.933   0.749   0.016  0.8541 -0.9495 -0.1622
 8586TIP3   OH225721   1.257   1.270   2.898  0.1516 -0.4297  0.1774
 8586TIP3    H125722   1.268   1.364   2.911  1.5904 -0.7858  1.7812
 8586TIP3    H225723   1.342   1.232   2.918 -0.4588 -2.1114 -0.2349
 8587TIP3   OH225724   3.434   5.491   4.744  0.2464 -0.1941  0.1083
 8587TIP3    H125725   3.402   5.416   4.694  1.5626 -1.1172  0.5869
 8587TIP3    H225726   3.525   5.501   4.716  1.0426 -0.7648  2.3251
 8588TIP3   OH225727   3.475   3.753   2.741 -0.0389 -0.8981 -0.1372
 8588TIP3    H125728   3.394   3.740   2.692  0.4912  0.2854 -1.3803
 8588TIP3    H225729   3.544   3.733   2.678  0.6508  0.2657  0.2201
 8589TIP3   OH225730   0.341   2.118   3.654  0.2382  0.6188  0.3229
 8589TIP3    H125731   0.364   2.032   3.618  1.4592  1.3575 -0.7354
 8589TIP3    H225732   0.304   2.098   3.740 -1.5634 -1.1087 -0.7605
 8590TIP3   OH225733   5.615   5.116   0.769  0.3508  0.4554  1.5320
 8590TIP3    H125734   5.520   5.114   0.755  0.5328  0.3266  0.2079
 8590TIP3    H225735   5.650   5.054   0.705  1.3268  0.3653  2.1341
 8591TIP3   OH225736   3.810   1.317   3.325 -0.0064 -0.0263  0.2088
 8591TIP3    H125737   3.801   1.236   3.274  0.6707 -0.5368  0.8698
 8591TIP3    H225738   3.887   1.361   3.289  0.6838 -0.5598  0.9857
 8592TIP3   OH225739   6.693   6.718   0.526 -0.0274  0.2155  0.1020
 8592TIP3    H125740   6.629   6.784   0.499  0.2377  0.0426 -0.9775
 8592TIP3    H225741   6.696   6.726   0.622 -1.2974  0.5525  0.1340
 8593TIP3   OH225742   0.572   5.054   0.569  0.4474  0.0531  0.7069
 8593TIP3    H125743   0.528   4.976   0.602 -0.0245 -0.4949 -1.1149
 8593TIP3    H225744   0.625   5.023   0.496  0.7600  1.3364  0.3594
 8594TIP3   OH225745   0.320   6.477   3.997 -0.1687  0.0428 -0.5858
 8594TIP3    H125746   0.310   6.401   3.941  0.6434  0.2785 -1.0537
 8594TIP3    H225747   0.298   6.445   4.085  0.7819 -0.8880 -0.6725
 8595TIP3   OH225748   1.879   0.259   4.170  0.5551 -0.2916  0.0263
 8595TIP3    H125749   1.846   0.170   4.161  0.6109 -0.2423 -0.6806
 8595TIP3    H225750   1.888   0.272   4.265  0.8970 -1.1614  0.1180
 8596TIP3   OH225751   0.863   5.985   5.542 -0.1849 -0.2642  0.1252
 8596TIP3    H125752   0.933   6.042   5.510 -0.2583  0.1828  0.7256
 8596TIP3    H225753   0.820   6.037   5.610 -1.1167 -0.5176 -0.2491
 8597TIP3   OH225754   0.335   1.717   1.627 -0.5344 -0.0554 -0.6078
 8597TIP3    H125755   0.280   1.793   1.609  0.7802  0.8175 -1.1378
 8597TIP3    H225756   0.424   1.747   1.607  0.2554 -1.1103  1.1201
 8598TIP3   OH225757   5.377   6.458   2.831  0.2961  0.0582 -0.7457
 8598TIP3    H125758   5.451   6.402   2.854 -0.9063 -1.2355  0.1427
 8598TIP3    H225759   5.321   6.402   2.776 -0.7542  0.4830 -0.1377
 8599TIP3   OH225760   1.511   2.589   2.233  0.0513  0.0151  0.0173
 8599TIP3    H125761   1.546   2.639   2.306  1.2405  0.5862 -0.8996
 8599TIP3    H225762   1.567   2.512   2.228 -0.8751 -0.7121  0.5287
 8600TIP3   OH225763   0.871   0.538   1.474  0.2906  0.0458  0.2038
 8600TIP3    H125764   0.783   0.570   1.455  0.0316 -0.3543  0.7146
 8600TIP3    H225765   0.910   0.523   1.388 -0.2911 -0.1780 -0.0264
 8601TIP3   OH225766   4.750   4.586   5.077 -0.5828 -0.4012  0.5986
 8601TIP3    H125767   4.840   4.611   5.056  0.0692 -3.3997 -0.6197
 8601TIP3    H225768   4.758   4.525   5.150 -1.8226  0.4692  1.5128
 8602TIP3   OH225769   3.012   3.490   4.051  0.3470  0.1694 -0.1153
 8602TIP3    H125770   2.944   3.478   4.117  0.0825  1.4262 -0.1365
 8602TIP3    H225771   3.068   3.413   4.061 -0.8126 -0.6760  0.2017
 8603TIP3   OH225772   5.202   2.822   1.366  0.5719  0.0646  0.4014
 8603TIP3    H125773   5.175   2.741   1.409 -1.5169 -0.6046 -1.8925
 8603TIP3    H225774   5.159   2.892   1.416 -1.5404 -0.6551 -0.2840
 8604TIP3   OH225775   1.972   2.387   3.502 -0.6685 -0.2352  0.3296
 8604TIP3    H125776   2.056   2.432   3.495 -1.6950  1.6500 -0.8295
 8604TIP3    H225777   1.953   2.386   3.596 -0.1165  0.8505  0.4679
 8605TIP3   OH225778   6.812   6.678   4.987  0.3932 -0.0968 -0.1835
 8605TIP3    H125779   6.722   6.656   5.008  0.4009  0.0594  0.0154
 8605TIP3    H225780   6.814   6.683   4.891  0.5506 -1.6067 -0.2757
 8606TIP3   OH225781   3.042   5.314   0.718 -0.0629 -0.0384 -0.4530
 8606TIP3    H125782   3.015   5.352   0.634  1.0660  1.9043  0.0109
 8606TIP3    H225783   3.125   5.270   0.698  0.4216  0.7840 -0.2956
 8607TIP3   OH225784   3.436   3.649  -0.022  0.0166  0.3991 -0.4228
 8607TIP3    H125785   3.368   3.603   0.028  1.0129 -0.7736 -0.1296
 8607TIP3    H225786   3.477   3.706   0.043 -0.8839  1.3863 -0.6781
 8608TIP3   OH225787   0.927   1.651   0.485 -0.2632 -0.3862  0.2623
 8608TIP3    H125788   0.899   1.570   0.527  0.3996 -0.1158  1.2687
 8608TIP3    H225789   0.933   1.629   0.392 -1.0736 -1.1996  0.3802
 8609TIP3   OH225790   3.703   6.317   2.921  0.2227 -0.7737  0.3890
 8609TIP3    H125791   3.779   6.283   2.874 -0.4440 -2.3087  0.3874
 8609TIP3    H225792   3.690   6.255   2.993 -0.2694  0.1878  1.1531
 8610TIP3   OH225793   5.527   2.033   2.145  0.0871  0.2488  0.3160
 8610TIP3    H125794   5.490   2.119   2.164 -0.0680 -0.0380  1.4197
 8610TIP3    H225795   5.567   2.006   2.227 -0.0951 -0.8393  0.0627
 8611TIP3   OH225796   5.912   4.416   2.396  0.0020 -0.2173 -0.0929
 8611TIP3    H125797   5.868   4.350   2.450  1.5030 -0.5624  0.7490
 8611TIP3    H225798   5.968   4.464   2.456 -1.8094  2.6130 -0.4738
 8612TIP3   OH225799   3.925   6.268   2.799  0.0700 -0.6479  0.3658
 8612TIP3    H125800   3.906   6.304   2.712 -1.4444  1.6607  1.5524
 8612TIP3    H225801   4.014   6.298   2.818 -0.3079  0.5366  0.3605
 8613TIP3   OH225802   3.183   6.429   2.770 -0.0271  0.3861 -0.0505
 8613TIP3    H125803   3.124   6.494   2.807 -1.1564 -1.2525  1.1991
 8613TIP3    H225804   3.268   6.472   2.767 -0.4774  1.5317  1.8731
 8614TIP3   OH225805   3.590   0.229   4.591 -0.4771  0.3741 -0.7213
 8614TIP3    H125806   3.552   0.290   4.655  2.2980  0.6705  0.7948
 8614TIP3    H225807   3.569   0.142   4.626 -0.6120  0.5165 -0.4454
 8615TIP3   OH225808   6.597   3.042   5.624  0.6756  0.2134  0.1523
 8615TIP3    H125809   6.567   3.107   5.561  1.2209  1.2056  0.8961
 8615TIP3    H225810   6.639   2.975   5.571  0.1272  0.4715 -0.6227
 8616TIP3   OH225811   0.149   2.961   2.236  0.4004  0.8352 -0.2604
 8616TIP3    H125812   0.110   2.905   2.168 -1.6669 -0.2636  1.6874
 8616TIP3    H225813   0.237   2.925   2.249 -0.2314 -0.8420 -0.3405
 8617TIP3   OH225814   4.069   0.293   2.878  0.5457 -0.6161 -0.0740
 8617TIP3    H125815   4.140   0.347   2.843 -0.1060  0.7730  0.6837
 8617TIP3    H225816   4.007   0.355   2.915 -0.2766 -1.8863  0.7664
 8618TIP3   OH225817   6.343   6.022   4.233 -0.1723  0.1892 -0.2626
 8618TIP3    H125818   6.350   5.955   4.301 -0.5549 -1.2070 -1.5504
 8618TIP3    H225819   6.255   6.058   4.244 -0.1479  0.1382  0.1296
 8619TIP3   OH225820   5.193   3.327   3.926 -0.4314 -0.1592  0.4009
 8619TIP3    H125821   5.209   3.421   3.930  0.3798 -0.3293  2.3752
 8619TIP3    H225822   5.187   3.300   4.018 -1.4331 -1.9151 -0.1311
 8620TIP3   OH225823   3.787   4.699   3.128 -0.4881 -0.7792  0.3342
 8620TIP3    H125824   3.840   4.631   3.086  0.8925  0.8864 -0.8120
 8620TIP3    H225825   3.850   4.766   3.153 -1.8291  0.2949  0.9834
 8621TIP3   OH225826   6.698   1.384   1.072 -0.0475 -0.3204  0.4894
 8621TIP3    H125827   6.685   1.425   1.157 -0.7979 -0.2387  0.3412
 8621TIP3    H225828   6.768   1.435   1.031  0.1942 -0.2509  0.9868
 8622TIP3   OH225829   6.256   4.556   0.437 -0.5405 -0.0972 -0.1711
 8622TIP3    H125830   6.292   4.508   0.512 -0.3252  1.4048  0.7316
 8622TIP3    H225831   6.332   4.575   0.382 -0.4234  0.3025  0.1220
 8623TIP3   OH225832   1.762   3.246   3.439  0.3254 -0.0056 -0.3077
 8623TIP3    H125833   1.765   3.268   3.532  0.1286  1.6723 -0.6717
 8623TIP3    H225834   1.852   3.257   3.408  0.4714 -0.9415 -0.2623
 8624TIP3   OH225835   2.628   1.447   0.170  0.0021  0.1807 -0.0948
 8624TIP3    H125836   2.724   1.449   0.165  0.0349 -1.7361 -0.9059
 8624TIP3    H225837   2.599   1.503   0.098  0.4208  3.5633  2.1515
 8625TIP3   OH225838   5.802   3.993   3.511  0.7620  0.5567 -1.0006
 8625TIP3    H125839   5.719   4.032   3.485 -0.1347 -0.5329  0.1537
 8625TIP3    H225840   5.817   4.022   3.601  0.2773 -1.3300 -0.2551
 8626TIP3   OH225841   2.094   3.290   2.798 -0.2116  0.9184 -0.0723
 8626TIP3    H125842   2.101   3.382   2.770 -2.5501  0.9251 -0.8541
 8626TIP3    H225843   2.078   3.296   2.893 -0.6286  1.3456 -0.1625
 8627TIP3   OH225844   1.360   3.109   1.255 -0.4452  0.2670 -0.2678
 8627TIP3    H125845   1.449   3.132   1.280  0.1221 -1.5243 -0.5028
 8627TIP3    H225846   1.309   3.187   1.275  1.0066  1.0085  0.7555
 8628TIP3   OH225847   3.039   3.875   4.686 -0.2828  0.0417  0.2221
 8628TIP3    H125848   3.061   3.902   4.775 -0.1429  1.9405 -0.3489
 8628TIP3    H225849   3.124   3.865   4.642 -0.3178 -1.6127  0.4600
 8629TIP3   OH225850   4.339   5.654   1.709  0.7027  0.5725 -0.1974
 8629TIP3    H125851   4.268   5.607   1.663  1.7560 -0.5851 -0.7099
 8629TIP3    H225852   4.330   5.626   1.800  0.4128  0.5397 -0.2321
 8630TIP3   OH225853   6.504   1.521   0.707 -0.3252  0.3116  0.0514
 8630TIP3    H125854   6.524   1.440   0.753 -1.2035  0.0568  0.0190
 8630TIP3    H225855   6.429   1.557   0.755 -0.9432  0.2884 -0.8676
 8631TIP3   OH225856   5.304   5.685   3.592  0.0622  0.1843 -0.1343
 8631TIP3    H125857   5.255   5.741   3.531 -0.5610 -1.7887 -1.5548
 8631TIP3    H225858   5.275   5.596   3.571  2.8303 -0.9233  0.3123
 8632TIP3   OH225859   4.841   4.939   4.884 -0.2192  0.0620  0.1492
 8632TIP3    H125860   4.841   5.024   4.840 -1.2350  0.4010  0.7640
 8632TIP3    H225861   4.752   4.906   4.872  0.4827 -1.4750 -1.0995
 8633TIP3   OH225862   1.700   0.123   0.873 -0.0884  0.4474  0.1652
 8633TIP3    H125863   1.752   0.045   0.892  2.4169  2.2223  1.1544
 8633TIP3    H225864   1.625   0.091   0.823  1.1241 -2.4850  0.0559
 8634TIP3   OH225865   2.280   6.750   0.279 -0.6242 -0.1009 -0.4297
 8634TIP3    H125866   2.374   6.744   0.261 -0.5767  1.8258 -0.9721
 8634TIP3    H225867   2.238   6.742   0.194 -0.8826  0.2154 -0.3349
 8635TIP3   OH225868   5.238   0.980   3.404 -0.9179 -0.6080 -0.5056
 8635TIP3    H125869   5.279   0.939   3.328 -1.3649 -1.0580 -0.5092
 8635TIP3    H225870   5.310   0.995   3.465 -0.7101 -1.2351 -0.5834
 8636TIP3   OH225871   3.839   1.861   2.223 -0.0027 -0.1561  0.7064
 8636TIP3    H125872   3.757   1.812   2.229 -0.0552  0.0209  1.6604
 8636TIP3    H225873   3.862   1.859   2.131 -0.4589 -1.2464  0.6012
 8637TIP3   OH225874   7.163   4.816   0.392  0.1694 -0.1425 -0.1354
 8637TIP3    H125875   7.183   4.767   0.472  0.8629 -4.2855 -2.5540
 8637TIP3    H225876   7.069   4.833   0.397  0.0399 -1.1060  1.2031
 8638TIP3   OH225877   1.572   1.373   3.466  0.6615 -0.0107  0.2069
 8638TIP3    H125878   1.609   1.333   3.387 -1.7960 -0.4198 -0.8255
 8638TIP3    H225879   1.519   1.446   3.433  1.2137  1.1026  1.6770
 8639TIP3   OH225880   3.444   5.458   3.586  0.1133 -0.0238  0.1525
 8639TIP3    H125881   3.495   5.445   3.666  0.3816 -1.7550 -0.2545
 8639TIP3    H225882   3.358   5.421   3.607  0.2846 -0.7780 -0.4508
 8640TIP3   OH225883   1.625   2.519   0.431  0.1237  0.1400 -0.4020
 8640TIP3    H125884   1.648   2.491   0.343 -0.7894 -0.4244 -0.4818
 8640TIP3    H225885   1.692   2.582   0.455  0.2945  0.4174 -1.5621
 8641TIP3   OH225886   0.171   6.064   4.626 -0.1639 -0.0515 -0.4525
 8641TIP3    H125887   0.218   6.114   4.692 -0.9060  0.4483 -0.2999
 8641TIP3    H225888   0.241   6.023   4.573  0.5099  2.2085 -1.4323
 8642TIP3   OH225889   1.401   5.771   2.723  0.1410  0.6206  0.2051
 8642TIP3    H125890   1.397   5.697   2.784 -1.2975  1.0423  0.6834
 8642TIP3    H225891   1.400   5.731   2.636 -0.9279  0.0676  0.4550
 8643TIP3   OH225892   4.655   2.093   3.900 -0.0092  0.1292  0.0549
 8643TIP3    H125893   4.562   2.092   3.878  0.0507 -0.1428 -0.1989
 8643TIP3    H225894   4.662   2.039   3.979  0.0016 -0.2792 -0.2220
 8644TIP3   OH225895   4.544   2.603   5.296 -0.0766 -0.6044  0.0202
 8644TIP3    H125896   4.463   2.553   5.309 -0.7837  0.1093 -1.3869
 8644TIP3    H225897   4.570   2.629   5.384 -3.0074  1.5695  0.4215
 8645TIP3   OH225898   0.686   6.519   0.756 -0.0989 -0.1988  0.5487
 8645TIP3    H125899   0.682   6.615   0.748 -0.0535 -0.0002  2.5657
 8645TIP3    H225900   0.716   6.490   0.670 -1.4687  1.4860 -0.5888
 8646TIP3   OH225901   4.849   3.962   1.855 -0.5606 -0.4921  0.2586
 8646TIP3    H125902   4.848   3.945   1.761  0.3635  0.1317  0.1186
 8646TIP3    H225903   4.918   3.904   1.889 -1.0944 -0.9344  0.6070
 8647TIP3   OH225904   1.083   3.080   2.041  0.3311  0.7181 -0.6568
 8647TIP3    H125905   1.016   3.072   1.973  0.3677 -0.1042 -0.5991
 8647TIP3    H225906   1.165   3.091   1.992  0.2214  1.2763 -0.7287
 8648TIP3   OH225907   3.352   2.838   3.902  0.0773  0.2936 -0.1191
 8648TIP3    H125908   3.331   2.809   3.990  0.3549 -0.2966 -0.2386
 8648TIP3    H225909   3.379   2.929   3.912  0.3442  0.1573  0.4438
 8649TIP3   OH225910   0.185   6.671   1.072 -0.2000 -0.2069  0.4062
 8649TIP3    H125911   0.174   6.750   1.019 -1.1653  0.0391  0.9374
 8649TIP3    H225912   0.174   6.599   1.011  1.8888  0.0155 -0.3317
 8650TIP3   OH225913   5.850   5.551   4.156  0.1863  0.3577  0.0633
 8650TIP3    H125914   5.772   5.556   4.100  0.4820  0.5420 -0.3310
 8650TIP3    H225915   5.880   5.461   4.147 -1.1132 -0.3172  1.7581
 8651TIP3   OH225916   4.370   5.303   4.697  0.3559 -0.1511  0.0155
 8651TIP3    H125917   4.331   5.369   4.754  1.0210  0.7630 -0.5644
 8651TIP3    H225918   4.452   5.343   4.666  1.1635 -1.5428  0.2554
 8652TIP3   OH225919   0.874   4.848   5.118 -0.4104 -0.0371  0.1755
 8652TIP3    H125920   0.954   4.857   5.168 -1.5434 -0.4380  2.1499
 8652TIP3    H225921   0.868   4.754   5.100 -1.4457 -0.3432  1.8834
 8653TIP3   OH225922   3.120   2.664   2.035 -0.1257  0.6136 -0.3832
 8653TIP3    H125923   3.103   2.571   2.021 -0.5584  0.6358 -0.0198
 8653TIP3    H225924   3.164   2.693   1.955  0.7429 -0.0872 -0.1691
 8654TIP3   OH225925   6.867   4.507   4.875  0.1336 -0.5043  0.2063
 8654TIP3    H125926   6.803   4.560   4.921  1.6948  1.6934  0.0063
 8654TIP3    H225927   6.877   4.429   4.929 -2.9962 -1.1887 -0.0366
 8655TIP3   OH225928   0.689   3.642   2.403  0.3061 -0.5053  0.3061
 8655TIP3    H125929   0.643   3.558   2.392  1.1058 -0.9966  0.6825
 8655TIP3    H225930   0.732   3.656   2.318  1.9708 -1.5822  0.9268
 8656TIP3   OH225931   4.703   2.067   0.171  0.2460  0.0817 -0.6684
 8656TIP3    H125932   4.678   1.975   0.170 -0.1953  0.1972 -0.5262
 8656TIP3    H225933   4.795   2.067   0.198  0.1534 -0.2953 -0.3490
 8657TIP3   OH225934   0.987   0.076   0.094 -0.6267 -0.2214 -0.7041
 8657TIP3    H125935   0.931  -0.002   0.094  0.7423 -1.3159  1.9586
 8657TIP3    H225936   0.937   0.141   0.143 -0.0851 -0.8321  0.6970
 8658TIP3   OH225937   0.849   1.759   3.270  0.4537 -0.1693  0.6119
 8658TIP3    H125938   0.767   1.790   3.230  0.5181  1.3310  1.5467
 8658TIP3    H225939   0.821   1.697   3.338  0.0747  0.2975  0.8914
 8659TIP3   OH225940   5.110   2.487   1.298 -0.0899  0.0801  0.4690
 8659TIP3    H125941   5.015   2.493   1.299 -0.0053  2.6201  2.1111
 8659TIP3    H225942   5.135   2.524   1.213 -0.5674 -0.8625 -0.0867
 8660TIP3   OH225943   2.754   3.460   2.897  0.4418 -1.1061 -0.3118
 8660TIP3    H125944   2.770   3.486   2.806 -0.4166  0.8559  0.0550
 8660TIP3    H225945   2.705   3.378   2.890 -0.1743 -0.6534 -1.6307
 8661TIP3   OH225946   6.558   6.039   0.420  0.7277  0.7126 -0.3927
 8661TIP3    H125947   6.580   6.019   0.511 -0.6281  0.4161 -0.0979
 8661TIP3    H225948   6.637   6.019   0.370  1.0586 -0.4319  0.5576
 8662TIP3   OH225949   4.712   1.331   0.156 -0.0072  0.3415 -0.3017
 8662TIP3    H125950   4.700   1.244   0.194 -0.6731  0.8641  0.7527
 8662TIP3    H225951   4.715   1.389   0.232  4.6056  0.9028 -0.6122
 8663TIP3   OH225952   6.472   4.871   4.714  0.8272  0.0048  0.7778
 8663TIP3    H125953   6.545   4.917   4.671 -0.6343  0.3174 -1.5454
 8663TIP3    H225954   6.484   4.779   4.690 -0.0988  0.2063 -0.5403
 8664TIP3   OH225955   0.325   3.599   0.628 -0.1294 -0.2100 -0.0427
 8664TIP3    H125956   0.321   3.516   0.579 -2.7423 -0.1934  0.0424
 8664TIP3    H225957   0.296   3.665   0.565 -2.0380  0.0269  1.0326
 8665TIP3   OH225958   6.945   3.846   4.716  0.3810  0.0053 -0.2677
 8665TIP3    H125959   6.934   3.797   4.797 -0.9959  0.0626 -0.4115
 8665TIP3    H225960   6.982   3.783   4.654 -0.3570 -0.5522 -0.1421
 8666TIP3   OH225961   5.383   4.652   1.897 -0.1285 -0.0485 -0.3411
 8666TIP3    H125962   5.414   4.712   1.829  0.4898  0.7553  0.6225
 8666TIP3    H225963   5.464   4.618   1.937 -0.4716  0.6655  1.0024
 8667TIP3   OH225964   3.435   2.642   4.876 -0.1524 -0.0588 -0.5935
 8667TIP3    H125965   3.442   2.646   4.972 -0.3511  1.5008 -0.6162
 8667TIP3    H225966   3.341   2.638   4.859 -0.0841 -2.2344 -0.7137
 8668TIP3   OH225967   4.952   3.187   3.942  0.9225 -0.0388  0.1012
 8668TIP3    H125968   4.988   3.110   3.987  0.6113  0.4404  1.2022
 8668TIP3    H225969   5.023   3.251   3.942  0.7143  0.1954  0.4995
 8669TIP3   OH225970   0.144   4.569   2.936 -0.3145 -0.3624 -0.2917
 8669TIP3    H125971   0.147   4.519   2.855  0.3612 -1.9086  0.6481
 8669TIP3    H225972   0.234   4.601   2.948 -0.1009 -1.1946  0.4537
 8670TIP3   OH225973   2.636   4.546   5.020 -0.1467  0.1848 -0.1789
 8670TIP3    H125974   2.705   4.561   5.085  0.7555  0.5310 -1.1833
 8670TIP3    H225975   2.560   4.522   5.072  1.0113 -1.3304  0.9357
 8671TIP3   OH225976   6.473   3.506   0.830  0.5756  0.6093 -0.5474
 8671TIP3    H125977   6.482   3.432   0.771  0.9448 -0.2993  0.5924
 8671TIP3    H225978   6.397   3.484   0.884  1.3023  0.5361  0.4804
 8672TIP3   OH225979   2.290   0.696   1.646  0.1004  0.0998  0.0444
 8672TIP3    H125980   2.345   0.705   1.568 -3.0071  0.8198 -2.2369
 8672TIP3    H225981   2.271   0.602   1.650 -1.0752  0.2607 -1.1339
 8673TIP3   OH225982   2.425   5.715   5.113 -0.0363 -0.3929  0.0036
 8673TIP3    H125983   2.364   5.780   5.147  1.0432 -0.6143  2.6439
 8673TIP3    H225984   2.402   5.705   5.021 -4.3709 -0.9241  0.9536
 8674TIP3   OH225985   4.296   4.736  -0.030 -0.0699  0.4427 -0.2833
 8674TIP3    H125986   4.246   4.775   0.042 -0.5384  2.6923 -1.7356
 8674TIP3    H225987   4.387   4.745  -0.002 -0.2655 -1.4905  1.2941
 8675TIP3   OH225988   1.467   4.974   4.475 -0.9596 -0.0674 -0.2012
 8675TIP3    H125989   1.377   4.973   4.509 -1.5060  1.1772 -1.5109
 8675TIP3    H225990   1.468   4.905   4.408 -0.1595 -1.8405  1.5176
 8676TIP3   OH225991   4.176   3.713   2.284  0.4171  0.4206  0.1329
 8676TIP3    H125992   4.213   3.675   2.363 -1.0506  0.6970  0.9919
 8676TIP3    H225993   4.184   3.808   2.297  0.3256  0.4646 -0.1243
 8677TIP3   OH225994   0.846   1.490   4.711 -0.3461 -0.0824 -0.4439
 8677TIP3    H125995   0.871   1.486   4.619  0.0600 -0.7763 -0.3168
 8677TIP3    H225996   0.871   1.404   4.746 -0.2261  0.2742  0.3754
 8678TIP3   OH225997   2.839   0.365   5.153 -0.4104 -0.2549  0.5147
 8678TIP3    H125998   2.903   0.300   5.179  0.0217  0.3795  1.0790
 8678TIP3    H225999   2.846   0.434   5.220 -1.5613 -0.1011  0.4953
 8679TIP3   OH226000   5.153   2.954   0.896 -0.1689  0.3040  0.0786
 8679TIP3    H126001   5.116   2.865   0.893 -2.6604  1.2506 -0.1294
 8679TIP3    H226002   5.236   2.944   0.942 -0.7938 -2.0063  0.8567
 8680TIP3   OH226003   2.301   5.594   4.104 -0.0739 -0.2782  0.1151
 8680TIP3    H126004   2.383   5.644   4.105 -2.0201  3.4497 -2.2947
 8680TIP3    H226005   2.248   5.633   4.174  0.1890 -2.8756  1.8794
 8681TIP3   OH226006   2.810   2.115   5.279  0.1901 -0.7813  0.5379
 8681TIP3    H126007   2.802   2.173   5.355  0.2547  0.0680 -0.0950
 8681TIP3    H226008   2.722   2.083   5.264 -0.0849  0.1141  0.1566
 8682TIP3   OH226009   5.862   0.513   2.949 -0.1127  0.4119 -0.2340
 8682TIP3    H126010   5.872   0.421   2.974  0.4458  0.2341 -1.1094
 8682TIP3    H226011   5.948   0.539   2.917 -0.5828  0.9019 -1.1121
 8683TIP3   OH226012   1.597   3.787   2.567  0.2307 -0.0435 -0.3764
 8683TIP3    H126013   1.573   3.879   2.556 -0.2641 -0.0647  0.3634
 8683TIP3    H226014   1.656   3.786   2.643 -0.3275 -0.3995  0.0693
 8684TIP3   OH226015   5.551   3.761   1.250 -0.2698  0.2079  0.2642
 8684TIP3    H126016   5.573   3.691   1.188  1.1994  0.5210  0.3972
 8684TIP3    H226017   5.507   3.716   1.323  1.1618 -0.6734  0.6088
 8685TIP3   OH226018   6.483   1.260   5.369  0.6873 -0.4134 -0.1549
 8685TIP3    H126019   6.517   1.175   5.397 -0.2874  0.0072  2.5076
 8685TIP3    H226020   6.423   1.239   5.297  0.2134 -2.0286  0.6759
 8686TIP3   OH226021   4.739   3.645   0.789 -0.5635 -0.0448 -0.1411
 8686TIP3    H126022   4.743   3.733   0.752 -1.3599 -0.7111 -1.9283
 8686TIP3    H226023   4.718   3.589   0.715  1.2567 -1.9530  0.6760
 8687TIP3   OH226024   6.814   6.511   0.107  0.2546 -0.5523 -0.0212
 8687TIP3    H126025   6.736   6.473   0.066  0.0440  1.1658 -1.3216
 8687TIP3    H226026   6.888   6.471   0.062  0.0556 -0.2192 -0.6559
 8688TIP3   OH226027   0.045   1.461   1.395  0.5724  0.1329 -0.1223
 8688TIP3    H126028  -0.015   1.512   1.449  0.4942 -1.1110  1.0082
 8688TIP3    H226029   0.110   1.427   1.457  1.2427 -0.2590 -1.0195
 8689TIP3   OH226030   1.376   1.381   2.585 -0.0487  0.2605  0.2494
 8689TIP3    H126031   1.463   1.416   2.601 -0.5970  2.0548 -0.4240
 8689TIP3    H226032   1.318   1.435   2.640 -0.7256 -1.1662  1.0037
 8690TIP3   OH226033   0.136   4.689   3.308  0.4928 -0.3218 -0.4725
 8690TIP3    H126034   0.079   4.719   3.237 -0.0513 -1.1984 -0.4293
 8690TIP3    H226035   0.159   4.599   3.283  0.9169 -0.3732  0.0872
 8691TIP3   OH226036   0.707   1.298   4.219  0.7462 -0.3203  0.2322
 8691TIP3    H126037   0.634   1.347   4.182  0.5717 -1.1418 -0.5535
 8691TIP3    H226038   0.744   1.250   4.145  1.6146 -0.4936  0.7612
 8692TIP3   OH226039   1.346   4.891   1.106 -0.5694 -0.1678 -0.3812
 8692TIP3    H126040   1.259   4.906   1.143 -0.4397 -0.3212 -0.0039
 8692TIP3    H226041   1.390   4.836   1.171 -0.6018 -1.1063 -1.1476
 8693TIP3   OH226042   2.596   3.598   0.738  0.4424  0.3481 -0.0827
 8693TIP3    H126043   2.540   3.628   0.667 -1.2512 -0.0985  1.0102
 8693TIP3    H226044   2.682   3.585   0.698  0.5892  3.8886 -1.2075
 8694TIP3   OH226045   2.739   4.728   4.711  0.0236  0.2298  0.3492
 8694TIP3    H126046   2.680   4.658   4.739  0.7066 -0.0260  1.1950
 8694TIP3    H226047   2.791   4.748   4.789 -0.3521  1.8921  0.2247
 8695TIP3   OH226048   1.901   5.056   3.882  0.2807 -1.0811  0.9786
 8695TIP3    H126049   1.889   5.076   3.974 -0.6885  1.7805  0.3327
 8695TIP3    H226050   1.962   5.122   3.850  0.7952 -2.1602 -0.3990
 8696TIP3   OH226051   0.695   1.999   4.735  0.2138  0.7150 -0.4767
 8696TIP3    H126052   0.673   2.028   4.646  0.8562  1.6444 -0.3462
 8696TIP3    H226053   0.611   1.979   4.776 -0.0991  0.3936 -1.2468
 8697TIP3   OH226054   6.202   6.187   3.317 -0.2769  0.0915 -0.4364
 8697TIP3    H126055   6.119   6.154   3.282  0.7449 -0.7369 -2.2043
 8697TIP3    H226056   6.257   6.110   3.327  0.2549  0.6028  0.9352
 8698TIP3   OH226057   5.936   3.957   2.966  0.1562 -0.0845 -0.1017
 8698TIP3    H126058   6.022   3.976   2.928 -0.1937 -0.6348 -1.2090
 8698TIP3    H226059   5.875   4.009   2.914 -0.2221  0.0564  0.4747
 8699TIP3   OH226060   1.527   5.856   3.201 -0.3640  0.5602 -0.2186
 8699TIP3    H126061   1.547   5.790   3.135  1.8434  0.7788  0.1662
 8699TIP3    H226062   1.472   5.919   3.155 -0.6081 -0.3624 -1.2367
 8700TIP3   OH226063   5.983   5.316   0.859  0.0793 -0.1723  0.0552
 8700TIP3    H126064   5.895   5.326   0.895  0.3695  0.4272  0.6262
 8700TIP3    H226065   6.040   5.312   0.936  0.8480  2.3371 -0.3037
 8701TIP3   OH226066   5.100   4.350   4.607  0.0123 -0.2767 -0.5581
 8701TIP3    H126067   5.107   4.266   4.562  1.5769 -0.0888 -0.7339
 8701TIP3    H226068   5.115   4.329   4.699 -1.2594 -0.3979 -0.3637
 8702TIP3   OH226069   2.468   2.784   0.953 -0.4983  0.3082 -0.4836
 8702TIP3    H126070   2.470   2.879   0.966 -1.3274  0.1731  0.7487
 8702TIP3    H226071   2.394   2.769   0.895 -0.6803  0.3691 -0.2653
 8703TIP3   OH226072   0.450   1.584   4.706  0.4842 -0.1421 -0.0079
 8703TIP3    H126073   0.527   1.542   4.668  0.9008  0.6386 -0.0379
 8703TIP3    H226074   0.399   1.511   4.742  1.1064 -0.6914 -0.2113
 8704TIP3   OH226075   4.597   2.986   0.616 -0.4763 -0.0249 -0.2919
 8704TIP3    H126076   4.627   3.027   0.535  0.0191 -0.2724 -0.2397
 8704TIP3    H226077   4.555   2.904   0.588 -0.7333  0.1220 -0.3347
 8705TIP3   OH226078   4.129   6.525   3.521  0.0347 -0.1449  0.3383
 8705TIP3    H126079   4.134   6.489   3.610  1.8835 -1.8599 -0.3745
 8705TIP3    H226080   4.206   6.581   3.514  0.7788 -1.2446 -0.6326
 8706TIP3   OH226081   6.235   1.509   0.817  0.2366  0.2335  0.0674
 8706TIP3    H126082   6.175   1.574   0.781  0.7130 -0.8018 -2.8537
 8706TIP3    H226083   6.260   1.545   0.902 -4.0879  0.9364  1.3010
 8707TIP3   OH226084   2.136   5.641   5.368  0.5937  0.1793 -0.6551
 8707TIP3    H126085   2.185   5.722   5.351  1.7078 -0.0560  1.1385
 8707TIP3    H226086   2.116   5.646   5.462 -0.6453 -0.9409 -0.8386
 8708TIP3   OH226087   3.253   1.418   3.707  0.0663  0.0690 -0.2418
 8708TIP3    H126088   3.245   1.360   3.782 -1.5383  0.8595  0.2343
 8708TIP3    H226089   3.347   1.437   3.702  0.0727  1.1646  2.4829
 8709TIP3   OH226090   7.213  -0.023   3.582 -0.1744 -0.2574 -0.0550
 8709TIP3    H126091   7.185   0.051   3.635  1.9672 -0.0794  0.9276
 8709TIP3    H226092   7.236   0.015   3.497 -0.1324  0.0240  0.0847
 8710TIP3   OH226093   6.230   6.445   1.942  0.4012  0.2483  0.1994
 8710TIP3    H126094   6.290   6.436   1.868 -1.5057  0.0264 -1.4010
 8710TIP3    H226095   6.286   6.468   2.016  2.3416  0.9135 -1.3920
 8711TIP3   OH226096   3.205   4.060   4.369 -0.6773 -0.3618  0.4708
 8711TIP3    H126097   3.121   4.071   4.325 -0.7521 -0.5237  0.5719
 8711TIP3    H226098   3.252   3.997   4.316  0.1583  1.1642 -0.6906
 8712TIP3   OH226099   4.076   6.619   2.859  0.2059 -0.5962  0.5569
 8712TIP3    H126100   4.092   6.526   2.844 -1.4182 -0.9623  0.9263
 8712TIP3    H226101   3.989   6.622   2.897  0.7885  0.9815  1.8619
 8713TIP3   OH226102   4.787   5.210   5.804  0.2434 -0.4544  0.7855
 8713TIP3    H126103   4.758   5.282   5.861 -0.2148 -1.4692  1.8825
 8713TIP3    H226104   4.707   5.161   5.786  0.4267 -0.2972 -0.5718
 8714TIP3   OH226105   4.612   6.310   4.469  0.6544  0.2582  0.3393
 8714TIP3    H126106   4.691   6.264   4.496  0.6361 -0.0796 -0.1518
 8714TIP3    H226107   4.566   6.246   4.413  0.0480  0.4541  0.6078
 8715TIP3   OH226108   6.867   1.539   0.903 -0.2386 -0.1876 -0.6179
 8715TIP3    H126109   6.861   1.484   0.825  1.1924 -0.2916 -0.6659
 8715TIP3    H226110   6.955   1.524   0.937 -0.8943 -0.3163  1.1520
 8716TIP3   OH226111   5.231   2.196   1.636  0.0654 -0.3856 -0.6719
 8716TIP3    H126112   5.300   2.203   1.571  0.7698 -0.1489  0.0910
 8716TIP3    H226113   5.270   2.147   1.707 -0.2172  0.6197  0.2023
 8717TIP3   OH226114   3.218   6.754   3.309 -0.6485  0.0572 -0.2984
 8717TIP3    H126115   3.218   6.791   3.398 -1.3373  0.8540 -0.6212
 8717TIP3    H226116   3.215   6.659   3.324 -1.8195  0.1956  0.5465
 8718TIP3   OH226117   7.042   1.795   1.703  0.3615 -0.6802  0.6322
 8718TIP3    H126118   7.108   1.864   1.707 -0.5587  0.4496 -1.8437
 8718TIP3    H226119   7.033   1.765   1.794  3.3776 -0.0821  1.2177
 8719TIP3   OH226120   5.512   4.056   5.200 -0.5573  0.3896 -0.3824
 8719TIP3    H126121   5.426   4.084   5.230  0.3650  0.1906  2.7843
 8719TIP3    H226122   5.503   3.961   5.187 -0.7688  0.3108  0.2856
 8720TIP3   OH226123   5.778   2.676   4.150 -0.3950 -0.4534  0.5932
 8720TIP3    H126124   5.856   2.694   4.098 -1.3197  1.4460 -0.2444
 8720TIP3    H226125   5.782   2.740   4.221  0.0807 -2.0398  2.0480
 8721TIP3   OH226126   6.182   4.411   4.998  0.3586 -0.3762  0.1449
 8721TIP3    H126127   6.129   4.343   5.039  0.6672 -0.1364  0.9542
 8721TIP3    H226128   6.239   4.442   5.068  0.9991 -0.0626 -0.5100
 8722TIP3   OH226129   1.708   2.014   3.222 -0.3466 -0.3940 -0.3143
 8722TIP3    H126130   1.629   2.026   3.274  0.4330 -0.9143  1.0179
 8722TIP3    H226131   1.767   2.085   3.250  0.2421 -0.9310 -0.1721
 8723TIP3   OH226132   6.529   2.762   4.641  0.6381  0.1057 -0.1175
 8723TIP3    H126133   6.500   2.852   4.649 -0.8894 -0.1907 -1.7942
 8723TIP3    H226134   6.624   2.768   4.629  1.0388  1.2457  2.8841
 8724TIP3   OH226135   0.582   0.119   0.863  0.2297 -0.5182  0.2910
 8724TIP3    H126136   0.576   0.128   0.958 -2.9568  1.7259  0.0349
 8724TIP3    H226137   0.633   0.195   0.835  2.1557 -1.7794  0.1844
 8725TIP3   OH226138   4.310   2.408   0.146 -0.1625  0.7031 -0.7284
 8725TIP3    H126139   4.229   2.365   0.173  0.5176 -0.0118  0.2587
 8725TIP3    H226140   4.282   2.480   0.090 -1.5181  0.8703  0.1228
 8726TIP3   OH226141   3.389   2.764   5.770  0.5889 -0.4233 -0.0416
 8726TIP3    H126142   3.419   2.684   5.728  2.4160 -0.4702  1.2314
 8726TIP3    H226143   3.433   2.764   5.855 -0.3382  1.3307  0.4869
 8727TIP3   OH226144   0.173   3.381   2.524 -0.4811  0.1077 -0.4747
 8727TIP3    H126145   0.148   3.328   2.448 -0.3959  0.2318 -0.5894
 8727TIP3    H226146   0.098   3.373   2.584  0.1985 -1.4786  0.2229
 8728TIP3   OH226147   0.957   6.266   3.427 -0.3971 -0.1122  0.5584
 8728TIP3    H126148   0.975   6.357   3.404 -0.0206  0.0240  1.3787
 8728TIP3    H226149   0.955   6.221   3.342  0.1193  0.5307  0.1874
 8729TIP3   OH226150   2.615   3.573   1.343 -0.3294  0.8657  0.1407
 8729TIP3    H126151   2.610   3.666   1.324  0.0778  1.0111  0.7110
 8729TIP3    H226152   2.582   3.565   1.432  0.5746  0.6068  0.4660
 8730TIP3   OH226153   3.492   1.273   4.393 -0.2719 -0.2414 -0.1392
 8730TIP3    H126154   3.422   1.323   4.350  0.3771 -0.5134 -1.5500
 8730TIP3    H226155   3.543   1.339   4.440 -0.5886  0.1631 -0.3557
 8731TIP3   OH226156   0.716   3.738   3.913 -0.4528  0.1655  0.0520
 8731TIP3    H126157   0.811   3.745   3.920 -0.6086  0.7989  2.0877
 8731TIP3    H226158   0.699   3.644   3.925 -0.0130 -0.2836 -2.3043
 8732TIP3   OH226159   1.816   4.672   3.239  0.0570 -0.4541  0.4081
 8732TIP3    H126160   1.891   4.703   3.189  0.3639 -1.2765  0.3488
 8732TIP3    H226161   1.850   4.600   3.291 -0.2589  0.3792  1.8215
 8733TIP3   OH226162   4.273   5.553   0.933  0.3408 -0.6527  0.2067
 8733TIP3    H126163   4.250   5.638   0.971  0.8200 -0.4228 -0.0070
 8733TIP3    H226164   4.195   5.527   0.885 -0.0781 -0.6937  0.9039
 8734TIP3   OH226165   3.575   2.081   0.792 -0.5354  0.8458  0.1785
 8734TIP3    H126166   3.629   2.158   0.773 -1.0757  1.3245  0.5712
 8734TIP3    H226167   3.490   2.117   0.815 -1.0135  0.0943 -0.3914
 8735TIP3   OH226168   4.411   4.044   1.167  0.3052 -0.2043 -0.1251
 8735TIP3    H126169   4.343   3.983   1.138 -0.1416  0.1790  0.0832
 8735TIP3    H226170   4.431   4.097   1.090 -0.5071  0.4730  0.1149
 8736TIP3   OH226171   2.590   4.050   2.670  0.5057  0.2800 -0.2884
 8736TIP3    H126172   2.679   4.082   2.686  0.6167 -1.0644  2.2781
 8736TIP3    H226173   2.601   3.956   2.655 -0.5911 -0.3485  2.3259
 8737TIP3   OH226174   4.989   2.624   3.366 -0.1625  0.3119  0.3106
 8737TIP3    H126175   5.048   2.660   3.431 -0.1450 -1.2364  1.1985
 8737TIP3    H226176   5.015   2.533   3.357 -1.0666  0.1350 -0.8473
 8738TIP3   OH226177   3.718   4.738   0.554  0.0511 -0.0867 -0.3953
 8738TIP3    H126178   3.667   4.720   0.475 -0.3420 -1.4011  0.1414
 8738TIP3    H226179   3.667   4.701   0.626 -0.6394  2.8881  0.8113
 8739TIP3   OH226180   4.490   0.277   0.434 -0.1337 -0.2441  0.2311
 8739TIP3    H126181   4.583   0.299   0.427 -0.1371 -0.6282 -1.9583
 8739TIP3    H226182   4.444   0.355   0.405 -0.4486 -0.4224  0.2391
 8740TIP3   OH226183   1.812   2.351   1.850 -0.0320 -0.0300  0.1662
 8740TIP3    H126184   1.759   2.271   1.853  0.8983 -0.6351  0.8447
 8740TIP3    H226185   1.888   2.328   1.796 -0.2928  0.7410 -0.5526
 8741TIP3   OH226186   3.666   0.411   1.311  0.1914  0.1095  0.0180
 8741TIP3    H126187   3.669   0.500   1.346  0.0631  0.1278 -0.0172
 8741TIP3    H226188   3.639   0.357   1.385 -2.3395  0.4355 -0.5738
 8742TIP3   OH226189   4.335   5.809   2.996 -0.0736 -0.5728  0.3404
 8742TIP3    H126190   4.328   5.714   2.984  0.5466 -0.5905  0.1021
 8742TIP3    H226191   4.429   5.826   2.996 -0.1902  0.2078 -0.9514
 8743TIP3   OH226192   6.669   4.958   4.073 -0.0773 -0.3632  0.1812
 8743TIP3    H126193   6.742   5.018   4.060 -0.9000  0.2587 -1.9311
 8743TIP3    H226194   6.697   4.902   4.146  2.0714  0.4715  0.0678
 8744TIP3   OH226195   5.497   4.451   3.311  0.0950  0.5481  0.0264
 8744TIP3    H126196   5.407   4.430   3.337  0.4880  0.0830  1.0634
 8744TIP3    H226197   5.497   4.546   3.299  0.0968  0.9645  2.7614
 8745TIP3   OH226198   1.639   6.253   2.776 -0.0088 -0.1968 -0.2346
 8745TIP3    H126199   1.591   6.171   2.782 -1.4140  0.6598  0.9382
 8745TIP3    H226200   1.731   6.228   2.781 -0.4154 -1.6962  0.1232
 8746TIP3   OH226201   3.530   1.001   4.282 -0.0075 -0.2552  0.3948
 8746TIP3    H126202   3.484   0.981   4.364 -1.7393  0.1445 -0.4400
 8746TIP3    H226203   3.573   1.086   4.299  0.3303 -0.5621  1.1347
 8747TIP3   OH226204   3.142   2.922   0.660 -0.1003 -0.8617 -0.4122
 8747TIP3    H126205   3.111   3.008   0.687 -2.6740 -1.8467  0.0937
 8747TIP3    H226206   3.180   2.883   0.740 -0.8888 -0.9802 -0.0899
 8748TIP3   OH226207   0.404   4.595   4.470 -0.1738  0.2918  0.0027
 8748TIP3    H126208   0.424   4.505   4.496 -0.8811 -0.3266 -1.4865
 8748TIP3    H226209   0.408   4.644   4.551  2.0110 -0.7359  0.6042
 8749TIP3   OH226210   0.771   3.142   0.302  0.1402 -0.3358 -0.4058
 8749TIP3    H126211   0.848   3.086   0.309  1.7565  1.8528  0.8486
 8749TIP3    H226212   0.782   3.188   0.219  0.2863  0.1130 -0.1390
 8750TIP3   OH226213   5.092   3.466   2.207  0.4362  0.2740 -0.5203
 8750TIP3    H126214   5.003   3.501   2.212  0.5450  0.4716  0.1484
 8750TIP3    H226215   5.080   3.371   2.215  0.2872  0.3025 -0.3871
 8751TIP3   OH226216   4.856   0.553   4.242  0.0618  0.0488  0.6195
 8751TIP3    H126217   4.941   0.583   4.209 -0.6369  1.2493 -0.1605
 8751TIP3    H226218   4.848   0.463   4.211  0.0034  0.7135 -1.4285
 8752TIP3   OH226219   5.011   5.789   2.639 -0.5767 -0.2738  0.0311
 8752TIP3    H126220   5.086   5.831   2.681 -0.5111 -1.2777  0.9653
 8752TIP3    H226221   5.002   5.706   2.685 -1.5325 -0.6857 -0.8728
 8753TIP3   OH226222   2.889   1.783   0.623  0.3741  0.2940 -0.5742
 8753TIP3    H126223   2.833   1.834   0.564  0.8241  0.7507 -0.6159
 8753TIP3    H226224   2.978   1.814   0.604  0.5512  0.2354  0.1356
 8754TIP3   OH226225   2.658   2.169   2.023  0.0171 -0.3238 -0.1331
 8754TIP3    H126226   2.570   2.180   2.057  0.5477  1.9596  0.6905
 8754TIP3    H226227   2.712   2.153   2.100  0.3168 -2.2205 -0.6726
 8755TIP3   OH226228   6.137   5.654   1.308 -0.3717  0.5898  0.2181
 8755TIP3    H126229   6.125   5.625   1.398  0.2350  1.3021  0.5463
 8755TIP3    H226230   6.183   5.738   1.316  0.1279  0.4294 -0.7655
 8756TIP3   OH226231   5.616   1.860   0.939  0.3708 -0.1891  0.7586
 8756TIP3    H126232   5.701   1.904   0.935 -0.0850  0.8217  1.5372
 8756TIP3    H226233   5.637   1.767   0.937  1.4396  0.0516  0.0995
 8757TIP3   OH226234   2.107   4.989   1.302 -0.2856 -0.4458 -0.3359
 8757TIP3    H126235   2.076   4.898   1.307  0.7198 -0.8958 -1.6878
 8757TIP3    H226236   2.162   5.000   1.380 -2.9936  0.1158  1.6643
 8758TIP3   OH226237   6.185   5.088   1.989  0.0675 -0.1635 -0.0806
 8758TIP3    H126238   6.257   5.029   1.970  1.5745  1.8604 -1.0754
 8758TIP3    H226239   6.214   5.137   2.066  1.1069  2.5159 -2.0018
 8759TIP3   OH226240   6.949   2.438   4.159 -0.3626  0.1956  0.2761
 8759TIP3    H126241   6.899   2.360   4.135  0.7611 -0.3332 -0.3897
 8759TIP3    H226242   7.040   2.416   4.139  0.1491  1.1619  1.4168
 8760TIP3   OH226243   0.726   2.449   1.042 -0.1724 -0.0684  0.2384
 8760TIP3    H126244   0.667   2.472   0.971  1.3221 -0.2672 -1.1427
 8760TIP3    H226245   0.674   2.393   1.099 -2.1905  2.1408  0.7132
 8761TIP3   OH226246   4.472   1.691   1.637 -0.2005 -0.5311 -0.4132
 8761TIP3    H126247   4.432   1.654   1.559 -2.3581 -1.1611  0.9046
 8761TIP3    H226248   4.521   1.618   1.675  0.6080 -0.3030 -0.9821
 8762TIP3   OH226249   0.713   1.641   0.865 -0.4926  0.4618  0.1106
 8762TIP3    H126250   0.742   1.550   0.857 -1.5940  0.0232  0.7325
 8762TIP3    H226251   0.763   1.689   0.799 -1.2866 -0.9395 -1.5884
 8763TIP3   OH226252   0.340   3.568   3.833  0.2733  0.2428  0.2516
 8763TIP3    H126253   0.249   3.597   3.824 -0.2625 -2.0613 -4.8126
 8763TIP3    H226254   0.335   3.492   3.891 -0.9573  0.2605  0.1991
 8764TIP3   OH226255   0.653   2.516   4.584 -0.0011 -0.5499  0.3513
 8764TIP3    H126256   0.617   2.531   4.672  1.0948 -1.7920  1.0462
 8764TIP3    H226257   0.739   2.559   4.586  0.7059 -1.9150  0.4496
 8765TIP3   OH226258   0.505   0.167   2.314 -0.2719 -0.6890 -0.4908
 8765TIP3    H126259   0.563   0.184   2.388  1.3634  0.1621 -1.8967
 8765TIP3    H226260   0.453   0.247   2.306 -0.8406 -0.9962  0.0525
 8766TIP3   OH226261   4.242   5.248   0.591  0.3867  0.3283  0.8688
 8766TIP3    H126262   4.231   5.174   0.652 -1.2381  0.7395  1.1184
 8766TIP3    H226263   4.153   5.271   0.565  0.9853  0.8357 -0.8886
 8767TIP3   OH226264   0.741   4.766   3.096  0.0756 -0.2380 -0.2608
 8767TIP3    H126265   0.651   4.751   3.127  0.1436  1.3427  0.8600
 8767TIP3    H226266   0.769   4.844   3.144  1.6872 -0.0904 -1.3807
 8768TIP3   OH226267   4.673   2.640   3.543 -0.2112  0.4886 -0.0478
 8768TIP3    H126268   4.644   2.588   3.468 -0.1578  2.3294 -1.4313
 8768TIP3    H226269   4.736   2.584   3.589 -2.5486 -1.8765  0.4703
 8769TIP3   OH226270   1.483   0.401   2.690  0.3553  0.2196  0.0421
 8769TIP3    H126271   1.564   0.373   2.732  0.3027  0.1306  0.0845
 8769TIP3    H226272   1.449   0.322   2.648  0.0400  0.1409  0.4331
 8770TIP3   OH226273   4.454   5.168   2.747 -0.9241  0.2144 -0.2079
 8770TIP3    H126274   4.399   5.242   2.721 -0.7352  0.2479 -0.5194
 8770TIP3    H226275   4.396   5.111   2.796 -1.1377  0.4445 -0.1909
 8771TIP3   OH226276   5.341   1.420   5.359  0.0914 -0.1008  0.3472
 8771TIP3    H126277   5.360   1.377   5.275 -0.4805 -1.2820  0.8029
 8771TIP3    H226278   5.258   1.382   5.387 -1.3006  2.4705  0.0332
 8772TIP3   OH226279   1.970   2.193   1.682  0.0387  0.1951  1.0519
 8772TIP3    H126280   2.056   2.197   1.641 -0.6187  1.9115 -0.3129
 8772TIP3    H226281   1.925   2.122   1.637  0.3452  0.0745  0.9353
 8773TIP3   OH226282   3.591   6.187   2.133  0.0579 -0.3309  0.5648
 8773TIP3    H126283   3.642   6.260   2.097 -0.3374 -0.0274  0.6224
 8773TIP3    H226284   3.502   6.202   2.101 -0.3918  0.1642  1.9972
 8774TIP3   OH226285   3.975   0.232   3.825 -0.7519  0.0383  0.2129
 8774TIP3    H126286   3.916   0.175   3.875 -0.5572 -0.5636 -0.2356
 8774TIP3    H226287   4.061   0.218   3.865 -0.3333 -1.4904 -1.1331
 8775TIP3   OH226288   5.743   2.048   0.718 -0.1210 -0.7545 -0.3113
 8775TIP3    H126289   5.664   2.043   0.664  0.5923  0.5162 -1.5319
 8775TIP3    H226290   5.786   2.130   0.691  0.9614 -0.7691  1.2347
 8776TIP3   OH226291   0.899   6.332   1.861  0.3668  0.3470 -0.1489
 8776TIP3    H126292   0.825   6.272   1.874  0.5224  0.1219 -0.2982
 8776TIP3    H226293   0.962   6.282   1.810  0.1995  0.8757 -0.8855
 8777TIP3   OH226294   2.061   2.190   2.110  0.3048  0.0604 -0.3267
 8777TIP3    H126295   2.097   2.198   2.198 -1.0975 -0.3484  0.3202
 8777TIP3    H226296   2.137   2.179   2.054  1.2254  0.1883  0.8462
 8778TIP3   OH226297   2.329   2.576   0.203 -0.2148  0.6720  0.2534
 8778TIP3    H126298   2.314   2.512   0.133 -1.1323  1.3128 -0.1656
 8778TIP3    H226299   2.273   2.650   0.179  1.0277  1.7488  0.5741
 8779TIP3   OH226300   6.773   4.199   4.480 -0.0009 -0.1595 -0.5650
 8779TIP3    H126301   6.758   4.236   4.567  1.0309  0.9714 -0.8520
 8779TIP3    H226302   6.698   4.141   4.465 -1.2601  1.2240  0.2160
 8780TIP3   OH226303   5.682   3.671   3.126 -0.5944  0.4158  0.7325
 8780TIP3    H126304   5.762   3.649   3.174  0.6569  0.9532 -0.9983
 8780TIP3    H226305   5.660   3.759   3.154 -1.3770 -0.1959  2.1763
 8781TIP3   OH226306   0.922   1.888   0.066  0.2907 -0.4766 -0.2885
 8781TIP3    H126307   0.993   1.827   0.085 -1.0134 -1.6921  0.9207
 8781TIP3    H226308   0.857   1.836   0.019 -0.4553  0.2040 -0.0377
 8782TIP3   OH226309   1.870   1.676   1.263  0.9435 -0.0625  0.3482
 8782TIP3    H126310   1.884   1.587   1.232  0.7610 -1.0878  2.9193
 8782TIP3    H226311   1.956   1.705   1.293  0.6440 -0.1928  1.3851
 8783TIP3   OH226312   6.508   5.508   0.717  0.4236 -0.0759  0.0606
 8783TIP3    H126313   6.570   5.526   0.646 -1.0801 -3.0646 -2.2163
 8783TIP3    H226314   6.438   5.457   0.676 -2.4428  1.1634  2.9816
 8784TIP3   OH226315   4.786   5.082   0.730  0.1373  0.0948 -0.1752
 8784TIP3    H126316   4.870   5.051   0.765 -1.2047 -2.3897  1.1036
 8784TIP3    H226317   4.798   5.082   0.635  1.8040  0.5843  0.0054
 8785TIP3   OH226318   1.696   3.154   2.638  0.3794 -0.8707 -0.1754
 8785TIP3    H126319   1.641   3.132   2.562 -0.7149  2.2065 -0.4332
 8785TIP3    H226320   1.785   3.159   2.603  0.1556 -1.3316 -0.8274
 8786TIP3   OH226321   6.491   1.346   3.907  0.0785 -0.3443  0.4710
 8786TIP3    H126322   6.455   1.400   3.977 -0.2362 -0.8473  0.7043
 8786TIP3    H226323   6.477   1.397   3.827  0.1818  0.1080  0.7370
 8787TIP3   OH226324   0.311   4.728   1.229  0.3668 -0.2056 -0.1994
 8787TIP3    H126325   0.319   4.632   1.232  0.9807 -0.1735 -0.6191
 8787TIP3    H226326   0.228   4.746   1.273  0.8431 -0.8516  1.0432
 8788TIP3   OH226327   4.575   2.315   0.242  0.6032  0.2472 -0.1925
 8788TIP3    H126328   4.630   2.236   0.241 -0.2962 -0.3986 -1.6617
 8788TIP3    H226329   4.488   2.283   0.266 -0.2534  0.3970 -2.8287
 8789TIP3   OH226330   2.941   5.279   4.388 -0.1965 -0.1605 -0.8552
 8789TIP3    H126331   3.010   5.267   4.323  1.2152 -2.2418  0.8637
 8789TIP3    H226332   2.938   5.195   4.436 -2.3933  0.6346  0.5907
 8790TIP3   OH226333   3.326   2.145   0.912  0.1793 -0.1590 -0.7640
 8790TIP3    H126334   3.266   2.090   0.962  0.3157 -0.9446 -1.4474
 8790TIP3    H226335   3.279   2.229   0.903 -1.5647 -1.2460 -2.6571
 8791TIP3   OH226336   6.504   5.942   4.900 -0.6826 -0.2726 -0.2226
 8791TIP3    H126337   6.547   6.006   4.957 -1.9630 -1.1111  1.7869
 8791TIP3    H226338   6.575   5.909   4.844  0.8092  0.0830  1.3660
 8792TIP3   OH226339   3.341   0.727   2.116  0.2000  0.5270  0.2835
 8792TIP3    H126340   3.312   0.636   2.124  0.6610  0.4449  1.1688
 8792TIP3    H226341   3.323   0.766   2.201  0.6851  1.0668  0.1505
 8793TIP3   OH226342   5.684   6.160   3.328  0.2783 -0.3902 -0.0416
 8793TIP3    H126343   5.711   6.169   3.420  1.4973 -1.8030 -0.2238
 8793TIP3    H226344   5.617   6.091   3.330  0.5045 -0.6145 -0.2503
 8794TIP3   OH226345   2.995   6.639   4.104  0.2712  0.1940 -0.5330
 8794TIP3    H126346   2.935   6.568   4.083 -2.3527  1.8241  0.8864
 8794TIP3    H226347   3.014   6.679   4.019  0.7058 -1.3283 -1.1878
 8795TIP3   OH226348   3.358   3.907   1.011 -0.0999  0.0717 -0.4063
 8795TIP3    H126349   3.371   3.981   1.070 -2.0764  0.5223 -0.4461
 8795TIP3    H226350   3.444   3.892   0.972  0.6776  1.3991  0.6975
 8796TIP3   OH226351   0.914   6.738   0.038  0.2848  0.4356  0.2656
 8796TIP3    H126352   0.858   6.667   0.005 -0.0419  0.2096  1.2655
 8796TIP3    H226353   0.861   6.817   0.028  0.7716  0.6042 -1.1508
 8797TIP3   OH226354   5.865   1.866   5.734 -0.0228  0.3996  0.1889
 8797TIP3    H126355   5.920   1.843   5.659 -0.3928  1.4442 -0.4358
 8797TIP3    H226356   5.788   1.909   5.695 -2.3370 -2.7648  0.8663
 8798TIP3   OH226357   5.974   4.403   3.876 -0.1114 -0.1944  0.0222
 8798TIP3    H126358   5.919   4.346   3.823 -0.4580 -1.0252  1.2188
 8798TIP3    H226359   6.057   4.408   3.829 -0.2712 -1.2372 -0.3921
 8799TIP3   OH226360   2.378   1.692   1.396 -0.1108  0.2336 -0.5509
 8799TIP3    H126361   2.375   1.596   1.402 -1.5392  0.3469  1.8119
 8799TIP3    H226362   2.451   1.717   1.453 -2.0467  0.5970  1.9858
 8800TIP3   OH226363   0.744   0.150   3.918 -0.2483 -0.4373 -0.0012
 8800TIP3    H126364   0.833   0.160   3.950 -0.2787 -0.6554  0.1486
 8800TIP3    H226365   0.689   0.196   3.982 -0.3327 -1.0826  0.3870
 8801TIP3   OH226366   3.340   4.233   1.559  0.2115  0.5607 -0.1692
 8801TIP3    H126367   3.425   4.239   1.603 -0.1859  1.2000  0.5236
 8801TIP3    H226368   3.288   4.304   1.597 -1.4038 -1.1998  1.1037
 8802TIP3   OH226369   6.738   0.074   2.583 -0.4084 -0.0657  0.3226
 8802TIP3    H126370   6.786   0.005   2.538  0.3748  1.5743 -1.4772
 8802TIP3    H226371   6.805   0.121   2.633 -0.7732 -0.0126  0.7710
 8803TIP3   OH226372   0.047   4.326   0.262  0.1692  0.2268 -0.3692
 8803TIP3    H126373   0.022   4.338   0.171  0.4699 -0.0498 -0.4888
 8803TIP3    H226374   0.020   4.237   0.284  0.1520  0.2713 -0.2054
 8804TIP3   OH226375   2.698   0.447   4.369  0.1871 -0.3384  0.0331
 8804TIP3    H126376   2.780   0.461   4.323 -0.6220 -1.2923 -1.7981
 8804TIP3    H226377   2.645   0.394   4.309 -1.0230 -1.4620  1.9650
 8805TIP3   OH226378   3.057   1.479   1.149  0.2453 -0.1063  0.3852
 8805TIP3    H126379   3.021   1.475   1.238 -0.4470 -0.9012  0.0812
 8805TIP3    H226380   2.984   1.510   1.095  0.3380 -0.6356 -0.0587
 8806TIP3   OH226381   5.453   4.215   4.337  0.4220  0.4831 -0.2008
 8806TIP3    H126382   5.547   4.198   4.345  0.4585  0.6383 -0.3061
 8806TIP3    H226383   5.426   4.164   4.260  0.0313 -1.1749  0.9880
 8807TIP3   OH226384   5.723   4.173   4.268  0.1400 -0.3092 -0.1994
 8807TIP3    H126385   5.729   4.237   4.197 -1.1700 -0.1738 -0.2156
 8807TIP3    H226386   5.744   4.089   4.227 -0.0149 -0.1509 -0.6105
 8808TIP3   OH226387   4.045   6.187   1.629 -0.2308  0.0577  0.0037
 8808TIP3    H126388   4.024   6.149   1.714  0.0394 -1.0391 -0.4028
 8808TIP3    H226389   4.029   6.116   1.567  3.8189 -0.6767 -0.4635
 8809TIP3   OH226390   4.359   5.593   3.459  0.0572 -0.0815  0.6636
 8809TIP3    H126391   4.393   5.622   3.374 -1.4120 -0.2082  0.0106
 8809TIP3    H226392   4.421   5.527   3.489  1.1694  0.7237  0.2052
 8810TIP3   OH226393   2.972   3.748   5.809 -0.2171 -0.4009 -0.1256
 8810TIP3    H126394   3.063   3.772   5.792  0.0111 -0.0338  1.4532
 8810TIP3    H226395   2.978   3.676   5.873 -1.0257  1.1634  1.8145
 8811TIP3   OH226396   6.151   0.119   4.710 -0.2377  0.5777  0.0814
 8811TIP3    H126397   6.154   0.063   4.788 -1.8529  0.6396  0.2178
 8811TIP3    H226398   6.213   0.190   4.729  0.7358 -0.3523  0.5255
 8812TIP3   OH226399   2.512   3.871   1.795 -0.1851 -0.2175 -0.0856
 8812TIP3    H126400   2.558   3.938   1.745 -1.0433  1.0512  0.7584
 8812TIP3    H226401   2.469   3.816   1.729  1.4430 -0.6439 -0.8249
 8813TIP3   OH226402   4.743   6.306   0.600 -0.0747  0.3593  0.0044
 8813TIP3    H126403   4.668   6.270   0.646 -0.4578 -1.4006 -1.8543
 8813TIP3    H226404   4.706   6.371   0.540 -0.7085 -2.5726 -3.0890
 8814TIP3   OH226405   1.160   0.451   5.506  0.5440 -0.2864 -0.3075
 8814TIP3    H126406   1.070   0.422   5.520  0.7677 -0.7097  0.2943
 8814TIP3    H226407   1.201   0.379   5.457  0.3456  0.2627 -1.3229
 8815TIP3   OH226408   0.126   6.184   0.106 -0.1265  0.0819  0.4769
 8815TIP3    H126409   0.046   6.190   0.159 -1.2432 -0.0758 -1.1211
 8815TIP3    H226410   0.106   6.235   0.028  0.2581 -2.2102 -1.2279
 8816TIP3   OH226411   4.237   0.291   3.914  0.3248 -0.0344  0.5761
 8816TIP3    H126412   4.258   0.309   4.006  0.6702  0.0168  0.4891
 8816TIP3    H226413   4.302   0.225   3.888 -1.3049 -1.9498  1.0764
 8817TIP3   OH226414   0.358   0.706   2.141 -0.0478  0.2097 -0.3391
 8817TIP3    H126415   0.355   0.756   2.223 -2.0969 -2.3841  1.3432
 8817TIP3    H226416   0.324   0.766   2.075  1.3342  2.2667  0.6916
 8818TIP3   OH226417   1.121   6.035   4.912 -0.0968 -0.2050  0.2564
 8818TIP3    H126418   1.158   6.003   4.830 -1.5122 -0.0443 -0.4715
 8818TIP3    H226419   1.186   6.097   4.944  1.5276 -1.9072  0.4328
 8819TIP3   OH226420   3.428   2.184   4.043  0.1463  0.4942 -0.0470
 8819TIP3    H126421   3.475   2.163   3.962 -1.2112  1.0814 -1.0134
 8819TIP3    H226422   3.486   2.246   4.088  1.1304 -0.1936 -0.3259
 8820TIP3   OH226423   3.399   5.275   0.396  0.0129  0.1222 -0.0136
 8820TIP3    H126424   3.343   5.231   0.460  0.2069 -0.9412 -0.5451
 8820TIP3    H226425   3.431   5.204   0.340  0.2752  0.9616 -0.9546
 8821TIP3   OH226426   1.519   2.028   0.677  0.9940  0.7658  0.6256
 8821TIP3    H126427   1.603   1.987   0.655  0.8360  0.4572  0.5865
 8821TIP3    H226428   1.540   2.086   0.750  1.3425  1.0962  0.2694
 8822TIP3   OH226429   4.277   3.741   0.911 -0.4928 -0.2401  0.6935
 8822TIP3    H126430   4.236   3.655   0.923 -1.2733  0.0618  0.2532
 8822TIP3    H226431   4.245   3.794   0.984 -1.0196  0.0398  0.2663
 8823TIP3   OH226432   3.191   4.266   1.341 -0.0416 -0.6243 -0.2029
 8823TIP3    H126433   3.272   4.266   1.391 -1.4274 -0.3625  2.1770
 8823TIP3    H226434   3.181   4.356   1.311 -0.3726 -0.1899  1.1493
 8824TIP3   OH226435   1.774   1.491   3.036  0.2243  0.2770  0.4379
 8824TIP3    H126436   1.808   1.414   2.990  0.0444 -0.2827  1.2300
 8824TIP3    H226437   1.841   1.558   3.022  1.0211 -0.4177  0.8471
 8825TIP3   OH226438   0.633   2.666   0.533 -0.3202 -1.1884  0.6889
 8825TIP3    H126439   0.644   2.604   0.460 -0.4738 -0.3001 -0.1101
 8825TIP3    H226440   0.626   2.752   0.490 -1.6867 -0.7788  1.6726
 8826TIP3   OH226441   3.684   1.511   4.316 -0.9695  0.2212 -0.8535
 8826TIP3    H126442   3.727   1.593   4.342 -0.3298 -0.4295  0.2306
 8826TIP3    H226443   3.596   1.517   4.353 -1.2792  0.8627 -1.6797
 8827TIP3   OH226444   3.595   0.876   5.802  0.0755  0.0363  0.5532
 8827TIP3    H126445   3.515   0.861   5.852 -0.7133 -0.4725 -0.8276
 8827TIP3    H226446   3.567   0.882   5.711  1.3439  2.0537  0.2230
 8828TIP3   OH226447   6.414   5.742   1.092 -0.2895  0.4488  0.4452
 8828TIP3    H126448   6.505   5.754   1.065  0.7551 -2.2047  2.3371
 8828TIP3    H226449   6.408   5.787   1.177 -0.4190 -0.2595  0.8190
 8829TIP3   OH226450   2.671   0.243   0.545 -0.4324 -0.0781  0.1489
 8829TIP3    H126451   2.577   0.243   0.529 -0.3343  0.1557 -0.4495
 8829TIP3    H226452   2.705   0.314   0.491  0.0541  0.0369  0.5866
 8830TIP3   OH226453   0.379   5.538   0.234  0.1951  0.2485  0.1543
 8830TIP3    H126454   0.356   5.554   0.325 -0.5221  1.7315 -0.2566
 8830TIP3    H226455   0.460   5.488   0.238 -0.8335 -1.4051  1.6025
 8831TIP3   OH226456   0.663   3.253   5.424 -0.2273  0.1750 -0.2863
 8831TIP3    H126457   0.706   3.258   5.510 -0.2736 -1.2954 -0.1556
 8831TIP3    H226458   0.707   3.320   5.372  1.9412 -0.9217 -0.0134
 8832TIP3   OH226459   3.248   2.653   1.782 -0.0268  0.2463 -0.3495
 8832TIP3    H126460   3.193   2.588   1.825 -0.0173 -0.4596 -1.3622
 8832TIP3    H226461   3.220   2.651   1.690  0.5637  1.0602 -0.5622
 8833TIP3   OH226462   6.052   3.052   0.059 -0.4932 -0.3539  0.3355
 8833TIP3    H126463   5.982   3.088   0.113  0.4156  1.2504  0.5098
 8833TIP3    H226464   6.088   3.128   0.012  2.5191 -0.6895  1.8470
 8834TIP3   OH226465   3.437   3.009   2.626 -0.0709  0.1545  0.4995
 8834TIP3    H126466   3.524   3.000   2.666 -0.9002 -2.8573  1.8457
 8834TIP3    H226467   3.442   2.957   2.546 -0.7738 -0.4171  0.8275
 8835TIP3   OH226468   1.252   0.512   1.130  0.2485  0.5913 -0.1842
 8835TIP3    H126469   1.302   0.580   1.085 -1.6895  0.0815 -3.3926
 8835TIP3    H226470   1.164   0.549   1.137  0.0561 -0.1102  1.6459
 8836TIP3   OH226471   3.237   1.399   5.475 -0.2699  0.5544  0.0231
 8836TIP3    H126472   3.315   1.351   5.446 -0.1855  0.9110 -0.3484
 8836TIP3    H226473   3.239   1.392   5.571 -0.7780 -0.9842 -0.0473
 8837TIP3   OH226474   2.277   3.816   5.546  0.4362 -0.0259 -0.0007
 8837TIP3    H126475   2.318   3.795   5.462  3.0213  0.3450  1.0536
 8837TIP3    H226476   2.232   3.736   5.572  1.2436 -0.7867 -0.8650
 8838TIP3   OH226477   3.034   6.633   2.872  0.6473 -0.1112  0.3175
 8838TIP3    H126478   3.074   6.669   2.951  0.6729  1.8576 -0.5373
 8838TIP3    H226479   2.942   6.657   2.879  0.3473 -1.2137  0.4142
 8839TIP3   OH226480   4.765   2.639   2.172 -0.0736  0.1688 -0.0701
 8839TIP3    H126481   4.834   2.611   2.231 -1.5689 -0.2927  1.5479
 8839TIP3    H226482   4.728   2.717   2.213 -0.5290  0.4072 -0.9027
 8840TIP3   OH226483   1.036   4.851   2.010  0.1797 -0.1153 -0.2295
 8840TIP3    H126484   0.958   4.833   2.063  0.6636 -0.4878  0.3786
 8840TIP3    H226485   1.100   4.786   2.040  0.5780 -0.1021 -1.0365
 8841TIP3   OH226486   4.986   6.371   2.071 -0.6707  0.8313  0.2048
 8841TIP3    H126487   5.076   6.344   2.057 -0.6982 -0.7488  2.3825
 8841TIP3    H226488   4.985   6.403   2.161 -2.3512  0.3003  0.4150
 8842TIP3   OH226489   1.819   2.753   5.857  0.6441 -0.2798 -0.4222
 8842TIP3    H126490   1.780   2.670   5.886  1.7742 -0.4275  0.8332
 8842TIP3    H226491   1.760   2.820   5.891  1.1387 -0.5131  0.9885
 8843TIP3   OH226492   2.804   4.974   0.309 -0.5665  0.1710  0.7859
 8843TIP3    H126493   2.891   4.989   0.348 -0.5399 -0.4401  0.9678
 8843TIP3    H226494   2.795   5.044   0.244  1.6040 -1.7418 -1.8473
 8844TIP3   OH226495   6.322   4.293   1.235  0.7721 -0.1825 -0.0810
 8844TIP3    H126496   6.386   4.280   1.165 -0.1030  2.4143 -1.5007
 8844TIP3    H226497   6.374   4.332   1.306  1.1433  0.0031 -0.4459
 8845TIP3   OH226498   1.156   6.427   1.232  0.1112 -0.3897 -0.3539
 8845TIP3    H126499   1.099   6.351   1.221 -0.6935 -0.2772  2.3536
 8845TIP3    H226500   1.243   6.396   1.206  0.0414 -2.6637  1.7987
 8846TIP3   OH226501   6.539   4.361   0.340 -0.0159 -0.2163  1.0295
 8846TIP3    H126502   6.621   4.340   0.295  0.1905 -1.4474  1.9342
 8846TIP3    H226503   6.558   4.443   0.385  0.1387  0.4322 -0.1588
 8847TIP3   OH226504   1.718   6.009   5.249 -0.6817  0.1531  0.2856
 8847TIP3    H126505   1.666   6.054   5.183 -1.2998  1.3369  1.5301
 8847TIP3    H226506   1.750   6.079   5.306  1.0869 -0.6821  0.3999
 8848TIP3   OH226507   2.241   5.927   2.036  0.2081  0.0627 -0.0635
 8848TIP3    H126508   2.197   6.012   2.026 -0.3222  0.0421  1.8434
 8848TIP3    H226509   2.333   5.949   2.050 -0.2017  0.4863  2.3522
 8849TIP3   OH226510   6.485   1.103   4.681  0.1184 -0.3578  0.7717
 8849TIP3    H126511   6.476   1.197   4.664  0.1574 -0.6540 -1.1431
 8849TIP3    H226512   6.442   1.061   4.606 -1.0614 -1.9096  2.2278
 8850TIP3   OH226513   2.628   5.784   4.945 -0.2367 -0.7625 -0.0306
 8850TIP3    H126514   2.590   5.751   5.027 -1.2344  0.8516  0.2067
 8850TIP3    H226515   2.559   5.839   4.908  1.5031  1.5098 -0.0878
 8851TIP3   OH226516   5.675   5.935   3.583  0.1632  0.2235 -0.3216
 8851TIP3    H126517   5.592   5.930   3.535 -0.4188  0.9214  0.5874
 8851TIP3    H226518   5.681   6.026   3.611  0.2715 -0.2481  1.2846
 8852TIP3   OH226519   4.996   1.102   3.756  0.5951 -0.1668 -0.2411
 8852TIP3    H126520   5.046   1.028   3.789  1.2013  1.1449  2.0589
 8852TIP3    H226521   5.062   1.165   3.726  0.1308 -0.1619 -1.2927
 8853TIP3   OH226522   6.684   2.185   1.457 -0.7126  0.5893  0.1448
 8853TIP3    H126523   6.711   2.160   1.369 -0.6588 -0.2250  0.3794
 8853TIP3    H226524   6.631   2.111   1.488  0.0490  0.4336  1.1394
 8854TIP3   OH226525   4.977   2.936   1.532 -0.0949  0.7021 -0.3016
 8854TIP3    H126526   5.025   2.859   1.565  0.1949  0.0692 -2.0753
 8854TIP3    H226527   4.888   2.904   1.520  0.5426 -0.2451 -3.4934
 8855TIP3   OH226528   3.817   1.929   0.415  0.3463  0.3578  0.2501
 8855TIP3    H126529   3.770   1.992   0.361  1.3523  1.7853  0.9954
 8855TIP3    H226530   3.755   1.906   0.484 -0.6665 -0.8902 -0.9848
 8856TIP3   OH226531   7.185   1.933   5.779 -0.6897  0.4061 -0.1949
 8856TIP3    H126532   7.151   1.851   5.816 -0.9694  0.4985 -0.2431
 8856TIP3    H226533   7.143   1.939   5.693  0.3738 -0.0869 -0.7682
 8857TIP3   OH226534   1.690   5.159   5.076 -0.0993  0.2396  0.3893
 8857TIP3    H126535   1.601   5.193   5.069 -0.4123 -0.5662  0.4740
 8857TIP3    H226536   1.680   5.067   5.097  0.7238 -0.2051 -1.0327
 8858TIP3   OH226537   4.948   5.686   4.897  0.1938  0.4960 -0.0366
 8858TIP3    H126538   4.967   5.679   4.990  1.1327 -0.8488 -0.3069
 8858TIP3    H226539   4.862   5.645   4.887 -0.2661  1.3358  0.3252
 8859TIP3   OH226540   1.893   5.896   3.188  0.5513 -0.2052  0.0559
 8859TIP3    H126541   1.904   5.803   3.169  0.4945  0.0442 -1.2882
 8859TIP3    H226542   1.836   5.928   3.118  0.3257  0.7857  0.6767
 8860TIP3   OH226543   2.229   1.413   3.490 -0.3405  0.1171 -0.2292
 8860TIP3    H126544   2.148   1.377   3.454 -0.8611  1.7972 -0.8248
 8860TIP3    H226545   2.223   1.507   3.474  0.0130  0.8130  3.0201
 8861TIP3   OH226546   4.048   5.581   1.384 -0.0385  0.3133 -0.1701
 8861TIP3    H126547   4.053   5.486   1.374  2.4204  0.2367  1.1374
 8861TIP3    H226548   4.041   5.595   1.478  1.8569  1.4135 -0.1371
 8862TIP3   OH226549   5.500   1.621   2.654  0.1507  0.0537 -0.1140
 8862TIP3    H126550   5.587   1.596   2.622 -0.0211 -0.6078 -0.0983
 8862TIP3    H226551   5.467   1.541   2.696 -0.8979 -0.0555 -1.0794
 8863TIP3   OH226552   3.906   4.444   3.780 -0.2158 -0.4659 -0.1288
 8863TIP3    H126553   3.927   4.351   3.792 -0.1732 -0.3645  0.5936
 8863TIP3    H226554   3.979   4.479   3.728  0.6155 -0.4754  0.9930
 8864TIP3   OH226555   3.212   3.911   3.396 -0.2229 -0.3473  0.5627
 8864TIP3    H126556   3.227   3.995   3.351  1.2209 -0.9637 -0.1584
 8864TIP3    H226557   3.137   3.873   3.351  0.5046 -0.4374 -0.6290
 8865TIP3   OH226558   1.581   0.349   0.940  0.3936 -0.4927  0.1776
 8865TIP3    H126559   1.650   0.283   0.937 -0.0882 -1.0459  0.8314
 8865TIP3    H226560   1.510   0.307   0.989  0.7278  1.1045  2.2035
 8866TIP3   OH226561   2.029   0.066   1.688  0.0454  0.4928 -0.5346
 8866TIP3    H126562   2.116   0.056   1.728 -0.0166 -0.3914 -0.5904
 8866TIP3    H226563   1.971   0.088   1.761  0.3763  1.4668 -0.5561
 8867TIP3   OH226564   0.509   3.952   0.855 -0.2488  0.4339 -0.4995
 8867TIP3    H126565   0.570   3.951   0.928 -0.5853 -0.3683 -0.2174
 8867TIP3    H226566   0.539   3.882   0.797 -2.0949 -1.4405  0.6783
 8868TIP3   OH226567   1.065   4.313   0.087  0.3949 -0.2334  0.2011
 8868TIP3    H126568   1.004   4.250   0.124 -1.1298  0.2136 -1.4611
 8868TIP3    H226569   1.151   4.285   0.120 -0.5477 -1.5161  1.6994
 8869TIP3   OH226570   6.958   1.237   3.020  0.5050 -0.2664  0.3563
 8869TIP3    H126571   6.987   1.229   2.929 -0.3454  0.6661 -0.0059
 8869TIP3    H226572   7.028   1.287   3.063  1.4531 -1.6514  0.5108
 8870TIP3   OH226573   6.427   2.325   1.470  0.1559  0.3912 -0.3214
 8870TIP3    H126574   6.444   2.236   1.499 -1.6095  0.6089  1.5695
 8870TIP3    H226575   6.490   2.379   1.518 -0.1897  0.3618  0.1692
 8871TIP3   OH226576   3.963   1.762   1.053 -0.4666  0.3767  0.1331
 8871TIP3    H126577   3.949   1.795   1.141  2.8042  1.2375  0.4344
 8871TIP3    H226578   3.925   1.829   0.996  1.7828  2.3879  0.8541
 8872TIP3   OH226579   0.044   2.238   1.211  0.2760  0.1245  0.3878
 8872TIP3    H126580   0.100   2.288   1.151  0.0353 -0.4235 -0.3071
 8872TIP3    H226581   0.101   2.171   1.248  1.2757  2.2792  3.1957
 8873TIP3   OH226582   1.578   0.154   3.166  0.1256  0.3553 -0.4838
 8873TIP3    H126583   1.511   0.205   3.121  0.9617  2.0916  0.1448
 8873TIP3    H226584   1.644   0.135   3.099 -0.1309  0.1868 -0.6909
 8874TIP3   OH226585   2.509   2.476   3.480  0.0681 -0.4476  0.1344
 8874TIP3    H126586   2.544   2.555   3.438 -0.6069 -0.1291  0.1604
 8874TIP3    H226587   2.587   2.425   3.502  0.6790  1.0856  1.8690
 8875TIP3   OH226588   0.655   6.742   0.412  0.0196  0.0334  0.3575
 8875TIP3    H126589   0.650   6.836   0.398 -0.1666  0.0113  0.2769
 8875TIP3    H226590   0.689   6.732   0.501 -2.2606  0.1895  1.3006
 8876TIP3   OH226591   1.430   2.343   0.490 -0.1518 -0.3797  0.5640
 8876TIP3    H126592   1.468   2.423   0.455 -0.5113 -0.2758  0.4086
 8876TIP3    H226593   1.502   2.279   0.487  0.4965  0.2484  1.8308
 8877TIP3   OH226594   0.041   3.435   4.035  0.0550  0.2898  0.0440
 8877TIP3    H126595   0.074   3.345   4.036 -2.0218 -0.5348 -0.7840
 8877TIP3    H226596   0.054   3.466   4.125  2.6711 -0.0530 -0.1343
 8878TIP3   OH226597   3.419   4.303   3.625  0.4811  0.1507  0.2389
 8878TIP3    H126598   3.368   4.384   3.614  0.9394  0.6963  1.8651
 8878TIP3    H226599   3.499   4.318   3.575  0.9043  1.0540  1.1395
 8879TIP3   OH226600   0.307   3.943   5.438  0.3224 -0.2990 -0.5284
 8879TIP3    H126601   0.360   3.883   5.386 -0.3294 -0.6071 -0.8527
 8879TIP3    H226602   0.274   3.890   5.510  1.2973  0.1521  0.2567
 8880TIP3   OH226603   6.378   1.483   2.584  0.2659  0.5827 -0.4259
 8880TIP3    H126604   6.354   1.575   2.591 -0.1976  0.5103 -0.9849
 8880TIP3    H226605   6.304   1.437   2.625 -0.2454  0.3901 -1.5421
 8881TIP3   OH226606   1.300   5.457   1.260 -0.5376 -0.0808  0.1805
 8881TIP3    H126607   1.387   5.481   1.293 -0.5420 -0.7131  0.6732
 8881TIP3    H226608   1.269   5.390   1.321 -0.9027 -0.6645 -0.6230
 8882TIP3   OH226609   5.928   0.144   4.212 -0.2686 -0.1330  0.1682
 8882TIP3    H126610   5.979   0.170   4.289  2.0042  0.5599 -1.4669
 8882TIP3    H226611   5.979   0.074   4.172  1.6876  3.0262 -3.5672
 8883TIP3   OH226612   1.361   6.283   4.758 -0.0476 -0.0513  0.1600
 8883TIP3    H126613   1.416   6.207   4.776  0.4483  0.7675  2.4427
 8883TIP3    H226614   1.375   6.300   4.665  1.0576 -1.7841 -0.0497
 8884TIP3   OH226615   3.473   4.862   1.595  0.8006  0.5357 -1.0047
 8884TIP3    H126616   3.390   4.817   1.611  1.0663  0.0708 -0.9359
 8884TIP3    H226617   3.512   4.814   1.522  0.7023  1.1678 -1.4833
 8885TIP3   OH226618   0.237   1.316   1.578 -0.1009 -0.3413 -0.1844
 8885TIP3    H126619   0.300   1.285   1.643  0.3262 -0.2296 -0.5392
 8885TIP3    H226620   0.289   1.366   1.516 -0.4692 -0.6196 -0.7318
 8886TIP3   OH226621   5.418   2.337   3.186 -0.2542  0.1720 -0.2242
 8886TIP3    H126622   5.451   2.320   3.098 -1.2766  0.3689 -0.6657
 8886TIP3    H226623   5.459   2.419   3.213  2.8909 -1.6274  0.9760
 8887TIP3   OH226624   3.645   3.830   4.125 -0.0646 -0.3042 -0.1605
 8887TIP3    H126625   3.610   3.802   4.041  1.2364  1.7061 -1.4383
 8887TIP3    H226626   3.737   3.804   4.123  0.3892  1.1937 -0.0843
 8888TIP3   OH226627   3.905   4.127   0.633 -0.4217  0.3591  0.3563
 8888TIP3    H126628   3.884   4.196   0.696  0.1367  0.0188  0.9305
 8888TIP3    H226629   3.891   4.167   0.547  0.5097  1.3782  0.6668
 8889TIP3   OH226630   0.006   0.637   2.572  0.0760 -0.0554 -0.3289
 8889TIP3    H126631   0.033   0.664   2.484  1.5353  0.7839  0.3334
 8889TIP3    H226632   0.086   0.603   2.613 -1.1274 -2.9348 -0.1684
 8890TIP3   OH226633   6.702   4.520   3.604 -0.1130  0.3454  0.3408
 8890TIP3    H126634   6.736   4.603   3.571  3.4179  0.1198  2.8402
 8890TIP3    H226635   6.673   4.541   3.693  0.5446 -0.9675  0.8861
 8891TIP3   OH226636   2.117   2.472   2.629 -0.6777  0.0404 -0.3766
 8891TIP3    H126637   2.154   2.513   2.551  2.8175  0.6718  1.4110
 8891TIP3    H226638   2.052   2.534   2.661 -0.9710  0.5348 -1.8915
 8892TIP3   OH226639   2.544   6.037   5.582  0.0752  0.1361 -0.2037
 8892TIP3    H126640   2.541   6.019   5.488 -1.8252  0.1464 -0.1809
 8892TIP3    H226641   2.454   6.022   5.613  0.2504  1.8061  1.2932
 8893TIP3   OH226642   3.238   1.135   3.019 -0.1147 -0.5061 -0.1130
 8893TIP3    H126643   3.157   1.109   3.063  0.6205 -2.2620  0.2896
 8893TIP3    H226644   3.215   1.214   2.971 -1.6720 -0.0968  1.2074
 8894TIP3   OH226645   1.264   6.267   3.099  0.2388  0.0948 -0.0339
 8894TIP3    H126646   1.278   6.337   3.034 -0.8038 -1.2307 -1.7644
 8894TIP3    H226647   1.271   6.312   3.184 -0.8827  2.4051 -1.0673
 8895TIP3   OH226648   1.656   6.141   4.993 -0.0333 -0.3887  0.9175
 8895TIP3    H126649   1.622   6.184   5.071  1.0993 -0.4408  1.4671
 8895TIP3    H226650   1.701   6.210   4.945 -1.1355 -0.2541  0.0474
 8896TIP3   OH226651   5.334   0.620   3.895  0.3861 -0.4201 -0.2518
 8896TIP3    H126652   5.376   0.609   3.810 -0.9938 -0.6164 -0.9427
 8896TIP3    H226653   5.361   0.707   3.924  1.5857 -0.7067 -0.4546
 8897TIP3   OH226654   0.143   6.072   2.074  0.6220  0.1230  0.2222
 8897TIP3    H126655   0.215   6.054   2.015  0.4028  2.3517 -0.8493
 8897TIP3    H226656   0.083   5.999   2.063  0.7544  0.2967 -2.1110
 8898TIP3   OH226657   6.589   3.109   3.307 -0.0267  0.1278 -0.3641
 8898TIP3    H126658   6.516   3.050   3.289  0.5808 -0.9136  0.3936
 8898TIP3    H226659   6.666   3.051   3.310  0.4905  0.8325  1.1591
 8899TIP3   OH226660   3.045   0.289   5.327  0.1691 -0.8158  0.3334
 8899TIP3    H126661   3.140   0.284   5.314  0.3033 -0.5503  1.1179
 8899TIP3    H226662   3.035   0.342   5.406 -0.7683  1.6790 -1.3715
 8900TIP3   OH226663   6.222   2.536   2.807 -0.0251 -0.1109 -0.0479
 8900TIP3    H126664   6.299   2.490   2.773 -0.1700 -0.7318  0.4363
 8900TIP3    H226665   6.229   2.526   2.902  0.3172  1.5004  0.1189
 8901TIP3   OH226666   0.357   4.846   2.364 -0.4116 -0.8631  0.1272
 8901TIP3    H126667   0.447   4.814   2.372  0.6186  1.1566 -2.3152
 8901TIP3    H226668   0.348   4.910   2.436  0.6963  0.1105 -0.5698
 8902TIP3   OH226669   2.682   6.717   1.552 -0.1014 -0.5063  0.0272
 8902TIP3    H126670   2.590   6.728   1.530  0.3104  1.2393 -0.9914
 8902TIP3    H226671   2.710   6.803   1.582  1.5073 -0.6686 -0.9183
 8903TIP3   OH226672   6.021   4.816   2.651 -0.6464 -0.8271  0.3296
 8903TIP3    H126673   6.106   4.776   2.634 -0.8582 -1.1329 -0.0620
 8903TIP3    H226674   6.031   4.863   2.733  0.9257  2.0467 -1.3587
 8904TIP3   OH226675   5.312   4.690   1.184 -0.1633  0.0879  0.0522
 8904TIP3    H126676   5.248   4.652   1.123 -0.7197  0.4304  0.4146
 8904TIP3    H226677   5.277   4.669   1.271  1.2491 -1.4636  0.2834
 8905TIP3   OH226678   6.899   2.075   2.964  0.3698 -0.0438  0.1248
 8905TIP3    H126679   6.855   2.065   3.048  0.9372  0.8180  0.5295
 8905TIP3    H226680   6.861   2.006   2.909 -0.6044 -0.0780  0.8259
 8906TIP3   OH226681   5.977   2.094   5.842 -0.2984  0.4836  0.3510
 8906TIP3    H126682   6.044   2.082   5.909 -0.7301 -0.4251  0.6321
 8906TIP3    H226683   5.943   2.006   5.826 -1.3237  0.9165  0.0976
 8907TIP3   OH226684   4.432   2.535   1.128 -0.3493 -0.1274  0.2487
 8907TIP3    H126685   4.486   2.516   1.051 -0.4559 -1.1277  0.4128
 8907TIP3    H226686   4.396   2.622   1.110  1.6120  0.7677  0.3140
 8908TIP3   OH226687   6.163   0.145   2.431 -0.6233  0.1521  0.4139
 8908TIP3    H126688   6.240   0.199   2.414 -0.0056 -1.0489 -0.7839
 8908TIP3    H226689   6.108   0.199   2.488  0.0873  1.9104 -0.4986
 8909TIP3   OH226690   6.233   5.839   5.886  0.1221  0.0574  0.1848
 8909TIP3    H126691   6.221   5.763   5.828 -0.0269 -1.1604  1.7243
 8909TIP3    H226692   6.152   5.889   5.877  0.6011  0.5907 -1.5647
 8910TIP3   OH226693   2.500   3.982   3.762  0.1460 -0.3863  0.1721
 8910TIP3    H126694   2.477   3.909   3.819  1.0068 -0.5129  0.3653
 8910TIP3    H226695   2.592   3.999   3.780 -0.0661  0.8204  0.2163
 8911TIP3   OH226696   2.811   5.186   0.126 -0.5378 -0.0920 -0.4713
 8911TIP3    H126697   2.739   5.205   0.066 -1.8052 -1.1515  0.6444
 8911TIP3    H226698   2.874   5.256   0.111 -0.4933 -0.6275 -3.4650
 8912TIP3   OH226699   3.031   5.842   4.922 -0.3260 -0.5608  0.0947
 8912TIP3    H126700   3.074   5.927   4.916 -0.4412 -0.4749  0.4853
 8912TIP3    H226701   3.101   5.779   4.902  0.3836 -0.5122  2.1857
 8913TIP3   OH226702   1.036   6.688   4.067 -0.2197  0.4535  0.2295
 8913TIP3    H126703   1.050   6.741   3.989  0.7221  1.7374  1.2374
 8913TIP3    H226704   0.943   6.700   4.088 -0.7796 -0.8407 -1.3228
 8914TIP3   OH226705   3.077   2.335   0.329 -0.2564  0.6517  0.3495
 8914TIP3    H126706   3.017   2.398   0.289 -0.0440  0.9148  0.4401
 8914TIP3    H226707   3.146   2.325   0.263  0.3582  1.4742  0.8532
 8915TIP3   OH226708   4.007   0.974   2.362  0.4269 -0.2312 -0.1550
 8915TIP3    H126709   4.005   0.913   2.436  0.2257  0.7457  0.6801
 8915TIP3    H226710   3.939   0.943   2.303  1.7001 -2.0103 -0.7659
 8916TIP3   OH226711   6.304   2.600   4.543 -0.1670 -0.2097  0.6241
 8916TIP3    H126712   6.385   2.639   4.576  1.0401 -1.0189 -1.2276
 8916TIP3    H226713   6.264   2.669   4.490 -1.1753  0.4741  2.2030
 8917TIP3   OH226714   1.276   4.005   2.368  0.3273 -0.3404  0.1657
 8917TIP3    H126715   1.211   3.987   2.301  1.5934 -0.1910 -1.1410
 8917TIP3    H226716   1.271   3.930   2.428 -0.7157 -0.5393 -0.1635
 8918TIP3   OH226717   4.797   2.153   1.951 -0.3158 -0.1653 -0.3622
 8918TIP3    H126718   4.736   2.090   1.988 -1.1755  0.6147 -0.4361
 8918TIP3    H226719   4.745   2.232   1.936  1.0635  1.0748  1.0870
 8919TIP3   OH226720   3.008   3.309   1.410  0.2209  0.1832  0.2072
 8919TIP3    H126721   2.951   3.300   1.333 -2.8286 -1.7120  2.4732
 8919TIP3    H226722   3.012   3.403   1.426  1.0971  0.6579 -2.2511
 8920TIP3   OH226723   7.138   5.830   2.909  0.3705 -0.2019  0.2379
 8920TIP3    H126724   7.125   5.900   2.973  0.4263  0.8537 -0.8637
 8920TIP3    H226725   7.053   5.787   2.903 -0.9295  2.3488 -1.9542
 8921TIP3   OH226726   4.135   4.820   2.875 -0.0517  0.3695  0.4789
 8921TIP3    H126727   4.095   4.838   2.960  0.6305  0.5013  0.7787
 8921TIP3    H226728   4.074   4.761   2.831 -0.8181  0.9789  0.7192
 8922TIP3   OH226729   0.703   2.841   2.756 -0.3753 -0.3400 -0.1512
 8922TIP3    H126730   0.754   2.767   2.789 -0.7734 -0.9817 -0.9321
 8922TIP3    H226731   0.655   2.873   2.832  1.3044  0.3929  0.6323
 8923TIP3   OH226732   3.006   1.257   4.603 -0.9558 -0.2598  0.1704
 8923TIP3    H126733   2.996   1.166   4.577 -0.7256 -0.4148  0.6087
 8923TIP3    H226734   3.100   1.275   4.596 -1.0743  0.1288 -0.5046
 8924TIP3   OH226735   3.651   3.005   0.947  0.4096  0.1363  0.0575
 8924TIP3    H126736   3.578   3.067   0.935 -0.3211 -0.8303 -0.6685
 8924TIP3    H226737   3.722   3.041   0.894 -0.8734 -0.9662 -2.5894
 8925TIP3   OH226738   3.319   3.892   5.513  0.6599 -0.1438  0.0793
 8925TIP3    H126739   3.286   3.804   5.493  0.1309  0.1888 -0.5684
 8925TIP3    H226740   3.413   3.881   5.522  0.8456 -0.4729 -1.8575
 8926TIP3   OH226741   5.460   4.377   0.235 -0.6632  0.0236  0.0968
 8926TIP3    H126742   5.521   4.364   0.308  1.6193  2.5840 -1.1818
 8926TIP3    H226743   5.476   4.303   0.177  3.0644  1.6921 -1.2874
 8927TIP3   OH226744   3.084   0.353   4.366 -0.1477 -0.0670 -0.2124
 8927TIP3    H126745   3.073   0.258   4.358  3.0774 -0.5062 -0.8648
 8927TIP3    H226746   3.169   0.363   4.408 -0.7220  2.5806  0.4518
 8928TIP3   OH226747   3.860   4.955   0.540  0.5150  0.0330  0.0437
 8928TIP3    H126748   3.943   4.943   0.586  0.9475 -0.8617 -0.9390
 8928TIP3    H226749   3.816   4.870   0.546  1.4286 -0.7615 -2.7677
 8929TIP3   OH226750   6.864   1.135   4.603 -0.0860  0.3922 -0.1248
 8929TIP3    H126751   6.808   1.121   4.526  0.4176 -1.0649 -0.2550
 8929TIP3    H226752   6.853   1.228   4.623 -1.5576  0.4310 -0.9170
 8930TIP3   OH226753   3.842   3.635   5.022 -0.5945 -0.0274  0.0559
 8930TIP3    H126754   3.878   3.712   4.977 -1.1349 -0.0384 -0.4120
 8930TIP3    H226755   3.900   3.563   4.998  1.9402  0.7356  3.1141
 8931TIP3   OH226756   6.092   5.822   4.403 -0.5881 -0.2077  0.3318
 8931TIP3    H126757   6.064   5.782   4.321  2.3214 -1.1679 -0.3130
 8931TIP3    H226758   6.035   5.783   4.469  0.2621 -3.4295 -0.6488
 8932TIP3   OH226759   6.363   1.572   1.050 -0.6333  0.3931  0.2282
 8932TIP3    H126760   6.398   1.522   1.124 -0.5748 -1.0807 -0.7424
 8932TIP3    H226761   6.356   1.662   1.082 -1.2641 -0.3168  2.2400
 8933TIP3   OH226762   4.451   5.957   4.060  0.5555 -0.3487 -0.2293
 8933TIP3    H126763   4.374   5.996   4.020 -0.7549 -2.3769  0.1513
 8933TIP3    H226764   4.486   5.898   3.993  0.7404 -0.7403  0.2036
 8934TIP3   OH226765   4.019   1.041   1.175  0.2271  0.5002  0.1829
 8934TIP3    H126766   4.036   1.027   1.269  1.8639  0.1515 -0.1335
 8934TIP3    H226767   4.020   1.136   1.165  1.1622  0.5187  0.3522
 8935TIP3   OH226768   2.233   0.330   2.995  0.6439  0.1252 -0.7754
 8935TIP3    H126769   2.163   0.339   2.930 -1.1257 -0.4535  0.9710
 8935TIP3    H226770   2.265   0.420   3.007 -0.0804  0.4673 -1.2978
 8936TIP3   OH226771   3.110   5.597   2.214  0.6590  0.8067  0.2401
 8936TIP3    H126772   3.046   5.663   2.241  0.3350  1.0560 -1.0542
 8936TIP3    H226773   3.155   5.637   2.139 -0.6328 -1.0336 -1.5859
 8937TIP3   OH226774   3.304   5.928   5.164 -0.1796  0.5444  0.0688
 8937TIP3    H126775   3.387   5.912   5.119 -1.1348  0.4355 -1.7896
 8937TIP3    H226776   3.253   5.849   5.149 -0.6520  0.6225  1.1574
 8938TIP3   OH226777   2.037   2.782   5.697  0.6918  0.1711  0.1177
 8938TIP3    H126778   2.096   2.781   5.772  0.9502  0.8187 -0.0698
 8938TIP3    H226779   1.949   2.784   5.737  0.8418  1.8259  0.4395
 8939TIP3   OH226780   5.960   0.684   2.652  0.4782 -0.1912 -0.7508
 8939TIP3    H126781   5.977   0.632   2.731 -0.5041  1.3315  0.5152
 8939TIP3    H226782   6.011   0.640   2.584  1.3144 -1.5994  0.6997
 8940TIP3   OH226783   4.167   4.400   4.954  0.3519 -0.3495  0.4556
 8940TIP3    H126784   4.139   4.479   4.907 -0.2834  0.2910  1.8509
 8940TIP3    H226785   4.263   4.402   4.950  0.3243  0.1429 -0.0650
 8941TIP3   OH226786   5.326   4.753   4.417 -0.1699 -0.0292 -0.3207
 8941TIP3    H126787   5.399   4.705   4.457 -0.1403  0.9202  0.8040
 8941TIP3    H226788   5.263   4.684   4.393  0.6863 -0.7805 -0.4851
 8942TIP3   OH226789   2.001   0.035   3.612 -0.0952 -0.4256  0.0401
 8942TIP3    H126790   2.059   0.078   3.674  0.3752 -1.3973  0.2834
 8942TIP3    H226791   2.046  -0.045   3.587 -0.3948 -0.1984 -1.3530
 8943TIP3   OH226792   1.061   1.376   4.216 -0.1327 -0.0099 -0.0690
 8943TIP3    H126793   1.156   1.372   4.206  0.0690  0.5038  1.3309
 8943TIP3    H226794   1.046   1.456   4.267 -1.6797  2.3783 -3.8884
 8944TIP3   OH226795   2.834   1.218   5.369  0.0880 -0.5770 -0.0245
 8944TIP3    H126796   2.865   1.290   5.423 -0.2063 -1.7129  1.7492
 8944TIP3    H226797   2.913   1.180   5.330  0.2460  0.6362 -0.9400
 8945TIP3   OH226798   2.350   6.432   5.664 -1.3169 -0.0006  0.2199
 8945TIP3    H126799   2.296   6.500   5.626 -0.0323  0.2448 -1.2568
 8945TIP3    H226800   2.316   6.350   5.628 -0.5386  0.1808 -0.9917
 8946TIP3   OH226801   5.659   3.992   4.039 -0.4215  0.0779 -0.0367
 8946TIP3    H126802   5.686   3.910   4.081 -0.6258  0.0179 -0.0218
 8946TIP3    H226803   5.741   4.032   4.010 -0.4209 -1.3589 -2.3367
 8947TIP3   OH226804   1.159   1.802   3.844 -0.2117  0.1976  0.5027
 8947TIP3    H126805   1.125   1.776   3.759  0.0433  2.2945 -0.3138
 8947TIP3    H226806   1.174   1.720   3.891 -0.8959 -0.9794 -1.2493
 8948TIP3   OH226807   4.112   1.660   3.019  0.6259  0.1094  0.0687
 8948TIP3    H126808   4.049   1.602   2.975  0.9883 -1.0804  1.0601
 8948TIP3    H226809   4.185   1.667   2.957 -0.5961  1.8212 -1.2655
 8949TIP3   OH226810   2.953   4.500   4.373  0.3781  0.0528 -0.3726
 8949TIP3    H126811   2.925   4.433   4.310  0.2961  0.9083 -1.2586
 8949TIP3    H226812   3.003   4.451   4.438 -0.4837 -1.0153 -0.4889
 8950TIP3   OH226813   4.502   1.499   5.863 -0.2425  0.1528 -0.1870
 8950TIP3    H126814   4.408   1.501   5.846 -0.3081  0.8579  0.1880
 8950TIP3    H226815   4.542   1.521   5.780 -0.2402 -3.2063 -1.2217
 8951TIP3   OH226816   2.909   6.554   3.153  0.0677 -0.1382  0.4619
 8951TIP3    H126817   2.962   6.610   3.209 -0.6619 -0.2794  1.3176
 8951TIP3    H226818   2.863   6.615   3.095 -0.0983  0.1030  0.8426
 8952TIP3   OH226819   3.315   4.844   0.715  0.5397  0.3869 -0.7551
 8952TIP3    H126820   3.245   4.889   0.668 -2.0590 -1.8164  0.7044
 8952TIP3    H226821   3.346   4.909   0.779 -3.4146  0.2402  1.6440
 8953TIP3   OH226822   2.862   0.966   0.399  0.2098 -0.1671  0.7919
 8953TIP3    H126823   2.874   1.051   0.442 -1.5785 -1.0454  3.2698
 8953TIP3    H226824   2.945   0.950   0.353  1.7296  1.5672  2.7524
 8954TIP3   OH226825   5.068   1.233   4.204 -0.3433 -0.1219 -0.1290
 8954TIP3    H126826   5.153   1.207   4.169 -1.4956 -1.3937 -2.2015
 8954TIP3    H226827   5.037   1.155   4.250 -0.5797  0.1810  0.2272
 8955TIP3   OH226828   5.560   0.858   3.016 -0.3714  0.8978 -0.0630
 8955TIP3    H126829   5.642   0.873   3.064  0.4915 -2.3471 -0.2924
 8955TIP3    H226830   5.524   0.778   3.054 -1.7326  0.4279 -2.1683
 8956TIP3   OH226831   0.735   5.962   2.925  0.6479 -0.1250 -0.2224
 8956TIP3    H126832   0.726   5.905   3.001 -1.9869  1.3263  0.6871
 8956TIP3    H226833   0.679   5.922   2.858 -1.1004  1.1796  0.3746
 8957TIP3   OH226834   4.449   5.208   3.664 -0.2464 -0.4823 -0.0386
 8957TIP3    H126835   4.433   5.150   3.590  0.6077  0.4720 -1.0229
 8957TIP3    H226836   4.516   5.163   3.716 -0.9658 -1.2312  0.2585
 8958TIP3   OH226837   5.579   6.492   0.786  0.1292  0.3202 -0.5075
 8958TIP3    H126838   5.516   6.444   0.732 -0.7620  1.0555 -0.1441
 8958TIP3    H226839   5.609   6.428   0.851 -1.8720  0.4809  0.6665
 8959TIP3   OH226840   0.477   4.310   2.319  0.1828  0.3298  0.4984
 8959TIP3    H126841   0.544   4.308   2.387  1.7475  0.1450 -0.9768
 8959TIP3    H226842   0.507   4.246   2.254 -1.3586  0.3556 -0.2772
 8960TIP3   OH226843   3.055   6.134   5.795 -0.3195  0.1676  0.3967
 8960TIP3    H126844   3.108   6.163   5.721 -1.4441  0.5278 -0.2987
 8960TIP3    H226845   3.002   6.210   5.818 -0.3170 -0.0873  1.2710
 8961TIP3   OH226846   3.489   1.652   3.217  0.2948  0.2430  0.3049
 8961TIP3    H126847   3.533   1.732   3.190 -0.0187  0.5289  0.6297
 8961TIP3    H226848   3.476   1.603   3.136  0.9563  0.2787  0.1675
 8962TIP3   OH226849   4.343   2.514   0.401  0.8588  0.2070 -0.2192
 8962TIP3    H126850   4.365   2.432   0.359  1.3596  0.5118 -0.5665
 8962TIP3    H226851   4.411   2.575   0.372  1.1607  0.4498  0.9485
 8963TIP3   OH226852   3.157   2.466   3.021 -0.2253 -0.2894  0.0256
 8963TIP3    H126853   3.088   2.441   2.960 -0.7798  0.1568  0.4591
 8963TIP3    H226854   3.177   2.557   2.999  0.0244 -0.3307  0.0864
 8964TIP3   OH226855   5.052   4.595   1.097 -0.6582 -0.2185 -0.1374
 8964TIP3    H126856   5.043   4.687   1.122 -1.4533  0.3379 -2.2441
 8964TIP3    H226857   4.992   4.548   1.154  0.9864  0.2747  2.1310
 8965TIP3   OH226858   2.247   4.729   5.107 -0.0046  0.7092 -0.0201
 8965TIP3    H126859   2.285   4.641   5.102 -0.4231  0.4746  0.6585
 8965TIP3    H226860   2.152   4.714   5.102 -0.1098  1.0569  0.7422
 8966TIP3   OH226861   6.054   0.805   1.590  0.4795  0.2966 -0.3841
 8966TIP3    H126862   6.071   0.775   1.500  1.5561 -0.1600 -0.0488
 8966TIP3    H226863   6.082   0.897   1.590  2.7229 -0.3137  0.0329
 8967TIP3   OH226864   1.856   0.925   3.953 -0.0814 -0.2982  0.5496
 8967TIP3    H126865   1.902   0.843   3.966  0.8337 -0.1021 -1.1798
 8967TIP3    H226866   1.925   0.992   3.952 -0.4940  0.1452 -0.7951
 8968TIP3   OH226867   5.269   0.046   1.806  0.5138  0.3764  0.2183
 8968TIP3    H126868   5.293  -0.033   1.855  1.8098 -0.8065 -2.1987
 8968TIP3    H226869   5.306   0.118   1.858  0.7406 -0.6902  1.6117
 8969TIP3   OH226870   4.287   0.831   1.510  0.1669 -0.2251  0.1876
 8969TIP3    H126871   4.320   0.909   1.554  0.5525  0.1181 -0.6867
 8969TIP3    H226872   4.365   0.778   1.492  0.2039  0.2716 -1.2722
 8970TIP3   OH226873   0.729   2.449   1.579 -0.4145  0.0921 -0.1984
 8970TIP3    H126874   0.801   2.459   1.517 -0.2880 -0.7564 -0.2002
 8970TIP3    H226875   0.745   2.365   1.622 -2.5432 -1.2044 -1.7237
 8971TIP3   OH226876   5.851   0.147   3.221  0.2787 -0.0290 -0.4979
 8971TIP3    H126877   5.854   0.174   3.129  2.5614 -0.1079 -0.5156
 8971TIP3    H226878   5.765   0.175   3.252 -0.0751  1.0798 -2.3365
 8972TIP3   OH226879   3.949   5.653   5.630  0.2590 -0.1818  0.4797
 8972TIP3    H126880   3.874   5.626   5.577 -0.1923 -0.0818  1.0612
 8972TIP3    H226881   3.911   5.704   5.701  0.8734 -0.2064  0.8329
 8973TIP3   OH226882   2.170   2.613   4.968 -0.1431 -0.6448  0.4324
 8973TIP3    H126883   2.223   2.639   5.043 -0.8723  1.6805  0.2320
 8973TIP3    H226884   2.080   2.631   4.995 -0.3961  0.5373 -1.0702
 8974TIP3   OH226885   0.062   3.781   2.847  0.4880 -0.1914 -0.5210
 8974TIP3    H126886   0.076   3.690   2.873 -2.1086 -0.1345  1.4240
 8974TIP3    H226887  -0.021   3.780   2.799 -0.5263  1.3553  1.0923
 8975TIP3   OH226888   5.359   6.504   0.537 -0.3251 -0.0252 -0.0319
 8975TIP3    H126889   5.322   6.456   0.463  0.8617  0.2238 -0.8038
 8975TIP3    H226890   5.422   6.564   0.498  1.5351 -1.0232  1.3149
 8976TIP3   OH226891   6.696   0.598   2.144  0.4842 -0.9009 -0.3814
 8976TIP3    H126892   6.734   0.571   2.227 -0.8028 -0.6133  0.3169
 8976TIP3    H226893   6.748   0.675   2.118  1.4116 -1.4748 -0.2642
 8977TIP3   OH226894   6.646   5.319   1.785  0.2941 -0.4781  0.1651
 8977TIP3    H126895   6.706   5.319   1.710 -0.4597  1.4593 -0.4973
 8977TIP3    H226896   6.695   5.365   1.854  0.8196 -1.8756  0.7602
 8978TIP3   OH226897   1.825   4.355   3.062 -0.1363  0.1799 -0.1940
 8978TIP3    H126898   1.823   4.378   3.155  1.5720  0.8421 -0.2812
 8978TIP3    H226899   1.905   4.397   3.029 -1.7412  1.6846 -2.4412
 8979TIP3   OH226900   2.466   2.292   5.094 -0.7775  0.0571  0.0694
 8979TIP3    H126901   2.419   2.215   5.125 -0.0330 -0.4491 -0.0159
 8979TIP3    H226902   2.509   2.327   5.172 -1.4482  0.6313  0.1838
 8980TIP3   OH226903   4.057   1.313   4.325 -0.5997  0.6134  0.2035
 8980TIP3    H126904   3.991   1.287   4.390 -2.0657  1.5905 -0.8262
 8980TIP3    H226905   4.042   1.253   4.252  1.1870 -0.6245  0.8020
 8981TIP3   OH226906   7.200   5.751   2.184 -0.1854 -0.8184  0.1135
 8981TIP3    H126907   7.133   5.813   2.156 -0.1930 -0.7256  0.3396
 8981TIP3    H226908   7.187   5.674   2.127  1.0555  0.1224 -1.5173
 8982TIP3   OH226909   1.309   0.712   3.673  0.3214  0.3639  0.1044
 8982TIP3    H126910   1.402   0.695   3.689  0.4827 -0.5890 -1.5784
 8982TIP3    H226911   1.268   0.626   3.682 -0.3676  0.7402  0.6058
 8983TIP3   OH226912   2.624   2.562   5.824 -0.1975 -0.6980  0.6153
 8983TIP3    H126913   2.596   2.586   5.736  0.0303  1.0409  0.9790
 8983TIP3    H226914   2.611   2.467   5.829 -0.9340 -0.7063 -1.0162
 8984TIP3   OH226915   2.357   0.087   4.046  0.2699 -0.0701 -0.1025
 8984TIP3    H126916   2.416   0.014   4.024  0.1409 -0.3152  0.3576
 8984TIP3    H226917   2.287   0.046   4.098 -0.7852  0.0510 -1.3712
 8985TIP3   OH226918   0.374   1.625   3.519 -0.0249  0.2106  0.3245
 8985TIP3    H126919   0.288   1.652   3.488  0.0808  0.3496  0.1547
 8985TIP3    H226920   0.383   1.535   3.489  0.0914  0.3544 -0.0754
 8986TIP3   OH226921   2.140   5.921   1.531 -0.4170  0.0443  0.0322
 8986TIP3    H126922   2.210   5.922   1.466 -0.0752 -1.2608  0.3548
 8986TIP3    H226923   2.182   5.895   1.612 -0.7466  2.1328  0.9392
 8987TIP3   OH226924   3.955   3.954   1.930  0.0300 -0.4525 -0.4488
 8987TIP3    H126925   3.886   3.947   1.864 -0.5383  1.1715 -0.0941
 8987TIP3    H226926   4.027   3.902   1.896 -0.4840 -0.1763 -2.0480
 8988TIP3   OH226927   4.142   0.590   1.692 -0.7868 -0.5701 -0.2921
 8988TIP3    H126928   4.167   0.650   1.762 -1.2921 -0.8369  0.1223
 8988TIP3    H226929   4.201   0.612   1.619 -1.2256  0.7145 -0.2922
 8989TIP3   OH226930   2.068   6.704   4.804  0.0667  0.2840 -0.0321
 8989TIP3    H126931   2.154   6.691   4.766  0.8534 -0.0662  1.7439
 8989TIP3    H226932   2.024   6.765   4.745  1.8074  1.0890 -0.5655
 8990TIP3   OH226933   2.866   4.493   0.559  0.1974 -0.3153  0.0659
 8990TIP3    H126934   2.857   4.489   0.654  1.9197  1.6071  0.3749
 8990TIP3    H226935   2.811   4.566   0.533 -0.2656 -0.8338 -0.4552
 8991TIP3   OH226936   6.742   4.303   2.896  0.8649  0.0056  0.2518
 8991TIP3    H126937   6.784   4.376   2.851  0.3217 -0.1570 -0.5454
 8991TIP3    H226938   6.667   4.343   2.942 -0.7729 -0.3046 -1.9720
 8992TIP3   OH226939   5.606   3.062   3.478  0.1062 -0.0390 -0.6849
 8992TIP3    H126940   5.629   3.134   3.536 -0.5239 -0.7753  0.5184
 8992TIP3    H226941   5.545   3.100   3.416  1.2931  0.9177 -1.3100
 8993TIP3   OH226942   4.666   3.320   0.155 -0.4250  0.3596 -0.4325
 8993TIP3    H126943   4.602   3.361   0.214  0.4700  1.4734 -0.1974
 8993TIP3    H226944   4.670   3.229   0.184 -2.1814  0.1563 -0.7072
 8994TIP3   OH226945   5.484   4.228   3.848  0.3600 -0.1971 -0.7460
 8994TIP3    H126946   5.449   4.275   3.772  2.0207  1.2667 -0.6756
 8994TIP3    H226947   5.406   4.197   3.895 -0.9363  2.9374 -0.5455
 8995TIP3   OH226948   1.960   5.249   4.720  0.2430  0.0786  0.0050
 8995TIP3    H126949   1.898   5.178   4.735  2.0400 -1.4332  0.8228
 8995TIP3    H226950   2.042   5.218   4.760  1.7070  1.6741 -1.5435
 8996TIP3   OH226951   0.855   2.044   0.301  0.0260 -0.5864  0.6489
 8996TIP3    H126952   0.929   2.103   0.311 -1.0710  0.8200  0.9070
 8996TIP3    H226953   0.882   1.982   0.233  1.3713 -0.0260  0.6433
 8997TIP3   OH226954   1.373   5.530   2.849 -0.0247 -0.3695  0.6982
 8997TIP3    H126955   1.416   5.498   2.769  1.0533  3.0817 -0.3019
 8997TIP3    H226956   1.280   5.521   2.831  0.1721  1.0637 -1.3930
 8998TIP3   OH226957   2.978   5.206   5.593  0.0264  0.2192  0.2649
 8998TIP3    H126958   2.911   5.140   5.576  0.8795 -1.0043  1.3947
 8998TIP3    H226959   3.054   5.176   5.543  0.3818  0.4125  0.6786
 8999TIP3   OH226960   5.636   6.004   2.661 -0.4337 -0.0781  0.2010
 8999TIP3    H126961   5.689   6.065   2.611 -0.2577 -1.3460 -1.2412
 8999TIP3    H226962   5.680   5.999   2.746  0.4034  0.6582 -0.1669
 9000TIP3   OH226963   3.155   3.670   4.366 -0.6187 -0.5041 -0.0031
 9000TIP3    H126964   3.144   3.575   4.361 -1.2619 -0.6102  2.3009
 9000TIP3    H226965   3.067   3.705   4.354 -0.9565 -0.4261  2.3418
 9001TIP3   OH226966   0.084   4.515   0.873 -0.1996 -0.0076  0.2514
 9001TIP3    H126967  -0.006   4.546   0.864 -0.2260 -0.2055 -0.1485
 9001TIP3    H226968   0.083   4.463   0.953 -0.5658 -0.4651 -0.0485
 9002TIP3   OH226969   3.938   4.586   0.572 -0.0566 -0.0689 -0.3571
 9002TIP3    H126970   4.007   4.650   0.588  1.1997 -0.5911 -3.1096
 9002TIP3    H226971   3.864   4.637   0.541  0.1383  0.2480 -0.3038
 9003TIP3   OH226972   7.046   1.204   2.757  1.2169  0.1242 -0.3468
 9003TIP3    H126973   7.062   1.266   2.686  0.8049 -0.8540 -1.3435
 9003TIP3    H226974   6.994   1.135   2.716  2.1835 -1.1885  0.5444
 9004TIP3   OH226975   2.415   2.232   0.959 -0.3526  0.4785 -0.2823
 9004TIP3    H126976   2.347   2.229   1.027  0.2809 -0.6214  0.3272
 9004TIP3    H226977   2.490   2.186   0.998  0.1265  0.0937 -1.6138
 9005TIP3   OH226978   3.590   2.360   0.265  0.0290 -0.0891 -0.0090
 9005TIP3    H126979   3.674   2.401   0.287  0.7884 -0.2522 -2.3285
 9005TIP3    H226980   3.610   2.267   0.260 -0.8169 -0.3794  1.4898
 9006TIP3   OH226981   0.602   1.493   3.757 -0.4349  0.6641  0.2082
 9006TIP3    H126982   0.565   1.481   3.845  1.7356  0.1710  1.1313
 9006TIP3    H226983   0.591   1.586   3.739 -1.4365  0.6651  0.7385
 9007TIP3   OH226984   1.818   1.225   2.917  0.7018 -0.5624  0.2064
 9007TIP3    H126985   1.866   1.253   2.839 -0.7338 -1.1039 -0.9210
 9007TIP3    H226986   1.885   1.213   2.984  1.8470  1.0829 -0.5788
 9008TIP3   OH226987   2.816   2.666   1.252 -0.1608  0.1672  0.4333
 9008TIP3    H126988   2.737   2.714   1.276  0.3560  0.4090  1.7097
 9008TIP3    H226989   2.787   2.607   1.181 -1.4518  0.3152  0.8074
 9009TIP3   OH226990   5.664   1.929   3.749 -0.5675  0.2980 -0.6350
 9009TIP3    H126991   5.715   1.881   3.685 -0.8817  0.7138 -1.2084
 9009TIP3    H226992   5.699   2.018   3.746  0.2960  0.0302  0.7238
 9010TIP3   OH226993   3.747   1.841   5.369 -0.2758  0.1474 -0.2265
 9010TIP3    H126994   3.767   1.775   5.435 -0.1976  1.4426  1.1069
 9010TIP3    H226995   3.658   1.868   5.388  0.1612  1.4044  0.1578
 9011TIP3   OH226996   4.360   2.675   3.316 -0.0453  0.0031  0.1147
 9011TIP3    H126997   4.413   2.739   3.364  0.1459 -0.3140  0.3274
 9011TIP3    H226998   4.413   2.595   3.316  0.2723  0.1823 -1.2185
 9012TIP3   OH226999   3.131   3.389   0.581 -0.0461  0.1875 -0.2940
 9012TIP3    H127000   3.104   3.393   0.489 -0.9569  0.2292 -0.0253
 9012TIP3    H227001   3.129   3.479   0.611  4.7435  0.9611 -1.4551
 9013TIP3   OH227002   1.126   1.685   0.076  0.0059  0.1998  0.5440
 9013TIP3    H127003   1.216   1.716   0.074 -0.6645  2.4906 -2.6159
 9013TIP3    H227004   1.127   1.605   0.023  0.0169  1.0898 -0.8605
 9014TIP3   OH227005   4.175   3.862   1.744 -0.2554  0.4356  0.0635
 9014TIP3    H127006   4.262   3.880   1.779 -0.8126 -1.9825  3.1251
 9014TIP3    H227007   4.192   3.828   1.656  1.7581  1.3079  0.0472
 9015TIP3   OH227008   6.085   4.123   3.456  0.0957  0.2553 -0.0660
 9015TIP3    H127009   6.042   4.067   3.392  0.4315  0.0703 -0.1274
 9015TIP3    H227010   6.071   4.212   3.423  0.3635  0.1557 -0.4560
 9016TIP3   OH227011   6.352   2.533   5.509  0.1296 -0.2625  0.6610
 9016TIP3    H127012   6.359   2.530   5.604  1.1554  0.6770  0.6396
 9016TIP3    H227013   6.402   2.457   5.479  0.9195  0.1633  0.8543
 9017TIP3   OH227014   2.537   4.403   5.386  0.1111  0.2741 -0.0112
 9017TIP3    H127015   2.538   4.359   5.470 -0.8306  2.6775  1.3593
 9017TIP3    H227016   2.629   4.427   5.371  0.4940 -1.2884 -0.3689
 9018TIP3   OH227017   6.711   6.259   2.246 -0.6781 -0.3766  0.1235
 9018TIP3    H127018   6.690   6.185   2.189 -0.3575 -0.0489 -0.4397
 9018TIP3    H227019   6.674   6.236   2.331 -1.0011 -0.9650 -0.1697
 9019TIP3   OH227020   1.502   1.067   0.787  0.5000 -0.2464  0.2179
 9019TIP3    H127021   1.540   1.011   0.854  1.2516  1.5945  1.4260
 9019TIP3    H227022   1.563   1.141   0.781 -1.8731  1.8683  0.8093
 9020TIP3   OH227023   3.550   0.096   0.005 -0.1079  0.1469 -0.3689
 9020TIP3    H127024   3.618   0.069   0.068 -1.1066  2.1067  1.7032
 9020TIP3    H227025   3.479   0.034   0.018 -1.3643  2.0079  2.4853
 9021TIP3   OH227026   2.125   2.160   4.299 -0.2279 -0.1278  0.2433
 9021TIP3    H127027   2.105   2.229   4.236  0.1813  0.7704  1.0641
 9021TIP3    H227028   2.117   2.078   4.250 -2.0501  0.4091 -0.4412
 9022TIP3   OH227029   3.997   2.534   3.914  0.5342  0.0232 -0.3252
 9022TIP3    H127030   4.082   2.577   3.921  0.2214  0.8269 -1.1809
 9022TIP3    H227031   4.011   2.462   3.852  0.6774 -0.0701 -0.1829
 9023TIP3   OH227032   0.786   3.599   2.728 -0.4213  0.6967  0.4398
 9023TIP3    H127033   0.793   3.665   2.658  2.0180  1.5602  1.3773
 9023TIP3    H227034   0.751   3.521   2.684  0.1260  1.4950 -1.5372
 9024TIP3   OH227035   5.030   2.717   0.871 -0.1690 -0.4179 -1.1261
 9024TIP3    H127036   5.047   2.642   0.814 -1.7830 -0.5708 -1.4510
 9024TIP3    H227037   4.955   2.761   0.831 -1.1269 -0.3151  0.6785
 9025TIP3   OH227038   0.865   5.379   0.790 -0.3279  0.2012 -0.0189
 9025TIP3    H127039   0.777   5.359   0.760 -0.4782 -0.5028  0.8431
 9025TIP3    H227040   0.852   5.415   0.878  0.1901  0.9121 -0.2232
 9026TIP3   OH227041   5.179   1.460   1.265 -0.2131  0.2995 -0.1520
 9026TIP3    H127042   5.211   1.543   1.299  1.0584  0.2989 -1.2645
 9026TIP3    H227043   5.149   1.412   1.342  0.3499  1.2312  0.6660
 9027TIP3   OH227044   1.484   3.108   5.148 -0.0803  0.1767  0.4097
 9027TIP3    H127045   1.426   3.032   5.153 -0.1399  0.2635  1.2580
 9027TIP3    H227046   1.426   3.183   5.163 -0.4393  0.6225 -2.6278
 9028TIP3   OH227047   2.245   4.041   3.819  0.0930  0.0257  0.1934
 9028TIP3    H127048   2.338   4.046   3.798  0.0007 -1.1247 -0.5880
 9028TIP3    H227049   2.234   3.956   3.860 -0.6549  0.0367  0.0303
 9029TIP3   OH227050   2.736   5.602   1.530  0.2169 -0.9828  0.3337
 9029TIP3    H127051   2.827   5.577   1.513 -0.2532 -2.4696 -0.1770
 9029TIP3    H227052   2.689   5.518   1.537 -0.9875 -0.2667  1.3370
 9030TIP3   OH227053   5.604   2.452   0.374  0.4739 -0.0141 -0.0018
 9030TIP3    H127054   5.575   2.489   0.457 -0.2790 -1.1628  0.2802
 9030TIP3    H227055   5.543   2.487   0.310 -1.5035 -2.1574  0.5436
 9031TIP3   OH227056   2.528   5.937   5.330  0.6251  0.4139 -0.3911
 9031TIP3    H127057   2.436   5.939   5.304  0.5195 -0.8237 -0.1516
 9031TIP3    H227058   2.576   5.947   5.248  0.2969  0.9241 -0.5326
 9032TIP3   OH227059   5.616   6.311   5.859 -0.0106 -0.2080  0.2531
 9032TIP3    H127060   5.670   6.388   5.844  1.1173 -0.9145  0.5735
 9032TIP3    H227061   5.563   6.302   5.779 -0.3042  0.9973  0.3025
 9033TIP3   OH227062   4.388   4.594   5.734  0.3249 -0.6099 -0.0993
 9033TIP3    H127063   4.331   4.670   5.727  0.6504 -0.4098 -0.6731
 9033TIP3    H227064   4.436   4.592   5.650  0.1298 -1.5908 -0.2018
 9034TIP3   OH227065   5.178   3.301   2.783  0.6233 -0.4798  0.0210
 9034TIP3    H127066   5.145   3.284   2.871 -0.3785 -1.9443 -0.5880
 9034TIP3    H227067   5.260   3.347   2.796  1.7567 -2.8162  1.8374
 9035TIP3   OH227068   2.518   0.139   5.124  0.6087  0.6171 -0.0446
 9035TIP3    H127069   2.481   0.095   5.201  0.3197  0.6439 -0.1648
 9035TIP3    H227070   2.509   0.233   5.144 -1.7339  0.6922 -1.1270
 9036TIP3   OH227071   3.770   5.171   0.726  0.4762 -0.1792 -0.0912
 9036TIP3    H127072   3.837   5.207   0.784  1.3101 -2.7361  0.6482
 9036TIP3    H227073   3.817   5.113   0.666 -0.5730  1.2133 -2.4384
 9037TIP3   OH227074   3.759   1.655   4.900 -0.2942 -0.2633 -0.0458
 9037TIP3    H127075   3.784   1.657   4.992 -0.6175  0.9524  0.0236
 9037TIP3    H227076   3.820   1.714   4.856  0.6417 -1.7527 -0.8332
 9038TIP3   OH227077   1.573   2.754   2.424  0.0128 -0.3453 -0.2468
 9038TIP3    H127078   1.612   2.708   2.498 -0.2572 -0.4794 -0.1864
 9038TIP3    H227079   1.515   2.819   2.465 -1.5773 -1.6467 -0.3324
 9039TIP3   OH227080   2.315   5.586   5.855  0.5003 -0.1052 -0.0974
 9039TIP3    H127081   2.272   5.525   5.914 -0.2328 -0.5889 -1.1128
 9039TIP3    H227082   2.409   5.570   5.868  0.3291 -0.8904  0.2096
 9040TIP3   OH227083   6.422   1.150   1.232  0.3538 -0.4168  0.6027
 9040TIP3    H127084   6.513   1.122   1.241 -0.2232 -1.9149  2.5627
 9040TIP3    H227085   6.398   1.124   1.142  1.7986 -0.1249  0.1131
 9041TIP3   OH227086   4.361   6.710   1.275  0.1652  0.3785 -0.1394
 9041TIP3    H127087   4.270   6.680   1.266  0.3752  0.1501 -2.0861
 9041TIP3    H227088   4.378   6.707   1.369 -2.0739  1.1619  0.3718
 9042TIP3   OH227089   6.045   2.232   1.764 -0.1700 -0.2261  0.4886
 9042TIP3    H127090   6.087   2.305   1.810 -1.6625 -2.0657  5.2990
 9042TIP3    H227091   6.110   2.162   1.766 -0.5297 -0.5613  0.4085
 9043TIP3   OH227092   4.823   2.355   4.672 -0.1451 -0.0849  0.2054
 9043TIP3    H127093   4.773   2.393   4.744  2.2646  2.3714  0.7199
 9043TIP3    H227094   4.829   2.262   4.695 -1.8656  0.0811  1.6287
 9044TIP3   OH227095   2.307   4.544   4.352  0.1566  0.1011  0.0872
 9044TIP3    H127096   2.261   4.470   4.312 -0.0477 -0.5414  1.4855
 9044TIP3    H227097   2.265   4.557   4.436  0.3136  1.7098 -0.0444
 9045TIP3   OH227098   3.714   0.031   0.230 -0.1891 -0.1459 -0.5810
 9045TIP3    H127099   3.744   0.084   0.303  0.4579 -1.2388 -0.0305
 9045TIP3    H227100   3.782  -0.036   0.219 -1.4184 -1.4224 -0.6537
 9046TIP3   OH227101   1.965   3.715   4.017 -0.3608 -0.2277  0.4989
 9046TIP3    H127102   2.053   3.749   4.006 -0.2409 -0.8371 -0.5121
 9046TIP3    H227103   1.945   3.730   4.110  0.0090  1.7768  0.2919
 9047TIP3   OH227104   5.760   5.902   4.597 -0.3292  0.2538  0.3241
 9047TIP3    H127105   5.750   5.848   4.518 -0.8360  0.4972  0.2169
 9047TIP3    H227106   5.832   5.861   4.645 -0.4463 -0.2845  0.0521
 9048TIP3   OH227107   5.249   4.360   3.262 -0.2200  0.7821 -0.0007
 9048TIP3    H127108   5.185   4.301   3.303 -0.1161  0.8091  0.2031
 9048TIP3    H227109   5.271   4.318   3.179 -0.1679  0.5503  0.1301
 9049TIP3   OH227110   2.076   4.767   4.370  0.3815  0.2496  0.1979
 9049TIP3    H127111   2.142   4.832   4.393  2.1588 -2.3123  3.1659
 9049TIP3    H227112   2.121   4.707   4.311  0.7142 -1.2921  1.9269
 9050TIP3   OH227113   3.547   3.754   5.602  0.2806 -1.0455  0.1764
 9050TIP3    H127114   3.595   3.817   5.656 -1.9828  2.0260 -1.0650
 9050TIP3    H227115   3.525   3.682   5.661  0.6900  0.6071  2.4633
 9051TIP3   OH227116   6.525   5.906   2.942 -0.1200  0.3868 -0.6068
 9051TIP3    H127117   6.463   5.833   2.944 -1.1107  1.1797 -1.1794
 9051TIP3    H227118   6.588   5.886   3.011 -0.2560 -1.0998 -0.8820
 9052TIP3   OH227119   5.585   2.834   2.820 -0.3095  0.6364  0.4761
 9052TIP3    H127120   5.550   2.843   2.908 -2.0245 -0.5224 -0.0351
 9052TIP3    H227121   5.518   2.786   2.772  1.1193  0.1310 -1.1371
 9053TIP3   OH227122   6.481   2.684   4.928  0.2450  0.4507  0.5669
 9053TIP3    H127123   6.486   2.664   4.835 -3.1801  2.4709 -0.2181
 9053TIP3    H227124   6.467   2.598   4.969  3.1618 -0.6585 -0.4566
 9054TIP3   OH227125   2.927   3.606   0.101 -0.3342 -0.1465 -0.2777
 9054TIP3    H127126   2.956   3.557   0.025  0.3722 -0.2414  0.0496
 9054TIP3    H227127   2.835   3.627   0.082  0.0229  0.4591 -1.4865
 9055TIP3   OH227128   4.373   6.372   3.695 -0.8829  0.2761  0.3869
 9055TIP3    H127129   4.354   6.279   3.681  0.4287 -0.0862  0.8731
 9055TIP3    H227130   4.430   6.396   3.621  2.2470 -0.4561  2.3513
 9056TIP3   OH227131   6.212   3.672   5.600 -0.1622 -0.0508  0.3396
 9056TIP3    H127132   6.204   3.709   5.512  1.1748 -0.1918  0.1407
 9056TIP3    H227133   6.154   3.725   5.654 -0.3767  0.5573 -0.4720
 9057TIP3   OH227134   4.369   0.141   3.385  0.2979 -0.2688  0.3484
 9057TIP3    H127135   4.308   0.106   3.450  0.6027 -1.0777  0.2083
 9057TIP3    H227136   4.313   0.188   3.323 -0.1949 -1.0045  0.2220
 9058TIP3   OH227137   1.025   6.173   1.281 -0.2070  0.1244 -0.1321
 9058TIP3    H127138   0.961   6.173   1.210 -0.5429  1.7837  0.1213
 9058TIP3    H227139   0.974   6.161   1.361 -0.3151  1.9829  0.1170
 9059TIP3   OH227140   4.668   0.858   1.035  0.3644 -0.3001  0.0204
 9059TIP3    H127141   4.632   0.779   1.077 -1.1042 -0.5256 -1.5763
 9059TIP3    H227142   4.649   0.928   1.097 -0.0964 -0.8932  0.5659
 9060TIP3   OH227143   4.452   4.192   0.939 -0.5780 -0.0408  0.0682
 9060TIP3    H127144   4.516   4.242   0.888 -0.8700 -0.0546 -0.3118
 9060TIP3    H227145   4.392   4.156   0.874 -0.0011 -1.4244  0.2731
 9061TIP3   OH227146   1.182   5.138   0.311  0.6952  0.4969 -0.0433
 9061TIP3    H127147   1.191   5.217   0.365 -1.1682 -0.5359  1.9084
 9061TIP3    H227148   1.243   5.076   0.349 -0.8710 -0.3493  1.1980
 9062TIP3   OH227149   4.092   3.246   4.556  0.2307  0.0997  0.4227
 9062TIP3    H127150   4.181   3.212   4.567 -0.2580 -1.6428 -0.6573
 9062TIP3    H227151   4.098   3.302   4.479 -0.0566 -1.9868 -1.2034
 9063TIP3   OH227152   0.191   2.347   2.156  0.4885 -0.1124 -0.6672
 9063TIP3    H127153   0.204   2.340   2.061  2.1003 -1.1574 -0.4143
 9063TIP3    H227154   0.137   2.272   2.179 -1.6182  1.2304 -0.9783
 9064TIP3   OH227155   3.093   0.842   3.110 -0.4788  0.1201 -0.0908
 9064TIP3    H127156   3.136   0.834   3.025  0.2264 -1.7083  0.3846
 9064TIP3    H227157   3.057   0.755   3.127 -0.0443  0.2443  1.7458
 9065TIP3   OH227158   4.266   5.701   1.230 -0.0800  0.4751 -0.1075
 9065TIP3    H127159   4.197   5.660   1.281  0.5593 -2.1379 -1.2046
 9065TIP3    H227160   4.220   5.742   1.156 -0.5313 -1.1168 -0.7558
 9066TIP3   OH227161   4.098   3.898   4.608 -0.0706 -0.0187  0.1276
 9066TIP3    H127162   4.193   3.908   4.621 -0.2513  0.2025  1.4301
 9066TIP3    H227163   4.061   3.983   4.630 -0.5215  0.1811 -1.2757
 9067TIP3   OH227164   6.324   3.769   4.330 -0.1403 -0.2266 -0.0533
 9067TIP3    H127165   6.231   3.785   4.346  0.0551  2.9799 -1.4238
 9067TIP3    H227166   6.334   3.777   4.235  1.6885  0.4392  0.1623
 9068TIP3   OH227167   3.114   3.671   0.713  0.5712  0.3841  0.1471
 9068TIP3    H127168   3.028   3.694   0.679  0.3421 -1.7937 -0.9205
 9068TIP3    H227169   3.095   3.619   0.792  0.8589 -0.4699 -0.3319
 9069TIP3   OH227170   5.669   1.587   0.834  0.2177 -0.1476 -0.0695
 9069TIP3    H127171   5.709   1.508   0.797  0.7949  0.5683 -1.0241
 9069TIP3    H227172   5.598   1.608   0.773  0.1542  0.1488  0.1078
 9070TIP3   OH227173   5.366   0.356   5.100  1.0880  0.1164 -0.2254
 9070TIP3    H127174   5.448   0.397   5.129  1.2092 -0.0237 -0.3675
 9070TIP3    H227175   5.346   0.401   5.018  0.1968  1.2407  0.5721
 9071TIP3   OH227176   0.931   4.886   4.515  0.1925 -0.3431  0.6486
 9071TIP3    H127177   0.881   4.868   4.594 -1.7818 -1.9697 -0.8720
 9071TIP3    H227178   0.924   4.806   4.463 -0.0273  1.2460 -1.9228
 9072TIP3   OH227179   4.848   0.622   5.785 -0.4648 -0.8780  0.0058
 9072TIP3    H127180   4.764   0.583   5.808 -0.7500  0.0839  0.6531
 9072TIP3    H227181   4.843   0.711   5.820  1.1514 -1.0693  0.7985
 9073TIP3   OH227182   1.352   2.882   0.025  0.3540  0.8072  0.0215
 9073TIP3    H127183   1.364   2.967   0.068  0.7879  1.1375 -0.7282
 9073TIP3    H227184   1.333   2.821   0.097 -0.8913  1.6989  0.4761
 9074TIP3   OH227185   2.672   0.613   3.966  0.1385 -0.4851  0.2098
 9074TIP3    H127186   2.728   0.538   3.983  1.3111  0.2790 -0.0974
 9074TIP3    H227187   2.671   0.662   4.049  3.6423  1.8131 -0.8425
 9075TIP3   OH227188   2.468   1.529   2.867 -0.1641  0.4232  0.0662
 9075TIP3    H127189   2.505   1.524   2.955 -1.0411  2.0149  0.5741
 9075TIP3    H227190   2.544   1.536   2.810  0.4108 -0.1227  0.7420
 9076TIP3   OH227191   4.677   4.102   2.020  0.4342 -0.2244 -0.0269
 9076TIP3    H127192   4.723   4.061   1.947  0.8082 -1.3428  0.8031
 9076TIP3    H227193   4.732   4.084   2.097 -1.1117 -1.2070  0.9145
 9077TIP3   OH227194   1.848   4.877   3.670 -0.3831  0.3471 -0.6343
 9077TIP3    H127195   1.884   4.951   3.622 -1.0520 -0.4547 -2.4630
 9077TIP3    H227196   1.865   4.898   3.762  1.3496  1.7393 -1.2019
 9078TIP3   OH227197   6.638   6.674   0.876  0.3317 -0.1547 -0.6484
 9078TIP3    H127198   6.599   6.602   0.825 -0.6946  0.1618 -0.3415
 9078TIP3    H227199   6.641   6.640   0.966 -1.5824  0.6962 -0.2160
 9079TIP3   OH227200   2.821   6.780   3.506  0.4158 -0.5248 -0.4978
 9079TIP3    H127201   2.775   6.710   3.460  0.4946 -1.9306  1.4407
 9079TIP3    H227202   2.894   6.802   3.448  0.0851 -1.6799 -1.4000
 9080TIP3   OH227203   0.640   0.118   0.555 -0.8029  0.4206  0.0470
 9080TIP3    H127204   0.645   0.123   0.651 -0.2790  2.3944 -0.0213
 9080TIP3    H227205   0.596   0.199   0.529  0.6958  0.8167 -1.4520
 9081TIP3   OH227206   1.381   6.224   0.460  0.6215  0.3068 -0.4070
 9081TIP3    H127207   1.311   6.287   0.476  0.7785  0.4623 -0.3296
 9081TIP3    H227208   1.340   6.156   0.406  0.4140  0.4011 -0.3700
 9082TIP3   OH227209   0.753   2.557   5.089  0.2491  0.1685  0.1462
 9082TIP3    H127210   0.845   2.566   5.111  0.7377 -1.4185 -1.0921
 9082TIP3    H227211   0.733   2.635   5.036  0.5112  1.1440  1.4364
 9083TIP3   OH227212   0.910   2.063   2.876 -0.2459 -0.1749  0.3164
 9083TIP3    H127213   0.997   2.078   2.913 -0.9291  0.1712  1.8930
 9083TIP3    H227214   0.850   2.083   2.948 -1.5589 -2.3006 -0.0865
 9084TIP3   OH227215   0.172   4.572  -0.015 -0.2675  0.4715  0.0361
 9084TIP3    H127216   0.135   4.557   0.072 -2.0935 -2.6761 -1.0961
 9084TIP3    H227217   0.113   4.634  -0.056  1.0810  2.6419  1.2195
 9085TIP3   OH227218   2.726   0.326   1.011  0.1475  0.0684  0.4161
 9085TIP3    H127219   2.728   0.297   1.102 -0.8962  0.9270  0.7371
 9085TIP3    H227220   2.632   0.334   0.991  0.3588  2.2852  0.0916
 9086TIP3   OH227221   4.090   3.052   1.290 -0.7110  0.2407  0.0167
 9086TIP3    H127222   4.144   2.976   1.269  0.2491  1.2623 -1.4233
 9086TIP3    H227223   4.139   3.098   1.359  0.1704  1.0299 -1.1082
 9087TIP3   OH227224   4.650   5.803   1.981  0.1149 -0.4147  0.2583
 9087TIP3    H127225   4.696   5.852   2.049  2.4678 -0.1580 -1.4046
 9087TIP3    H227226   4.576   5.763   2.026  1.0181  0.5249  2.7306
 9088TIP3   OH227227   4.726   1.462   3.864 -0.0602  0.7695  0.0509
 9088TIP3    H127228   4.665   1.521   3.907 -0.2344 -0.3720  1.4249
 9088TIP3    H227229   4.769   1.414   3.935 -1.3388 -2.1694 -0.9754
 9089TIP3   OH227230   6.303   5.501   1.099 -0.3095  0.3249 -0.8294
 9089TIP3    H127231   6.353   5.582   1.108 -0.6335  0.4624 -0.2273
 9089TIP3    H227232   6.225   5.514   1.153 -0.6533 -0.1592 -1.2005
 9090TIP3   OH227233   5.978   0.364   3.202  0.2724 -0.4897 -0.0712
 9090TIP3    H127234   5.927   0.426   3.254 -3.4561 -1.0390 -2.6482
 9090TIP3    H227235   5.950   0.278   3.234  1.0396 -0.8318 -0.3049
 9091TIP3   OH227236   4.043   4.087   1.681  0.1519  0.0887  0.1646
 9091TIP3    H127237   4.100   4.010   1.683 -0.4936 -0.3979  0.3410
 9091TIP3    H227238   3.967   4.062   1.733 -0.2530  0.7002 -0.1132
 9092TIP3   OH227239   1.254   4.450   2.997  0.4825  0.2511 -0.1633
 9092TIP3    H127240   1.221   4.424   3.083 -0.5122 -0.7340 -0.8160
 9092TIP3    H227241   1.220   4.538   2.984 -1.9488 -0.7138 -0.7933
 9093TIP3   OH227242   4.304   6.350   4.821  0.0944  0.2612  0.4413
 9093TIP3    H127243   4.397   6.359   4.802  0.3812 -0.9430  1.1481
 9093TIP3    H227244   4.261   6.353   4.736  0.6621  1.8048  0.1753
 9094TIP3   OH227245   3.233   4.135   5.391  0.2320  0.1396 -0.3233
 9094TIP3    H127246   3.224   4.100   5.303  0.3254  0.0887 -0.3127
 9094TIP3    H227247   3.247   4.058   5.446  2.3384  0.2994 -0.5369
 9095TIP3   OH227248   7.088   3.795   3.114 -0.0173  0.0542 -0.1073
 9095TIP3    H127249   7.131   3.879   3.128 -0.6619  0.5095 -0.7417
 9095TIP3    H227250   7.088   3.784   3.019 -1.0878 -0.0270 -0.1116
 9096TIP3   OH227251   0.346   6.575   4.304  0.6747 -0.1152  0.2676
 9096TIP3    H127252   0.366   6.622   4.385  0.3830  1.4711 -0.5492
 9096TIP3    H227253   0.255   6.596   4.286  0.6920 -0.5896 -0.3969
 9097TIP3   OH227254   6.226   6.276   2.987  0.4106 -0.2061  0.7837
 9097TIP3    H127255   6.246   6.362   2.950  0.9542 -1.0757 -1.0472
 9097TIP3    H227256   6.306   6.250   3.032  1.1502 -0.7537 -0.7547
 9098TIP3   OH227257   2.521   2.627   1.509  0.0769 -0.2304  0.0025
 9098TIP3    H127258   2.605   2.666   1.486 -0.5378  1.4753  0.4468
 9098TIP3    H227259   2.496   2.670   1.591 -0.1774 -2.3831  1.1281
 9099TIP3   OH227260   6.006   0.703   5.042 -0.4123 -0.6162  0.3972
 9099TIP3    H127261   6.078   0.760   5.070  0.8773 -1.9190 -0.1295
 9099TIP3    H227262   6.024   0.619   5.084 -1.7102 -0.9497  0.3314
 9100TIP3   OH227263   2.231   0.416   1.621  0.0842  0.0950  0.0863
 9100TIP3    H127264   2.207   0.368   1.542 -0.2465 -0.2812  0.4117
 9100TIP3    H227265   2.153   0.412   1.676 -0.0558  1.2564  0.0055
 9101TIP3   OH227266   6.904   4.573   4.411  0.4499 -0.3115 -0.3314
 9101TIP3    H127267   6.990   4.542   4.439  0.8995  1.1085 -0.0799
 9101TIP3    H227268   6.843   4.538   4.476  1.2868  1.6684  1.6382
 9102TIP3   OH227269   2.784   3.695   3.720  0.2903  0.6820  0.3577
 9102TIP3    H127270   2.825   3.617   3.682 -2.5157 -0.8399  0.1731
 9102TIP3    H227271   2.770   3.753   3.645 -0.5409 -0.0669 -0.0837
 9103TIP3   OH227272   5.758   4.700   4.887 -0.6156 -0.4243 -0.3076
 9103TIP3    H127273   5.821   4.695   4.815  1.1826  0.9366  1.0851
 9103TIP3    H227274   5.719   4.787   4.879 -0.7897 -0.4670  0.0645
 9104TIP3   OH227275   6.730   5.896   3.172  0.1060 -0.0103  0.2180
 9104TIP3    H127276   6.734   5.988   3.199 -4.6261  0.1892  1.0321
 9104TIP3    H227277   6.774   5.849   3.243  0.4121  1.4536  1.0446
 9105TIP3   OH227278   1.532   0.184   1.865  0.7326  0.5715  0.4911
 9105TIP3    H127279   1.508   0.153   1.777  0.1522 -1.6700  1.3581
 9105TIP3    H227280   1.595   0.254   1.849  1.3053 -0.3523 -1.7186
 9106TIP3   OH227281   2.839   1.434   2.954 -0.2719  0.1337  0.0063
 9106TIP3    H127282   2.881   1.514   2.985  3.2946 -1.4789 -0.0750
 9106TIP3    H227283   2.856   1.432   2.860 -0.6672 -0.5227 -0.0609
 9107TIP3   OH227284   3.129   0.709   1.004  0.3099 -0.2272 -0.1269
 9107TIP3    H127285   3.060   0.649   1.034  0.8528 -0.4489  0.6813
 9107TIP3    H227286   3.195   0.652   0.966 -0.1496  0.0176 -1.3571
 9108TIP3   OH227287   2.353   6.224   2.082  0.0288  0.2749 -0.6315
 9108TIP3    H127288   2.396   6.227   2.168 -0.3830  2.0622 -0.4496
 9108TIP3    H227289   2.416   6.264   2.022 -0.0666 -0.1190 -1.0003
 9109TIP3   OH227290   1.702   1.301   3.234  0.1644 -0.5109  0.0809
 9109TIP3    H127291   1.727   1.240   3.165 -0.0805 -1.0580  0.4671
 9109TIP3    H227292   1.703   1.387   3.192 -1.2783 -0.9700 -0.9548
 9110TIP3   OH227293   3.454   0.475   2.315 -0.3131 -0.1163 -0.0930
 9110TIP3    H127294   3.384   0.497   2.376 -0.2423 -0.4602  0.1153
 9110TIP3    H227295   3.502   0.557   2.303  1.2831 -0.5805  2.3830
 9111TIP3   OH227296   3.611   3.122   5.082  0.4989  0.1354  0.0089
 9111TIP3    H127297   3.637   3.214   5.078 -0.8636  0.4960 -2.0205
 9111TIP3    H227298   3.684   3.079   5.127  2.0088  1.9274 -0.5697
 9112TIP3   OH227299   4.683   3.749   0.364 -0.0918 -0.4076  0.1175
 9112TIP3    H127300   4.638   3.697   0.431 -0.1517 -0.4833  0.0168
 9112TIP3    H227301   4.613   3.798   0.321 -0.3770 -2.2170 -1.5808
 9113TIP3   OH227302   7.064   4.713   0.105  0.5175  0.2581 -1.1397
 9113TIP3    H127303   7.036   4.665   0.183 -1.2080  0.9273 -1.2913
 9113TIP3    H227304   6.989   4.768   0.084  1.5472  1.2308 -2.3758
 9114TIP3   OH227305   0.267   3.799   2.558  0.0338 -0.2902 -0.1691
 9114TIP3    H127306   0.318   3.859   2.505  1.4578 -1.0501  0.3014
 9114TIP3    H227307   0.328   3.766   2.623 -0.5749 -2.5889 -0.6731
 9115TIP3   OH227308   6.130   5.858   3.377  0.1267 -0.3580  0.0141
 9115TIP3    H127309   6.132   5.858   3.472  0.6121  0.1337  0.0083
 9115TIP3    H227310   6.055   5.804   3.354 -1.7255  1.7841  0.7046
 9116TIP3   OH227311   0.888   1.846   1.587  0.2219 -0.2015 -0.2916
 9116TIP3    H127312   0.853   1.841   1.675  1.9654 -0.9015  0.4197
 9116TIP3    H227313   0.948   1.921   1.589 -0.5064  0.4277 -1.1995
 9117TIP3   OH227314   2.135   3.586   5.710  0.2440  0.4872  0.4848
 9117TIP3    H127315   2.072   3.606   5.641  1.1335 -0.6251 -0.7047
 9117TIP3    H227316   2.162   3.496   5.692  0.9851  0.3965  1.9157
 9118TIP3   OH227317   6.971   1.881   4.079  0.2140 -0.1484  0.0173
 9118TIP3    H127318   7.037   1.841   4.023 -0.3503 -1.3283  0.1803
 9118TIP3    H227319   6.891   1.879   4.027 -1.0741 -4.0119  1.8394
 9119TIP3   OH227320   1.311   6.175   2.693  0.1549 -0.0255 -0.1870
 9119TIP3    H127321   1.379   6.236   2.723  1.4943 -1.6394  0.2074
 9119TIP3    H227322   1.232   6.203   2.739  0.5517  1.8495 -0.5891
 9120TIP3   OH227323   4.685   4.681   3.071 -0.5518  0.2423 -0.2214
 9120TIP3    H127324   4.606   4.630   3.087 -0.6610  0.0686 -1.2240
 9120TIP3    H227325   4.750   4.644   3.131 -1.0395 -0.0792  0.1142
 9121TIP3   OH227326   1.826   5.207   0.072 -0.1530 -0.4530  0.2130
 9121TIP3    H127327   1.848   5.118   0.044  1.4383 -0.2416  0.7161
 9121TIP3    H227328   1.858   5.263   0.001 -0.8295 -0.2472  0.0627
 9122TIP3   OH227329   2.741   6.093   1.657  0.7267 -0.6294  0.5178
 9122TIP3    H127330   2.769   6.003   1.641  0.1678 -0.6067 -0.6996
 9122TIP3    H227331   2.658   6.083   1.704  0.4301 -0.7720 -0.0208
 9123TIP3   OH227332   5.147   1.176   5.112  0.3142 -0.1923  0.3791
 9123TIP3    H127333   5.240   1.157   5.096 -0.0704 -2.3133  0.3159
 9123TIP3    H227334   5.113   1.200   5.026  0.9149  1.3437  0.5326
 9124TIP3   OH227335   0.944   0.550   2.585 -0.2160  0.0504  0.8498
 9124TIP3    H127336   0.888   0.625   2.605 -0.9099 -0.5559  1.2389
 9124TIP3    H227337   1.030   0.575   2.618 -0.6387  0.3343  1.7748
 9125TIP3   OH227338   4.302   2.298   2.092 -0.0224 -0.0464  0.1828
 9125TIP3    H127339   4.321   2.390   2.075  0.3215 -0.2365 -0.5004
 9125TIP3    H227340   4.312   2.256   2.007 -1.8755 -0.4395  0.1161
 9126TIP3   OH227341   1.320   5.043   4.182 -0.2710 -0.2570 -0.0901
 9126TIP3    H127342   1.391   5.098   4.150 -1.2732  0.3030 -1.4313
 9126TIP3    H227343   1.284   5.092   4.256 -0.8300  0.6873 -0.9569
 9127TIP3   OH227344   1.051   5.623   3.182  0.5264 -0.6406 -0.0917
 9127TIP3    H127345   1.104   5.549   3.212  0.3548 -1.2180 -1.1582
 9127TIP3    H227346   0.983   5.582   3.128 -0.0007  0.2387 -0.0968
 9128TIP3   OH227347   0.644   1.378   0.450  0.1547  0.9342 -0.4938
 9128TIP3    H127348   0.733   1.346   0.464 -0.5765 -0.6297  0.9657
 9128TIP3    H227349   0.607   1.387   0.538 -1.8650 -0.7358 -1.0812
 9129TIP3   OH227350   1.108   5.474   0.308 -0.2381 -0.1366  0.2661
 9129TIP3    H127351   1.120   5.491   0.401 -2.9994 -3.4925  1.4370
 9129TIP3    H227352   1.197   5.460   0.275  0.9494  2.6696  1.9056
 9130TIP3   OH227353   3.863   2.361   2.978  0.1616  0.4972  0.2393
 9130TIP3    H127354   3.773   2.334   2.959 -0.0197  1.4499 -0.3155
 9130TIP3    H227355   3.916   2.317   2.911 -0.0065  0.7040 -0.0307
 9131TIP3   OH227356   5.649   6.595   3.530 -0.0431 -0.2727  0.4274
 9131TIP3    H127357   5.619   6.557   3.447 -1.5915 -1.5649  1.5194
 9131TIP3    H227358   5.720   6.537   3.558  2.4182  1.7317 -1.2513
 9132TIP3   OH227359   5.728   5.656   5.840 -0.7519  0.0878 -0.3077
 9132TIP3    H127360   5.644   5.676   5.799 -1.1491  2.5380  1.4560
 9132TIP3    H227361   5.718   5.686   5.930  1.6549 -0.6455  0.2761
 9133TIP3   OH227362   2.803   3.460   0.606 -0.2543  0.0748  0.2711
 9133TIP3    H127363   2.811   3.382   0.661 -1.0897  0.0851  0.4266
 9133TIP3    H227364   2.786   3.426   0.518  0.8186  0.0631  0.0596
 9134TIP3   OH227365   1.367   0.194   5.683  0.1578  0.0346  0.3335
 9134TIP3    H127366   1.304   0.124   5.664  0.6003  0.2452 -2.3222
 9134TIP3    H227367   1.370   0.198   5.779 -2.5086 -1.1838  0.5692
 9135TIP3   OH227368   7.025   5.932   1.509  0.0010  0.0615 -0.5442
 9135TIP3    H127369   6.950   5.929   1.450 -0.7206 -0.9323  0.3882
 9135TIP3    H227370   7.079   5.857   1.484  0.3482  0.3756 -0.7583
 9136TIP3   OH227371   5.479   5.402   3.367 -0.3717 -0.2194  0.1940
 9136TIP3    H127372   5.481   5.360   3.453 -2.0513 -0.5442  0.1224
 9136TIP3    H227373   5.422   5.345   3.314  0.2536  0.2256 -0.9933
 9137TIP3   OH227374   2.663   2.186   0.787 -0.1209  0.4346  0.3416
 9137TIP3    H127375   2.656   2.280   0.774 -0.0776  0.9295  3.1942
 9137TIP3    H227376   2.584   2.163   0.836 -0.7386 -1.2911 -1.3239
 9138TIP3   OH227377   1.062   2.418   1.130 -0.2216 -0.6200  0.2629
 9138TIP3    H127378   1.140   2.401   1.183  1.7840  2.7027 -1.2419
 9138TIP3    H227379   1.085   2.388   1.043 -0.7160  0.1394 -0.1417
 9139TIP3   OH227380   1.910   1.205   4.400 -0.3468 -0.2767  0.1172
 9139TIP3    H127381   1.832   1.177   4.352  0.4367 -1.3991 -0.5435
 9139TIP3    H227382   1.953   1.124   4.426  0.8454  0.3145  0.0759
 9140TIP3   OH227383   3.442   0.028   5.389  0.2443  0.0889 -1.1576
 9140TIP3    H127384   3.451  -0.035   5.318  2.5253  1.1790 -1.9429
 9140TIP3    H227385   3.412   0.108   5.346  0.6227  0.4599 -0.7457
 9141TIP3   OH227386   1.588   0.593   0.806  0.4524 -0.4622  0.0373
 9141TIP3    H127387   1.567   0.512   0.851 -0.4245  0.3467  1.1473
 9141TIP3    H227388   1.669   0.623   0.846 -0.2884  0.2193  1.0644
 9142TIP3   OH227389   0.049   1.597   3.660  0.3255 -0.1491 -0.0954
 9142TIP3    H127390   0.064   1.636   3.573 -0.2133 -0.4892 -0.3464
 9142TIP3    H227391  -0.020   1.532   3.645  0.2127 -0.1903  0.5975
 9143TIP3   OH227392   2.121   4.644   0.370 -0.6915 -0.4038  0.8383
 9143TIP3    H127393   2.150   4.553   0.358  2.5979  0.4098  1.6329
 9143TIP3    H227394   2.149   4.666   0.459 -0.9502  1.5534  0.4746
 9144TIP3   OH227395   5.358   5.183   4.942 -0.4280  0.3045  1.0074
 9144TIP3    H127396   5.312   5.103   4.917  0.4173  0.3355 -0.7894
 9144TIP3    H227397   5.336   5.195   5.035  0.0370 -2.3999  1.5479
 9145TIP3   OH227398   6.894   2.652   4.020  0.1348  0.3952 -0.4842
 9145TIP3    H127399   6.808   2.618   3.997  0.0754 -0.4359  0.8660
 9145TIP3    H227400   6.922   2.599   4.094  2.4299 -0.3305 -1.7488
 9146TIP3   OH227401   1.301   4.493   0.887 -0.4269 -0.2104 -0.3768
 9146TIP3    H127402   1.339   4.577   0.863  1.7660  0.2913  3.8375
 9146TIP3    H227403   1.371   4.430   0.871  0.3368 -0.1435  2.2671
 9147TIP3   OH227404   3.634   4.112   1.468  0.1328  0.1400 -0.2962
 9147TIP3    H127405   3.662   4.101   1.377  1.6960 -0.8041  0.2499
 9147TIP3    H227406   3.658   4.203   1.489 -1.5068  0.8232 -1.1965
 9148TIP3   OH227407   7.040   2.579   5.125  0.1904  0.1527 -0.0730
 9148TIP3    H127408   7.123   2.605   5.084  0.2473  0.4797  0.2459
 9148TIP3    H227409   7.016   2.498   5.080  0.0511  0.7063 -1.0181
 9149TIP3   OH227410   7.138   1.721   1.967  0.0309 -0.1619  0.1146
 9149TIP3    H127411   7.156   1.787   2.034 -0.8103  0.7591 -0.5359
 9149TIP3    H227412   7.216   1.721   1.911 -0.8681  2.0840 -1.2950
 9150TIP3   OH227413   1.305   1.549   2.085  0.2714  0.4497  0.2953
 9150TIP3    H127414   1.298   1.644   2.075 -0.3525  0.2145 -2.1817
 9150TIP3    H227415   1.216   1.517   2.069  1.1032 -0.7235 -2.7535
 9151TIP3   OH227416   4.891   2.474   1.589 -0.1067 -0.7652 -0.5784
 9151TIP3    H127417   4.915   2.389   1.551 -2.1622 -2.4747  1.6233
 9151TIP3    H227418   4.796   2.479   1.578 -0.3144  0.1908  1.2819
 9152TIP3   OH227419   2.594   3.631   4.370 -0.2050 -0.3345 -0.5096
 9152TIP3    H127420   2.525   3.637   4.304 -0.5657 -1.1590 -0.2166
 9152TIP3    H227421   2.547   3.620   4.452  0.2349  0.9780 -0.0628
 9153TIP3   OH227422   0.747   6.519  -0.012  0.1428  0.7235  0.3406
 9153TIP3    H127423   0.686   6.492   0.056  1.6991  1.3673  2.0871
 9153TIP3    H227424   0.810   6.447  -0.018  0.8432  1.3038  0.6437
 9154TIP3   OH227425   2.842   3.753   4.926  0.4251  0.1443  0.1846
 9154TIP3    H127426   2.938   3.752   4.930  0.5135 -0.3046 -1.3911
 9154TIP3    H227427   2.821   3.835   4.881  0.0920  0.0579  0.1852
 9155TIP3   OH227428   0.903   4.299   2.687 -0.1583  0.2870 -0.0833
 9155TIP3    H127429   0.995   4.283   2.709 -0.2090  1.4795  1.1195
 9155TIP3    H227430   0.866   4.339   2.765 -1.6034  0.2214 -0.7049
 9156TIP3   OH227431   6.214   2.193   3.021 -0.3124 -0.2801 -0.0549
 9156TIP3    H127432   6.214   2.182   2.926  1.5927  0.4045 -0.1765
 9156TIP3    H227433   6.272   2.268   3.036  0.7492 -1.3892  1.7196
 9157TIP3   OH227434   1.584   5.761   4.675  0.2189  0.1828  0.1969
 9157TIP3    H127435   1.535   5.754   4.757  0.0520 -0.3263  0.0559
 9157TIP3    H227436   1.636   5.681   4.670  3.4692  1.9976  1.8334
 9158TIP3   OH227437   3.171   6.618   0.073  0.4645  0.9985 -0.5094
 9158TIP3    H127438   3.169   6.559   0.148 -1.9934  1.1103 -0.4030
 9158TIP3    H227439   3.260   6.611   0.039  0.8437 -1.1639  0.7591
 9159TIP3   OH227440   6.200   6.554   2.936 -0.2860  0.2009 -0.0998
 9159TIP3    H127441   6.155   6.618   2.992  1.2099 -0.4406  1.9278
 9159TIP3    H227442   6.266   6.606   2.890 -1.1877  0.6386 -0.9521
 9160TIP3   OH227443   1.954   5.409   1.473 -0.3342  0.1357  0.4419
 9160TIP3    H127444   1.881   5.459   1.509 -0.0454  0.7049  0.2533
 9160TIP3    H227445   2.028   5.469   1.477  0.1882 -0.5280  0.8849
 9161TIP3   OH227446   6.929   0.346   4.491  0.2089 -0.3580 -0.4827
 9161TIP3    H127447   7.009   0.373   4.537 -0.5963 -0.4279  1.0374
 9161TIP3    H227448   6.934   0.250   4.491 -1.0312 -0.4981  1.9217
 9162TIP3   OH227449   6.027   3.041   1.611 -0.2117  0.5221  0.3370
 9162TIP3    H127450   6.062   3.052   1.700 -2.1250 -1.0357  1.3785
 9162TIP3    H227451   6.025   3.129   1.575  1.1472  1.1275  1.6024
 9163TIP3   OH227452   0.771   6.303   5.422  0.3847 -0.3017  0.1095
 9163TIP3    H127453   0.840   6.278   5.484  1.0082 -0.4267 -0.6205
 9163TIP3    H227454   0.793   6.392   5.395 -0.4527  0.1355  0.8240
 9164TIP3   OH227455   6.257   6.789   4.166 -0.3105 -0.3389 -0.2158
 9164TIP3    H127456   6.195   6.863   4.164  0.7979  0.6980  1.2210
 9164TIP3    H227457   6.233   6.736   4.091 -3.0764 -0.0936  0.3579
 9165TIP3   OH227458   1.293   3.666   2.263 -0.4167  0.4326  0.4205
 9165TIP3    H127459   1.310   3.755   2.295  0.0965  0.1235  1.0309
 9165TIP3    H227460   1.204   3.670   2.227 -1.1667  0.7131  2.2142
 9166TIP3   OH227461   1.843   0.600   3.975 -0.2164  0.1842  0.3885
 9166TIP3    H127462   1.836   0.580   3.881  0.3380 -0.7713  0.5439
 9166TIP3    H227463   1.925   0.561   4.002  0.2124  1.4870  1.0375
 9167TIP3   OH227464   6.079   4.240   4.573  0.8290  0.1803 -0.0229
 9167TIP3    H127465   6.070   4.335   4.567  0.8858  0.1070 -1.6921
 9167TIP3    H227466   6.015   4.214   4.639 -0.3892  1.2133 -0.7663
 9168TIP3   OH227467   6.301   3.012   3.924 -0.0000  0.0004 -0.1805
 9168TIP3    H127468   6.390   2.977   3.919 -0.0457 -0.2841  0.8055
 9168TIP3    H227469   6.300   3.063   4.005 -1.1380 -1.1781  0.5710
 9169TIP3   OH227470   6.839   2.292   0.156 -0.1476  0.2425 -0.0159
 9169TIP3    H127471   6.761   2.275   0.208  0.0162 -0.8557 -0.1039
 9169TIP3    H227472   6.900   2.222   0.180 -0.1064 -0.3589 -1.7390
 9170TIP3   OH227473   6.484   0.978   5.384  0.1670 -0.3377  0.9841
 9170TIP3    H127474   6.503   0.958   5.292 -1.9569 -0.2824  0.4624
 9170TIP3    H227475   6.542   0.920   5.434  0.4425 -1.3296 -0.4164
 9171TIP3   OH227476   3.143   2.155   4.735  0.1750  0.0700  0.4136
 9171TIP3    H127477   3.234   2.184   4.744  0.3275  0.1551 -1.1519
 9171TIP3    H227478   3.096   2.199   4.806  1.3266  0.0998  1.1774
 9172TIP3   OH227479   1.172   4.196   1.324 -0.5935 -0.3411 -0.2215
 9172TIP3    H127480   1.101   4.250   1.290 -2.3462 -1.5154  1.4036
 9172TIP3    H227481   1.149   4.107   1.299  0.6073 -0.6963 -0.1409
 9173TIP3   OH227482   5.093   4.271   4.863  0.1165  0.4878 -0.5710
 9173TIP3    H127483   5.164   4.288   4.926  0.2529  0.6304 -0.7626
 9173TIP3    H227484   5.071   4.178   4.876 -1.5286  1.0713  1.4047
 9174TIP3   OH227485   0.535   0.384   5.063 -0.1618  0.0114  0.1069
 9174TIP3    H127486   0.512   0.301   5.020 -0.2402  0.3947 -0.6156
 9174TIP3    H227487   0.461   0.402   5.121  0.3737 -0.9874  1.1205
 9175TIP3   OH227488   0.353   3.087   2.631  0.9689 -0.2242 -0.8841
 9175TIP3    H127489   0.380   2.999   2.608  2.1768  0.3165 -1.6573
 9175TIP3    H227490   0.332   3.083   2.724  1.4175 -1.2279 -0.8196
 9176TIP3   OH227491   6.134   4.664   5.475 -0.2655 -0.2210  0.0400
 9176TIP3    H127492   6.221   4.670   5.437 -0.0420  0.1659  0.6015
 9176TIP3    H227493   6.107   4.755   5.488 -0.5628 -0.3433  0.2969
 9177TIP3   OH227494   6.813   0.342   5.404 -0.7977  0.0896  0.5474
 9177TIP3    H127495   6.809   0.434   5.431 -1.3891  0.0052  0.7691
 9177TIP3    H227496   6.849   0.345   5.315 -0.5692  0.5165  0.6520
 9178TIP3   OH227497   2.600   2.814   1.277 -0.4927 -0.1329  0.1841
 9178TIP3    H127498   2.566   2.831   1.188 -2.6871 -1.3714  0.6958
 9178TIP3    H227499   2.560   2.882   1.331  1.4424  1.0830  0.1584
 9179TIP3   OH227500   6.373   2.215   3.522  0.3766  0.4437 -0.1221
 9179TIP3    H127501   6.338   2.303   3.507 -0.2762  0.0680 -0.9220
 9179TIP3    H227502   6.335   2.162   3.451  0.4469 -0.5692  0.5747
 9180TIP3   OH227503   2.309   0.825   0.096  0.1866 -0.2781  0.4811
 9180TIP3    H127504   2.239   0.883   0.066  1.2887  1.2561  0.7801
 9180TIP3    H227505   2.306   0.831   0.192  0.7400 -0.1930  0.4959
 9181TIP3   OH227506   5.723   1.693   0.403 -0.0522  0.4315  0.3789
 9181TIP3    H127507   5.780   1.646   0.464 -1.9547 -0.6825  1.3859
 9181TIP3    H227508   5.724   1.783   0.433  1.2798  0.4645  0.2715
 9182TIP3   OH227509   3.353   6.481   1.896  0.3661 -1.2105 -0.1539
 9182TIP3    H127510   3.379   6.501   1.806  2.6424 -0.6663  0.5588
 9182TIP3    H227511   3.391   6.551   1.949 -1.0177 -1.4619  1.2546
 9183TIP3   OH227512   6.436   4.159   3.202  0.1426 -0.4871  0.6420
 9183TIP3    H127513   6.412   4.105   3.126  0.7524 -0.0225  0.1155
 9183TIP3    H227514   6.371   4.229   3.203 -0.0410 -0.6575  0.7245
 9184TIP3   OH227515   6.848   6.127   0.894  0.0097  0.0128  0.0762
 9184TIP3    H127516   6.809   6.196   0.949  0.3585 -0.6126  1.1344
 9184TIP3    H227517   6.828   6.046   0.940  0.6070 -0.5055 -0.5585
 9185TIP3   OH227518   0.181   0.083   5.212 -0.0882 -0.1332 -0.2909
 9185TIP3    H127519   0.203   0.149   5.146 -1.8411  0.7286 -0.0657
 9185TIP3    H227520   0.221   0.117   5.293 -1.1881  0.8392 -0.1213
 9186TIP3   OH227521   2.481   3.279   1.838  0.1395 -0.3777  0.2276
 9186TIP3    H127522   2.535   3.202   1.823  0.7395  0.0610  0.1204
 9186TIP3    H227523   2.450   3.270   1.928  0.7897 -0.3830  0.4530
 9187TIP3   OH227524   0.544   3.925   2.471  0.2977  0.2182  0.0893
 9187TIP3    H127525   0.584   4.011   2.455 -0.2359  0.5875  0.7003
 9187TIP3    H227526   0.616   3.863   2.459  0.6728  0.7425 -0.4331
 9188TIP3   OH227527   2.292   4.443   2.350  0.5652  0.0049  0.0092
 9188TIP3    H127528   2.372   4.401   2.384  0.3648 -0.7328 -0.3985
 9188TIP3    H227529   2.322   4.491   2.272  0.5991 -0.3641 -0.2097
 9189TIP3   OH227530   7.051   0.589   1.356  0.1076  0.3439  0.3102
 9189TIP3    H127531   7.097   0.647   1.295  2.1389  2.3139  3.4502
 9189TIP3    H227532   7.121   0.546   1.405 -1.4337 -1.4648  1.0259
 9190TIP3   OH227533   4.161   4.689   4.354 -0.2781  0.2028  0.9419
 9190TIP3    H127534   4.196   4.622   4.295  0.1140  0.4673  0.8756
 9190TIP3    H227535   4.238   4.734   4.389 -0.5621  1.3664  0.1259
 9191TIP3   OH227536   6.264   5.100   0.434 -0.0860  0.2404  0.1121
 9191TIP3    H127537   6.235   5.168   0.373 -0.2358  0.9869  1.0064
 9191TIP3    H227538   6.323   5.144   0.494  1.4968 -0.8842 -0.5558
 9192TIP3   OH227539   4.950   6.246   4.230 -0.1292  0.2234  0.2688
 9192TIP3    H127540   4.901   6.229   4.149 -0.3910 -2.3688  0.8977
 9192TIP3    H227541   4.895   6.209   4.299  1.4636 -0.2882  1.2982
 9193TIP3   OH227542   3.636   3.309   4.286  0.3571 -0.2012  0.0774
 9193TIP3    H127543   3.685   3.328   4.367  0.5293 -0.2184 -0.0220
 9193TIP3    H227544   3.545   3.326   4.309  0.6007  1.9750 -0.3449
 9194TIP3   OH227545   5.664   0.386   0.208 -0.2142 -0.0990  0.0378
 9194TIP3    H127546   5.710   0.359   0.287 -0.6111 -0.3247  0.1984
 9194TIP3    H227547   5.665   0.481   0.210 -1.3219 -0.0798  0.9893
 9195TIP3   OH227548   6.785   5.693   2.264  0.6703 -0.1316  0.1998
 9195TIP3    H127549   6.717   5.655   2.209  0.0520  1.3809 -0.1226
 9195TIP3    H227550   6.866   5.651   2.234  0.1898 -0.1963 -1.0601
 9196TIP3   OH227551   6.971   3.680   3.446  0.2755 -0.1266  0.2261
 9196TIP3    H127552   7.034   3.641   3.506 -1.1953 -1.6844  0.8578
 9196TIP3    H227553   7.013   3.759   3.414  3.1406 -1.8099 -0.5029
 9197TIP3   OH227554   6.824   4.833   1.515  0.3699 -0.2465  0.4202
 9197TIP3    H127555   6.820   4.800   1.605 -1.6816  2.4055  1.4026
 9197TIP3    H227556   6.858   4.922   1.524 -2.6861  1.1844 -0.9874
 9198TIP3   OH227557   5.705   0.474   3.987  0.7966  0.3352  0.1742
 9198TIP3    H127558   5.652   0.420   4.045  0.8224  0.2282  0.1001
 9198TIP3    H227559   5.783   0.421   3.970  0.8369  0.4098  0.1264
 9199TIP3   OH227560   0.303   2.954   1.187  0.6106  0.1892  0.4368
 9199TIP3    H127561   0.233   2.889   1.174  0.5138  0.3414  0.1905
 9199TIP3    H227562   0.357   2.947   1.108  1.1729 -0.2905  0.8572
 9200TIP3   OH227563   1.219   2.479   1.530 -0.2908  0.2442  0.2935
 9200TIP3    H127564   1.254   2.475   1.441  0.6724  0.5402  0.6461
 9200TIP3    H227565   1.173   2.562   1.534  0.2876  0.5757  0.2763
 9201TIP3   OH227566   1.872   5.971   1.606 -0.2428  0.4832  0.4416
 9201TIP3    H127567   1.810   5.976   1.533  0.2677  1.5795  0.0673
 9201TIP3    H227568   1.958   5.979   1.566  0.0678  0.5471  1.1031
 9202TIP3   OH227569   6.144   5.471   3.790  0.0399  0.3208 -0.0817
 9202TIP3    H127570   6.093   5.539   3.834 -0.3006 -0.5641  0.9323
 9202TIP3    H227571   6.107   5.388   3.822 -1.4479 -0.4508 -3.4134
 9203TIP3   OH227572   4.714   1.560   0.547 -0.2184 -0.1933  0.7389
 9203TIP3    H127573   4.765   1.564   0.467 -0.7196 -1.4101  0.3437
 9203TIP3    H227574   4.699   1.652   0.570  0.0717  0.1750 -0.4690
 9204TIP3   OH227575   6.992   6.667   3.482  0.1621  0.0144 -0.0715
 9204TIP3    H127576   7.072   6.644   3.435 -0.4971 -2.2863 -0.1708
 9204TIP3    H227577   6.930   6.597   3.460 -0.8831  0.0504  2.4386
 9205TIP3   OH227578   2.528   1.058   4.203  0.4662 -0.1079 -0.5907
 9205TIP3    H127579   2.498   1.131   4.258  2.2856  1.6518 -1.7836
 9205TIP3    H227580   2.467   1.055   4.130 -1.7610 -2.2353  1.2025
 9206TIP3   OH227581   1.890   1.688   2.845 -0.0760 -0.4511 -0.7408
 9206TIP3    H127582   1.891   1.641   2.762 -0.7213 -1.1635 -0.3517
 9206TIP3    H227583   1.927   1.774   2.824  4.5875 -2.1759 -0.7845
 9207TIP3   OH227584   5.745   2.485   0.944  0.1549  0.1006  0.2847
 9207TIP3    H127585   5.680   2.555   0.932  0.3034 -0.2721 -5.2748
 9207TIP3    H227586   5.695   2.404   0.937  0.7393 -0.2378 -0.0794
 9208TIP3   OH227587   4.069   4.872   0.101 -0.1076 -0.2755 -0.6823
 9208TIP3    H127588   4.008   4.799   0.112  0.4133 -0.3157  3.1637
 9208TIP3    H227589   4.017   4.950   0.124  0.6211 -0.0494  0.2548
 9209TIP3   OH227590   5.718   0.946   0.182 -0.0425  0.0345 -1.2042
 9209TIP3    H127591   5.796   0.977   0.227 -0.8186  0.0610  0.1779
 9209TIP3    H227592   5.731   0.970   0.091  1.6843 -0.2165 -1.0490
 9210TIP3   OH227593   1.045   5.144   5.812  0.1511  0.5148 -0.7952
 9210TIP3    H127594   1.015   5.235   5.818 -0.4709  0.2540  0.2867
 9210TIP3    H227595   1.069   5.133   5.720  0.2077  1.7607 -0.9462
 9211TIP3   OH227596   0.690   5.767   0.373 -0.1815 -0.2772  0.2753
 9211TIP3    H127597   0.761   5.720   0.329 -1.8053 -3.0993  0.4145
 9211TIP3    H227598   0.631   5.792   0.303  0.2612  0.8464  0.2909
 9212TIP3   OH227599   3.008   0.855   4.866  0.1030  0.7155 -0.3457
 9212TIP3    H127600   2.932   0.800   4.847  0.3185  0.2957  0.0025
 9212TIP3    H227601   3.033   0.892   4.781 -0.7542  1.2027 -0.3937
 9213TIP3   OH227602   7.148   1.799   3.859  0.1800  0.0401 -0.1284
 9213TIP3    H127603   7.136   1.881   3.812 -0.2965 -0.6622 -1.2626
 9213TIP3    H227604   7.190   1.740   3.796  1.1784 -0.3824  0.8924
 9214TIP3   OH227605   5.581   5.110   2.998 -0.2885 -0.1184 -0.2635
 9214TIP3    H127606   5.516   5.133   3.064  1.1123 -2.4234  2.1045
 9214TIP3    H227607   5.663   5.147   3.030  0.4283 -1.2976 -0.6453
 9215TIP3   OH227608   2.855   1.304   5.045 -0.1327  0.1236 -0.5195
 9215TIP3    H127609   2.935   1.339   5.007 -0.6140 -0.1395 -1.8327
 9215TIP3    H227610   2.868   1.311   5.140  1.6560 -0.3956 -0.6850
 9216TIP3   OH227611   5.777   3.259   1.531  0.1701  0.0100  0.5205
 9216TIP3    H127612   5.768   3.218   1.617 -1.8905  0.4422  0.5647
 9216TIP3    H227613   5.857   3.312   1.538  0.6165 -0.7864  1.7924
 9217TIP3   OH227614   6.387   4.000   0.681 -0.3689 -0.1213  0.3124
 9217TIP3    H127615   6.444   3.970   0.752  0.7641 -0.6376 -0.7885
 9217TIP3    H227616   6.313   4.042   0.726  1.2794  1.3641  1.7967
 9218TIP3   OH227617   4.719   1.378   2.441  0.2254 -0.3706  0.4701
 9218TIP3    H127618   4.643   1.434   2.456  0.7388 -0.2463  3.1039
 9218TIP3    H227619   4.706   1.342   2.353 -0.8785  2.6815 -0.7531
 9219TIP3   OH227620   0.615   3.453   3.702 -0.1849  0.3559 -1.1348
 9219TIP3    H127621   0.699   3.410   3.687  0.0452  0.2475  0.3241
 9219TIP3    H227622   0.612   3.524   3.638  0.7564 -0.0008 -1.5885
 9220TIP3   OH227623   7.158   3.991   4.292  0.4130  0.6374  0.3196
 9220TIP3    H127624   7.136   4.064   4.349 -0.1806  0.7784 -0.0767
 9220TIP3    H227625   7.077   3.939   4.288  0.3051  0.8663 -0.7295
 9221TIP3   OH227626   0.825   2.564   4.311  0.4430 -0.3656 -0.2316
 9221TIP3    H127627   0.738   2.568   4.271  0.3666 -0.5225 -0.0848
 9221TIP3    H227628   0.871   2.495   4.263  0.2650 -0.7304  0.1124
 9222TIP3   OH227629   5.573   3.604   3.912  0.3989  0.1805 -0.1160
 9222TIP3    H127630   5.630   3.613   3.835  2.9757 -0.2014  1.6118
 9222TIP3    H227631   5.491   3.644   3.885  1.1901  0.1225 -3.0373
 9223TIP3   OH227632   2.184   4.448   4.630  0.3386 -0.2591 -0.0093
 9223TIP3    H127633   2.133   4.529   4.627  1.2631  0.4712  1.9698
 9223TIP3    H227634   2.128   4.383   4.587 -1.6690  0.7986  0.8451
 9224TIP3   OH227635   6.938   4.107   2.851  0.1889 -0.7541  0.2905
 9224TIP3    H127636   6.912   4.021   2.884 -0.9626 -0.6414 -0.2714
 9224TIP3    H227637   6.864   4.164   2.874  0.3629 -0.2038 -0.5028
 9225TIP3   OH227638   4.294   3.597   3.150 -0.1950  0.8538 -0.4109
 9225TIP3    H127639   4.372   3.576   3.201  0.5581 -0.2244 -1.9469
 9225TIP3    H227640   4.312   3.565   3.062 -2.0854  1.2324 -1.0011
 9226TIP3   OH227641   6.646   0.142   3.384 -0.3061 -0.0195  0.4286
 9226TIP3    H127642   6.635   0.100   3.299  0.6549 -0.6901  0.6192
 9226TIP3    H227643   6.599   0.085   3.446 -0.5719  0.1913  0.4216
 9227TIP3   OH227644   5.253   6.118   3.530 -0.0296 -0.0937 -0.0847
 9227TIP3    H127645   5.179   6.103   3.471 -1.4034  0.5504  1.3995
 9227TIP3    H227646   5.303   6.188   3.487 -0.2985 -0.5061 -1.0914
 9228TIP3   OH227647   0.464   2.053   1.148  0.0730 -0.2861 -0.2741
 9228TIP3    H127648   0.417   2.108   1.085  1.0443  0.8074 -0.0747
 9228TIP3    H227649   0.505   1.985   1.095 -0.5776 -0.4329 -0.6037
 9229TIP3   OH227650   3.055   6.051   0.741 -1.0415  0.4697 -0.5757
 9229TIP3    H127651   3.086   6.138   0.716  0.0498  0.3786  0.4424
 9229TIP3    H227652   3.062   6.049   0.836  1.6282 -1.7019 -0.7275
 9230TIP3   OH227653   3.527   4.626   5.627  0.3078 -0.0894 -0.6558
 9230TIP3    H127654   3.536   4.569   5.703 -1.3301  0.1330 -0.2409
 9230TIP3    H227655   3.484   4.572   5.561  1.3951 -0.1718 -1.3249
 9231TIP3   OH227656   7.129   1.346   4.523  0.3230 -0.5039  0.4745
 9231TIP3    H127657   7.039   1.346   4.555  0.4103  1.2212  0.8274
 9231TIP3    H227658   7.158   1.255   4.533 -1.5400 -1.2255 -0.1822
 9232TIP3   OH227659   3.430   0.689   1.608 -0.0535  0.7619  0.1107
 9232TIP3    H127660   3.510   0.671   1.558 -1.7321  0.9068 -2.8313
 9232TIP3    H227661   3.414   0.608   1.657  0.8782  0.0349 -0.7376
 9233TIP3   OH227662   3.336   6.757   3.599 -0.3215  0.3991  0.4301
 9233TIP3    H127663   3.407   6.696   3.581 -0.3802  0.7488 -1.0960
 9233TIP3    H227664   3.269   6.703   3.642  0.9756  0.1491  2.2305
 9234TIP3   OH227665   5.842   3.008   2.027  0.3959  0.1607 -0.6143
 9234TIP3    H127666   5.783   3.039   2.096  1.0295  1.8203 -0.7590
 9234TIP3    H227667   5.930   3.025   2.061  0.7721 -1.2157 -0.8691
 9235TIP3   OH227668   2.931   0.435   3.817  0.5415  0.1146  0.6256
 9235TIP3    H127669   2.957   0.512   3.867  0.1091 -0.1379  1.2639
 9235TIP3    H227670   2.935   0.363   3.881  0.0653 -0.2288  0.2738
 9236TIP3   OH227671   4.030   6.044   3.702  0.3601  0.3129  0.2174
 9236TIP3    H127672   3.985   6.058   3.786  0.4991 -0.4487  0.4270
 9236TIP3    H227673   3.992   6.110   3.644  0.0507  0.6614  0.7991
 9237TIP3   OH227674   3.241   6.040   4.898  0.4471  0.5010  0.5186
 9237TIP3    H127675   3.277   6.035   4.987  2.2773  0.6211 -0.1632
 9237TIP3    H227676   3.303   5.990   4.845  1.7250  3.7450 -1.3393
 9238TIP3   OH227677   4.455   0.257   3.688 -0.3848  0.6286  0.6595
 9238TIP3    H127678   4.396   0.230   3.618  0.8959 -0.1162 -0.1892
 9238TIP3    H227679   4.459   0.352   3.681  2.6078  0.4711 -2.9109
 9239TIP3   OH227680   4.823   6.192   1.496  0.2582 -0.2854  0.3358
 9239TIP3    H127681   4.799   6.101   1.510  3.0257 -0.9940  1.0699
 9239TIP3    H227682   4.842   6.197   1.402 -0.9699 -0.1334  0.0753
 9240TIP3   OH227683   1.233   3.382   4.629 -0.1489  0.0551 -0.2962
 9240TIP3    H127684   1.289   3.339   4.694  1.0900 -1.1523 -2.0739
 9240TIP3    H227685   1.152   3.331   4.629  0.6803 -1.3071 -1.2110
 9241TIP3   OH227686   3.544   0.880   0.293  0.1358  0.0689 -0.1436
 9241TIP3    H127687   3.509   0.953   0.344  0.9492 -0.4462  1.2149
 9241TIP3    H227688   3.467   0.827   0.270 -0.2422  0.2694  0.6406
 9242TIP3   OH227689   3.127   4.966   0.585  0.4848 -0.8335 -0.4069
 9242TIP3    H127690   3.044   4.942   0.625  0.6800 -0.7694  0.0358
 9242TIP3    H227691   3.108   5.050   0.541  1.1780  1.1218  2.7016
 9243TIP3   OH227692   4.229   6.696   0.660  0.0115  0.9615 -0.0722
 9243TIP3    H127693   4.306   6.747   0.685  0.7850 -0.3351  0.2715
 9243TIP3    H227694   4.191   6.744   0.587 -0.4706  3.1313  1.5034
 9244TIP3   OH227695   4.544   3.679   2.796  0.5118 -0.3864 -0.5729
 9244TIP3    H127696   4.454   3.656   2.819 -0.2445  2.0442 -0.8025
 9244TIP3    H227697   4.596   3.651   2.871 -0.9443  1.0963  1.0763
 9245TIP3   OH227698   0.690   4.502   5.491  0.3379 -0.1619  0.1586
 9245TIP3    H127699   0.607   4.492   5.538 -0.2705  0.3082 -0.7585
 9245TIP3    H227700   0.676   4.580   5.436  1.3607 -0.1293 -0.0738
 9246TIP3   OH227701   2.674   2.869   2.325  0.2000 -1.0539  0.3095
 9246TIP3    H127702   2.605   2.830   2.271  0.4075  1.4135 -1.9402
 9246TIP3    H227703   2.627   2.926   2.385  0.1358 -1.8032  0.9909
 9247TIP3   OH227704   5.557   3.235   0.953  0.2472 -0.4675 -0.2340
 9247TIP3    H127705   5.648   3.206   0.943 -0.3687 -2.1308 -1.4381
 9247TIP3    H227706   5.538   3.223   1.046  1.3714  0.2990  0.1139
 9248TIP3   OH227707   0.315   2.568   3.576 -0.0182 -0.4360  0.1386
 9248TIP3    H127708   0.226   2.602   3.582 -0.0278 -0.1847 -1.0561
 9248TIP3    H227709   0.305   2.476   3.552  0.0231 -1.1590  2.6390
 9249TIP3   OH227710   6.865   4.242   5.291  0.1746  0.3354  0.6599
 9249TIP3    H127711   6.923   4.178   5.334  0.1706 -0.2280 -0.1492
 9249TIP3    H227712   6.900   4.327   5.318  1.8293  0.0273 -0.3382
 9250TIP3   OH227713   3.276   2.013   2.393 -0.1911  0.1814  0.1513
 9250TIP3    H127714   3.359   1.965   2.398  0.0236  0.4738 -0.4683
 9250TIP3    H227715   3.302   2.104   2.384 -0.5978  0.4457  1.4416
 9251TIP3   OH227716   1.654   1.457   2.622 -0.0348 -0.2374 -0.1715
 9251TIP3    H127717   1.627   1.536   2.575  0.0729  0.0939  0.3124
 9251TIP3    H227718   1.743   1.476   2.651 -0.0797 -0.4583  0.1135
 9252TIP3   OH227719   2.820   6.228   2.947  0.3025 -0.3978 -0.1396
 9252TIP3    H127720   2.731   6.194   2.945  0.6132 -1.2742 -2.9775
 9252TIP3    H227721   2.859   6.188   3.025 -1.2171 -1.5054  0.0911
 9253TIP3   OH227722   2.803   0.999   3.248 -0.3019 -0.1410  0.8036
 9253TIP3    H127723   2.896   1.020   3.243  0.1521 -1.9818  0.6786
 9253TIP3    H227724   2.792   0.925   3.188 -1.3134 -1.6021  2.6897
 9254TIP3   OH227725   4.044   5.867   3.353  0.6822  0.0826  0.1134
 9254TIP3    H127726   4.123   5.907   3.317 -0.4198  1.5578 -0.7982
 9254TIP3    H227727   4.022   5.797   3.292  0.2388  0.9325 -0.7348
 9255TIP3   OH227728   7.082   4.215   2.169  0.4136 -0.1972 -0.3223
 9255TIP3    H127729   7.159   4.256   2.209  0.7215 -0.3131 -0.7940
 9255TIP3    H227730   7.047   4.282   2.111  0.8006 -0.5249 -0.9420
 9256TIP3   OH227731   5.436   4.850   2.898  0.1588  0.2546  0.5018
 9256TIP3    H127732   5.455   4.803   2.979  1.0695  1.4287  1.0051
 9256TIP3    H227733   5.477   4.936   2.911  0.8169  0.2609 -1.4387
 9257TIP3   OH227734   2.094   1.495   5.361 -0.3162  0.0208 -0.2328
 9257TIP3    H127735   2.180   1.460   5.387  0.1919  0.8098 -0.8020
 9257TIP3    H227736   2.048   1.420   5.323  0.0038 -0.4797  0.3489
 9258TIP3   OH227737   2.650   4.835   1.947 -0.0042  0.0947 -0.3127
 9258TIP3    H127738   2.718   4.783   1.904 -1.3378 -0.4270 -1.9106
 9258TIP3    H227739   2.568   4.791   1.924 -0.8565 -0.1422  2.7413
 9259TIP3   OH227740   1.003   0.912   5.112 -0.0029 -0.0724 -0.7166
 9259TIP3    H127741   1.099   0.908   5.111 -0.0081 -0.3313 -0.3807
 9259TIP3    H227742   0.982   0.960   5.193 -0.1508  0.2635 -0.9514
 9260TIP3   OH227743   3.311   6.235   3.106  0.3167  0.1980  0.5282
 9260TIP3    H127744   3.226   6.260   3.070  0.7656 -0.6182 -1.1918
 9260TIP3    H227745   3.312   6.140   3.103  1.3070  0.1985  0.5124
 9261TIP3   OH227746   2.868   1.263   3.441  0.3778 -0.2785  0.1044
 9261TIP3    H127747   2.915   1.328   3.494  0.4396 -0.3690  0.1615
 9261TIP3    H227748   2.894   1.179   3.478 -0.0809 -0.3165  0.3424
 9262TIP3   OH227749   4.087   1.660   5.434  0.1509 -0.0000  0.5587
 9262TIP3    H127750   4.014   1.677   5.493 -1.7069 -1.9901 -0.9898
 9262TIP3    H227751   4.095   1.739   5.380 -0.9489  0.2090  0.6888
 9263TIP3   OH227752   1.647   2.199   5.577  0.4934  0.0921 -0.0672
 9263TIP3    H127753   1.704   2.265   5.538  0.9037 -0.0589  0.2821
 9263TIP3    H227754   1.611   2.241   5.655  1.2637 -0.3240  0.5172
 9264TIP3   OH227755   5.015   0.512   4.593 -0.8996 -0.0932  0.2149
 9264TIP3    H127756   5.004   0.441   4.530  0.3553  0.4380 -0.6351
 9264TIP3    H227757   4.965   0.483   4.670 -0.0404 -2.1253  0.0825
 9265TIP3   OH227758   2.690   1.277   3.133 -0.7166  0.6945  0.5917
 9265TIP3    H127759   2.722   1.331   3.061 -0.5923  0.5889  0.5678
 9265TIP3    H227760   2.597   1.265   3.114 -0.7296  0.8435  0.5611
 9266TIP3   OH227761   6.153   4.928   0.784 -0.2993  0.3377  0.6743
 9266TIP3    H127762   6.101   4.927   0.704  0.9971 -0.9366 -0.2284
 9266TIP3    H227763   6.211   5.004   0.774 -1.5948  1.4530  1.4416
 9267TIP3   OH227764   6.568   1.355   2.150 -0.0544 -0.4234 -0.3971
 9267TIP3    H127765   6.643   1.304   2.180 -0.4966 -0.9330 -0.1434
 9267TIP3    H227766   6.495   1.323   2.202 -0.4804 -0.0422 -0.7543
 9268TIP3   OH227767   1.728   4.832   0.267  0.1581  0.2157  0.2942
 9268TIP3    H127768   1.735   4.790   0.353 -0.9468 -0.1514  0.2294
 9268TIP3    H227769   1.715   4.925   0.286 -0.4890  0.0802  0.5498
 9269TIP3   OH227770   2.843   4.027   0.794  0.1807 -0.1548 -0.2821
 9269TIP3    H127771   2.884   3.955   0.746  1.1312  0.8574 -1.0506
 9269TIP3    H227772   2.900   4.042   0.869  2.6764  2.7011 -2.5025
 9270TIP3   OH227773   6.611   0.827   3.678  0.1009  0.1829  0.7000
 9270TIP3    H127774   6.521   0.800   3.662  0.0255  0.0595  1.3087
 9270TIP3    H227775   6.634   0.881   3.603  0.4945 -2.1590 -0.9907
 9271TIP3   OH227776   5.651   4.381   0.940 -0.1110 -0.7132 -0.4729
 9271TIP3    H127777   5.635   4.292   0.911 -1.0391 -0.4603 -0.7827
 9271TIP3    H227778   5.568   4.426   0.926  0.0601 -0.0332  0.5590
 9272TIP3   OH227779   3.470   3.637   1.558  0.3111 -0.1388 -0.4054
 9272TIP3    H127780   3.384   3.647   1.516 -0.3832 -1.9906  0.4690
 9272TIP3    H227781   3.530   3.620   1.485 -0.6122 -1.7657 -0.8353
 9273TIP3   OH227782   6.860   4.244   4.207  0.0047 -0.0548 -0.2179
 9273TIP3    H127783   6.848   4.245   4.302 -1.2995 -0.5500 -0.3549
 9273TIP3    H227784   6.852   4.336   4.181 -1.7767 -0.1464 -0.0710
 9274TIP3   OH227785   2.304   0.223   3.562 -0.1949  0.5281 -0.2046
 9274TIP3    H127786   2.230   0.237   3.621 -0.3510  1.2654 -0.5766
 9274TIP3    H227787   2.381   0.228   3.620 -0.3392  1.3690 -0.0742
 9275TIP3   OH227788   1.069   3.697   1.484 -0.0519 -0.4472 -0.1080
 9275TIP3    H127789   1.138   3.650   1.437  0.7933 -0.1335  0.7854
 9275TIP3    H227790   1.078   3.788   1.455  2.5650  0.4166  2.8751
 9276TIP3   OH227791   5.836   6.647   2.352 -0.0015  0.7101  0.7753
 9276TIP3    H127792   5.836   6.720   2.290 -2.6344 -0.4500 -0.7795
 9276TIP3    H227793   5.883   6.577   2.305 -1.3673  0.0597  0.3228
 9277TIP3   OH227794   5.337   2.311   0.810 -0.0971  0.9273 -0.7744
 9277TIP3    H127795   5.419   2.315   0.859 -0.8849 -1.1496  0.8707
 9277TIP3    H227796   5.334   2.222   0.776 -2.3459  0.4496  0.5046
 9278TIP3   OH227797   4.471   3.620   0.488 -0.1478 -0.2969  0.4503
 9278TIP3    H127798   4.395   3.669   0.456  0.2662  0.7634  1.0258
 9278TIP3    H227799   4.460   3.619   0.583  1.7308  2.0067  0.7947
 9279TIP3   OH227800   3.525   5.796   2.257  0.4483  0.2490 -0.0654
 9279TIP3    H127801   3.532   5.702   2.238  0.2219  0.1912  0.1187
 9279TIP3    H227802   3.596   5.836   2.208 -0.4085  0.1694 -1.4085
 9280TIP3   OH227803   2.811   5.058   1.414  0.0106  0.0412 -0.2746
 9280TIP3    H127804   2.817   5.022   1.502 -0.4423 -1.2949 -0.7671
 9280TIP3    H227805   2.809   4.981   1.357  2.5587  0.8865 -1.6276
 9281TIP3   OH227806   0.958   1.210   1.810  0.1600  1.3066  0.7728
 9281TIP3    H127807   0.908   1.129   1.808  1.6433  0.3531 -0.5133
 9281TIP3    H227808   0.892   1.279   1.805 -1.0714  0.1110 -0.9080
 9282TIP3   OH227809   5.772   4.562   1.706  0.4053 -0.0606  0.5254
 9282TIP3    H127810   5.757   4.645   1.752  2.5823  1.7251 -1.6991
 9282TIP3    H227811   5.687   4.518   1.707 -0.9125  2.2992  1.5502
 9283TIP3   OH227812   0.564   0.911   1.254  0.6489  0.5152  0.2267
 9283TIP3    H127813   0.571   0.893   1.348  1.5289 -1.9109 -0.2131
 9283TIP3    H227814   0.652   0.893   1.220  0.3110  1.2459 -1.0824
 9284TIP3   OH227815   1.593   6.414   0.434  0.6023  0.0259 -0.3211
 9284TIP3    H127816   1.657   6.373   0.375 -0.6324 -0.2605 -1.5057
 9284TIP3    H227817   1.536   6.343   0.461 -0.0313  0.5149 -0.3611
 9285TIP3   OH227818   2.897   5.994   5.371 -0.0128  0.1454 -0.3618
 9285TIP3    H127819   2.915   5.902   5.354  0.4702  0.2133 -0.2559
 9285TIP3    H227820   2.838   6.021   5.300  1.4273  0.2528 -1.5722
 9286TIP3   OH227821   4.079   2.339   4.608  0.3432  0.2517 -0.0648
 9286TIP3    H127822   3.990   2.308   4.623 -0.3171  1.5776 -0.9761
 9286TIP3    H227823   4.105   2.298   4.525  0.2438  0.5166 -0.2302
 9287TIP3   OH227824   6.480   5.662   4.174 -0.4351  0.0491 -0.0121
 9287TIP3    H127825   6.462   5.649   4.081  0.5797  1.9543 -0.5352
 9287TIP3    H227826   6.406   5.623   4.219 -1.7881  0.5747 -1.6999
 9288TIP3   OH227827   7.006   4.136   2.549 -0.0094  0.0650  0.1751
 9288TIP3    H127828   6.947   4.063   2.533 -0.2894  0.5897 -1.2878
 9288TIP3    H227829   7.021   4.134   2.644  0.4966 -2.2559  0.1030
 9289TIP3   OH227830   1.330   4.548   4.180  0.3920  0.3669 -0.1759
 9289TIP3    H127831   1.335   4.469   4.234  2.6752  1.9069  2.1336
 9289TIP3    H227832   1.237   4.563   4.167 -0.1738 -1.4313  1.3253
 9290TIP3   OH227833   3.106   5.036   0.189  0.0704  0.4144 -0.4289
 9290TIP3    H127834   3.106   4.940   0.191  2.3688  0.3388  1.9457
 9290TIP3    H227835   3.171   5.059   0.123  0.3336  0.3070 -0.2078
 9291TIP3   OH227836   4.809   2.888   2.655  0.2017  0.6743  0.3907
 9291TIP3    H127837   4.871   2.816   2.642 -1.8562 -1.1523  0.2043
 9291TIP3    H227838   4.803   2.897   2.750 -0.3952 -0.2030  0.4439
 9292TIP3   OH227839   0.320   2.070   1.710  1.0617 -0.5557 -0.1868
 9292TIP3    H127840   0.248   2.008   1.695  2.0044 -1.4583 -1.1198
 9292TIP3    H227841   0.346   2.098   1.622  1.1596  0.6020  0.1903
 9293TIP3   OH227842   0.945   5.185   4.281 -0.0346  0.1196  0.1516
 9293TIP3    H127843   1.033   5.190   4.319 -0.3109  2.8571  0.6044
 9293TIP3    H227844   0.887   5.171   4.356 -0.0952 -0.8958 -0.0631
 9294TIP3   OH227845   2.658   6.383   0.862 -0.0770  0.0081  0.0657
 9294TIP3    H127846   2.644   6.292   0.837 -1.2854 -0.4812  2.2576
 9294TIP3    H227847   2.701   6.377   0.948 -0.6206  1.4916  0.4616
 9295TIP3   OH227848   7.194   4.393   2.635 -0.0636 -0.2935 -0.6653
 9295TIP3    H127849   7.126   4.393   2.568  0.8074 -1.7625 -1.6034
 9295TIP3    H227850   7.149   4.367   2.715 -0.4323 -2.4114 -1.5111
 9296TIP3   OH227851   3.535   2.439   0.705 -0.4282 -0.2593 -0.8218
 9296TIP3    H127852   3.445   2.472   0.707 -0.8702 -1.3157 -2.0240
 9296TIP3    H227853   3.570   2.469   0.622 -0.0654 -0.8294 -0.8780
 9297TIP3   OH227854   2.347   3.025   3.032 -0.1784  0.1423  0.9600
 9297TIP3    H127855   2.413   2.962   3.061 -1.1839 -2.6277 -2.2236
 9297TIP3    H227856   2.277   3.017   3.097  0.7004 -0.2781  1.8796
 9298TIP3   OH227857   1.325   3.972   1.778  0.1564 -0.4087  0.3685
 9298TIP3    H127858   1.312   3.877   1.775 -2.9126 -0.1283  0.8437
 9298TIP3    H227859   1.392   3.985   1.845 -0.2103 -2.2255  1.1715
 9299TIP3   OH227860   4.478   1.435   3.585  0.3725 -0.6992 -0.7631
 9299TIP3    H127861   4.442   1.443   3.497  0.5780  1.0217 -0.7161
 9299TIP3    H227862   4.401   1.419   3.640  0.0224  0.0886 -1.0164
 9300TIP3   OH227863   0.523   6.397   0.962 -0.3952 -0.1111  0.0591
 9300TIP3    H127864   0.531   6.471   0.902 -1.3484  0.6138  0.7819
 9300TIP3    H227865   0.543   6.320   0.909  1.2653  0.7012 -0.5560
 9301TIP3   OH227866   4.169   3.380   1.880  0.1804 -0.4790  0.1989
 9301TIP3    H127867   4.150   3.395   1.973  0.5740 -2.1775  0.5963
 9301TIP3    H227868   4.206   3.462   1.849 -0.2365  0.2091  1.4751
 9302TIP3   OH227869   1.909   4.600   1.709 -0.3206 -0.0269 -0.1919
 9302TIP3    H127870   1.868   4.522   1.748  0.0423  1.0454  2.5728
 9302TIP3    H227871   1.839   4.642   1.660 -1.3903 -0.4153  0.9609
 9303TIP3   OH227872   2.534   5.709   4.246 -0.2822  0.3589  0.2380
 9303TIP3    H127873   2.541   5.802   4.270  0.4813  1.0297 -2.2998
 9303TIP3    H227874   2.611   5.692   4.192 -0.8165 -1.5691  0.0062
 9304TIP3   OH227875   0.829   1.438   5.387  0.3626 -0.1850  0.1361
 9304TIP3    H127876   0.868   1.353   5.402 -1.2534 -0.9444  0.2827
 9304TIP3    H227877   0.746   1.435   5.434  0.4963  1.6690  0.5662
 9305TIP3   OH227878   3.879   1.423   0.531 -0.5643  0.5388 -0.0013
 9305TIP3    H127879   3.838   1.340   0.508  0.2778 -0.2540  1.2522
 9305TIP3    H227880   3.960   1.425   0.480 -0.6964  0.7251 -0.2114
 9306TIP3   OH227881   1.787   2.512   1.088  0.2151  0.0633  0.1857
 9306TIP3    H127882   1.826   2.576   1.028  0.8430 -0.6522 -0.1847
 9306TIP3    H227883   1.783   2.431   1.037  1.6637 -0.8186  1.3851
 9307TIP3   OH227884   5.336   0.780   2.042  0.0264  0.3636 -0.0821
 9307TIP3    H127885   5.286   0.786   1.960 -1.8962  1.0221  1.0750
 9307TIP3    H227886   5.403   0.848   2.034  1.4172 -1.0919 -2.0215
 9308TIP3   OH227887   0.263   0.193   1.591 -0.3776  0.4567  0.2913
 9308TIP3    H127888   0.283   0.180   1.684  0.1771  1.7726  0.3807
 9308TIP3    H227889   0.266   0.288   1.580  0.8508  0.2598 -1.3628
 9309TIP3   OH227890   6.256   5.799   3.953  0.0110  1.0480 -0.0179
 9309TIP3    H127891   6.338   5.837   3.984 -0.1062 -0.4368  2.4107
 9309TIP3    H227892   6.189   5.859   3.986  0.0410  1.5693 -0.8801
 9310TIP3   OH227893   1.229   3.052   5.845  0.2443  0.4998  0.4755
 9310TIP3    H127894   1.188   2.971   5.874 -1.4929  0.8396 -0.8462
 9310TIP3    H227895   1.291   3.074   5.914 -0.7101 -0.8848  1.8309
 9311TIP3   OH227896   2.265   6.426   3.976 -0.0547  0.1859  0.4153
 9311TIP3    H127897   2.305   6.394   4.057  0.1126 -0.4928  0.0686
 9311TIP3    H227898   2.228   6.348   3.935 -1.4256  0.7354  0.5364
 9312TIP3   OH227899   6.829   0.467   2.785  0.3520  0.2196 -0.0839
 9312TIP3    H127900   6.738   0.484   2.763 -0.2457 -1.1375  1.1865
 9312TIP3    H227901   6.837   0.496   2.876  0.5994 -1.5858  0.5021
 9313TIP3   OH227902   0.141   5.661   1.281  0.3821  0.4928 -0.2877
 9313TIP3    H127903   0.235   5.641   1.284  0.6532  1.5839 -0.8572
 9313TIP3    H227904   0.124   5.678   1.188 -0.1533  1.3231 -0.0417
 9314TIP3   OH227905   0.085   1.229   0.171  0.2309 -0.0970 -0.0770
 9314TIP3    H127906   0.108   1.189   0.088  2.6545 -1.0238  0.9623
 9314TIP3    H227907   0.105   1.322   0.160 -1.2313  0.1444 -1.0599
 9315TIP3   OH227908   2.384   1.520   4.121 -0.1841 -0.0288 -0.3059
 9315TIP3    H127909   2.448   1.526   4.192  1.4071 -4.0100 -1.1421
 9315TIP3    H227910   2.430   1.553   4.044 -0.3435  0.1727 -0.3169
 9316TIP3   OH227911   6.650   2.130   4.246  0.3599 -0.9120  0.0702
 9316TIP3    H127912   6.592   2.206   4.260 -0.2450 -1.6017  1.4566
 9316TIP3    H227913   6.618   2.092   4.164  0.3845  0.0641 -0.4153
 9317TIP3   OH227914   3.597   0.367   0.046 -0.0010 -0.2931  0.3030
 9317TIP3    H127915   3.514   0.412   0.028  1.4523  2.3278 -0.4644
 9317TIP3    H227916   3.584   0.279   0.012 -2.3550  0.1406 -0.1146
 9318TIP3   OH227917   0.400   2.262   0.526  0.2578 -0.4961  0.2746
 9318TIP3    H127918   0.417   2.228   0.613  3.0835  1.7141  0.7261
 9318TIP3    H227919   0.458   2.211   0.469  0.1153 -0.4181  0.0602
 9319TIP3   OH227920   4.655   4.284   4.837 -0.3143  0.7716  0.3815
 9319TIP3    H127921   4.727   4.348   4.840  0.3869  0.0029  0.3297
 9319TIP3    H227922   4.681   4.222   4.769  0.0095 -0.7108  1.7995
 9320TIP3   OH227923   3.650   0.980   1.248 -0.1336  0.1099 -0.2292
 9320TIP3    H127924   3.619   0.892   1.226  2.0607 -1.1441  1.3738
 9320TIP3    H227925   3.603   1.037   1.187 -0.6143 -2.2882 -2.2754
 9321TIP3   OH227926   2.683   0.873   0.102 -0.0675  0.1800  0.1065
 9321TIP3    H127927   2.754   0.932   0.130 -1.9162  1.3820  2.6966
 9321TIP3    H227928   2.625   0.929   0.050  0.1005 -0.4315 -0.7688
 9322TIP3   OH227929   2.390   4.328   3.715  0.2412  0.0762  0.2061
 9322TIP3    H127930   2.322   4.334   3.648  0.9537 -0.9388 -0.6429
 9322TIP3    H227931   2.347   4.358   3.795 -1.8965 -2.4869  0.1593
 9323TIP3   OH227932   6.543   6.551   4.917 -0.5879 -0.1493 -0.1582
 9323TIP3    H127933   6.548   6.582   5.007  2.2162  0.6283 -0.5075
 9323TIP3    H227934   6.536   6.456   4.925 -1.9539  0.0051  0.8445
 9324TIP3   OH227935   7.171   5.245   1.008  0.4081  0.1483 -0.3135
 9324TIP3    H127936   7.102   5.305   0.978  0.5917  0.8928  0.6848
 9324TIP3    H227937   7.223   5.228   0.930  1.1745  2.4340 -0.3938
 9325TIP3   OH227938   1.125   3.788   2.716  0.4076 -0.3253  0.0077
 9325TIP3    H127939   1.033   3.792   2.691  0.6068 -0.0822 -0.7143
 9325TIP3    H227940   1.132   3.851   2.788 -0.0683 -0.6411  0.3359
 9326TIP3   OH227941   1.634   1.095   4.354  0.0077  0.2909 -0.4113
 9326TIP3    H127942   1.573   1.052   4.294  0.0176 -0.1544 -0.1106
 9326TIP3    H227943   1.640   1.035   4.428 -0.4358  1.0787  0.2878
 9327TIP3   OH227944   5.216   5.429   1.658  0.5437  0.3979 -0.1796
 9327TIP3    H127945   5.292   5.434   1.716  0.8156 -1.5291 -0.3323
 9327TIP3    H227946   5.251   5.398   1.575 -0.0711  1.7988 -1.0058
 9328TIP3   OH227947   4.378   4.617   1.758 -0.6780 -0.0948 -0.0569
 9328TIP3    H127948   4.407   4.679   1.692 -1.3710  1.6735  1.2196
 9328TIP3    H227949   4.312   4.563   1.714 -1.0208  0.9471 -0.8503
 9329TIP3   OH227950   2.487   0.734   0.581 -0.0377 -0.1333 -0.1648
 9329TIP3    H127951   2.510   0.775   0.665 -0.9727 -0.3574  0.2100
 9329TIP3    H227952   2.571   0.722   0.537  0.3737  1.0380  0.2480
 9330TIP3   OH227953   4.889   0.448   4.845  0.9917 -0.1639  0.5046
 9330TIP3    H127954   4.924   0.450   4.934 -0.5947  0.4560  1.1502
 9330TIP3    H227955   4.795   0.435   4.857  0.3884  2.2901 -0.9675
 9331TIP3   OH227956   0.614   1.938   3.890  0.3181  0.4692 -0.1002
 9331TIP3    H127957   0.705   1.936   3.918  0.1760  0.3886  0.3536
 9331TIP3    H227958   0.569   1.875   3.946 -0.1269  0.9329  0.0805
 9332TIP3   OH227959   2.648   2.906   3.044  0.6257 -0.2869 -0.1784
 9332TIP3    H127960   2.638   2.976   2.979  1.2918  1.4117  1.4488
 9332TIP3    H227961   2.635   2.949   3.128  0.1416 -2.3429  0.8724
 9333TIP3   OH227962   1.290   2.297   4.119  0.0887 -0.5386 -0.1484
 9333TIP3    H127963   1.256   2.356   4.052  1.8869  2.2928  1.2162
 9333TIP3    H227964   1.366   2.255   4.079  0.2381 -0.0525 -0.3770
 9334TIP3   OH227965   6.881   2.965   0.563  0.0801  0.1769  0.2808
 9334TIP3    H127966   6.788   2.948   0.570 -0.3037  1.6783 -0.6315
 9334TIP3    H227967   6.897   2.974   0.469  1.2762 -0.7072  0.3817
 9335TIP3   OH227968   2.847   3.233   4.889  0.3602  1.1392 -0.1178
 9335TIP3    H127969   2.828   3.318   4.930  2.0564  1.0809  0.8671
 9335TIP3    H227970   2.868   3.254   4.798 -0.5833  1.5985 -0.2460
 9336TIP3   OH227971   5.961   5.975   4.086 -0.3995 -0.3854 -0.2026
 9336TIP3    H127972   5.972   5.884   4.115  0.2722 -0.1576  0.2743
 9336TIP3    H227973   5.869   5.981   4.062 -0.0724 -1.7376 -2.1276
 9337TIP3   OH227974   0.029   2.806   0.610  0.2299  0.3859 -0.0517
 9337TIP3    H127975  -0.012   2.796   0.524  0.1084  1.9624 -0.2022
 9337TIP3    H227976   0.122   2.791   0.595  0.0298 -0.8787 -0.1464
 9338TIP3   OH227977   4.432   1.167   0.530  0.0000  0.2551  0.0068
 9338TIP3    H127978   4.394   1.215   0.456 -0.1542  0.5059  0.2481
 9338TIP3    H227979   4.358   1.144   0.585 -0.1051 -1.5208 -0.8175
 9339TIP3   OH227980   1.597   3.438   1.607 -0.4609  0.3111 -0.6149
 9339TIP3    H127981   1.653   3.366   1.635 -0.6370  0.3734 -0.1072
 9339TIP3    H227982   1.657   3.501   1.567 -0.1108  0.5516  0.2676
 9340TIP3   OH227983   4.213   6.370   2.818 -0.0952 -0.0910  0.2779
 9340TIP3    H127984   4.268   6.351   2.742  0.0559 -4.2778  1.1653
 9340TIP3    H227985   4.273   6.405   2.883 -0.1895  3.3364 -1.2789
 9341TIP3   OH227986   0.858   0.282   1.562  0.9042  0.2856  0.0452
 9341TIP3    H127987   0.848   0.371   1.528 -0.9259 -0.3256 -1.1836
 9341TIP3    H227988   0.806   0.281   1.643  0.1445  0.1030 -0.4359
 9342TIP3   OH227989   0.864   4.651   4.376 -0.4976 -0.2407  0.4861
 9342TIP3    H127990   0.814   4.625   4.299 -1.9699  1.5283  0.7528
 9342TIP3    H227991   0.894   4.569   4.415 -1.2038 -1.2449 -0.9951
 9343TIP3   OH227992   4.713   3.454   5.047  0.5009 -0.1504  0.0906
 9343TIP3    H127993   4.800   3.443   5.086  0.3082 -0.5338  0.4242
 9343TIP3    H227994   4.670   3.519   5.102 -0.1307 -1.4213  1.1640
 9344TIP3   OH227995   5.715   1.486   5.639 -0.1322  0.2186 -0.0417
 9344TIP3    H127996   5.798   1.488   5.688 -1.9204  1.0930  3.2420
 9344TIP3    H227997   5.722   1.560   5.578  1.0705  0.9660  0.9513
 9345TIP3   OH227998   5.760   3.512   4.988  0.1369  0.0250  0.0273
 9345TIP3    H127999   5.666   3.493   4.988  0.4379 -1.8959  2.0061
 9345TIP3    H228000   5.778   3.540   5.078  1.1250  2.7980 -0.9153
 9346TIP3   OH228001   1.374   2.498   1.263 -0.1688  0.3048  0.3903
 9346TIP3    H128002   1.450   2.449   1.295 -0.0934  0.0704 -0.1535
 9346TIP3    H228003   1.378   2.491   1.168 -0.4153  0.9772  0.3224
 9347TIP3   OH228004   4.730   3.270   4.108 -0.5361 -0.4004  0.5733
 9347TIP3    H128005   4.768   3.233   4.029 -0.6922  1.2754 -0.3159
 9347TIP3    H228006   4.805   3.288   4.165 -0.0495  1.5884 -0.6099
 9348TIP3   OH228007   4.933   5.874   1.661  0.0151 -0.8278 -0.5696
 9348TIP3    H128008   5.017   5.921   1.658  0.3826 -1.4670 -3.0824
 9348TIP3    H228009   4.953   5.793   1.707  0.3958 -0.3103  0.1949
 9349TIP3   OH228010   2.722   1.196   3.806 -0.5350  0.1642 -0.4737
 9349TIP3    H128011   2.767   1.217   3.887  0.2789 -1.7217 -0.4014
 9349TIP3    H228012   2.629   1.208   3.826 -0.2472  1.3506  0.2078
 9350TIP3   OH228013   6.278   0.132   1.218  1.0258  0.1527  0.2528
 9350TIP3    H128014   6.204   0.071   1.223  1.0318  0.1247  0.0314
 9350TIP3    H228015   6.247   0.201   1.160  0.7970  0.6801  0.9879
 9351TIP3   OH228016   5.348   4.008   1.888  0.3921  0.5404  0.9684
 9351TIP3    H128017   5.282   4.077   1.890  0.6470  0.7598  2.1968
 9351TIP3    H228018   5.384   4.006   1.976 -1.3009 -2.8416  1.7169
 9352TIP3   OH228019   1.188   4.617   4.465  0.8447  0.2848 -0.1721
 9352TIP3    H128020   1.199   4.542   4.406  3.0984 -0.2764  0.8414
 9352TIP3    H228021   1.181   4.692   4.406 -1.2033 -0.6107 -1.2103
 9353TIP3   OH228022   3.886   3.843   3.917  0.3759  0.1265  0.1622
 9353TIP3    H128023   3.900   3.750   3.899  0.3453  0.0797  0.3802
 9353TIP3    H228024   3.827   3.872   3.847 -1.4498 -0.5461  1.3535
 9354TIP3   OH228025   5.195   2.164   2.862 -0.0323  0.3755 -0.1455
 9354TIP3    H128026   5.157   2.231   2.919  1.3561 -0.3672  1.7700
 9354TIP3    H228027   5.290   2.180   2.868  0.1796 -0.3309 -1.5151
 9355TIP3   OH228028   6.640   4.647   5.772 -0.5412 -0.1085  0.3677
 9355TIP3    H128029   6.627   4.741   5.783  0.3084 -0.0093  0.6026
 9355TIP3    H228030   6.666   4.616   5.859  0.0362 -0.4103  0.0894
 9356TIP3   OH228031   4.236   5.658   5.248 -0.3664  0.3296  0.0210
 9356TIP3    H128032   4.150   5.678   5.212 -0.1201 -0.6229 -1.1754
 9356TIP3    H228033   4.218   5.609   5.328 -0.9298  2.9755  1.6433
 9357TIP3   OH228034   6.011   1.784   1.479  0.5929  0.0242  0.3032
 9357TIP3    H128035   5.995   1.751   1.568 -0.3525  2.5530  1.1656
 9357TIP3    H228036   5.926   1.778   1.436 -0.0455  2.6712  1.0289
 9358TIP3   OH228037   1.927   5.902   5.074  0.1254  0.2435  1.1333
 9358TIP3    H128038   1.947   5.809   5.080  1.7751  0.4169 -0.7254
 9358TIP3    H228039   1.861   5.917   5.142 -2.2224 -2.8024 -0.2241
 9359TIP3   OH228040   0.896   1.379   0.540 -0.1110 -0.1376  0.8178
 9359TIP3    H128041   0.942   1.331   0.609 -0.2230  0.8766  1.6196
 9359TIP3    H228042   0.952   1.368   0.462 -0.9291 -2.8899  0.5142
 9360TIP3   OH228043   0.880   3.626   4.296 -0.2367 -0.4720  0.2358
 9360TIP3    H128044   0.965   3.621   4.339  0.1280  1.5411 -0.1666
 9360TIP3    H228045   0.900   3.646   4.205 -1.1280  0.0920  0.1524
 9361TIP3   OH228046   5.566   3.308   3.662 -0.1784  0.5766 -0.1561
 9361TIP3    H128047   5.517   3.388   3.643  0.0422  0.8316  0.3429
 9361TIP3    H228048   5.650   3.320   3.617 -0.0659  0.7136  0.0922
 9362TIP3   OH228049   4.258   5.480   0.143  0.6735 -0.0703 -0.4168
 9362TIP3    H128050   4.171   5.441   0.150  1.3062 -1.5550 -0.6040
 9362TIP3    H228051   4.254   5.558   0.199 -0.1236 -1.3090  1.3263
 9363TIP3   OH228052   5.112   5.142   3.309  0.1263  0.0973  0.1168
 9363TIP3    H128053   5.173   5.078   3.346  0.9705  0.1237 -1.1845
 9363TIP3    H228054   5.029   5.095   3.303  0.5177 -0.5858  0.0187
 9364TIP3   OH228055   1.203   6.324   5.251 -0.1262  0.3273  0.3336
 9364TIP3    H128056   1.228   6.365   5.334  0.0141  0.3826  0.2645
 9364TIP3    H228057   1.142   6.255   5.276 -0.6388  0.8076  0.4185
 9365TIP3   OH228058   0.960   1.743   2.393 -0.1571 -0.2480 -0.2797
 9365TIP3    H128059   1.010   1.824   2.391 -1.0054  0.2836 -0.4633
 9365TIP3    H228060   0.966   1.708   2.304 -2.4354  1.2880 -1.1033
 9366TIP3   OH228061   6.081   1.727   0.088 -0.3897  0.2812 -0.4106
 9366TIP3    H128062   6.026   1.669   0.035 -2.0478 -0.3986  1.8449
 9366TIP3    H228063   6.048   1.815   0.071  0.7823  0.3962 -2.3227
 9367TIP3   OH228064   1.272   3.625   5.507 -0.1150  0.6886  0.1364
 9367TIP3    H128065   1.318   3.550   5.546  0.6249  1.1075  0.0844
 9367TIP3    H228066   1.316   3.702   5.544 -0.3248  1.0922 -0.4457
 9368TIP3   OH228067   1.344   0.671   5.473  0.3727 -0.0416  0.2916
 9368TIP3    H128068   1.303   0.747   5.432 -0.3677 -0.9351 -0.6602
 9368TIP3    H228069   1.277   0.604   5.473  1.8588 -1.6725 -1.6552
 9369TIP3   OH228070   5.398   4.944   1.311 -0.1196 -0.1947  0.1697
 9369TIP3    H128071   5.382   4.877   1.245 -1.8317 -0.5748  0.9194
 9369TIP3    H228072   5.465   4.907   1.368 -2.1563 -2.0137  1.5069
 9370TIP3   OH228073   2.012   1.007   2.828 -0.2949  0.3272 -0.0398
 9370TIP3    H128074   1.988   0.950   2.902  0.1885 -1.6899 -1.3531
 9370TIP3    H228075   1.931   1.018   2.778 -0.2784  0.3890 -0.0530
 9371TIP3   OH228076   5.178   6.335   1.601 -0.2315 -0.3315 -0.3252
 9371TIP3    H128077   5.149   6.425   1.590  1.5042  0.3557  0.3860
 9371TIP3    H228078   5.242   6.322   1.530 -0.2423 -0.8989 -0.2367
 9372TIP3   OH228079   1.730   6.435   0.026 -0.2449 -0.3936 -0.1045
 9372TIP3    H128080   1.795   6.405   0.090 -0.0058 -1.0665 -0.6431
 9372TIP3    H228081   1.773   6.421  -0.059 -0.1885  1.3465 -0.3973
 9373TIP3   OH228082   5.031   4.598   2.900  0.3567 -0.0593 -0.2475
 9373TIP3    H128083   5.081   4.586   2.982  0.3719 -1.0084 -0.3802
 9373TIP3    H228084   5.097   4.626   2.837  0.3867  0.4655  0.0156
 9374TIP3   OH228085   3.085   5.520   3.654  0.4719  0.3816  0.2952
 9374TIP3    H128086   3.020   5.476   3.709 -1.8515  1.2599 -1.5875
 9374TIP3    H228087   3.152   5.453   3.639 -0.4537 -0.8837  1.5562
 9375TIP3   OH228088   4.233   6.154   4.632  0.8335 -0.1068  0.5409
 9375TIP3    H128089   4.145   6.127   4.657  0.7228 -0.0310  0.2380
 9375TIP3    H228090   4.232   6.153   4.536  0.3083  2.5638  0.4352
 9376TIP3   OH228091   6.521   5.176   4.361  0.0876 -0.5796 -0.4200
 9376TIP3    H128092   6.505   5.214   4.448  1.2412  0.7285 -0.7360
 9376TIP3    H228093   6.546   5.086   4.378 -1.8893 -1.0248  0.4350
 9377TIP3   OH228094   3.765   5.295   1.794 -0.4857  0.3710  0.2135
 9377TIP3    H128095   3.691   5.356   1.794 -0.1714  0.7566  0.0842
 9377TIP3    H228096   3.823   5.327   1.724 -1.2725 -1.2491 -1.2592
 9378TIP3   OH228097   2.450   0.811   4.729  0.2402  0.8692  0.1569
 9378TIP3    H128098   2.406   0.748   4.673 -0.5817  2.7700 -1.4487
 9378TIP3    H228099   2.543   0.802   4.708 -0.1422  2.4913 -2.6802
 9379TIP3   OH228100   5.327  -0.007   0.411 -0.7777 -0.1995  0.4313
 9379TIP3    H128101   5.389   0.035   0.351  0.0331 -0.9319  0.7512
 9379TIP3    H228102   5.244  -0.007   0.362 -0.2815 -0.1982 -0.4268
 9380TIP3   OH228103   6.743   0.688   1.211  0.4255  0.0912 -0.5205
 9380TIP3    H128104   6.737   0.679   1.116  0.3924 -0.0345 -0.5067
 9380TIP3    H228105   6.825   0.645   1.234  0.6496  0.4996 -0.5388
 9381TIP3   OH228106   6.451   2.360   2.760 -0.0371 -0.4384  0.2756
 9381TIP3    H128107   6.444   2.272   2.795  0.0140 -0.2220  0.8312
 9381TIP3    H228108   6.509   2.351   2.684 -1.3325 -1.1603 -0.6631
 9382TIP3   OH228109   6.171   1.195   4.913  0.1478 -0.2797  0.3743
 9382TIP3    H128110   6.250   1.231   4.953 -0.8524  0.4829  1.7627
 9382TIP3    H228111   6.114   1.272   4.900 -0.6139 -0.8956 -0.0296
 9383TIP3   OH228112   0.754   5.116   5.504 -0.2692  0.3686 -0.0066
 9383TIP3    H128113   0.773   5.036   5.455 -2.1596  0.2692 -0.6441
 9383TIP3    H228114   0.809   5.182   5.464  0.6672 -0.4100 -0.0496
 9384TIP3   OH228115   3.680   2.115   5.830 -0.2051  0.0882 -0.4776
 9384TIP3    H128116   3.647   2.144   5.745 -0.4927 -0.1285 -0.4410
 9384TIP3    H228117   3.606   2.128   5.890 -0.6257 -1.5232 -0.6237
 9385TIP3   OH228118   2.446   2.235   2.747  0.1974 -0.1863 -0.0089
 9385TIP3    H128119   2.470   2.146   2.773  1.2427  0.3260  0.8396
 9385TIP3    H228120   2.523   2.288   2.767  0.2171  0.6559 -2.0468
 9386TIP3   OH228121   3.751   5.186   4.850  0.4448 -0.3565  0.3383
 9386TIP3    H128122   3.670   5.195   4.801  0.1471 -0.7916  0.7437
 9386TIP3    H228123   3.818   5.228   4.795 -0.0655  0.0748  0.0434
 9387TIP3   OH228124   3.338   6.101   0.067  0.8141  0.4053 -0.2447
 9387TIP3    H128125   3.327   6.022   0.120 -0.8282  0.5258 -0.3517
 9387TIP3    H228126   3.267   6.158   0.094  1.2928  1.3856 -0.9994
 9388TIP3   OH228127   3.829   5.720   3.915  0.3900  0.4866 -0.2891
 9388TIP3    H128128   3.829   5.663   3.992 -1.8117 -0.1943 -0.7283
 9388TIP3    H228129   3.848   5.661   3.842  0.2378  0.7172 -0.5142
 9389TIP3   OH228130   0.923   3.271   1.045  0.5717 -0.0514  0.1888
 9389TIP3    H128131   0.910   3.277   0.951 -1.8046  0.8917  0.5016
 9389TIP3    H228132   0.834   3.264   1.081  1.4226 -0.5856  2.3537
 9390TIP3   OH228133   4.103   4.603   3.646 -0.3054  0.0347  0.4248
 9390TIP3    H128134   4.190   4.641   3.655 -0.5200  0.4075  0.9440
 9390TIP3    H228135   4.079   4.620   3.555  0.2800 -0.3268  0.1976
 9391TIP3   OH228136   5.294   4.569   5.627 -0.3387  0.1482  0.3580
 9391TIP3    H128137   5.264   4.508   5.559  0.6683  0.4791 -0.3963
 9391TIP3    H228138   5.282   4.520   5.709  0.0068 -0.9037 -0.1937
 9392TIP3   OH228139   0.397   6.024   4.187  0.1137 -0.0403  0.1117
 9392TIP3    H128140   0.426   6.113   4.206 -1.2962  0.5085 -0.1745
 9392TIP3    H228141   0.305   6.034   4.161 -0.4214 -1.6980  1.1893
 9393TIP3   OH228142   2.216   5.124   4.529 -0.3867  0.1873 -0.0950
 9393TIP3    H128143   2.245   5.033   4.519  0.5816  0.4535  0.1203
 9393TIP3    H228144   2.206   5.135   4.624 -0.8352  0.2081 -0.1452
 9394TIP3   OH228145   0.384   0.025   0.247 -0.2806 -0.0115 -0.2864
 9394TIP3    H128146   0.311   0.087   0.246 -0.9717 -0.7674  0.8621
 9394TIP3    H228147   0.356  -0.045   0.189 -0.5072 -0.3390  0.2156
 9395TIP3   OH228148   1.697   5.905   3.460 -0.0869 -0.0579 -0.0486
 9395TIP3    H128149   1.768   5.929   3.400  0.0420 -0.0891  0.0903
 9395TIP3    H228150   1.711   5.960   3.537  1.7610 -2.3325  1.3765
 9396TIP3   OH228151   5.114   5.123   1.561  0.2232  0.7748 -0.2934
 9396TIP3    H128152   5.194   5.129   1.612 -0.3272 -1.8132  1.0417
 9396TIP3    H228153   5.046   5.097   1.624 -0.4892 -2.5668 -2.1795
 9397TIP3   OH228154   1.013   6.326   4.897 -0.2563  0.2595 -0.1167
 9397TIP3    H128155   0.962   6.274   4.959  1.3280 -1.0193  0.2017
 9397TIP3    H228156   1.058   6.391   4.951 -0.4197  0.4354 -0.1924
 9398TIP3   OH228157   2.352   2.244   1.388  0.5909  0.6513 -0.4962
 9398TIP3    H128158   2.310   2.195   1.458 -0.0155  1.2184 -0.4584
 9398TIP3    H228159   2.325   2.334   1.401  1.3014  0.9289 -0.8575
 9399TIP3   OH228160   5.394   2.603   2.123  0.3289  1.0959  0.5263
 9399TIP3    H128161   5.371   2.566   2.208  1.4091  0.7135  0.6627
 9399TIP3    H228162   5.425   2.692   2.143 -1.4563  1.8090  0.2875
 9400TIP3   OH228163   5.835   3.432   1.017  0.0495  0.1410 -0.0262
 9400TIP3    H128164   5.785   3.506   0.984  1.2240  0.5186 -1.0423
 9400TIP3    H228165   5.794   3.411   1.101 -1.8419  0.3663 -0.8282
 9401TIP3   OH228166   3.349   0.372   0.728 -0.7911 -0.1877 -0.0122
 9401TIP3    H128167   3.414   0.302   0.739 -0.6052 -0.1241 -0.6641
 9401TIP3    H228168   3.290   0.339   0.660 -0.9565  0.1041 -0.0083
 9402TIP3   OH228169   6.298   2.672   5.795  0.6002 -0.0231  0.4193
 9402TIP3    H128170   6.218   2.622   5.779 -0.2678  0.7627  2.0837
 9402TIP3    H228171   6.282   2.718   5.877  1.8002  2.1115 -0.4668
 9403TIP3   OH228172   1.709   1.782   1.857  0.0953  0.0638 -0.5038
 9403TIP3    H128173   1.692   1.744   1.771  1.1610  2.6677 -1.9706
 9403TIP3    H228174   1.632   1.837   1.875  0.0986 -0.0806 -0.0202
 9404TIP3   OH228175   4.469   0.936   2.232  0.0223 -0.4402  0.0402
 9404TIP3    H128176   4.446   0.967   2.320  0.0245  1.4814 -0.5881
 9404TIP3    H228177   4.564   0.930   2.233 -0.0253 -1.3218  0.4257
 9405TIP3   OH228178   5.774   1.233   1.047 -0.0542 -0.3974  0.5734
 9405TIP3    H128179   5.847   1.291   1.071 -0.3116  0.0558  0.2742
 9405TIP3    H228180   5.748   1.192   1.130  1.8742 -2.1506  0.3777
 9406TIP3   OH228181   5.313   4.670   3.480  0.1885  0.0079 -0.6513
 9406TIP3    H128182   5.400   4.654   3.517  0.2104  1.3511 -0.0744
 9406TIP3    H228183   5.331   4.704   3.392  0.1825 -1.1862 -1.1401
 9407TIP3   OH228184   4.110   6.820   3.607  0.1753  0.5353 -0.0374
 9407TIP3    H128185   4.066   6.738   3.583  1.0776  0.4810 -1.6708
 9407TIP3    H228186   4.072   6.844   3.691 -0.0657 -1.6038  0.5244
 9408TIP3   OH228187   2.927   5.556   0.196  0.5597  0.4499 -0.5399
 9408TIP3    H128188   2.977   5.475   0.183  0.1418 -0.1028  1.0665
 9408TIP3    H228189   2.927   5.598   0.110  1.3998 -0.8990 -1.2387
 9409TIP3   OH228190   2.403   2.368   3.087 -0.2889  0.6586 -0.4464
 9409TIP3    H128191   2.396   2.388   3.181 -2.5975  0.4177 -0.5119
 9409TIP3    H228192   2.466   2.432   3.054  0.3447  0.9476  1.2156
 9410TIP3   OH228193   0.170   5.549   3.149 -0.1008 -0.1829  0.7530
 9410TIP3    H128194   0.122   5.499   3.083 -0.1442  1.2262 -0.3327
 9410TIP3    H228195   0.108   5.558   3.222 -1.0655  0.5147 -0.1155
 9411TIP3   OH228196   2.145   5.894   0.867  0.4308  0.0781 -0.1690
 9411TIP3    H128197   2.233   5.857   0.862  0.5698  0.5262 -1.5381
 9411TIP3    H228198   2.089   5.819   0.887  1.2061 -0.0381  1.7508
 9412TIP3   OH228199   1.943   0.089   4.780 -0.2531  0.0022  0.2668
 9412TIP3    H128200   1.895   0.053   4.705 -0.0477  0.3215 -0.0142
 9412TIP3    H228201   1.875   0.127   4.836 -0.2798  0.9819 -0.4163
 9413TIP3   OH228202   0.311   2.720   2.136  0.0587 -0.2568 -0.6985
 9413TIP3    H128203   0.361   2.772   2.073 -1.1007  0.4042 -1.1157
 9413TIP3    H228204   0.221   2.753   2.128 -0.3314 -0.9632  0.4744
 9414TIP3   OH228205   2.933   2.898   0.843  0.5586 -0.2962 -0.2965
 9414TIP3    H128206   2.942   2.951   0.922  0.2594  1.5230 -1.4017
 9414TIP3    H228207   2.971   2.814   0.865  1.6958  0.6028  1.3630
 9415TIP3   OH228208   5.345   5.048   0.748 -0.2673  0.7675  0.1733
 9415TIP3    H128209   5.315   4.987   0.816 -1.7701  1.5836  0.2919
 9415TIP3    H228210   5.385   4.991   0.682  0.7656 -0.0902  1.4655
 9416TIP3   OH228211   5.269   2.633   0.515 -0.4063  0.6814  0.0144
 9416TIP3    H128212   5.350   2.658   0.560  0.0625  1.7210 -1.3310
 9416TIP3    H228213   5.216   2.713   0.513 -0.5917  0.5493 -0.8881
 9417TIP3   OH228214   1.818   1.880   4.702  1.1130 -0.3784 -0.1801
 9417TIP3    H128215   1.897   1.832   4.677  0.3363 -1.3907 -0.7430
 9417TIP3    H228216   1.829   1.896   4.796  2.1118 -0.2406 -0.3051
 9418TIP3   OH228217   2.409   5.936   3.600 -0.0184 -0.7178  0.2841
 9418TIP3    H128218   2.407   5.889   3.684  0.3808 -1.2713 -0.0053
 9418TIP3    H228219   2.449   6.020   3.621 -1.5149 -0.1476  0.9717
 9419TIP3   OH228220   6.053   1.659   1.075  0.0316 -0.1993  0.2504
 9419TIP3    H128221   6.052   1.566   1.100  1.0811 -0.0800  0.7777
 9419TIP3    H228222   6.144   1.686   1.085 -0.0179  0.5734 -1.1271
 9420TIP3   OH228223   4.561   6.189   5.408 -0.1098 -0.4941 -0.3823
 9420TIP3    H128224   4.632   6.155   5.463 -2.0348 -0.1019  2.6389
 9420TIP3    H228225   4.486   6.134   5.431 -1.7025  1.5550 -0.3881
 9421TIP3   OH228226   3.981   0.678   4.070 -0.3820  0.2764  0.0766
 9421TIP3    H128227   3.912   0.734   4.103 -0.2729  0.8218 -0.5983
 9421TIP3    H228228   4.045   0.738   4.031  1.2806 -0.0914  2.1035
 9422TIP3   OH228229   2.967   6.300   3.377 -0.0347  0.0451 -0.7082
 9422TIP3    H128230   2.930   6.295   3.289  1.0516 -2.4499 -1.1070
 9422TIP3    H228231   2.892   6.291   3.435 -0.4214 -2.1857 -1.4636
 9423TIP3   OH228232   6.379   2.982   2.543  0.7480 -0.2826  0.1045
 9423TIP3    H128233   6.469   3.011   2.556  0.7119 -0.8937  2.0206
 9423TIP3    H228234   6.349   2.957   2.631 -1.1672 -0.4307 -0.5493
 9424TIP3   OH228235   0.227   1.790   3.988  0.8156  0.5331 -0.2776
 9424TIP3    H128236   0.170   1.859   3.956  0.6332  1.7494  2.4310
 9424TIP3    H228237   0.168   1.717   4.009  0.6106  0.7171 -0.2160
 9425TIP3   OH228238   2.681   0.251   1.254 -0.3483  0.2292 -0.2468
 9425TIP3    H128239   2.744   0.260   1.326  0.6662 -1.2310 -0.9045
 9425TIP3    H228240   2.596   0.252   1.297  0.2389 -0.7755  1.0269
 9426TIP3   OH228241   1.522   3.675   3.010  0.0903 -0.1793 -0.0453
 9426TIP3    H128242   1.534   3.746   3.073  2.5540  2.2512 -2.9462
 9426TIP3    H228243   1.602   3.622   3.018  1.0887  0.9264 -1.8311
 9427TIP3   OH228244   4.959   2.138   0.617 -0.4225 -0.5750 -0.2593
 9427TIP3    H128245   5.029   2.131   0.683 -1.5301 -1.7727  0.8577
 9427TIP3    H228246   4.879   2.123   0.666 -1.3924 -0.3393 -1.7128
 9428TIP3   OH228247   6.270   4.402   0.897  0.4281 -0.0690  0.8781
 9428TIP3    H128248   6.217   4.343   0.951 -0.1007  0.5108  1.0111
 9428TIP3    H228249   6.348   4.419   0.949  1.0035 -1.3474  0.4605
 9429TIP3   OH228250   3.217   3.672   5.386  0.5831  0.2261 -0.2872
 9429TIP3    H128251   3.192   3.604   5.449  1.5355  0.3293  0.2264
 9429TIP3    H228252   3.217   3.629   5.301  1.7527 -0.5933  0.1031
 9430TIP3   OH228253   2.887   3.200   2.236  0.7921  0.1884 -0.8057
 9430TIP3    H128254   2.862   3.109   2.218 -0.1660  0.7194 -2.4255
 9430TIP3    H228255   2.920   3.232   2.152 -2.9837  2.5876 -1.6024
 9431TIP3   OH228256   1.117   1.136   1.463 -0.3717 -0.6610 -0.1075
 9431TIP3    H128257   1.063   1.071   1.510 -2.3805  1.7209  1.1398
 9431TIP3    H228258   1.053   1.191   1.418  1.2076  0.9112 -0.5077
 9432TIP3   OH228259   3.122   4.615   0.033 -0.1150 -0.1691 -0.4161
 9432TIP3    H128260   3.123   4.520   0.045 -0.8617 -0.2152 -0.6524
 9432TIP3    H228261   3.087   4.628  -0.055 -3.9964  0.3752  1.0111
 9433TIP3   OH228262   5.859   6.302   1.720  0.3520 -0.0712 -0.1813
 9433TIP3    H128263   5.808   6.244   1.663  0.0439 -0.3555  0.3736
 9433TIP3    H228264   5.793   6.349   1.772  0.6496 -0.3256  0.4328
 9434TIP3   OH228265   3.970   2.710   5.089 -0.5438 -0.5836  0.0431
 9434TIP3    H128266   3.982   2.750   5.175  0.1975  1.2739 -0.8697
 9434TIP3    H228267   4.058   2.685   5.062 -0.7269 -0.8536 -0.3065
 9435TIP3   OH228268   7.070   5.803   5.490 -0.3029  0.0278 -0.0171
 9435TIP3    H128269   7.029   5.720   5.514  0.6357 -0.8780 -1.3628
 9435TIP3    H228270   7.091   5.793   5.397 -0.1641  1.7816 -0.2051
 9436TIP3   OH228271   5.404   3.856   1.530 -0.3628 -0.3474 -0.3886
 9436TIP3    H128272   5.403   3.766   1.497  1.5754 -0.1897 -0.9954
 9436TIP3    H228273   5.473   3.858   1.595 -1.1902  0.4473  0.5140
 9437TIP3   OH228274   5.601   4.603   5.840 -0.2721 -0.0564 -0.1293
 9437TIP3    H128275   5.599   4.699   5.834  0.5580  0.0195  0.7136
 9437TIP3    H228276   5.685   4.583   5.881 -1.1643 -1.0590  1.2948
 9438TIP3   OH228277   3.520   1.999   1.048  0.2224 -0.0480 -0.0610
 9438TIP3    H128278   3.529   2.000   0.952 -1.0331  3.0477 -0.2627
 9438TIP3    H228279   3.447   2.058   1.066  1.5042  0.8081  2.9028
 9439TIP3   OH228280   0.455   5.024   2.569  0.7693  0.1757  0.2002
 9439TIP3    H128281   0.446   4.981   2.654  1.2633  1.1231  0.7489
 9439TIP3    H228282   0.383   5.086   2.565 -0.4352 -1.2218 -0.9448
 9440TIP3   OH228283   7.171   3.564   3.589 -0.0164  0.0297  0.4543
 9440TIP3    H128284   7.168   3.477   3.629  0.6456  0.2391  0.9991
 9440TIP3    H228285   7.202   3.621   3.660 -0.8355  0.7803  0.2202
 9441TIP3   OH228286   1.334   4.516   2.647 -0.3344 -0.3743  0.5657
 9441TIP3    H128287   1.326   4.589   2.708 -4.5618  0.3479 -0.5501
 9441TIP3    H228288   1.346   4.557   2.561  0.1470 -1.1640  0.2331
 9442TIP3   OH228289   1.645   4.871   3.479 -0.2324 -0.4637 -0.3376
 9442TIP3    H128290   1.687   4.861   3.564 -2.9678 -3.3516  0.8688
 9442TIP3    H228291   1.700   4.821   3.418  0.0393 -1.1044  0.4222
 9443TIP3   OH228292   0.362   1.401   5.607  0.1073  0.2603  0.2740
 9443TIP3    H128293   0.301   1.458   5.654  0.2841  0.3904  0.3485
 9443TIP3    H228294   0.434   1.459   5.582  0.7738 -0.1257  1.2414
 9444TIP3   OH228295   3.302   4.305   5.009 -0.3819 -0.3800 -0.2926
 9444TIP3    H128296   3.222   4.355   5.021  0.2155  0.4596  0.2479
 9444TIP3    H228297   3.373   4.367   5.025  0.3826 -1.1734 -0.4898
 9445TIP3   OH228298   4.804   1.792   5.378 -0.1168  0.2339  0.2081
 9445TIP3    H128299   4.866   1.732   5.336  3.0940  2.3303  1.5826
 9445TIP3    H228300   4.801   1.868   5.320 -2.4002 -0.2360 -0.3923
 9446TIP3   OH228301   4.564   4.439   5.870  0.1381 -0.1031 -0.5457
 9446TIP3    H128302   4.589   4.393   5.790 -1.5086 -0.3801 -0.9378
 9446TIP3    H228303   4.499   4.504   5.841 -0.8502 -0.5268  0.6053
 9447TIP3   OH228304   5.236   5.387   2.619  0.5447 -0.0421  0.1029
 9447TIP3    H128305   5.256   5.298   2.646 -1.5767 -0.1326  1.6074
 9447TIP3    H228306   5.168   5.378   2.553  1.4943  0.4384 -0.9816
 9448TIP3   OH228307   2.911   1.992   1.329  0.5801  0.5709 -0.0236
 9448TIP3    H128308   2.866   1.945   1.399  0.8199 -2.4047 -1.7144
 9448TIP3    H228309   2.872   1.959   1.248  1.8558  2.1952 -1.3757
 9449TIP3   OH228310   0.483   1.443   2.902  0.3493  0.0346  0.2075
 9449TIP3    H128311   0.539   1.499   2.955 -0.6449  1.9419 -0.6398
 9449TIP3    H228312   0.527   1.438   2.817  1.1677 -1.7362  0.6994
 9450TIP3   OH228313   1.160   2.762   5.841  0.2840 -0.6975 -0.2989
 9450TIP3    H128314   1.234   2.733   5.893 -0.8493  1.4871  2.8660
 9450TIP3    H228315   1.083   2.736   5.891 -0.9040  1.1761 -1.0100
 9451TIP3   OH228316  -0.009   4.947   4.918  0.0520  0.2982 -0.0574
 9451TIP3    H128317   0.067   4.965   4.973  1.2428 -0.5614 -1.3576
 9451TIP3    H228318  -0.009   4.852   4.906 -1.2632  0.2822 -0.0369
 9452TIP3   OH228319   0.694   2.784   4.957  0.3887 -0.2653 -0.2075
 9452TIP3    H128320   0.738   2.868   4.943  1.7888 -0.7793  0.8813
 9452TIP3    H228321   0.655   2.763   4.872  0.3443  1.2734 -0.6101
 9453TIP3   OH228322   0.718   4.962   0.375 -0.0527 -0.0258  0.5600
 9453TIP3    H128323   0.800   4.921   0.403  1.1798  3.4253  2.6043
 9453TIP3    H228324   0.730   4.978   0.282 -0.1782 -3.0684 -0.0965
 9454TIP3   OH228325   5.554   2.488   1.529  0.1013 -0.4359 -0.3042
 9454TIP3    H128326   5.555   2.583   1.522  2.2087 -0.5072 -2.5788
 9454TIP3    H228327   5.462   2.464   1.517 -0.6144  1.2947  1.2354
 9455TIP3   OH228328   4.662   6.480   1.255 -0.1041 -0.7288 -0.1643
 9455TIP3    H128329   4.676   6.521   1.340  0.2628  0.9710 -0.9933
 9455TIP3    H228330   4.567   6.476   1.246 -0.1454 -0.8812  0.3004
 9456TIP3   OH228331   0.980   0.001   2.794 -0.7912 -0.0705  0.6206
 9456TIP3    H128332   0.896   0.005   2.840 -3.1743  2.5962 -3.3728
 9456TIP3    H228333   1.014   0.090   2.797 -0.6603  0.0420 -1.8804
 9457TIP3   OH228334   3.835   5.731   1.272 -0.0668  0.0043 -0.5052
 9457TIP3    H128335   3.902   5.674   1.310 -1.2601 -0.2821  1.2569
 9457TIP3    H228336   3.838   5.711   1.178  1.6144 -0.7324 -0.3319
 9458TIP3   OH228337   0.882   5.634   1.516  0.3405 -0.0267 -0.7069
 9458TIP3    H128338   0.926   5.719   1.521 -2.2832  1.3659  1.5454
 9458TIP3    H228339   0.808   5.649   1.456 -1.2407 -0.0231  1.1210
 9459TIP3   OH228340   0.624   4.372   0.566  0.0349  0.1304 -0.2423
 9459TIP3    H128341   0.678   4.378   0.487 -0.9851 -1.3271 -1.1191
 9459TIP3    H228342   0.534   4.382   0.534 -0.5335 -2.1900  0.3965
 9460TIP3   OH228343   7.071   6.554   2.266  0.2891 -0.0040  0.3592
 9460TIP3    H128344   7.082   6.467   2.229  0.1625 -0.7709  1.9985
 9460TIP3    H228345   7.038   6.608   2.194 -0.4717 -1.5194 -0.4583
 9461TIP3   OH228346   0.851   2.798   1.908  0.2103 -0.3483  0.0228
 9461TIP3    H128347   0.776   2.812   1.965 -0.7547  1.4684 -1.5491
 9461TIP3    H228348   0.820   2.735   1.843 -0.3491  1.0993 -1.1756
 9462TIP3   OH228349   0.813   0.909   0.707  0.2066  0.0259 -0.6199
 9462TIP3    H128350   0.767   0.831   0.678 -1.0190  0.3138  0.4140
 9462TIP3    H228351   0.751   0.951   0.768  1.6467  0.7133  0.4192
 9463TIP3   OH228352   5.313   0.888   0.525  0.2790 -0.1551 -0.2436
 9463TIP3    H128353   5.407   0.871   0.540  0.3657 -0.1799 -0.7978
 9463TIP3    H228354   5.277   0.802   0.504  0.0341 -0.2272  0.4516
 9464TIP3   OH228355   6.322   2.355   4.282 -1.2495  0.2491  0.5824
 9464TIP3    H128356   6.398   2.385   4.333 -2.0850  2.7689  0.4874
 9464TIP3    H228357   6.359   2.327   4.199 -0.3894  1.6625  0.4502
 9465TIP3   OH228358   6.746   2.069   3.197 -0.5744 -0.2521  0.1375
 9465TIP3    H128359   6.718   2.146   3.247 -0.6855  0.1104 -0.4711
 9465TIP3    H228360   6.678   2.004   3.213 -0.0190 -0.5640  1.4028
 9466TIP3   OH228361   6.980   6.442   4.824  0.1171 -0.0378  0.1698
 9466TIP3    H128362   7.061   6.402   4.853 -0.1608  0.5144  1.7840
 9466TIP3    H228363   7.005   6.531   4.798  0.1783 -0.1833 -0.2870
 9467TIP3   OH228364   5.035   0.120   5.083 -0.5880  0.3489 -0.3199
 9467TIP3    H128365   4.939   0.111   5.082 -0.4511 -1.3791 -0.4539
 9467TIP3    H228366   5.067   0.035   5.113  0.9293  0.7990 -0.5783
 9468TIP3   OH228367   2.391   4.961   2.595  0.0963 -0.2644 -0.0682
 9468TIP3    H128368   2.452   4.895   2.627 -0.0809 -0.3523  0.0846
 9468TIP3    H228369   2.343   4.918   2.524 -0.1472 -0.3569  0.1535
 9469TIP3   OH228370   1.137   4.264   1.899  0.1642  0.6313  0.5303
 9469TIP3    H128371   1.177   4.189   1.855 -2.5637 -0.2531 -0.6518
 9469TIP3    H228372   1.172   4.262   1.988 -0.4410 -2.5994  0.8020
 9470TIP3   OH228373   1.160   0.967   3.613  0.3082 -0.3356 -0.4893
 9470TIP3    H128374   1.131   1.058   3.604  0.8962 -0.2178 -1.3627
 9470TIP3    H228375   1.240   0.973   3.664 -0.4725 -0.5308  0.7923
 9471TIP3   OH228376   4.395   4.120   5.084 -0.6383  0.0157  0.5071
 9471TIP3    H128377   4.362   4.173   5.157 -0.2606 -0.0840  0.7551
 9471TIP3    H228378   4.428   4.184   5.021 -1.1526  0.1095  0.3332
 9472TIP3   OH228379   4.125   1.077   2.623  0.6876  0.2473  0.0165
 9472TIP3    H128380   4.171   1.160   2.636 -0.2538  1.3724 -3.0766
 9472TIP3    H228381   4.033   1.097   2.640  0.6507 -0.7131  1.1314
 9473TIP3   OH228382   3.696   5.590   1.490 -0.0499 -0.0409  0.1654
 9473TIP3    H128383   3.741   5.506   1.496 -0.4158 -0.1669  1.4982
 9473TIP3    H228384   3.681   5.602   1.397  0.3054 -1.2962 -0.0786
 9474TIP3   OH228385   5.731   4.708   3.044 -0.4830 -0.3036 -0.2812
 9474TIP3    H128386   5.759   4.798   3.053 -0.6448 -0.2965  0.1918
 9474TIP3    H228387   5.650   4.703   3.095 -0.5752 -0.6706 -0.4564
 9475TIP3   OH228388   4.937   1.274   2.617 -0.5265  0.7041  0.3573
 9475TIP3    H128389   4.868   1.302   2.556 -0.6485  0.9841  0.6213
 9475TIP3    H228390   5.017   1.274   2.565 -0.8374 -0.3225 -0.1481
 9476TIP3   OH228391   4.228   0.793   2.148  0.1157 -0.2643 -0.1700
 9476TIP3    H128392   4.169   0.816   2.220  1.0877  2.7425 -0.1905
 9476TIP3    H228393   4.311   0.834   2.172  0.0887  2.1595 -3.5696
 9477TIP3   OH228394   1.775   3.274   2.285  0.3279  0.0571  0.1695
 9477TIP3    H128395   1.744   3.325   2.210  1.4318 -0.4773 -0.6753
 9477TIP3    H228396   1.695   3.240   2.326 -0.3496  1.3632 -0.0322
 9478TIP3   OH228397   1.109   4.628   4.984  0.5292 -0.1257  0.5567
 9478TIP3    H128398   1.204   4.626   4.992  0.5708 -0.4532  0.0199
 9478TIP3    H228399   1.092   4.676   4.903  0.3265 -1.9786 -0.5592
 9479TIP3   OH228400   1.550   0.842   5.347 -0.5044  0.3110  0.7078
 9479TIP3    H128401   1.631   0.801   5.378  0.2098  0.6537 -0.6741
 9479TIP3    H228402   1.488   0.769   5.342  0.4015 -0.4140 -0.5188
 9480TIP3   OH228403   0.807   0.799   0.071 -0.2392 -0.3617 -0.2097
 9480TIP3    H128404   0.894   0.760   0.078 -0.8287 -1.7974 -0.5946
 9480TIP3    H228405   0.817   0.868   0.006  0.7778  0.0367  0.3373
 9481TIP3   OH228406   0.245   1.547   5.170  0.1306 -0.3491 -0.0328
 9481TIP3    H128407   0.186   1.606   5.124 -0.2820 -0.7926 -0.0723
 9481TIP3    H228408   0.287   1.496   5.101  0.3348 -0.2487  0.0157
 9482TIP3   OH228409   3.743   1.561   0.166 -0.4303  0.0833  0.2003
 9482TIP3    H128410   3.707   1.524   0.085  1.9807  3.0389 -2.5089
 9482TIP3    H228411   3.670   1.562   0.227 -2.4645 -2.0500 -1.9766
 9483TIP3   OH228412   5.234   3.597   3.907 -1.0226  0.5712 -0.7304
 9483TIP3    H128413   5.281   3.677   3.883  1.2415 -1.0221 -2.0181
 9483TIP3    H228414   5.190   3.619   3.989  0.0423  2.9298 -0.7006
 9484TIP3   OH228415   4.124   5.402   3.860 -0.4705  0.0805  0.2229
 9484TIP3    H128416   4.029   5.414   3.865 -0.4358  0.2668  0.4390
 9484TIP3    H228417   4.155   5.478   3.811 -0.1968  1.1821  2.0055
 9485TIP3   OH228418   2.179   2.324   2.932  0.4567 -0.5898 -0.3068
 9485TIP3    H128419   2.171   2.341   3.026  0.8588  1.3149 -0.5724
 9485TIP3    H228420   2.271   2.302   2.920 -0.2138 -4.3644  0.1635
 9486TIP3   OH228421   1.478   2.063   3.382  0.4073 -0.5932 -0.0024
 9486TIP3    H128422   1.406   2.000   3.379  0.8577 -1.2540  1.7562
 9486TIP3    H228423   1.476   2.097   3.471  1.2308  0.6559 -0.4305
 9487TIP3   OH228424   3.603   1.078   3.417 -0.8119 -0.6883  0.3694
 9487TIP3    H128425   3.559   1.132   3.352  0.5799 -0.6552 -0.5860
 9487TIP3    H228426   3.658   1.018   3.366 -0.5646 -1.4410  1.4771
 9488TIP3   OH228427   0.077   5.806   2.662  0.0033  0.7326  0.3781
 9488TIP3    H128428   0.029   5.811   2.745 -0.6777  1.2649 -0.0380
 9488TIP3    H228429   0.083   5.897   2.632  0.0255  0.5190 -0.2837
 9489TIP3   OH228430   6.092   0.751   0.915  0.0944  0.7882  0.2206
 9489TIP3    H128431   6.042   0.765   0.834 -2.4820 -0.0208  1.5501
 9489TIP3    H228432   6.128   0.663   0.906 -2.4850 -0.4454  0.9546
 9490TIP3   OH228433   7.070   6.209   1.669 -0.9741  0.1437 -0.2195
 9490TIP3    H128434   7.049   6.137   1.610 -1.0780  0.8259 -1.0342
 9490TIP3    H228435   7.162   6.230   1.650 -0.4979 -0.6897  1.0239
 9491TIP3   OH228436   7.230   5.030   0.745  0.1233  0.0494  0.8098
 9491TIP3    H128437   7.228   5.121   0.717 -0.8099  0.2908  1.5946
 9491TIP3    H228438   7.141   5.012   0.775 -0.4392 -1.8733 -1.6490
 9492TIP3   OH228439   5.041   5.035   0.815 -0.2000  0.2161  0.5304
 9492TIP3    H128440   5.092   4.967   0.771  0.1880  0.2418  0.9385
 9492TIP3    H228441   5.101   5.073   0.880 -0.7205  0.2777  0.9847
 9493TIP3   OH228442   3.834   1.877   5.818 -0.1792  0.2259  0.0662
 9493TIP3    H128443   3.913   1.915   5.856 -0.6681 -0.9412  2.4498
 9493TIP3    H228444   3.779   1.953   5.797  0.8447  0.9816  0.0191
 9494TIP3   OH228445   2.869   3.791   0.641 -0.3864  0.0315 -0.1914
 9494TIP3    H128446   2.877   3.839   0.559  0.5734  1.1121  0.5036
 9494TIP3    H228447   2.785   3.818   0.677  0.7080  2.3218  0.8334
 9495TIP3   OH228448   6.889   5.042   4.391  0.2859 -0.0183  0.0775
 9495TIP3    H128449   6.866   5.086   4.473  0.8942  2.1595 -0.8449
 9495TIP3    H228450   6.892   5.112   4.326  0.0276 -1.6483 -1.7854
 9496TIP3   OH228451   5.581   3.902   5.757  0.3342  0.1913  0.3557
 9496TIP3    H128452   5.564   3.968   5.689 -0.6904 -0.0503  0.3592
 9496TIP3    H228453   5.634   3.836   5.713 -0.4496 -0.0383 -0.2803
 9497TIP3   OH228454   1.079   0.261   2.794 -0.0455 -0.2022 -0.2965
 9497TIP3    H128455   1.119   0.347   2.807 -0.2343 -0.3423  1.4698
 9497TIP3    H228456   0.985   0.279   2.788 -0.1757 -0.3218  0.9818
 9498TIP3   OH228457   5.892   1.227   3.606  0.3806  0.6271 -0.4190
 9498TIP3    H128458   5.876   1.307   3.556  1.0453  0.5909 -0.7049
 9498TIP3    H228459   5.815   1.218   3.663  0.6756  1.9291  0.2258
 9499TIP3   OH228460   5.588   5.303   4.825  0.5397  0.1763  0.4447
 9499TIP3    H128461   5.516   5.240   4.833  1.0475 -0.7695 -1.6184
 9499TIP3    H228462   5.616   5.319   4.915 -1.1721 -0.6874  1.1883
 9500TIP3   OH228463   2.286   3.217   5.186  0.0349  0.0611  0.4142
 9500TIP3    H128464   2.314   3.264   5.265  0.0165  0.7626  0.0133
 9500TIP3    H228465   2.200   3.182   5.208  0.1065  0.1067  0.7693
 9501TIP3   OH228466   4.255   2.730   1.517  0.1885  0.1266 -0.2710
 9501TIP3    H128467   4.160   2.731   1.517  0.1486 -1.5196  0.6681
 9501TIP3    H228468   4.279   2.746   1.608  0.7817 -0.5306 -0.3066
 9502TIP3   OH228469   5.467   5.329   5.751  0.7322  0.0255  0.0208
 9502TIP3    H128470   5.392   5.293   5.797 -0.7682  0.5239 -1.9142
 9502TIP3    H228471   5.429   5.387   5.685  2.8694  1.1787 -0.2803
 9503TIP3   OH228472   6.488   0.745   5.733 -0.0804 -0.2011 -0.1940
 9503TIP3    H128473   6.426   0.673   5.719  0.6391 -1.1889  1.3535
 9503TIP3    H228474   6.561   0.705   5.780  0.5820  1.4403  0.2574
 9504TIP3   OH228475   4.400   6.567   1.745 -0.2414  0.5648  0.3411
 9504TIP3    H128476   4.314   6.583   1.784 -0.8417  1.4207 -1.2194
 9504TIP3    H228477   4.433   6.654   1.724 -0.4415  0.1401 -1.9722
 9505TIP3   OH228478   6.707   1.647   2.287  0.0885 -0.5107 -0.2272
 9505TIP3    H128479   6.749   1.586   2.348 -0.2851  0.9405  1.5597
 9505TIP3    H228480   6.613   1.626   2.293 -0.0883  0.4559  0.7120
 9506TIP3   OH228481   2.735   0.340   5.525  0.5174 -0.3619  0.0650
 9506TIP3    H128482   2.754   0.254   5.488 -1.7282 -1.3842  1.0900
 9506TIP3    H228483   2.761   0.402   5.457  1.9071 -1.8348 -0.8261
 9507TIP3   OH228484   4.733   6.532   5.807  0.5186  0.5446 -0.1488
 9507TIP3    H128485   4.778   6.504   5.727  1.0647  2.6122 -0.6353
 9507TIP3    H228486   4.643   6.548   5.780  0.1471 -0.8209  0.1807
 9508TIP3   OH228487   1.144   3.014   4.799  0.5163 -0.1334 -0.0515
 9508TIP3    H128488   1.222   2.967   4.768  0.7992 -0.5254  1.1545
 9508TIP3    H228489   1.131   3.085   4.736  1.3635 -0.5598 -0.7266
 9509TIP3   OH228490   6.130   1.745   5.320 -0.7140 -0.0972 -0.1717
 9509TIP3    H128491   6.082   1.706   5.247  0.6512 -0.2333 -1.0264
 9509TIP3    H228492   6.219   1.712   5.311 -0.7742 -1.1633  2.3268
 9510TIP3   OH228493   0.008   3.542   4.827 -0.5977 -0.7305  0.0576
 9510TIP3    H128494   0.092   3.505   4.855 -0.0647 -0.6339 -1.2970
 9510TIP3    H228495  -0.058   3.484   4.864  0.0800 -0.9482  0.9506
 9511TIP3   OH228496   5.870   2.465   4.311  0.1261  0.1735  0.1683
 9511TIP3    H128497   5.919   2.530   4.362  0.1179  0.7388 -0.5198
 9511TIP3    H228498   5.816   2.517   4.252  0.2070 -0.4583 -0.4780
 9512TIP3   OH228499   4.591   5.141   2.299  0.9397 -0.0805 -0.1012
 9512TIP3    H128500   4.537   5.084   2.245 -2.3658  2.7338 -0.1855
 9512TIP3    H228501   4.605   5.092   2.380 -1.5654 -1.1264 -0.2186
 9513TIP3   OH228502   6.939   1.748   5.840 -0.3536  0.2719 -0.4131
 9513TIP3    H128503   6.969   1.728   5.928 -2.6706  0.7275  0.5640
 9513TIP3    H228504   6.895   1.833   5.849 -0.6081  0.3349 -2.0043
 9514TIP3   OH228505   0.768   5.669   3.865  0.4429  0.3792  0.5791
 9514TIP3    H128506   0.681   5.665   3.905  0.5942  0.0959  0.8795
 9514TIP3    H228507   0.816   5.732   3.919 -0.0108  1.6677 -0.4410
 9515TIP3   OH228508   3.225   0.113   5.132  0.0153  0.1040  0.0518
 9515TIP3    H128509   3.177   0.171   5.073 -0.5505 -0.3257  0.0729
 9515TIP3    H228510   3.160   0.046   5.156 -0.2216  1.0797  2.3391
 9516TIP3   OH228511   5.702   6.248   4.570 -0.5538  0.4349 -0.2238
 9516TIP3    H128512   5.636   6.229   4.637 -1.0348  1.7604 -0.2996
 9516TIP3    H228513   5.679   6.335   4.538  0.3156  0.2610 -1.3587
 9517TIP3   OH228514   1.847   3.383   1.119  0.1756 -0.2442  0.6764
 9517TIP3    H128515   1.917   3.421   1.066 -0.2437 -0.8069 -0.3056
 9517TIP3    H228516   1.861   3.288   1.112 -0.6348 -0.3560  0.5417
 9518TIP3   OH228517   6.938   3.984   2.282 -0.2272  0.7132  0.1117
 9518TIP3    H128518   6.926   3.953   2.193 -1.6931  0.1348  0.4741
 9518TIP3    H228519   6.977   4.071   2.273  0.1331  0.4383 -1.0624
 9519TIP3   OH228520   2.674   6.132   4.634 -0.3952  0.0181 -0.2656
 9519TIP3    H128521   2.584   6.113   4.662 -0.3245 -1.4460 -0.9337
 9519TIP3    H228522   2.728   6.068   4.681  0.1634  0.1215 -0.7578
 9520TIP3   OH228523   7.051   0.350   5.135  0.0090 -0.1932 -0.6194
 9520TIP3    H128524   6.979   0.410   5.149  0.9856  0.8754  0.0403
 9520TIP3    H228525   7.022   0.293   5.064 -0.9981  0.9759 -1.1843
 9521TIP3   OH228526   1.860   3.870   1.519 -0.0150  0.0196 -0.5483
 9521TIP3    H128527   1.879   3.958   1.553  0.6558 -0.5763  0.6334
 9521TIP3    H228528   1.811   3.887   1.438 -1.5276  1.4716  0.6023
 9522TIP3   OH228529   7.178   2.013   2.598 -0.4580  0.3339 -0.1062
 9522TIP3    H128530   7.261   2.042   2.636 -0.4433 -0.7829  0.7849
 9522TIP3    H228531   7.149   1.943   2.656 -2.4146  1.2021  0.0313
 9523TIP3   OH228532   7.197   1.637   0.007 -0.1385  0.0064  0.0399
 9523TIP3    H128533   7.177   1.723  -0.031 -1.2456  0.5836  1.8122
 9523TIP3    H228534   7.141   1.631   0.084  0.2327 -2.1489  0.2083
 9524TIP3   OH228535   4.465   2.922   4.106 -0.4016 -0.2725 -0.3066
 9524TIP3    H128536   4.516   2.973   4.168 -0.3519  0.0300 -0.5905
 9524TIP3    H228537   4.530   2.885   4.046 -0.3381 -1.5885  0.5542
 9525TIP3   OH228538   1.503   3.415   4.154  0.2029  0.3809  0.1746
 9525TIP3    H128539   1.599   3.418   4.157  0.3949 -1.1010 -1.9771
 9525TIP3    H228540   1.482   3.422   4.061 -1.6762 -1.0971  0.4214
 9526TIP3   OH228541   0.423   4.470   2.036  0.1036 -0.6671  0.1984
 9526TIP3    H128542   0.476   4.536   2.080  0.5536 -1.4597  0.8765
 9526TIP3    H228543   0.353   4.450   2.099 -0.5056 -0.2596 -0.3351
 9527TIP3   OH228544   5.739   4.285   3.735 -0.1797 -0.0574 -0.1405
 9527TIP3    H128545   5.672   4.263   3.800  0.3526 -1.7004 -0.1203
 9527TIP3    H228546   5.691   4.285   3.652 -0.3709 -0.4069 -0.0337
 9528TIP3   OH228547   5.203   3.775   0.884  0.4011  0.1745  0.2977
 9528TIP3    H128548   5.161   3.721   0.952  2.0234  0.0143  1.2112
 9528TIP3    H228549   5.181   3.865   0.909  0.6961  0.0983  0.8473
 9529TIP3   OH228550   2.817   1.960   2.666  0.6618 -0.1472 -0.6063
 9529TIP3    H128551   2.776   2.039   2.702 -0.5076 -0.2111 -1.7100
 9529TIP3    H228552   2.905   1.988   2.640  2.2612 -0.4759  3.6454
 9530TIP3   OH228553   1.070   4.685   2.495 -0.0858  0.5721  0.4331
 9530TIP3    H128554   1.039   4.612   2.442  2.9273  0.6230 -1.6159
 9530TIP3    H228555   1.128   4.645   2.560 -2.2339  0.7315  2.5808
 9531TIP3   OH228556   7.054   1.624   4.226 -0.2876  0.4192  0.1227
 9531TIP3    H128557   7.029   1.534   4.249 -2.0014  0.2371 -2.1407
 9531TIP3    H228558   7.019   1.677   4.298  1.1470 -0.6783  1.7305
 9532TIP3   OH228559   3.800   0.278   0.763  0.0949 -0.3496 -0.0233
 9532TIP3    H128560   3.821   0.216   0.833  2.1780 -1.4722 -1.5353
 9532TIP3    H228561   3.844   0.359   0.789  1.8560 -1.0959 -0.5090
 9533TIP3   OH228562   1.932   1.994   5.639 -0.1525  0.2809  0.9272
 9533TIP3    H128563   1.984   1.915   5.623  0.2606  1.0251 -1.8961
 9533TIP3    H228564   1.855   1.963   5.686  0.7804 -1.5163  1.3547
 9534TIP3   OH228565   7.027   1.908   1.000 -0.1858 -0.3152  0.4120
 9534TIP3    H128566   7.015   1.998   0.969 -0.7620  0.1181  1.8353
 9534TIP3    H228567   7.056   1.917   1.091 -0.2340 -1.5739  0.5727
 9535TIP3   OH228568   6.094   0.547   2.444  0.3290  0.2841 -0.5888
 9535TIP3    H128569   6.182   0.559   2.480  0.2375  1.2141 -0.6408
 9535TIP3    H228570   6.108   0.517   2.355  0.6273  1.3655 -0.9231
 9536TIP3   OH228571   1.612   5.587   4.992 -0.1686  0.3673 -0.2290
 9536TIP3    H128572   1.526   5.587   4.949 -1.0941  0.2616  1.5547
 9536TIP3    H228573   1.624   5.497   5.022  0.5638  0.3889 -0.4347
 9537TIP3   OH228574   0.702   1.279   0.088  0.1553 -0.0969 -0.2026
 9537TIP3    H128575   0.703   1.366   0.126  1.1662  0.4585 -1.4203
 9537TIP3    H228576   0.679   1.221   0.160 -0.6709  1.1826  0.5932
 9538TIP3   OH228577   1.343   1.773   0.350 -0.2934  0.1704 -0.1251
 9538TIP3    H128578   1.322   1.866   0.335 -0.1191  0.1706 -0.3666
 9538TIP3    H228579   1.356   1.737   0.263  1.0494  0.2409  0.0326
 9539TIP3   OH228580   4.672   5.465   2.662  0.4482 -0.2542 -0.0164
 9539TIP3    H128581   4.702   5.413   2.737  2.7840  0.6950 -0.2163
 9539TIP3    H228582   4.652   5.551   2.700 -1.8001 -0.7412  0.0400
 9540TIP3   OH228583   1.227   2.615   4.657 -0.0964 -0.1773  0.2828
 9540TIP3    H128584   1.169   2.585   4.727 -0.2468  2.3086  1.3519
 9540TIP3    H228585   1.277   2.538   4.632 -2.1050 -1.8245  1.0753
 9541TIP3   OH228586   3.928   3.799   0.066  0.8732 -0.4557 -0.6706
 9541TIP3    H128587   3.970   3.800  -0.020  1.6134 -0.4824 -0.3195
 9541TIP3    H228588   3.902   3.708   0.079 -0.5945 -0.1833 -1.4912
 9542TIP3   OH228589   2.185   5.480   3.318 -0.3247  0.0353 -0.7483
 9542TIP3    H128590   2.241   5.494   3.395 -0.0278  0.4678 -1.0399
 9542TIP3    H228591   2.186   5.385   3.306 -0.3381 -0.0328 -0.2430
 9543TIP3   OH228592   0.116   6.568   4.631  0.5612 -0.7982  0.8258
 9543TIP3    H128593   0.087   6.610   4.550 -0.1674  0.1207  1.5489
 9543TIP3    H228594   0.208   6.593   4.639  0.4115 -0.1995  0.7098
 9544TIP3   OH228595   2.802   6.481   1.442 -0.2962 -0.3336  0.3971
 9544TIP3    H128596   2.723   6.481   1.389  0.8118  0.4235 -1.3296
 9544TIP3    H228597   2.802   6.566   1.486 -0.9517 -0.7555  1.2355
 9545TIP3   OH228598   5.223   1.522   5.043 -0.1145 -0.2471  0.2981
 9545TIP3    H128599   5.274   1.476   4.976  0.3091  0.9801 -0.2458
 9545TIP3    H228600   5.208   1.609   5.006  0.5057  0.6132  1.9691
 9546TIP3   OH228601   0.772   1.584   4.000 -0.0130  0.4294 -0.7135
 9546TIP3    H128602   0.688   1.539   4.006 -0.5043  1.3436 -0.5424
 9546TIP3    H228603   0.821   1.536   3.933 -0.5578 -0.2754 -0.6191
 9547TIP3   OH228604   1.511   1.677   3.428  0.0570 -0.6359 -0.0266
 9547TIP3    H128605   1.468   1.688   3.343 -1.0620 -0.3561  0.5560
 9547TIP3    H228606   1.513   1.765   3.466 -1.1688 -1.0177  1.0162
 9548TIP3   OH228607   1.060   0.508   0.465 -0.0422 -0.3556 -0.0346
 9548TIP3    H128608   1.043   0.455   0.543  1.1142  1.8386  1.8279
 9548TIP3    H228609   1.122   0.575   0.494  0.5398  0.4960 -2.8993
 9549TIP3   OH228610   5.729   6.717   4.382 -0.1537 -0.1906  0.2794
 9549TIP3    H128611   5.700   6.626   4.375 -1.1118  0.1131  0.1482
 9549TIP3    H228612   5.803   6.715   4.443  1.3822 -1.3916 -1.5086
 9550TIP3   OH228613   5.711   5.617   0.639 -0.2568 -0.3029  0.4179
 9550TIP3    H128614   5.770   5.633   0.713 -0.1504  0.0173  0.2688
 9550TIP3    H228615   5.623   5.623   0.677 -0.1925 -2.0729  0.8928
 9551TIP3   OH228616   6.505   4.719   3.474 -0.5354  0.7964  0.1183
 9551TIP3    H128617   6.500   4.808   3.508 -1.0188  0.5327  0.7584
 9551TIP3    H228618   6.465   4.665   3.541  0.1325  0.0343 -0.0720
 9552TIP3   OH228619   1.610   2.829   3.854 -0.1376 -0.0838 -0.1104
 9552TIP3    H128620   1.619   2.744   3.895 -1.1422  0.1020  0.5315
 9552TIP3    H228621   1.650   2.819   3.768 -0.3449 -1.2324 -0.0821
 9553TIP3   OH228622   4.039   1.033   5.395 -0.4197 -0.0656  0.4562
 9553TIP3    H128623   4.111   0.975   5.371  0.1901 -0.0748  2.2334
 9553TIP3    H228624   3.975   1.021   5.324  0.0927 -2.1899  0.2882
 9554TIP3   OH228625   1.199   3.032   3.676 -0.1804 -0.0124 -0.1465
 9554TIP3    H128626   1.137   2.964   3.650 -0.2935  0.7734 -2.1439
 9554TIP3    H228627   1.261   2.988   3.733 -1.3689 -1.3132  0.1870
 9555TIP3   OH228628   1.872   3.265   0.138 -0.1992  0.4217  0.3196
 9555TIP3    H128629   1.885   3.182   0.092 -1.3206  0.1484  0.4655
 9555TIP3    H228630   1.952   3.277   0.190  1.1982  0.8337 -1.8046
 9556TIP3   OH228631   1.080   0.982   2.730 -0.2208  0.6117  0.2449
 9556TIP3    H128632   1.017   0.959   2.662  0.0016  0.4297  0.1003
 9556TIP3    H228633   1.083   0.904   2.787 -0.0484  0.5801  0.1924
 9557TIP3   OH228634   1.236   3.966   3.669  0.3800 -0.0025  0.0533
 9557TIP3    H128635   1.223   3.893   3.609  0.9394 -0.4362  0.4519
 9557TIP3    H228636   1.309   4.016   3.631 -0.0561  0.4046 -0.2637
 9558TIP3   OH228637   6.523   2.378   5.699  0.2846  0.0091 -0.5153
 9558TIP3    H128638   6.578   2.319   5.647 -0.9171 -0.0242 -1.7861
 9558TIP3    H228639   6.454   2.321   5.734  1.6025 -0.1741  2.0100
 9559TIP3   OH228640   4.052   5.352   2.601 -0.2054 -0.2546  0.6169
 9559TIP3    H128641   4.023   5.379   2.514 -2.3444  1.3544  1.7506
 9559TIP3    H228642   3.972   5.333   2.648  0.9364 -1.4828  2.1615
 9560TIP3   OH228643   5.942   6.099   2.848  0.1632 -0.3295  0.0974
 9560TIP3    H128644   5.953   6.193   2.863 -0.6364 -0.1839 -0.1538
 9560TIP3    H228645   5.919   6.092   2.755 -0.2685 -0.7232  0.2287
 9561TIP3   OH228646   2.826   6.727   0.091  0.3635  0.1942 -0.3134
 9561TIP3    H128647   2.751   6.733   0.032  0.3334  0.6190 -0.2345
 9561TIP3    H228648   2.802   6.659   0.154  0.0987  0.2449 -0.3590
 9562TIP3   OH228649   6.183   1.863   2.528  0.0382  0.0251  0.5610
 9562TIP3    H128650   6.185   1.794   2.461 -1.1514 -0.9695  1.5081
 9562TIP3    H228651   6.265   1.851   2.577  1.8888  1.9730 -1.8011
 9563TIP3   OH228652   1.197   2.168   5.902  0.5913  0.3768  0.4177
 9563TIP3    H128653   1.204   2.195   5.811 -0.2942  0.9879  0.5193
 9563TIP3    H228654   1.197   2.251   5.951 -0.0564  0.1044  0.8898
 9564TIP3   OH228655   5.295   2.112   4.159 -0.6028 -0.9333 -0.0941
 9564TIP3    H128656   5.323   2.119   4.068  0.3691 -1.1103  0.1835
 9564TIP3    H228657   5.329   2.027   4.188 -0.4651 -0.6472  0.5877
 9565TIP3   OH228658   4.926   3.111   3.244  0.1715  0.4767  0.3082
 9565TIP3    H128659   4.914   3.137   3.335 -1.2284 -2.5486  1.1429
 9565TIP3    H228660   5.014   3.075   3.241  0.4567  1.1641  0.2825
 9566TIP3   OH228661   1.490   2.713   5.365 -0.5455  0.6276  0.6650
 9566TIP3    H128662   1.420   2.703   5.429 -0.6200 -0.0011  0.4925
 9566TIP3    H228663   1.524   2.625   5.352 -0.2738  0.8042  0.1282
 9567TIP3   OH228664   5.664   0.117   0.943  0.3624 -0.1717 -0.3571
 9567TIP3    H128665   5.607   0.125   1.019 -0.3118  0.0363 -0.8772
 9567TIP3    H228666   5.692   0.206   0.924 -0.1745 -0.1068 -0.8759
 9568TIP3   OH228667   2.308   1.007   4.596  0.3670  0.1069 -0.1858
 9568TIP3    H128668   2.248   1.031   4.666  1.2732  0.3934  0.5190
 9568TIP3    H228669   2.345   0.923   4.623 -0.3150 -0.4785 -1.0174
 9569TIP3   OH228670   2.079   6.306   5.113  0.0667  0.6161 -0.4767
 9569TIP3    H128671   2.059   6.230   5.058 -4.5895  0.2798  1.2138
 9569TIP3    H228672   2.031   6.378   5.073  0.7472  1.5941  0.4122
 9570TIP3   OH228673   7.002   0.260   2.363  0.1309  0.1208 -0.1526
 9570TIP3    H128674   7.016   0.336   2.420 -0.0167  0.4812 -0.5900
 9570TIP3    H228675   7.053   0.190   2.404 -1.9242 -0.3324  1.8215
 9571TIP3   OH228676   0.242   5.632   4.569  1.0923 -0.3556  0.1631
 9571TIP3    H128677   0.304   5.560   4.575  0.8159 -0.6705 -0.6682
 9571TIP3    H228678   0.199   5.620   4.484  1.3127  0.9901 -0.1665
 9572TIP3   OH228679   3.323   1.061   5.810 -0.5495 -0.1252 -0.2119
 9572TIP3    H128680   3.397   1.096   5.859 -0.4156  1.1721 -1.2836
 9572TIP3    H228681   3.284   0.995   5.868  0.5164  0.2651  0.9793
 9573TIP3   OH228682   2.009   5.423   5.584 -0.1650 -0.1721 -0.4155
 9573TIP3    H128683   2.074   5.354   5.603  0.2444  0.5100  0.7792
 9573TIP3    H228684   1.972   5.444   5.669 -2.3142 -0.8427 -1.1247
 9574TIP3   OH228685   1.522   3.012   5.705  0.0610 -0.1796 -0.0227
 9574TIP3    H128686   1.593   2.973   5.654 -0.5145 -0.1203 -0.8910
 9574TIP3    H228687   1.514   3.101   5.671 -2.1119 -0.9519 -1.7947
 9575TIP3   OH228688   2.473   5.375   4.072  0.0805 -0.1209  0.5564
 9575TIP3    H128689   2.403   5.434   4.100 -0.7424 -1.5431  1.6278
 9575TIP3    H228690   2.553   5.421   4.094 -0.4934  1.4879 -0.5775
 9576TIP3   OH228691   4.273   1.638   2.267  0.5547 -0.1029 -0.1387
 9576TIP3    H128692   4.245   1.558   2.222  1.2253 -0.6924  0.4580
 9576TIP3    H228693   4.193   1.687   2.282  0.3784  0.5899 -2.8230
 9577TIP3   OH228694   3.638   1.876   0.634  0.2267  0.5250  0.0514
 9577TIP3    H128695   3.549   1.840   0.641  0.7135 -0.8663 -0.5133
 9577TIP3    H228696   3.632   1.962   0.676 -0.6555 -0.8008  2.9266
 9578TIP3   OH228697   2.775   4.345   3.986  0.5533 -0.3978 -0.4695
 9578TIP3    H128698   2.683   4.338   3.959  0.0735  1.7937  0.3824
 9578TIP3    H228699   2.824   4.309   3.913 -0.9699 -1.9481 -0.8063
 9579TIP3   OH228700   3.558   2.939   5.685  0.1432 -0.4499  0.1346
 9579TIP3    H128701   3.490   2.879   5.717 -0.7452  0.2297 -0.4357
 9579TIP3    H228702   3.551   2.934   5.590 -1.0398  1.7271  0.0515
 9580TIP3   OH228703   1.320   0.952   2.531 -0.2221  0.7681 -0.1805
 9580TIP3    H128704   1.373   0.982   2.604 -0.7448 -0.4395  0.7141
 9580TIP3    H228705   1.233   0.937   2.568 -0.0906 -1.4933 -0.6144
 9581TIP3   OH228706   5.615   3.324   4.295 -0.4024  0.0022 -0.1011
 9581TIP3    H128707   5.680   3.394   4.294  1.5799 -1.7653 -1.1444
 9581TIP3    H228708   5.561   3.340   4.218  1.3070 -0.6932 -1.4984
 9582TIP3   OH228709   4.954   4.507   5.430  0.0939 -0.2186 -0.2816
 9582TIP3    H128710   5.031   4.462   5.465  1.1740  0.9461 -1.0843
 9582TIP3    H228711   4.990   4.580   5.380 -1.5681  0.8314 -0.0031
 9583TIP3   OH228712   6.215   5.466   4.211 -0.0185  0.2142 -0.5070
 9583TIP3    H128713   6.292   5.417   4.181  1.1656  1.3945  0.4454
 9583TIP3    H228714   6.185   5.417   4.288 -0.9727 -0.8989 -1.5450
 9584TIP3   OH228715   4.952   4.929   3.218  0.2314  0.0249  0.4297
 9584TIP3    H128716   5.033   4.930   3.168  0.5967 -1.0072  0.9721
 9584TIP3    H228717   4.957   4.849   3.270 -0.1615  1.0156  2.0613
 9585TIP3   OH228718   3.209   6.083   3.599  0.2330 -0.0186 -0.0301
 9585TIP3    H128719   3.207   6.049   3.510 -0.7235  0.0608 -0.0519
 9585TIP3    H228720   3.283   6.144   3.600  0.6591 -0.5156 -0.5763
 9586TIP3   OH228721   0.310   2.027   4.340  0.1791 -0.1146  0.2426
 9586TIP3    H128722   0.234   2.080   4.365  0.5586  2.0442 -2.6124
 9586TIP3    H228723   0.273   1.946   4.306 -0.6297 -0.3365  1.5863
 9587TIP3   OH228724   5.329   5.996   5.222 -0.0102 -0.0264 -0.2308
 9587TIP3    H128725   5.390   5.960   5.158 -0.9265 -2.7789  0.3030
 9587TIP3    H228726   5.242   5.981   5.183 -0.5012 -0.0304  0.8346
 9588TIP3   OH228727   7.172   0.716   3.809 -0.0819  0.1938  0.2382
 9588TIP3    H128728   7.077   0.707   3.819 -0.0383  1.1546  1.7293
 9588TIP3    H228729   7.186   0.809   3.792  0.6095  0.0694  0.0982
 9589TIP3   OH228730   3.000   4.255   1.830  0.2001  0.2216 -0.1170
 9589TIP3    H128731   3.084   4.269   1.874  1.0097  0.8664 -1.7908
 9589TIP3    H228732   2.982   4.338   1.786 -2.2813  0.7558  1.6931
 9590TIP3   OH228733   1.653   0.548   2.497  0.4127  0.2505 -0.0580
 9590TIP3    H128734   1.586   0.481   2.508  0.0858 -0.2742 -3.8493
 9590TIP3    H228735   1.608   0.619   2.450  1.3612  2.1173  1.7084
 9591TIP3   OH228736   6.326   4.023   4.480 -0.1135  0.3536 -0.4128
 9591TIP3    H128737   6.292   3.933   4.479  0.1702  0.2392 -1.4818
 9591TIP3    H228738   6.287   4.063   4.557  0.2514 -0.8775  0.4482
 9592TIP3   OH228739   3.364   6.071   1.988 -0.2014 -0.7415 -0.0997
 9592TIP3    H128740   3.368   6.027   1.903  0.1131 -0.4612 -0.2305
 9592TIP3    H228741   3.330   6.004   2.048  0.5799 -1.2666 -0.2275
 9593TIP3   OH228742   2.309   5.999   0.378 -0.5182 -0.3183  0.0334
 9593TIP3    H128743   2.364   6.048   0.317 -1.0424  0.4574  0.1590
 9593TIP3    H228744   2.265   5.933   0.324  1.9937 -2.2954  0.2564
 9594TIP3   OH228745   2.598   4.857   1.233  0.2307 -0.4677  0.1148
 9594TIP3    H128746   2.578   4.936   1.183  0.1956  0.9643  2.2488
 9594TIP3    H228747   2.512   4.819   1.254  0.2280 -0.7694 -0.4248
 9595TIP3   OH228748   1.746   2.245   4.969  0.0431 -0.0270  0.5056
 9595TIP3    H128749   1.757   2.150   4.978 -0.4077  0.0037  1.4588
 9595TIP3    H228750   1.835   2.279   4.962  0.1921 -0.6801 -1.8947
 9596TIP3   OH228751   1.333   4.706   5.885  0.6046 -0.3806 -0.6666
 9596TIP3    H128752   1.365   4.621   5.916  0.6856 -1.0074 -2.3266
 9596TIP3    H228753   1.352   4.705   5.791 -0.7051  0.8799 -0.9797
 9597TIP3   OH228754   2.917   5.774   0.691 -1.0143  0.6814  0.0748
 9597TIP3    H128755   2.964   5.857   0.700  0.5526  0.0587 -1.6901
 9597TIP3    H228756   2.874   5.762   0.776  1.6597  1.5645  1.6975
 9598TIP3   OH228757   0.660   2.075   2.282 -0.1258  0.0312 -0.3325
 9598TIP3    H128758   0.608   2.139   2.234 -0.5604 -0.1555 -0.1158
 9598TIP3    H228759   0.706   2.125   2.349 -0.2790  0.1464 -0.3155
 9599TIP3   OH228760   3.960   5.479   5.270 -0.6409 -0.0570 -0.1215
 9599TIP3    H128761   3.910   5.514   5.196 -0.8632 -0.8421 -0.3534
 9599TIP3    H228762   3.901   5.416   5.311 -0.1242 -0.4396  0.0535
 9600TIP3   OH228763   6.976   5.913   4.607  0.0503 -0.0909  0.1045
 9600TIP3    H128764   7.064   5.931   4.573  0.7265 -1.7763  0.8206
 9600TIP3    H228765   6.918   5.945   4.538  1.2659 -0.1103 -0.9920
 9601TIP3   OH228766   3.976   1.748   4.275 -0.2484 -0.3361 -0.0747
 9601TIP3    H128767   4.025   1.727   4.195 -1.8872  1.2080 -1.5746
 9601TIP3    H228768   3.977   1.844   4.279 -0.5128 -0.3749  1.5840
 9602TIP3   OH228769   2.950   4.517   0.299 -0.2111  0.2215  0.4848
 9602TIP3    H128770   2.933   4.503   0.392 -0.5905  1.0626  0.5543
 9602TIP3    H228771   3.038   4.482   0.285  0.4245  1.3443  1.4764
 9603TIP3   OH228772   0.198   3.390   4.359 -0.0313  0.1491 -0.1375
 9603TIP3    H128773   0.126   3.333   4.386  0.6188 -0.4127  0.4439
 9603TIP3    H228774   0.276   3.337   4.369  0.5105  0.8754 -0.3997
 9604TIP3   OH228775   3.936   0.590   4.484 -0.1261  0.6354 -0.0621
 9604TIP3    H128776   3.877   0.535   4.432  0.3579 -0.5364  0.5925
 9604TIP3    H228777   3.887   0.671   4.497 -1.2028  0.0654 -0.3718
 9605TIP3   OH228778   5.156   5.079   3.799 -0.0756  0.4733  0.2743
 9605TIP3    H128779   5.216   5.013   3.833  0.8600  1.5595  0.7896
 9605TIP3    H228780   5.099   5.101   3.873  0.7680  1.5076  0.6359
 9606TIP3   OH228781   2.374   2.279   3.365  0.2142 -0.0863 -0.1249
 9606TIP3    H128782   2.411   2.196   3.395 -2.2155 -0.8656  0.9342
 9606TIP3    H228783   2.410   2.344   3.425  0.1980 -0.7530  0.6218
 9607TIP3   OH228784   4.856   6.292   3.448 -0.2090  0.4698 -0.2181
 9607TIP3    H128785   4.827   6.381   3.432 -0.4367  0.2590 -1.0481
 9607TIP3    H228786   4.775   6.243   3.464 -0.1154  0.3460 -0.1258
 9608TIP3   OH228787   0.862   3.735   0.776 -0.2933 -0.1704 -0.2709
 9608TIP3    H128788   0.903   3.679   0.842 -0.5824 -1.0637 -0.8364
 9608TIP3    H228789   0.848   3.818   0.821 -1.0595 -0.9568  0.9914
 9609TIP3   OH228790   1.309   0.243   1.077 -0.3418 -0.5047 -0.2634
 9609TIP3    H128791   1.303   0.333   1.112 -2.6753 -0.8929  0.5279
 9609TIP3    H228792   1.313   0.255   0.982  1.6286  0.4604 -0.1113
 9610TIP3   OH228793   5.342   1.886   0.396  0.3883  0.6368  0.4040
 9610TIP3    H128794   5.271   1.866   0.457  0.6843 -0.8292  0.3104
 9610TIP3    H228795   5.361   1.802   0.354  2.2451  0.9722  0.5078
 9611TIP3   OH228796   3.047   6.671   5.338 -0.5518  0.0144 -0.0049
 9611TIP3    H128797   3.011   6.751   5.300  1.5289  0.4802 -1.1551
 9611TIP3    H228798   3.058   6.692   5.431 -0.9307  0.7142 -0.1079
 9612TIP3   OH228799   5.614   0.427   5.179  0.2069 -0.0960  0.0235
 9612TIP3    H128800   5.682   0.448   5.115  0.7704 -0.8669  0.3598
 9612TIP3    H228801   5.647   0.350   5.224 -1.4996 -1.3094 -0.7107
 9613TIP3   OH228802   3.593   1.856   5.097  0.7962 -0.2810  0.0916
 9613TIP3    H128803   3.547   1.848   5.014 -0.9916 -0.4250  1.0513
 9613TIP3    H228804   3.685   1.867   5.072  0.0537  2.3266 -1.9945
 9614TIP3   OH228805   3.000   4.170   4.674  0.7059  0.0231  0.2430
 9614TIP3    H128806   2.940   4.207   4.738  0.4705 -0.5386  0.3539
 9614TIP3    H228807   3.041   4.096   4.719  0.1441 -0.7077 -0.4170
 9615TIP3   OH228808   6.932   4.941   2.034  0.0334 -0.7487 -0.2072
 9615TIP3    H128809   6.873   4.962   1.962 -2.1520 -2.7000  0.8758
 9615TIP3    H228810   6.892   4.865   2.077  2.6306 -1.3004  1.4777
 9616TIP3   OH228811   1.456   1.058   5.193  0.1329  0.5374  0.4742
 9616TIP3    H128812   1.407   1.100   5.264  0.7661 -0.8850  1.8033
 9616TIP3    H228813   1.499   0.983   5.234  1.7188  0.5140 -1.1094
 9617TIP3   OH228814   0.619   4.566   0.789 -0.4816 -0.5238  0.2857
 9617TIP3    H128815   0.524   4.563   0.802 -0.3758 -0.7020  1.0426
 9617TIP3    H228816   0.633   4.527   0.703 -1.0608 -0.8836  0.3506
 9618TIP3   OH228817   5.850   6.552   1.931 -0.2650 -0.1557 -0.0846
 9618TIP3    H128818   5.869   6.644   1.949 -1.0940  0.2389 -1.0704
 9618TIP3    H228819   5.771   6.554   1.876  0.0652 -1.4189 -0.6679
 9619TIP3   OH228820   5.363   5.352   5.275 -0.2126  0.1107  0.3496
 9619TIP3    H128821   5.350   5.439   5.238 -0.5892  0.0525  0.3396
 9619TIP3    H228822   5.303   5.296   5.225  0.6515 -0.3088 -0.2328
 9620TIP3   OH228823   6.888   3.138   2.429  0.0076 -0.0245 -0.0060
 9620TIP3    H128824   6.967   3.084   2.425  0.6609  0.9285 -0.4722
 9620TIP3    H228825   6.848   3.129   2.343 -0.8716 -1.1817  0.5084
 9621TIP3   OH228826   4.644   1.294   4.554  0.9301  0.2221 -0.0105
 9621TIP3    H128827   4.661   1.270   4.645 -0.1573  1.4942  0.5546
 9621TIP3    H228828   4.553   1.324   4.553  0.7632 -0.2340 -1.6267
 9622TIP3   OH228829   4.889   4.425   4.785  0.5379  0.2124 -0.1836
 9622TIP3    H128830   4.954   4.363   4.818  0.7479  1.2290  1.4028
 9622TIP3    H228831   4.936   4.509   4.781  0.2604  0.3222 -2.2616
 9623TIP3   OH228832   0.217   3.035   4.538 -0.7545 -0.5034  0.1122
 9623TIP3    H128833   0.154   3.088   4.587  0.6336  0.6857  0.7021
 9623TIP3    H228834   0.263   2.984   4.604  0.0707 -0.0592 -0.1009
 9624TIP3   OH228835   5.597   4.627   3.639  0.1909 -0.0037  0.3358
 9624TIP3    H128836   5.619   4.580   3.719  1.5449 -0.6085 -0.3603
 9624TIP3    H228837   5.681   4.644   3.597 -0.4171  1.2723 -0.4271
 9625TIP3   OH228838   3.036   4.711   1.987 -0.0556  0.2000 -0.2486
 9625TIP3    H128839   2.999   4.623   1.989 -4.1468  1.6125 -2.2048
 9625TIP3    H228840   3.002   4.753   2.066 -2.3601  1.3044 -1.7097
 9626TIP3   OH228841   4.309   2.952   2.600  0.0094 -0.0240 -0.0167
 9626TIP3    H128842   4.307   2.976   2.692  0.4048 -3.1383  0.9176
 9626TIP3    H228843   4.396   2.912   2.588  0.0512  0.5095 -1.8227
 9627TIP3   OH228844   1.455   5.155   0.612 -0.5541 -0.1398 -1.0094
 9627TIP3    H128845   1.541   5.119   0.636 -0.4514  0.3398 -0.6399
 9627TIP3    H228846   1.394   5.114   0.674 -0.2539  1.2966  0.3156
 9628TIP3   OH228847   5.416   3.169   0.719  0.1821 -0.2031 -0.0212
 9628TIP3    H128848   5.331   3.212   0.726 -0.0532 -0.7778  0.7046
 9628TIP3    H228849   5.464   3.197   0.797 -0.6903 -2.7659  1.5547
 9629TIP3   OH228850   1.944   4.945   5.001  0.5000  0.4515  0.1677
 9629TIP3    H128851   2.019   4.923   4.946 -0.0129 -0.5864 -0.1490
 9629TIP3    H228852   1.882   4.988   4.942 -0.1120 -0.7946 -0.1226
 9630TIP3   OH228853   4.544   3.968   5.327  0.3032  0.3685  0.0595
 9630TIP3    H128854   4.501   4.013   5.254 -1.2652 -1.1208 -0.0142
 9630TIP3    H228855   4.473   3.947   5.387  1.1264 -1.0803  0.5671
 9631TIP3   OH228856   0.420   2.984   5.524  0.6689  0.2554 -0.0510
 9631TIP3    H128857   0.400   2.932   5.447  1.6814 -0.3274  0.0611
 9631TIP3    H228858   0.445   3.070   5.490  0.5028  0.1909 -0.3337
 9632TIP3   OH228859   1.560   4.400   1.428  0.0083 -0.5935  0.7154
 9632TIP3    H128860   1.519   4.322   1.464 -1.2369  0.0752  0.7903
 9632TIP3    H228861   1.507   4.422   1.352  0.7379 -0.1881  0.3137
 9633TIP3   OH228862   1.877   3.539   4.305 -0.4932 -0.2624 -0.1544
 9633TIP3    H128863   1.802   3.594   4.326  0.3690  0.9618 -0.1423
 9633TIP3    H228864   1.952   3.598   4.309  0.1731 -0.7634 -2.9780
 9634TIP3   OH228865   6.366   0.302   2.302 -0.5494 -0.4083 -0.2305
 9634TIP3    H128866   6.447   0.257   2.278 -0.6356 -0.5824 -0.1970
 9634TIP3    H228867   6.329   0.331   2.219 -0.8132 -0.9512 -0.3116
 9635TIP3   OH228868   5.985   0.525   0.656 -0.5050  0.6877 -0.1662
 9635TIP3    H128869   6.069   0.550   0.618 -0.9821  1.9979 -0.4391
 9635TIP3    H228870   6.004   0.450   0.712  0.3392 -0.9409 -2.5065
 9636TIP3   OH228871   5.141   0.012   5.386 -0.1462 -0.4272  0.1769
 9636TIP3    H128872   5.221   0.057   5.358 -0.2737 -0.7304 -0.6883
 9636TIP3    H228873   5.120  -0.047   5.314 -0.9444 -0.6194  0.5596
 9637TIP3   OH228874   5.565   3.822   1.778  0.1615 -0.2787 -0.0441
 9637TIP3    H128875   5.623   3.898   1.778  0.9885 -0.8942 -0.3939
 9637TIP3    H228876   5.481   3.856   1.809 -0.4017  1.4504 -3.0741
 9638TIP3   OH228877   4.472   5.040   0.579  0.3889 -0.1737  0.1117
 9638TIP3    H128878   4.389   5.076   0.547  1.3590  1.3860 -0.7390
 9638TIP3    H228879   4.539   5.098   0.544  1.9510 -2.0244 -0.1324
 9639TIP3   OH228880   7.046   0.713   4.334  0.3483 -0.8790  0.2651
 9639TIP3    H128881   7.126   0.661   4.324 -0.6500 -2.5595  0.6588
 9639TIP3    H228882   7.027   0.745   4.246 -0.0347 -2.8141 -0.4201
 9640TIP3   OH228883   0.376   0.877   0.393  0.0874 -0.0342  0.0325
 9640TIP3    H128884   0.449   0.880   0.331  0.1127  2.2657  0.0790
 9640TIP3    H228885   0.318   0.948   0.365 -1.7635 -1.3028  0.4738
 9641TIP3   OH228886   2.128   4.590   5.451 -0.0318  0.2853 -1.0371
 9641TIP3    H128887   2.052   4.628   5.493  1.2320  2.2649 -0.4093
 9641TIP3    H228888   2.203   4.639   5.486  1.9332 -3.5194  0.7156
 9642TIP3   OH228889   4.273   0.306   2.591  0.5167  0.3400  0.0794
 9642TIP3    H128890   4.179   0.293   2.604  0.7500 -0.7796  0.7563
 9642TIP3    H228891   4.303   0.349   2.672  1.3481 -3.4673  2.0153
 9643TIP3   OH228892   3.595   4.308   2.517 -0.0647 -0.1969 -0.2501
 9643TIP3    H128893   3.584   4.402   2.530  0.3482 -0.2096  0.1993
 9643TIP3    H228894   3.536   4.287   2.444 -0.6971  0.2783  0.1146
 9644TIP3   OH228895   7.186   5.408   2.107  0.5635  0.6035 -0.3534
 9644TIP3    H128896   7.119   5.378   2.046  0.4777  1.9819 -0.9648
 9644TIP3    H228897   7.269   5.383   2.065  0.4876 -0.7929  0.2435
 9645TIP3   OH228898   2.458   1.687   1.833  0.2293  0.5429  0.1398
 9645TIP3    H128899   2.443   1.751   1.902 -0.6478  0.0843  0.3956
 9645TIP3    H228900   2.416   1.607   1.866  0.1559  0.2073 -0.7434
 9646TIP3   OH228901   7.005   6.127   1.236 -0.0226  0.5445 -0.0133
 9646TIP3    H128902   6.926   6.073   1.233 -0.3271  1.0157 -1.2897
 9646TIP3    H228903   7.075   6.069   1.207 -0.0423  0.3511  0.3254
 9647TIP3   OH228904   1.304   3.575   0.045 -0.0251  0.3224  0.1383
 9647TIP3    H128905   1.398   3.566   0.025 -0.2078 -0.8457 -0.2793
 9647TIP3    H228906   1.273   3.641  -0.016  0.0066 -1.1922 -1.5832
 9648TIP3   OH228907   5.396   1.153   1.594 -0.8667  0.1847 -0.0783
 9648TIP3    H128908   5.384   1.060   1.614  2.4784  0.0415  2.1816
 9648TIP3    H228909   5.405   1.156   1.499  2.1400 -2.4390 -0.0739
 9649TIP3   OH228910   0.596   3.524   5.208 -0.0936 -0.8361 -0.4017
 9649TIP3    H128911   0.663   3.528   5.277 -0.9598  0.8834  0.4008
 9649TIP3    H228912   0.609   3.438   5.168  1.7224 -1.0886  0.5977
 9650TIP3   OH228913   7.028   2.912   3.993 -0.1665 -0.2659 -0.3049
 9650TIP3    H128914   6.977   2.880   4.067 -1.5435  0.9701 -0.6617
 9650TIP3    H228915   7.060   2.998   4.022 -0.6817  0.2059 -1.1108
 9651TIP3   OH228916   6.829   2.977   1.462  0.1114 -0.5500 -0.0859
 9651TIP3    H128917   6.815   2.907   1.398  1.0384 -0.3126 -0.5649
 9651TIP3    H228918   6.917   2.961   1.496  0.9801  1.2810 -1.3478
 9652TIP3   OH228919   4.906   1.969   1.488  0.3263 -0.0222 -0.6709
 9652TIP3    H128920   4.946   1.884   1.472  1.6652  0.4732 -0.0854
 9652TIP3    H228921   4.813   1.950   1.500  0.7294 -1.5196  0.4090
 9653TIP3   OH228922   5.525   1.429   2.848  0.6480  0.0453 -0.4212
 9653TIP3    H128923   5.461   1.360   2.829  0.0905  0.3183  0.4360
 9653TIP3    H228924   5.573   1.397   2.924  0.3838  0.5952 -0.0146
 9654TIP3   OH228925   2.798   2.416   1.110  0.3572 -0.3737  0.3195
 9654TIP3    H128926   2.830   2.394   1.198  2.3028  0.7579 -0.0471
 9654TIP3    H228927   2.850   2.361   1.051  0.1108 -0.0534 -0.2029
 9655TIP3   OH228928   4.247   2.835   0.460  0.7309 -0.3004 -0.2476
 9655TIP3    H128929   4.247   2.900   0.530 -3.7354 -1.0508  0.7389
 9655TIP3    H228930   4.306   2.767   0.491  0.0547  0.0931  2.1202
 9656TIP3   OH228931   3.805   2.120   2.319  0.6807 -0.3174 -0.1577
 9656TIP3    H128932   3.815   2.027   2.298  1.7406 -0.7645  1.9744
 9656TIP3    H228933   3.891   2.146   2.352  0.5058  1.5403 -1.0360
 9657TIP3   OH228934   5.746   4.991   1.103 -0.3913 -0.6051  0.0343
 9657TIP3    H128935   5.741   4.969   1.196 -0.3107  0.0649  0.1992
 9657TIP3    H228936   5.838   4.978   1.079 -0.1358  0.4846  0.3728
 9658TIP3   OH228937   0.360   3.912   1.207  0.3185  0.1860  0.4078
 9658TIP3    H128938   0.427   3.849   1.234 -2.8253 -3.9047 -0.3954
 9658TIP3    H228939   0.298   3.913   1.279 -1.4362 -0.4840 -1.0108
 9659TIP3   OH228940   6.202   1.327   1.921  0.3207  0.0239  0.3797
 9659TIP3    H128941   6.234   1.299   1.836 -0.7647 -0.5042  0.1338
 9659TIP3    H228942   6.195   1.247   1.973  1.2312  0.3688  1.0750
 9660TIP3   OH228943   4.357   2.426   4.296 -0.0871  0.2457  0.3803
 9660TIP3    H128944   4.431   2.446   4.238 -1.0328 -0.2579 -1.0497
 9660TIP3    H228945   4.284   2.475   4.259 -0.8277 -0.4916  0.8392
 9661TIP3   OH228946   5.461   4.156   2.758 -0.1325 -0.3345  0.0013
 9661TIP3    H128947   5.396   4.226   2.771 -0.2955 -0.2491 -1.2176
 9661TIP3    H228948   5.475   4.153   2.664  1.8070 -0.2262  0.2501
 9662TIP3   OH228949   6.151   0.500   0.947  0.3112  0.0654 -0.3570
 9662TIP3    H128950   6.184   0.496   1.036  1.1852 -1.3979 -0.7109
 9662TIP3    H228951   6.078   0.437   0.945  1.0181 -0.7563 -0.9386
 9663TIP3   OH228952   3.175   1.735   5.648 -0.0995 -0.0326  0.1577
 9663TIP3    H128953   3.140   1.726   5.737  1.6778 -0.2199  0.8705
 9663TIP3    H228954   3.221   1.819   5.649  0.0857 -0.1236 -0.5398
 9664TIP3   OH228955   2.550   5.913   3.369  0.7289 -0.5364 -0.7331
 9664TIP3    H128956   2.527   5.988   3.314 -1.3682 -1.5448 -1.3257
 9664TIP3    H228957   2.485   5.913   3.439  1.2915 -1.2510 -0.1908
 9665TIP3   OH228958   2.867   1.182   1.854 -0.0323 -0.4190  0.6897
 9665TIP3    H128959   2.925   1.108   1.836 -0.2180 -0.5142  0.4762
 9665TIP3    H228960   2.799   1.146   1.911 -0.2148 -0.4544  0.4512
 9666TIP3   OH228961   2.745   1.946   0.457  0.0204  0.1586  0.1500
 9666TIP3    H128962   2.697   2.029   0.458 -1.0599 -0.4177 -0.8311
 9666TIP3    H228963   2.787   1.944   0.370 -1.4282 -1.0855 -0.5669
 9667TIP3   OH228964   1.968   5.298   0.711 -0.1342 -0.2665 -0.9175
 9667TIP3    H128965   2.004   5.311   0.623 -0.8348  0.0690 -1.1665
 9667TIP3    H228966   1.880   5.336   0.706 -1.0019 -2.1335 -0.7029
 9668TIP3   OH228967   4.763   3.206   2.371 -0.3123 -0.5294 -0.4330
 9668TIP3    H128968   4.785   3.270   2.303  0.1491 -0.0224  0.1890
 9668TIP3    H228969   4.843   3.195   2.422 -0.3875 -1.5972 -0.5051
 9669TIP3   OH228970   5.849   4.411   5.780 -0.0449 -0.4739 -0.0477
 9669TIP3    H128971   5.936   4.439   5.753 -0.1577  0.0009  0.0761
 9669TIP3    H228972   5.821   4.477   5.843 -0.0845 -1.1786  0.6814
 9670TIP3   OH228973   3.144   5.721   2.615 -0.1303 -0.3718 -0.1417
 9670TIP3    H128974   3.210   5.714   2.547 -1.3895 -1.1147 -1.3485
 9670TIP3    H228975   3.075   5.659   2.589 -1.5076  0.6848  0.7949
 9671TIP3   OH228976   1.894   2.766   1.299  0.5896 -0.3709 -0.0147
 9671TIP3    H128977   1.845   2.844   1.273  2.9178  0.8226 -1.1182
 9671TIP3    H228978   1.853   2.695   1.250  0.1498  0.6258 -1.1482
 9672TIP3   OH228979   5.780   0.211   2.965 -0.1086  0.3503 -0.6368
 9672TIP3    H128980   5.686   0.216   2.982 -0.1714 -1.1103 -0.4411
 9672TIP3    H228981   5.791   0.128   2.919  0.9447  1.0772 -1.7573
 9673TIP3   OH228982   6.783   5.175   4.625 -0.8397 -0.2150 -0.2947
 9673TIP3    H128983   6.870   5.197   4.660 -0.4165  0.6655 -1.7959
 9673TIP3    H228984   6.760   5.093   4.668 -0.3816  0.8015  2.0255
 9674TIP3   OH228985   7.136   1.334   5.814 -0.3377  0.1335  0.4141
 9674TIP3    H128986   7.215   1.378   5.844 -1.5621  3.4365 -0.7032
 9674TIP3    H228987   7.151   1.320   5.720  0.7219 -3.7883  0.9733
 9675TIP3   OH228988   3.419   2.721   4.502  0.1619  0.2135  0.1879
 9675TIP3    H128989   3.464   2.791   4.454 -0.7875  1.7530  1.4444
 9675TIP3    H228990   3.481   2.694   4.569  0.0767  0.7263  0.4765
 9676TIP3   OH228991   2.026   2.940   3.479  0.3998 -0.4443  0.5022
 9676TIP3    H128992   2.013   2.845   3.484 -0.6396 -0.4951 -1.6983
 9676TIP3    H228993   1.952   2.976   3.528  0.2000 -0.7772  0.4538
 9677TIP3   OH228994   2.581   3.822   0.279 -0.2391 -0.1016  0.1346
 9677TIP3    H128995   2.489   3.819   0.254 -0.2228 -2.4402  0.1575
 9677TIP3    H228996   2.593   3.909   0.318 -2.3049  0.4173 -0.3040
 9678TIP3   OH228997   2.015   5.651   0.930  0.6495 -0.2382  0.7010
 9678TIP3    H128998   2.055   5.595   0.864  1.1054  0.1811  0.6232
 9678TIP3    H228999   1.926   5.667   0.897  1.6382  2.0670 -1.1368
 9679TIP3   OH229000   0.021   3.179   2.418 -0.2466  0.1487 -0.5550
 9679TIP3    H129001  -0.021   3.143   2.497 -0.7060  1.7562 -0.0380
 9679TIP3    H229002   0.087   3.114   2.395 -0.1912 -0.4323  1.0793
 9680TIP3   OH229003   3.154   4.434   2.115  0.3468  0.1231  0.2059
 9680TIP3    H129004   3.228   4.488   2.143  0.2144 -0.5658  2.0577
 9680TIP3    H229005   3.193   4.367   2.059  1.0705  0.0199  0.8150
 9681TIP3   OH229006   1.703   2.795   4.819 -0.1882 -0.4871 -0.1698
 9681TIP3    H129007   1.746   2.823   4.900 -1.6258  0.2600  0.3915
 9681TIP3    H229008   1.704   2.700   4.822  4.4992 -0.7428 -1.9227
 9682TIP3   OH229009   1.396   5.681   3.440 -0.1862 -0.0862 -0.1259
 9682TIP3    H129010   1.472   5.682   3.382 -0.3009 -0.8498 -0.3098
 9682TIP3    H229011   1.331   5.735   3.395  0.0306  0.0470 -0.2813
 9683TIP3   OH229012   3.151   6.492   3.400 -0.0688  0.6865 -0.5277
 9683TIP3    H129013   3.226   6.446   3.438 -1.4417 -0.1573  1.2995
 9683TIP3    H229014   3.081   6.426   3.398 -1.2443  1.9017 -0.6254
 9684TIP3   OH229015   3.355   2.299   1.282 -0.5128 -0.3650  0.4992
 9684TIP3    H129016   3.284   2.303   1.346 -1.1969 -0.3527 -0.2534
 9684TIP3    H229017   3.423   2.246   1.325 -0.3053  0.9222  1.8549
 9685TIP3   OH229018   1.065   3.969   4.046 -0.6165 -0.0680 -0.1828
 9685TIP3    H129019   1.017   3.900   4.001 -0.7072 -0.3676  0.3523
 9685TIP3    H229020   1.152   3.969   4.006 -1.6825  2.0228 -2.7557
 9686TIP3   OH229021   0.271   5.047   1.946 -0.0335 -0.1061 -0.8254
 9686TIP3    H129022   0.358   5.066   1.911 -0.2636  0.3513 -1.1631
 9686TIP3    H229023   0.273   4.954   1.965  0.9948  0.1609  0.5002
 9687TIP3   OH229024   2.467   2.014   1.273 -0.4284 -0.2653 -0.5062
 9687TIP3    H129025   2.469   2.075   1.346  1.5133 -3.2471  2.2506
 9687TIP3    H229026   2.537   2.044   1.215  1.3956 -0.4646  1.4586
 9688TIP3   OH229027   3.739   5.781   5.306 -0.1286  0.0524 -0.1467
 9688TIP3    H129028   3.683   5.737   5.370  0.3651 -0.3931 -0.0169
 9688TIP3    H229029   3.757   5.867   5.345 -0.1142 -0.0872  0.1547
 9689TIP3   OH229030   3.559   4.030   4.330 -0.4177 -0.4724  0.6964
 9689TIP3    H129031   3.575   3.952   4.277  1.8189  0.8781 -0.7545
 9689TIP3    H229032   3.526   4.095   4.268  0.9396  0.7239  1.1638
 9690TIP3   OH229033   2.190   6.629   0.510 -0.7180 -0.4925  0.0190
 9690TIP3    H129034   2.121   6.663   0.454 -1.0655 -0.8482  0.2233
 9690TIP3    H229035   2.271   6.666   0.475 -0.8534 -1.2494 -1.1358
 9691TIP3   OH229036   0.387   2.841   4.758  0.3650 -0.5102  0.1037
 9691TIP3    H129037   0.466   2.890   4.736 -0.0208  0.0855  0.0035
 9691TIP3    H229038   0.399   2.756   4.717  0.7407 -0.2563 -0.3278
 9692TIP3   OH229039   0.024   6.581   3.361  0.0943 -1.0446 -0.2324
 9692TIP3    H129040   0.049   6.491   3.383  1.6424 -0.0271  2.6970
 9692TIP3    H229041   0.108   6.624   3.342 -0.2310  0.5167  1.6578
 9693TIP3   OH229042   2.755   2.818   1.578 -0.2701  0.1324 -0.4656
 9693TIP3    H129043   2.831   2.768   1.606 -0.6441 -2.0674 -2.9937
 9693TIP3    H229044   2.789   2.881   1.515 -0.5267 -1.1153 -1.8945
 9694TIP3   OH229045   5.040   6.624   3.298 -0.0891 -0.2214 -0.3312
 9694TIP3    H129046   4.981   6.700   3.302  0.2592  0.0281  0.3188
 9694TIP3    H229047   5.058   6.612   3.205  1.6073  1.8872 -0.3585
 9695TIP3   OH229048   1.891   0.300   4.473  0.2295 -0.0414  0.1488
 9695TIP3    H129049   1.797   0.317   4.471  0.0660 -0.9478 -0.7067
 9695TIP3    H229050   1.928   0.376   4.516 -1.1006 -0.6662  2.5591
 9696TIP3   OH229051   1.878   0.427   0.065 -0.3490  0.0928 -0.1376
 9696TIP3    H129052   1.968   0.399   0.082 -0.4525 -1.5874 -1.9048
 9696TIP3    H229053   1.828   0.396   0.141  0.5794  1.4239  1.0650
 9697TIP3   OH229054   0.960   1.571   2.954 -0.0570 -0.5391  0.1058
 9697TIP3    H129055   1.024   1.602   3.018  0.9027 -0.1057 -1.0292
 9697TIP3    H229056   0.923   1.651   2.917  0.4029 -0.7690 -0.8599
 9698TIP3   OH229057   5.248   6.340   2.023 -0.8638  0.3164 -0.3767
 9698TIP3    H129058   5.303   6.357   2.100 -0.1945  1.0571 -1.0032
 9698TIP3    H229059   5.258   6.247   2.006 -1.0684  0.1277  0.4644
 9699TIP3   OH229060   4.312   0.436   5.761  0.5976  0.5852  0.2060
 9699TIP3    H129061   4.268   0.386   5.829 -0.0947  0.7912 -0.0822
 9699TIP3    H229062   4.275   0.524   5.766 -0.1870  0.3592 -1.0544
 9700TIP3   OH229063   6.699   5.129   1.422  0.1227 -0.2865  0.6130
 9700TIP3    H129064   6.752   5.050   1.415  2.5522  1.1546  1.2677
 9700TIP3    H229065   6.755   5.191   1.470 -1.4472  1.9994 -0.3073
 9701TIP3   OH229066   2.026   2.130   0.981  0.0526  0.3718 -0.1105
 9701TIP3    H129067   2.077   2.161   0.906  0.7700 -0.4091  0.0429
 9701TIP3    H229068   2.080   2.152   1.057 -0.2966  0.4167  0.1270
 9702TIP3   OH229069   5.996   3.442   5.472 -0.0616 -0.4456  0.1236
 9702TIP3    H129070   5.951   3.358   5.476 -0.7809 -0.1555 -1.4173
 9702TIP3    H229071   6.011   3.458   5.379  1.4217  0.4327  0.4772
 9703TIP3   OH229072   0.067   5.847   1.799  0.2238  0.4782 -0.8653
 9703TIP3    H129073   0.140   5.807   1.847 -0.0515  0.4152 -0.5007
 9703TIP3    H229074   0.096   5.846   1.708  0.4109 -0.1526 -0.8072
 9704TIP3   OH229075   3.933   1.571   1.666 -0.1042 -0.0105 -0.1447
 9704TIP3    H129076   3.894   1.658   1.657  1.1495  0.5807 -0.0662
 9704TIP3    H229077   3.994   1.563   1.593  0.7506 -0.2853  0.5712
 9705TIP3   OH229078   6.706   1.314   3.101 -0.1683 -0.1402  0.0638
 9705TIP3    H129079   6.790   1.293   3.061  0.1991 -1.2002  1.3048
 9705TIP3    H229080   6.687   1.239   3.157 -1.8812  0.1433 -0.0763
 9706TIP3   OH229081   2.497   1.624   3.885  0.1306  0.0067 -0.3960
 9706TIP3    H129082   2.544   1.551   3.844  0.2612 -1.5678  2.2594
 9706TIP3    H229083   2.558   1.698   3.880  2.6752 -1.6857  2.0260
 9707TIP3   OH229084   0.687   0.111   4.698 -0.4820 -0.1391  0.0909
 9707TIP3    H129085   0.728   0.049   4.758  0.3078 -0.6035 -0.9157
 9707TIP3    H229086   0.606   0.069   4.672 -0.5375 -0.2032  0.3603
 9708TIP3   OH229087   2.656   0.781   0.366 -0.0629  0.1424 -0.1047
 9708TIP3    H129088   2.718   0.854   0.371 -1.2458  1.2579 -0.9902
 9708TIP3    H229089   2.631   0.778   0.273 -1.7453  0.0918  0.3244
 9709TIP3   OH229090   2.160   3.527   5.400  0.5382  0.5061  0.5252
 9709TIP3    H129091   2.080   3.536   5.349  1.4855  0.5166 -1.0011
 9709TIP3    H229092   2.141   3.456   5.462 -0.4329  0.1040 -0.2159
 9710TIP3   OH229093   6.830   2.774   2.099 -0.4043  0.8158  0.2587
 9710TIP3    H129094   6.911   2.723   2.102 -1.2412 -0.5566  0.6223
 9710TIP3    H229095   6.836   2.823   2.018  0.7281  0.6358  0.2067
 9711TIP3   OH229096   2.028   2.011   5.242  0.2350 -0.2624 -0.1540
 9711TIP3    H129097   1.942   2.040   5.273  1.0668  0.1944  1.9100
 9711TIP3    H229098   2.035   1.920   5.271  1.8709  0.7712  3.2546
 9712TIP3   OH229099   5.369   0.244   0.900  0.1123 -0.4376 -0.1373
 9712TIP3    H129100   5.376   0.161   0.853  1.6115 -1.1104  1.1602
 9712TIP3    H229101   5.387   0.222   0.992 -0.4531  1.1727  0.4105
 9713TIP3   OH229102   4.945   4.989   0.086 -0.4701 -0.4332 -0.7800
 9713TIP3    H129103   4.873   4.934   0.116 -0.6348  0.4774  0.5737
 9713TIP3    H229104   4.907   5.045   0.018 -1.5442  1.2207  1.0732
 9714TIP3   OH229105   7.050   1.421   2.544 -0.0220 -0.1030  0.1116
 9714TIP3    H129106   7.045   1.483   2.617 -1.6095  0.9018 -0.8084
 9714TIP3    H229107   7.105   1.465   2.479  0.9633 -0.7845  0.4436
 9715TIP3   OH229108   0.789   3.350   0.493 -0.2739 -0.0015  0.4391
 9715TIP3    H129109   0.878   3.333   0.525  0.1085  0.1643 -0.4995
 9715TIP3    H229110   0.759   3.266   0.459  0.0081  0.2125 -0.3685
 9716TIP3   OH229111   3.970   2.510   2.095 -0.5142 -0.1594 -0.3520
 9716TIP3    H129112   3.897   2.571   2.087  0.3946  0.7223 -2.6419
 9716TIP3    H229113   4.025   2.527   2.019  1.0698 -2.1707  0.2346
 9717TIP3   OH229114   3.802   4.923   3.736  0.0682 -0.4692 -0.1600
 9717TIP3    H129115   3.775   4.833   3.754  0.1370 -0.8263 -1.7242
 9717TIP3    H229116   3.896   4.924   3.754 -0.0942 -0.4533  0.7423
 9718TIP3   OH229117   3.951   1.440   1.345 -0.1811 -0.0014  0.1927
 9718TIP3    H129118   4.018   1.499   1.381 -0.4396  1.4920 -1.6032
 9718TIP3    H229119   3.997   1.391   1.277 -0.0203 -1.8228  1.5470
 9719TIP3   OH229120   3.389   3.123   3.933 -0.0557  0.0791  0.1135
 9719TIP3    H129121   3.472   3.127   3.979 -0.0032  0.1715  0.0116
 9719TIP3    H229122   3.332   3.184   3.979  0.1480  0.5511 -0.2481
 9720TIP3   OH229123   3.244   0.660   4.494  0.2391  0.2102 -0.0007
 9720TIP3    H129124   3.327   0.665   4.540  0.8223 -1.9721 -0.7000
 9720TIP3    H229125   3.263   0.692   4.406  0.5673 -0.9258 -0.3700
 9721TIP3   OH229126   2.650   1.463   1.092 -1.2264 -0.1937  0.3503
 9721TIP3    H129127   2.616   1.458   1.181  0.3567 -1.0427  0.9471
 9721TIP3    H229128   2.684   1.376   1.074  0.0370  0.4323 -0.4286
 9722TIP3   OH229129   4.956   1.989   1.795  0.3999 -0.5383 -0.6045
 9722TIP3    H129130   4.904   2.058   1.836  1.0476 -0.3020 -0.1765
 9722TIP3    H229131   4.894   1.945   1.736 -0.8590 -1.5508  1.3451
 9723TIP3   OH229132   0.139   4.789   2.683 -0.4640  0.5868  0.6611
 9723TIP3    H129133   0.054   4.769   2.721 -0.7391 -0.7435 -0.5553
 9723TIP3    H229134   0.182   4.703   2.674 -0.2411  0.8739 -1.5571
 9724TIP3   OH229135   1.678   6.611   4.486  0.0638  0.4932  0.5867
 9724TIP3    H129136   1.748   6.597   4.423  0.6441  0.5083  1.2233
 9724TIP3    H229137   1.721   6.645   4.564 -0.6875  0.8013  0.8836
 9725TIP3   OH229138   2.741   2.610   4.121  0.2357  0.1340  0.0633
 9725TIP3    H129139   2.761   2.703   4.110  1.9952 -0.1598  0.3961
 9725TIP3    H229140   2.827   2.567   4.116 -0.6664 -1.6197 -1.4852
 9726TIP3   OH229141   1.359   0.486   0.441 -0.1975  0.9097 -0.2716
 9726TIP3    H129142   1.342   0.577   0.465  0.1266  1.1009 -0.7650
 9726TIP3    H229143   1.289   0.437   0.485 -0.6493  1.4432 -0.3816
 9727TIP3   OH229144   0.940   6.703   1.973 -0.3114 -0.3580  0.0627
 9727TIP3    H129145   1.028   6.741   1.976 -0.3518 -0.0705 -1.5371
 9727TIP3    H229146   0.939   6.649   1.894 -1.9477  0.6266 -0.6469
 9728TIP3   OH229147   5.129   4.146   1.372 -0.4761  0.1187 -0.1986
 9728TIP3    H129148   5.078   4.155   1.291  1.0977  2.5905 -1.0200
 9728TIP3    H229149   5.088   4.207   1.433 -1.4622 -1.5131  0.8464
 9729TIP3   OH229150   0.523   5.430   5.503 -1.0816 -0.0149  0.2659
 9729TIP3    H129151   0.514   5.517   5.542  4.0489  1.4086 -0.9172
 9729TIP3    H229152   0.593   5.388   5.553 -1.8333 -2.5725 -0.6747
 9730TIP3   OH229153   6.806   2.698   2.754  0.0682 -0.0396  0.1824
 9730TIP3    H129154   6.871   2.702   2.824 -1.7283 -1.0225  1.9840
 9730TIP3    H229155   6.856   2.669   2.677  2.5048  3.0176  0.4159
 9731TIP3   OH229156   1.806   6.264   0.275  0.2040 -0.1953 -0.3861
 9731TIP3    H129157   1.782   6.172   0.266  1.0060 -0.5608  0.9711
 9731TIP3    H229158   1.899   6.267   0.251  0.1375  0.3087 -0.6091
 9732TIP3   OH229159   4.364   1.870   0.292  0.0774 -0.1494  0.4945
 9732TIP3    H129160   4.313   1.803   0.338  0.5347 -1.5794 -0.9847
 9732TIP3    H229161   4.306   1.900   0.222  0.5042 -0.2679  0.0888
 9733TIP3   OH229162   2.162   5.623   2.844  0.0721 -0.0021  0.5512
 9733TIP3    H129163   2.229   5.556   2.830 -0.1713 -0.3316  0.9315
 9733TIP3    H229164   2.186   5.694   2.784  0.7560 -0.1176  0.6760
 9734TIP3   OH229165   4.465   6.614   5.173 -0.0565 -0.2504  0.4119
 9734TIP3    H129166   4.503   6.699   5.194 -0.6461  0.2105 -0.3290
 9734TIP3    H229167   4.472   6.564   5.254  1.9246 -0.1231  0.3719
 9735TIP3   OH229168   4.747   0.372   3.554  0.5980 -0.3921  0.4629
 9735TIP3    H129169   4.664   0.393   3.596  1.2287  0.3109  1.4157
 9735TIP3    H229170   4.813   0.414   3.609  1.8212 -3.1419  1.3212
 9736TIP3   OH229171   0.128   1.166   1.937  0.1692 -0.3375  0.7933
 9736TIP3    H129172   0.147   1.116   1.858 -2.1421 -0.4421  0.2266
 9736TIP3    H229173   0.094   1.250   1.906  1.1130  0.4087  1.7066
 9737TIP3   OH229174   6.128   6.743   0.097 -0.5456 -0.1864  0.1293
 9737TIP3    H129175   6.199   6.681   0.083 -0.8116 -0.3387 -0.6360
 9737TIP3    H229176   6.059   6.714   0.036 -1.2997 -0.1068  0.9231
 9738TIP3   OH229177   6.972   5.379   3.323 -0.3817 -0.1427  0.1375
 9738TIP3    H129178   6.884   5.415   3.337 -0.4866 -0.3263 -0.0415
 9738TIP3    H229179   6.972   5.297   3.371  0.0677  0.3856  1.0767
 9739TIP3   OH229180   4.571   2.528   2.402  0.1371  0.2423 -0.4665
 9739TIP3    H129181   4.550   2.532   2.496 -0.2837  0.5554 -0.5733
 9739TIP3    H229182   4.667   2.530   2.399  0.1844 -0.7089  0.0044
 9740TIP3   OH229183   1.300   0.789   5.139  0.2970 -0.3597 -0.0305
 9740TIP3    H129184   1.234   0.721   5.154 -1.1141  1.0799  0.4878
 9740TIP3    H229185   1.297   0.843   5.218  0.3106  1.2061 -1.0775
 9741TIP3   OH229186   5.373   0.343   5.539  0.4230  0.5045  0.6628
 9741TIP3    H129187   5.363   0.253   5.571  1.6484 -0.2812 -1.0140
 9741TIP3    H229188   5.316   0.348   5.462  0.9427  0.9209  0.2972
 9742TIP3   OH229189   1.578   4.270   0.471 -0.0989 -0.2185  0.0591
 9742TIP3    H129190   1.602   4.253   0.563 -0.1804 -0.8441 -0.0278
 9742TIP3    H229191   1.535   4.355   0.473 -2.4870 -1.3458  1.0607
 9743TIP3   OH229192   2.585   3.991   2.050 -0.0640  0.5215 -0.1157
 9743TIP3    H129193   2.581   3.923   1.982 -0.3271  0.3794  0.0382
 9743TIP3    H229194   2.541   4.066   2.011  1.2507  0.9941 -0.7209
 9744TIP3   OH229195   2.180   3.694   0.671  0.0675  0.3166 -0.0682
 9744TIP3    H129196   2.102   3.731   0.711 -0.1747 -0.4022  0.1484
 9744TIP3    H229197   2.226   3.651   0.743  0.4696  0.4199 -0.2625
 9745TIP3   OH229198   4.234   2.525   5.635  0.0458  0.1950  0.1611
 9745TIP3    H129199   4.222   2.468   5.558  1.6371 -2.4026  1.6693
 9745TIP3    H229200   4.154   2.513   5.686 -0.0879  0.1781 -0.0483
 9746TIP3   OH229201   0.204   4.965   0.550 -0.2250  0.1716  0.0651
 9746TIP3    H129202   0.225   5.055   0.576 -0.3306 -0.5185  2.9117
 9746TIP3    H229203   0.124   4.945   0.599 -0.3246 -1.4172 -0.6955
 9747TIP3   OH229204   1.887   2.629   4.214  0.3668  0.0023  0.3844
 9747TIP3    H129205   1.872   2.567   4.286 -0.8594  0.2736  0.3934
 9747TIP3    H229206   1.929   2.704   4.256  1.4866 -0.6446  0.4450
 9748TIP3   OH229207   1.627   4.787   0.526  0.2046  0.0669 -0.3263
 9748TIP3    H129208   1.693   4.745   0.580  0.1289  0.3500 -0.0151
 9748TIP3    H229209   1.564   4.823   0.588  0.7548  1.4506 -0.5531
 9749TIP3   OH229210   5.020   3.826   2.609 -0.9547  0.0238 -0.1043
 9749TIP3    H129211   5.053   3.742   2.641  0.9620 -0.2248 -2.4761
 9749TIP3    H229212   5.098   3.879   2.595 -2.1124  2.1361  1.0041
   7.21454   6.80195   5.89065   0.00000   0.00000  -2.40485   0.00000  -2.40485  -3.40097
