Title t=  91.00000 step= 45500
29212
    1ASP      N    1   2.011   2.935   5.086
    1ASP    HT1    2   2.023   3.017   5.149
    1ASP    HT2    3   2.107   2.899   5.072
    1ASP    HT3    4   1.967   2.860   5.144
    1ASP     CA    5   1.934   2.970   4.969
    1ASP     HA    6   1.850   2.903   4.976
    1ASP     CB    7   1.883   3.121   4.974
    1ASP    HB1    8   1.820   3.151   4.887
    1ASP    HB2    9   1.973   3.186   4.981
    1ASP     CG   10   1.796   3.147   5.093
    1ASP    OD1   11   1.747   3.044   5.150
    1ASP    OD2   12   1.766   3.263   5.117
    1ASP      C   13   2.014   2.930   4.843
    1ASP      O   14   2.082   2.828   4.842
    2GLY      N   15   2.003   3.003   4.722
    2GLY     HN   16   1.935   3.075   4.717
    2GLY     CA   17   2.067   2.967   4.597
    2GLY    HA1   18   2.014   3.015   4.517
    2GLY    HA2   19   2.063   2.860   4.585
    2GLY      C   20   2.205   3.011   4.588
    2GLY      O   21   2.236   3.125   4.626
    3ASP      N   22   2.291   2.931   4.525
    3ASP     HN   23   2.267   2.839   4.493
    3ASP     CA   24   2.428   2.967   4.504
    3ASP     HA   25   2.457   3.028   4.589
    3ASP     CB   26   2.514   2.836   4.486
    3ASP    HB1   27   2.617   2.855   4.450
    3ASP    HB2   28   2.472   2.787   4.395
    3ASP     CG   29   2.512   2.730   4.595
    3ASP    OD1   30   2.460   2.760   4.704
    3ASP    OD2   31   2.568   2.622   4.565
    3ASP      C   32   2.444   3.050   4.377
    3ASP      O   33   2.388   3.008   4.273
    4GLY      N   34   2.497   3.173   4.389
    4GLY     HN   35   2.509   3.211   4.481
    4GLY     CA   36   2.521   3.262   4.283
    4GLY    HA1   37   2.602   3.327   4.313
    4GLY    HA2   38   2.432   3.323   4.272
    4GLY      C   39   2.554   3.226   4.144
    4GLY      O   40   2.617   3.123   4.121
    5PRO      N   41   2.530   3.306   4.042
    5PRO     CD   42   2.492   3.450   4.063
    5PRO    HD1   43   2.554   3.508   4.135
    5PRO    HD2   44   2.387   3.449   4.099
    5PRO     CA   45   2.552   3.271   3.899
    5PRO     HA   46   2.505   3.175   3.881
    5PRO     CB   47   2.477   3.391   3.835
    5PRO    HB1   48   2.368   3.373   3.837
    5PRO    HB2   49   2.507   3.398   3.728
    5PRO     CG   50   2.516   3.510   3.921
    5PRO    HG1   51   2.624   3.531   3.902
    5PRO    HG2   52   2.454   3.600   3.901
    5PRO      C   53   2.701   3.272   3.863
    5PRO      O   54   2.778   3.341   3.934
    6GLY      N   55   2.733   3.195   3.757
    6GLY     HN   56   2.670   3.139   3.704
    6GLY     CA   57   2.863   3.184   3.702
    6GLY    HA1   58   2.852   3.121   3.614
    6GLY    HA2   59   2.922   3.137   3.779
    6GLY      C   60   2.931   3.308   3.662
    6GLY      O   61   2.872   3.414   3.648
    7ASP      N   62   3.063   3.306   3.644
    7ASP     HN   63   3.111   3.225   3.677
    7ASP     CA   64   3.138   3.430   3.629
    7ASP     HA   65   3.086   3.513   3.675
    7ASP     CB   66   3.274   3.427   3.697
    7ASP    HB1   67   3.331   3.521   3.685
    7ASP    HB2   68   3.332   3.342   3.653
    7ASP     CG   69   3.261   3.407   3.848
    7ASP    OD1   70   3.218   3.509   3.913
    7ASP    OD2   71   3.301   3.300   3.910
    7ASP      C   72   3.152   3.464   3.481
    7ASP      O   73   3.134   3.374   3.398
    8PRO      N   74   3.174   3.597   3.445
    8PRO     CD   75   3.146   3.720   3.520
    8PRO    HD1   76   3.217   3.733   3.604
    8PRO    HD2   77   3.040   3.717   3.554
    8PRO     CA   78   3.195   3.625   3.302
    8PRO     HA   79   3.101   3.604   3.252
    8PRO     CB   80   3.233   3.775   3.295
    8PRO    HB1   81   3.209   3.828   3.200
    8PRO    HB2   82   3.343   3.784   3.304
    8PRO     CG   83   3.158   3.835   3.415
    8PRO    HG1   84   3.203   3.926   3.460
    8PRO    HG2   85   3.057   3.868   3.382
    8PRO      C   86   3.293   3.535   3.223
    8PRO      O   87   3.407   3.514   3.270
    9GLY      N   88   3.248   3.482   3.102
    9GLY     HN   89   3.161   3.516   3.068
    9GLY     CA   90   3.337   3.388   3.029
    9GLY    HA1   91   3.269   3.341   2.960
    9GLY    HA2   92   3.381   3.323   3.103
    9GLY      C   93   3.454   3.451   2.951
    9GLY      O   94   3.523   3.546   2.987
   10ASP      N   95   3.488   3.390   2.837
   10ASP     HN   96   3.443   3.311   2.798
   10ASP     CA   97   3.592   3.428   2.739
   10ASP     HA   98   3.692   3.422   2.780
   10ASP     CB   99   3.601   3.331   2.621
   10ASP    HB1  100   3.677   3.381   2.558
   10ASP    HB2  101   3.505   3.326   2.566
   10ASP     CG  102   3.659   3.200   2.664
   10ASP    OD1  103   3.608   3.094   2.611
   10ASP    OD2  104   3.757   3.200   2.739
   10ASP      C  105   3.568   3.569   2.678
   10ASP      O  106   3.451   3.598   2.650
   11GLY      N  107   3.669   3.655   2.652
   11GLY     HN  108   3.766   3.637   2.668
   11GLY     CA  109   3.654   3.791   2.597
   11GLY    HA1  110   3.737   3.851   2.632
   11GLY    HA2  111   3.563   3.837   2.634
   11GLY      C  112   3.660   3.790   2.446
   11GLY    OT1  113   3.566   3.848   2.385
   11GLY    OT2  114   3.753   3.730   2.388
   12SOD    SOD  115   5.139   0.919   2.105
   13SOD    SOD  116   6.739   2.383   0.941
   14SOD    SOD  117   2.572   0.185   1.748
   15SOD    SOD  118   4.884   6.667   3.301
   16SOD    SOD  119   4.127   2.035   2.488
   17SOD    SOD  120   4.822   5.822   0.264
   18SOD    SOD  121   6.363   1.955   0.920
   19SOD    SOD  122   5.385   0.338   4.075
   20SOD    SOD  123   5.930   2.136   4.181
   21SOD    SOD  124   6.273   1.457   0.087
   22SOD    SOD  125   6.395   1.641   5.750
   23SOD    SOD  126   3.706   2.783   1.888
   24SOD    SOD  127   1.682   0.315   4.374
   25SOD    SOD  128   2.834   4.772   0.654
   26SOD    SOD  129   3.886   5.220   3.965
   27SOD    SOD  130   4.710   2.642   3.997
   28SOD    SOD  131   6.187   3.181   3.237
   29SOD    SOD  132   0.856   2.322   2.706
   30SOD    SOD  133   3.193   0.342   3.120
   31SOD    SOD  134   5.060   0.228   3.818
   32SOD    SOD  135   3.683   4.342   2.924
   33SOD    SOD  136   1.486   3.947   2.722
   34SOD    SOD  137   0.633   0.342   2.148
   35SOD    SOD  138   3.948   3.125   2.317
   36SOD    SOD  139   6.507   3.319   3.954
   37SOD    SOD  140   4.508   5.237   0.906
   38SOD    SOD  141   1.589   5.781   3.515
   39SOD    SOD  142   0.020   4.905   4.177
   40SOD    SOD  143   3.737   0.276   0.386
   41SOD    SOD  144   0.078   3.465   0.735
   42SOD    SOD  145   5.339   4.574   5.142
   43CLA    CLA  146   2.088   5.054   3.503
   44CLA    CLA  147   4.393   0.234   3.648
   45CLA    CLA  148   2.515   4.330   0.657
   46CLA    CLA  149   6.539   4.830   4.713
   47CLA    CLA  150   0.626   5.583   0.585
   48CLA    CLA  151   2.486   6.524   2.230
   49CLA    CLA  152   6.490   3.192   5.392
   50CLA    CLA  153   6.733   0.542   4.805
   51CLA    CLA  154   0.109   5.294   3.344
   52CLA    CLA  155   0.687   2.264   2.028
   53CLA    CLA  156   0.647   3.882   1.224
   54CLA    CLA  157   5.545   5.305   4.717
   55CLA    CLA  158   5.466   6.380   2.688
   56CLA    CLA  159   1.518   1.237   0.523
   57CLA    CLA  160   2.414   5.493   2.906
   58CLA    CLA  161   4.447   2.933   3.826
   59CLA    CLA  162   0.025   3.315   2.159
   60CLA    CLA  163   1.851   1.083   5.729
   61CLA    CLA  164   2.788   0.868   5.459
   62CLA    CLA  165   5.326   3.236   2.774
   63CLA    CLA  166   7.087   3.876   4.382
   64CLA    CLA  167   4.231   5.590   0.218
   65CLA    CLA  168   4.196   1.070   1.894
   66CLA    CLA  169   7.056   5.374   2.082
   67CLA    CLA  170   2.169   2.097   3.073
   68CLA    CLA  171   4.102   0.416   0.699
   69CLA    CLA  172   6.099   1.792   3.907
   70TIP3   OH2  173   1.949   1.355   0.350
   70TIP3    H1  174   1.951   1.341   0.444
   70TIP3    H2  175   1.910   1.275   0.314
   71TIP3   OH2  176   0.641   4.456   0.823
   71TIP3    H1  177   0.587   4.534   0.826
   71TIP3    H2  178   0.661   4.444   0.730
   72TIP3   OH2  179   3.824   4.404   4.964
   72TIP3    H1  180   3.905   4.427   5.008
   72TIP3    H2  181   3.764   4.380   5.035
   73TIP3   OH2  182   3.221   3.691   0.289
   73TIP3    H1  183   3.143   3.728   0.331
   73TIP3    H2  184   3.270   3.651   0.360
   74TIP3   OH2  185   2.685   5.007   3.092
   74TIP3    H1  186   2.591   4.997   3.110
   74TIP3    H2  187   2.702   5.100   3.106
   75TIP3   OH2  188   0.675   6.334   2.880
   75TIP3    H1  189   0.596   6.328   2.933
   75TIP3    H2  190   0.743   6.364   2.941
   76TIP3   OH2  191   4.511   5.578   0.623
   76TIP3    H1  192   4.456   5.545   0.552
   76TIP3    H2  193   4.482   5.668   0.636
   77TIP3   OH2  194   2.643   0.358   0.312
   77TIP3    H1  195   2.697   0.384   0.237
   77TIP3    H2  196   2.602   0.439   0.341
   78TIP3   OH2  197   3.065   1.663   0.602
   78TIP3    H1  198   3.140   1.603   0.602
   78TIP3    H2  199   3.099   1.742   0.561
   79TIP3   OH2  200   5.250   2.290   5.796
   79TIP3    H1  201   5.297   2.292   5.712
   79TIP3    H2  202   5.308   2.333   5.858
   80TIP3   OH2  203   1.116   2.619   3.271
   80TIP3    H1  204   1.104   2.710   3.296
   80TIP3    H2  205   1.030   2.591   3.238
   81TIP3   OH2  206   0.870   1.051   0.985
   81TIP3    H1  207   0.943   1.075   0.927
   81TIP3    H2  208   0.909   0.991   1.049
   82TIP3   OH2  209   0.933   4.165   3.523
   82TIP3    H1  210   0.927   4.070   3.538
   82TIP3    H2  211   0.976   4.172   3.438
   83TIP3   OH2  212   6.299   0.796   0.239
   83TIP3    H1  213   6.336   0.732   0.179
   83TIP3    H2  214   6.375   0.844   0.272
   84TIP3   OH2  215   1.160   4.685   5.770
   84TIP3    H1  216   1.137   4.707   5.680
   84TIP3    H2  217   1.208   4.602   5.763
   85TIP3   OH2  218   3.946   4.753   2.144
   85TIP3    H1  219   3.860   4.744   2.185
   85TIP3    H2  220   3.975   4.662   2.131
   86TIP3   OH2  221   3.180   5.274   0.336
   86TIP3    H1  222   3.144   5.188   0.359
   86TIP3    H2  223   3.205   5.266   0.244
   87TIP3   OH2  224   3.728   2.335   1.877
   87TIP3    H1  225   3.663   2.277   1.836
   87TIP3    H2  226   3.694   2.351   1.965
   88TIP3   OH2  227   6.991   1.193   3.618
   88TIP3    H1  228   7.047   1.267   3.595
   88TIP3    H2  229   6.939   1.224   3.692
   89TIP3   OH2  230   3.561   5.335   5.116
   89TIP3    H1  231   3.520   5.317   5.200
   89TIP3    H2  232   3.586   5.248   5.083
   90TIP3   OH2  233   1.398   2.817   2.534
   90TIP3    H1  234   1.405   2.896   2.588
   90TIP3    H2  235   1.340   2.759   2.583
   91TIP3   OH2  236   4.994   6.509   1.225
   91TIP3    H1  237   4.962   6.598   1.243
   91TIP3    H2  238   4.985   6.498   1.131
   92TIP3   OH2  239   5.985   5.492   4.782
   92TIP3    H1  240   5.949   5.418   4.733
   92TIP3    H2  241   6.054   5.527   4.726
   93TIP3   OH2  242   0.874   1.102   0.570
   93TIP3    H1  243   0.841   1.047   0.641
   93TIP3    H2  244   0.964   1.071   0.556
   94TIP3   OH2  245   5.277   0.194   3.165
   94TIP3    H1  246   5.239   0.139   3.096
   94TIP3    H2  247   5.363   0.156   3.181
   95TIP3   OH2  248   7.048   4.875   3.615
   95TIP3    H1  249   7.046   4.804   3.550
   95TIP3    H2  250   7.116   4.934   3.583
   96TIP3   OH2  251   1.444   5.054   0.700
   96TIP3    H1  252   1.507   5.046   0.628
   96TIP3    H2  253   1.359   5.038   0.659
   97TIP3   OH2  254   7.072   1.447   1.585
   97TIP3    H1  255   7.081   1.525   1.640
   97TIP3    H2  256   7.025   1.384   1.640
   98TIP3   OH2  257   4.583   3.603   3.141
   98TIP3    H1  258   4.522   3.673   3.118
   98TIP3    H2  259   4.557   3.575   3.228
   99TIP3   OH2  260   4.914   0.853   2.159
   99TIP3    H1  261   4.871   0.906   2.227
   99TIP3    H2  262   4.851   0.849   2.087
  100TIP3   OH2  263   1.447   0.670   0.846
  100TIP3    H1  264   1.483   0.584   0.824
  100TIP3    H2  265   1.522   0.730   0.841
  101TIP3   OH2  266   0.218   3.010   0.538
  101TIP3    H1  267   0.309   3.020   0.511
  101TIP3    H2  268   0.168   3.057   0.472
  102TIP3   OH2  269   0.517   5.748   0.850
  102TIP3    H1  270   0.546   5.702   0.928
  102TIP3    H2  271   0.545   5.692   0.777
  103TIP3   OH2  272   5.329   3.639   5.684
  103TIP3    H1  273   5.400   3.598   5.734
  103TIP3    H2  274   5.363   3.725   5.660
  104TIP3   OH2  275   4.241   4.771   0.836
  104TIP3    H1  276   4.222   4.863   0.853
  104TIP3    H2  277   4.161   4.725   0.862
  105TIP3   OH2  278   5.649   0.119   1.779
  105TIP3    H1  279   5.677   0.193   1.832
  105TIP3    H2  280   5.647   0.045   1.840
  106TIP3   OH2  281   3.698   5.426   0.298
  106TIP3    H1  282   3.706   5.462   0.387
  106TIP3    H2  283   3.632   5.481   0.256
  107TIP3   OH2  284   1.044   6.248   3.742
  107TIP3    H1  285   0.986   6.210   3.809
  107TIP3    H2  286   1.116   6.186   3.735
  108TIP3   OH2  287   1.837   0.479   2.155
  108TIP3    H1  288   1.891   0.404   2.180
  108TIP3    H2  289   1.901   0.545   2.126
  109TIP3   OH2  290   0.824   2.351   1.766
  109TIP3    H1  291   0.868   2.413   1.824
  109TIP3    H2  292   0.757   2.310   1.821
  110TIP3   OH2  293   2.537   2.332   0.571
  110TIP3    H1  294   2.598   2.401   0.598
  110TIP3    H2  295   2.564   2.255   0.622
  111TIP3   OH2  296   2.504   2.125   1.977
  111TIP3    H1  297   2.502   2.136   1.882
  111TIP3    H2  298   2.556   2.199   2.009
  112TIP3   OH2  299   6.606   2.204   1.028
  112TIP3    H1  300   6.640   2.156   1.104
  112TIP3    H2  301   6.511   2.192   1.033
  113TIP3   OH2  302   5.629   4.442   0.269
  113TIP3    H1  303   5.604   4.392   0.191
  113TIP3    H2  304   5.724   4.452   0.261
  114TIP3   OH2  305   5.083   5.272   1.244
  114TIP3    H1  306   5.060   5.358   1.278
  114TIP3    H2  307   5.019   5.256   1.174
  115TIP3   OH2  308   6.984   3.397   3.782
  115TIP3    H1  309   7.053   3.351   3.734
  115TIP3    H2  310   7.030   3.462   3.834
  116TIP3   OH2  311   3.722   1.231   2.275
  116TIP3    H1  312   3.681   1.292   2.337
  116TIP3    H2  313   3.754   1.286   2.204
  117TIP3   OH2  314   0.634   4.049   5.143
  117TIP3    H1  315   0.692   4.125   5.151
  117TIP3    H2  316   0.605   4.032   5.233
  118TIP3   OH2  317   0.292   6.417   3.272
  118TIP3    H1  318   0.261   6.457   3.190
  118TIP3    H2  319   0.231   6.345   3.288
  119TIP3   OH2  320   3.542   0.387   0.760
  119TIP3    H1  321   3.583   0.470   0.734
  119TIP3    H2  322   3.499   0.407   0.843
  120TIP3   OH2  323   3.722   2.366   3.701
  120TIP3    H1  324   3.802   2.338   3.657
  120TIP3    H2  325   3.741   2.454   3.732
  121TIP3   OH2  326   5.650   4.596   0.635
  121TIP3    H1  327   5.559   4.621   0.617
  121TIP3    H2  328   5.645   4.502   0.654
  122TIP3   OH2  329   0.336   6.028   4.363
  122TIP3    H1  330   0.339   6.095   4.432
  122TIP3    H2  331   0.365   5.948   4.406
  123TIP3   OH2  332   5.481   5.889   0.257
  123TIP3    H1  333   5.513   5.966   0.210
  123TIP3    H2  334   5.396   5.870   0.216
  124TIP3   OH2  335   6.476   0.588   1.170
  124TIP3    H1  336   6.409   0.584   1.238
  124TIP3    H2  337   6.451   0.663   1.116
  125TIP3   OH2  338   5.489   3.129   3.563
  125TIP3    H1  339   5.525   3.177   3.488
  125TIP3    H2  340   5.402   3.166   3.575
  126TIP3   OH2  341   2.948   5.912   1.004
  126TIP3    H1  342   2.919   5.821   1.007
  126TIP3    H2  343   2.907   5.953   1.080
  127TIP3   OH2  344   3.350   3.048   3.334
  127TIP3    H1  345   3.369   3.053   3.427
  127TIP3    H2  346   3.376   2.959   3.309
  128TIP3   OH2  347   1.146   5.056   5.111
  128TIP3    H1  348   1.119   5.095   5.028
  128TIP3    H2  349   1.066   5.021   5.148
  129TIP3   OH2  350   3.397   0.970   1.064
  129TIP3    H1  351   3.444   0.917   0.999
  129TIP3    H2  352   3.429   1.059   1.050
  130TIP3   OH2  353   6.385   3.172   1.917
  130TIP3    H1  354   6.313   3.225   1.884
  130TIP3    H2  355   6.449   3.236   1.950
  131TIP3   OH2  356   6.479   4.328   1.889
  131TIP3    H1  357   6.476   4.342   1.983
  131TIP3    H2  358   6.398   4.367   1.857
  132TIP3   OH2  359   3.758   2.530   0.145
  132TIP3    H1  360   3.669   2.561   0.162
  132TIP3    H2  361   3.782   2.569   0.061
  133TIP3   OH2  362   2.128   1.607   3.233
  133TIP3    H1  363   2.206   1.574   3.189
  133TIP3    H2  364   2.156   1.690   3.272
  134TIP3   OH2  365   5.988   5.524   3.329
  134TIP3    H1  366   5.988   5.519   3.424
  134TIP3    H2  367   5.942   5.606   3.309
  135TIP3   OH2  368   3.825   4.703   5.876
  135TIP3    H1  369   3.872   4.723   5.957
  135TIP3    H2  370   3.863   4.620   5.847
  136TIP3   OH2  371   1.065   4.451   2.764
  136TIP3    H1  372   0.987   4.447   2.819
  136TIP3    H2  373   1.135   4.415   2.820
  137TIP3   OH2  374   0.071   3.126   3.791
  137TIP3    H1  375   0.045   3.060   3.854
  137TIP3    H2  376   0.160   3.101   3.766
  138TIP3   OH2  377   2.321   1.155   0.337
  138TIP3    H1  378   2.241   1.184   0.293
  138TIP3    H2  379   2.341   1.070   0.298
  139TIP3   OH2  380   2.579   0.873   4.080
  139TIP3    H1  381   2.668   0.880   4.045
  139TIP3    H2  382   2.577   0.788   4.123
  140TIP3   OH2  383   3.662   1.781   2.782
  140TIP3    H1  384   3.669   1.876   2.794
  140TIP3    H2  385   3.572   1.760   2.808
  141TIP3   OH2  386   2.179   3.315   3.067
  141TIP3    H1  387   2.254   3.324   3.009
  141TIP3    H2  388   2.211   3.344   3.153
  142TIP3   OH2  389   5.178   2.514   5.446
  142TIP3    H1  390   5.097   2.473   5.416
  142TIP3    H2  391   5.153   2.563   5.524
  143TIP3   OH2  392   1.536   3.637   4.021
  143TIP3    H1  393   1.448   3.607   4.044
  143TIP3    H2  394   1.529   3.732   4.018
  144TIP3   OH2  395   1.589   4.909   1.515
  144TIP3    H1  396   1.684   4.909   1.504
  144TIP3    H2  397   1.570   4.834   1.571
  145TIP3   OH2  398   7.052   6.755   5.099
  145TIP3    H1  399   7.141   6.733   5.126
  145TIP3    H2  400   7.053   6.851   5.088
  146TIP3   OH2  401   2.199   3.681   4.862
  146TIP3    H1  402   2.207   3.674   4.957
  146TIP3    H2  403   2.108   3.705   4.847
  147TIP3   OH2  404   4.172   4.033   2.742
  147TIP3    H1  405   4.267   4.046   2.744
  147TIP3    H2  406   4.153   3.987   2.824
  148TIP3   OH2  407   1.500   3.683   2.296
  148TIP3    H1  408   1.474   3.602   2.252
  148TIP3    H2  409   1.581   3.709   2.253
  149TIP3   OH2  410   5.628   1.002   2.464
  149TIP3    H1  411   5.586   0.926   2.423
  149TIP3    H2  412   5.715   1.006   2.424
  150TIP3   OH2  413   4.588   0.450   0.342
  150TIP3    H1  414   4.517   0.462   0.405
  150TIP3    H2  415   4.553   0.388   0.278
  151TIP3   OH2  416   2.408   0.856   0.983
  151TIP3    H1  417   2.492   0.840   1.026
  151TIP3    H2  418   2.395   0.780   0.927
  152TIP3   OH2  419   6.205   0.817   4.421
  152TIP3    H1  420   6.272   0.884   4.433
  152TIP3    H2  421   6.223   0.752   4.488
  153TIP3   OH2  422   6.836   3.584   3.557
  153TIP3    H1  423   6.840   3.675   3.528
  153TIP3    H2  424   6.899   3.579   3.629
  154TIP3   OH2  425   6.403   5.205   4.882
  154TIP3    H1  426   6.449   5.271   4.830
  154TIP3    H2  427   6.325   5.250   4.914
  155TIP3   OH2  428   1.179   2.119   1.349
  155TIP3    H1  429   1.203   2.063   1.275
  155TIP3    H2  430   1.090   2.147   1.329
  156TIP3   OH2  431   2.878   4.026   2.603
  156TIP3    H1  432   2.820   4.083   2.553
  156TIP3    H2  433   2.961   4.027   2.554
  157TIP3   OH2  434   5.096   1.937   4.451
  157TIP3    H1  435   5.182   1.901   4.429
  157TIP3    H2  436   5.086   1.920   4.545
  158TIP3   OH2  437   3.884   5.846   1.222
  158TIP3    H1  438   3.945   5.813   1.288
  158TIP3    H2  439   3.936   5.910   1.172
  159TIP3   OH2  440   3.195   1.282   4.710
  159TIP3    H1  441   3.121   1.222   4.719
  159TIP3    H2  442   3.224   1.273   4.619
  160TIP3   OH2  443   6.663   4.890   0.334
  160TIP3    H1  444   6.758   4.895   0.344
  160TIP3    H2  445   6.634   4.830   0.403
  161TIP3   OH2  446   3.386   1.024   3.367
  161TIP3    H1  447   3.415   0.938   3.338
  161TIP3    H2  448   3.301   1.036   3.326
  162TIP3   OH2  449   1.181   1.139   5.589
  162TIP3    H1  450   1.224   1.225   5.587
  162TIP3    H2  451   1.157   1.126   5.680
  163TIP3   OH2  452   2.804   4.211   0.641
  163TIP3    H1  453   2.822   4.154   0.567
  163TIP3    H2  454   2.712   4.235   0.631
  164TIP3   OH2  455   1.863   6.019   2.241
  164TIP3    H1  456   1.952   6.028   2.206
  164TIP3    H2  457   1.875   6.007   2.335
  165TIP3   OH2  458   2.897   5.411   1.364
  165TIP3    H1  459   2.986   5.376   1.371
  165TIP3    H2  460   2.851   5.346   1.312
  166TIP3   OH2  461   6.432   4.629   3.091
  166TIP3    H1  462   6.389   4.632   3.176
  166TIP3    H2  463   6.425   4.537   3.064
  167TIP3   OH2  464   1.235   1.277   3.339
  167TIP3    H1  465   1.329   1.274   3.358
  167TIP3    H2  466   1.206   1.186   3.345
  168TIP3   OH2  467   4.857   3.316   0.772
  168TIP3    H1  468   4.794   3.262   0.724
  168TIP3    H2  469   4.904   3.255   0.829
  169TIP3   OH2  470   5.072   4.894   2.006
  169TIP3    H1  471   5.034   4.861   1.925
  169TIP3    H2  472   5.149   4.943   1.978
  170TIP3   OH2  473   4.083   0.614   5.439
  170TIP3    H1  474   4.033   0.677   5.491
  170TIP3    H2  475   4.123   0.556   5.504
  171TIP3   OH2  476   1.229   1.291   3.071
  171TIP3    H1  477   1.312   1.334   3.050
  171TIP3    H2  478   1.212   1.314   3.162
  172TIP3   OH2  479   0.988   3.137   5.515
  172TIP3    H1  480   0.942   3.060   5.547
  172TIP3    H2  481   1.043   3.165   5.588
  173TIP3   OH2  482   3.328   2.165   5.447
  173TIP3    H1  483   3.421   2.185   5.461
  173TIP3    H2  484   3.297   2.135   5.533
  174TIP3   OH2  485   6.520   4.996   5.550
  174TIP3    H1  486   6.544   5.011   5.459
  174TIP3    H2  487   6.428   5.021   5.556
  175TIP3   OH2  488   4.097   0.611   1.188
  175TIP3    H1  489   4.088   0.553   1.112
  175TIP3    H2  490   4.099   0.699   1.150
  176TIP3   OH2  491   2.632   0.907   1.372
  176TIP3    H1  492   2.599   0.851   1.302
  176TIP3    H2  493   2.665   0.985   1.327
  177TIP3   OH2  494   5.953   1.579   3.150
  177TIP3    H1  495   5.898   1.592   3.073
  177TIP3    H2  496   5.913   1.632   3.218
  178TIP3   OH2  497   6.157   3.809   4.929
  178TIP3    H1  498   6.146   3.903   4.914
  178TIP3    H2  499   6.239   3.788   4.882
  179TIP3   OH2  500   6.967   1.698   3.507
  179TIP3    H1  501   7.018   1.775   3.482
  179TIP3    H2  502   6.954   1.650   3.425
  180TIP3   OH2  503   0.810   6.412   5.801
  180TIP3    H1  504   0.767   6.328   5.818
  180TIP3    H2  505   0.847   6.403   5.713
  181TIP3   OH2  506   6.841   3.083   1.000
  181TIP3    H1  507   6.931   3.062   0.976
  181TIP3    H2  508   6.835   3.062   1.094
  182TIP3   OH2  509   6.564   0.103   0.876
  182TIP3    H1  510   6.468   0.095   0.880
  182TIP3    H2  511   6.580   0.192   0.847
  183TIP3   OH2  512   4.226   0.515   2.441
  183TIP3    H1  513   4.322   0.521   2.441
  183TIP3    H2  514   4.197   0.601   2.469
  184TIP3   OH2  515   1.687   6.059   3.207
  184TIP3    H1  516   1.665   6.107   3.127
  184TIP3    H2  517   1.717   6.127   3.268
  185TIP3   OH2  518   1.019   3.549   2.540
  185TIP3    H1  519   1.085   3.495   2.583
  185TIP3    H2  520   0.944   3.490   2.528
  186TIP3   OH2  521   0.855   4.847   1.138
  186TIP3    H1  522   0.789   4.898   1.184
  186TIP3    H2  523   0.833   4.857   1.045
  187TIP3   OH2  524   6.014   2.819   2.062
  187TIP3    H1  525   5.990   2.796   1.972
  187TIP3    H2  526   6.107   2.797   2.068
  188TIP3   OH2  527   1.309   4.987   5.762
  188TIP3    H1  528   1.285   5.041   5.688
  188TIP3    H2  529   1.390   4.943   5.734
  189TIP3   OH2  530   6.133   2.747   2.627
  189TIP3    H1  531   6.110   2.805   2.699
  189TIP3    H2  532   6.205   2.694   2.660
  190TIP3   OH2  533   5.137   5.181   2.737
  190TIP3    H1  534   5.226   5.212   2.753
  190TIP3    H2  535   5.132   5.098   2.784
  191TIP3   OH2  536   2.178   5.716   1.077
  191TIP3    H1  537   2.147   5.735   0.988
  191TIP3    H2  538   2.230   5.637   1.068
  192TIP3   OH2  539   5.848   4.062   1.446
  192TIP3    H1  540   5.782   4.069   1.515
  192TIP3    H2  541   5.886   3.975   1.457
  193TIP3   OH2  542   0.983   2.073   3.708
  193TIP3    H1  543   1.018   2.000   3.657
  193TIP3    H2  544   1.057   2.132   3.720
  194TIP3   OH2  545   4.019   4.795   4.392
  194TIP3    H1  546   3.999   4.736   4.464
  194TIP3    H2  547   4.089   4.751   4.344
  195TIP3   OH2  548   2.848  -0.006   0.146
  195TIP3    H1  549   2.813   0.021   0.231
  195TIP3    H2  550   2.803   0.050   0.082
  196TIP3   OH2  551   4.061   5.168   3.149
  196TIP3    H1  552   4.074   5.246   3.095
  196TIP3    H2  553   4.060   5.201   3.239
  197TIP3   OH2  554   2.794   0.137   0.411
  197TIP3    H1  555   2.794   0.214   0.354
  197TIP3    H2  556   2.746   0.165   0.489
  198TIP3   OH2  557   0.317   5.969   2.436
  198TIP3    H1  558   0.380   5.945   2.367
  198TIP3    H2  559   0.360   5.943   2.517
  199TIP3   OH2  560   3.582   0.654   1.656
  199TIP3    H1  561   3.648   0.587   1.635
  199TIP3    H2  562   3.594   0.671   1.749
  200TIP3   OH2  563   6.597   6.024   3.687
  200TIP3    H1  564   6.533   6.057   3.624
  200TIP3    H2  565   6.565   5.937   3.711
  201TIP3   OH2  566   5.658   3.932   3.401
  201TIP3    H1  567   5.621   3.846   3.424
  201TIP3    H2  568   5.742   3.911   3.360
  202TIP3   OH2  569   3.700   0.424   2.532
  202TIP3    H1  570   3.619   0.473   2.546
  202TIP3    H2  571   3.769   0.490   2.536
  203TIP3   OH2  572   2.279   5.928   4.135
  203TIP3    H1  573   2.331   6.002   4.167
  203TIP3    H2  574   2.223   5.904   4.209
  204TIP3   OH2  575   2.166   2.436   4.334
  204TIP3    H1  576   2.248   2.451   4.287
  204TIP3    H2  577   2.113   2.385   4.272
  205TIP3   OH2  578   4.053   5.991   0.210
  205TIP3    H1  579   4.109   5.929   0.165
  205TIP3    H2  580   4.002   6.033   0.141
  206TIP3   OH2  581   3.690   0.304   1.331
  206TIP3    H1  582   3.751   0.238   1.364
  206TIP3    H2  583   3.612   0.254   1.305
  207TIP3   OH2  584   0.995   5.219   4.116
  207TIP3    H1  585   0.950   5.215   4.032
  207TIP3    H2  586   1.084   5.248   4.094
  208TIP3   OH2  587   2.425   0.384   3.744
  208TIP3    H1  588   2.386   0.468   3.768
  208TIP3    H2  589   2.379   0.320   3.798
  209TIP3   OH2  590   2.415   3.275   2.912
  209TIP3    H1  591   2.449   3.361   2.887
  209TIP3    H2  592   2.437   3.266   3.004
  210TIP3   OH2  593   6.123   6.044   5.017
  210TIP3    H1  594   6.063   6.065   4.946
  210TIP3    H2  595   6.169   5.966   4.987
  211TIP3   OH2  596   5.011   2.366   5.852
  211TIP3    H1  597   4.999   2.420   5.774
  211TIP3    H2  598   5.100   2.333   5.845
  212TIP3   OH2  599   2.525   5.005   4.769
  212TIP3    H1  600   2.439   4.973   4.744
  212TIP3    H2  601   2.577   4.998   4.689
  213TIP3   OH2  602   5.375   0.448   1.359
  213TIP3    H1  603   5.296   0.490   1.324
  213TIP3    H2  604   5.351   0.356   1.369
  214TIP3   OH2  605   3.208   1.198   1.723
  214TIP3    H1  606   3.168   1.152   1.649
  214TIP3    H2  607   3.166   1.284   1.723
  215TIP3   OH2  608   2.102   3.121   1.723
  215TIP3    H1  609   2.018   3.075   1.719
  215TIP3    H2  610   2.101   3.179   1.647
  216TIP3   OH2  611   0.845   4.482   0.510
  216TIP3    H1  612   0.796   4.425   0.450
  216TIP3    H2  613   0.912   4.425   0.548
  217TIP3   OH2  614   2.508   0.552   0.622
  217TIP3    H1  615   2.568   0.486   0.587
  217TIP3    H2  616   2.440   0.560   0.554
  218TIP3   OH2  617   3.048   5.874   0.711
  218TIP3    H1  618   3.085   5.927   0.641
  218TIP3    H2  619   3.049   5.931   0.788
  219TIP3   OH2  620   5.130   6.324   2.666
  219TIP3    H1  621   5.222   6.348   2.658
  219TIP3    H2  622   5.128   6.258   2.735
  220TIP3   OH2  623   6.912   4.945   1.223
  220TIP3    H1  624   6.958   5.000   1.286
  220TIP3    H2  625   6.980   4.890   1.184
  221TIP3   OH2  626   0.118   5.808   5.194
  221TIP3    H1  627   0.186   5.868   5.223
  221TIP3    H2  628   0.161   5.722   5.194
  222TIP3   OH2  629   4.939   1.861   2.815
  222TIP3    H1  630   4.978   1.870   2.729
  222TIP3    H2  631   4.910   1.770   2.818
  223TIP3   OH2  632   0.322   1.390   0.824
  223TIP3    H1  633   0.266   1.396   0.901
  223TIP3    H2  634   0.274   1.436   0.756
  224TIP3   OH2  635   6.200   1.671   1.689
  224TIP3    H1  636   6.112   1.701   1.713
  224TIP3    H2  637   6.246   1.752   1.664
  225TIP3   OH2  638   7.079   3.595   0.729
  225TIP3    H1  639   7.127   3.678   0.740
  225TIP3    H2  640   7.029   3.607   0.648
  226TIP3   OH2  641   3.909   2.681   3.377
  226TIP3    H1  642   3.817   2.681   3.402
  226TIP3    H2  643   3.908   2.667   3.282
  227TIP3   OH2  644   3.332   2.684   4.778
  227TIP3    H1  645   3.292   2.644   4.700
  227TIP3    H2  646   3.412   2.724   4.746
  228TIP3   OH2  647   4.029   4.508   3.974
  228TIP3    H1  648   3.984   4.507   3.890
  228TIP3    H2  649   4.088   4.583   3.968
  229TIP3   OH2  650   5.882   1.532   5.244
  229TIP3    H1  651   5.828   1.568   5.315
  229TIP3    H2  652   5.831   1.459   5.209
  230TIP3   OH2  653   0.927   4.015   0.172
  230TIP3    H1  654   0.906   3.924   0.150
  230TIP3    H2  655   1.023   4.020   0.164
  231TIP3   OH2  656   4.423   1.875   3.832
  231TIP3    H1  657   4.437   1.948   3.770
  231TIP3    H2  658   4.467   1.801   3.791
  232TIP3   OH2  659   1.783   2.490   4.281
  232TIP3    H1  660   1.784   2.569   4.335
  232TIP3    H2  661   1.875   2.471   4.265
  233TIP3   OH2  662   0.297   6.037   5.243
  233TIP3    H1  663   0.304   6.067   5.153
  233TIP3    H2  664   0.327   6.111   5.296
  234TIP3   OH2  665   5.632   4.596   1.568
  234TIP3    H1  666   5.601   4.597   1.477
  234TIP3    H2  667   5.570   4.539   1.614
  235TIP3   OH2  668   3.323   3.288   0.303
  235TIP3    H1  669   3.247   3.341   0.330
  235TIP3    H2  670   3.328   3.219   0.369
  236TIP3   OH2  671   6.608   1.793   4.580
  236TIP3    H1  672   6.523   1.818   4.543
  236TIP3    H2  673   6.664   1.869   4.563
  237TIP3   OH2  674   7.031   4.116   3.409
  237TIP3    H1  675   6.986   4.084   3.331
  237TIP3    H2  676   7.004   4.207   3.417
  238TIP3   OH2  677   0.142   0.037   3.578
  238TIP3    H1  678   0.130   0.029   3.672
  238TIP3    H2  679   0.167  -0.051   3.549
  239TIP3   OH2  680   4.859   3.798   1.885
  239TIP3    H1  681   4.780   3.793   1.939
  239TIP3    H2  682   4.830   3.770   1.798
  240TIP3   OH2  683   4.054   6.029   1.086
  240TIP3    H1  684   4.111   6.038   1.009
  240TIP3    H2  685   3.979   6.085   1.067
  241TIP3   OH2  686   4.723   0.591   5.706
  241TIP3    H1  687   4.740   0.503   5.740
  241TIP3    H2  688   4.810   0.627   5.689
  242TIP3   OH2  689   0.986   0.177   2.609
  242TIP3    H1  690   0.944   0.107   2.660
  242TIP3    H2  691   0.992   0.250   2.670
  243TIP3   OH2  692   3.317   6.830   0.365
  243TIP3    H1  693   3.343   6.742   0.339
  243TIP3    H2  694   3.390   6.862   0.418
  244TIP3   OH2  695   5.008   6.448   5.526
  244TIP3    H1  696   5.054   6.458   5.443
  244TIP3    H2  697   5.055   6.378   5.571
  245TIP3   OH2  698   5.617   0.130   3.488
  245TIP3    H1  699   5.648   0.044   3.458
  245TIP3    H2  700   5.658   0.192   3.428
  246TIP3   OH2  701   3.868   4.413   0.335
  246TIP3    H1  702   3.780   4.412   0.296
  246TIP3    H2  703   3.904   4.499   0.312
  247TIP3   OH2  704   1.504   6.650   3.190
  247TIP3    H1  705   1.537   6.563   3.212
  247TIP3    H2  706   1.450   6.675   3.264
  248TIP3   OH2  707   4.019   1.176   0.753
  248TIP3    H1  708   3.981   1.104   0.804
  248TIP3    H2  709   4.031   1.247   0.817
  249TIP3   OH2  710   0.068   3.454   3.329
  249TIP3    H1  711   0.047   3.524   3.267
  249TIP3    H2  712   0.147   3.485   3.374
  250TIP3   OH2  713   6.578   0.720   5.012
  250TIP3    H1  714   6.493   0.707   5.055
  250TIP3    H2  715   6.610   0.632   4.996
  251TIP3   OH2  716   0.096   4.599   4.480
  251TIP3    H1  717   0.157   4.663   4.517
  251TIP3    H2  718   0.081   4.537   4.552
  252TIP3   OH2  719   6.406   4.416   1.185
  252TIP3    H1  720   6.447   4.370   1.111
  252TIP3    H2  721   6.443   4.504   1.181
  253TIP3   OH2  722   1.017   0.707   1.665
  253TIP3    H1  723   1.007   0.615   1.641
  253TIP3    H2  724   1.106   0.729   1.637
  254TIP3   OH2  725   0.850   5.479   1.834
  254TIP3    H1  726   0.816   5.465   1.922
  254TIP3    H2  727   0.774   5.467   1.776
  255TIP3   OH2  728   5.617   0.979   0.197
  255TIP3    H1  729   5.521   0.978   0.197
  255TIP3    H2  730   5.641   0.994   0.105
  256TIP3   OH2  731   3.269   2.560   3.896
  256TIP3    H1  732   3.232   2.644   3.867
  256TIP3    H2  733   3.351   2.584   3.939
  257TIP3   OH2  734   6.008   6.195   2.731
  257TIP3    H1  735   5.996   6.232   2.643
  257TIP3    H2  736   5.933   6.228   2.781
  258TIP3   OH2  737   7.217   3.933   3.084
  258TIP3    H1  738   7.311   3.938   3.101
  258TIP3    H2  739   7.182   4.016   3.117
  259TIP3   OH2  740   3.493   2.421   4.332
  259TIP3    H1  741   3.467   2.497   4.383
  259TIP3    H2  742   3.420   2.405   4.273
  260TIP3   OH2  743   2.505   4.380   1.459
  260TIP3    H1  744   2.423   4.349   1.420
  260TIP3    H2  745   2.490   4.374   1.554
  261TIP3   OH2  746   4.053   2.626   2.273
  261TIP3    H1  747   4.071   2.618   2.180
  261TIP3    H2  748   4.139   2.613   2.315
  262TIP3   OH2  749   0.160   4.619   0.636
  262TIP3    H1  750   0.183   4.711   0.651
  262TIP3    H2  751   0.076   4.608   0.681
  263TIP3   OH2  752   2.132   0.034   2.583
  263TIP3    H1  753   2.186   0.082   2.521
  263TIP3    H2  754   2.067  -0.010   2.528
  264TIP3   OH2  755   6.233   4.024   5.698
  264TIP3    H1  756   6.212   3.999   5.608
  264TIP3    H2  757   6.318   3.984   5.716
  265TIP3   OH2  758   1.063   1.923   3.258
  265TIP3    H1  759   1.133   1.972   3.299
  265TIP3    H2  760   1.023   1.984   3.196
  266TIP3   OH2  761   5.948   3.361   4.390
  266TIP3    H1  762   5.924   3.440   4.439
  266TIP3    H2  763   5.975   3.392   4.304
  267TIP3   OH2  764   2.051   5.137   0.348
  267TIP3    H1  765   2.085   5.059   0.391
  267TIP3    H2  766   1.984   5.105   0.288
  268TIP3   OH2  767   1.418   1.845   4.528
  268TIP3    H1  768   1.464   1.762   4.516
  268TIP3    H2  769   1.487   1.909   4.546
  269TIP3   OH2  770   0.007   1.332   4.006
  269TIP3    H1  771   0.098   1.311   3.985
  269TIP3    H2  772  -0.044   1.277   3.947
  270TIP3   OH2  773   3.511   3.272   3.317
  270TIP3    H1  774   3.453   3.338   3.356
  270TIP3    H2  775   3.460   3.191   3.321
  271TIP3   OH2  776   2.587   2.272   5.089
  271TIP3    H1  777   2.673   2.240   5.062
  271TIP3    H2  778   2.606   2.344   5.149
  272TIP3   OH2  779   1.003   5.092   1.115
  272TIP3    H1  780   0.968   5.025   1.174
  272TIP3    H2  781   1.057   5.148   1.172
  273TIP3   OH2  782   3.467   2.877   5.252
  273TIP3    H1  783   3.498   2.809   5.193
  273TIP3    H2  784   3.422   2.940   5.196
  274TIP3   OH2  785   2.853   5.844   3.811
  274TIP3    H1  786   2.882   5.756   3.837
  274TIP3    H2  787   2.789   5.828   3.742
  275TIP3   OH2  788   4.256   6.099   2.719
  275TIP3    H1  789   4.289   6.189   2.710
  275TIP3    H2  790   4.294   6.068   2.801
  276TIP3   OH2  791   2.011   4.358   2.148
  276TIP3    H1  792   2.044   4.411   2.221
  276TIP3    H2  793   1.968   4.422   2.091
  277TIP3   OH2  794   1.987   1.553   2.740
  277TIP3    H1  795   2.082   1.546   2.732
  277TIP3    H2  796   1.955   1.563   2.651
  278TIP3   OH2  797   4.323   3.879   4.595
  278TIP3    H1  798   4.344   3.831   4.674
  278TIP3    H2  799   4.366   3.830   4.525
  279TIP3   OH2  800   6.047   2.195   3.029
  279TIP3    H1  801   6.123   2.245   3.000
  279TIP3    H2  802   5.972   2.239   2.987
  280TIP3   OH2  803   0.987   3.533   1.085
  280TIP3    H1  804   0.893   3.551   1.081
  280TIP3    H2  805   0.998   3.483   1.166
  281TIP3   OH2  806   3.317   4.682   0.593
  281TIP3    H1  807   3.235   4.686   0.543
  281TIP3    H2  808   3.368   4.755   0.560
  282TIP3   OH2  809   6.109   5.724   4.666
  282TIP3    H1  810   6.066   5.733   4.581
  282TIP3    H2  811   6.148   5.810   4.683
  283TIP3   OH2  812   2.234   6.520   4.287
  283TIP3    H1  813   2.149   6.491   4.254
  283TIP3    H2  814   2.214   6.599   4.337
  284TIP3   OH2  815   5.368   1.085   3.264
  284TIP3    H1  816   5.418   1.142   3.206
  284TIP3    H2  817   5.393   1.111   3.353
  285TIP3   OH2  818   0.448   0.631   2.166
  285TIP3    H1  819   0.473   0.626   2.258
  285TIP3    H2  820   0.434   0.725   2.150
  286TIP3   OH2  821   0.099   4.158   4.023
  286TIP3    H1  822   0.012   4.163   3.982
  286TIP3    H2  823   0.131   4.248   4.022
  287TIP3   OH2  824   2.037   4.042   1.926
  287TIP3    H1  825   1.942   4.043   1.940
  287TIP3    H2  826   2.070   3.983   1.994
  288TIP3   OH2  827   4.353   0.975   0.693
  288TIP3    H1  828   4.309   0.947   0.613
  288TIP3    H2  829   4.445   0.988   0.667
  289TIP3   OH2  830   7.084   4.727   2.824
  289TIP3    H1  831   7.005   4.714   2.772
  289TIP3    H2  832   7.052   4.761   2.908
  290TIP3   OH2  833   6.238   5.321   5.664
  290TIP3    H1  834   6.330   5.307   5.641
  290TIP3    H2  835   6.239   5.401   5.716
  291TIP3   OH2  836   4.289   2.529   4.083
  291TIP3    H1  837   4.248   2.598   4.136
  291TIP3    H2  838   4.367   2.503   4.134
  292TIP3   OH2  839   0.000   6.333   2.445
  292TIP3    H1  840   0.061   6.314   2.517
  292TIP3    H2  841  -0.009   6.428   2.445
  293TIP3   OH2  842   7.122   2.367   4.347
  293TIP3    H1  843   7.111   2.296   4.283
  293TIP3    H2  844   7.039   2.414   4.344
  294TIP3   OH2  845   5.368   1.545   5.529
  294TIP3    H1  846   5.388   1.576   5.441
  294TIP3    H2  847   5.404   1.457   5.532
  295TIP3   OH2  848   4.766   5.329   2.800
  295TIP3    H1  849   4.834   5.335   2.733
  295TIP3    H2  850   4.689   5.296   2.753
  296TIP3   OH2  851   3.973   2.043   5.174
  296TIP3    H1  852   4.068   2.038   5.177
  296TIP3    H2  853   3.949   2.000   5.092
  297TIP3   OH2  854   6.667   1.101   5.765
  297TIP3    H1  855   6.679   1.006   5.771
  297TIP3    H2  856   6.572   1.113   5.769
  298TIP3   OH2  857   3.084   3.102   3.337
  298TIP3    H1  858   3.173   3.077   3.314
  298TIP3    H2  859   3.089   3.194   3.360
  299TIP3   OH2  860   4.316   0.263   4.965
  299TIP3    H1  861   4.264   0.193   4.927
  299TIP3    H2  862   4.292   0.263   5.058
  300TIP3   OH2  863   5.473   1.371   0.236
  300TIP3    H1  864   5.480   1.405   0.147
  300TIP3    H2  865   5.551   1.317   0.248
  301TIP3   OH2  866   2.372   4.149   1.914
  301TIP3    H1  867   2.312   4.152   1.988
  301TIP3    H2  868   2.327   4.093   1.850
  302TIP3   OH2  869   3.541   3.351   4.973
  302TIP3    H1  870   3.571   3.282   4.914
  302TIP3    H2  871   3.499   3.305   5.045
  303TIP3   OH2  872   7.228   0.680   3.384
  303TIP3    H1  873   7.190   0.768   3.376
  303TIP3    H2  874   7.215   0.641   3.298
  304TIP3   OH2  875   3.609   3.055   3.875
  304TIP3    H1  876   3.677   3.085   3.814
  304TIP3    H2  877   3.653   2.989   3.928
  305TIP3   OH2  878   0.707   5.699   1.056
  305TIP3    H1  879   0.755   5.628   1.012
  305TIP3    H2  880   0.773   5.764   1.077
  306TIP3   OH2  881   5.437   0.551   2.475
  306TIP3    H1  882   5.401   0.547   2.564
  306TIP3    H2  883   5.362   0.536   2.418
  307TIP3   OH2  884   1.540   3.201   5.266
  307TIP3    H1  885   1.530   3.113   5.303
  307TIP3    H2  886   1.601   3.189   5.193
  308TIP3   OH2  887   6.672   3.343   2.371
  308TIP3    H1  888   6.751   3.336   2.425
  308TIP3    H2  889   6.664   3.436   2.352
  309TIP3   OH2  890   1.516   4.430   0.527
  309TIP3    H1  891   1.580   4.380   0.577
  309TIP3    H2  892   1.464   4.475   0.593
  310TIP3   OH2  893   2.810   4.853   0.895
  310TIP3    H1  894   2.787   4.946   0.899
  310TIP3    H2  895   2.821   4.827   0.987
  311TIP3   OH2  896   5.117   3.857   1.883
  311TIP3    H1  897   5.125   3.839   1.789
  311TIP3    H2  898   5.028   3.832   1.905
  312TIP3   OH2  899   5.239   0.867   3.163
  312TIP3    H1  900   5.228   0.962   3.172
  312TIP3    H2  901   5.317   0.847   3.216
  313TIP3   OH2  902   2.068   1.021   4.214
  313TIP3    H1  903   2.026   1.038   4.130
  313TIP3    H2  904   2.008   1.059   4.279
  314TIP3   OH2  905   2.898   3.539   1.206
  314TIP3    H1  906   2.900   3.577   1.293
  314TIP3    H2  907   2.900   3.613   1.146
  315TIP3   OH2  908   5.661   3.087   1.576
  315TIP3    H1  909   5.671   3.158   1.640
  315TIP3    H2  910   5.607   3.125   1.507
  316TIP3   OH2  911   2.581   5.306   4.670
  316TIP3    H1  912   2.569   5.213   4.647
  316TIP3    H2  913   2.584   5.306   4.766
  317TIP3   OH2  914   1.982   1.050   2.215
  317TIP3    H1  915   2.023   1.122   2.166
  317TIP3    H2  916   1.955   0.988   2.148
  318TIP3   OH2  917   5.965   1.510   4.886
  318TIP3    H1  918   5.985   1.445   4.954
  318TIP3    H2  919   6.007   1.591   4.918
  319TIP3   OH2  920   3.235   4.353   3.008
  319TIP3    H1  921   3.177   4.353   3.085
  319TIP3    H2  922   3.192   4.410   2.945
  320TIP3   OH2  923   2.283   5.936   2.319
  320TIP3    H1  924   2.240   5.971   2.241
  320TIP3    H2  925   2.350   6.000   2.341
  321TIP3   OH2  926   1.942   0.522   4.235
  321TIP3    H1  927   1.916   0.565   4.316
  321TIP3    H2  928   2.038   0.527   4.234
  322TIP3   OH2  929   4.309   3.944   5.074
  322TIP3    H1  930   4.261   3.937   4.992
  322TIP3    H2  931   4.273   4.021   5.118
  323TIP3   OH2  932   3.908   0.468   1.966
  323TIP3    H1  933   3.878   0.473   2.057
  323TIP3    H2  934   3.850   0.405   1.924
  324TIP3   OH2  935   5.360   2.325   4.284
  324TIP3    H1  936   5.392   2.337   4.194
  324TIP3    H2  937   5.284   2.383   4.290
  325TIP3   OH2  938   4.566   2.064   1.059
  325TIP3    H1  939   4.649   2.018   1.067
  325TIP3    H2  940   4.502   2.007   1.101
  326TIP3   OH2  941   0.642   0.228   2.354
  326TIP3    H1  942   0.584   0.218   2.430
  326TIP3    H2  943   0.712   0.165   2.368
  327TIP3   OH2  944   6.116   0.473   1.053
  327TIP3    H1  945   6.097   0.556   1.097
  327TIP3    H2  946   6.187   0.435   1.104
  328TIP3   OH2  947   5.080   0.289   4.794
  328TIP3    H1  948   5.026   0.227   4.843
  328TIP3    H2  949   5.073   0.261   4.703
  329TIP3   OH2  950   3.478   3.019   1.858
  329TIP3    H1  951   3.471   3.082   1.930
  329TIP3    H2  952   3.531   3.063   1.792
  330TIP3   OH2  953   4.407   4.158   5.668
  330TIP3    H1  954   4.373   4.075   5.701
  330TIP3    H2  955   4.384   4.222   5.735
  331TIP3   OH2  956   7.110   1.619   1.776
  331TIP3    H1  957   7.194   1.663   1.783
  331TIP3    H2  958   7.045   1.690   1.781
  332TIP3   OH2  959   3.580   2.542   3.015
  332TIP3    H1  960   3.540   2.610   2.960
  332TIP3    H2  961   3.513   2.520   3.079
  333TIP3   OH2  962   4.499   5.812   4.546
  333TIP3    H1  963   4.512   5.870   4.470
  333TIP3    H2  964   4.575   5.754   4.545
  334TIP3   OH2  965   4.138   1.261   3.873
  334TIP3    H1  966   4.074   1.221   3.814
  334TIP3    H2  967   4.217   1.272   3.819
  335TIP3   OH2  968   0.163   5.978   3.887
  335TIP3    H1  969   0.104   6.053   3.875
  335TIP3    H2  970   0.160   5.931   3.804
  336TIP3   OH2  971   0.160   3.387   3.019
  336TIP3    H1  972   0.125   3.298   3.017
  336TIP3    H2  973   0.082   3.443   3.013
  337TIP3   OH2  974   6.742   6.193   2.012
  337TIP3    H1  975   6.787   6.137   1.949
  337TIP3    H2  976   6.755   6.282   1.979
  338TIP3   OH2  977   1.108   6.367   0.233
  338TIP3    H1  978   1.067   6.406   0.156
  338TIP3    H2  979   1.160   6.437   0.270
  339TIP3   OH2  980   0.619   0.033   3.896
  339TIP3    H1  981   0.546   0.089   3.871
  339TIP3    H2  982   0.579  -0.039   3.945
  340TIP3   OH2  983   2.273   2.158   5.558
  340TIP3    H1  984   2.309   2.081   5.602
  340TIP3    H2  985   2.302   2.149   5.467
  341TIP3   OH2  986   2.063   6.277   2.495
  341TIP3    H1  987   2.135   6.229   2.535
  341TIP3    H2  988   1.998   6.285   2.565
  342TIP3   OH2  989   0.130   4.570   0.352
  342TIP3    H1  990   0.206   4.550   0.298
  342TIP3    H2  991   0.166   4.588   0.439
  343TIP3   OH2  992   1.478   3.442   5.150
  343TIP3    H1  993   1.388   3.451   5.182
  343TIP3    H2  994   1.511   3.362   5.192
  344TIP3   OH2  995   0.429   6.353   3.007
  344TIP3    H1  996   0.341   6.381   2.981
  344TIP3    H2  997   0.429   6.363   3.102
  345TIP3   OH2  998   0.050   2.785   0.533
  345TIP3    H1  999   0.122   2.847   0.533
  345TIP3    H2 1000   0.072   2.722   0.465
  346TIP3   OH2 1001   4.507   5.681   3.541
  346TIP3    H1 1002   4.561   5.608   3.573
  346TIP3    H2 1003   4.457   5.644   3.468
  347TIP3   OH2 1004   4.743   5.628   3.779
  347TIP3    H1 1005   4.829   5.602   3.746
  347TIP3    H2 1006   4.754   5.628   3.875
  348TIP3   OH2 1007   0.265   1.504   0.107
  348TIP3    H1 1008   0.277   1.491   0.013
  348TIP3    H2 1009   0.249   1.416   0.141
  349TIP3   OH2 1010   6.474   1.918   4.822
  349TIP3    H1 1011   6.568   1.929   4.810
  349TIP3    H2 1012   6.445   1.876   4.741
  350TIP3   OH2 1013   5.903   3.182   1.387
  350TIP3    H1 1014   5.862   3.145   1.465
  350TIP3    H2 1015   5.987   3.217   1.417
  351TIP3   OH2 1016   4.465   4.008   2.773
  351TIP3    H1 1017   4.519   3.929   2.774
  351TIP3    H2 1018   4.491   4.056   2.851
  352TIP3   OH2 1019   3.265   1.005   0.169
  352TIP3    H1 1020   3.332   0.981   0.105
  352TIP3    H2 1021   3.253   1.099   0.156
  353TIP3   OH2 1022   5.723   6.663   3.531
  353TIP3    H1 1023   5.811   6.694   3.513
  353TIP3    H2 1024   5.699   6.704   3.615
  354TIP3   OH2 1025   1.811   5.321   5.140
  354TIP3    H1 1026   1.778   5.263   5.209
  354TIP3    H2 1027   1.764   5.403   5.155
  355TIP3   OH2 1028   3.450   2.245   3.192
  355TIP3    H1 1029   3.475   2.174   3.252
  355TIP3    H2 1030   3.478   2.325   3.236
  356TIP3   OH2 1031   4.642   2.211   2.913
  356TIP3    H1 1032   4.685   2.159   2.845
  356TIP3    H2 1033   4.560   2.163   2.930
  357TIP3   OH2 1034   6.311   3.663   0.601
  357TIP3    H1 1035   6.301   3.624   0.688
  357TIP3    H2 1036   6.329   3.589   0.543
  358TIP3   OH2 1037   3.918   3.600   1.931
  358TIP3    H1 1038   3.873   3.658   1.993
  358TIP3    H2 1039   3.891   3.632   1.845
  359TIP3   OH2 1040   4.442   1.103   2.402
  359TIP3    H1 1041   4.352   1.076   2.382
  359TIP3    H2 1042   4.497   1.041   2.354
  360TIP3   OH2 1043   0.561   5.579   2.144
  360TIP3    H1 1044   0.542   5.485   2.135
  360TIP3    H2 1045   0.525   5.603   2.228
  361TIP3   OH2 1046   2.566   4.204   2.267
  361TIP3    H1 1047   2.565   4.286   2.217
  361TIP3    H2 1048   2.545   4.136   2.202
  362TIP3   OH2 1049   6.994   3.361   2.389
  362TIP3    H1 1050   7.068   3.381   2.447
  362TIP3    H2 1051   7.033   3.355   2.302
  363TIP3   OH2 1052   5.552   6.415   4.636
  363TIP3    H1 1053   5.524   6.502   4.664
  363TIP3    H2 1054   5.641   6.428   4.603
  364TIP3   OH2 1055   3.829   0.192   5.055
  364TIP3    H1 1056   3.895   0.130   5.084
  364TIP3    H2 1057   3.804   0.162   4.968
  365TIP3   OH2 1058   2.377   5.684   3.695
  365TIP3    H1 1059   2.470   5.681   3.672
  365TIP3    H2 1060   2.332   5.645   3.620
  366TIP3   OH2 1061   5.792   3.054   2.852
  366TIP3    H1 1062   5.748   3.073   2.770
  366TIP3    H2 1063   5.749   3.111   2.916
  367TIP3   OH2 1064   4.755   4.161   1.217
  367TIP3    H1 1065   4.759   4.073   1.255
  367TIP3    H2 1066   4.840   4.173   1.175
  368TIP3   OH2 1067   1.754   5.104   0.541
  368TIP3    H1 1068   1.704   5.027   0.513
  368TIP3    H2 1069   1.806   5.073   0.615
  369TIP3   OH2 1070   1.185   6.421   2.173
  369TIP3    H1 1071   1.209   6.329   2.182
  369TIP3    H2 1072   1.181   6.436   2.078
  370TIP3   OH2 1073   6.793   2.536   1.727
  370TIP3    H1 1074   6.862   2.587   1.769
  370TIP3    H2 1075   6.830   2.510   1.643
  371TIP3   OH2 1076   6.979   4.131   0.667
  371TIP3    H1 1077   6.974   4.211   0.719
  371TIP3    H2 1078   6.934   4.065   0.720
  372TIP3   OH2 1079   4.942   6.026   0.651
  372TIP3    H1 1080   4.998   6.100   0.627
  372TIP3    H2 1081   5.003   5.953   0.662
  373TIP3   OH2 1082   2.521   6.138   5.155
  373TIP3    H1 1083   2.533   6.167   5.245
  373TIP3    H2 1084   2.584   6.067   5.144
  374TIP3   OH2 1085   3.524   2.832   5.770
  374TIP3    H1 1086   3.463   2.788   5.712
  374TIP3    H2 1087   3.595   2.861   5.713
  375TIP3   OH2 1088   1.288   5.153   4.366
  375TIP3    H1 1089   1.193   5.161   4.353
  375TIP3    H2 1090   1.325   5.227   4.318
  376TIP3   OH2 1091   2.872   0.493   0.580
  376TIP3    H1 1092   2.806   0.424   0.594
  376TIP3    H2 1093   2.900   0.517   0.669
  377TIP3   OH2 1094   1.177   5.720   3.166
  377TIP3    H1 1095   1.130   5.695   3.086
  377TIP3    H2 1096   1.109   5.745   3.228
  378TIP3   OH2 1097   2.554   0.185   4.869
  378TIP3    H1 1098   2.525   0.207   4.957
  378TIP3    H2 1099   2.638   0.140   4.881
  379TIP3   OH2 1100   5.446   2.353   0.855
  379TIP3    H1 1101   5.503   2.343   0.931
  379TIP3    H2 1102   5.427   2.447   0.852
  380TIP3   OH2 1103   6.844   3.889   4.065
  380TIP3    H1 1104   6.793   3.908   3.986
  380TIP3    H2 1105   6.863   3.795   4.059
  381TIP3   OH2 1106   2.980   5.143   5.544
  381TIP3    H1 1107   3.051   5.204   5.562
  381TIP3    H2 1108   2.964   5.152   5.450
  382TIP3   OH2 1109   5.218   4.160   4.984
  382TIP3    H1 1110   5.140   4.130   4.938
  382TIP3    H2 1111   5.268   4.208   4.918
  383TIP3   OH2 1112   6.331   4.943   2.487
  383TIP3    H1 1113   6.405   4.884   2.468
  383TIP3    H2 1114   6.360   5.028   2.453
  384TIP3   OH2 1115   0.163   4.987   3.826
  384TIP3    H1 1116   0.153   5.027   3.740
  384TIP3    H2 1117   0.188   4.896   3.808
  385TIP3   OH2 1118   0.085   6.729   5.178
  385TIP3    H1 1119   0.142   6.806   5.186
  385TIP3    H2 1120   0.146   6.656   5.166
  386TIP3   OH2 1121   1.312   4.908   2.777
  386TIP3    H1 1122   1.379   4.840   2.777
  386TIP3    H2 1123   1.312   4.941   2.867
  387TIP3   OH2 1124   5.491   2.879   3.379
  387TIP3    H1 1125   5.488   2.862   3.285
  387TIP3    H2 1126   5.407   2.921   3.398
  388TIP3   OH2 1127   3.277   4.138   2.847
  388TIP3    H1 1128   3.372   4.150   2.853
  388TIP3    H2 1129   3.242   4.183   2.924
  389TIP3   OH2 1130   6.728   3.088   2.589
  389TIP3    H1 1131   6.671   3.152   2.631
  389TIP3    H2 1132   6.758   3.032   2.660
  390TIP3   OH2 1133   1.941   5.436   4.457
  390TIP3    H1 1134   1.984   5.492   4.393
  390TIP3    H2 1135   1.874   5.389   4.407
  391TIP3   OH2 1136   1.634   4.017   3.421
  391TIP3    H1 1137   1.640   3.996   3.514
  391TIP3    H2 1138   1.589   4.101   3.418
  392TIP3   OH2 1139   5.010   1.868   1.572
  392TIP3    H1 1140   5.102   1.865   1.597
  392TIP3    H2 1141   5.005   1.939   1.508
  393TIP3   OH2 1142   1.616   4.138   2.829
  393TIP3    H1 1143   1.598   4.102   2.916
  393TIP3    H2 1144   1.711   4.155   2.829
  394TIP3   OH2 1145   2.431   4.944   3.166
  394TIP3    H1 1146   2.501   4.899   3.214
  394TIP3    H2 1147   2.354   4.889   3.179
  395TIP3   OH2 1148   5.969   4.139   4.276
  395TIP3    H1 1149   6.026   4.119   4.351
  395TIP3    H2 1150   6.014   4.209   4.229
  396TIP3   OH2 1151   3.186   0.147   4.794
  396TIP3    H1 1152   3.108   0.189   4.758
  396TIP3    H2 1153   3.259   0.184   4.743
  397TIP3   OH2 1154   6.292   1.328   2.813
  397TIP3    H1 1155   6.328   1.412   2.841
  397TIP3    H2 1156   6.334   1.264   2.871
  398TIP3   OH2 1157   4.518   6.145   4.935
  398TIP3    H1 1158   4.522   6.069   4.993
  398TIP3    H2 1159   4.466   6.116   4.860
  399TIP3   OH2 1160   5.537   1.412   3.524
  399TIP3    H1 1161   5.516   1.417   3.431
  399TIP3    H2 1162   5.563   1.501   3.547
  400TIP3   OH2 1163   4.689   5.364   0.305
  400TIP3    H1 1164   4.656   5.322   0.385
  400TIP3    H2 1165   4.618   5.422   0.278
  401TIP3   OH2 1166   4.810   5.522   4.862
  401TIP3    H1 1167   4.720   5.534   4.890
  401TIP3    H2 1168   4.820   5.579   4.786
  402TIP3   OH2 1169   0.835   6.780   4.388
  402TIP3    H1 1170   0.929   6.762   4.388
  402TIP3    H2 1171   0.801   6.724   4.318
  403TIP3   OH2 1172   5.336   5.437   5.707
  403TIP3    H1 1173   5.361   5.502   5.773
  403TIP3    H2 1174   5.279   5.486   5.647
  404TIP3   OH2 1175   6.273   5.256   2.997
  404TIP3    H1 1176   6.293   5.247   3.090
  404TIP3    H2 1177   6.194   5.311   2.995
  405TIP3   OH2 1178   1.454   0.117   0.401
  405TIP3    H1 1179   1.532   0.154   0.360
  405TIP3    H2 1180   1.383   0.175   0.374
  406TIP3   OH2 1181   1.152   3.182   3.588
  406TIP3    H1 1182   1.222   3.245   3.604
  406TIP3    H2 1183   1.088   3.232   3.536
  407TIP3   OH2 1184   0.113   3.368   1.870
  407TIP3    H1 1185   0.176   3.440   1.871
  407TIP3    H2 1186   0.093   3.352   1.962
  408TIP3   OH2 1187   1.351   2.706   5.202
  408TIP3    H1 1188   1.380   2.616   5.215
  408TIP3    H2 1189   1.431   2.754   5.179
  409TIP3   OH2 1190   4.363   2.446   4.625
  409TIP3    H1 1191   4.286   2.457   4.569
  409TIP3    H2 1192   4.399   2.534   4.634
  410TIP3   OH2 1193   2.962   4.730   1.548
  410TIP3    H1 1194   2.887   4.765   1.500
  410TIP3    H2 1195   2.927   4.655   1.596
  411TIP3   OH2 1196   5.513   2.561   4.350
  411TIP3    H1 1197   5.486   2.469   4.353
  411TIP3    H2 1198   5.444   2.608   4.396
  412TIP3   OH2 1199   4.878   0.219   1.484
  412TIP3    H1 1200   4.828   0.185   1.411
  412TIP3    H2 1201   4.943   0.276   1.444
  413TIP3   OH2 1202   3.691   0.898   1.942
  413TIP3    H1 1203   3.770   0.938   1.907
  413TIP3    H2 1204   3.676   0.944   2.025
  414TIP3   OH2 1205   0.684   3.796   2.452
  414TIP3    H1 1206   0.677   3.704   2.427
  414TIP3    H2 1207   0.702   3.794   2.546
  415TIP3   OH2 1208   0.721   3.522   2.402
  415TIP3    H1 1209   0.771   3.457   2.452
  415TIP3    H2 1210   0.712   3.484   2.315
  416TIP3   OH2 1211   2.043   0.802   5.157
  416TIP3    H1 1212   2.067   0.743   5.229
  416TIP3    H2 1213   2.127   0.825   5.116
  417TIP3   OH2 1214   3.788   3.640   3.797
  417TIP3    H1 1215   3.746   3.725   3.810
  417TIP3    H2 1216   3.804   3.608   3.886
  418TIP3   OH2 1217   4.703   0.651   4.444
  418TIP3    H1 1218   4.636   0.673   4.380
  418TIP3    H2 1219   4.660   0.590   4.504
  419TIP3   OH2 1220   7.221   0.441   3.713
  419TIP3    H1 1221   7.167   0.430   3.634
  419TIP3    H2 1222   7.179   0.387   3.779
  420TIP3   OH2 1223   3.937   0.107   3.873
  420TIP3    H1 1224   3.851   0.147   3.885
  420TIP3    H2 1225   3.990   0.176   3.833
  421TIP3   OH2 1226   6.015   4.738   4.065
  421TIP3    H1 1227   6.026   4.703   3.976
  421TIP3    H2 1228   6.070   4.816   4.067
  422TIP3   OH2 1229   0.714   0.994   0.345
  422TIP3    H1 1230   0.768   1.061   0.389
  422TIP3    H2 1231   0.762   0.912   0.359
  423TIP3   OH2 1232   5.164   3.033   1.684
  423TIP3    H1 1233   5.130   2.946   1.703
  423TIP3    H2 1234   5.243   3.040   1.737
  424TIP3   OH2 1235   0.674   4.923   5.842
  424TIP3    H1 1236   0.749   4.864   5.840
  424TIP3    H2 1237   0.643   4.925   5.752
  425TIP3   OH2 1238   6.594   4.838   4.407
  425TIP3    H1 1239   6.505   4.835   4.372
  425TIP3    H2 1240   6.583   4.845   4.501
  426TIP3   OH2 1241   1.384   3.006   4.637
  426TIP3    H1 1242   1.307   3.050   4.674
  426TIP3    H2 1243   1.449   3.008   4.707
  427TIP3   OH2 1244   5.505   5.507   1.542
  427TIP3    H1 1245   5.528   5.530   1.632
  427TIP3    H2 1246   5.425   5.556   1.524
  428TIP3   OH2 1247   1.542   1.513   0.614
  428TIP3    H1 1248   1.531   1.496   0.708
  428TIP3    H2 1249   1.534   1.426   0.574
  429TIP3   OH2 1250   2.003   6.078   0.670
  429TIP3    H1 1251   1.912   6.067   0.644
  429TIP3    H2 1252   2.052   6.026   0.606
  430TIP3   OH2 1253   1.087   2.505   4.045
  430TIP3    H1 1254   1.123   2.545   4.124
  430TIP3    H2 1255   1.036   2.575   4.004
  431TIP3   OH2 1256   0.246   6.420   3.602
  431TIP3    H1 1257   0.190   6.492   3.573
  431TIP3    H2 1258   0.335   6.450   3.583
  432TIP3   OH2 1259   2.463   4.032   0.639
  432TIP3    H1 1260   2.467   4.124   0.666
  432TIP3    H2 1261   2.532   4.024   0.572
  433TIP3   OH2 1262   3.925   2.950   3.762
  433TIP3    H1 1263   3.866   3.017   3.728
  433TIP3    H2 1264   3.977   2.923   3.686
  434TIP3   OH2 1265   2.121   0.352   3.551
  434TIP3    H1 1266   2.031   0.322   3.565
  434TIP3    H2 1267   2.122   0.441   3.586
  435TIP3   OH2 1268   4.354   0.510   0.934
  435TIP3    H1 1269   4.364   0.446   1.005
  435TIP3    H2 1270   4.283   0.475   0.880
  436TIP3   OH2 1271   2.545   6.563   5.155
  436TIP3    H1 1272   2.469   6.557   5.097
  436TIP3    H2 1273   2.519   6.514   5.233
  437TIP3   OH2 1274   4.339   0.688   4.620
  437TIP3    H1 1275   4.294   0.756   4.571
  437TIP3    H2 1276   4.310   0.701   4.711
  438TIP3   OH2 1277   2.697   2.749   0.613
  438TIP3    H1 1278   2.637   2.684   0.577
  438TIP3    H2 1279   2.643   2.827   0.625
  439TIP3   OH2 1280   0.141   5.663   4.684
  439TIP3    H1 1281   0.215   5.715   4.717
  439TIP3    H2 1282   0.130   5.692   4.594
  440TIP3   OH2 1283   3.047   0.516   1.084
  440TIP3    H1 1284   2.972   0.505   1.143
  440TIP3    H2 1285   3.122   0.526   1.143
  441TIP3   OH2 1286   3.772   0.545   4.254
  441TIP3    H1 1287   3.774   0.624   4.200
  441TIP3    H2 1288   3.692   0.500   4.226
  442TIP3   OH2 1289   6.543   0.774   1.909
  442TIP3    H1 1290   6.472   0.774   1.844
  442TIP3    H2 1291   6.607   0.836   1.874
  443TIP3   OH2 1292   3.753   1.873   4.579
  443TIP3    H1 1293   3.800   1.883   4.496
  443TIP3    H2 1294   3.662   1.856   4.553
  444TIP3   OH2 1295   6.853   1.641   4.695
  444TIP3    H1 1296   6.835   1.622   4.603
  444TIP3    H2 1297   6.786   1.703   4.721
  445TIP3   OH2 1298   4.235   2.953   2.944
  445TIP3    H1 1299   4.301   2.980   3.008
  445TIP3    H2 1300   4.161   2.922   2.996
  446TIP3   OH2 1301   4.661   5.420   4.041
  446TIP3    H1 1302   4.678   5.431   4.134
  446TIP3    H2 1303   4.607   5.342   4.035
  447TIP3   OH2 1304   1.172   6.208   2.971
  447TIP3    H1 1305   1.155   6.264   3.048
  447TIP3    H2 1306   1.215   6.131   3.007
  448TIP3   OH2 1307   3.589   1.790   3.303
  448TIP3    H1 1308   3.672   1.764   3.343
  448TIP3    H2 1309   3.562   1.714   3.252
  449TIP3   OH2 1310   1.825   4.622   3.160
  449TIP3    H1 1311   1.846   4.532   3.183
  449TIP3    H2 1312   1.851   4.630   3.069
  450TIP3   OH2 1313   6.775   0.721   2.294
  450TIP3    H1 1314   6.718   0.778   2.346
  450TIP3    H2 1315   6.862   0.730   2.334
  451TIP3   OH2 1316   5.469   6.116   5.067
  451TIP3    H1 1317   5.445   6.183   5.131
  451TIP3    H2 1318   5.413   6.134   4.991
  452TIP3   OH2 1319   6.445   0.091   3.616
  452TIP3    H1 1320   6.460   0.014   3.671
  452TIP3    H2 1321   6.522   0.097   3.561
  453TIP3   OH2 1322   1.976   1.291   1.349
  453TIP3    H1 1323   1.971   1.276   1.444
  453TIP3    H2 1324   2.011   1.210   1.314
  454TIP3   OH2 1325   6.220   6.474   4.676
  454TIP3    H1 1326   6.284   6.539   4.704
  454TIP3    H2 1327   6.239   6.397   4.730
  455TIP3   OH2 1328   0.081   4.919   2.738
  455TIP3    H1 1329   0.011   4.966   2.693
  455TIP3    H2 1330   0.042   4.888   2.820
  456TIP3   OH2 1331   2.604   2.524   5.218
  456TIP3    H1 1332   2.547   2.598   5.198
  456TIP3    H2 1333   2.676   2.532   5.155
  457TIP3   OH2 1334   4.572   3.512   3.726
  457TIP3    H1 1335   4.564   3.441   3.789
  457TIP3    H2 1336   4.595   3.589   3.778
  458TIP3   OH2 1337   2.957   4.663   5.386
  458TIP3    H1 1338   3.026   4.635   5.326
  458TIP3    H2 1339   3.002   4.715   5.453
  459TIP3   OH2 1340   1.853   1.159   0.173
  459TIP3    H1 1341   1.797   1.233   0.153
  459TIP3    H2 1342   1.875   1.120   0.088
  460TIP3   OH2 1343   6.761   5.117   3.571
  460TIP3    H1 1344   6.714   5.100   3.489
  460TIP3    H2 1345   6.824   5.186   3.548
  461TIP3   OH2 1346   7.276   0.378   3.343
  461TIP3    H1 1347   7.234   0.440   3.402
  461TIP3    H2 1348   7.219   0.377   3.266
  462TIP3   OH2 1349   1.731   3.220   1.096
  462TIP3    H1 1350   1.668   3.180   1.157
  462TIP3    H2 1351   1.731   3.162   1.020
  463TIP3   OH2 1352   2.305   2.792   3.279
  463TIP3    H1 1353   2.388   2.751   3.304
  463TIP3    H2 1354   2.324   2.833   3.194
  464TIP3   OH2 1355   2.849   4.918   2.518
  464TIP3    H1 1356   2.897   4.853   2.466
  464TIP3    H2 1357   2.761   4.881   2.527
  465TIP3   OH2 1358   1.899   2.681   3.613
  465TIP3    H1 1359   1.981   2.685   3.562
  465TIP3    H2 1360   1.884   2.587   3.625
  466TIP3   OH2 1361   1.589   0.660   5.016
  466TIP3    H1 1362   1.539   0.594   5.065
  466TIP3    H2 1363   1.678   0.625   5.012
  467TIP3   OH2 1364   2.433   6.280   3.485
  467TIP3    H1 1365   2.528   6.283   3.487
  467TIP3    H2 1366   2.410   6.286   3.392
  468TIP3   OH2 1367   6.718   2.339   5.612
  468TIP3    H1 1368   6.781   2.376   5.674
  468TIP3    H2 1369   6.645   2.308   5.667
  469TIP3   OH2 1370   1.651   3.051   4.019
  469TIP3    H1 1371   1.567   3.012   4.040
  469TIP3    H2 1372   1.643   3.078   3.928
  470TIP3   OH2 1373   2.524   1.089   4.234
  470TIP3    H1 1374   2.612   1.075   4.270
  470TIP3    H2 1375   2.516   1.024   4.164
  471TIP3   OH2 1376   3.256   6.078   4.581
  471TIP3    H1 1377   3.287   5.993   4.613
  471TIP3    H2 1378   3.212   6.057   4.498
  472TIP3   OH2 1379   4.151   3.692   4.293
  472TIP3    H1 1380   4.228   3.729   4.335
  472TIP3    H2 1381   4.095   3.663   4.365
  473TIP3   OH2 1382   2.559   1.829   5.023
  473TIP3    H1 1383   2.509   1.754   5.055
  473TIP3    H2 1384   2.643   1.792   4.994
  474TIP3   OH2 1385   0.163   2.422   2.953
  474TIP3    H1 1386   0.126   2.440   2.866
  474TIP3    H2 1387   0.240   2.479   2.958
  475TIP3   OH2 1388   5.078   1.079   3.309
  475TIP3    H1 1389   5.173   1.087   3.323
  475TIP3    H2 1390   5.046   1.034   3.388
  476TIP3   OH2 1391   4.055   5.187   4.121
  476TIP3    H1 1392   4.023   5.234   4.198
  476TIP3    H2 1393   4.124   5.129   4.154
  477TIP3   OH2 1394   7.042   6.615   4.679
  477TIP3    H1 1395   7.073   6.701   4.650
  477TIP3    H2 1396   6.949   6.613   4.653
  478TIP3   OH2 1397   3.827   5.796   5.676
  478TIP3    H1 1398   3.865   5.712   5.652
  478TIP3    H2 1399   3.888   5.861   5.641
  479TIP3   OH2 1400   5.990   3.497   1.334
  479TIP3    H1 1401   5.951   3.455   1.257
  479TIP3    H2 1402   6.050   3.431   1.370
  480TIP3   OH2 1403   0.247   3.755   4.679
  480TIP3    H1 1404   0.173   3.813   4.665
  480TIP3    H2 1405   0.218   3.670   4.646
  481TIP3   OH2 1406   2.033   6.186   4.126
  481TIP3    H1 1407   2.007   6.271   4.161
  481TIP3    H2 1408   2.126   6.196   4.104
  482TIP3   OH2 1409   2.798   1.559   4.119
  482TIP3    H1 1410   2.717   1.529   4.080
  482TIP3    H2 1411   2.811   1.501   4.195
  483TIP3   OH2 1412   5.988   1.132   0.620
  483TIP3    H1 1413   5.961   1.047   0.584
  483TIP3    H2 1414   5.944   1.137   0.705
  484TIP3   OH2 1415   0.053   2.541   5.721
  484TIP3    H1 1416  -0.021   2.547   5.782
  484TIP3    H2 1417   0.117   2.604   5.754
  485TIP3   OH2 1418   3.823   5.221   3.746
  485TIP3    H1 1419   3.778   5.142   3.715
  485TIP3    H2 1420   3.841   5.271   3.667
  486TIP3   OH2 1421   0.184   1.906   2.824
  486TIP3    H1 1422   0.114   1.971   2.839
  486TIP3    H2 1423   0.265   1.954   2.844
  487TIP3   OH2 1424   0.524   0.700   4.570
  487TIP3    H1 1425   0.483   0.687   4.656
  487TIP3    H2 1426   0.617   0.682   4.585
  488TIP3   OH2 1427   6.233   5.331   3.488
  488TIP3    H1 1428   6.275   5.303   3.569
  488TIP3    H2 1429   6.290   5.400   3.454
  489TIP3   OH2 1430   6.655   0.155   0.587
  489TIP3    H1 1431   6.684   0.204   0.663
  489TIP3    H2 1432   6.561   0.176   0.580
  490TIP3   OH2 1433   3.993   3.553   5.757
  490TIP3    H1 1434   3.904   3.562   5.723
  490TIP3    H2 1435   4.048   3.596   5.691
  491TIP3   OH2 1436   2.719   6.445   2.452
  491TIP3    H1 1437   2.654   6.494   2.402
  491TIP3    H2 1438   2.672   6.368   2.485
  492TIP3   OH2 1439   3.285   5.974   5.357
  492TIP3    H1 1440   3.255   5.929   5.278
  492TIP3    H2 1441   3.267   6.067   5.341
  493TIP3   OH2 1442   1.760   3.439   5.349
  493TIP3    H1 1443   1.845   3.449   5.306
  493TIP3    H2 1444   1.712   3.379   5.292
  494TIP3   OH2 1445   3.681   1.998   4.104
  494TIP3    H1 1446   3.623   2.013   4.030
  494TIP3    H2 1447   3.753   2.060   4.091
  495TIP3   OH2 1448   5.757   5.187   0.478
  495TIP3    H1 1449   5.755   5.171   0.384
  495TIP3    H2 1450   5.707   5.267   0.490
  496TIP3   OH2 1451   0.341   1.029  -0.025
  496TIP3    H1 1452   0.323   0.936  -0.026
  496TIP3    H2 1453   0.425   1.037   0.021
  497TIP3   OH2 1454   1.445   1.682   2.767
  497TIP3    H1 1455   1.491   1.690   2.683
  497TIP3    H2 1456   1.483   1.751   2.822
  498TIP3   OH2 1457   1.327   5.646   2.839
  498TIP3    H1 1458   1.379   5.634   2.760
  498TIP3    H2 1459   1.251   5.698   2.810
  499TIP3   OH2 1460   0.233   2.249   4.241
  499TIP3    H1 1461   0.169   2.184   4.270
  499TIP3    H2 1462   0.305   2.197   4.205
  500TIP3   OH2 1463   2.816   2.957   5.332
  500TIP3    H1 1464   2.892   2.901   5.315
  500TIP3    H2 1465   2.746   2.919   5.279
  501TIP3   OH2 1466   4.901   2.494   5.627
  501TIP3    H1 1467   4.807   2.489   5.642
  501TIP3    H2 1468   4.916   2.438   5.552
  502TIP3   OH2 1469   3.319   3.553   0.528
  502TIP3    H1 1470   3.243   3.499   0.546
  502TIP3    H2 1471   3.377   3.540   0.604
  503TIP3   OH2 1472   1.694   4.572   5.759
  503TIP3    H1 1473   1.690   4.545   5.850
  503TIP3    H2 1474   1.736   4.658   5.762
  504TIP3   OH2 1475   3.597   3.169   1.669
  504TIP3    H1 1476   3.640   3.253   1.685
  504TIP3    H2 1477   3.529   3.188   1.604
  505TIP3   OH2 1478   2.714   5.366   4.449
  505TIP3    H1 1479   2.758   5.437   4.496
  505TIP3    H2 1480   2.660   5.323   4.516
  506TIP3   OH2 1481   0.835   1.908   1.513
  506TIP3    H1 1482   0.896   1.972   1.549
  506TIP3    H2 1483   0.786   1.876   1.589
  507TIP3   OH2 1484   2.492   2.629   1.322
  507TIP3    H1 1485   2.486   2.533   1.318
  507TIP3    H2 1486   2.444   2.653   1.400
  508TIP3   OH2 1487   3.577   2.141   0.179
  508TIP3    H1 1488   3.595   2.132   0.086
  508TIP3    H2 1489   3.653   2.102   0.222
  509TIP3   OH2 1490   5.217   4.347   3.087
  509TIP3    H1 1491   5.162   4.330   3.163
  509TIP3    H2 1492   5.293   4.393   3.122
  510TIP3   OH2 1493   2.059   6.577   1.165
  510TIP3    H1 1494   2.048   6.557   1.258
  510TIP3    H2 1495   1.970   6.580   1.130
  511TIP3   OH2 1496   3.013   6.588   1.521
  511TIP3    H1 1497   2.924   6.572   1.491
  511TIP3    H2 1498   3.002   6.618   1.612
  512TIP3   OH2 1499   6.399   3.469   0.426
  512TIP3    H1 1500   6.482   3.428   0.451
  512TIP3    H2 1501   6.421   3.522   0.349
  513TIP3   OH2 1502   3.839   2.399   0.710
  513TIP3    H1 1503   3.751   2.399   0.748
  513TIP3    H2 1504   3.825   2.376   0.618
  514TIP3   OH2 1505   3.306   1.530   5.595
  514TIP3    H1 1506   3.378   1.467   5.600
  514TIP3    H2 1507   3.288   1.554   5.686
  515TIP3   OH2 1508   3.084   2.119   3.793
  515TIP3    H1 1509   3.089   2.206   3.832
  515TIP3    H2 1510   3.029   2.130   3.716
  516TIP3   OH2 1511   2.322   4.711   3.490
  516TIP3    H1 1512   2.301   4.744   3.403
  516TIP3    H2 1513   2.237   4.699   3.532
  517TIP3   OH2 1514   1.897   2.677   5.668
  517TIP3    H1 1515   1.808   2.643   5.681
  517TIP3    H2 1516   1.884   2.762   5.627
  518TIP3   OH2 1517   3.655   0.701   3.717
  518TIP3    H1 1518   3.690   0.659   3.639
  518TIP3    H2 1519   3.592   0.765   3.684
  519TIP3   OH2 1520   3.184   4.127   0.473
  519TIP3    H1 1521   3.195   4.033   0.489
  519TIP3    H2 1522   3.254   4.168   0.523
  520TIP3   OH2 1523   5.169   3.197   2.144
  520TIP3    H1 1524   5.133   3.239   2.222
  520TIP3    H2 1525   5.254   3.163   2.172
  521TIP3   OH2 1526   0.524   1.858   0.071
  521TIP3    H1 1527   0.585   1.931   0.067
  521TIP3    H2 1528   0.443   1.896   0.106
  522TIP3   OH2 1529   3.636   1.477   3.041
  522TIP3    H1 1530   3.697   1.467   3.113
  522TIP3    H2 1531   3.687   1.516   2.970
  523TIP3   OH2 1532   1.590   3.307   2.367
  523TIP3    H1 1533   1.637   3.379   2.410
  523TIP3    H2 1534   1.623   3.228   2.410
  524TIP3   OH2 1535   6.682   1.740   1.598
  524TIP3    H1 1536   6.672   1.689   1.518
  524TIP3    H2 1537   6.628   1.694   1.663
  525TIP3   OH2 1538   3.299   2.656   2.852
  525TIP3    H1 1539   3.219   2.649   2.800
  525TIP3    H2 1540   3.287   2.736   2.904
  526TIP3   OH2 1541   0.924   5.563   3.981
  526TIP3    H1 1542   0.952   5.655   3.982
  526TIP3    H2 1543   0.914   5.542   3.889
  527TIP3   OH2 1544   4.471   5.050   0.365
  527TIP3    H1 1545   4.515   5.058   0.281
  527TIP3    H2 1546   4.515   4.978   0.409
  528TIP3   OH2 1547   2.355   2.928   1.532
  528TIP3    H1 1548   2.386   2.852   1.581
  528TIP3    H2 1549   2.428   2.951   1.475
  529TIP3   OH2 1550   6.748   1.918   0.477
  529TIP3    H1 1551   6.813   1.937   0.545
  529TIP3    H2 1552   6.665   1.950   0.513
  530TIP3   OH2 1553   4.110   0.616   2.131
  530TIP3    H1 1554   4.203   0.631   2.148
  530TIP3    H2 1555   4.082   0.695   2.085
  531TIP3   OH2 1556   7.127   0.253   1.310
  531TIP3    H1 1557   7.109   0.170   1.266
  531TIP3    H2 1558   7.094   0.240   1.399
  532TIP3   OH2 1559   0.588   1.824   4.777
  532TIP3    H1 1560   0.536   1.824   4.857
  532TIP3    H2 1561   0.524   1.828   4.706
  533TIP3   OH2 1562   6.667   3.154   3.020
  533TIP3    H1 1563   6.585   3.148   3.068
  533TIP3    H2 1564   6.721   3.083   3.054
  534TIP3   OH2 1565   1.197   5.062   3.686
  534TIP3    H1 1566   1.247   5.124   3.632
  534TIP3    H2 1567   1.229   4.976   3.658
  535TIP3   OH2 1568   3.122   5.389   4.816
  535TIP3    H1 1569   3.055   5.328   4.847
  535TIP3    H2 1570   3.205   5.347   4.838
  536TIP3   OH2 1571   4.869   4.383   1.416
  536TIP3    H1 1572   4.913   4.308   1.457
  536TIP3    H2 1573   4.803   4.409   1.480
  537TIP3   OH2 1574   3.385   6.283   0.753
  537TIP3    H1 1575   3.362   6.327   0.835
  537TIP3    H2 1576   3.305   6.288   0.700
  538TIP3   OH2 1577   7.124   2.931   4.944
  538TIP3    H1 1578   7.161   2.937   5.032
  538TIP3    H2 1579   7.044   2.879   4.956
  539TIP3   OH2 1580   1.118   4.759   5.210
  539TIP3    H1 1581   1.178   4.697   5.252
  539TIP3    H2 1582   1.072   4.706   5.145
  540TIP3   OH2 1583   6.918   4.082   2.319
  540TIP3    H1 1584   7.003   4.044   2.342
  540TIP3    H2 1585   6.918   4.086   2.224
  541TIP3   OH2 1586   5.369   2.915   5.582
  541TIP3    H1 1587   5.358   2.863   5.502
  541TIP3    H2 1588   5.463   2.920   5.595
  542TIP3   OH2 1589   5.797   3.928   4.822
  542TIP3    H1 1590   5.823   3.838   4.843
  542TIP3    H2 1591   5.816   3.938   4.729
  543TIP3   OH2 1592   3.862   0.220   5.486
  543TIP3    H1 1593   3.883   0.150   5.424
  543TIP3    H2 1594   3.828   0.291   5.430
  544TIP3   OH2 1595   3.453   0.949   1.749
  544TIP3    H1 1596   3.408   0.957   1.665
  544TIP3    H2 1597   3.456   0.855   1.767
  545TIP3   OH2 1598   6.741   5.261   3.830
  545TIP3    H1 1599   6.753   5.195   3.762
  545TIP3    H2 1600   6.813   5.245   3.892
  546TIP3   OH2 1601   4.838   1.803   0.419
  546TIP3    H1 1602   4.744   1.817   0.410
  546TIP3    H2 1603   4.867   1.872   0.479
  547TIP3   OH2 1604   4.527   6.567   4.080
  547TIP3    H1 1605   4.574   6.557   4.163
  547TIP3    H2 1606   4.508   6.477   4.053
  548TIP3   OH2 1607   6.946   2.323   0.628
  548TIP3    H1 1608   7.013   2.334   0.561
  548TIP3    H2 1609   6.903   2.240   0.606
  549TIP3   OH2 1610   0.482   5.943   4.154
  549TIP3    H1 1611   0.526   5.870   4.198
  549TIP3    H2 1612   0.416   5.972   4.216
  550TIP3   OH2 1613   5.951   6.446   3.442
  550TIP3    H1 1614   5.991   6.500   3.510
  550TIP3    H2 1615   5.939   6.361   3.483
  551TIP3   OH2 1616   4.684   1.813   0.705
  551TIP3    H1 1617   4.644   1.819   0.618
  551TIP3    H2 1618   4.641   1.883   0.755
  552TIP3   OH2 1619   2.669   3.815   3.315
  552TIP3    H1 1620   2.745   3.769   3.278
  552TIP3    H2 1621   2.619   3.844   3.238
  553TIP3   OH2 1622   0.225   3.321   3.906
  553TIP3    H1 1623   0.166   3.257   3.867
  553TIP3    H2 1624   0.171   3.367   3.971
  554TIP3   OH2 1625   3.436   1.107   1.368
  554TIP3    H1 1626   3.377   1.040   1.404
  554TIP3    H2 1627   3.518   1.095   1.415
  555TIP3   OH2 1628   1.793   1.517   5.601
  555TIP3    H1 1629   1.876   1.562   5.618
  555TIP3    H2 1630   1.728   1.566   5.652
  556TIP3   OH2 1631   6.371   2.466   3.346
  556TIP3    H1 1632   6.356   2.396   3.283
  556TIP3    H2 1633   6.403   2.540   3.294
  557TIP3   OH2 1634   7.045   4.364   2.138
  557TIP3    H1 1635   7.011   4.297   2.079
  557TIP3    H2 1636   7.116   4.320   2.185
  558TIP3   OH2 1637   4.967   2.513   4.017
  558TIP3    H1 1638   5.019   2.465   4.081
  558TIP3    H2 1639   4.885   2.463   4.010
  559TIP3   OH2 1640   4.070   3.965   0.584
  559TIP3    H1 1641   4.008   3.973   0.657
  559TIP3    H2 1642   4.014   3.956   0.506
  560TIP3   OH2 1643   5.147   1.482   5.706
  560TIP3    H1 1644   5.159   1.550   5.772
  560TIP3    H2 1645   5.228   1.484   5.655
  561TIP3   OH2 1646   2.469   3.640   5.587
  561TIP3    H1 1647   2.415   3.679   5.656
  561TIP3    H2 1648   2.540   3.702   5.574
  562TIP3   OH2 1649   6.441   3.796   2.263
  562TIP3    H1 1650   6.494   3.768   2.189
  562TIP3    H2 1651   6.491   3.768   2.340
  563TIP3   OH2 1652   0.785   4.019   1.888
  563TIP3    H1 1653   0.840   4.064   1.953
  563TIP3    H2 1654   0.818   3.930   1.885
  564TIP3   OH2 1655   6.552   1.102   4.775
  564TIP3    H1 1656   6.613   1.060   4.836
  564TIP3    H2 1657   6.582   1.193   4.771
  565TIP3   OH2 1658   2.747   6.750   5.107
  565TIP3    H1 1659   2.820   6.690   5.095
  565TIP3    H2 1660   2.686   6.704   5.164
  566TIP3   OH2 1661   1.026   3.822   1.226
  566TIP3    H1 1662   0.969   3.747   1.245
  566TIP3    H2 1663   0.966   3.896   1.214
  567TIP3   OH2 1664   6.806   5.219   5.081
  567TIP3    H1 1665   6.748   5.145   5.066
  567TIP3    H2 1666   6.748   5.295   5.091
  568TIP3   OH2 1667   5.309   1.973   2.041
  568TIP3    H1 1668   5.358   2.034   2.096
  568TIP3    H2 1669   5.221   2.011   2.036
  569TIP3   OH2 1670   3.677   2.530   5.617
  569TIP3    H1 1671   3.631   2.604   5.578
  569TIP3    H2 1672   3.751   2.570   5.664
  570TIP3   OH2 1673   4.135   4.194   3.755
  570TIP3    H1 1674   4.126   4.105   3.790
  570TIP3    H2 1675   4.045   4.225   3.748
  571TIP3   OH2 1676   2.992   5.405   0.487
  571TIP3    H1 1677   2.918   5.345   0.473
  571TIP3    H2 1678   3.059   5.374   0.425
  572TIP3   OH2 1679   1.829   6.735   1.473
  572TIP3    H1 1680   1.787   6.811   1.434
  572TIP3    H2 1681   1.797   6.734   1.564
  573TIP3   OH2 1682   4.895   5.549   3.230
  573TIP3    H1 1683   4.984   5.527   3.201
  573TIP3    H2 1684   4.849   5.572   3.150
  574TIP3   OH2 1685   3.089   1.522   1.985
  574TIP3    H1 1686   3.052   1.607   2.007
  574TIP3    H2 1687   3.105   1.526   1.891
  575TIP3   OH2 1688   2.361   2.475   2.507
  575TIP3    H1 1689   2.338   2.392   2.548
  575TIP3    H2 1690   2.431   2.454   2.446
  576TIP3   OH2 1691   6.082   2.334   1.831
  576TIP3    H1 1692   6.152   2.315   1.894
  576TIP3    H2 1693   6.086   2.262   1.768
  577TIP3   OH2 1694   1.348   2.992   3.621
  577TIP3    H1 1695   1.267   3.039   3.641
  577TIP3    H2 1696   1.328   2.901   3.644
  578TIP3   OH2 1697   5.438   3.760   0.513
  578TIP3    H1 1698   5.517   3.707   0.524
  578TIP3    H2 1699   5.454   3.812   0.435
  579TIP3   OH2 1700   3.987   0.815   4.198
  579TIP3    H1 1701   3.938   0.831   4.279
  579TIP3    H2 1702   3.919   0.802   4.132
  580TIP3   OH2 1703   1.175   5.908   1.714
  580TIP3    H1 1704   1.150   5.978   1.775
  580TIP3    H2 1705   1.145   5.828   1.756
  581TIP3   OH2 1706   3.378   1.728   1.065
  581TIP3    H1 1707   3.438   1.706   1.136
  581TIP3    H2 1708   3.346   1.643   1.033
  582TIP3   OH2 1709   5.717   3.549   3.681
  582TIP3    H1 1710   5.691   3.464   3.715
  582TIP3    H2 1711   5.647   3.608   3.708
  583TIP3   OH2 1712   1.304   5.742   1.365
  583TIP3    H1 1713   1.276   5.664   1.317
  583TIP3    H2 1714   1.343   5.708   1.446
  584TIP3   OH2 1715   0.901   3.137   3.010
  584TIP3    H1 1716   0.944   3.076   2.951
  584TIP3    H2 1717   0.883   3.085   3.089
  585TIP3   OH2 1718   0.594   2.001   1.789
  585TIP3    H1 1719   0.613   1.915   1.827
  585TIP3    H2 1720   0.616   2.063   1.859
  586TIP3   OH2 1721   1.495   2.756   0.895
  586TIP3    H1 1722   1.436   2.733   0.823
  586TIP3    H2 1723   1.574   2.704   0.879
  587TIP3   OH2 1724   1.657   6.759   0.364
  587TIP3    H1 1725   1.637   6.730   0.453
  587TIP3    H2 1726   1.728   6.822   0.374
  588TIP3   OH2 1727   0.565   3.109   1.261
  588TIP3    H1 1728   0.509   3.038   1.291
  588TIP3    H2 1729   0.618   3.133   1.337
  589TIP3   OH2 1730   1.578   3.044   2.684
  589TIP3    H1 1731   1.563   3.095   2.763
  589TIP3    H2 1732   1.584   2.954   2.714
  590TIP3   OH2 1733   0.800   6.384   2.150
  590TIP3    H1 1734   0.878   6.430   2.118
  590TIP3    H2 1735   0.828   6.293   2.158
  591TIP3   OH2 1736   4.400   3.916   3.478
  591TIP3    H1 1737   4.318   3.963   3.459
  591TIP3    H2 1738   4.378   3.858   3.551
  592TIP3   OH2 1739   3.974   6.536   3.121
  592TIP3    H1 1740   4.044   6.578   3.171
  592TIP3    H2 1741   3.963   6.591   3.044
  593TIP3   OH2 1742   4.246   5.907   1.264
  593TIP3    H1 1743   4.173   5.940   1.212
  593TIP3    H2 1744   4.208   5.837   1.316
  594TIP3   OH2 1745   1.785   1.358   5.865
  594TIP3    H1 1746   1.698   1.353   5.824
  594TIP3    H2 1747   1.834   1.286   5.827
  595TIP3   OH2 1748   4.819   4.807   0.430
  595TIP3    H1 1749   4.855   4.740   0.372
  595TIP3    H2 1750   4.726   4.787   0.436
  596TIP3   OH2 1751   4.262   6.032   5.177
  596TIP3    H1 1752   4.305   5.950   5.153
  596TIP3    H2 1753   4.322   6.073   5.239
  597TIP3   OH2 1754   2.230   6.646   2.723
  597TIP3    H1 1755   2.256   6.646   2.631
  597TIP3    H2 1756   2.246   6.736   2.752
  598TIP3   OH2 1757   0.942   4.478   3.907
  598TIP3    H1 1758   0.968   4.570   3.893
  598TIP3    H2 1759   0.889   4.456   3.830
  599TIP3   OH2 1760   1.509   1.968   1.658
  599TIP3    H1 1761   1.487   1.934   1.745
  599TIP3    H2 1762   1.587   2.021   1.672
  600TIP3   OH2 1763   6.146   2.080   5.261
  600TIP3    H1 1764   6.180   1.992   5.244
  600TIP3    H2 1765   6.206   2.116   5.327
  601TIP3   OH2 1766   0.027   5.978   1.031
  601TIP3    H1 1767   0.032   5.911   0.964
  601TIP3    H2 1768   0.118   5.995   1.056
  602TIP3   OH2 1769   6.339   0.155   0.630
  602TIP3    H1 1770   6.320   0.061   0.631
  602TIP3    H2 1771   6.348   0.179   0.722
  603TIP3   OH2 1772   1.902   2.084   3.271
  603TIP3    H1 1773   1.929   2.042   3.353
  603TIP3    H2 1774   1.985   2.102   3.225
  604TIP3   OH2 1775   6.732   2.693   3.311
  604TIP3    H1 1776   6.811   2.728   3.269
  604TIP3    H2 1777   6.712   2.613   3.262
  605TIP3   OH2 1778   7.169   2.929   1.213
  605TIP3    H1 1779   7.186   2.943   1.120
  605TIP3    H2 1780   7.218   2.998   1.257
  606TIP3   OH2 1781   5.049   0.918   3.536
  606TIP3    H1 1782   5.037   0.837   3.488
  606TIP3    H2 1783   4.977   0.921   3.598
  607TIP3   OH2 1784   5.462   0.073   0.457
  607TIP3    H1 1785   5.545   0.048   0.417
  607TIP3    H2 1786   5.430   0.145   0.402
  608TIP3   OH2 1787   1.062   2.411   2.256
  608TIP3    H1 1788   0.993   2.345   2.271
  608TIP3    H2 1789   1.138   2.360   2.229
  609TIP3   OH2 1790   0.910   3.366   3.881
  609TIP3    H1 1791   1.000   3.379   3.909
  609TIP3    H2 1792   0.910   3.390   3.788
  610TIP3   OH2 1793   6.174   5.177   0.651
  610TIP3    H1 1794   6.153   5.111   0.718
  610TIP3    H2 1795   6.265   5.200   0.669
  611TIP3   OH2 1796   4.952   2.955   5.535
  611TIP3    H1 1797   4.984   3.030   5.587
  611TIP3    H2 1798   4.931   2.993   5.450
  612TIP3   OH2 1799   2.490   1.834   1.249
  612TIP3    H1 1800   2.427   1.782   1.300
  612TIP3    H2 1801   2.575   1.793   1.267
  613TIP3   OH2 1802   3.914   0.100   2.521
  613TIP3    H1 1803   3.984   0.055   2.474
  613TIP3    H2 1804   3.947   0.189   2.534
  614TIP3   OH2 1805   1.362   6.198   0.386
  614TIP3    H1 1806   1.448   6.218   0.422
  614TIP3    H2 1807   1.300   6.223   0.456
  615TIP3   OH2 1808   2.259   5.601   3.454
  615TIP3    H1 1809   2.261   5.618   3.359
  615TIP3    H2 1810   2.224   5.512   3.461
  616TIP3   OH2 1811   6.906   6.502   2.604
  616TIP3    H1 1812   6.854   6.492   2.525
  616TIP3    H2 1813   6.860   6.567   2.657
  617TIP3   OH2 1814   1.644   0.361   1.309
  617TIP3    H1 1815   1.563   0.389   1.352
  617TIP3    H2 1816   1.711   0.364   1.377
  618TIP3   OH2 1817   2.481   3.566   2.591
  618TIP3    H1 1818   2.411   3.630   2.599
  618TIP3    H2 1819   2.511   3.575   2.500
  619TIP3   OH2 1820   4.982   3.649   1.609
  619TIP3    H1 1821   4.999   3.598   1.688
  619TIP3    H2 1822   5.068   3.660   1.569
  620TIP3   OH2 1823   1.520   0.515   3.723
  620TIP3    H1 1824   1.528   0.597   3.772
  620TIP3    H2 1825   1.580   0.524   3.650
  621TIP3   OH2 1826   6.169   4.217   3.567
  621TIP3    H1 1827   6.152   4.218   3.661
  621TIP3    H2 1828   6.159   4.125   3.541
  622TIP3   OH2 1829   1.054   2.352   3.435
  622TIP3    H1 1830   1.085   2.436   3.467
  622TIP3    H2 1831   0.994   2.373   3.364
  623TIP3   OH2 1832   4.033   5.408   1.011
  623TIP3    H1 1833   3.947   5.431   1.045
  623TIP3    H2 1834   4.094   5.450   1.072
  624TIP3   OH2 1835   0.770   5.022   2.204
  624TIP3    H1 1836   0.842   5.013   2.266
  624TIP3    H2 1837   0.699   5.063   2.254
  625TIP3   OH2 1838   1.271   4.382   0.406
  625TIP3    H1 1839   1.350   4.380   0.461
  625TIP3    H2 1840   1.200   4.399   0.468
  626TIP3   OH2 1841   2.228   1.499   4.053
  626TIP3    H1 1842   2.284   1.427   4.083
  626TIP3    H2 1843   2.254   1.574   4.106
  627TIP3   OH2 1844   0.782   2.556   2.066
  627TIP3    H1 1845   0.834   2.592   1.994
  627TIP3    H2 1846   0.772   2.463   2.044
  628TIP3   OH2 1847   3.553   3.381   3.894
  628TIP3    H1 1848   3.480   3.322   3.913
  628TIP3    H2 1849   3.573   3.366   3.802
  629TIP3   OH2 1850   0.775   1.680   2.526
  629TIP3    H1 1851   0.798   1.770   2.551
  629TIP3    H2 1852   0.787   1.629   2.606
  630TIP3   OH2 1853   5.476   2.869   2.193
  630TIP3    H1 1854   5.449   2.956   2.222
  630TIP3    H2 1855   5.571   2.874   2.186
  631TIP3   OH2 1856   2.306   2.146   4.379
  631TIP3    H1 1857   2.371   2.186   4.436
  631TIP3    H2 1858   2.322   2.185   4.293
  632TIP3   OH2 1859   5.234   2.968   2.893
  632TIP3    H1 1860   5.265   3.058   2.902
  632TIP3    H2 1861   5.262   2.941   2.806
  633TIP3   OH2 1862   4.307   3.702   3.630
  633TIP3    H1 1863   4.217   3.674   3.611
  633TIP3    H2 1864   4.324   3.672   3.719
  634TIP3   OH2 1865   6.714   3.836   2.106
  634TIP3    H1 1866   6.692   3.926   2.129
  634TIP3    H2 1867   6.801   3.822   2.143
  635TIP3   OH2 1868   1.932   0.903   0.886
  635TIP3    H1 1869   1.988   0.840   0.842
  635TIP3    H2 1870   1.844   0.867   0.877
  636TIP3   OH2 1871   5.244   1.047   4.934
  636TIP3    H1 1872   5.151   1.045   4.911
  636TIP3    H2 1873   5.246   1.013   5.024
  637TIP3   OH2 1874   3.904   4.063   2.642
  637TIP3    H1 1875   3.897   4.046   2.548
  637TIP3    H2 1876   3.990   4.029   2.666
  638TIP3   OH2 1877   7.197   6.258   1.006
  638TIP3    H1 1878   7.242   6.247   0.922
  638TIP3    H2 1879   7.197   6.171   1.045
  639TIP3   OH2 1880   7.225   6.188   3.807
  639TIP3    H1 1881   7.178   6.142   3.738
  639TIP3    H2 1882   7.214   6.281   3.786
  640TIP3   OH2 1883   3.191   5.051   0.745
  640TIP3    H1 1884   3.266   5.059   0.686
  640TIP3    H2 1885   3.115   5.056   0.688
  641TIP3   OH2 1886   5.646   2.923   4.914
  641TIP3    H1 1887   5.606   2.946   4.997
  641TIP3    H2 1888   5.722   2.980   4.906
  642TIP3   OH2 1889   3.743   4.897   1.206
  642TIP3    H1 1890   3.791   4.835   1.151
  642TIP3    H2 1891   3.657   4.905   1.165
  643TIP3   OH2 1892   1.532   3.126   4.400
  643TIP3    H1 1893   1.599   3.091   4.341
  643TIP3    H2 1894   1.462   3.156   4.342
  644TIP3   OH2 1895   2.699   1.204   5.439
  644TIP3    H1 1896   2.738   1.236   5.520
  644TIP3    H2 1897   2.717   1.110   5.440
  645TIP3   OH2 1898   1.320   3.388   3.621
  645TIP3    H1 1899   1.269   3.465   3.596
  645TIP3    H2 1900   1.383   3.420   3.685
  646TIP3   OH2 1901   0.584   3.704   0.233
  646TIP3    H1 1902   0.626   3.725   0.149
  646TIP3    H2 1903   0.515   3.770   0.241
  647TIP3   OH2 1904   0.176   5.039   0.485
  647TIP3    H1 1905   0.259   5.010   0.524
  647TIP3    H2 1906   0.140   5.100   0.548
  648TIP3   OH2 1907   0.605   0.721   0.453
  648TIP3    H1 1908   0.604   0.733   0.548
  648TIP3    H2 1909   0.694   0.746   0.427
  649TIP3   OH2 1910   6.342   5.161   1.125
  649TIP3    H1 1911   6.307   5.240   1.084
  649TIP3    H2 1912   6.311   5.165   1.215
  650TIP3   OH2 1913   0.096   2.257   0.747
  650TIP3    H1 1914   0.162   2.289   0.685
  650TIP3    H2 1915   0.081   2.330   0.807
  651TIP3   OH2 1916   0.372   2.645   4.779
  651TIP3    H1 1917   0.296   2.666   4.833
  651TIP3    H2 1918   0.434   2.716   4.796
  652TIP3   OH2 1919   7.200   3.339   0.130
  652TIP3    H1 1920   7.255   3.345   0.208
  652TIP3    H2 1921   7.144   3.417   0.134
  653TIP3   OH2 1922   3.003   2.627   0.289
  653TIP3    H1 1923   3.007   2.670   0.374
  653TIP3    H2 1924   3.092   2.635   0.254
  654TIP3   OH2 1925   3.800   3.183   3.714
  654TIP3    H1 1926   3.887   3.222   3.728
  654TIP3    H2 1927   3.743   3.258   3.696
  655TIP3   OH2 1928   5.712   2.278   4.495
  655TIP3    H1 1929   5.643   2.262   4.560
  655TIP3    H2 1930   5.710   2.372   4.481
  656TIP3   OH2 1931   3.802   4.757   3.847
  656TIP3    H1 1932   3.737   4.760   3.918
  656TIP3    H2 1933   3.807   4.664   3.824
  657TIP3   OH2 1934   3.548   0.648   0.636
  657TIP3    H1 1935   3.603   0.724   0.653
  657TIP3    H2 1936   3.459   0.681   0.642
  658TIP3   OH2 1937   6.106   0.534   4.748
  658TIP3    H1 1938   6.175   0.593   4.778
  658TIP3    H2 1939   6.137   0.447   4.771
  659TIP3   OH2 1940   0.470   4.180   4.266
  659TIP3    H1 1941   0.415   4.113   4.306
  659TIP3    H2 1942   0.465   4.255   4.326
  660TIP3   OH2 1943   4.164   0.883   0.478
  660TIP3    H1 1944   4.131   0.914   0.393
  660TIP3    H2 1945   4.164   0.788   0.470
  661TIP3   OH2 1946   2.357   4.908   4.571
  661TIP3    H1 1947   2.314   4.993   4.559
  661TIP3    H2 1948   2.409   4.896   4.492
  662TIP3   OH2 1949   1.638   4.103   3.117
  662TIP3    H1 1950   1.631   4.066   3.205
  662TIP3    H2 1951   1.724   4.144   3.115
  663TIP3   OH2 1952   6.302   2.330   2.023
  663TIP3    H1 1953   6.288   2.377   2.105
  663TIP3    H2 1954   6.377   2.373   1.982
  664TIP3   OH2 1955   3.631   5.042   0.270
  664TIP3    H1 1956   3.648   5.062   0.178
  664TIP3    H2 1957   3.647   4.948   0.277
  665TIP3   OH2 1958   6.596   5.916   4.505
  665TIP3    H1 1959   6.586   5.833   4.550
  665TIP3    H2 1960   6.658   5.898   4.434
  666TIP3   OH2 1961   5.992   0.220   4.008
  666TIP3    H1 1962   5.946   0.296   4.043
  666TIP3    H2 1963   5.941   0.145   4.038
  667TIP3   OH2 1964   1.556   2.876   5.166
  667TIP3    H1 1965   1.603   2.800   5.200
  667TIP3    H2 1966   1.624   2.938   5.140
  668TIP3   OH2 1967   3.088   2.087   0.193
  668TIP3    H1 1968   3.153   2.145   0.154
  668TIP3    H2 1969   3.003   2.125   0.167
  669TIP3   OH2 1970   6.575   2.517   2.564
  669TIP3    H1 1971   6.584   2.441   2.506
  669TIP3    H2 1972   6.485   2.546   2.551
  670TIP3   OH2 1973   2.844   2.406   2.283
  670TIP3    H1 1974   2.901   2.446   2.218
  670TIP3    H2 1975   2.896   2.407   2.364
  671TIP3   OH2 1976   6.213   6.665   0.843
  671TIP3    H1 1977   6.257   6.591   0.802
  671TIP3    H2 1978   6.144   6.689   0.781
  672TIP3   OH2 1979   2.654   2.681   3.902
  672TIP3    H1 1980   2.617   2.753   3.953
  672TIP3    H2 1981   2.740   2.665   3.941
  673TIP3   OH2 1982   4.681   1.730   1.341
  673TIP3    H1 1983   4.708   1.821   1.338
  673TIP3    H2 1984   4.739   1.689   1.406
  674TIP3   OH2 1985   2.364   1.817   0.026
  674TIP3    H1 1986   2.366   1.822   0.122
  674TIP3    H2 1987   2.448   1.780   0.002
  675TIP3   OH2 1988   2.371   6.271   4.639
  675TIP3    H1 1989   2.329   6.264   4.724
  675TIP3    H2 1990   2.302   6.304   4.581
  676TIP3   OH2 1991   2.158   4.610   0.695
  676TIP3    H1 1992   2.077   4.644   0.657
  676TIP3    H2 1993   2.189   4.545   0.632
  677TIP3   OH2 1994   4.281   1.978   0.150
  677TIP3    H1 1995   4.191   1.988   0.118
  677TIP3    H2 1996   4.330   1.948   0.073
  678TIP3   OH2 1997   4.076   5.063   2.848
  678TIP3    H1 1998   3.985   5.093   2.843
  678TIP3    H2 1999   4.104   5.086   2.937
  679TIP3   OH2 2000   0.661   1.043   0.788
  679TIP3    H1 2001   0.734   1.023   0.847
  679TIP3    H2 2002   0.604   1.101   0.838
  680TIP3   OH2 2003   1.384   3.995   2.261
  680TIP3    H1 2004   1.437   3.916   2.266
  680TIP3    H2 2005   1.303   3.968   2.218
  681TIP3   OH2 2006   3.429   1.942   4.995
  681TIP3    H1 2007   3.406   2.028   5.029
  681TIP3    H2 2008   3.521   1.931   5.019
  682TIP3   OH2 2009   0.647   5.584   2.984
  682TIP3    H1 2010   0.657   5.671   2.945
  682TIP3    H2 2011   0.688   5.590   3.070
  683TIP3   OH2 2012   2.922   2.977   2.733
  683TIP3    H1 2013   2.949   3.067   2.713
  683TIP3    H2 2014   2.826   2.981   2.736
  684TIP3   OH2 2015   0.420   2.145   3.906
  684TIP3    H1 2016   0.439   2.217   3.846
  684TIP3    H2 2017   0.472   2.165   3.984
  685TIP3   OH2 2018   6.959   1.033   1.542
  685TIP3    H1 2019   6.907   1.018   1.463
  685TIP3    H2 2020   6.924   1.114   1.579
  686TIP3   OH2 2021   3.938   3.739   2.201
  686TIP3    H1 2022   4.024   3.710   2.232
  686TIP3    H2 2023   3.876   3.708   2.267
  687TIP3   OH2 2024   2.578   5.381   3.560
  687TIP3    H1 2025   2.552   5.414   3.474
  687TIP3    H2 2026   2.495   5.372   3.607
  688TIP3   OH2 2027   5.133   5.256   2.286
  688TIP3    H1 2028   5.074   5.242   2.360
  688TIP3    H2 2029   5.131   5.174   2.238
  689TIP3   OH2 2030   5.108   6.006   3.471
  689TIP3    H1 2031   5.173   5.957   3.520
  689TIP3    H2 2032   5.070   6.067   3.534
  690TIP3   OH2 2033   0.905   0.111   1.475
  690TIP3    H1 2034   0.992   0.104   1.515
  690TIP3    H2 2035   0.879   0.020   1.459
  691TIP3   OH2 2036   6.222   5.895   1.968
  691TIP3    H1 2037   6.301   5.948   1.961
  691TIP3    H2 2038   6.252   5.805   1.967
  692TIP3   OH2 2039   1.976   1.868   2.216
  692TIP3    H1 2040   1.928   1.823   2.286
  692TIP3    H2 2041   1.960   1.961   2.232
  693TIP3   OH2 2042   0.925   3.774   1.950
  693TIP3    H1 2043   0.959   3.709   2.011
  693TIP3    H2 2044   1.003   3.813   1.911
  694TIP3   OH2 2045   6.861   4.282   1.193
  694TIP3    H1 2046   6.950   4.316   1.203
  694TIP3    H2 2047   6.838   4.252   1.281
  695TIP3   OH2 2048   3.539   2.020   0.602
  695TIP3    H1 2049   3.560   2.113   0.593
  695TIP3    H2 2050   3.489   1.999   0.524
  696TIP3   OH2 2051   0.851   0.318   1.291
  696TIP3    H1 2052   0.763   0.287   1.315
  696TIP3    H2 2053   0.910   0.247   1.318
  697TIP3   OH2 2054   2.591   0.185   2.438
  697TIP3    H1 2055   2.650   0.156   2.508
  697TIP3    H2 2056   2.584   0.110   2.379
  698TIP3   OH2 2057   4.416   5.489   1.469
  698TIP3    H1 2058   4.415   5.560   1.532
  698TIP3    H2 2059   4.328   5.452   1.472
  699TIP3   OH2 2060   3.957   4.080   1.911
  699TIP3    H1 2061   3.910   4.152   1.954
  699TIP3    H2 2062   4.025   4.056   1.974
  700TIP3   OH2 2063   0.655   2.048   4.525
  700TIP3    H1 2064   0.710   1.973   4.545
  700TIP3    H2 2065   0.649   2.097   4.606
  701TIP3   OH2 2066   4.726   0.074   5.018
  701TIP3    H1 2067   4.709   0.168   5.019
  701TIP3    H2 2068   4.787   0.061   4.945
  702TIP3   OH2 2069   3.370   2.894   2.171
  702TIP3    H1 2070   3.443   2.884   2.110
  702TIP3    H2 2071   3.408   2.938   2.248
  703TIP3   OH2 2072   4.031   5.551   0.545
  703TIP3    H1 2073   4.006   5.638   0.514
  703TIP3    H2 2074   3.955   5.497   0.527
  704TIP3   OH2 2075   4.847   2.286   1.332
  704TIP3    H1 2076   4.824   2.360   1.389
  704TIP3    H2 2077   4.888   2.327   1.256
  705TIP3   OH2 2078   5.517   0.427   3.906
  705TIP3    H1 2079   5.589   0.364   3.914
  705TIP3    H2 2080   5.477   0.407   3.822
  706TIP3   OH2 2081   4.184   2.666   2.929
  706TIP3    H1 2082   4.150   2.729   2.866
  706TIP3    H2 2083   4.277   2.686   2.936
  707TIP3   OH2 2084   2.923   4.391   3.725
  707TIP3    H1 2085   2.902   4.454   3.656
  707TIP3    H2 2086   2.838   4.363   3.759
  708TIP3   OH2 2087   6.954   1.122   5.670
  708TIP3    H1 2088   6.951   1.155   5.581
  708TIP3    H2 2089   6.862   1.115   5.696
  709TIP3   OH2 2090   5.807   1.321   3.422
  709TIP3    H1 2091   5.773   1.393   3.369
  709TIP3    H2 2092   5.764   1.331   3.506
  710TIP3   OH2 2093   3.020   5.274   3.565
  710TIP3    H1 2094   3.017   5.205   3.631
  710TIP3    H2 2095   2.959   5.341   3.597
  711TIP3   OH2 2096   6.441   3.257   0.787
  711TIP3    H1 2097   6.470   3.343   0.818
  711TIP3    H2 2098   6.486   3.246   0.704
  712TIP3   OH2 2099   2.798   1.908   3.251
  712TIP3    H1 2100   2.777   1.936   3.340
  712TIP3    H2 2101   2.806   1.990   3.202
  713TIP3   OH2 2102   5.037   2.435   5.023
  713TIP3    H1 2103   5.088   2.357   5.045
  713TIP3    H2 2104   4.964   2.402   4.970
  714TIP3   OH2 2105   4.962   5.725   1.123
  714TIP3    H1 2106   5.016   5.803   1.116
  714TIP3    H2 2107   4.894   5.747   1.186
  715TIP3   OH2 2108   3.826   1.724   5.231
  715TIP3    H1 2109   3.766   1.792   5.199
  715TIP3    H2 2110   3.768   1.653   5.259
  716TIP3   OH2 2111   2.491   5.941   1.387
  716TIP3    H1 2112   2.506   5.863   1.333
  716TIP3    H2 2113   2.396   5.949   1.391
  717TIP3   OH2 2114   4.940   0.157   2.908
  717TIP3    H1 2115   4.932   0.101   2.831
  717TIP3    H2 2116   5.029   0.191   2.904
  718TIP3   OH2 2117   3.916   6.577   0.494
  718TIP3    H1 2118   3.962   6.509   0.542
  718TIP3    H2 2119   3.982   6.643   0.475
  719TIP3   OH2 2120   1.964   3.968   5.351
  719TIP3    H1 2121   2.034   3.995   5.290
  719TIP3    H2 2122   1.929   3.888   5.313
  720TIP3   OH2 2123   6.515   4.801   3.730
  720TIP3    H1 2124   6.551   4.712   3.732
  720TIP3    H2 2125   6.589   4.857   3.754
  721TIP3   OH2 2126   6.186   4.135   4.902
  721TIP3    H1 2127   6.103   4.175   4.928
  721TIP3    H2 2128   6.191   4.148   4.807
  722TIP3   OH2 2129   0.915   1.764   0.659
  722TIP3    H1 2130   0.952   1.698   0.717
  722TIP3    H2 2131   0.968   1.759   0.579
  723TIP3   OH2 2132   2.050   5.661   0.641
  723TIP3    H1 2133   1.998   5.722   0.693
  723TIP3    H2 2134   1.990   5.590   0.619
  724TIP3   OH2 2135   3.109   6.473   4.190
  724TIP3    H1 2136   3.084   6.409   4.124
  724TIP3    H2 2137   3.026   6.515   4.215
  725TIP3   OH2 2138   7.126   3.040   4.035
  725TIP3    H1 2139   7.181   2.967   4.006
  725TIP3    H2 2140   7.045   3.031   3.985
  726TIP3   OH2 2141   6.614   4.105   1.912
  726TIP3    H1 2142   6.579   4.076   1.996
  726TIP3    H2 2143   6.579   4.193   1.901
  727TIP3   OH2 2144   4.741   6.594   3.155
  727TIP3    H1 2145   4.757   6.527   3.089
  727TIP3    H2 2146   4.645   6.601   3.160
  728TIP3   OH2 2147   3.509   5.890   2.051
  728TIP3    H1 2148   3.578   5.949   2.081
  728TIP3    H2 2149   3.556   5.815   2.014
  729TIP3   OH2 2150   0.461   0.752   0.240
  729TIP3    H1 2151   0.513   0.747   0.321
  729TIP3    H2 2152   0.426   0.841   0.240
  730TIP3   OH2 2153   1.034   1.657   0.137
  730TIP3    H1 2154   1.028   1.579   0.082
  730TIP3    H2 2155   0.950   1.701   0.125
  731TIP3   OH2 2156   5.933   3.205   3.903
  731TIP3    H1 2157   5.897   3.209   3.992
  731TIP3    H2 2158   5.857   3.199   3.846
  732TIP3   OH2 2159   3.301   2.365   4.148
  732TIP3    H1 2160   3.262   2.289   4.192
  732TIP3    H2 2161   3.376   2.328   4.100
  733TIP3   OH2 2162   3.341   3.244   1.528
  733TIP3    H1 2163   3.272   3.311   1.533
  733TIP3    H2 2164   3.335   3.210   1.439
  734TIP3   OH2 2165   0.980   4.341   1.069
  734TIP3    H1 2166   0.933   4.367   1.148
  734TIP3    H2 2167   0.971   4.415   1.010
  735TIP3   OH2 2168   4.960   6.619   4.881
  735TIP3    H1 2169   4.872   6.584   4.887
  735TIP3    H2 2170   5.013   6.546   4.850
  736TIP3   OH2 2171   0.811   3.976   2.233
  736TIP3    H1 2172   0.899   4.014   2.233
  736TIP3    H2 2173   0.820   3.895   2.284
  737TIP3   OH2 2174   1.523   1.361   0.231
  737TIP3    H1 2175   1.489   1.299   0.295
  737TIP3    H2 2176   1.584   1.416   0.280
  738TIP3   OH2 2177   2.385   3.201   3.593
  738TIP3    H1 2178   2.354   3.122   3.638
  738TIP3    H2 2179   2.429   3.169   3.515
  739TIP3   OH2 2180   2.335   5.597   3.188
  739TIP3    H1 2181   2.359   5.580   3.096
  739TIP3    H2 2182   2.394   5.667   3.215
  740TIP3   OH2 2183   6.858   2.938   3.149
  740TIP3    H1 2184   6.872   2.863   3.091
  740TIP3    H2 2185   6.926   3.001   3.124
  741TIP3   OH2 2186   2.017   1.903   3.481
  741TIP3    H1 2187   2.079   1.853   3.428
  741TIP3    H2 2188   1.949   1.841   3.505
  742TIP3   OH2 2189   1.583   5.003   2.052
  742TIP3    H1 2190   1.545   5.063   2.116
  742TIP3    H2 2191   1.646   4.951   2.103
  743TIP3   OH2 2192   5.782   2.354   3.474
  743TIP3    H1 2193   5.724   2.279   3.462
  743TIP3    H2 2194   5.864   2.327   3.433
  744TIP3   OH2 2195   6.434   5.262   0.703
  744TIP3    H1 2196   6.486   5.268   0.623
  744TIP3    H2 2197   6.466   5.183   0.747
  745TIP3   OH2 2198   6.217   0.233   4.174
  745TIP3    H1 2199   6.132   0.246   4.130
  745TIP3    H2 2200   6.264   0.172   4.117
  746TIP3   OH2 2201   6.476   3.611   0.218
  746TIP3    H1 2202   6.427   3.693   0.226
  746TIP3    H2 2203   6.484   3.597   0.124
  747TIP3   OH2 2204   1.579   6.427   1.551
  747TIP3    H1 2205   1.585   6.337   1.582
  747TIP3    H2 2206   1.543   6.476   1.625
  748TIP3   OH2 2207   6.300   4.880   4.906
  748TIP3    H1 2208   6.371   4.893   4.843
  748TIP3    H2 2209   6.241   4.818   4.863
  749TIP3   OH2 2210   6.011   2.261   3.369
  749TIP3    H1 2211   6.099   2.223   3.368
  749TIP3    H2 2212   5.975   2.241   3.283
  750TIP3   OH2 2213   2.229   1.872   2.112
  750TIP3    H1 2214   2.140   1.848   2.137
  750TIP3    H2 2215   2.284   1.805   2.152
  751TIP3   OH2 2216   1.456   3.815   5.427
  751TIP3    H1 2217   1.363   3.827   5.447
  751TIP3    H2 2218   1.468   3.720   5.426
  752TIP3   OH2 2219   3.043   3.290   1.227
  752TIP3    H1 2220   3.108   3.307   1.158
  752TIP3    H2 2221   3.011   3.377   1.251
  753TIP3   OH2 2222   1.797   4.807   5.721
  753TIP3    H1 2223   1.817   4.879   5.780
  753TIP3    H2 2224   1.856   4.818   5.647
  754TIP3   OH2 2225   0.222   3.476   0.923
  754TIP3    H1 2226   0.252   3.546   0.981
  754TIP3    H2 2227   0.264   3.397   0.958
  755TIP3   OH2 2228   0.915   2.157   2.559
  755TIP3    H1 2229   1.009   2.173   2.562
  755TIP3    H2 2230   0.888   2.187   2.472
  756TIP3   OH2 2231   1.269   5.880   4.833
  756TIP3    H1 2232   1.186   5.833   4.838
  756TIP3    H2 2233   1.311   5.846   4.754
  757TIP3   OH2 2234   4.224   5.023   1.583
  757TIP3    H1 2235   4.249   5.089   1.647
  757TIP3    H2 2236   4.133   5.000   1.606
  758TIP3   OH2 2237   3.996   1.051   3.771
  758TIP3    H1 2238   3.921   1.012   3.815
  758TIP3    H2 2239   4.072   1.022   3.821
  759TIP3   OH2 2240   0.762   1.021   3.622
  759TIP3    H1 2241   0.776   1.115   3.608
  759TIP3    H2 2242   0.830   0.979   3.569
  760TIP3   OH2 2243   6.901   6.433   3.713
  760TIP3    H1 2244   6.829   6.374   3.733
  760TIP3    H2 2245   6.939   6.398   3.632
  761TIP3   OH2 2246   0.358   5.651   5.768
  761TIP3    H1 2247   0.453   5.658   5.765
  761TIP3    H2 2248   0.334   5.679   5.857
  762TIP3   OH2 2249   1.858   5.711   1.090
  762TIP3    H1 2250   1.933   5.727   1.033
  762TIP3    H2 2251   1.826   5.625   1.065
  763TIP3   OH2 2252   6.539   3.903   0.739
  763TIP3    H1 2253   6.489   3.857   0.806
  763TIP3    H2 2254   6.572   3.981   0.783
  764TIP3   OH2 2255   5.738   2.566   1.207
  764TIP3    H1 2256   5.761   2.547   1.116
  764TIP3    H2 2257   5.729   2.662   1.210
  765TIP3   OH2 2258   6.322   6.637   5.333
  765TIP3    H1 2259   6.232   6.667   5.318
  765TIP3    H2 2260   6.364   6.709   5.380
  766TIP3   OH2 2261   3.116   1.750   3.863
  766TIP3    H1 2262   3.160   1.813   3.920
  766TIP3    H2 2263   3.082   1.803   3.791
  767TIP3   OH2 2264   2.968   2.749   5.251
  767TIP3    H1 2265   3.058   2.752   5.219
  767TIP3    H2 2266   2.928   2.675   5.204
  768TIP3   OH2 2267   6.688   4.559   4.702
  768TIP3    H1 2268   6.718   4.567   4.793
  768TIP3    H2 2269   6.628   4.632   4.690
  769TIP3   OH2 2270   4.505   0.169   4.780
  769TIP3    H1 2271   4.430   0.161   4.722
  769TIP3    H2 2272   4.468   0.202   4.862
  770TIP3   OH2 2273   0.854   4.055   5.549
  770TIP3    H1 2274   0.803   4.134   5.566
  770TIP3    H2 2275   0.799   4.004   5.490
  771TIP3   OH2 2276   1.901   1.489   2.379
  771TIP3    H1 2277   1.990   1.485   2.343
  771TIP3    H2 2278   1.901   1.569   2.432
  772TIP3   OH2 2279   6.353   3.537   1.730
  772TIP3    H1 2280   6.330   3.478   1.802
  772TIP3    H2 2281   6.392   3.613   1.774
  773TIP3   OH2 2282   5.574   1.623   5.123
  773TIP3    H1 2283   5.626   1.674   5.185
  773TIP3    H2 2284   5.483   1.647   5.141
  774TIP3   OH2 2285   6.697   2.495   0.525
  774TIP3    H1 2286   6.620   2.440   0.512
  774TIP3    H2 2287   6.770   2.433   0.526
  775TIP3   OH2 2288   6.533   4.210   4.149
  775TIP3    H1 2289   6.580   4.131   4.177
  775TIP3    H2 2290   6.490   4.242   4.228
  776TIP3   OH2 2291   3.484   2.491   2.746
  776TIP3    H1 2292   3.567   2.534   2.727
  776TIP3    H2 2293   3.427   2.562   2.776
  777TIP3   OH2 2294   4.273   3.607   2.592
  777TIP3    H1 2295   4.318   3.523   2.601
  777TIP3    H2 2296   4.291   3.652   2.675
  778TIP3   OH2 2297   1.233   1.725   1.756
  778TIP3    H1 2298   1.148   1.769   1.762
  778TIP3    H2 2299   1.232   1.682   1.670
  779TIP3   OH2 2300   0.474   1.449   5.219
  779TIP3    H1 2301   0.524   1.528   5.239
  779TIP3    H2 2302   0.498   1.387   5.287
  780TIP3   OH2 2303   0.600   1.909   3.706
  780TIP3    H1 2304   0.657   1.961   3.764
  780TIP3    H2 2305   0.572   1.971   3.639
  781TIP3   OH2 2306   0.841   1.515   5.019
  781TIP3    H1 2307   0.819   1.490   4.930
  781TIP3    H2 2308   0.872   1.434   5.060
  782TIP3   OH2 2309   3.402   3.055   3.582
  782TIP3    H1 2310   3.309   3.053   3.605
  782TIP3    H2 2311   3.444   3.093   3.659
  783TIP3   OH2 2312   4.671   3.747   5.898
  783TIP3    H1 2313   4.718   3.709   5.823
  783TIP3    H2 2314   4.691   3.689   5.971
  784TIP3   OH2 2315   6.788   1.419   1.926
  784TIP3    H1 2316   6.846   1.480   1.880
  784TIP3    H2 2317   6.720   1.475   1.964
  785TIP3   OH2 2318   2.561   2.488   3.122
  785TIP3    H1 2319   2.591   2.431   3.050
  785TIP3    H2 2320   2.583   2.577   3.093
  786TIP3   OH2 2321   2.522   6.165   2.939
  786TIP3    H1 2322   2.506   6.249   2.894
  786TIP3    H2 2323   2.591   6.185   3.002
  787TIP3   OH2 2324   0.212   5.667   2.539
  787TIP3    H1 2325   0.204   5.723   2.616
  787TIP3    H2 2326   0.195   5.579   2.572
  788TIP3   OH2 2327   0.404   6.736   4.427
  788TIP3    H1 2328   0.354   6.672   4.378
  788TIP3    H2 2329   0.449   6.789   4.361
  789TIP3   OH2 2330   5.257   1.661   3.601
  789TIP3    H1 2331   5.346   1.692   3.619
  789TIP3    H2 2332   5.262   1.566   3.613
  790TIP3   OH2 2333   3.952   0.645   5.874
  790TIP3    H1 2334   3.961   0.663   5.968
  790TIP3    H2 2335   3.958   0.730   5.832
  791TIP3   OH2 2336   6.873   3.870   5.762
  791TIP3    H1 2337   6.968   3.857   5.761
  791TIP3    H2 2338   6.841   3.818   5.688
  792TIP3   OH2 2339   1.652   2.152   3.714
  792TIP3    H1 2340   1.591   2.200   3.770
  792TIP3    H2 2341   1.676   2.075   3.765
  793TIP3   OH2 2342   4.152   0.761   2.549
  793TIP3    H1 2343   4.221   0.821   2.577
  793TIP3    H2 2344   4.107   0.736   2.629
  794TIP3   OH2 2345   3.970   6.295   4.993
  794TIP3    H1 2346   4.033   6.315   5.063
  794TIP3    H2 2347   3.924   6.377   4.977
  795TIP3   OH2 2348   0.208   5.849   4.118
  795TIP3    H1 2349   0.198   5.915   4.049
  795TIP3    H2 2350   0.145   5.780   4.095
  796TIP3   OH2 2351   0.140   1.820   4.225
  796TIP3    H1 2352   0.184   1.736   4.234
  796TIP3    H2 2353   0.185   1.877   4.288
  797TIP3   OH2 2354   5.966   6.774   3.091
  797TIP3    H1 2355   6.034   6.714   3.062
  797TIP3    H2 2356   5.987   6.857   3.048
  798TIP3   OH2 2357   1.714   1.514   0.362
  798TIP3    H1 2358   1.798   1.484   0.328
  798TIP3    H2 2359   1.706   1.474   0.448
  799TIP3   OH2 2360   2.627   2.709   2.937
  799TIP3    H1 2361   2.714   2.675   2.959
  799TIP3    H2 2362   2.619   2.695   2.843
  800TIP3   OH2 2363   5.882   0.589   0.094
  800TIP3    H1 2364   5.965   0.606   0.050
  800TIP3    H2 2365   5.887   0.497   0.120
  801TIP3   OH2 2366   5.550   4.458   5.224
  801TIP3    H1 2367   5.644   4.478   5.224
  801TIP3    H2 2368   5.546   4.362   5.226
  802TIP3   OH2 2369   4.594   5.037   4.304
  802TIP3    H1 2370   4.558   4.957   4.264
  802TIP3    H2 2371   4.661   5.005   4.364
  803TIP3   OH2 2372   2.234   4.622   4.807
  803TIP3    H1 2373   2.239   4.669   4.890
  803TIP3    H2 2374   2.217   4.690   4.742
  804TIP3   OH2 2375   6.740   4.217   1.439
  804TIP3    H1 2376   6.646   4.224   1.454
  804TIP3    H2 2377   6.778   4.223   1.527
  805TIP3   OH2 2378   5.758   4.822   2.907
  805TIP3    H1 2379   5.852   4.818   2.890
  805TIP3    H2 2380   5.751   4.834   3.001
  806TIP3   OH2 2381   2.757   0.659   3.464
  806TIP3    H1 2382   2.718   0.738   3.426
  806TIP3    H2 2383   2.697   0.589   3.440
  807TIP3   OH2 2384   0.185   1.427   1.883
  807TIP3    H1 2385   0.159   1.385   1.801
  807TIP3    H2 2386   0.279   1.413   1.889
  808TIP3   OH2 2387   0.572   5.119   4.092
  808TIP3    H1 2388   0.525   5.086   4.015
  808TIP3    H2 2389   0.503   5.133   4.157
  809TIP3   OH2 2390   3.113   2.757   3.735
  809TIP3    H1 2391   3.154   2.696   3.675
  809TIP3    H2 2392   3.046   2.802   3.683
  810TIP3   OH2 2393   4.991   5.954   2.578
  810TIP3    H1 2394   5.031   5.968   2.664
  810TIP3    H2 2395   4.909   6.003   2.582
  811TIP3   OH2 2396   1.144   4.471   0.834
  811TIP3    H1 2397   1.054   4.491   0.859
  811TIP3    H2 2398   1.193   4.474   0.916
  812TIP3   OH2 2399   1.734   3.282   0.127
  812TIP3    H1 2400   1.744   3.363   0.176
  812TIP3    H2 2401   1.648   3.289   0.086
  813TIP3   OH2 2402   4.905   6.768   1.292
  813TIP3    H1 2403   4.973   6.801   1.351
  813TIP3    H2 2404   4.851   6.844   1.271
  814TIP3   OH2 2405   7.063   3.304   1.121
  814TIP3    H1 2406   7.011   3.355   1.184
  814TIP3    H2 2407   7.012   3.224   1.107
  815TIP3   OH2 2408   3.483   2.025   1.156
  815TIP3    H1 2409   3.455   1.945   1.111
  815TIP3    H2 2410   3.516   2.082   1.087
  816TIP3   OH2 2411   2.316   5.318   0.255
  816TIP3    H1 2412   2.259   5.332   0.331
  816TIP3    H2 2413   2.318   5.223   0.244
  817TIP3   OH2 2414   5.476   3.694   0.815
  817TIP3    H1 2415   5.423   3.668   0.890
  817TIP3    H2 2416   5.442   3.642   0.742
  818TIP3   OH2 2417   6.791   6.158   4.478
  818TIP3    H1 2418   6.778   6.083   4.421
  818TIP3    H2 2419   6.702   6.191   4.496
  819TIP3   OH2 2420   5.347   4.348   3.966
  819TIP3    H1 2421   5.425   4.404   3.968
  819TIP3    H2 2422   5.276   4.407   3.941
  820TIP3   OH2 2423   3.758   5.595   2.624
  820TIP3    H1 2424   3.745   5.532   2.553
  820TIP3    H2 2425   3.793   5.673   2.581
  821TIP3   OH2 2426   0.244   2.950   1.676
  821TIP3    H1 2427   0.283   3.032   1.707
  821TIP3    H2 2428   0.291   2.881   1.723
  822TIP3   OH2 2429   4.861   1.001   1.709
  822TIP3    H1 2430   4.786   1.061   1.702
  822TIP3    H2 2431   4.828   0.918   1.675
  823TIP3   OH2 2432   1.122   4.387   5.587
  823TIP3    H1 2433   1.049   4.434   5.548
  823TIP3    H2 2434   1.115   4.298   5.552
  824TIP3   OH2 2435   2.188   1.448   1.568
  824TIP3    H1 2436   2.097   1.424   1.587
  824TIP3    H2 2437   2.235   1.431   1.649
  825TIP3   OH2 2438   6.601   4.243   3.825
  825TIP3    H1 2439   6.675   4.277   3.876
  825TIP3    H2 2440   6.628   4.251   3.734
  826TIP3   OH2 2441   6.683   1.755   0.270
  826TIP3    H1 2442   6.716   1.802   0.347
  826TIP3    H2 2443   6.711   1.808   0.195
  827TIP3   OH2 2444   0.903   5.966   4.733
  827TIP3    H1 2445   0.815   5.936   4.756
  827TIP3    H2 2446   0.890   6.055   4.699
  828TIP3   OH2 2447   4.267   5.863   4.883
  828TIP3    H1 2448   4.220   5.788   4.845
  828TIP3    H2 2449   4.199   5.911   4.931
  829TIP3   OH2 2450   4.904   1.299   4.461
  829TIP3    H1 2451   4.905   1.259   4.547
  829TIP3    H2 2452   4.893   1.392   4.478
  830TIP3   OH2 2453   6.702   1.463   3.323
  830TIP3    H1 2454   6.613   1.498   3.312
  830TIP3    H2 2455   6.749   1.496   3.246
  831TIP3   OH2 2456   1.164   0.435   1.591
  831TIP3    H1 2457   1.211   0.477   1.662
  831TIP3    H2 2458   1.221   0.363   1.563
  832TIP3   OH2 2459   5.964   3.952   5.367
  832TIP3    H1 2460   5.947   4.046   5.367
  832TIP3    H2 2461   6.051   3.944   5.406
  833TIP3   OH2 2462   2.600   6.446   5.754
  833TIP3    H1 2463   2.637   6.533   5.771
  833TIP3    H2 2464   2.508   6.463   5.736
  834TIP3   OH2 2465   3.840   1.656   5.570
  834TIP3    H1 2466   3.899   1.702   5.511
  834TIP3    H2 2467   3.896   1.600   5.623
  835TIP3   OH2 2468   2.007   0.427   4.880
  835TIP3    H1 2469   2.097   0.441   4.853
  835TIP3    H2 2470   2.001   0.332   4.894
  836TIP3   OH2 2471   7.229   0.841   3.603
  836TIP3    H1 2472   7.234   0.916   3.545
  836TIP3    H2 2473   7.245   0.765   3.547
  837TIP3   OH2 2474   3.127   0.396   0.429
  837TIP3    H1 2475   3.073   0.371   0.504
  837TIP3    H2 2476   3.217   0.386   0.461
  838TIP3   OH2 2477   1.117   1.889   0.884
  838TIP3    H1 2478   1.137   1.799   0.906
  838TIP3    H2 2479   1.181   1.912   0.816
  839TIP3   OH2 2480   6.865   1.739   2.060
  839TIP3    H1 2481   6.871   1.796   2.137
  839TIP3    H2 2482   6.890   1.653   2.092
  840TIP3   OH2 2483   1.728   2.842   5.528
  840TIP3    H1 2484   1.676   2.833   5.608
  840TIP3    H2 2485   1.707   2.929   5.495
  841TIP3   OH2 2486   6.312   1.629   2.312
  841TIP3    H1 2487   6.334   1.536   2.315
  841TIP3    H2 2488   6.274   1.642   2.225
  842TIP3   OH2 2489   5.800   2.062   4.357
  842TIP3    H1 2490   5.770   2.133   4.413
  842TIP3    H2 2491   5.754   1.985   4.390
  843TIP3   OH2 2492   3.069   0.481   3.288
  843TIP3    H1 2493   3.087   0.524   3.371
  843TIP3    H2 2494   3.006   0.537   3.244
  844TIP3   OH2 2495   5.551   1.974   1.066
  844TIP3    H1 2496   5.502   1.894   1.047
  844TIP3    H2 2497   5.496   2.023   1.126
  845TIP3   OH2 2498   5.657   0.864   2.069
  845TIP3    H1 2499   5.692   0.940   2.116
  845TIP3    H2 2500   5.679   0.789   2.125
  846TIP3   OH2 2501   1.530   5.308   4.125
  846TIP3    H1 2502   1.531   5.255   4.046
  846TIP3    H2 2503   1.441   5.343   4.131
  847TIP3   OH2 2504   7.042   4.648   5.337
  847TIP3    H1 2505   7.017   4.661   5.429
  847TIP3    H2 2506   6.970   4.686   5.287
  848TIP3   OH2 2507   6.288   2.176   3.320
  848TIP3    H1 2508   6.322   2.092   3.351
  848TIP3    H2 2509   6.290   2.168   3.224
  849TIP3   OH2 2510   3.829   1.326   3.171
  849TIP3    H1 2511   3.801   1.238   3.146
  849TIP3    H2 2512   3.923   1.327   3.155
  850TIP3   OH2 2513   0.474   1.109   2.302
  850TIP3    H1 2514   0.410   1.173   2.330
  850TIP3    H2 2515   0.543   1.112   2.369
  851TIP3   OH2 2516   6.742   4.952   0.964
  851TIP3    H1 2517   6.735   4.858   0.979
  851TIP3    H2 2518   6.835   4.971   0.972
  852TIP3   OH2 2519   0.173   6.406   4.779
  852TIP3    H1 2520   0.092   6.358   4.797
  852TIP3    H2 2521   0.143   6.491   4.746
  853TIP3   OH2 2522   4.749   5.707   0.052
  853TIP3    H1 2523   4.829   5.658   0.034
  853TIP3    H2 2524   4.678   5.646   0.035
  854TIP3   OH2 2525   1.270   5.408   1.739
  854TIP3    H1 2526   1.200   5.386   1.801
  854TIP3    H2 2527   1.223   5.431   1.658
  855TIP3   OH2 2528   1.285   1.969   3.896
  855TIP3    H1 2529   1.248   1.905   3.835
  855TIP3    H2 2530   1.366   1.929   3.928
  856TIP3   OH2 2531   4.528   5.550   0.165
  856TIP3    H1 2532   4.554   5.639   0.191
  856TIP3    H2 2533   4.433   5.550   0.177
  857TIP3   OH2 2534   0.694   3.866   5.393
  857TIP3    H1 2535   0.746   3.788   5.414
  857TIP3    H2 2536   0.625   3.833   5.334
  858TIP3   OH2 2537   5.855   0.983   2.658
  858TIP3    H1 2538   5.931   0.927   2.669
  858TIP3    H2 2539   5.797   0.933   2.600
  859TIP3   OH2 2540   2.130   3.400   4.351
  859TIP3    H1 2541   2.180   3.382   4.430
  859TIP3    H2 2542   2.046   3.355   4.364
  860TIP3   OH2 2543   4.092   1.537   4.404
  860TIP3    H1 2544   4.005   1.501   4.386
  860TIP3    H2 2545   4.082   1.584   4.487
  861TIP3   OH2 2546   3.510   2.236   3.791
  861TIP3    H1 2547   3.441   2.238   3.725
  861TIP3    H2 2548   3.577   2.295   3.757
  862TIP3   OH2 2549   5.287   2.465   2.948
  862TIP3    H1 2550   5.335   2.475   3.030
  862TIP3    H2 2551   5.209   2.414   2.972
  863TIP3   OH2 2552   5.991   0.752   5.658
  863TIP3    H1 2553   5.906   0.729   5.620
  863TIP3    H2 2554   5.977   0.840   5.694
  864TIP3   OH2 2555   5.542   1.466   1.636
  864TIP3    H1 2556   5.488   1.473   1.714
  864TIP3    H2 2557   5.554   1.371   1.624
  865TIP3   OH2 2558   4.828   6.387   5.136
  865TIP3    H1 2559   4.885   6.321   5.097
  865TIP3    H2 2560   4.820   6.361   5.228
  866TIP3   OH2 2561   6.126   6.086   0.445
  866TIP3    H1 2562   6.095   6.080   0.535
  866TIP3    H2 2563   6.141   6.179   0.430
  867TIP3   OH2 2564   3.959   2.291   3.081
  867TIP3    H1 2565   4.055   2.289   3.085
  867TIP3    H2 2566   3.940   2.335   2.998
  868TIP3   OH2 2567   1.015   2.862   2.962
  868TIP3    H1 2568   1.060   2.812   2.893
  868TIP3    H2 2569   1.085   2.909   3.007
  869TIP3   OH2 2570   4.188   1.357   3.415
  869TIP3    H1 2571   4.107   1.379   3.461
  869TIP3    H2 2572   4.233   1.442   3.403
  870TIP3   OH2 2573   5.300   0.873   2.736
  870TIP3    H1 2574   5.268   0.938   2.673
  870TIP3    H2 2575   5.289   0.789   2.691
  871TIP3   OH2 2576   4.627   1.170   0.156
  871TIP3    H1 2577   4.551   1.193   0.208
  871TIP3    H2 2578   4.701   1.175   0.217
  872TIP3   OH2 2579   4.835   2.721   0.207
  872TIP3    H1 2580   4.817   2.711   0.301
  872TIP3    H2 2581   4.759   2.683   0.164
  873TIP3   OH2 2582   2.305   2.508   0.070
  873TIP3    H1 2583   2.289   2.416   0.093
  873TIP3    H2 2584   2.396   2.523   0.095
  874TIP3   OH2 2585   3.453   1.502   0.333
  874TIP3    H1 2586   3.527   1.550   0.371
  874TIP3    H2 2587   3.452   1.530   0.241
  875TIP3   OH2 2588   1.003   6.429   2.397
  875TIP3    H1 2589   1.021   6.521   2.416
  875TIP3    H2 2590   1.077   6.399   2.344
  876TIP3   OH2 2591   3.293   6.716   3.763
  876TIP3    H1 2592   3.292   6.665   3.843
  876TIP3    H2 2593   3.350   6.666   3.704
  877TIP3   OH2 2594   2.334   6.556   4.922
  877TIP3    H1 2595   2.369   6.572   4.834
  877TIP3    H2 2596   2.276   6.631   4.938
  878TIP3   OH2 2597   6.214   5.180   3.252
  878TIP3    H1 2598   6.209   5.245   3.321
  878TIP3    H2 2599   6.125   5.175   3.217
  879TIP3   OH2 2600  -0.046   1.556   4.361
  879TIP3    H1 2601   0.040   1.584   4.392
  879TIP3    H2 2602  -0.027   1.482   4.302
  880TIP3   OH2 2603   4.932   1.395   1.742
  880TIP3    H1 2604   4.860   1.374   1.682
  880TIP3    H2 2605   5.011   1.378   1.692
  881TIP3   OH2 2606   6.452   2.601   3.581
  881TIP3    H1 2607   6.543   2.574   3.569
  881TIP3    H2 2608   6.404   2.555   3.513
  882TIP3   OH2 2609   6.847   4.463   5.730
  882TIP3    H1 2610   6.800   4.460   5.813
  882TIP3    H2 2611   6.889   4.377   5.723
  883TIP3   OH2 2612   0.749   5.792   5.246
  883TIP3    H1 2613   0.730   5.851   5.173
  883TIP3    H2 2614   0.788   5.848   5.313
  884TIP3   OH2 2615   4.659   1.331   1.913
  884TIP3    H1 2616   4.671   1.263   1.847
  884TIP3    H2 2617   4.730   1.317   1.975
  885TIP3   OH2 2618   5.588   2.638   0.321
  885TIP3    H1 2619   5.547   2.551   0.319
  885TIP3    H2 2620   5.561   2.675   0.405
  886TIP3   OH2 2621   2.588   3.707   4.308
  886TIP3    H1 2622   2.653   3.684   4.375
  886TIP3    H2 2623   2.504   3.684   4.348
  887TIP3   OH2 2624   4.595   4.811   2.798
  887TIP3    H1 2625   4.589   4.878   2.730
  887TIP3    H2 2626   4.608   4.861   2.879
  888TIP3   OH2 2627   6.016   1.158   3.472
  888TIP3    H1 2628   5.941   1.217   3.466
  888TIP3    H2 2629   6.032   1.130   3.382
  889TIP3   OH2 2630   2.871   3.847   0.267
  889TIP3    H1 2631   2.777   3.834   0.278
  889TIP3    H2 2632   2.889   3.931   0.310
  890TIP3   OH2 2633   2.116   5.923   4.825
  890TIP3    H1 2634   2.090   5.973   4.748
  890TIP3    H2 2635   2.143   5.838   4.791
  891TIP3   OH2 2636   6.353   2.642   3.840
  891TIP3    H1 2637   6.379   2.639   3.748
  891TIP3    H2 2638   6.258   2.645   3.838
  892TIP3   OH2 2639   6.702   3.828   1.579
  892TIP3    H1 2640   6.704   3.831   1.674
  892TIP3    H2 2641   6.616   3.862   1.555
  893TIP3   OH2 2642   1.348   1.691   4.209
  893TIP3    H1 2643   1.275   1.741   4.246
  893TIP3    H2 2644   1.405   1.673   4.283
  894TIP3   OH2 2645   0.434   2.944   2.955
  894TIP3    H1 2646   0.420   2.856   2.921
  894TIP3    H2 2647   0.369   2.998   2.910
  895TIP3   OH2 2648   1.411   4.987   5.060
  895TIP3    H1 2649   1.407   4.893   5.075
  895TIP3    H2 2650   1.320   5.015   5.052
  896TIP3   OH2 2651   2.516   3.905   2.166
  896TIP3    H1 2652   2.599   3.884   2.123
  896TIP3    H2 2653   2.449   3.877   2.104
  897TIP3   OH2 2654   3.177   4.282   2.143
  897TIP3    H1 2655   3.247   4.307   2.203
  897TIP3    H2 2656   3.135   4.365   2.119
  898TIP3   OH2 2657   5.407   0.713   4.366
  898TIP3    H1 2658   5.464   0.682   4.436
  898TIP3    H2 2659   5.319   0.689   4.393
  899TIP3   OH2 2660   3.221   4.453   1.460
  899TIP3    H1 2661   3.237   4.473   1.552
  899TIP3    H2 2662   3.241   4.534   1.414
  900TIP3   OH2 2663   2.786   0.581   4.928
  900TIP3    H1 2664   2.780   0.496   4.886
  900TIP3    H2 2665   2.880   0.600   4.931
  901TIP3   OH2 2666   4.597   1.408   5.407
  901TIP3    H1 2667   4.596   1.321   5.367
  901TIP3    H2 2668   4.532   1.402   5.478
  902TIP3   OH2 2669   3.055   0.681   5.368
  902TIP3    H1 2670   3.104   0.763   5.373
  902TIP3    H2 2671   2.990   0.687   5.438
  903TIP3   OH2 2672   4.861   4.276   0.211
  903TIP3    H1 2673   4.872   4.232   0.295
  903TIP3    H2 2674   4.776   4.245   0.178
  904TIP3   OH2 2675   6.334   1.833   4.113
  904TIP3    H1 2676   6.249   1.820   4.071
  904TIP3    H2 2677   6.391   1.867   4.044
  905TIP3   OH2 2678   3.084   1.922   4.822
  905TIP3    H1 2679   3.073   1.941   4.916
  905TIP3    H2 2680   3.004   1.875   4.798
  906TIP3   OH2 2681   2.512   3.516   2.855
  906TIP3    H1 2682   2.605   3.502   2.871
  906TIP3    H2 2683   2.505   3.530   2.761
  907TIP3   OH2 2684   3.991   1.998   0.095
  907TIP3    H1 2685   3.954   2.033   0.175
  907TIP3    H2 2686   3.940   1.919   0.077
  908TIP3   OH2 2687   0.206   4.386   2.645
  908TIP3    H1 2688   0.156   4.464   2.619
  908TIP3    H2 2689   0.293   4.399   2.608
  909TIP3   OH2 2690   4.331   4.737   3.591
  909TIP3    H1 2691   4.300   4.648   3.573
  909TIP3    H2 2692   4.256   4.793   3.570
  910TIP3   OH2 2693   5.852   6.828   0.546
  910TIP3    H1 2694   5.828   6.736   0.547
  910TIP3    H2 2695   5.770   6.874   0.526
  911TIP3   OH2 2696   7.053   0.711   5.498
  911TIP3    H1 2697   7.100   0.688   5.578
  911TIP3    H2 2698   7.106   0.779   5.458
  912TIP3   OH2 2699   3.340   2.018   2.682
  912TIP3    H1 2700   3.392   2.073   2.623
  912TIP3    H2 2701   3.402   1.991   2.750
  913TIP3   OH2 2702   5.195   5.651   4.876
  913TIP3    H1 2703   5.219   5.570   4.921
  913TIP3    H2 2704   5.216   5.720   4.938
  914TIP3   OH2 2705   4.213   5.000   3.289
  914TIP3    H1 2706   4.161   5.040   3.220
  914TIP3    H2 2707   4.230   5.071   3.351
  915TIP3   OH2 2708   5.174   6.552   5.321
  915TIP3    H1 2709   5.244   6.560   5.257
  915TIP3    H2 2710   5.148   6.643   5.339
  916TIP3   OH2 2711   3.561   6.243   2.344
  916TIP3    H1 2712   3.613   6.191   2.405
  916TIP3    H2 2713   3.518   6.308   2.400
  917TIP3   OH2 2714   4.321   4.295   2.814
  917TIP3    H1 2715   4.363   4.251   2.739
  917TIP3    H2 2716   4.377   4.272   2.889
  918TIP3   OH2 2717   0.452   2.720   2.679
  918TIP3    H1 2718   0.380   2.782   2.686
  918TIP3    H2 2719   0.526   2.772   2.649
  919TIP3   OH2 2720   2.610   5.437   1.439
  919TIP3    H1 2721   2.623   5.488   1.359
  919TIP3    H2 2722   2.559   5.362   1.412
  920TIP3   OH2 2723   1.100   2.291   4.448
  920TIP3    H1 2724   1.148   2.232   4.507
  920TIP3    H2 2725   1.121   2.379   4.480
  921TIP3   OH2 2726   3.223   4.718   3.371
  921TIP3    H1 2727   3.189   4.804   3.347
  921TIP3    H2 2728   3.152   4.658   3.349
  922TIP3   OH2 2729   4.702   5.057   1.942
  922TIP3    H1 2730   4.637   5.120   1.972
  922TIP3    H2 2731   4.734   5.016   2.023
  923TIP3   OH2 2732   0.668   1.648   5.232
  923TIP3    H1 2733   0.649   1.739   5.208
  923TIP3    H2 2734   0.741   1.623   5.175
  924TIP3   OH2 2735   3.697   4.619   3.441
  924TIP3    H1 2736   3.710   4.692   3.381
  924TIP3    H2 2737   3.742   4.545   3.400
  925TIP3   OH2 2738   6.326   0.309   1.125
  925TIP3    H1 2739   6.282   0.227   1.148
  925TIP3    H2 2740   6.404   0.311   1.180
  926TIP3   OH2 2741   2.527   0.095   1.280
  926TIP3    H1 2742   2.495   0.053   1.200
  926TIP3    H2 2743   2.603   0.043   1.306
  927TIP3   OH2 2744   4.079   5.060   5.312
  927TIP3    H1 2745   4.110   5.136   5.264
  927TIP3    H2 2746   4.142   4.991   5.292
  928TIP3   OH2 2747   5.468   2.147   1.263
  928TIP3    H1 2748   5.525   2.217   1.295
  928TIP3    H2 2749   5.473   2.079   1.330
  929TIP3   OH2 2750   3.859   0.905   0.137
  929TIP3    H1 2751   3.857   0.927   0.044
  929TIP3    H2 2752   3.783   0.949   0.174
  930TIP3   OH2 2753   3.482   1.283   3.707
  930TIP3    H1 2754   3.498   1.375   3.683
  930TIP3    H2 2755   3.559   1.237   3.674
  931TIP3   OH2 2756   6.395   3.446   3.820
  931TIP3    H1 2757   6.408   3.482   3.731
  931TIP3    H2 2758   6.302   3.461   3.837
  932TIP3   OH2 2759   1.007   3.123   1.019
  932TIP3    H1 2760   1.053   3.088   0.943
  932TIP3    H2 2761   0.922   3.080   1.017
  933TIP3   OH2 2762   3.770   4.443   1.059
  933TIP3    H1 2763   3.687   4.399   1.074
  933TIP3    H2 2764   3.834   4.391   1.107
  934TIP3   OH2 2765   6.521   6.193   5.114
  934TIP3    H1 2766   6.468   6.236   5.181
  934TIP3    H2 2767   6.524   6.256   5.042
  935TIP3   OH2 2768   3.509   4.330   1.140
  935TIP3    H1 2769   3.537   4.238   1.142
  935TIP3    H2 2770   3.413   4.326   1.136
  936TIP3   OH2 2771   4.234   3.729   2.868
  936TIP3    H1 2772   4.232   3.655   2.929
  936TIP3    H2 2773   4.248   3.806   2.925
  937TIP3   OH2 2774   3.696   0.786   4.132
  937TIP3    H1 2775   3.631   0.749   4.073
  937TIP3    H2 2776   3.646   0.843   4.190
  938TIP3   OH2 2777   2.363   1.166   1.697
  938TIP3    H1 2778   2.305   1.169   1.622
  938TIP3    H2 2779   2.345   1.247   1.745
  939TIP3   OH2 2780   0.477   2.679   5.395
  939TIP3    H1 2781   0.423   2.737   5.448
  939TIP3    H2 2782   0.419   2.648   5.325
  940TIP3   OH2 2783   5.751   0.835   3.606
  940TIP3    H1 2784   5.733   0.745   3.634
  940TIP3    H2 2785   5.820   0.865   3.665
  941TIP3   OH2 2786   4.338   1.499   5.027
  941TIP3    H1 2787   4.268   1.520   4.964
  941TIP3    H2 2788   4.393   1.578   5.028
  942TIP3   OH2 2789   0.582   5.351   0.088
  942TIP3    H1 2790   0.584   5.345   0.184
  942TIP3    H2 2791   0.631   5.431   0.068
  943TIP3   OH2 2792   0.527   2.740   3.104
  943TIP3    H1 2793   0.615   2.729   3.070
  943TIP3    H2 2794   0.510   2.834   3.097
  944TIP3   OH2 2795   0.082   1.715   5.691
  944TIP3    H1 2796   0.080   1.626   5.725
  944TIP3    H2 2797   0.148   1.760   5.744
  945TIP3   OH2 2798   2.619   5.098   3.551
  945TIP3    H1 2799   2.541   5.073   3.601
  945TIP3    H2 2800   2.625   5.193   3.561
  946TIP3   OH2 2801   6.365   5.232   4.307
  946TIP3    H1 2802   6.388   5.321   4.335
  946TIP3    H2 2803   6.391   5.229   4.215
  947TIP3   OH2 2804   2.295   3.577   2.986
  947TIP3    H1 2805   2.332   3.577   3.075
  947TIP3    H2 2806   2.371   3.575   2.929
  948TIP3   OH2 2807   1.522   2.347   2.464
  948TIP3    H1 2808   1.535   2.440   2.447
  948TIP3    H2 2809   1.575   2.302   2.398
  949TIP3   OH2 2810   6.904   4.579   3.696
  949TIP3    H1 2811   6.957   4.541   3.765
  949TIP3    H2 2812   6.965   4.632   3.645
  950TIP3   OH2 2813   0.849   6.128   2.131
  950TIP3    H1 2814   0.788   6.098   2.064
  950TIP3    H2 2815   0.935   6.100   2.100
  951TIP3   OH2 2816   1.783   3.805   0.216
  951TIP3    H1 2817   1.818   3.814   0.127
  951TIP3    H2 2818   1.698   3.849   0.212
  952TIP3   OH2 2819   0.759   3.233   2.284
  952TIP3    H1 2820   0.796   3.198   2.203
  952TIP3    H2 2821   0.684   3.177   2.303
  953TIP3   OH2 2822   2.117   0.265   4.389
  953TIP3    H1 2823   2.103   0.344   4.442
  953TIP3    H2 2824   2.084   0.288   4.302
  954TIP3   OH2 2825   2.587   0.851   3.367
  954TIP3    H1 2826   2.501   0.885   3.341
  954TIP3    H2 2827   2.645   0.875   3.294
  955TIP3   OH2 2828   4.410   0.454   1.928
  955TIP3    H1 2829   4.408   0.486   1.838
  955TIP3    H2 2830   4.503   0.445   1.949
  956TIP3   OH2 2831   2.062   0.599   1.721
  956TIP3    H1 2832   2.035   0.684   1.686
  956TIP3    H2 2833   2.098   0.552   1.645
  957TIP3   OH2 2834   2.224   1.284   2.489
  957TIP3    H1 2835   2.236   1.238   2.406
  957TIP3    H2 2836   2.207   1.375   2.465
  958TIP3   OH2 2837   4.629   3.451   0.846
  958TIP3    H1 2838   4.643   3.499   0.764
  958TIP3    H2 2839   4.707   3.397   0.855
  959TIP3   OH2 2840   4.339   0.990   0.072
  959TIP3    H1 2841   4.374   1.066   0.120
  959TIP3    H2 2842   4.260   0.966   0.120
  960TIP3   OH2 2843   6.799   1.873   2.642
  960TIP3    H1 2844   6.790   1.859   2.548
  960TIP3    H2 2845   6.892   1.861   2.660
  961TIP3   OH2 2846   1.285   4.864   3.312
  961TIP3    H1 2847   1.280   4.825   3.400
  961TIP3    H2 2848   1.376   4.890   3.302
  962TIP3   OH2 2849   6.404   1.561   2.935
  962TIP3    H1 2850   6.382   1.649   2.906
  962TIP3    H2 2851   6.450   1.573   3.018
  963TIP3   OH2 2852   7.069   3.426   5.657
  963TIP3    H1 2853   7.010   3.353   5.637
  963TIP3    H2 2854   7.055   3.488   5.585
  964TIP3   OH2 2855   6.200   4.521   0.276
  964TIP3    H1 2856   6.219   4.605   0.235
  964TIP3    H2 2857   6.196   4.541   0.370
  965TIP3   OH2 2858   5.426   1.208   1.021
  965TIP3    H1 2859   5.352   1.237   1.074
  965TIP3    H2 2860   5.389   1.144   0.960
  966TIP3   OH2 2861   3.437   0.509   1.458
  966TIP3    H1 2862   3.470   0.488   1.545
  966TIP3    H2 2863   3.515   0.514   1.402
  967TIP3   OH2 2864   4.531   6.405   3.797
  967TIP3    H1 2865   4.551   6.498   3.810
  967TIP3    H2 2866   4.438   6.403   3.777
  968TIP3   OH2 2867   4.413   0.845   0.977
  968TIP3    H1 2868   4.467   0.784   1.028
  968TIP3    H2 2869   4.356   0.789   0.925
  969TIP3   OH2 2870   0.741   4.463   1.879
  969TIP3    H1 2871   0.672   4.404   1.849
  969TIP3    H2 2872   0.701   4.550   1.875
  970TIP3   OH2 2873   6.924   3.171   5.621
  970TIP3    H1 2874   6.828   3.176   5.614
  970TIP3    H2 2875   6.956   3.204   5.538
  971TIP3   OH2 2876   0.524   1.234   3.996
  971TIP3    H1 2877   0.497   1.276   3.914
  971TIP3    H2 2878   0.618   1.247   4.000
  972TIP3   OH2 2879   2.609   3.101   5.849
  972TIP3    H1 2880   2.656   3.036   5.797
  972TIP3    H2 2881   2.595   3.174   5.788
  973TIP3   OH2 2882   0.257   4.778   4.650
  973TIP3    H1 2883   0.181   4.779   4.708
  973TIP3    H2 2884   0.318   4.715   4.689
  974TIP3   OH2 2885   0.205   3.149   4.513
  974TIP3    H1 2886   0.263   3.190   4.449
  974TIP3    H2 2887   0.264   3.112   4.578
  975TIP3   OH2 2888   1.761   3.517   0.264
  975TIP3    H1 2889   1.686   3.553   0.311
  975TIP3    H2 2890   1.802   3.592   0.222
  976TIP3   OH2 2891   5.813   6.641   5.704
  976TIP3    H1 2892   5.768   6.623   5.786
  976TIP3    H2 2893   5.896   6.593   5.712
  977TIP3   OH2 2894   4.784   5.633   2.627
  977TIP3    H1 2895   4.850   5.663   2.564
  977TIP3    H2 2896   4.828   5.563   2.676
  978TIP3   OH2 2897   0.583   0.727   1.747
  978TIP3    H1 2898   0.606   0.636   1.766
  978TIP3    H2 2899   0.665   0.775   1.756
  979TIP3   OH2 2900   3.739   3.731   1.171
  979TIP3    H1 2901   3.772   3.722   1.081
  979TIP3    H2 2902   3.644   3.742   1.160
  980TIP3   OH2 2903   3.451   6.497   4.659
  980TIP3    H1 2904   3.399   6.431   4.613
  980TIP3    H2 2905   3.542   6.470   4.644
  981TIP3   OH2 2906   1.371   3.573   4.680
  981TIP3    H1 2907   1.336   3.575   4.591
  981TIP3    H2 2908   1.351   3.484   4.712
  982TIP3   OH2 2909   5.435   3.897   5.595
  982TIP3    H1 2910   5.475   3.935   5.517
  982TIP3    H2 2911   5.466   3.952   5.667
  983TIP3   OH2 2912   3.367   4.668   4.013
  983TIP3    H1 2913   3.386   4.671   3.919
  983TIP3    H2 2914   3.444   4.628   4.052
  984TIP3   OH2 2915   4.789   1.616   5.438
  984TIP3    H1 2916   4.763   1.702   5.404
  984TIP3    H2 2917   4.717   1.558   5.416
  985TIP3   OH2 2918   2.909   4.989   4.688
  985TIP3    H1 2919   2.828   4.941   4.670
  985TIP3    H2 2920   2.914   5.054   4.618
  986TIP3   OH2 2921   2.787   5.253   0.407
  986TIP3    H1 2922   2.733   5.259   0.486
  986TIP3    H2 2923   2.727   5.271   0.335
  987TIP3   OH2 2924   3.418   5.423   0.388
  987TIP3    H1 2925   3.452   5.420   0.299
  987TIP3    H2 2926   3.333   5.380   0.384
  988TIP3   OH2 2927   4.990   5.259   3.548
  988TIP3    H1 2928   4.933   5.240   3.474
  988TIP3    H2 2929   5.079   5.254   3.512
  989TIP3   OH2 2930   5.661   4.216   1.070
  989TIP3    H1 2931   5.687   4.197   1.160
  989TIP3    H2 2932   5.568   4.195   1.067
  990TIP3   OH2 2933   4.816   6.267   0.280
  990TIP3    H1 2934   4.781   6.300   0.197
  990TIP3    H2 2935   4.805   6.172   0.274
  991TIP3   OH2 2936   3.750   5.328   4.133
  991TIP3    H1 2937   3.674   5.296   4.182
  991TIP3    H2 2938   3.811   5.359   4.200
  992TIP3   OH2 2939   4.798   2.665   4.225
  992TIP3    H1 2940   4.873   2.725   4.232
  992TIP3    H2 2941   4.798   2.618   4.309
  993TIP3   OH2 2942   3.245   6.202   3.045
  993TIP3    H1 2943   3.334   6.190   3.078
  993TIP3    H2 2944   3.241   6.149   2.965
  994TIP3   OH2 2945   0.585   2.011   0.403
  994TIP3    H1 2946   0.618   1.996   0.491
  994TIP3    H2 2947   0.659   1.991   0.346
  995TIP3   OH2 2948   4.415   1.315   0.250
  995TIP3    H1 2949   4.328   1.315   0.290
  995TIP3    H2 2950   4.447   1.405   0.261
  996TIP3   OH2 2951   3.452   0.405   5.875
  996TIP3    H1 2952   3.491   0.480   5.920
  996TIP3    H2 2953   3.437   0.436   5.785
  997TIP3   OH2 2954   6.462   2.099   5.131
  997TIP3    H1 2955   6.473   2.190   5.158
  997TIP3    H2 2956   6.549   2.060   5.141
  998TIP3   OH2 2957   0.135   6.199   1.725
  998TIP3    H1 2958   0.078   6.263   1.683
  998TIP3    H2 2959   0.212   6.249   1.752
  999TIP3   OH2 2960   4.966   1.988   5.130
  999TIP3    H1 2961   5.014   1.905   5.140
  999TIP3    H2 2962   4.900   1.986   5.199
 1000TIP3   OH2 2963   5.460   6.240   0.487
 1000TIP3    H1 2964   5.495   6.256   0.399
 1000TIP3    H2 2965   5.538   6.243   0.543
 1001TIP3   OH2 2966   7.220   3.201   4.896
 1001TIP3    H1 2967   7.211   3.231   4.806
 1001TIP3    H2 2968   7.183   3.113   4.897
 1002TIP3   OH2 2969   1.806   2.443   5.939
 1002TIP3    H1 2970   1.768   2.409   5.858
 1002TIP3    H2 2971   1.831   2.365   5.989
 1003TIP3   OH2 2972   3.534   2.304   4.050
 1003TIP3    H1 2973   3.507   2.278   3.962
 1003TIP3    H2 2974   3.618   2.262   4.064
 1004TIP3   OH2 2975   5.069   3.537   1.850
 1004TIP3    H1 2976   5.066   3.442   1.839
 1004TIP3    H2 2977   5.105   3.551   1.937
 1005TIP3   OH2 2978   3.615   2.229   4.481
 1005TIP3    H1 2979   3.584   2.301   4.426
 1005TIP3    H2 2980   3.588   2.150   4.434
 1006TIP3   OH2 2981   2.262   5.103   1.629
 1006TIP3    H1 2982   2.318   5.043   1.581
 1006TIP3    H2 2983   2.277   5.188   1.590
 1007TIP3   OH2 2984   1.074   0.098   5.669
 1007TIP3    H1 2985   1.168   0.079   5.672
 1007TIP3    H2 2986   1.033   0.028   5.719
 1008TIP3   OH2 2987   1.393   2.351   0.826
 1008TIP3    H1 2988   1.404   2.435   0.782
 1008TIP3    H2 2989   1.324   2.367   0.891
 1009TIP3   OH2 2990   6.931   0.755   5.894
 1009TIP3    H1 2991   6.845   0.777   5.857
 1009TIP3    H2 2992   6.918   0.669   5.934
 1010TIP3   OH2 2993   6.253   1.465   1.867
 1010TIP3    H1 2994   6.209   1.404   1.809
 1010TIP3    H2 2995   6.251   1.548   1.821
 1011TIP3   OH2 2996   6.950   5.986   2.568
 1011TIP3    H1 2997   6.940   5.947   2.481
 1011TIP3    H2 2998   6.956   6.080   2.550
 1012TIP3   OH2 2999   4.123   5.395   5.519
 1012TIP3    H1 3000   4.066   5.389   5.442
 1012TIP3    H2 3001   4.211   5.397   5.483
 1013TIP3   OH2 3002   5.016   0.849   1.482
 1013TIP3    H1 3003   4.940   0.886   1.438
 1013TIP3    H2 3004   4.998   0.861   1.575
 1014TIP3   OH2 3005   3.176   6.013   0.503
 1014TIP3    H1 3006   3.099   6.059   0.469
 1014TIP3    H2 3007   3.196   6.055   0.586
 1015TIP3   OH2 3008   1.663   5.666   5.318
 1015TIP3    H1 3009   1.593   5.602   5.306
 1015TIP3    H2 3010   1.714   5.631   5.391
 1016TIP3   OH2 3011   4.011   0.375   2.519
 1016TIP3    H1 3012   3.994   0.437   2.590
 1016TIP3    H2 3013   4.085   0.413   2.471
 1017TIP3   OH2 3014   4.708   0.222   4.490
 1017TIP3    H1 3015   4.641   0.291   4.486
 1017TIP3    H2 3016   4.746   0.231   4.577
 1018TIP3   OH2 3017   2.962   2.010   0.631
 1018TIP3    H1 3018   2.947   1.939   0.694
 1018TIP3    H2 3019   3.042   1.985   0.586
 1019TIP3   OH2 3020   0.442   6.519   0.773
 1019TIP3    H1 3021   0.366   6.469   0.743
 1019TIP3    H2 3022   0.503   6.452   0.807
 1020TIP3   OH2 3023   5.114   5.220   4.048
 1020TIP3    H1 3024   5.095   5.234   4.140
 1020TIP3    H2 3025   5.090   5.128   4.032
 1021TIP3   OH2 3026   3.456   3.756   1.254
 1021TIP3    H1 3027   3.389   3.711   1.305
 1021TIP3    H2 3028   3.440   3.849   1.269
 1022TIP3   OH2 3029   5.941   1.245   4.735
 1022TIP3    H1 3030   5.992   1.325   4.750
 1022TIP3    H2 3031   5.860   1.276   4.694
 1023TIP3   OH2 3032   3.676   2.922   3.446
 1023TIP3    H1 3033   3.739   2.976   3.399
 1023TIP3    H2 3034   3.612   2.984   3.480
 1024TIP3   OH2 3035   3.968   2.384   2.015
 1024TIP3    H1 3036   4.013   2.333   1.949
 1024TIP3    H2 3037   3.896   2.427   1.968
 1025TIP3   OH2 3038   2.587   3.996   3.102
 1025TIP3    H1 3039   2.556   4.075   3.146
 1025TIP3    H2 3040   2.509   3.942   3.092
 1026TIP3   OH2 3041   3.628   0.810   4.898
 1026TIP3    H1 3042   3.602   0.882   4.841
 1026TIP3    H2 3043   3.669   0.747   4.839
 1027TIP3   OH2 3044   4.606   2.009   2.693
 1027TIP3    H1 3045   4.513   2.019   2.713
 1027TIP3    H2 3046   4.627   1.920   2.721
 1028TIP3   OH2 3047   0.142   6.457   5.864
 1028TIP3    H1 3048   0.198   6.519   5.818
 1028TIP3    H2 3049   0.060   6.458   5.816
 1029TIP3   OH2 3050   3.185   2.790   5.518
 1029TIP3    H1 3051   3.268   2.759   5.480
 1029TIP3    H2 3052   3.204   2.879   5.546
 1030TIP3   OH2 3053   3.024   4.516   3.344
 1030TIP3    H1 3054   3.000   4.432   3.305
 1030TIP3    H2 3055   2.946   4.542   3.394
 1031TIP3   OH2 3056   5.238   5.738   2.334
 1031TIP3    H1 3057   5.255   5.645   2.321
 1031TIP3    H2 3058   5.284   5.760   2.415
 1032TIP3   OH2 3059   6.306   5.015   4.472
 1032TIP3    H1 3060   6.355   5.085   4.428
 1032TIP3    H2 3061   6.364   4.986   4.543
 1033TIP3   OH2 3062   5.481   3.084   0.186
 1033TIP3    H1 3063   5.563   3.084   0.137
 1033TIP3    H2 3064   5.415   3.052   0.124
 1034TIP3   OH2 3065   2.362   1.823   2.719
 1034TIP3    H1 3066   2.303   1.806   2.792
 1034TIP3    H2 3067   2.418   1.894   2.748
 1035TIP3   OH2 3068   3.934   3.564   4.471
 1035TIP3    H1 3069   4.017   3.530   4.504
 1035TIP3    H2 3070   3.871   3.494   4.489
 1036TIP3   OH2 3071   6.844   4.487   1.003
 1036TIP3    H1 3072   6.801   4.567   1.033
 1036TIP3    H2 3073   6.829   4.424   1.073
 1037TIP3   OH2 3074   1.329   0.193   4.596
 1037TIP3    H1 3075   1.290   0.129   4.536
 1037TIP3    H2 3076   1.302   0.164   4.683
 1038TIP3   OH2 3077   2.199   1.253   4.954
 1038TIP3    H1 3078   2.204   1.343   4.986
 1038TIP3    H2 3079   2.280   1.212   4.986
 1039TIP3   OH2 3080   2.057   3.943   1.543
 1039TIP3    H1 3081   2.099   3.877   1.488
 1039TIP3    H2 3082   1.975   3.902   1.572
 1040TIP3   OH2 3083   4.606   4.770   3.377
 1040TIP3    H1 3084   4.640   4.839   3.434
 1040TIP3    H2 3085   4.684   4.723   3.347
 1041TIP3   OH2 3086   6.246   4.098   3.134
 1041TIP3    H1 3087   6.239   4.122   3.042
 1041TIP3    H2 3088   6.179   4.150   3.178
 1042TIP3   OH2 3089   2.608   3.409   5.404
 1042TIP3    H1 3090   2.615   3.314   5.414
 1042TIP3    H2 3091   2.667   3.430   5.332
 1043TIP3   OH2 3092   1.013   2.130   5.213
 1043TIP3    H1 3093   0.937   2.101   5.163
 1043TIP3    H2 3094   1.050   2.050   5.252
 1044TIP3   OH2 3095   3.412   6.180   1.926
 1044TIP3    H1 3096   3.337   6.227   1.962
 1044TIP3    H2 3097   3.377   6.136   1.848
 1045TIP3   OH2 3098   6.569   4.209   5.326
 1045TIP3    H1 3099   6.648   4.185   5.375
 1045TIP3    H2 3100   6.498   4.200   5.390
 1046TIP3   OH2 3101   3.647   3.864   3.848
 1046TIP3    H1 3102   3.582   3.814   3.898
 1046TIP3    H2 3103   3.664   3.942   3.902
 1047TIP3   OH2 3104   4.488   0.213   3.342
 1047TIP3    H1 3105   4.451   0.258   3.417
 1047TIP3    H2 3106   4.517   0.128   3.377
 1048TIP3   OH2 3107   4.721   6.064   2.733
 1048TIP3    H1 3108   4.654   6.014   2.686
 1048TIP3    H2 3109   4.714   6.153   2.697
 1049TIP3   OH2 3110   4.494   3.246   4.650
 1049TIP3    H1 3111   4.430   3.195   4.701
 1049TIP3    H2 3112   4.563   3.183   4.629
 1050TIP3   OH2 3113   1.640   3.659   5.100
 1050TIP3    H1 3114   1.578   3.586   5.105
 1050TIP3    H2 3115   1.584   3.736   5.088
 1051TIP3   OH2 3116   3.902   1.052   1.836
 1051TIP3    H1 3117   3.861   1.128   1.792
 1051TIP3    H2 3118   3.995   1.073   1.837
 1052TIP3   OH2 3119   4.679   5.124   3.739
 1052TIP3    H1 3120   4.757   5.151   3.787
 1052TIP3    H2 3121   4.638   5.207   3.713
 1053TIP3   OH2 3122   3.529   1.329   5.570
 1053TIP3    H1 3123   3.538   1.247   5.523
 1053TIP3    H2 3124   3.595   1.325   5.639
 1054TIP3   OH2 3125   3.158   1.610   2.810
 1054TIP3    H1 3126   3.111   1.663   2.875
 1054TIP3    H2 3127   3.108   1.529   2.805
 1055TIP3   OH2 3128   6.764   1.754   0.765
 1055TIP3    H1 3129   6.691   1.722   0.713
 1055TIP3    H2 3130   6.838   1.698   0.740
 1056TIP3   OH2 3131   2.713   4.454   5.413
 1056TIP3    H1 3132   2.676   4.510   5.481
 1056TIP3    H2 3133   2.787   4.505   5.378
 1057TIP3   OH2 3134   0.355   2.207   0.529
 1057TIP3    H1 3135   0.424   2.208   0.462
 1057TIP3    H2 3136   0.305   2.287   0.512
 1058TIP3   OH2 3137   4.584   4.176   3.741
 1058TIP3    H1 3138   4.593   4.155   3.833
 1058TIP3    H2 3139   4.654   4.127   3.698
 1059TIP3   OH2 3140   5.813   3.623   0.944
 1059TIP3    H1 3141   5.767   3.607   1.027
 1059TIP3    H2 3142   5.794   3.714   0.923
 1060TIP3   OH2 3143   4.546   5.308   4.361
 1060TIP3    H1 3144   4.462   5.295   4.405
 1060TIP3    H2 3145   4.566   5.224   4.321
 1061TIP3   OH2 3146   5.913   1.721   5.777
 1061TIP3    H1 3147   5.984   1.742   5.837
 1061TIP3    H2 3148   5.833   1.742   5.826
 1062TIP3   OH2 3149   5.951   6.262   1.562
 1062TIP3    H1 3150   6.018   6.234   1.499
 1062TIP3    H2 3151   5.974   6.218   1.643
 1063TIP3   OH2 3152   3.365   0.762   3.007
 1063TIP3    H1 3153   3.337   0.830   3.067
 1063TIP3    H2 3154   3.403   0.810   2.933
 1064TIP3   OH2 3155   3.787   4.598   5.464
 1064TIP3    H1 3156   3.848   4.617   5.536
 1064TIP3    H2 3157   3.702   4.628   5.496
 1065TIP3   OH2 3158   2.736   4.710   2.101
 1065TIP3    H1 3159   2.669   4.778   2.101
 1065TIP3    H2 3160   2.808   4.748   2.153
 1066TIP3   OH2 3161   0.978   2.700   2.375
 1066TIP3    H1 3162   0.969   2.781   2.325
 1066TIP3    H2 3163   1.009   2.636   2.311
 1067TIP3   OH2 3164   0.337   4.676   1.323
 1067TIP3    H1 3165   0.298   4.742   1.266
 1067TIP3    H2 3166   0.400   4.723   1.376
 1068TIP3   OH2 3167   6.603   2.218   4.192
 1068TIP3    H1 3168   6.616   2.181   4.105
 1068TIP3    H2 3169   6.540   2.160   4.234
 1069TIP3   OH2 3170   1.857   4.934   1.482
 1069TIP3    H1 3171   1.922   4.877   1.523
 1069TIP3    H2 3172   1.869   5.019   1.526
 1070TIP3   OH2 3173   1.388   3.532   0.057
 1070TIP3    H1 3174   1.322   3.550   0.124
 1070TIP3    H2 3175   1.422   3.618   0.032
 1071TIP3   OH2 3176   4.340   0.182   2.273
 1071TIP3    H1 3177   4.293   0.223   2.200
 1071TIP3    H2 3178   4.428   0.220   2.270
 1072TIP3   OH2 3179   4.057   4.525   4.265
 1072TIP3    H1 3180   4.088   4.540   4.176
 1072TIP3    H2 3181   4.136   4.508   4.317
 1073TIP3   OH2 3182   0.681   0.232   4.355
 1073TIP3    H1 3183   0.634   0.272   4.428
 1073TIP3    H2 3184   0.772   0.258   4.368
 1074TIP3   OH2 3185   3.082   5.650   4.330
 1074TIP3    H1 3186   3.115   5.602   4.254
 1074TIP3    H2 3187   3.120   5.605   4.405
 1075TIP3   OH2 3188   3.839   2.768   0.762
 1075TIP3    H1 3189   3.799   2.847   0.798
 1075TIP3    H2 3190   3.808   2.697   0.818
 1076TIP3   OH2 3191   2.502   6.470   0.547
 1076TIP3    H1 3192   2.456   6.479   0.630
 1076TIP3    H2 3193   2.501   6.376   0.529
 1077TIP3   OH2 3194   2.090   0.691   2.850
 1077TIP3    H1 3195   2.104   0.785   2.859
 1077TIP3    H2 3196   2.107   0.673   2.757
 1078TIP3   OH2 3197   2.267   6.739   1.086
 1078TIP3    H1 3198   2.216   6.814   1.056
 1078TIP3    H2 3199   2.203   6.668   1.093
 1079TIP3   OH2 3200   1.861   5.726   2.681
 1079TIP3    H1 3201   1.806   5.801   2.659
 1079TIP3    H2 3202   1.803   5.669   2.733
 1080TIP3   OH2 3203   1.331   1.958   0.727
 1080TIP3    H1 3204   1.337   2.052   0.708
 1080TIP3    H2 3205   1.341   1.916   0.642
 1081TIP3   OH2 3206   1.352   4.154   3.132
 1081TIP3    H1 3207   1.300   4.077   3.154
 1081TIP3    H2 3208   1.441   4.120   3.120
 1082TIP3   OH2 3209   3.334   2.349   0.512
 1082TIP3    H1 3210   3.369   2.345   0.423
 1082TIP3    H2 3211   3.256   2.293   0.509
 1083TIP3   OH2 3212   5.593   3.426   3.109
 1083TIP3    H1 3213   5.683   3.456   3.119
 1083TIP3    H2 3214   5.539   3.504   3.124
 1084TIP3   OH2 3215   6.487   5.220   4.061
 1084TIP3    H1 3216   6.575   5.206   4.025
 1084TIP3    H2 3217   6.436   5.146   4.027
 1085TIP3   OH2 3218   0.929   5.148   3.672
 1085TIP3    H1 3219   0.918   5.233   3.716
 1085TIP3    H2 3220   1.021   5.146   3.647
 1086TIP3   OH2 3221   6.884   5.841   2.354
 1086TIP3    H1 3222   6.855   5.766   2.302
 1086TIP3    H2 3223   6.824   5.911   2.331
 1087TIP3   OH2 3224   6.802   6.685   1.781
 1087TIP3    H1 3225   6.785   6.650   1.694
 1087TIP3    H2 3226   6.888   6.648   1.805
 1088TIP3   OH2 3227   6.037   5.199   5.860
 1088TIP3    H1 3228   6.096   5.251   5.805
 1088TIP3    H2 3229   5.950   5.234   5.841
 1089TIP3   OH2 3230   3.930   4.291   1.245
 1089TIP3    H1 3231   4.001   4.353   1.261
 1089TIP3    H2 3232   3.874   4.299   1.322
 1090TIP3   OH2 3233   2.931   5.812   2.146
 1090TIP3    H1 3234   3.025   5.827   2.137
 1090TIP3    H2 3235   2.898   5.894   2.183
 1091TIP3   OH2 3236   6.629   6.332   5.449
 1091TIP3    H1 3237   6.691   6.389   5.404
 1091TIP3    H2 3238   6.544   6.352   5.408
 1092TIP3   OH2 3239   4.139   5.137   1.126
 1092TIP3    H1 3240   4.152   5.232   1.118
 1092TIP3    H2 3241   4.066   5.127   1.186
 1093TIP3   OH2 3242   6.906   5.270   5.335
 1093TIP3    H1 3243   6.853   5.252   5.257
 1093TIP3    H2 3244   6.948   5.186   5.355
 1094TIP3   OH2 3245   2.552   1.587   0.050
 1094TIP3    H1 3246   2.567   1.557   0.139
 1094TIP3    H2 3247   2.639   1.612   0.017
 1095TIP3   OH2 3248   6.264   5.556   1.317
 1095TIP3    H1 3249   6.319   5.516   1.249
 1095TIP3    H2 3250   6.181   5.509   1.311
 1096TIP3   OH2 3251   1.847   3.570   3.702
 1096TIP3    H1 3252   1.939   3.572   3.728
 1096TIP3    H2 3253   1.810   3.651   3.736
 1097TIP3   OH2 3254   4.625   3.456   1.926
 1097TIP3    H1 3255   4.712   3.420   1.907
 1097TIP3    H2 3256   4.631   3.484   2.017
 1098TIP3   OH2 3257   4.389   2.258   5.040
 1098TIP3    H1 3258   4.302   2.277   5.005
 1098TIP3    H2 3259   4.439   2.339   5.028
 1099TIP3   OH2 3260   6.112   5.662   0.164
 1099TIP3    H1 3261   6.128   5.719   0.239
 1099TIP3    H2 3262   6.099   5.722   0.091
 1100TIP3   OH2 3263   4.439   6.570   2.856
 1100TIP3    H1 3264   4.512   6.594   2.800
 1100TIP3    H2 3265   4.472   6.578   2.945
 1101TIP3   OH2 3266   6.133   3.426   3.856
 1101TIP3    H1 3267   6.131   3.406   3.762
 1101TIP3    H2 3268   6.069   3.365   3.894
 1102TIP3   OH2 3269   1.556   2.566   2.715
 1102TIP3    H1 3270   1.625   2.540   2.777
 1102TIP3    H2 3271   1.601   2.573   2.631
 1103TIP3   OH2 3272   1.807   4.397   0.993
 1103TIP3    H1 3273   1.774   4.314   0.958
 1103TIP3    H2 3274   1.901   4.382   1.006
 1104TIP3   OH2 3275   6.179   3.373   1.891
 1104TIP3    H1 3276   6.124   3.443   1.929
 1104TIP3    H2 3277   6.116   3.312   1.853
 1105TIP3   OH2 3278   5.287   0.130   4.133
 1105TIP3    H1 3279   5.193   0.123   4.150
 1105TIP3    H2 3280   5.315   0.040   4.117
 1106TIP3   OH2 3281   5.632   3.347   3.851
 1106TIP3    H1 3282   5.663   3.281   3.788
 1106TIP3    H2 3283   5.563   3.303   3.900
 1107TIP3   OH2 3284   3.048   2.065   4.194
 1107TIP3    H1 3285   3.115   2.076   4.261
 1107TIP3    H2 3286   3.092   2.018   4.123
 1108TIP3   OH2 3287   7.012   1.217   0.414
 1108TIP3    H1 3288   7.025   1.282   0.483
 1108TIP3    H2 3289   7.076   1.242   0.346
 1109TIP3   OH2 3290   1.885   4.204   2.884
 1109TIP3    H1 3291   1.944   4.262   2.931
 1109TIP3    H2 3292   1.892   4.120   2.929
 1110TIP3   OH2 3293   6.643   4.546   3.691
 1110TIP3    H1 3294   6.614   4.506   3.609
 1110TIP3    H2 3295   6.738   4.543   3.688
 1111TIP3   OH2 3296   4.288   5.417   0.480
 1111TIP3    H1 3297   4.212   5.413   0.538
 1111TIP3    H2 3298   4.267   5.489   0.420
 1112TIP3   OH2 3299   6.587   5.389   1.171
 1112TIP3    H1 3300   6.614   5.297   1.178
 1112TIP3    H2 3301   6.545   5.408   1.255
 1113TIP3   OH2 3302   4.344   3.152   1.595
 1113TIP3    H1 3303   4.305   3.170   1.510
 1113TIP3    H2 3304   4.382   3.236   1.623
 1114TIP3   OH2 3305   5.467   1.781   2.886
 1114TIP3    H1 3306   5.408   1.854   2.867
 1114TIP3    H2 3307   5.459   1.723   2.810
 1115TIP3   OH2 3308   6.358   4.637   4.533
 1115TIP3    H1 3309   6.419   4.692   4.582
 1115TIP3    H2 3310   6.346   4.682   4.449
 1116TIP3   OH2 3311   2.773   3.111   2.058
 1116TIP3    H1 3312   2.829   3.177   2.017
 1116TIP3    H2 3313   2.685   3.150   2.057
 1117TIP3   OH2 3314   2.293   0.933   3.372
 1117TIP3    H1 3315   2.280   0.957   3.280
 1117TIP3    H2 3316   2.238   0.856   3.385
 1118TIP3   OH2 3317   1.589   3.089   3.747
 1118TIP3    H1 3318   1.557   3.180   3.741
 1118TIP3    H2 3319   1.514   3.036   3.718
 1119TIP3   OH2 3320   0.528   2.507   4.074
 1119TIP3    H1 3321   0.489   2.421   4.058
 1119TIP3    H2 3322   0.616   2.500   4.037
 1120TIP3   OH2 3323   2.659   6.544   0.287
 1120TIP3    H1 3324   2.630   6.634   0.270
 1120TIP3    H2 3325   2.645   6.532   0.381
 1121TIP3   OH2 3326   2.166   1.503   2.298
 1121TIP3    H1 3327   2.217   1.583   2.288
 1121TIP3    H2 3328   2.177   1.457   2.216
 1122TIP3   OH2 3329   0.699   0.730   3.229
 1122TIP3    H1 3330   0.667   0.663   3.169
 1122TIP3    H2 3331   0.671   0.700   3.316
 1123TIP3   OH2 3332   4.892   1.211   1.476
 1123TIP3    H1 3333   4.900   1.144   1.543
 1123TIP3    H2 3334   4.881   1.163   1.394
 1124TIP3   OH2 3335   2.336   1.300   2.792
 1124TIP3    H1 3336   2.306   1.257   2.872
 1124TIP3    H2 3337   2.279   1.375   2.782
 1125TIP3   OH2 3338   1.700   0.561   3.500
 1125TIP3    H1 3339   1.734   0.650   3.493
 1125TIP3    H2 3340   1.654   0.546   3.418
 1126TIP3   OH2 3341   1.145   1.882   4.986
 1126TIP3    H1 3342   1.199   1.861   4.909
 1126TIP3    H2 3343   1.139   1.799   5.034
 1127TIP3   OH2 3344   0.859   4.498   5.821
 1127TIP3    H1 3345   0.870   4.593   5.832
 1127TIP3    H2 3346   0.946   4.466   5.798
 1128TIP3   OH2 3347   2.296   2.513   5.669
 1128TIP3    H1 3348   2.302   2.546   5.580
 1128TIP3    H2 3349   2.387   2.495   5.694
 1129TIP3   OH2 3350   3.631   2.199   2.150
 1129TIP3    H1 3351   3.594   2.137   2.214
 1129TIP3    H2 3352   3.685   2.144   2.093
 1130TIP3   OH2 3353   5.848   6.651   5.404
 1130TIP3    H1 3354   5.820   6.666   5.495
 1130TIP3    H2 3355   5.807   6.568   5.380
 1131TIP3   OH2 3356   4.429   2.318   0.100
 1131TIP3    H1 3357   4.404   2.309   0.192
 1131TIP3    H2 3358   4.363   2.377   0.063
 1132TIP3   OH2 3359   3.274   3.089   4.800
 1132TIP3    H1 3360   3.307   3.055   4.883
 1132TIP3    H2 3361   3.203   3.030   4.776
 1133TIP3   OH2 3362   0.580   6.256   2.304
 1133TIP3    H1 3363   0.597   6.165   2.330
 1133TIP3    H2 3364   0.640   6.308   2.357
 1134TIP3   OH2 3365   4.516   0.272   0.151
 1134TIP3    H1 3366   4.540   0.182   0.175
 1134TIP3    H2 3367   4.555   0.285   0.064
 1135TIP3   OH2 3368   2.622   5.441   2.594
 1135TIP3    H1 3369   2.540   5.391   2.598
 1135TIP3    H2 3370   2.626   5.487   2.677
 1136TIP3   OH2 3371   3.212   0.899   5.395
 1136TIP3    H1 3372   3.208   0.939   5.482
 1136TIP3    H2 3373   3.303   0.868   5.388
 1137TIP3   OH2 3374   4.787   0.741   1.171
 1137TIP3    H1 3375   4.850   0.699   1.113
 1137TIP3    H2 3376   4.703   0.703   1.147
 1138TIP3   OH2 3377   2.794   6.594   4.643
 1138TIP3    H1 3378   2.826   6.607   4.732
 1138TIP3    H2 3379   2.871   6.602   4.588
 1139TIP3   OH2 3380   1.982   2.346   4.544
 1139TIP3    H1 3381   2.043   2.295   4.597
 1139TIP3    H2 3382   2.032   2.374   4.468
 1140TIP3   OH2 3383   5.096   1.165   0.219
 1140TIP3    H1 3384   5.162   1.109   0.178
 1140TIP3    H2 3385   5.147   1.237   0.258
 1141TIP3   OH2 3386   1.776   4.321   4.006
 1141TIP3    H1 3387   1.774   4.286   3.917
 1141TIP3    H2 3388   1.865   4.301   4.037
 1142TIP3   OH2 3389   2.379   1.939   0.307
 1142TIP3    H1 3390   2.313   1.904   0.366
 1142TIP3    H2 3391   2.331   1.998   0.249
 1143TIP3   OH2 3392   1.364   0.519   5.145
 1143TIP3    H1 3393   1.331   0.546   5.231
 1143TIP3    H2 3394   1.351   0.424   5.143
 1144TIP3   OH2 3395   4.454   2.822   0.127
 1144TIP3    H1 3396   4.543   2.857   0.136
 1144TIP3    H2 3397   4.423   2.811   0.217
 1145TIP3   OH2 3398   5.155   3.452   4.585
 1145TIP3    H1 3399   5.194   3.440   4.671
 1145TIP3    H2 3400   5.062   3.431   4.598
 1146TIP3   OH2 3401   5.463   0.420   2.054
 1146TIP3    H1 3402   5.473   0.438   1.960
 1146TIP3    H2 3403   5.489   0.329   2.064
 1147TIP3   OH2 3404   1.104   6.725   4.468
 1147TIP3    H1 3405   1.123   6.697   4.557
 1147TIP3    H2 3406   1.154   6.806   4.457
 1148TIP3   OH2 3407   3.398   1.807   2.497
 1148TIP3    H1 3408   3.383   1.878   2.559
 1148TIP3    H2 3409   3.326   1.814   2.435
 1149TIP3   OH2 3410   2.542   2.861   4.090
 1149TIP3    H1 3411   2.575   2.949   4.109
 1149TIP3    H2 3412   2.468   2.849   4.149
 1150TIP3   OH2 3413   2.625   5.546   3.919
 1150TIP3    H1 3414   2.699   5.506   3.873
 1150TIP3    H2 3415   2.571   5.473   3.947
 1151TIP3   OH2 3416   2.841   2.459   1.184
 1151TIP3    H1 3417   2.795   2.379   1.208
 1151TIP3    H2 3418   2.810   2.479   1.096
 1152TIP3   OH2 3419   2.019   5.052   4.168
 1152TIP3    H1 3420   1.980   5.003   4.096
 1152TIP3    H2 3421   1.956   5.122   4.187
 1153TIP3   OH2 3422   0.776   1.743   1.722
 1153TIP3    H1 3423   0.720   1.771   1.794
 1153TIP3    H2 3424   0.739   1.660   1.693
 1154TIP3   OH2 3425   0.163   1.526   0.625
 1154TIP3    H1 3426   0.200   1.523   0.537
 1154TIP3    H2 3427   0.187   1.612   0.658
 1155TIP3   OH2 3428   0.509   0.427   5.476
 1155TIP3    H1 3429   0.500   0.332   5.476
 1155TIP3    H2 3430   0.495   0.453   5.385
 1156TIP3   OH2 3431   0.408   2.646   0.585
 1156TIP3    H1 3432   0.332   2.614   0.536
 1156TIP3    H2 3433   0.379   2.727   0.626
 1157TIP3   OH2 3434   1.084   1.133   2.432
 1157TIP3    H1 3435   1.087   1.229   2.442
 1157TIP3    H2 3436   1.169   1.104   2.465
 1158TIP3   OH2 3437   3.816   5.852   2.550
 1158TIP3    H1 3438   3.903   5.862   2.589
 1158TIP3    H2 3439   3.800   5.935   2.506
 1159TIP3   OH2 3440   0.876   4.939   1.456
 1159TIP3    H1 3441   0.966   4.946   1.489
 1159TIP3    H2 3442   0.844   5.029   1.454
 1160TIP3   OH2 3443   7.158   6.641   3.165
 1160TIP3    H1 3444   7.248   6.658   3.137
 1160TIP3    H2 3445   7.126   6.727   3.195
 1161TIP3   OH2 3446   5.425   2.729   2.884
 1161TIP3    H1 3447   5.372   2.653   2.910
 1161TIP3    H2 3448   5.450   2.711   2.793
 1162TIP3   OH2 3449   0.325   2.870   5.545
 1162TIP3    H1 3450   0.393   2.933   5.568
 1162TIP3    H2 3451   0.243   2.919   5.551
 1163TIP3   OH2 3452   5.659   0.138   1.489
 1163TIP3    H1 3453   5.656   0.148   1.584
 1163TIP3    H2 3454   5.677   0.225   1.455
 1164TIP3   OH2 3455   2.953   2.579   0.012
 1164TIP3    H1 3456   3.020   2.533  -0.038
 1164TIP3    H2 3457   2.974   2.563   0.103
 1165TIP3   OH2 3458   6.892   0.260   5.535
 1165TIP3    H1 3459   6.812   0.209   5.548
 1165TIP3    H2 3460   6.917   0.244   5.444
 1166TIP3   OH2 3461   2.323   5.646   1.432
 1166TIP3    H1 3462   2.251   5.708   1.443
 1166TIP3    H2 3463   2.375   5.682   1.361
 1167TIP3   OH2 3464   2.615   1.132   1.995
 1167TIP3    H1 3465   2.616   1.043   1.962
 1167TIP3    H2 3466   2.701   1.145   2.033
 1168TIP3   OH2 3467   0.060   3.935   4.624
 1168TIP3    H1 3468   0.009   4.005   4.665
 1168TIP3    H2 3469   0.006   3.906   4.550
 1169TIP3   OH2 3470   4.541   1.245   5.701
 1169TIP3    H1 3471   4.550   1.167   5.755
 1169TIP3    H2 3472   4.456   1.282   5.726
 1170TIP3   OH2 3473   7.084   6.325   0.592
 1170TIP3    H1 3474   7.097   6.405   0.642
 1170TIP3    H2 3475   7.042   6.353   0.511
 1171TIP3   OH2 3476   6.281   1.298   1.306
 1171TIP3    H1 3477   6.247   1.348   1.380
 1171TIP3    H2 3478   6.237   1.334   1.229
 1172TIP3   OH2 3479   4.921   1.552   2.887
 1172TIP3    H1 3480   4.863   1.487   2.927
 1172TIP3    H2 3481   5.005   1.507   2.880
 1173TIP3   OH2 3482   1.586   5.266   2.720
 1173TIP3    H1 3483   1.516   5.321   2.685
 1173TIP3    H2 3484   1.660   5.280   2.660
 1174TIP3   OH2 3485   0.447   5.078   0.603
 1174TIP3    H1 3486   0.443   5.170   0.628
 1174TIP3    H2 3487   0.536   5.050   0.626
 1175TIP3   OH2 3488   6.854   4.749   4.392
 1175TIP3    H1 3489   6.770   4.790   4.413
 1175TIP3    H2 3490   6.836   4.695   4.315
 1176TIP3   OH2 3491   0.183   6.243   0.217
 1176TIP3    H1 3492   0.164   6.282   0.302
 1176TIP3    H2 3493   0.277   6.257   0.206
 1177TIP3   OH2 3494   1.018   1.389   5.277
 1177TIP3    H1 3495   0.968   1.317   5.239
 1177TIP3    H2 3496   1.096   1.347   5.314
 1178TIP3   OH2 3497   4.475   3.214   2.196
 1178TIP3    H1 3498   4.527   3.293   2.182
 1178TIP3    H2 3499   4.512   3.174   2.275
 1179TIP3   OH2 3500   3.670   4.077   3.605
 1179TIP3    H1 3501   3.651   4.106   3.694
 1179TIP3    H2 3502   3.586   4.084   3.559
 1180TIP3   OH2 3503   3.745   0.856   5.757
 1180TIP3    H1 3504   3.650   0.868   5.761
 1180TIP3    H2 3505   3.771   0.843   5.848
 1181TIP3   OH2 3506   0.401   4.820   5.680
 1181TIP3    H1 3507   0.335   4.829   5.611
 1181TIP3    H2 3508   0.360   4.762   5.745
 1182TIP3   OH2 3509   2.298   5.035   0.130
 1182TIP3    H1 3510   2.273   4.956   0.082
 1182TIP3    H2 3511   2.238   5.103   0.099
 1183TIP3   OH2 3512   2.782   3.396   0.153
 1183TIP3    H1 3513   2.822   3.482   0.142
 1183TIP3    H2 3514   2.847   3.335   0.118
 1184TIP3   OH2 3515   0.765   0.222   1.988
 1184TIP3    H1 3516   0.784   0.248   1.898
 1184TIP3    H2 3517   0.763   0.127   1.986
 1185TIP3   OH2 3518   6.631   3.494   1.656
 1185TIP3    H1 3519   6.668   3.581   1.638
 1185TIP3    H2 3520   6.549   3.512   1.701
 1186TIP3   OH2 3521   3.627   2.405   5.843
 1186TIP3    H1 3522   3.601   2.491   5.876
 1186TIP3    H2 3523   3.647   2.420   5.751
 1187TIP3   OH2 3524   4.869   5.375   1.013
 1187TIP3    H1 3525   4.812   5.380   1.090
 1187TIP3    H2 3526   4.836   5.300   0.965
 1188TIP3   OH2 3527   5.709   3.520   2.441
 1188TIP3    H1 3528   5.724   3.581   2.369
 1188TIP3    H2 3529   5.743   3.565   2.518
 1189TIP3   OH2 3530   4.146   1.392   1.005
 1189TIP3    H1 3531   4.192   1.396   1.089
 1189TIP3    H2 3532   4.197   1.329   0.953
 1190TIP3   OH2 3533   1.854   0.850   2.063
 1190TIP3    H1 3534   1.781   0.902   2.096
 1190TIP3    H2 3535   1.813   0.777   2.016
 1191TIP3   OH2 3536   3.567   1.029   4.302
 1191TIP3    H1 3537   3.557   1.121   4.325
 1191TIP3    H2 3538   3.530   1.023   4.214
 1192TIP3   OH2 3539   5.087   4.541   1.352
 1192TIP3    H1 3540   4.993   4.534   1.372
 1192TIP3    H2 3541   5.095   4.624   1.305
 1193TIP3   OH2 3542   0.144   4.785   3.017
 1193TIP3    H1 3543   0.136   4.876   3.046
 1193TIP3    H2 3544   0.207   4.746   3.078
 1194TIP3   OH2 3545   3.921   2.397   2.282
 1194TIP3    H1 3546   3.939   2.492   2.285
 1194TIP3    H2 3547   3.915   2.377   2.188
 1195TIP3   OH2 3548   3.308   6.596   4.013
 1195TIP3    H1 3549   3.375   6.546   3.967
 1195TIP3    H2 3550   3.253   6.530   4.056
 1196TIP3   OH2 3551   4.698   3.316   3.588
 1196TIP3    H1 3552   4.790   3.323   3.565
 1196TIP3    H2 3553   4.679   3.397   3.636
 1197TIP3   OH2 3554   2.317   0.066   4.046
 1197TIP3    H1 3555   2.245   0.057   4.109
 1197TIP3    H2 3556   2.289   0.137   3.988
 1198TIP3   OH2 3557   4.863   6.489   1.977
 1198TIP3    H1 3558   4.899   6.431   1.910
 1198TIP3    H2 3559   4.940   6.523   2.022
 1199TIP3   OH2 3560   5.845   4.015   2.613
 1199TIP3    H1 3561   5.848   4.100   2.657
 1199TIP3    H2 3562   5.754   3.987   2.620
 1200TIP3   OH2 3563   0.984   0.785   3.755
 1200TIP3    H1 3564   0.904   0.733   3.762
 1200TIP3    H2 3565   1.053   0.728   3.787
 1201TIP3   OH2 3566   3.306   5.827   2.834
 1201TIP3    H1 3567   3.311   5.742   2.790
 1201TIP3    H2 3568   3.388   5.871   2.811
 1202TIP3   OH2 3569   6.371   1.477   0.939
 1202TIP3    H1 3570   6.422   1.477   1.021
 1202TIP3    H2 3571   6.280   1.480   0.968
 1203TIP3   OH2 3572   5.479   4.302   0.066
 1203TIP3    H1 3573   5.560   4.252   0.078
 1203TIP3    H2 3574   5.464   4.302  -0.029
 1204TIP3   OH2 3575   5.698   4.387   2.684
 1204TIP3    H1 3576   5.677   4.362   2.594
 1204TIP3    H2 3577   5.755   4.463   2.675
 1205TIP3   OH2 3578   7.174   3.379   5.127
 1205TIP3    H1 3579   7.207   3.320   5.060
 1205TIP3    H2 3580   7.163   3.463   5.082
 1206TIP3   OH2 3581   4.281   1.702   4.576
 1206TIP3    H1 3582   4.287   1.692   4.671
 1206TIP3    H2 3583   4.286   1.612   4.542
 1207TIP3   OH2 3584   6.826   6.162   0.001
 1207TIP3    H1 3585   6.808   6.232   0.064
 1207TIP3    H2 3586   6.844   6.208  -0.081
 1208TIP3   OH2 3587   4.371   1.623   2.476
 1208TIP3    H1 3588   4.456   1.611   2.517
 1208TIP3    H2 3589   4.311   1.642   2.548
 1209TIP3   OH2 3590   5.023   5.533   1.329
 1209TIP3    H1 3591   4.944   5.543   1.382
 1209TIP3    H2 3592   5.011   5.595   1.256
 1210TIP3   OH2 3593   3.802   6.256   0.489
 1210TIP3    H1 3594   3.825   6.281   0.400
 1210TIP3    H2 3595   3.723   6.307   0.508
 1211TIP3   OH2 3596   2.562   1.933   3.880
 1211TIP3    H1 3597   2.549   1.906   3.971
 1211TIP3    H2 3598   2.656   1.949   3.872
 1212TIP3   OH2 3599   6.406   3.048   5.761
 1212TIP3    H1 3600   6.445   2.980   5.707
 1212TIP3    H2 3601   6.323   3.068   5.718
 1213TIP3   OH2 3602   0.099   4.623   5.315
 1213TIP3    H1 3603   0.005   4.641   5.315
 1213TIP3    H2 3604   0.119   4.596   5.225
 1214TIP3   OH2 3605   4.949   0.117   1.749
 1214TIP3    H1 3606   4.874   0.092   1.802
 1214TIP3    H2 3607   4.913   0.126   1.660
 1215TIP3   OH2 3608   6.360   4.082   0.888
 1215TIP3    H1 3609   6.365   4.175   0.909
 1215TIP3    H2 3610   6.274   4.071   0.847
 1216TIP3   OH2 3611   2.896   0.780   0.624
 1216TIP3    H1 3612   2.864   0.694   0.598
 1216TIP3    H2 3613   2.830   0.814   0.684
 1217TIP3   OH2 3614   6.667   1.265   1.016
 1217TIP3    H1 3615   6.582   1.281   0.976
 1217TIP3    H2 3616   6.707   1.351   1.023
 1218TIP3   OH2 3617   5.004   5.513   3.709
 1218TIP3    H1 3618   5.056   5.553   3.639
 1218TIP3    H2 3619   4.972   5.431   3.672
 1219TIP3   OH2 3620   4.304   0.959   4.797
 1219TIP3    H1 3621   4.358   1.031   4.763
 1219TIP3    H2 3622   4.360   0.917   4.863
 1220TIP3   OH2 3623   4.030   0.876   2.045
 1220TIP3    H1 3624   4.115   0.914   2.066
 1220TIP3    H2 3625   3.989   0.941   1.988
 1221TIP3   OH2 3626   4.623   1.312   3.513
 1221TIP3    H1 3627   4.586   1.253   3.579
 1221TIP3    H2 3628   4.695   1.262   3.474
 1222TIP3   OH2 3629   4.675   5.486   3.413
 1222TIP3    H1 3630   4.647   5.398   3.386
 1222TIP3    H2 3631   4.733   5.516   3.343
 1223TIP3   OH2 3632   0.933   1.355   5.772
 1223TIP3    H1 3633   0.881   1.361   5.852
 1223TIP3    H2 3634   1.024   1.356   5.802
 1224TIP3   OH2 3635   5.706   0.609   3.789
 1224TIP3    H1 3636   5.640   0.559   3.836
 1224TIP3    H2 3637   5.731   0.679   3.848
 1225TIP3   OH2 3638   5.332   6.356   3.925
 1225TIP3    H1 3639   5.409   6.409   3.906
 1225TIP3    H2 3640   5.333   6.345   4.020
 1226TIP3   OH2 3641   4.754   6.743   4.699
 1226TIP3    H1 3642   4.728   6.683   4.769
 1226TIP3    H2 3643   4.842   6.772   4.723
 1227TIP3   OH2 3644   5.822   4.979   0.022
 1227TIP3    H1 3645   5.765   4.907   0.050
 1227TIP3    H2 3646   5.901   4.970   0.076
 1228TIP3   OH2 3647   1.806   0.017   4.694
 1228TIP3    H1 3648   1.745   0.079   4.654
 1228TIP3    H2 3649   1.848   0.067   4.765
 1229TIP3   OH2 3650   1.377   3.293   4.626
 1229TIP3    H1 3651   1.400   3.229   4.559
 1229TIP3    H2 3652   1.421   3.262   4.705
 1230TIP3   OH2 3653   4.151   1.724   4.163
 1230TIP3    H1 3654   4.057   1.708   4.158
 1230TIP3    H2 3655   4.183   1.656   4.224
 1231TIP3   OH2 3656   3.626   3.493   2.315
 1231TIP3    H1 3657   3.673   3.567   2.354
 1231TIP3    H2 3658   3.600   3.523   2.228
 1232TIP3   OH2 3659   5.487   1.741   4.735
 1232TIP3    H1 3660   5.540   1.700   4.804
 1232TIP3    H2 3661   5.440   1.668   4.695
 1233TIP3   OH2 3662   5.933   4.928   1.115
 1233TIP3    H1 3663   5.871   4.988   1.074
 1233TIP3    H2 3664   5.878   4.862   1.158
 1234TIP3   OH2 3665   4.827   5.821   5.402
 1234TIP3    H1 3666   4.790   5.908   5.422
 1234TIP3    H2 3667   4.776   5.761   5.457
 1235TIP3   OH2 3668   0.746   1.643   3.245
 1235TIP3    H1 3669   0.840   1.627   3.259
 1235TIP3    H2 3670   0.716   1.683   3.326
 1236TIP3   OH2 3671   2.082   2.210   1.494
 1236TIP3    H1 3672   2.086   2.248   1.406
 1236TIP3    H2 3673   2.160   2.244   1.538
 1237TIP3   OH2 3674   1.395   6.119   4.770
 1237TIP3    H1 3675   1.348   6.043   4.804
 1237TIP3    H2 3676   1.475   6.082   4.733
 1238TIP3   OH2 3677   1.074   1.680   0.440
 1238TIP3    H1 3678   1.064   1.690   0.346
 1238TIP3    H2 3679   1.166   1.655   0.452
 1239TIP3   OH2 3680   4.596   3.511   2.189
 1239TIP3    H1 3681   4.550   3.587   2.226
 1239TIP3    H2 3682   4.634   3.467   2.265
 1240TIP3   OH2 3683   2.641   2.868   5.079
 1240TIP3    H1 3684   2.627   2.788   5.028
 1240TIP3    H2 3685   2.610   2.939   5.022
 1241TIP3   OH2 3686   1.321   1.069   2.597
 1241TIP3    H1 3687   1.283   1.024   2.672
 1241TIP3    H2 3688   1.336   1.159   2.628
 1242TIP3   OH2 3689   5.121   4.682   3.043
 1242TIP3    H1 3690   5.064   4.627   3.096
 1242TIP3    H2 3691   5.070   4.703   2.965
 1243TIP3   OH2 3692   4.698   2.664   1.735
 1243TIP3    H1 3693   4.721   2.757   1.738
 1243TIP3    H2 3694   4.767   2.624   1.682
 1244TIP3   OH2 3695   0.277   0.026   2.906
 1244TIP3    H1 3696   0.252   0.102   2.960
 1244TIP3    H2 3697   0.372   0.034   2.897
 1245TIP3   OH2 3698   5.082   1.874   3.263
 1245TIP3    H1 3699   5.053   1.952   3.215
 1245TIP3    H2 3700   5.015   1.808   3.245
 1246TIP3   OH2 3701   2.005   2.973   4.018
 1246TIP3    H1 3702   1.968   2.950   3.933
 1246TIP3    H2 3703   2.083   3.025   3.998
 1247TIP3   OH2 3704   7.144   3.766   5.511
 1247TIP3    H1 3705   7.104   3.689   5.471
 1247TIP3    H2 3706   7.144   3.748   5.605
 1248TIP3   OH2 3707   1.077   1.771   4.132
 1248TIP3    H1 3708   1.094   1.724   4.050
 1248TIP3    H2 3709   1.071   1.863   4.107
 1249TIP3   OH2 3710   0.513   3.702   4.792
 1249TIP3    H1 3711   0.516   3.622   4.739
 1249TIP3    H2 3712   0.453   3.760   4.745
 1250TIP3   OH2 3713   4.531   3.525   1.135
 1250TIP3    H1 3714   4.452   3.517   1.082
 1250TIP3    H2 3715   4.584   3.591   1.089
 1251TIP3   OH2 3716   4.611   2.893   0.711
 1251TIP3    H1 3717   4.532   2.938   0.738
 1251TIP3    H2 3718   4.582   2.830   0.645
 1252TIP3   OH2 3719   4.858   6.417   3.398
 1252TIP3    H1 3720   4.905   6.341   3.364
 1252TIP3    H2 3721   4.765   6.393   3.391
 1253TIP3   OH2 3722   5.010   1.776   2.564
 1253TIP3    H1 3723   4.916   1.760   2.577
 1253TIP3    H2 3724   5.026   1.749   2.473
 1254TIP3   OH2 3725   3.189   5.265   4.375
 1254TIP3    H1 3726   3.110   5.217   4.400
 1254TIP3    H2 3727   3.194   5.255   4.280
 1255TIP3   OH2 3728   7.005   6.282   3.490
 1255TIP3    H1 3729   7.039   6.370   3.472
 1255TIP3    H2 3730   7.043   6.227   3.422
 1256TIP3   OH2 3731   0.281   5.841   0.229
 1256TIP3    H1 3732   0.231   5.780   0.284
 1256TIP3    H2 3733   0.237   5.840   0.145
 1257TIP3   OH2 3734   0.835   3.464   4.286
 1257TIP3    H1 3735   0.908   3.403   4.273
 1257TIP3    H2 3736   0.872   3.533   4.340
 1258TIP3   OH2 3737   6.020   6.493   5.195
 1258TIP3    H1 3738   5.974   6.477   5.113
 1258TIP3    H2 3739   5.954   6.529   5.253
 1259TIP3   OH2 3740   5.424   2.490   4.684
 1259TIP3    H1 3741   5.411   2.514   4.775
 1259TIP3    H2 3742   5.482   2.413   4.687
 1260TIP3   OH2 3743   4.797   2.862   3.977
 1260TIP3    H1 3744   4.799   2.893   3.886
 1260TIP3    H2 3745   4.754   2.933   4.025
 1261TIP3   OH2 3746   2.487   4.370   1.735
 1261TIP3    H1 3747   2.471   4.294   1.792
 1261TIP3    H2 3748   2.502   4.442   1.796
 1262TIP3   OH2 3749   2.130   0.622   3.608
 1262TIP3    H1 3750   2.182   0.676   3.667
 1262TIP3    H2 3751   2.050   0.672   3.593
 1263TIP3   OH2 3752   3.450   4.130   0.570
 1263TIP3    H1 3753   3.506   4.058   0.542
 1263TIP3    H2 3754   3.481   4.152   0.658
 1264TIP3   OH2 3755   5.582   5.818   5.798
 1264TIP3    H1 3756   5.612   5.749   5.858
 1264TIP3    H2 3757   5.575   5.774   5.713
 1265TIP3   OH2 3758   5.210   6.730   0.766
 1265TIP3    H1 3759   5.134   6.778   0.799
 1265TIP3    H2 3760   5.172   6.654   0.721
 1266TIP3   OH2 3761   3.997   3.672   2.759
 1266TIP3    H1 3762   3.970   3.618   2.833
 1266TIP3    H2 3763   4.083   3.706   2.784
 1267TIP3   OH2 3764   4.804   1.154   2.088
 1267TIP3    H1 3765   4.787   1.134   2.180
 1267TIP3    H2 3766   4.836   1.072   2.052
 1268TIP3   OH2 3767   5.271   5.915   5.591
 1268TIP3    H1 3768   5.251   5.984   5.654
 1268TIP3    H2 3769   5.192   5.860   5.589
 1269TIP3   OH2 3770   5.339   0.069   5.391
 1269TIP3    H1 3771   5.355   0.046   5.482
 1269TIP3    H2 3772   5.251   0.035   5.373
 1270TIP3   OH2 3773   2.525   2.720   2.662
 1270TIP3    H1 3774   2.459   2.652   2.680
 1270TIP3    H2 3775   2.532   2.722   2.566
 1271TIP3   OH2 3776   1.112   0.473   0.211
 1271TIP3    H1 3777   1.038   0.434   0.165
 1271TIP3    H2 3778   1.103   0.567   0.197
 1272TIP3   OH2 3779   4.125   2.434   0.265
 1272TIP3    H1 3780   4.115   2.510   0.323
 1272TIP3    H2 3781   4.220   2.421   0.259
 1273TIP3   OH2 3782   2.553   3.891   1.539
 1273TIP3    H1 3783   2.627   3.915   1.594
 1273TIP3    H2 3784   2.476   3.912   1.592
 1274TIP3   OH2 3785   3.480   6.026   2.706
 1274TIP3    H1 3786   3.500   6.017   2.613
 1274TIP3    H2 3787   3.564   6.050   2.745
 1275TIP3   OH2 3788   2.178   1.382   0.209
 1275TIP3    H1 3789   2.212   1.465   0.243
 1275TIP3    H2 3790   2.092   1.373   0.248
 1276TIP3   OH2 3791   4.006   4.555   3.702
 1276TIP3    H1 3792   4.090   4.527   3.666
 1276TIP3    H2 3793   3.941   4.499   3.659
 1277TIP3   OH2 3794   3.157   6.694   5.133
 1277TIP3    H1 3795   3.087   6.662   5.075
 1277TIP3    H2 3796   3.201   6.762   5.082
 1278TIP3   OH2 3797   5.123   5.602   4.258
 1278TIP3    H1 3798   5.175   5.526   4.283
 1278TIP3    H2 3799   5.080   5.576   4.176
 1279TIP3   OH2 3800   4.661   2.663   2.708
 1279TIP3    H1 3801   4.664   2.752   2.671
 1279TIP3    H2 3802   4.689   2.607   2.635
 1280TIP3   OH2 3803   0.315   0.475   2.738
 1280TIP3    H1 3804   0.391   0.417   2.740
 1280TIP3    H2 3805   0.347   0.558   2.774
 1281TIP3   OH2 3806   2.424   5.182   5.434
 1281TIP3    H1 3807   2.422   5.112   5.370
 1281TIP3    H2 3808   2.500   5.162   5.489
 1282TIP3   OH2 3809   6.432   3.637   5.566
 1282TIP3    H1 3810   6.502   3.597   5.514
 1282TIP3    H2 3811   6.439   3.597   5.652
 1283TIP3   OH2 3812   4.443   2.202   4.411
 1283TIP3    H1 3813   4.422   2.109   4.402
 1283TIP3    H2 3814   4.488   2.208   4.495
 1284TIP3   OH2 3815   2.839   3.024   3.391
 1284TIP3    H1 3816   2.920   3.066   3.362
 1284TIP3    H2 3817   2.808   2.977   3.313
 1285TIP3   OH2 3818   0.898   1.553   4.128
 1285TIP3    H1 3819   0.946   1.635   4.124
 1285TIP3    H2 3820   0.937   1.506   4.202
 1286TIP3   OH2 3821   6.567   3.044   0.365
 1286TIP3    H1 3822   6.627   2.971   0.384
 1286TIP3    H2 3823   6.481   3.003   0.360
 1287TIP3   OH2 3824   4.982   5.971   1.718
 1287TIP3    H1 3825   4.963   6.040   1.654
 1287TIP3    H2 3826   4.970   6.014   1.803
 1288TIP3   OH2 3827   4.751   6.758   2.172
 1288TIP3    H1 3828   4.755   6.678   2.225
 1288TIP3    H2 3829   4.737   6.727   2.083
 1289TIP3   OH2 3830   6.863   0.348   2.318
 1289TIP3    H1 3831   6.884   0.256   2.302
 1289TIP3    H2 3832   6.900   0.395   2.244
 1290TIP3   OH2 3833   4.780   2.001   1.391
 1290TIP3    H1 3834   4.825   2.086   1.392
 1290TIP3    H2 3835   4.744   1.992   1.479
 1291TIP3   OH2 3836   1.396   4.208   3.471
 1291TIP3    H1 3837   1.353   4.184   3.554
 1291TIP3    H2 3838   1.362   4.296   3.452
 1292TIP3   OH2 3839   1.560   2.441   1.530
 1292TIP3    H1 3840   1.606   2.420   1.448
 1292TIP3    H2 3841   1.469   2.417   1.512
 1293TIP3   OH2 3842   4.752   3.971   3.944
 1293TIP3    H1 3843   4.845   3.969   3.970
 1293TIP3    H2 3844   4.717   4.049   3.988
 1294TIP3   OH2 3845   1.677   0.519   0.346
 1294TIP3    H1 3846   1.632   0.602   0.358
 1294TIP3    H2 3847   1.747   0.520   0.411
 1295TIP3   OH2 3848   3.838   5.227   1.921
 1295TIP3    H1 3849   3.816   5.155   1.980
 1295TIP3    H2 3850   3.841   5.187   1.834
 1296TIP3   OH2 3851   6.453   4.094   3.315
 1296TIP3    H1 3852   6.390   4.092   3.244
 1296TIP3    H2 3853   6.506   4.172   3.298
 1297TIP3   OH2 3854   3.798   2.548   4.175
 1297TIP3    H1 3855   3.776   2.496   4.252
 1297TIP3    H2 3856   3.867   2.608   4.205
 1298TIP3   OH2 3857   4.910   1.065   3.912
 1298TIP3    H1 3858   4.983   1.070   3.850
 1298TIP3    H2 3859   4.889   1.157   3.931
 1299TIP3   OH2 3860   5.068   6.813   5.317
 1299TIP3    H1 3861   5.135   6.878   5.294
 1299TIP3    H2 3862   5.011   6.810   5.241
 1300TIP3   OH2 3863   2.207   3.602   5.841
 1300TIP3    H1 3864   2.182   3.598   5.933
 1300TIP3    H2 3865   2.303   3.606   5.842
 1301TIP3   OH2 3866   6.241   0.534   4.485
 1301TIP3    H1 3867   6.259   0.521   4.392
 1301TIP3    H2 3868   6.147   0.518   4.494
 1302TIP3   OH2 3869   3.745   1.299   1.730
 1302TIP3    H1 3870   3.653   1.295   1.756
 1302TIP3    H2 3871   3.743   1.332   1.640
 1303TIP3   OH2 3872   4.877   1.076   4.317
 1303TIP3    H1 3873   4.791   1.079   4.275
 1303TIP3    H2 3874   4.881   1.155   4.370
 1304TIP3   OH2 3875   4.117   5.606   5.706
 1304TIP3    H1 3876   4.126   5.680   5.646
 1304TIP3    H2 3877   4.131   5.529   5.651
 1305TIP3   OH2 3878   1.177   4.939   1.722
 1305TIP3    H1 3879   1.131   4.998   1.662
 1305TIP3    H2 3880   1.200   4.993   1.796
 1306TIP3   OH2 3881   4.929   4.497   3.096
 1306TIP3    H1 3882   4.974   4.417   3.121
 1306TIP3    H2 3883   4.874   4.472   3.022
 1307TIP3   OH2 3884   6.744   6.399   0.114
 1307TIP3    H1 3885   6.757   6.474   0.171
 1307TIP3    H2 3886   6.701   6.435   0.036
 1308TIP3   OH2 3887   6.949   1.879   3.048
 1308TIP3    H1 3888   6.967   1.838   2.964
 1308TIP3    H2 3889   6.855   1.867   3.061
 1309TIP3   OH2 3890   4.996   0.977   4.650
 1309TIP3    H1 3891   4.926   0.919   4.680
 1309TIP3    H2 3892   4.972   1.063   4.685
 1310TIP3   OH2 3893   5.062   4.541   4.463
 1310TIP3    H1 3894   5.135   4.555   4.523
 1310TIP3    H2 3895   5.101   4.549   4.376
 1311TIP3   OH2 3896   0.682   0.141   3.204
 1311TIP3    H1 3897   0.710   0.064   3.255
 1311TIP3    H2 3898   0.586   0.142   3.213
 1312TIP3   OH2 3899   1.364   3.391   4.149
 1312TIP3    H1 3900   1.294   3.395   4.084
 1312TIP3    H2 3901   1.338   3.320   4.208
 1313TIP3   OH2 3902   6.718   1.578   0.015
 1313TIP3    H1 3903   6.786   1.543   0.073
 1313TIP3    H2 3904   6.640   1.586   0.070
 1314TIP3   OH2 3905   6.064   0.944   4.692
 1314TIP3    H1 3906   6.022   0.898   4.619
 1314TIP3    H2 3907   6.022   1.030   4.693
 1315TIP3   OH2 3908   2.683   0.389   4.737
 1315TIP3    H1 3909   2.626   0.321   4.773
 1315TIP3    H2 3910   2.677   0.376   4.642
 1316TIP3   OH2 3911   7.133   5.078   2.176
 1316TIP3    H1 3912   7.227   5.062   2.176
 1316TIP3    H2 3913   7.124   5.168   2.146
 1317TIP3   OH2 3914   6.370   3.262   1.165
 1317TIP3    H1 3915   6.354   3.278   1.072
 1317TIP3    H2 3916   6.438   3.194   1.166
 1318TIP3   OH2 3917   5.880   1.333   3.065
 1318TIP3    H1 3918   5.805   1.310   3.120
 1318TIP3    H2 3919   5.914   1.414   3.103
 1319TIP3   OH2 3920   6.712   6.020   2.217
 1319TIP3    H1 3921   6.699   6.091   2.280
 1319TIP3    H2 3922   6.736   6.063   2.136
 1320TIP3   OH2 3923   6.064   2.487   5.644
 1320TIP3    H1 3924   6.062   2.436   5.562
 1320TIP3    H2 3925   5.979   2.469   5.685
 1321TIP3   OH2 3926   5.266   3.951   1.252
 1321TIP3    H1 3927   5.237   3.936   1.342
 1321TIP3    H2 3928   5.357   3.920   1.251
 1322TIP3   OH2 3929   5.804   5.631   1.147
 1322TIP3    H1 3930   5.822   5.560   1.086
 1322TIP3    H2 3931   5.797   5.589   1.233
 1323TIP3   OH2 3932   0.439   5.617   0.357
 1323TIP3    H1 3933   0.496   5.618   0.434
 1323TIP3    H2 3934   0.464   5.696   0.309
 1324TIP3   OH2 3935   6.065   3.477   5.091
 1324TIP3    H1 3936   6.034   3.423   5.164
 1324TIP3    H2 3937   6.141   3.524   5.126
 1325TIP3   OH2 3938   0.997   1.306   3.760
 1325TIP3    H1 3939   1.031   1.349   3.681
 1325TIP3    H2 3940   1.040   1.221   3.761
 1326TIP3   OH2 3941   0.276   4.776   2.627
 1326TIP3    H1 3942   0.309   4.822   2.550
 1326TIP3    H2 3943   0.229   4.843   2.677
 1327TIP3   OH2 3944   7.109   0.033   1.102
 1327TIP3    H1 3945   7.114  -0.053   1.145
 1327TIP3    H2 3946   7.023   0.035   1.062
 1328TIP3   OH2 3947   1.582   4.019   1.590
 1328TIP3    H1 3948   1.552   4.106   1.567
 1328TIP3    H2 3949   1.503   3.965   1.587
 1329TIP3   OH2 3950   5.885   0.597   3.042
 1329TIP3    H1 3951   5.912   0.518   3.089
 1329TIP3    H2 3952   5.962   0.654   3.045
 1330TIP3   OH2 3953   1.680   6.243   4.230
 1330TIP3    H1 3954   1.755   6.265   4.286
 1330TIP3    H2 3955   1.606   6.291   4.269
 1331TIP3   OH2 3956   6.722   2.456   3.476
 1331TIP3    H1 3957   6.809   2.421   3.497
 1331TIP3    H2 3958   6.740   2.536   3.426
 1332TIP3   OH2 3959   3.658   5.898   5.850
 1332TIP3    H1 3960   3.650   5.832   5.919
 1332TIP3    H2 3961   3.724   5.863   5.790
 1333TIP3   OH2 3962   2.840   3.426   5.201
 1333TIP3    H1 3963   2.847   3.516   5.168
 1333TIP3    H2 3964   2.915   3.381   5.163
 1334TIP3   OH2 3965   2.357   1.682   4.213
 1334TIP3    H1 3966   2.293   1.724   4.270
 1334TIP3    H2 3967   2.399   1.617   4.269
 1335TIP3   OH2 3968   3.758   6.448   2.082
 1335TIP3    H1 3969   3.744   6.363   2.042
 1335TIP3    H2 3970   3.785   6.505   2.010
 1336TIP3   OH2 3971   6.951   4.536   5.109
 1336TIP3    H1 3972   7.010   4.505   5.040
 1336TIP3    H2 3973   7.008   4.584   5.169
 1337TIP3   OH2 3974   3.474   3.225   0.991
 1337TIP3    H1 3975   3.469   3.208   1.085
 1337TIP3    H2 3976   3.415   3.160   0.951
 1338TIP3   OH2 3977   4.628   6.783   5.545
 1338TIP3    H1 3978   4.655   6.789   5.453
 1338TIP3    H2 3979   4.660   6.864   5.585
 1339TIP3   OH2 3980   6.122   0.872   2.640
 1339TIP3    H1 3981   6.103   0.784   2.607
 1339TIP3    H2 3982   6.108   0.865   2.734
 1340TIP3   OH2 3983   2.089   4.108   2.425
 1340TIP3    H1 3984   2.061   4.148   2.508
 1340TIP3    H2 3985   2.175   4.071   2.444
 1341TIP3   OH2 3986   2.517   0.546   2.035
 1341TIP3    H1 3987   2.560   0.629   2.016
 1341TIP3    H2 3988   2.425   0.560   2.011
 1342TIP3   OH2 3989   3.567   3.505   2.032
 1342TIP3    H1 3990   3.609   3.568   1.972
 1342TIP3    H2 3991   3.475   3.532   2.033
 1343TIP3   OH2 3992   0.103   5.074   4.367
 1343TIP3    H1 3993   0.141   5.077   4.455
 1343TIP3    H2 3994   0.053   5.155   4.359
 1344TIP3   OH2 3995   7.040   0.696   0.483
 1344TIP3    H1 3996   6.978   0.669   0.415
 1344TIP3    H2 3997   6.986   0.707   0.561
 1345TIP3   OH2 3998   1.142   4.773   5.515
 1345TIP3    H1 3999   1.158   4.702   5.453
 1345TIP3    H2 4000   1.187   4.849   5.477
 1346TIP3   OH2 4001   7.036   0.574   0.179
 1346TIP3    H1 4002   7.118   0.622   0.188
 1346TIP3    H2 4003   6.995   0.610   0.100
 1347TIP3   OH2 4004   2.540   2.616   0.193
 1347TIP3    H1 4005   2.599   2.690   0.212
 1347TIP3    H2 4006   2.475   2.619   0.263
 1348TIP3   OH2 4007   0.275   1.387   2.205
 1348TIP3    H1 4008   0.303   1.336   2.128
 1348TIP3    H2 4009   0.234   1.323   2.262
 1349TIP3   OH2 4010   4.832   1.694   5.168
 1349TIP3    H1 4011   4.915   1.653   5.189
 1349TIP3    H2 4012   4.830   1.774   5.220
 1350TIP3   OH2 4013   5.015   4.976   2.881
 1350TIP3    H1 4014   4.948   4.907   2.875
 1350TIP3    H2 4015   5.044   4.973   2.972
 1351TIP3   OH2 4016   2.770   6.752   0.995
 1351TIP3    H1 4017   2.754   6.781   0.905
 1351TIP3    H2 4018   2.692   6.702   1.019
 1352TIP3   OH2 4019   4.418   0.521   3.757
 1352TIP3    H1 4020   4.343   0.563   3.716
 1352TIP3    H2 4021   4.423   0.434   3.716
 1353TIP3   OH2 4022   3.982   5.491   3.291
 1353TIP3    H1 4023   3.993   5.505   3.385
 1353TIP3    H2 4024   3.904   5.437   3.284
 1354TIP3   OH2 4025   1.516   2.098   2.025
 1354TIP3    H1 4026   1.480   2.011   2.014
 1354TIP3    H2 4027   1.463   2.153   1.967
 1355TIP3   OH2 4028   2.358   2.198   0.393
 1355TIP3    H1 4029   2.423   2.243   0.447
 1355TIP3    H2 4030   2.378   2.105   0.403
 1356TIP3   OH2 4031   2.567   1.560   2.001
 1356TIP3    H1 4032   2.651   1.516   1.987
 1356TIP3    H2 4033   2.585   1.653   1.984
 1357TIP3   OH2 4034   4.251   1.301   2.877
 1357TIP3    H1 4035   4.231   1.319   2.786
 1357TIP3    H2 4036   4.308   1.223   2.875
 1358TIP3   OH2 4037   5.280   1.930   1.499
 1358TIP3    H1 4038   5.355   1.904   1.552
 1358TIP3    H2 4039   5.256   2.016   1.531
 1359TIP3   OH2 4040   6.115   0.807   3.167
 1359TIP3    H1 4041   6.095   0.796   3.260
 1359TIP3    H2 4042   6.211   0.801   3.162
 1360TIP3   OH2 4043   1.201   3.409   0.960
 1360TIP3    H1 4044   1.238   3.353   1.029
 1360TIP3    H2 4045   1.128   3.455   1.002
 1361TIP3   OH2 4046   2.541   2.714   1.048
 1361TIP3    H1 4047   2.581   2.797   1.023
 1361TIP3    H2 4048   2.559   2.706   1.142
 1362TIP3   OH2 4049   5.598   0.574   1.436
 1362TIP3    H1 4050   5.553   0.651   1.471
 1362TIP3    H2 4051   5.527   0.519   1.402
 1363TIP3   OH2 4052   1.584   4.622   4.294
 1363TIP3    H1 4053   1.595   4.590   4.205
 1363TIP3    H2 4054   1.617   4.712   4.293
 1364TIP3   OH2 4055   3.875   6.832   0.892
 1364TIP3    H1 4056   3.787   6.837   0.855
 1364TIP3    H2 4057   3.910   6.749   0.860
 1365TIP3   OH2 4058   4.071   4.029   5.322
 1365TIP3    H1 4059   4.051   4.117   5.292
 1365TIP3    H2 4060   4.166   4.023   5.318
 1366TIP3   OH2 4061   2.681   0.777   1.601
 1366TIP3    H1 4062   2.725   0.855   1.636
 1366TIP3    H2 4063   2.649   0.805   1.515
 1367TIP3   OH2 4064   2.137   6.063   2.125
 1367TIP3    H1 4065   2.143   6.157   2.112
 1367TIP3    H2 4066   2.181   6.025   2.048
 1368TIP3   OH2 4067   0.641   2.484   2.286
 1368TIP3    H1 4068   0.718   2.508   2.236
 1368TIP3    H2 4069   0.657   2.393   2.313
 1369TIP3   OH2 4070   4.705   1.225   2.803
 1369TIP3    H1 4071   4.703   1.286   2.877
 1369TIP3    H2 4072   4.798   1.216   2.782
 1370TIP3   OH2 4073  -0.049   1.338   0.228
 1370TIP3    H1 4074  -0.070   1.359   0.138
 1370TIP3    H2 4075   0.034   1.290   0.223
 1371TIP3   OH2 4076   3.005   6.064   3.765
 1371TIP3    H1 4077   2.974   6.079   3.676
 1371TIP3    H2 4078   2.959   5.985   3.793
 1372TIP3   OH2 4079   0.556   1.806   2.727
 1372TIP3    H1 4080   0.503   1.727   2.740
 1372TIP3    H2 4081   0.493   1.878   2.728
 1373TIP3   OH2 4082   3.690   1.712   0.633
 1373TIP3    H1 4083   3.610   1.702   0.686
 1373TIP3    H2 4084   3.729   1.794   0.663
 1374TIP3   OH2 4085   5.329   4.381   4.290
 1374TIP3    H1 4086   5.254   4.426   4.253
 1374TIP3    H2 4087   5.308   4.288   4.282
 1375TIP3   OH2 4088   4.609   6.672   3.843
 1375TIP3    H1 4089   4.688   6.725   3.851
 1375TIP3    H2 4090   4.571   6.671   3.931
 1376TIP3   OH2 4091   0.444   3.150   2.378
 1376TIP3    H1 4092   0.367   3.171   2.325
 1376TIP3    H2 4093   0.432   3.200   2.459
 1377TIP3   OH2 4094   4.252   1.404   2.001
 1377TIP3    H1 4095   4.203   1.324   1.986
 1377TIP3    H2 4096   4.216   1.467   1.938
 1378TIP3   OH2 4097   4.696   6.567   0.670
 1378TIP3    H1 4098   4.780   6.613   0.667
 1378TIP3    H2 4099   4.719   6.474   0.670
 1379TIP3   OH2 4100   1.248   5.042   5.374
 1379TIP3    H1 4101   1.178   5.036   5.308
 1379TIP3    H2 4102   1.320   4.990   5.337
 1380TIP3   OH2 4103   2.628   3.053   2.832
 1380TIP3    H1 4104   2.624   3.004   2.915
 1380TIP3    H2 4105   2.568   3.126   2.845
 1381TIP3   OH2 4106   2.657   0.503   1.419
 1381TIP3    H1 4107   2.579   0.491   1.364
 1381TIP3    H2 4108   2.626   0.551   1.495
 1382TIP3   OH2 4109   5.292   1.744   1.866
 1382TIP3    H1 4110   5.363   1.750   1.802
 1382TIP3    H2 4111   5.307   1.817   1.926
 1383TIP3   OH2 4112   1.860   6.699   5.824
 1383TIP3    H1 4113   1.803   6.626   5.845
 1383TIP3    H2 4114   1.801   6.773   5.811
 1384TIP3   OH2 4115   6.218   6.723   2.411
 1384TIP3    H1 4116   6.142   6.768   2.447
 1384TIP3    H2 4117   6.206   6.631   2.435
 1385TIP3   OH2 4118   5.827   0.839   3.892
 1385TIP3    H1 4119   5.786   0.896   3.957
 1385TIP3    H2 4120   5.900   0.799   3.938
 1386TIP3   OH2 4121   2.957   2.510   3.620
 1386TIP3    H1 4122   2.876   2.490   3.665
 1386TIP3    H2 4123   2.930   2.561   3.544
 1387TIP3   OH2 4124   5.964   4.228   1.068
 1387TIP3    H1 4125   5.947   4.303   1.011
 1387TIP3    H2 4126   5.909   4.244   1.145
 1388TIP3   OH2 4127   1.360   0.807   5.421
 1388TIP3    H1 4128   1.437   0.751   5.404
 1388TIP3    H2 4129   1.359   0.868   5.347
 1389TIP3   OH2 4130   0.408   0.743   2.777
 1389TIP3    H1 4131   0.323   0.759   2.737
 1389TIP3    H2 4132   0.441   0.830   2.797
 1390TIP3   OH2 4133   3.057   1.375   0.530
 1390TIP3    H1 4134   3.061   1.313   0.457
 1390TIP3    H2 4135   3.147   1.409   0.538
 1391TIP3   OH2 4136   6.562   4.758   2.460
 1391TIP3    H1 4137   6.643   4.802   2.486
 1391TIP3    H2 4138   6.579   4.726   2.371
 1392TIP3   OH2 4139   3.245   2.592   0.125
 1392TIP3    H1 4140   3.226   2.541   0.046
 1392TIP3    H2 4141   3.274   2.677   0.092
 1393TIP3   OH2 4142   1.380   3.581   0.568
 1393TIP3    H1 4143   1.363   3.487   0.579
 1393TIP3    H2 4144   1.379   3.616   0.657
 1394TIP3   OH2 4145   4.057   0.874   4.714
 1394TIP3    H1 4146   4.144   0.910   4.733
 1394TIP3    H2 4147   4.028   0.836   4.796
 1395TIP3   OH2 4148   1.489   5.434   0.496
 1395TIP3    H1 4149   1.584   5.446   0.490
 1395TIP3    H2 4150   1.452   5.503   0.442
 1396TIP3   OH2 4151   1.431   2.118   2.582
 1396TIP3    H1 4152   1.517   2.078   2.576
 1396TIP3    H2 4153   1.445   2.209   2.554
 1397TIP3   OH2 4154   6.443   5.170   1.708
 1397TIP3    H1 4155   6.399   5.253   1.690
 1397TIP3    H2 4156   6.459   5.132   1.622
 1398TIP3   OH2 4157   5.456   0.857   0.916
 1398TIP3    H1 4158   5.386   0.921   0.903
 1398TIP3    H2 4159   5.461   0.846   1.011
 1399TIP3   OH2 4160   5.387   4.635   0.601
 1399TIP3    H1 4161   5.371   4.729   0.614
 1399TIP3    H2 4162   5.299   4.596   0.597
 1400TIP3   OH2 4163   5.606   4.943   3.527
 1400TIP3    H1 4164   5.566   4.940   3.440
 1400TIP3    H2 4165   5.694   4.977   3.513
 1401TIP3   OH2 4166   2.380   3.025   5.289
 1401TIP3    H1 4167   2.332   3.092   5.241
 1401TIP3    H2 4168   2.313   2.960   5.313
 1402TIP3   OH2 4169   4.639   4.112   4.818
 1402TIP3    H1 4170   4.582   4.154   4.753
 1402TIP3    H2 4171   4.721   4.161   4.812
 1403TIP3   OH2 4172   6.453   3.338   4.535
 1403TIP3    H1 4173   6.390   3.382   4.591
 1403TIP3    H2 4174   6.522   3.404   4.519
 1404TIP3   OH2 4175   1.018   3.273   4.176
 1404TIP3    H1 4176   1.047   3.232   4.094
 1404TIP3    H2 4177   0.957   3.210   4.214
 1405TIP3   OH2 4178   5.660   2.496   0.669
 1405TIP3    H1 4179   5.614   2.568   0.626
 1405TIP3    H2 4180   5.753   2.514   0.654
 1406TIP3   OH2 4181   4.705   5.730   5.117
 1406TIP3    H1 4182   4.668   5.729   5.029
 1406TIP3    H2 4183   4.793   5.767   5.106
 1407TIP3   OH2 4184   0.958   1.247   4.683
 1407TIP3    H1 4185   0.936   1.339   4.675
 1407TIP3    H2 4186   0.937   1.209   4.597
 1408TIP3   OH2 4187   3.386   3.486   4.722
 1408TIP3    H1 4188   3.479   3.467   4.738
 1408TIP3    H2 4189   3.350   3.402   4.692
 1409TIP3   OH2 4190   5.104   5.271   1.945
 1409TIP3    H1 4191   5.171   5.211   1.977
 1409TIP3    H2 4192   5.152   5.338   1.897
 1410TIP3   OH2 4193   0.624   3.788   3.329
 1410TIP3    H1 4194   0.549   3.767   3.274
 1410TIP3    H2 4195   0.660   3.868   3.292
 1411TIP3   OH2 4196   6.626   0.830   2.512
 1411TIP3    H1 4197   6.629   0.770   2.587
 1411TIP3    H2 4198   6.649   0.916   2.549
 1412TIP3   OH2 4199   2.116   3.152   5.266
 1412TIP3    H1 4200   2.174   3.213   5.221
 1412TIP3    H2 4201   2.089   3.198   5.345
 1413TIP3   OH2 4202   0.709   0.301   0.600
 1413TIP3    H1 4203   0.690   0.221   0.648
 1413TIP3    H2 4204   0.631   0.356   0.613
 1414TIP3   OH2 4205   7.129   0.836   1.926
 1414TIP3    H1 4206   7.042   0.813   1.959
 1414TIP3    H2 4207   7.180   0.755   1.932
 1415TIP3   OH2 4208   3.986   2.695   4.346
 1415TIP3    H1 4209   3.943   2.770   4.388
 1415TIP3    H2 4210   4.035   2.734   4.273
 1416TIP3   OH2 4211   3.255   6.770   1.114
 1416TIP3    H1 4212   3.181   6.817   1.076
 1416TIP3    H2 4213   3.217   6.718   1.184
 1417TIP3   OH2 4214   3.557   5.318   0.588
 1417TIP3    H1 4215   3.515   5.355   0.510
 1417TIP3    H2 4216   3.513   5.361   0.662
 1418TIP3   OH2 4217   0.557   1.587   1.042
 1418TIP3    H1 4218   0.496   1.557   1.109
 1418TIP3    H2 4219   0.643   1.555   1.072
 1419TIP3   OH2 4220   0.784   1.935   2.607
 1419TIP3    H1 4221   0.703   1.915   2.653
 1419TIP3    H2 4222   0.795   2.030   2.616
 1420TIP3   OH2 4223   0.124   6.583   2.149
 1420TIP3    H1 4224   0.181   6.510   2.172
 1420TIP3    H2 4225   0.134   6.645   2.221
 1421TIP3   OH2 4226   2.258   4.635   0.959
 1421TIP3    H1 4227   2.218   4.643   0.872
 1421TIP3    H2 4228   2.348   4.664   0.947
 1422TIP3   OH2 4229   2.579   5.496   4.253
 1422TIP3    H1 4230   2.629   5.569   4.217
 1422TIP3    H2 4231   2.645   5.440   4.295
 1423TIP3   OH2 4232   6.865   4.139   5.004
 1423TIP3    H1 4233   6.879   4.180   5.090
 1423TIP3    H2 4234   6.772   4.119   5.002
 1424TIP3   OH2 4235   5.692   2.007   0.414
 1424TIP3    H1 4236   5.641   1.929   0.438
 1424TIP3    H2 4237   5.667   2.073   0.479
 1425TIP3   OH2 4238   1.297   0.133   5.097
 1425TIP3    H1 4239   1.311   0.039   5.083
 1425TIP3    H2 4240   1.219   0.137   5.153
 1426TIP3   OH2 4241   6.739   0.483   3.529
 1426TIP3    H1 4242   6.746   0.571   3.490
 1426TIP3    H2 4243   6.727   0.499   3.622
 1427TIP3   OH2 4244   7.015   4.668   4.837
 1427TIP3    H1 4245   6.942   4.648   4.895
 1427TIP3    H2 4246   6.990   4.630   4.753
 1428TIP3   OH2 4247   1.051   5.252   0.633
 1428TIP3    H1 4248   1.049   5.207   0.717
 1428TIP3    H2 4249   1.126   5.310   0.638
 1429TIP3   OH2 4250   2.020   6.153   5.089
 1429TIP3    H1 4251   2.108   6.118   5.103
 1429TIP3    H2 4252   1.966   6.076   5.069
 1430TIP3   OH2 4253   0.155   1.704   2.660
 1430TIP3    H1 4254   0.247   1.684   2.673
 1430TIP3    H2 4255   0.143   1.788   2.705
 1431TIP3   OH2 4256   4.608   0.033   4.313
 1431TIP3    H1 4257   4.649   0.088   4.380
 1431TIP3    H2 4258   4.616   0.084   4.233
 1432TIP3   OH2 4259   3.482   3.641   4.981
 1432TIP3    H1 4260   3.434   3.688   4.913
 1432TIP3    H2 4261   3.490   3.552   4.948
 1433TIP3   OH2 4262   0.312   1.517   0.381
 1433TIP3    H1 4263   0.272   1.538   0.297
 1433TIP3    H2 4264   0.387   1.575   0.388
 1434TIP3   OH2 4265   2.112   2.158   2.363
 1434TIP3    H1 4266   2.187   2.156   2.304
 1434TIP3    H2 4267   2.090   2.251   2.370
 1435TIP3   OH2 4268   6.431   4.032   4.878
 1435TIP3    H1 4269   6.347   4.069   4.904
 1435TIP3    H2 4270   6.487   4.042   4.955
 1436TIP3   OH2 4271   0.388   6.095   1.618
 1436TIP3    H1 4272   0.296   6.104   1.643
 1436TIP3    H2 4273   0.400   6.160   1.548
 1437TIP3   OH2 4274   1.261   0.506   1.851
 1437TIP3    H1 4275   1.336   0.457   1.885
 1437TIP3    H2 4276   1.216   0.539   1.929
 1438TIP3   OH2 4277   6.736   2.722   5.279
 1438TIP3    H1 4278   6.708   2.640   5.320
 1438TIP3    H2 4279   6.719   2.789   5.346
 1439TIP3   OH2 4280   2.564   2.446   5.727
 1439TIP3    H1 4281   2.614   2.401   5.659
 1439TIP3    H2 4282   2.599   2.412   5.809
 1440TIP3   OH2 4283   4.510   6.133   2.132
 1440TIP3    H1 4284   4.532   6.212   2.084
 1440TIP3    H2 4285   4.432   6.156   2.183
 1441TIP3   OH2 4286   3.083   5.944   4.388
 1441TIP3    H1 4287   3.001   5.923   4.433
 1441TIP3    H2 4288   3.105   5.864   4.340
 1442TIP3   OH2 4289   2.165   0.850   1.603
 1442TIP3    H1 4290   2.088   0.890   1.563
 1442TIP3    H2 4291   2.236   0.870   1.542
 1443TIP3   OH2 4292   5.859   2.730   5.156
 1443TIP3    H1 4293   5.815   2.803   5.201
 1443TIP3    H2 4294   5.951   2.755   5.153
 1444TIP3   OH2 4295   3.131   0.706   5.654
 1444TIP3    H1 4296   3.204   0.677   5.710
 1444TIP3    H2 4297   3.065   0.638   5.665
 1445TIP3   OH2 4298   4.680   0.760   2.787
 1445TIP3    H1 4299   4.764   0.754   2.832
 1445TIP3    H2 4300   4.619   0.793   2.853
 1446TIP3   OH2 4301   5.355   4.641   5.526
 1446TIP3    H1 4302   5.426   4.587   5.492
 1446TIP3    H2 4303   5.362   4.633   5.621
 1447TIP3   OH2 4304   4.503   5.018   5.351
 1447TIP3    H1 4305   4.440   5.025   5.423
 1447TIP3    H2 4306   4.450   5.033   5.272
 1448TIP3   OH2 4307   4.154   0.558   4.855
 1448TIP3    H1 4308   4.089   0.500   4.896
 1448TIP3    H2 4309   4.157   0.529   4.764
 1449TIP3   OH2 4310   1.507   1.892   5.763
 1449TIP3    H1 4311   1.598   1.877   5.739
 1449TIP3    H2 4312   1.506   1.885   5.859
 1450TIP3   OH2 4313   5.512   2.110   1.798
 1450TIP3    H1 4314   5.605   2.087   1.795
 1450TIP3    H2 4315   5.512   2.205   1.807
 1451TIP3   OH2 4316   4.724   3.079   5.054
 1451TIP3    H1 4317   4.698   3.029   5.132
 1451TIP3    H2 4318   4.815   3.054   5.039
 1452TIP3   OH2 4319   7.122   3.791   5.787
 1452TIP3    H1 4320   7.123   3.762   5.878
 1452TIP3    H2 4321   7.180   3.867   5.785
 1453TIP3   OH2 4322   2.103   5.959   3.722
 1453TIP3    H1 4323   2.160   5.916   3.786
 1453TIP3    H2 4324   2.036   5.893   3.701
 1454TIP3   OH2 4325   6.047   5.519   2.671
 1454TIP3    H1 4326   6.136   5.498   2.644
 1454TIP3    H2 4327   5.996   5.516   2.589
 1455TIP3   OH2 4328   0.795   2.818   0.957
 1455TIP3    H1 4329   0.715   2.806   0.905
 1455TIP3    H2 4330   0.839   2.734   0.953
 1456TIP3   OH2 4331   4.931   4.460   0.027
 1456TIP3    H1 4332   5.026   4.461   0.013
 1456TIP3    H2 4333   4.914   4.375   0.067
 1457TIP3   OH2 4334   6.596   5.068   4.995
 1457TIP3    H1 4335   6.521   5.106   4.949
 1457TIP3    H2 4336   6.652   5.033   4.926
 1458TIP3   OH2 4337   4.702   6.399   2.933
 1458TIP3    H1 4338   4.671   6.314   2.963
 1458TIP3    H2 4339   4.749   6.380   2.851
 1459TIP3   OH2 4340   2.830   2.501   2.725
 1459TIP3    H1 4341   2.826   2.461   2.638
 1459TIP3    H2 4342   2.774   2.446   2.780
 1460TIP3   OH2 4343   5.130   0.652   4.428
 1460TIP3    H1 4344   5.072   0.710   4.378
 1460TIP3    H2 4345   5.074   0.579   4.452
 1461TIP3   OH2 4346   6.760   0.135   3.874
 1461TIP3    H1 4347   6.740   0.063   3.934
 1461TIP3    H2 4348   6.692   0.200   3.892
 1462TIP3   OH2 4349   0.514   5.440   5.120
 1462TIP3    H1 4350   0.581   5.462   5.185
 1462TIP3    H2 4351   0.435   5.481   5.153
 1463TIP3   OH2 4352   2.862   3.272   5.666
 1463TIP3    H1 4353   2.783   3.304   5.710
 1463TIP3    H2 4354   2.831   3.202   5.609
 1464TIP3   OH2 4355   1.023   4.211   3.983
 1464TIP3    H1 4356   1.012   4.304   3.965
 1464TIP3    H2 4357   0.971   4.167   3.914
 1465TIP3   OH2 4358   5.447   4.035   5.839
 1465TIP3    H1 4359   5.359   4.006   5.863
 1465TIP3    H2 4360   5.499   4.018   5.918
 1466TIP3   OH2 4361   3.287   0.813   2.017
 1466TIP3    H1 4362   3.271   0.798   1.924
 1466TIP3    H2 4363   3.301   0.908   2.023
 1467TIP3   OH2 4364   1.873   1.684   2.004
 1467TIP3    H1 4365   1.927   1.744   2.056
 1467TIP3    H2 4366   1.784   1.698   2.037
 1468TIP3   OH2 4367   1.922   4.239   0.373
 1468TIP3    H1 4368   1.878   4.215   0.454
 1468TIP3    H2 4369   1.869   4.310   0.337
 1469TIP3   OH2 4370   2.725   6.700   5.835
 1469TIP3    H1 4371   2.705   6.664   5.922
 1469TIP3    H2 4372   2.802   6.755   5.849
 1470TIP3   OH2 4373   3.517   4.794   3.530
 1470TIP3    H1 4374   3.563   4.719   3.492
 1470TIP3    H2 4375   3.435   4.799   3.481
 1471TIP3   OH2 4376   4.899   4.741   1.493
 1471TIP3    H1 4377   4.845   4.810   1.532
 1471TIP3    H2 4378   4.874   4.740   1.401
 1472TIP3   OH2 4379   0.826   6.838   1.475
 1472TIP3    H1 4380   0.792   6.844   1.565
 1472TIP3    H2 4381   0.892   6.770   1.479
 1473TIP3   OH2 4382   3.611   1.373   2.490
 1473TIP3    H1 4383   3.590   1.295   2.542
 1473TIP3    H2 4384   3.535   1.430   2.501
 1474TIP3   OH2 4385   5.141   1.039   2.566
 1474TIP3    H1 4386   5.135   1.125   2.525
 1474TIP3    H2 4387   5.050   1.019   2.591
 1475TIP3   OH2 4388   3.661   1.029   1.518
 1475TIP3    H1 4389   3.718   0.952   1.507
 1475TIP3    H2 4390   3.641   1.030   1.611
 1476TIP3   OH2 4391   1.375   0.865   3.840
 1476TIP3    H1 4392   1.465   0.850   3.811
 1476TIP3    H2 4393   1.383   0.915   3.920
 1477TIP3   OH2 4394   4.846   2.119   1.043
 1477TIP3    H1 4395   4.897   2.039   1.055
 1477TIP3    H2 4396   4.852   2.164   1.127
 1478TIP3   OH2 4397   6.175   1.381   0.541
 1478TIP3    H1 4398   6.257   1.404   0.584
 1478TIP3    H2 4399   6.191   1.295   0.503
 1479TIP3   OH2 4400   0.231   2.874   2.585
 1479TIP3    H1 4401   0.235   2.852   2.492
 1479TIP3    H2 4402   0.156   2.825   2.619
 1480TIP3   OH2 4403   0.327   2.579   3.742
 1480TIP3    H1 4404   0.401   2.639   3.757
 1480TIP3    H2 4405   0.261   2.633   3.698
 1481TIP3   OH2 4406   2.142   5.668   4.617
 1481TIP3    H1 4407   2.046   5.660   4.614
 1481TIP3    H2 4408   2.173   5.577   4.617
 1482TIP3   OH2 4409   3.101   1.620   1.376
 1482TIP3    H1 4410   3.096   1.633   1.281
 1482TIP3    H2 4411   3.147   1.698   1.408
 1483TIP3   OH2 4412   3.235   6.527   0.410
 1483TIP3    H1 4413   3.325   6.512   0.438
 1483TIP3    H2 4414   3.219   6.460   0.343
 1484TIP3   OH2 4415   5.616   0.954   1.766
 1484TIP3    H1 4416   5.610   0.896   1.842
 1484TIP3    H2 4417   5.526   0.961   1.733
 1485TIP3   OH2 4418   2.715   3.012   1.200
 1485TIP3    H1 4419   2.762   3.067   1.262
 1485TIP3    H2 4420   2.726   2.923   1.233
 1486TIP3   OH2 4421   0.033   3.026   1.524
 1486TIP3    H1 4422   0.103   3.013   1.588
 1486TIP3    H2 4423   0.077   3.067   1.449
 1487TIP3   OH2 4424   6.112   1.383   1.100
 1487TIP3    H1 4425   6.123   1.315   1.033
 1487TIP3    H2 4426   6.024   1.418   1.084
 1488TIP3   OH2 4427   3.626   2.100   1.381
 1488TIP3    H1 4428   3.581   2.092   1.297
 1488TIP3    H2 4429   3.566   2.061   1.444
 1489TIP3   OH2 4430   0.963   2.885   1.783
 1489TIP3    H1 4431   0.881   2.926   1.755
 1489TIP3    H2 4432   1.030   2.951   1.767
 1490TIP3   OH2 4433   0.400   0.069   1.694
 1490TIP3    H1 4434   0.361   0.007   1.756
 1490TIP3    H2 4435   0.494   0.060   1.707
 1491TIP3   OH2 4436   0.076   3.976   1.496
 1491TIP3    H1 4437   0.081   4.060   1.542
 1491TIP3    H2 4438   0.018   3.922   1.549
 1492TIP3   OH2 4439   5.229   0.367   4.329
 1492TIP3    H1 4440   5.144   0.389   4.368
 1492TIP3    H2 4441   5.292   0.418   4.380
 1493TIP3   OH2 4442   2.267   3.597   1.703
 1493TIP3    H1 4443   2.342   3.553   1.663
 1493TIP3    H2 4444   2.228   3.531   1.760
 1494TIP3   OH2 4445   1.392   0.995   1.612
 1494TIP3    H1 4446   1.353   0.917   1.572
 1494TIP3    H2 4447   1.466   0.962   1.662
 1495TIP3   OH2 4448   3.321   5.258   4.968
 1495TIP3    H1 4449   3.388   5.297   5.024
 1495TIP3    H2 4450   3.364   5.184   4.927
 1496TIP3   OH2 4451   3.252   5.208   2.735
 1496TIP3    H1 4452   3.205   5.239   2.813
 1496TIP3    H2 4453   3.207   5.251   2.662
 1497TIP3   OH2 4454   4.342   1.512   5.750
 1497TIP3    H1 4455   4.350   1.606   5.736
 1497TIP3    H2 4456   4.405   1.493   5.820
 1498TIP3   OH2 4457   0.666   3.711   2.952
 1498TIP3    H1 4458   0.688   3.617   2.954
 1498TIP3    H2 4459   0.613   3.724   3.031
 1499TIP3   OH2 4460   4.795   2.943   2.281
 1499TIP3    H1 4461   4.800   2.857   2.323
 1499TIP3    H2 4462   4.786   2.924   2.188
 1500TIP3   OH2 4463   3.232   1.864   0.126
 1500TIP3    H1 4464   3.184   1.937   0.166
 1500TIP3    H2 4465   3.190   1.852   0.041
 1501TIP3   OH2 4466   6.717   3.216   1.670
 1501TIP3    H1 4467   6.697   3.310   1.666
 1501TIP3    H2 4468   6.789   3.210   1.732
 1502TIP3   OH2 4469   6.796   2.893   0.371
 1502TIP3    H1 4470   6.880   2.851   0.355
 1502TIP3    H2 4471   6.759   2.845   0.445
 1503TIP3   OH2 4472   1.005   1.110   4.040
 1503TIP3    H1 4473   1.016   1.060   3.959
 1503TIP3    H2 4474   0.916   1.089   4.069
 1504TIP3   OH2 4475   4.279   3.500   1.832
 1504TIP3    H1 4476   4.217   3.476   1.901
 1504TIP3    H2 4477   4.337   3.424   1.825
 1505TIP3   OH2 4478   3.008   5.940   2.935
 1505TIP3    H1 4479   3.058   6.011   2.894
 1505TIP3    H2 4480   2.941   5.984   2.986
 1506TIP3   OH2 4481   4.722   1.773   2.572
 1506TIP3    H1 4482   4.675   1.799   2.493
 1506TIP3    H2 4483   4.706   1.679   2.579
 1507TIP3   OH2 4484   3.385   6.416   4.285
 1507TIP3    H1 4485   3.346   6.493   4.328
 1507TIP3    H2 4486   3.310   6.372   4.244
 1508TIP3   OH2 4487   2.967   4.110   3.409
 1508TIP3    H1 4488   2.922   4.034   3.445
 1508TIP3    H2 4489   3.046   4.119   3.463
 1509TIP3   OH2 4490   4.869   4.045   5.510
 1509TIP3    H1 4491   4.818   3.967   5.534
 1509TIP3    H2 4492   4.878   4.040   5.415
 1510TIP3   OH2 4493   6.217   6.636   0.379
 1510TIP3    H1 4494   6.138   6.646   0.325
 1510TIP3    H2 4495   6.264   6.719   0.368
 1511TIP3   OH2 4496   2.286   4.972   0.972
 1511TIP3    H1 4497   2.338   5.051   0.986
 1511TIP3    H2 4498   2.250   4.982   0.884
 1512TIP3   OH2 4499   2.482   0.784   2.241
 1512TIP3    H1 4500   2.422   0.819   2.307
 1512TIP3    H2 4501   2.527   0.861   2.206
 1513TIP3   OH2 4502   2.518   0.390   5.516
 1513TIP3    H1 4503   2.574   0.325   5.474
 1513TIP3    H2 4504   2.577   0.461   5.541
 1514TIP3   OH2 4505   5.063   2.809   4.340
 1514TIP3    H1 4506   5.143   2.793   4.389
 1514TIP3    H2 4507   5.081   2.887   4.287
 1515TIP3   OH2 4508   6.009   0.768   4.910
 1515TIP3    H1 4509   6.036   0.691   4.860
 1515TIP3    H2 4510   6.028   0.842   4.852
 1516TIP3   OH2 4511   1.834   0.507   0.090
 1516TIP3    H1 4512   1.814   0.539   0.178
 1516TIP3    H2 4513   1.750   0.505   0.045
 1517TIP3   OH2 4514   1.461   4.939   4.714
 1517TIP3    H1 4515   1.421   4.893   4.640
 1517TIP3    H2 4516   1.397   5.005   4.738
 1518TIP3   OH2 4517   2.430   5.475   5.321
 1518TIP3    H1 4518   2.434   5.390   5.364
 1518TIP3    H2 4519   2.344   5.477   5.279
 1519TIP3   OH2 4520   4.216   6.363   1.188
 1519TIP3    H1 4521   4.192   6.455   1.178
 1519TIP3    H2 4522   4.268   6.343   1.109
 1520TIP3   OH2 4523   4.625   6.707   2.690
 1520TIP3    H1 4524   4.719   6.703   2.708
 1520TIP3    H2 4525   4.607   6.801   2.678
 1521TIP3   OH2 4526   6.944   1.318   2.575
 1521TIP3    H1 4527   7.013   1.281   2.630
 1521TIP3    H2 4528   6.922   1.401   2.616
 1522TIP3   OH2 4529   5.985   6.054   1.031
 1522TIP3    H1 4530   6.070   6.072   1.070
 1522TIP3    H2 4531   5.973   6.124   0.966
 1523TIP3   OH2 4532   5.538   0.240   4.554
 1523TIP3    H1 4533   5.552   0.193   4.636
 1523TIP3    H2 4534   5.626   0.266   4.527
 1524TIP3   OH2 4535   5.425   4.361   4.542
 1524TIP3    H1 4536   5.402   4.384   4.452
 1524TIP3    H2 4537   5.482   4.433   4.571
 1525TIP3   OH2 4538   5.370   1.002   0.513
 1525TIP3    H1 4539   5.291   0.959   0.480
 1525TIP3    H2 4540   5.430   0.930   0.532
 1526TIP3   OH2 4541   3.658   6.159   3.873
 1526TIP3    H1 4542   3.604   6.080   3.876
 1526TIP3    H2 4543   3.724   6.145   3.941
 1527TIP3   OH2 4544   5.550   2.601   2.621
 1527TIP3    H1 4545   5.628   2.651   2.643
 1527TIP3    H2 4546   5.567   2.513   2.656
 1528TIP3   OH2 4547   0.508   4.544   2.288
 1528TIP3    H1 4548   0.424   4.531   2.244
 1528TIP3    H2 4549   0.520   4.639   2.290
 1529TIP3   OH2 4550   4.538   5.422   5.130
 1529TIP3    H1 4551   4.610   5.462   5.180
 1529TIP3    H2 4552   4.475   5.494   5.118
 1530TIP3   OH2 4553   0.248   3.198   5.032
 1530TIP3    H1 4554   0.318   3.206   4.968
 1530TIP3    H2 4555   0.168   3.212   4.981
 1531TIP3   OH2 4556   4.567   2.779   3.148
 1531TIP3    H1 4557   4.516   2.730   3.084
 1531TIP3    H2 4558   4.607   2.851   3.099
 1532TIP3   OH2 4559   6.879   5.295   1.711
 1532TIP3    H1 4560   6.926   5.340   1.641
 1532TIP3    H2 4561   6.813   5.242   1.666
 1533TIP3   OH2 4562   1.609   0.766   3.796
 1533TIP3    H1 4563   1.655   0.745   3.878
 1533TIP3    H2 4564   1.663   0.834   3.756
 1534TIP3   OH2 4565   2.684   5.107   5.574
 1534TIP3    H1 4566   2.769   5.150   5.585
 1534TIP3    H2 4567   2.700   5.037   5.511
 1535TIP3   OH2 4568   2.099   4.955   4.413
 1535TIP3    H1 4569   2.058   4.983   4.331
 1535TIP3    H2 4570   2.159   5.026   4.435
 1536TIP3   OH2 4571   7.064   3.527   1.656
 1536TIP3    H1 4572   7.041   3.435   1.658
 1536TIP3    H2 4573   6.985   3.571   1.625
 1537TIP3   OH2 4574   5.053   5.506   3.993
 1537TIP3    H1 4575   5.021   5.509   3.903
 1537TIP3    H2 4576   5.126   5.444   3.990
 1538TIP3   OH2 4577   4.055   6.563   2.560
 1538TIP3    H1 4578   3.988   6.602   2.616
 1538TIP3    H2 4579   4.032   6.590   2.471
 1539TIP3   OH2 4580   3.151   0.110   3.606
 1539TIP3    H1 4581   3.058   0.088   3.600
 1539TIP3    H2 4582   3.170   0.108   3.699
 1540TIP3   OH2 4583   5.330   1.172   3.916
 1540TIP3    H1 4584   5.361   1.208   3.999
 1540TIP3    H2 4585   5.397   1.108   3.892
 1541TIP3   OH2 4586   0.081   2.732   1.782
 1541TIP3    H1 4587   0.133   2.655   1.759
 1541TIP3    H2 4588   0.130   2.805   1.744
 1542TIP3   OH2 4589   5.189   1.940   0.086
 1542TIP3    H1 4590   5.149   1.890   0.015
 1542TIP3    H2 4591   5.121   2.001   0.114
 1543TIP3   OH2 4592   1.863   2.419   1.937
 1543TIP3    H1 4593   1.811   2.396   1.860
 1543TIP3    H2 4594   1.804   2.403   2.011
 1544TIP3   OH2 4595   3.484   0.931   3.620
 1544TIP3    H1 4596   3.553   0.995   3.600
 1544TIP3    H2 4597   3.428   0.931   3.543
 1545TIP3   OH2 4598   2.282   5.799   5.720
 1545TIP3    H1 4599   2.316   5.723   5.768
 1545TIP3    H2 4600   2.241   5.761   5.642
 1546TIP3   OH2 4601   2.432   1.331   2.032
 1546TIP3    H1 4602   2.492   1.259   2.011
 1546TIP3    H2 4603   2.488   1.400   2.067
 1547TIP3   OH2 4604   6.174   4.109   2.421
 1547TIP3    H1 4605   6.118   4.185   2.438
 1547TIP3    H2 4606   6.213   4.089   2.506
 1548TIP3   OH2 4607   4.016   2.224   4.182
 1548TIP3    H1 4608   4.071   2.155   4.220
 1548TIP3    H2 4609   3.976   2.267   4.258
 1549TIP3   OH2 4610   0.983   3.925   4.469
 1549TIP3    H1 4611   1.014   3.963   4.387
 1549TIP3    H2 4612   0.973   3.832   4.449
 1550TIP3   OH2 4613   2.910   5.169   4.926
 1550TIP3    H1 4614   2.905   5.103   4.858
 1550TIP3    H2 4615   2.953   5.125   5.000
 1551TIP3   OH2 4616   0.832   3.673   0.870
 1551TIP3    H1 4617   0.900   3.610   0.894
 1551TIP3    H2 4618   0.866   3.758   0.896
 1552TIP3   OH2 4619   7.016   0.702   3.745
 1552TIP3    H1 4620   7.083   0.660   3.799
 1552TIP3    H2 4621   7.065   0.743   3.674
 1553TIP3   OH2 4622   6.238   6.600   3.244
 1553TIP3    H1 4623   6.274   6.626   3.160
 1553TIP3    H2 4624   6.191   6.518   3.226
 1554TIP3   OH2 4625   2.418   1.201   5.521
 1554TIP3    H1 4626   2.427   1.296   5.527
 1554TIP3    H2 4627   2.492   1.173   5.467
 1555TIP3   OH2 4628   7.084   1.385   0.614
 1555TIP3    H1 4629   7.040   1.464   0.645
 1555TIP3    H2 4630   7.172   1.391   0.652
 1556TIP3   OH2 4631   5.673   4.917   2.665
 1556TIP3    H1 4632   5.756   4.904   2.618
 1556TIP3    H2 4633   5.685   4.870   2.748
 1557TIP3   OH2 4634   2.320   0.932   1.829
 1557TIP3    H1 4635   2.246   0.896   1.779
 1557TIP3    H2 4636   2.324   1.024   1.803
 1558TIP3   OH2 4637   1.247   1.288   0.740
 1558TIP3    H1 4638   1.188   1.362   0.726
 1558TIP3    H2 4639   1.314   1.297   0.672
 1559TIP3   OH2 4640   5.492   1.547   1.376
 1559TIP3    H1 4641   5.580   1.540   1.341
 1559TIP3    H2 4642   5.501   1.526   1.469
 1560TIP3   OH2 4643   1.822   0.793   5.506
 1560TIP3    H1 4644   1.795   0.841   5.585
 1560TIP3    H2 4645   1.790   0.847   5.434
 1561TIP3   OH2 4646   0.662   3.361   0.283
 1561TIP3    H1 4647   0.691   3.438   0.235
 1561TIP3    H2 4648   0.740   3.328   0.327
 1562TIP3   OH2 4649   6.342   2.328   0.303
 1562TIP3    H1 4650   6.249   2.333   0.284
 1562TIP3    H2 4651   6.381   2.401   0.255
 1563TIP3   OH2 4652   5.313   3.386   4.378
 1563TIP3    H1 4653   5.387   3.379   4.437
 1563TIP3    H2 4654   5.242   3.421   4.432
 1564TIP3   OH2 4655   5.567   5.953   3.001
 1564TIP3    H1 4656   5.615   5.993   2.929
 1564TIP3    H2 4657   5.509   6.022   3.033
 1565TIP3   OH2 4658   0.789   2.276   4.616
 1565TIP3    H1 4659   0.829   2.228   4.689
 1565TIP3    H2 4660   0.796   2.368   4.641
 1566TIP3   OH2 4661   6.981   6.093   4.923
 1566TIP3    H1 4662   7.071   6.103   4.956
 1566TIP3    H2 4663   6.991   6.089   4.828
 1567TIP3   OH2 4664   7.201   5.863   2.686
 1567TIP3    H1 4665   7.193   5.769   2.672
 1567TIP3    H2 4666   7.118   5.899   2.653
 1568TIP3   OH2 4667   5.983   3.586   0.234
 1568TIP3    H1 4668   5.959   3.556   0.322
 1568TIP3    H2 4669   5.902   3.623   0.198
 1569TIP3   OH2 4670   0.730   6.418   2.474
 1569TIP3    H1 4671   0.735   6.513   2.487
 1569TIP3    H2 4672   0.812   6.395   2.432
 1570TIP3   OH2 4673   0.920   3.096   2.675
 1570TIP3    H1 4674   0.948   3.006   2.660
 1570TIP3    H2 4675   1.001   3.147   2.672
 1571TIP3   OH2 4676   0.294   2.033   4.431
 1571TIP3    H1 4677   0.330   2.120   4.445
 1571TIP3    H2 4678   0.216   2.030   4.487
 1572TIP3   OH2 4679   0.869   2.136   4.833
 1572TIP3    H1 4680   0.958   2.170   4.843
 1572TIP3    H2 4681   0.835   2.131   4.922
 1573TIP3   OH2 4682   4.064   1.472   5.368
 1573TIP3    H1 4683   4.056   1.386   5.327
 1573TIP3    H2 4684   4.055   1.534   5.296
 1574TIP3   OH2 4685   2.272   5.443   4.898
 1574TIP3    H1 4686   2.246   5.433   4.807
 1574TIP3    H2 4687   2.327   5.366   4.916
 1575TIP3   OH2 4688   3.516   6.168   5.224
 1575TIP3    H1 4689   3.424   6.187   5.239
 1575TIP3    H2 4690   3.517   6.081   5.183
 1576TIP3   OH2 4691   4.321   0.627   0.591
 1576TIP3    H1 4692   4.255   0.614   0.522
 1576TIP3    H2 4693   4.281   0.589   0.669
 1577TIP3   OH2 4694   5.902   0.241   4.330
 1577TIP3    H1 4695   5.861   0.297   4.395
 1577TIP3    H2 4696   5.830   0.191   4.292
 1578TIP3   OH2 4697   4.103   0.208   1.111
 1578TIP3    H1 4698   4.140   0.157   1.040
 1578TIP3    H2 4699   4.009   0.211   1.093
 1579TIP3   OH2 4700   4.841   4.472   2.831
 1579TIP3    H1 4701   4.932   4.447   2.816
 1579TIP3    H2 4702   4.792   4.426   2.764
 1580TIP3   OH2 4703   0.663   1.404   4.824
 1580TIP3    H1 4704   0.591   1.465   4.843
 1580TIP3    H2 4705   0.623   1.317   4.831
 1581TIP3   OH2 4706   1.483   0.830   4.824
 1581TIP3    H1 4707   1.413   0.768   4.806
 1581TIP3    H2 4708   1.513   0.807   4.912
 1582TIP3   OH2 4709   6.621   4.569   1.959
 1582TIP3    H1 4710   6.614   4.527   1.874
 1582TIP3    H2 4711   6.707   4.613   1.957
 1583TIP3   OH2 4712   0.421   0.075   3.227
 1583TIP3    H1 4713   0.407  -0.019   3.233
 1583TIP3    H2 4714   0.350   0.113   3.280
 1584TIP3   OH2 4715   1.524   5.590   4.251
 1584TIP3    H1 4716   1.582   5.636   4.190
 1584TIP3    H2 4717   1.574   5.512   4.277
 1585TIP3   OH2 4718   1.854   0.984   5.117
 1585TIP3    H1 4719   1.883   1.039   5.189
 1585TIP3    H2 4720   1.893   0.898   5.135
 1586TIP3   OH2 4721   5.337   2.045   4.771
 1586TIP3    H1 4722   5.259   2.081   4.814
 1586TIP3    H2 4723   5.326   2.068   4.679
 1587TIP3   OH2 4724   0.017   3.340   3.627
 1587TIP3    H1 4725   0.024   3.324   3.533
 1587TIP3    H2 4726   0.021   3.253   3.667
 1588TIP3   OH2 4727   6.690   0.422   1.194
 1588TIP3    H1 4728   6.621   0.483   1.170
 1588TIP3    H2 4729   6.651   0.368   1.263
 1589TIP3   OH2 4730   4.581   4.168   4.021
 1589TIP3    H1 4731   4.621   4.201   4.102
 1589TIP3    H2 4732   4.487   4.179   4.035
 1590TIP3   OH2 4733   1.978   4.247   2.635
 1590TIP3    H1 4734   1.955   4.339   2.627
 1590TIP3    H2 4735   1.918   4.213   2.702
 1591TIP3   OH2 4736   6.990   6.539   1.230
 1591TIP3    H1 4737   7.053   6.471   1.255
 1591TIP3    H2 4738   6.947   6.504   1.152
 1592TIP3   OH2 4739   6.053   1.557   1.297
 1592TIP3    H1 4740   6.045   1.501   1.374
 1592TIP3    H2 4741   6.066   1.497   1.224
 1593TIP3   OH2 4742   2.579   0.713   5.021
 1593TIP3    H1 4743   2.627   0.657   4.960
 1593TIP3    H2 4744   2.639   0.727   5.094
 1594TIP3   OH2 4745   3.495   0.425   3.753
 1594TIP3    H1 4746   3.424   0.396   3.696
 1594TIP3    H2 4747   3.494   0.521   3.746
 1595TIP3   OH2 4748   2.076   2.244   5.734
 1595TIP3    H1 4749   2.118   2.321   5.771
 1595TIP3    H2 4750   2.141   2.206   5.675
 1596TIP3   OH2 4751   3.614   5.913   1.732
 1596TIP3    H1 4752   3.668   5.959   1.796
 1596TIP3    H2 4753   3.650   5.939   1.647
 1597TIP3   OH2 4754   3.092   6.220   1.106
 1597TIP3    H1 4755   3.116   6.286   1.172
 1597TIP3    H2 4756   3.005   6.248   1.076
 1598TIP3   OH2 4757   0.240   5.441   0.312
 1598TIP3    H1 4758   0.314   5.501   0.322
 1598TIP3    H2 4759   0.281   5.356   0.294
 1599TIP3   OH2 4760   6.609   2.957   4.762
 1599TIP3    H1 4761   6.546   2.885   4.756
 1599TIP3    H2 4762   6.594   3.008   4.682
 1600TIP3   OH2 4763   3.096   1.169   5.068
 1600TIP3    H1 4764   3.097   1.265   5.071
 1600TIP3    H2 4765   3.045   1.143   5.145
 1601TIP3   OH2 4766   2.322   4.182   4.659
 1601TIP3    H1 4767   2.236   4.224   4.660
 1601TIP3    H2 4768   2.317   4.116   4.728
 1602TIP3   OH2 4769   5.865   0.461   4.079
 1602TIP3    H1 4770   5.792   0.519   4.101
 1602TIP3    H2 4771   5.929   0.517   4.037
 1603TIP3   OH2 4772   0.168   5.925   3.593
 1603TIP3    H1 4773   0.182   6.013   3.558
 1603TIP3    H2 4774   0.210   5.867   3.530
 1604TIP3   OH2 4775   4.851   2.617   1.517
 1604TIP3    H1 4776   4.940   2.649   1.501
 1604TIP3    H2 4777   4.806   2.630   1.433
 1605TIP3   OH2 4778   6.912   0.256   4.884
 1605TIP3    H1 4779   6.837   0.197   4.888
 1605TIP3    H2 4780   6.902   0.301   4.800
 1606TIP3   OH2 4781   0.124   2.668   3.576
 1606TIP3    H1 4782   0.051   2.619   3.537
 1606TIP3    H2 4783   0.092   2.758   3.581
 1607TIP3   OH2 4784   1.477   2.560   0.141
 1607TIP3    H1 4785   1.460   2.613   0.063
 1607TIP3    H2 4786   1.457   2.471   0.115
 1608TIP3   OH2 4787   2.622   1.533   4.873
 1608TIP3    H1 4788   2.607   1.452   4.825
 1608TIP3    H2 4789   2.715   1.550   4.864
 1609TIP3   OH2 4790   5.840   3.944   4.535
 1609TIP3    H1 4791   5.918   3.997   4.550
 1609TIP3    H2 4792   5.781   4.001   4.486
 1610TIP3   OH2 4793   3.759   3.268   4.085
 1610TIP3    H1 4794   3.831   3.206   4.069
 1610TIP3    H2 4795   3.698   3.253   4.013
 1611TIP3   OH2 4796   5.363   6.363   5.627
 1611TIP3    H1 4797   5.339   6.455   5.636
 1611TIP3    H2 4798   5.297   6.315   5.676
 1612TIP3   OH2 4799   4.661   0.635   2.213
 1612TIP3    H1 4800   4.688   0.553   2.253
 1612TIP3    H2 4801   4.713   0.641   2.133
 1613TIP3   OH2 4802   1.073   3.341   3.075
 1613TIP3    H1 4803   1.161   3.330   3.040
 1613TIP3    H2 4804   1.020   3.277   3.028
 1614TIP3   OH2 4805   4.383   1.015   3.466
 1614TIP3    H1 4806   4.452   1.039   3.528
 1614TIP3    H2 4807   4.424   0.952   3.407
 1615TIP3   OH2 4808   5.860   5.598   2.057
 1615TIP3    H1 4809   5.765   5.599   2.069
 1615TIP3    H2 4810   5.873   5.617   1.964
 1616TIP3   OH2 4811   5.576   3.292   1.387
 1616TIP3    H1 4812   5.629   3.356   1.434
 1616TIP3    H2 4813   5.502   3.342   1.352
 1617TIP3   OH2 4814   0.253   0.320   0.931
 1617TIP3    H1 4815   0.161   0.322   0.958
 1617TIP3    H2 4816   0.290   0.246   0.978
 1618TIP3   OH2 4817   3.570   1.884   3.043
 1618TIP3    H1 4818   3.656   1.844   3.057
 1618TIP3    H2 4819   3.529   1.885   3.129
 1619TIP3   OH2 4820   0.005   2.622   5.078
 1619TIP3    H1 4821   0.046   2.572   5.007
 1619TIP3    H2 4822  -0.060   2.562   5.115
 1620TIP3   OH2 4823   1.106   4.445   2.366
 1620TIP3    H1 4824   1.115   4.494   2.284
 1620TIP3    H2 4825   1.103   4.513   2.434
 1621TIP3   OH2 4826   0.869   2.580   5.167
 1621TIP3    H1 4827   0.955   2.537   5.166
 1621TIP3    H2 4828   0.810   2.516   5.129
 1622TIP3   OH2 4829   5.275   3.789   3.464
 1622TIP3    H1 4830   5.370   3.775   3.457
 1622TIP3    H2 4831   5.247   3.731   3.535
 1623TIP3   OH2 4832   4.054   4.249   4.129
 1623TIP3    H1 4833   4.024   4.219   4.214
 1623TIP3    H2 4834   4.016   4.337   4.120
 1624TIP3   OH2 4835   0.238   6.416   5.497
 1624TIP3    H1 4836   0.292   6.387   5.571
 1624TIP3    H2 4837   0.162   6.357   5.498
 1625TIP3   OH2 4838   0.122   0.842   1.724
 1625TIP3    H1 4839   0.187   0.897   1.768
 1625TIP3    H2 4840   0.038   0.868   1.764
 1626TIP3   OH2 4841   5.987   6.487   1.759
 1626TIP3    H1 4842   6.016   6.451   1.675
 1626TIP3    H2 4843   6.066   6.527   1.796
 1627TIP3   OH2 4844   3.395   1.604   1.915
 1627TIP3    H1 4845   3.448   1.684   1.904
 1627TIP3    H2 4846   3.305   1.633   1.900
 1628TIP3   OH2 4847   2.159   0.958   2.791
 1628TIP3    H1 4848   2.242   0.973   2.746
 1628TIP3    H2 4849   2.099   1.022   2.752
 1629TIP3   OH2 4850   6.977   1.306   4.171
 1629TIP3    H1 4851   7.062   1.309   4.128
 1629TIP3    H2 4852   6.915   1.289   4.100
 1630TIP3   OH2 4853   0.870   0.372   2.867
 1630TIP3    H1 4854   0.858   0.413   2.781
 1630TIP3    H2 4855   0.788   0.387   2.912
 1631TIP3   OH2 4856   1.710   1.578   5.032
 1631TIP3    H1 4857   1.696   1.601   4.939
 1631TIP3    H2 4858   1.633   1.614   5.076
 1632TIP3   OH2 4859   7.141   1.618   4.046
 1632TIP3    H1 4860   7.185   1.535   4.027
 1632TIP3    H2 4861   7.206   1.685   4.024
 1633TIP3   OH2 4862   2.743   1.021   5.130
 1633TIP3    H1 4863   2.766   0.933   5.102
 1633TIP3    H2 4864   2.660   1.010   5.178
 1634TIP3   OH2 4865   3.333   0.161   1.049
 1634TIP3    H1 4866   3.257   0.218   1.060
 1634TIP3    H2 4867   3.371   0.154   1.136
 1635TIP3   OH2 4868   2.247   2.789   4.089
 1635TIP3    H1 4869   2.270   2.734   4.015
 1635TIP3    H2 4870   2.160   2.760   4.115
 1636TIP3   OH2 4871   7.041   1.779   5.120
 1636TIP3    H1 4872   6.983   1.751   5.191
 1636TIP3    H2 4873   7.112   1.714   5.120
 1637TIP3   OH2 4874   0.574   3.262   5.909
 1637TIP3    H1 4875   0.539   3.291   5.825
 1637TIP3    H2 4876   0.613   3.341   5.948
 1638TIP3   OH2 4877   5.458   3.519   2.812
 1638TIP3    H1 4878   5.392   3.572   2.856
 1638TIP3    H2 4879   5.422   3.430   2.812
 1639TIP3   OH2 4880   5.225   3.975   1.509
 1639TIP3    H1 4881   5.291   3.988   1.577
 1639TIP3    H2 4882   5.144   3.956   1.556
 1640TIP3   OH2 4883   7.170   0.996   0.117
 1640TIP3    H1 4884   7.203   0.915   0.154
 1640TIP3    H2 4885   7.076   0.983   0.111
 1641TIP3   OH2 4886   3.039   3.673   4.125
 1641TIP3    H1 4887   3.070   3.761   4.106
 1641TIP3    H2 4888   3.034   3.630   4.040
 1642TIP3   OH2 4889   1.855   3.602   1.048
 1642TIP3    H1 4890   1.770   3.567   1.020
 1642TIP3    H2 4891   1.898   3.528   1.091
 1643TIP3   OH2 4892   1.820   3.495   4.978
 1643TIP3    H1 4893   1.839   3.430   5.047
 1643TIP3    H2 4894   1.751   3.550   5.015
 1644TIP3   OH2 4895   0.722   0.655   2.849
 1644TIP3    H1 4896   0.782   0.714   2.894
 1644TIP3    H2 4897   0.647   0.647   2.909
 1645TIP3   OH2 4898   3.449   2.342   1.089
 1645TIP3    H1 4899   3.365   2.296   1.097
 1645TIP3    H2 4900   3.425   2.435   1.088
 1646TIP3   OH2 4901   1.922   2.955   2.695
 1646TIP3    H1 4902   1.910   2.880   2.636
 1646TIP3    H2 4903   1.877   2.929   2.775
 1647TIP3   OH2 4904   3.467   1.268   1.034
 1647TIP3    H1 4905   3.392   1.288   1.090
 1647TIP3    H2 4906   3.530   1.338   1.051
 1648TIP3   OH2 4907   3.696   5.002   2.048
 1648TIP3    H1 4908   3.675   5.002   1.955
 1648TIP3    H2 4909   3.616   4.969   2.091
 1649TIP3   OH2 4910   1.052   6.103   5.595
 1649TIP3    H1 4911   0.962   6.123   5.570
 1649TIP3    H2 4912   1.056   6.007   5.599
 1650TIP3   OH2 4913   4.008   6.057   3.884
 1650TIP3    H1 4914   3.968   6.120   3.823
 1650TIP3    H2 4915   4.062   6.112   3.942
 1651TIP3   OH2 4916   6.360   1.435   4.907
 1651TIP3    H1 4917   6.349   1.500   4.976
 1651TIP3    H2 4918   6.350   1.351   4.951
 1652TIP3   OH2 4919   2.308   1.634   3.574
 1652TIP3    H1 4920   2.265   1.701   3.628
 1652TIP3    H2 4921   2.401   1.654   3.582
 1653TIP3   OH2 4922   0.211   1.507   5.266
 1653TIP3    H1 4923   0.301   1.497   5.234
 1653TIP3    H2 4924   0.211   1.464   5.352
 1654TIP3   OH2 4925   2.154   0.082   0.901
 1654TIP3    H1 4926   2.120   0.058   0.815
 1654TIP3    H2 4927   2.110   0.164   0.923
 1655TIP3   OH2 4928   0.629   2.178   5.315
 1655TIP3    H1 4929   0.561   2.244   5.311
 1655TIP3    H2 4930   0.685   2.205   5.389
 1656TIP3   OH2 4931   4.456   4.591   1.126
 1656TIP3    H1 4932   4.383   4.641   1.163
 1656TIP3    H2 4933   4.519   4.584   1.198
 1657TIP3   OH2 4934   5.955   5.725   2.270
 1657TIP3    H1 4935   5.910   5.670   2.205
 1657TIP3    H2 4936   5.950   5.813   2.234
 1658TIP3   OH2 4937   4.758   5.767   4.429
 1658TIP3    H1 4938   4.719   5.799   4.348
 1658TIP3    H2 4939   4.764   5.672   4.418
 1659TIP3   OH2 4940   5.105   1.769   5.242
 1659TIP3    H1 4941   5.128   1.734   5.328
 1659TIP3    H2 4942   5.189   1.796   5.204
 1660TIP3   OH2 4943   3.766   3.932   5.401
 1660TIP3    H1 4944   3.853   3.967   5.382
 1660TIP3    H2 4945   3.716   4.007   5.434
 1661TIP3   OH2 4946   3.837   5.742   3.790
 1661TIP3    H1 4947   3.899   5.738   3.863
 1661TIP3    H2 4948   3.886   5.786   3.720
 1662TIP3   OH2 4949   0.301   4.098   0.877
 1662TIP3    H1 4950   0.325   4.045   0.953
 1662TIP3    H2 4951   0.264   4.036   0.814
 1663TIP3   OH2 4952   7.179   0.375   0.658
 1663TIP3    H1 4953   7.106   0.437   0.664
 1663TIP3    H2 4954   7.186   0.338   0.746
 1664TIP3   OH2 4955   0.039   6.047   2.354
 1664TIP3    H1 4956   0.121   6.014   2.392
 1664TIP3    H2 4957   0.037   6.140   2.377
 1665TIP3   OH2 4958   4.891   0.071   3.784
 1665TIP3    H1 4959   4.801   0.091   3.809
 1665TIP3    H2 4960   4.885   0.039   3.694
 1666TIP3   OH2 4961   2.554   3.662   0.711
 1666TIP3    H1 4962   2.513   3.594   0.657
 1666TIP3    H2 4963   2.492   3.678   0.782
 1667TIP3   OH2 4964   5.518   0.780   0.600
 1667TIP3    H1 4965   5.560   0.729   0.531
 1667TIP3    H2 4966   5.453   0.720   0.638
 1668TIP3   OH2 4967   5.450   0.140   2.051
 1668TIP3    H1 4968   5.501   0.060   2.063
 1668TIP3    H2 4969   5.360   0.109   2.040
 1669TIP3   OH2 4970   2.912   2.172   2.050
 1669TIP3    H1 4971   2.898   2.160   2.144
 1669TIP3    H2 4972   3.004   2.150   2.036
 1670TIP3   OH2 4973   4.777   4.863   3.941
 1670TIP3    H1 4974   4.696   4.895   3.981
 1670TIP3    H2 4975   4.756   4.856   3.847
 1671TIP3   OH2 4976   0.498   0.426   1.965
 1671TIP3    H1 4977   0.479   0.515   1.997
 1671TIP3    H2 4978   0.512   0.437   1.871
 1672TIP3   OH2 4979   1.551   0.414   0.833
 1672TIP3    H1 4980   1.556   0.330   0.879
 1672TIP3    H2 4981   1.636   0.421   0.789
 1673TIP3   OH2 4982   4.028   5.738   3.975
 1673TIP3    H1 4983   4.011   5.814   4.031
 1673TIP3    H2 4984   4.103   5.695   4.017
 1674TIP3   OH2 4985   6.104   0.615   1.501
 1674TIP3    H1 4986   6.040   0.552   1.466
 1674TIP3    H2 4987   6.147   0.568   1.573
 1675TIP3   OH2 4988   0.887   5.311   0.956
 1675TIP3    H1 4989   0.932   5.240   1.003
 1675TIP3    H2 4990   0.834   5.354   1.022
 1676TIP3   OH2 4991   4.391   2.060   0.403
 1676TIP3    H1 4992   4.420   2.037   0.315
 1676TIP3    H2 4993   4.305   2.019   0.412
 1677TIP3   OH2 4994   2.070   5.099   2.578
 1677TIP3    H1 4995   2.108   5.177   2.538
 1677TIP3    H2 4996   2.124   5.027   2.546
 1678TIP3   OH2 4997   4.981   2.492   3.287
 1678TIP3    H1 4998   5.012   2.580   3.310
 1678TIP3    H2 4999   4.890   2.505   3.262
 1679TIP3   OH2 5000   3.315   5.803   4.567
 1679TIP3    H1 5001   3.374   5.781   4.638
 1679TIP3    H2 5002   3.237   5.750   4.582
 1680TIP3   OH2 5003   2.457   0.462   5.794
 1680TIP3    H1 5004   2.473   0.455   5.700
 1680TIP3    H2 5005   2.506   0.389   5.832
 1681TIP3   OH2 5006   7.066   5.537   1.117
 1681TIP3    H1 5007   7.004   5.601   1.080
 1681TIP3    H2 5008   7.052   5.544   1.212
 1682TIP3   OH2 5009   2.579   3.153   3.410
 1682TIP3    H1 5010   2.623   3.236   3.429
 1682TIP3    H2 5011   2.651   3.089   3.405
 1683TIP3   OH2 5012   6.874   5.600   1.695
 1683TIP3    H1 5013   6.816   5.620   1.622
 1683TIP3    H2 5014   6.815   5.582   1.768
 1684TIP3   OH2 5015   3.392   4.907   3.179
 1684TIP3    H1 5016   3.411   4.896   3.272
 1684TIP3    H2 5017   3.395   4.819   3.142
 1685TIP3   OH2 5018   0.742   4.340   4.491
 1685TIP3    H1 5019   0.816   4.401   4.495
 1685TIP3    H2 5020   0.765   4.277   4.423
 1686TIP3   OH2 5021   1.561   1.890   3.564
 1686TIP3    H1 5022   1.610   1.903   3.646
 1686TIP3    H2 5023   1.469   1.895   3.590
 1687TIP3   OH2 5024   5.300   5.081   1.938
 1687TIP3    H1 5025   5.332   5.121   1.857
 1687TIP3    H2 5026   5.373   5.027   1.969
 1688TIP3   OH2 5027   2.761   4.317   5.173
 1688TIP3    H1 5028   2.718   4.341   5.255
 1688TIP3    H2 5029   2.848   4.355   5.180
 1689TIP3   OH2 5030   2.888   2.649   0.803
 1689TIP3    H1 5031   2.834   2.590   0.855
 1689TIP3    H2 5032   2.830   2.678   0.732
 1690TIP3   OH2 5033   4.776   4.347   0.498
 1690TIP3    H1 5034   4.797   4.255   0.513
 1690TIP3    H2 5035   4.811   4.393   0.574
 1691TIP3   OH2 5036   2.390   3.990   1.323
 1691TIP3    H1 5037   2.351   3.902   1.326
 1691TIP3    H2 5038   2.479   3.977   1.357
 1692TIP3   OH2 5039   4.452   4.310   4.958
 1692TIP3    H1 5040   4.370   4.268   4.986
 1692TIP3    H2 5041   4.512   4.237   4.944
 1693TIP3   OH2 5042   0.207   1.274   4.821
 1693TIP3    H1 5043   0.118   1.276   4.859
 1693TIP3    H2 5044   0.194   1.247   4.731
 1694TIP3   OH2 5045   3.122   0.429   2.054
 1694TIP3    H1 5046   3.103   0.511   2.100
 1694TIP3    H2 5047   3.149   0.457   1.966
 1695TIP3   OH2 5048   3.792   2.071   0.343
 1695TIP3    H1 5049   3.812   1.978   0.350
 1695TIP3    H2 5050   3.877   2.115   0.345
 1696TIP3   OH2 5051   5.791   5.467   4.390
 1696TIP3    H1 5052   5.713   5.415   4.374
 1696TIP3    H2 5053   5.765   5.530   4.457
 1697TIP3   OH2 5054   5.422   1.390   2.520
 1697TIP3    H1 5055   5.453   1.313   2.568
 1697TIP3    H2 5056   5.501   1.430   2.484
 1698TIP3   OH2 5057   0.808   0.655   0.093
 1698TIP3    H1 5058   0.725   0.612   0.115
 1698TIP3    H2 5059   0.785   0.722   0.029
 1699TIP3   OH2 5060   5.812   3.047   5.874
 1699TIP3    H1 5061   5.850   3.135   5.882
 1699TIP3    H2 5062   5.837   3.017   5.787
 1700TIP3   OH2 5063   5.492   2.358   3.668
 1700TIP3    H1 5064   5.522   2.271   3.644
 1700TIP3    H2 5065   5.510   2.412   3.592
 1701TIP3   OH2 5066   1.504   5.687   3.059
 1701TIP3    H1 5067   1.431   5.652   3.007
 1701TIP3    H2 5068   1.571   5.709   2.994
 1702TIP3   OH2 5069   0.188   1.162   2.817
 1702TIP3    H1 5070   0.239   1.243   2.811
 1702TIP3    H2 5071   0.252   1.092   2.802
 1703TIP3   OH2 5072   0.844   5.702   2.686
 1703TIP3    H1 5073   0.850   5.638   2.616
 1703TIP3    H2 5074   0.752   5.728   2.687
 1704TIP3   OH2 5075   0.712   4.699   5.437
 1704TIP3    H1 5076   0.656   4.636   5.390
 1704TIP3    H2 5077   0.680   4.784   5.409
 1705TIP3   OH2 5078   4.783   2.582   2.959
 1705TIP3    H1 5079   4.751   2.601   2.870
 1705TIP3    H2 5080   4.786   2.486   2.963
 1706TIP3   OH2 5081   4.110   2.249   1.151
 1706TIP3    H1 5082   4.050   2.231   1.079
 1706TIP3    H2 5083   4.099   2.175   1.211
 1707TIP3   OH2 5084   2.761   6.124   0.170
 1707TIP3    H1 5085   2.772   6.086   0.083
 1707TIP3    H2 5086   2.786   6.216   0.159
 1708TIP3   OH2 5087   6.043   5.141   1.292
 1708TIP3    H1 5088   6.010   5.080   1.226
 1708TIP3    H2 5089   6.051   5.089   1.372
 1709TIP3   OH2 5090   5.058   1.235   5.573
 1709TIP3    H1 5091   5.049   1.291   5.496
 1709TIP3    H2 5092   4.970   1.230   5.609
 1710TIP3   OH2 5093   3.210   3.099   5.609
 1710TIP3    H1 5094   3.124   3.116   5.646
 1710TIP3    H2 5095   3.246   3.186   5.592
 1711TIP3   OH2 5096   6.739   3.111   2.215
 1711TIP3    H1 5097   6.826   3.071   2.215
 1711TIP3    H2 5098   6.735   3.157   2.299
 1712TIP3   OH2 5099   1.855   3.690   1.545
 1712TIP3    H1 5100   1.828   3.761   1.604
 1712TIP3    H2 5101   1.788   3.690   1.477
 1713TIP3   OH2 5102   5.962   3.342   2.868
 1713TIP3    H1 5103   5.901   3.409   2.839
 1713TIP3    H2 5104   5.908   3.264   2.882
 1714TIP3   OH2 5105   2.126   4.397   4.713
 1714TIP3    H1 5106   2.171   4.478   4.736
 1714TIP3    H2 5107   2.097   4.361   4.796
 1715TIP3   OH2 5108   5.059   6.650   2.466
 1715TIP3    H1 5109   5.024   6.670   2.553
 1715TIP3    H2 5110   4.987   6.606   2.421
 1716TIP3   OH2 5111   0.630   0.393   3.914
 1716TIP3    H1 5112   0.564   0.354   3.856
 1716TIP3    H2 5113   0.640   0.329   3.985
 1717TIP3   OH2 5114   4.821   0.616   5.342
 1717TIP3    H1 5115   4.735   0.579   5.322
 1717TIP3    H2 5116   4.871   0.544   5.381
 1718TIP3   OH2 5117   3.730   5.159   5.273
 1718TIP3    H1 5118   3.716   5.126   5.184
 1718TIP3    H2 5119   3.761   5.083   5.322
 1719TIP3   OH2 5120   3.016   1.196   2.403
 1719TIP3    H1 5121   3.086   1.159   2.350
 1719TIP3    H2 5122   2.940   1.140   2.386
 1720TIP3   OH2 5123   2.053   4.553   5.800
 1720TIP3    H1 5124   2.136   4.593   5.826
 1720TIP3    H2 5125   2.056   4.552   5.704
 1721TIP3   OH2 5126   0.313   5.775   3.400
 1721TIP3    H1 5127   0.315   5.707   3.467
 1721TIP3    H2 5128   0.399   5.770   3.358
 1722TIP3   OH2 5129   5.586   4.042   3.825
 1722TIP3    H1 5130   5.644   4.048   3.901
 1722TIP3    H2 5131   5.574   4.133   3.797
 1723TIP3   OH2 5132   1.808   3.105   3.304
 1723TIP3    H1 5133   1.825   3.200   3.310
 1723TIP3    H2 5134   1.894   3.068   3.282
 1724TIP3   OH2 5135   5.270   4.632   4.613
 1724TIP3    H1 5136   5.275   4.727   4.625
 1724TIP3    H2 5137   5.354   4.608   4.574
 1725TIP3   OH2 5138   3.811   1.414   4.407
 1725TIP3    H1 5139   3.822   1.407   4.502
 1725TIP3    H2 5140   3.832   1.327   4.374
 1726TIP3   OH2 5141   3.060   6.780   5.618
 1726TIP3    H1 5142   3.062   6.704   5.676
 1726TIP3    H2 5143   3.152   6.805   5.607
 1727TIP3   OH2 5144   4.517   4.565   4.001
 1727TIP3    H1 5145   4.481   4.624   3.936
 1727TIP3    H2 5146   4.596   4.530   3.961
 1728TIP3   OH2 5147   5.313   0.082   4.388
 1728TIP3    H1 5148   5.305   0.145   4.317
 1728TIP3    H2 5149   5.368   0.126   4.453
 1729TIP3   OH2 5150   3.384   0.805   1.271
 1729TIP3    H1 5151   3.375   0.867   1.199
 1729TIP3    H2 5152   3.466   0.759   1.254
 1730TIP3   OH2 5153   1.072  -0.008   0.998
 1730TIP3    H1 5154   1.118   0.039   1.068
 1730TIP3    H2 5155   1.085   0.045   0.920
 1731TIP3   OH2 5156   2.253   2.479   3.127
 1731TIP3    H1 5157   2.347   2.491   3.140
 1731TIP3    H2 5158   2.229   2.411   3.190
 1732TIP3   OH2 5159   0.614   6.008   5.086
 1732TIP3    H1 5160   0.688   6.052   5.127
 1732TIP3    H2 5161   0.560   6.079   5.052
 1733TIP3   OH2 5162   5.127   6.638   4.380
 1733TIP3    H1 5163   5.050   6.676   4.337
 1733TIP3    H2 5164   5.092   6.601   4.461
 1734TIP3   OH2 5165   5.015   5.786   5.592
 1734TIP3    H1 5166   4.980   5.846   5.659
 1734TIP3    H2 5167   4.949   5.787   5.523
 1735TIP3   OH2 5168   3.184   0.703   1.764
 1735TIP3    H1 5169   3.111   0.755   1.797
 1735TIP3    H2 5170   3.226   0.760   1.700
 1736TIP3   OH2 5171   7.044   6.643   0.125
 1736TIP3    H1 5172   6.996   6.724   0.109
 1736TIP3    H2 5173   7.126   6.671   0.165
 1737TIP3   OH2 5174   2.148   1.458   5.359
 1737TIP3    H1 5175   2.087   1.410   5.416
 1737TIP3    H2 5176   2.221   1.482   5.416
 1738TIP3   OH2 5177   6.768   4.572   3.287
 1738TIP3    H1 5178   6.692   4.550   3.234
 1738TIP3    H2 5179   6.751   4.662   3.318
 1739TIP3   OH2 5180   0.299   5.379   4.707
 1739TIP3    H1 5181   0.368   5.420   4.759
 1739TIP3    H2 5182   0.225   5.374   4.768
 1740TIP3   OH2 5183   3.128   3.348   4.138
 1740TIP3    H1 5184   3.128   3.412   4.067
 1740TIP3    H2 5185   3.164   3.268   4.099
 1741TIP3   OH2 5186   0.757   0.330   5.292
 1741TIP3    H1 5187   0.778   0.414   5.332
 1741TIP3    H2 5188   0.730   0.274   5.366
 1742TIP3   OH2 5189   5.305   3.290   2.471
 1742TIP3    H1 5190   5.277   3.282   2.563
 1742TIP3    H2 5191   5.226   3.318   2.425
 1743TIP3   OH2 5192   5.563   4.019   1.288
 1743TIP3    H1 5193   5.579   4.053   1.376
 1743TIP3    H2 5194   5.598   3.930   1.290
 1744TIP3   OH2 5195   4.918   3.519   2.528
 1744TIP3    H1 5196   5.006   3.551   2.507
 1744TIP3    H2 5197   4.931   3.458   2.601
 1745TIP3   OH2 5198   2.302   5.133   4.183
 1745TIP3    H1 5199   2.317   5.104   4.093
 1745TIP3    H2 5200   2.209   5.117   4.198
 1746TIP3   OH2 5201   2.487   3.286   3.173
 1746TIP3    H1 5202   2.490   3.366   3.225
 1746TIP3    H2 5203   2.510   3.216   3.234
 1747TIP3   OH2 5204   2.537   6.710   1.984
 1747TIP3    H1 5205   2.455   6.753   1.960
 1747TIP3    H2 5206   2.516   6.663   2.065
 1748TIP3   OH2 5207   5.905   3.832   0.538
 1748TIP3    H1 5208   5.889   3.868   0.451
 1748TIP3    H2 5209   5.987   3.872   0.566
 1749TIP3   OH2 5210   0.182   0.668   4.020
 1749TIP3    H1 5211   0.090   0.685   4.000
 1749TIP3    H2 5212   0.181   0.588   4.073
 1750TIP3   OH2 5213   1.349   6.740   3.433
 1750TIP3    H1 5214   1.429   6.737   3.486
 1750TIP3    H2 5215   1.306   6.656   3.450
 1751TIP3   OH2 5216   1.913   4.519   2.603
 1751TIP3    H1 5217   1.915   4.570   2.522
 1751TIP3    H2 5218   1.821   4.519   2.629
 1752TIP3   OH2 5219   6.583   2.836   5.031
 1752TIP3    H1 5220   6.577   2.932   5.029
 1752TIP3    H2 5221   6.641   2.818   5.105
 1753TIP3   OH2 5222   4.230   4.496   3.560
 1753TIP3    H1 5223   4.279   4.437   3.616
 1753TIP3    H2 5224   4.223   4.450   3.476
 1754TIP3   OH2 5225   3.158   5.968   5.855
 1754TIP3    H1 5226   3.177   5.957   5.762
 1754TIP3    H2 5227   3.124   6.058   5.861
 1755TIP3   OH2 5228   6.405   1.844   5.308
 1755TIP3    H1 5229   6.432   1.932   5.283
 1755TIP3    H2 5230   6.440   1.787   5.239
 1756TIP3   OH2 5231   0.232   0.240   0.643
 1756TIP3    H1 5232   0.173   0.305   0.606
 1756TIP3    H2 5233   0.220   0.248   0.738
 1757TIP3   OH2 5234   3.924   2.814   2.010
 1757TIP3    H1 5235   4.006   2.764   2.019
 1757TIP3    H2 5236   3.946   2.886   1.951
 1758TIP3   OH2 5237   2.081   4.543   4.475
 1758TIP3    H1 5238   2.065   4.495   4.556
 1758TIP3    H2 5239   2.012   4.610   4.473
 1759TIP3   OH2 5240   3.816   2.229   4.005
 1759TIP3    H1 5241   3.889   2.241   4.066
 1759TIP3    H2 5242   3.826   2.301   3.942
 1760TIP3   OH2 5243   4.840   0.551   3.162
 1760TIP3    H1 5244   4.906   0.489   3.193
 1760TIP3    H2 5245   4.758   0.521   3.201
 1761TIP3   OH2 5246   3.570   4.981   4.150
 1761TIP3    H1 5247   3.508   4.977   4.077
 1761TIP3    H2 5248   3.529   5.042   4.212
 1762TIP3   OH2 5249   0.792   3.419   0.624
 1762TIP3    H1 5250   0.743   3.471   0.560
 1762TIP3    H2 5251   0.770   3.458   0.708
 1763TIP3   OH2 5252   1.881   0.662   4.486
 1763TIP3    H1 5253   1.963   0.711   4.491
 1763TIP3    H2 5254   1.832   0.690   4.563
 1764TIP3   OH2 5255   6.400   1.554   4.139
 1764TIP3    H1 5256   6.419   1.484   4.200
 1764TIP3    H2 5257   6.335   1.608   4.184
 1765TIP3   OH2 5258   2.715   0.766   2.876
 1765TIP3    H1 5259   2.754   0.695   2.825
 1765TIP3    H2 5260   2.721   0.842   2.818
 1766TIP3   OH2 5261   4.420   0.438   3.018
 1766TIP3    H1 5262   4.370   0.475   2.946
 1766TIP3    H2 5263   4.445   0.351   2.988
 1767TIP3   OH2 5264   5.165   1.077   1.560
 1767TIP3    H1 5265   5.123   1.010   1.506
 1767TIP3    H2 5266   5.226   1.121   1.500
 1768TIP3   OH2 5267   2.652   4.567   1.102
 1768TIP3    H1 5268   2.609   4.606   1.026
 1768TIP3    H2 5269   2.618   4.478   1.107
 1769TIP3   OH2 5270   4.184   4.754   0.457
 1769TIP3    H1 5271   4.141   4.710   0.530
 1769TIP3    H2 5272   4.219   4.835   0.495
 1770TIP3   OH2 5273   6.326   1.413   3.382
 1770TIP3    H1 5274   6.370   1.352   3.441
 1770TIP3    H2 5275   6.294   1.358   3.311
 1771TIP3   OH2 5276   5.402   3.433   2.245
 1771TIP3    H1 5277   5.387   3.403   2.335
 1771TIP3    H2 5278   5.433   3.524   2.256
 1772TIP3   OH2 5279   0.250   2.743   5.765
 1772TIP3    H1 5280   0.176   2.785   5.807
 1772TIP3    H2 5281   0.272   2.800   5.691
 1773TIP3   OH2 5282   0.409   1.803   5.020
 1773TIP3    H1 5283   0.439   1.836   5.105
 1773TIP3    H2 5284   0.314   1.817   5.021
 1774TIP3   OH2 5285   1.755   1.355   4.486
 1774TIP3    H1 5286   1.700   1.314   4.552
 1774TIP3    H2 5287   1.793   1.281   4.437
 1775TIP3   OH2 5288   6.479   2.311   2.839
 1775TIP3    H1 5289   6.537   2.386   2.825
 1775TIP3    H2 5290   6.441   2.293   2.753
 1776TIP3   OH2 5291   0.238   1.335   5.477
 1776TIP3    H1 5292   0.327   1.306   5.495
 1776TIP3    H2 5293   0.182   1.265   5.510
 1777TIP3   OH2 5294   6.297   5.841   2.776
 1777TIP3    H1 5295   6.381   5.885   2.787
 1777TIP3    H2 5296   6.321   5.750   2.758
 1778TIP3   OH2 5297   6.922   1.040   4.229
 1778TIP3    H1 5298   6.904   1.134   4.221
 1778TIP3    H2 5299   6.879   1.014   4.311
 1779TIP3   OH2 5300   4.152   3.243   2.299
 1779TIP3    H1 5301   4.117   3.331   2.318
 1779TIP3    H2 5302   4.223   3.259   2.236
 1780TIP3   OH2 5303   2.713   5.600   4.646
 1780TIP3    H1 5304   2.626   5.604   4.607
 1780TIP3    H2 5305   2.700   5.558   4.731
 1781TIP3   OH2 5306   5.149   5.569   5.562
 1781TIP3    H1 5307   5.107   5.564   5.476
 1781TIP3    H2 5308   5.116   5.650   5.601
 1782TIP3   OH2 5309   6.839   5.675   1.007
 1782TIP3    H1 5310   6.813   5.606   0.946
 1782TIP3    H2 5311   6.843   5.755   0.954
 1783TIP3   OH2 5312   1.802   3.417   2.538
 1783TIP3    H1 5313   1.826   3.333   2.578
 1783TIP3    H2 5314   1.812   3.481   2.609
 1784TIP3   OH2 5315   1.506   4.461   2.395
 1784TIP3    H1 5316   1.482   4.551   2.376
 1784TIP3    H2 5317   1.446   4.408   2.344
 1785TIP3   OH2 5318   5.083   1.037   1.912
 1785TIP3    H1 5319   5.035   1.023   1.830
 1785TIP3    H2 5320   5.108   1.130   1.909
 1786TIP3   OH2 5321   2.249   6.012   2.963
 1786TIP3    H1 5322   2.333   6.043   2.998
 1786TIP3    H2 5323   2.269   5.925   2.928
 1787TIP3   OH2 5324   4.600   6.174   1.558
 1787TIP3    H1 5325   4.672   6.220   1.515
 1787TIP3    H2 5326   4.562   6.240   1.616
 1788TIP3   OH2 5327   0.425   4.594   2.743
 1788TIP3    H1 5328   0.388   4.660   2.684
 1788TIP3    H2 5329   0.482   4.541   2.687
 1789TIP3   OH2 5330   0.977   5.319   3.203
 1789TIP3    H1 5331   0.898   5.294   3.251
 1789TIP3    H2 5332   1.046   5.266   3.241
 1790TIP3   OH2 5333   1.838   5.028   1.884
 1790TIP3    H1 5334   1.753   5.008   1.924
 1790TIP3    H2 5335   1.854   4.953   1.826
 1791TIP3   OH2 5336   1.427   3.051   4.974
 1791TIP3    H1 5337   1.474   2.995   5.036
 1791TIP3    H2 5338   1.335   3.028   4.985
 1792TIP3   OH2 5339   0.759   0.631   3.879
 1792TIP3    H1 5340   0.715   0.566   3.934
 1792TIP3    H2 5341   0.689   0.678   3.835
 1793TIP3   OH2 5342   6.392   0.996   4.575
 1793TIP3    H1 5343   6.326   1.065   4.567
 1793TIP3    H2 5344   6.445   1.023   4.650
 1794TIP3   OH2 5345   0.886   0.348   4.704
 1794TIP3    H1 5346   0.858   0.264   4.740
 1794TIP3    H2 5347   0.901   0.404   4.781
 1795TIP3   OH2 5348   0.998   4.206   2.948
 1795TIP3    H1 5349   1.084   4.248   2.950
 1795TIP3    H2 5350   1.013   4.124   2.901
 1796TIP3   OH2 5351   4.466   5.219   3.000
 1796TIP3    H1 5352   4.501   5.198   2.913
 1796TIP3    H2 5353   4.377   5.249   2.983
 1797TIP3   OH2 5354   2.649   6.158   5.724
 1797TIP3    H1 5355   2.646   6.251   5.744
 1797TIP3    H2 5356   2.604   6.116   5.798
 1798TIP3   OH2 5357   3.128   6.241   0.684
 1798TIP3    H1 5358   3.111   6.311   0.622
 1798TIP3    H2 5359   3.042   6.217   0.719
 1799TIP3   OH2 5360   0.118   5.235   1.303
 1799TIP3    H1 5361   0.150   5.145   1.308
 1799TIP3    H2 5362   0.193   5.289   1.331
 1800TIP3   OH2 5363   0.957   1.109   5.437
 1800TIP3    H1 5364   0.906   1.119   5.517
 1800TIP3    H2 5365   1.047   1.125   5.463
 1801TIP3   OH2 5366   5.666   0.468   0.318
 1801TIP3    H1 5367   5.633   0.416   0.245
 1801TIP3    H2 5368   5.659   0.558   0.288
 1802TIP3   OH2 5369   0.444   4.293   1.028
 1802TIP3    H1 5370   0.391   4.291   1.108
 1802TIP3    H2 5371   0.407   4.224   0.973
 1803TIP3   OH2 5372   1.745   1.035   0.403
 1803TIP3    H1 5373   1.690   1.108   0.432
 1803TIP3    H2 5374   1.792   1.068   0.327
 1804TIP3   OH2 5375   5.552   3.897   4.094
 1804TIP3    H1 5376   5.579   3.884   4.003
 1804TIP3    H2 5377   5.634   3.895   4.144
 1805TIP3   OH2 5378   1.897   2.937   1.607
 1805TIP3    H1 5379   1.822   2.994   1.625
 1805TIP3    H2 5380   1.859   2.849   1.600
 1806TIP3   OH2 5381   3.717   3.604   5.694
 1806TIP3    H1 5382   3.628   3.635   5.707
 1806TIP3    H2 5383   3.719   3.572   5.604
 1807TIP3   OH2 5384   3.831   1.849   4.308
 1807TIP3    H1 5385   3.827   1.911   4.235
 1807TIP3    H2 5386   3.830   1.763   4.267
 1808TIP3   OH2 5387   1.274   6.495   3.804
 1808TIP3    H1 5388   1.197   6.471   3.753
 1808TIP3    H2 5389   1.301   6.580   3.768
 1809TIP3   OH2 5390   7.181   3.301   0.853
 1809TIP3    H1 5391   7.181   3.336   0.942
 1809TIP3    H2 5392   7.122   3.226   0.857
 1810TIP3   OH2 5393   5.465   4.968   0.464
 1810TIP3    H1 5394   5.378   4.929   0.455
 1810TIP3    H2 5395   5.452   5.061   0.447
 1811TIP3   OH2 5396   5.494   2.417   1.826
 1811TIP3    H1 5397   5.535   2.498   1.856
 1811TIP3    H2 5398   5.406   2.420   1.863
 1812TIP3   OH2 5399   1.424   3.925   3.795
 1812TIP3    H1 5400   1.356   3.993   3.794
 1812TIP3    H2 5401   1.430   3.899   3.887
 1813TIP3   OH2 5402   5.843   4.961   1.460
 1813TIP3    H1 5403   5.800   4.977   1.544
 1813TIP3    H2 5404   5.803   5.023   1.400
 1814TIP3   OH2 5405   4.314   2.225   5.452
 1814TIP3    H1 5406   4.320   2.305   5.505
 1814TIP3    H2 5407   4.230   2.186   5.477
 1815TIP3   OH2 5408   5.780   4.129   3.976
 1815TIP3    H1 5409   5.872   4.103   3.967
 1815TIP3    H2 5410   5.766   4.139   4.070
 1816TIP3   OH2 5411   5.822   2.309   4.083
 1816TIP3    H1 5412   5.808   2.403   4.100
 1816TIP3    H2 5413   5.744   2.282   4.035
 1817TIP3   OH2 5414   6.871   5.197   3.275
 1817TIP3    H1 5415   6.943   5.140   3.248
 1817TIP3    H2 5416   6.793   5.157   3.238
 1818TIP3   OH2 5417   1.903   6.719   0.855
 1818TIP3    H1 5418   1.887   6.675   0.938
 1818TIP3    H2 5419   1.865   6.807   0.866
 1819TIP3   OH2 5420   6.716   4.380   4.050
 1819TIP3    H1 5421   6.787   4.380   4.115
 1819TIP3    H2 5422   6.648   4.325   4.089
 1820TIP3   OH2 5423   1.397   4.876   1.309
 1820TIP3    H1 5424   1.403   4.806   1.245
 1820TIP3    H2 5425   1.473   4.863   1.366
 1821TIP3   OH2 5426   0.319   3.599   1.865
 1821TIP3    H1 5427   0.291   3.631   1.951
 1821TIP3    H2 5428   0.328   3.678   1.812
 1822TIP3   OH2 5429   4.366   6.034   2.969
 1822TIP3    H1 5430   4.305   6.082   3.024
 1822TIP3    H2 5431   4.452   6.070   2.992
 1823TIP3   OH2 5432   4.114   3.878   3.820
 1823TIP3    H1 5433   4.051   3.886   3.892
 1823TIP3    H2 5434   4.063   3.840   3.748
 1824TIP3   OH2 5435   3.518   2.624   5.926
 1824TIP3    H1 5436   3.451   2.660   5.984
 1824TIP3    H2 5437   3.534   2.694   5.862
 1825TIP3   OH2 5438   6.624   5.739   1.182
 1825TIP3    H1 5439   6.700   5.682   1.176
 1825TIP3    H2 5440   6.592   5.747   1.092
 1826TIP3   OH2 5441   1.305   2.041   3.322
 1826TIP3    H1 5442   1.331   2.106   3.387
 1826TIP3    H2 5443   1.384   2.027   3.270
 1827TIP3   OH2 5444   6.505   5.132   1.442
 1827TIP3    H1 5445   6.502   5.137   1.347
 1827TIP3    H2 5446   6.595   5.107   1.463
 1828TIP3   OH2 5447   7.122   5.174   2.574
 1828TIP3    H1 5448   7.075   5.133   2.502
 1828TIP3    H2 5449   7.140   5.264   2.544
 1829TIP3   OH2 5450   6.791   4.952   4.853
 1829TIP3    H1 5451   6.752   4.869   4.825
 1829TIP3    H2 5452   6.882   4.947   4.823
 1830TIP3   OH2 5453   2.475   5.560   0.487
 1830TIP3    H1 5454   2.537   5.604   0.430
 1830TIP3    H2 5455   2.393   5.608   0.477
 1831TIP3   OH2 5456   7.082   6.318   2.139
 1831TIP3    H1 5457   7.092   6.234   2.183
 1831TIP3    H2 5458   7.170   6.341   2.111
 1832TIP3   OH2 5459   3.772   4.562   3.025
 1832TIP3    H1 5460   3.862   4.529   3.027
 1832TIP3    H2 5461   3.781   4.656   3.009
 1833TIP3   OH2 5462   5.045   0.224   1.964
 1833TIP3    H1 5463   5.107   0.167   2.009
 1833TIP3    H2 5464   5.011   0.171   1.893
 1834TIP3   OH2 5465   1.519   4.368   3.207
 1834TIP3    H1 5466   1.468   4.293   3.235
 1834TIP3    H2 5467   1.459   4.420   3.153
 1835TIP3   OH2 5468   2.430   2.533   4.326
 1835TIP3    H1 5469   2.506   2.565   4.277
 1835TIP3    H2 5470   2.434   2.579   4.409
 1836TIP3   OH2 5471   4.315   2.325   0.967
 1836TIP3    H1 5472   4.263   2.297   1.042
 1836TIP3    H2 5473   4.401   2.348   1.003
 1837TIP3   OH2 5474   0.621   2.680   0.395
 1837TIP3    H1 5475   0.704   2.684   0.442
 1837TIP3    H2 5476   0.555   2.695   0.462
 1838TIP3   OH2 5477   0.653   1.599   3.985
 1838TIP3    H1 5478   0.723   1.578   4.047
 1838TIP3    H2 5479   0.665   1.692   3.967
 1839TIP3   OH2 5480   1.079   0.352   5.532
 1839TIP3    H1 5481   1.055   0.260   5.540
 1839TIP3    H2 5482   1.092   0.381   5.623
 1840TIP3   OH2 5483   3.623   5.085   4.985
 1840TIP3    H1 5484   3.580   5.000   4.976
 1840TIP3    H2 5485   3.705   5.076   4.937
 1841TIP3   OH2 5486   1.996   6.261   0.887
 1841TIP3    H1 5487   1.948   6.217   0.958
 1841TIP3    H2 5488   2.012   6.191   0.823
 1842TIP3   OH2 5489   6.244   1.038   0.649
 1842TIP3    H1 5490   6.294   1.082   0.580
 1842TIP3    H2 5491   6.156   1.074   0.642
 1843TIP3   OH2 5492   2.225   3.902   4.500
 1843TIP3    H1 5493   2.150   3.913   4.558
 1843TIP3    H2 5494   2.292   3.862   4.556
 1844TIP3   OH2 5495   3.108   6.439   0.096
 1844TIP3    H1 5496   3.200   6.422   0.077
 1844TIP3    H2 5497   3.092   6.527   0.062
 1845TIP3   OH2 5498   2.436   5.385   3.312
 1845TIP3    H1 5499   2.391   5.302   3.296
 1845TIP3    H2 5500   2.383   5.450   3.266
 1846TIP3   OH2 5501   5.625   0.489   0.025
 1846TIP3    H1 5502   5.571   0.562   0.056
 1846TIP3    H2 5503   5.712   0.527   0.013
 1847TIP3   OH2 5504   0.814   2.517   2.517
 1847TIP3    H1 5505   0.897   2.565   2.521
 1847TIP3    H2 5506   0.790   2.518   2.424
 1848TIP3   OH2 5507   2.950   6.007   5.610
 1848TIP3    H1 5508   2.978   6.095   5.633
 1848TIP3    H2 5509   2.892   5.981   5.682
 1849TIP3   OH2 5510   0.522   3.627   1.092
 1849TIP3    H1 5511   0.432   3.643   1.121
 1849TIP3    H2 5512   0.570   3.705   1.119
 1850TIP3   OH2 5513   2.718   1.587   1.003
 1850TIP3    H1 5514   2.718   1.612   0.910
 1850TIP3    H2 5515   2.633   1.617   1.035
 1851TIP3   OH2 5516   0.525   2.502   3.194
 1851TIP3    H1 5517   0.451   2.492   3.254
 1851TIP3    H2 5518   0.522   2.594   3.168
 1852TIP3   OH2 5519   1.856   0.607   5.052
 1852TIP3    H1 5520   1.900   0.678   5.098
 1852TIP3    H2 5521   1.918   0.581   4.984
 1853TIP3   OH2 5522   1.553   5.402   1.301
 1853TIP3    H1 5523   1.625   5.372   1.246
 1853TIP3    H2 5524   1.564   5.353   1.383
 1854TIP3   OH2 5525   4.235   1.673   2.236
 1854TIP3    H1 5526   4.297   1.651   2.305
 1854TIP3    H2 5527   4.160   1.615   2.252
 1855TIP3   OH2 5528   1.514   6.688   4.782
 1855TIP3    H1 5529   1.483   6.755   4.721
 1855TIP3    H2 5530   1.478   6.715   4.867
 1856TIP3   OH2 5531   4.571   3.624   5.410
 1856TIP3    H1 5532   4.507   3.584   5.350
 1856TIP3    H2 5533   4.579   3.562   5.482
 1857TIP3   OH2 5534   6.542   0.624   3.981
 1857TIP3    H1 5535   6.614   0.622   4.043
 1857TIP3    H2 5536   6.568   0.563   3.912
 1858TIP3   OH2 5537   3.410   3.726   0.975
 1858TIP3    H1 5538   3.403   3.708   1.069
 1858TIP3    H2 5539   3.321   3.716   0.941
 1859TIP3   OH2 5540   6.317   2.344   3.075
 1859TIP3    H1 5541   6.273   2.428   3.061
 1859TIP3    H2 5542   6.392   2.346   3.016
 1860TIP3   OH2 5543   3.876   4.484   1.709
 1860TIP3    H1 5544   3.792   4.495   1.664
 1860TIP3    H2 5545   3.853   4.474   1.801
 1861TIP3   OH2 5546   1.667   3.060   1.679
 1861TIP3    H1 5547   1.616   2.991   1.723
 1861TIP3    H2 5548   1.622   3.141   1.704
 1862TIP3   OH2 5549   0.015   6.048   2.998
 1862TIP3    H1 5550   0.068   5.970   3.015
 1862TIP3    H2 5551  -0.053   6.018   2.938
 1863TIP3   OH2 5552   7.114   5.774   0.032
 1863TIP3    H1 5553   7.123   5.688  -0.008
 1863TIP3    H2 5554   7.193   5.821   0.008
 1864TIP3   OH2 5555   5.323   3.304   0.027
 1864TIP3    H1 5556   5.267   3.379   0.050
 1864TIP3    H2 5557   5.400   3.314   0.083
 1865TIP3   OH2 5558   0.006   6.328   5.087
 1865TIP3    H1 5559   0.026   6.332   4.994
 1865TIP3    H2 5560   0.005   6.235   5.108
 1866TIP3   OH2 5561   6.968   3.965   1.380
 1866TIP3    H1 5562   6.994   4.041   1.432
 1866TIP3    H2 5563   6.902   3.999   1.319
 1867TIP3   OH2 5564   5.934   5.204   5.068
 1867TIP3    H1 5565   5.839   5.197   5.058
 1867TIP3    H2 5566   5.968   5.121   5.035
 1868TIP3   OH2 5567   0.684   5.389   1.152
 1868TIP3    H1 5568   0.633   5.324   1.103
 1868TIP3    H2 5569   0.632   5.469   1.148
 1869TIP3   OH2 5570   7.179   5.518   0.337
 1869TIP3    H1 5571   7.265   5.478   0.321
 1869TIP3    H2 5572   7.116   5.450   0.312
 1870TIP3   OH2 5573   7.107   4.001   5.097
 1870TIP3    H1 5574   7.125   3.959   5.013
 1870TIP3    H2 5575   7.028   4.052   5.082
 1871TIP3   OH2 5576   3.552   5.529   1.045
 1871TIP3    H1 5577   3.531   5.569   0.961
 1871TIP3    H2 5578   3.635   5.569   1.071
 1872TIP3   OH2 5579   2.558   5.934   2.790
 1872TIP3    H1 5580   2.497   5.969   2.725
 1872TIP3    H2 5581   2.548   5.990   2.866
 1873TIP3   OH2 5582   1.994   4.197   1.409
 1873TIP3    H1 5583   2.030   4.117   1.447
 1873TIP3    H2 5584   1.946   4.238   1.481
 1874TIP3   OH2 5585   1.546   3.082   1.443
 1874TIP3    H1 5586   1.517   2.992   1.424
 1874TIP3    H2 5587   1.602   3.073   1.520
 1875TIP3   OH2 5588   6.818   5.294   2.947
 1875TIP3    H1 5589   6.902   5.252   2.926
 1875TIP3    H2 5590   6.819   5.376   2.898
 1876TIP3   OH2 5591   3.379   1.263   0.674
 1876TIP3    H1 5592   3.293   1.239   0.709
 1876TIP3    H2 5593   3.362   1.280   0.581
 1877TIP3   OH2 5594   5.569   0.244   1.230
 1877TIP3    H1 5595   5.501   0.270   1.168
 1877TIP3    H2 5596   5.521   0.199   1.300
 1878TIP3   OH2 5597   2.766   0.085   3.946
 1878TIP3    H1 5598   2.745   0.006   3.897
 1878TIP3    H2 5599   2.683   0.114   3.983
 1879TIP3   OH2 5600   3.286   0.443   4.996
 1879TIP3    H1 5601   3.284   0.369   5.056
 1879TIP3    H2 5602   3.343   0.507   5.038
 1880TIP3   OH2 5603   1.735   2.701   1.587
 1880TIP3    H1 5604   1.753   2.703   1.681
 1880TIP3    H2 5605   1.717   2.609   1.568
 1881TIP3   OH2 5606   2.572   6.027   3.636
 1881TIP3    H1 5607   2.599   6.109   3.593
 1881TIP3    H2 5608   2.525   6.056   3.714
 1882TIP3   OH2 5609   3.058   0.619   4.980
 1882TIP3    H1 5610   3.095   0.701   4.948
 1882TIP3    H2 5611   3.133   0.568   5.010
 1883TIP3   OH2 5612   4.226   5.134   1.975
 1883TIP3    H1 5613   4.192   5.183   2.050
 1883TIP3    H2 5614   4.159   5.067   1.958
 1884TIP3   OH2 5615   1.041   5.544   5.369
 1884TIP3    H1 5616   1.077   5.632   5.381
 1884TIP3    H2 5617   1.070   5.495   5.446
 1885TIP3   OH2 5618   4.091   4.437   2.794
 1885TIP3    H1 5619   4.176   4.393   2.798
 1885TIP3    H2 5620   4.073   4.462   2.885
 1886TIP3   OH2 5621   1.646   5.948   5.354
 1886TIP3    H1 5622   1.683   5.862   5.333
 1886TIP3    H2 5623   1.561   5.929   5.393
 1887TIP3   OH2 5624   1.929   3.708   5.682
 1887TIP3    H1 5625   1.915   3.801   5.664
 1887TIP3    H2 5626   1.842   3.670   5.677
 1888TIP3   OH2 5627   5.917   0.332   5.672
 1888TIP3    H1 5628   5.921   0.389   5.748
 1888TIP3    H2 5629   5.971   0.375   5.606
 1889TIP3   OH2 5630   0.794   0.998   4.210
 1889TIP3    H1 5631   0.823   0.912   4.240
 1889TIP3    H2 5632   0.713   0.980   4.161
 1890TIP3   OH2 5633   2.282   3.227   0.949
 1890TIP3    H1 5634   2.287   3.135   0.975
 1890TIP3    H2 5635   2.212   3.230   0.884
 1891TIP3   OH2 5636   3.371   0.653   2.226
 1891TIP3    H1 5637   3.334   0.698   2.150
 1891TIP3    H2 5638   3.429   0.717   2.266
 1892TIP3   OH2 5639   3.174   1.893   1.449
 1892TIP3    H1 5640   3.181   1.923   1.359
 1892TIP3    H2 5641   3.104   1.946   1.487
 1893TIP3   OH2 5642   1.755   1.911   0.850
 1893TIP3    H1 5643   1.724   1.831   0.894
 1893TIP3    H2 5644   1.831   1.938   0.901
 1894TIP3   OH2 5645   0.968   5.019   1.977
 1894TIP3    H1 5646   0.912   4.966   1.919
 1894TIP3    H2 5647   0.919   5.023   2.060
 1895TIP3   OH2 5648   1.811   2.114   0.069
 1895TIP3    H1 5649   1.815   2.140  -0.023
 1895TIP3    H2 5650   1.836   2.022   0.068
 1896TIP3   OH2 5651   6.537   6.358   0.996
 1896TIP3    H1 5652   6.613   6.313   0.961
 1896TIP3    H2 5653   6.536   6.442   0.951
 1897TIP3   OH2 5654   6.805   5.998   2.906
 1897TIP3    H1 5655   6.791   5.991   3.000
 1897TIP3    H2 5656   6.854   5.919   2.883
 1898TIP3   OH2 5657   4.705   1.976   1.647
 1898TIP3    H1 5658   4.663   1.893   1.667
 1898TIP3    H2 5659   4.777   1.982   1.709
 1899TIP3   OH2 5660   4.332   5.467   2.637
 1899TIP3    H1 5661   4.245   5.466   2.676
 1899TIP3    H2 5662   4.333   5.393   2.577
 1900TIP3   OH2 5663   1.150   1.575   4.695
 1900TIP3    H1 5664   1.169   1.649   4.638
 1900TIP3    H2 5665   1.055   1.573   4.702
 1901TIP3   OH2 5666   4.414   2.516   5.388
 1901TIP3    H1 5667   4.364   2.556   5.459
 1901TIP3    H2 5668   4.349   2.469   5.336
 1902TIP3   OH2 5669   3.744   2.750   0.462
 1902TIP3    H1 5670   3.764   2.748   0.556
 1902TIP3    H2 5671   3.654   2.719   0.456
 1903TIP3   OH2 5672   5.566   5.563   5.082
 1903TIP3    H1 5673   5.488   5.618   5.086
 1903TIP3    H2 5674   5.608   5.588   5.000
 1904TIP3   OH2 5675   4.123   6.057   5.754
 1904TIP3    H1 5676   4.136   6.033   5.846
 1904TIP3    H2 5677   4.036   6.097   5.752
 1905TIP3   OH2 5678   0.758   4.310   3.668
 1905TIP3    H1 5679   0.691   4.278   3.608
 1905TIP3    H2 5680   0.840   4.273   3.635
 1906TIP3   OH2 5681   6.898   2.221   0.205
 1906TIP3    H1 5682   6.948   2.152   0.160
 1906TIP3    H2 5683   6.820   2.176   0.237
 1907TIP3   OH2 5684   3.287   0.418   2.327
 1907TIP3    H1 5685   3.299   0.505   2.288
 1907TIP3    H2 5686   3.288   0.357   2.254
 1908TIP3   OH2 5687   4.247   1.767   1.965
 1908TIP3    H1 5688   4.342   1.764   1.959
 1908TIP3    H2 5689   4.226   1.721   2.046
 1909TIP3   OH2 5690   2.902   4.157   1.673
 1909TIP3    H1 5691   2.871   4.183   1.586
 1909TIP3    H2 5692   2.998   4.163   1.668
 1910TIP3   OH2 5693   4.249   3.938   1.237
 1910TIP3    H1 5694   4.193   4.015   1.225
 1910TIP3    H2 5695   4.278   3.916   1.149
 1911TIP3   OH2 5696   6.472   2.572   0.136
 1911TIP3    H1 5697   6.441   2.658   0.167
 1911TIP3    H2 5698   6.483   2.583   0.042
 1912TIP3   OH2 5699   6.539   0.938   0.277
 1912TIP3    H1 5700   6.571   0.894   0.198
 1912TIP3    H2 5701   6.619   0.968   0.321
 1913TIP3   OH2 5702   2.006   1.025   3.877
 1913TIP3    H1 5703   2.055   1.104   3.856
 1913TIP3    H2 5704   1.941   1.053   3.941
 1914TIP3   OH2 5705   0.312   5.111   4.575
 1914TIP3    H1 5706   0.335   5.186   4.631
 1914TIP3    H2 5707   0.352   5.036   4.618
 1915TIP3   OH2 5708   5.858   0.729   2.272
 1915TIP3    H1 5709   5.867   0.813   2.318
 1915TIP3    H2 5710   5.940   0.683   2.289
 1916TIP3   OH2 5711   2.482   0.301   1.508
 1916TIP3    H1 5712   2.498   0.232   1.444
 1916TIP3    H2 5713   2.557   0.361   1.498
 1917TIP3   OH2 5714   3.449   5.323   4.147
 1917TIP3    H1 5715   3.417   5.362   4.228
 1917TIP3    H2 5716   3.385   5.256   4.126
 1918TIP3   OH2 5717   2.157   3.891   0.116
 1918TIP3    H1 5718   2.217   3.838   0.064
 1918TIP3    H2 5719   2.070   3.854   0.099
 1919TIP3   OH2 5720   6.777   4.710   1.668
 1919TIP3    H1 5721   6.697   4.720   1.617
 1919TIP3    H2 5722   6.768   4.625   1.711
 1920TIP3   OH2 5723   3.472   5.622   5.093
 1920TIP3    H1 5724   3.530   5.557   5.053
 1920TIP3    H2 5725   3.458   5.591   5.182
 1921TIP3   OH2 5726   0.974   3.063   5.906
 1921TIP3    H1 5727   0.962   3.015   5.824
 1921TIP3    H2 5728   1.062   3.040   5.935
 1922TIP3   OH2 5729   2.284   1.797   2.455
 1922TIP3    H1 5730   2.198   1.839   2.451
 1922TIP3    H2 5731   2.310   1.805   2.546
 1923TIP3   OH2 5732   4.126   5.665   4.738
 1923TIP3    H1 5733   4.038   5.636   4.762
 1923TIP3    H2 5734   4.152   5.607   4.668
 1924TIP3   OH2 5735   0.478   5.759   5.082
 1924TIP3    H1 5736   0.519   5.845   5.082
 1924TIP3    H2 5737   0.545   5.700   5.048
 1925TIP3   OH2 5738   2.392   2.142   4.702
 1925TIP3    H1 5739   2.424   2.111   4.787
 1925TIP3    H2 5740   2.370   2.062   4.654
 1926TIP3   OH2 5741   4.029   4.100   3.219
 1926TIP3    H1 5742   4.086   4.124   3.292
 1926TIP3    H2 5743   3.988   4.018   3.247
 1927TIP3   OH2 5744   1.426   3.078   5.882
 1927TIP3    H1 5745   1.395   3.018   5.814
 1927TIP3    H2 5746   1.429   3.024   5.961
 1928TIP3   OH2 5747   1.705   2.262   4.640
 1928TIP3    H1 5748   1.724   2.221   4.725
 1928TIP3    H2 5749   1.791   2.273   4.600
 1929TIP3   OH2 5750   6.185   6.012   2.342
 1929TIP3    H1 5751   6.117   5.982   2.281
 1929TIP3    H2 5752   6.194   5.940   2.405
 1930TIP3   OH2 5753   3.180   4.143   1.676
 1930TIP3    H1 5754   3.204   4.077   1.611
 1930TIP3    H2 5755   3.264   4.176   1.709
 1931TIP3   OH2 5756   7.082   2.561   2.293
 1931TIP3    H1 5757   7.099   2.656   2.294
 1931TIP3    H2 5758   6.987   2.554   2.282
 1932TIP3   OH2 5759   0.711   6.048   0.427
 1932TIP3    H1 5760   0.694   6.002   0.510
 1932TIP3    H2 5761   0.627   6.090   0.406
 1933TIP3   OH2 5762   7.124   5.593   2.698
 1933TIP3    H1 5763   7.181   5.525   2.662
 1933TIP3    H2 5764   7.035   5.563   2.678
 1934TIP3   OH2 5765   5.741   0.872   4.762
 1934TIP3    H1 5766   5.794   0.944   4.796
 1934TIP3    H2 5767   5.697   0.836   4.838
 1935TIP3   OH2 5768   4.266   2.231   4.020
 1935TIP3    H1 5769   4.200   2.259   4.083
 1935TIP3    H2 5770   4.303   2.151   4.058
 1936TIP3   OH2 5771   6.178   4.967   4.095
 1936TIP3    H1 5772   6.158   5.057   4.121
 1936TIP3    H2 5773   6.223   4.975   4.011
 1937TIP3   OH2 5774   5.476   1.909   2.619
 1937TIP3    H1 5775   5.465   1.956   2.537
 1937TIP3    H2 5776   5.459   1.817   2.597
 1938TIP3   OH2 5777   3.646   2.885   1.013
 1938TIP3    H1 5778   3.642   2.809   1.070
 1938TIP3    H2 5779   3.688   2.953   1.066
 1939TIP3   OH2 5780   1.498   3.731   3.631
 1939TIP3    H1 5781   1.520   3.656   3.686
 1939TIP3    H2 5782   1.441   3.785   3.685
 1940TIP3   OH2 5783   4.507   4.477   5.184
 1940TIP3    H1 5784   4.570   4.426   5.235
 1940TIP3    H2 5785   4.487   4.422   5.108
 1941TIP3   OH2 5786   4.898   6.541   1.625
 1941TIP3    H1 5787   4.938   6.581   1.702
 1941TIP3    H2 5788   4.963   6.551   1.556
 1942TIP3   OH2 5789   7.145   2.775   5.454
 1942TIP3    H1 5790   7.160   2.680   5.460
 1942TIP3    H2 5791   7.069   2.790   5.511
 1943TIP3   OH2 5792   1.906   6.787   3.166
 1943TIP3    H1 5793   1.826   6.789   3.114
 1943TIP3    H2 5794   1.920   6.694   3.184
 1944TIP3   OH2 5795   5.265   4.599   3.327
 1944TIP3    H1 5796   5.338   4.537   3.322
 1944TIP3    H2 5797   5.279   4.658   3.253
 1945TIP3   OH2 5798   3.153   4.103   4.821
 1945TIP3    H1 5799   3.094   4.130   4.751
 1945TIP3    H2 5800   3.112   4.026   4.859
 1946TIP3   OH2 5801   2.081   3.437   3.842
 1946TIP3    H1 5802   2.118   3.428   3.930
 1946TIP3    H2 5803   2.032   3.356   3.829
 1947TIP3   OH2 5804   4.287   2.803   2.721
 1947TIP3    H1 5805   4.210   2.833   2.673
 1947TIP3    H2 5806   4.290   2.857   2.800
 1948TIP3   OH2 5807   3.956   6.676   4.685
 1948TIP3    H1 5808   3.987   6.723   4.763
 1948TIP3    H2 5809   4.002   6.592   4.687
 1949TIP3   OH2 5810   6.863   1.877   1.359
 1949TIP3    H1 5811   6.843   1.940   1.428
 1949TIP3    H2 5812   6.905   1.929   1.290
 1950TIP3   OH2 5813   5.244   6.756   2.312
 1950TIP3    H1 5814   5.164   6.735   2.361
 1950TIP3    H2 5815   5.314   6.713   2.362
 1951TIP3   OH2 5816   1.287   0.967   5.191
 1951TIP3    H1 5817   1.345   1.040   5.167
 1951TIP3    H2 5818   1.256   0.933   5.107
 1952TIP3   OH2 5819   4.952   4.148   5.797
 1952TIP3    H1 5820   4.867   4.141   5.754
 1952TIP3    H2 5821   4.961   4.240   5.820
 1953TIP3   OH2 5822   0.074   0.092   0.043
 1953TIP3    H1 5823   0.148   0.084   0.104
 1953TIP3    H2 5824   0.001   0.052   0.090
 1954TIP3   OH2 5825   6.986   3.085   2.060
 1954TIP3    H1 5826   6.959   2.993   2.050
 1954TIP3    H2 5827   7.080   3.081   2.072
 1955TIP3   OH2 5828   0.835   1.075   5.058
 1955TIP3    H1 5829   0.792   1.103   5.139
 1955TIP3    H2 5830   0.923   1.110   5.064
 1956TIP3   OH2 5831   6.978   3.425   1.349
 1956TIP3    H1 5832   7.058   3.401   1.396
 1956TIP3    H2 5833   6.943   3.500   1.398
 1957TIP3   OH2 5834   2.715   4.850   5.428
 1957TIP3    H1 5835   2.797   4.801   5.417
 1957TIP3    H2 5836   2.647   4.791   5.395
 1958TIP3   OH2 5837   5.924   5.125   3.161
 1958TIP3    H1 5838   5.890   5.207   3.125
 1958TIP3    H2 5839   5.939   5.070   3.084
 1959TIP3   OH2 5840   3.264   0.388   3.600
 1959TIP3    H1 5841   3.196   0.448   3.569
 1959TIP3    H2 5842   3.221   0.303   3.604
 1960TIP3   OH2 5843   6.919   5.604   0.603
 1960TIP3    H1 5844   6.903   5.632   0.513
 1960TIP3    H2 5845   6.883   5.675   0.657
 1961TIP3   OH2 5846   3.001   2.231   3.549
 1961TIP3    H1 5847   2.987   2.325   3.554
 1961TIP3    H2 5848   3.046   2.217   3.465
 1962TIP3   OH2 5849   6.060   2.547   4.359
 1962TIP3    H1 5850   6.063   2.589   4.273
 1962TIP3    H2 5851   6.020   2.611   4.416
 1963TIP3   OH2 5852   5.428   3.935   3.197
 1963TIP3    H1 5853   5.464   3.951   3.284
 1963TIP3    H2 5854   5.364   4.006   3.184
 1964TIP3   OH2 5855   1.647   1.831   3.315
 1964TIP3    H1 5856   1.639   1.899   3.248
 1964TIP3    H2 5857   1.624   1.874   3.397
 1965TIP3   OH2 5858   4.847   6.009   4.141
 1965TIP3    H1 5859   4.940   6.033   4.140
 1965TIP3    H2 5860   4.804   6.079   4.092
 1966TIP3   OH2 5861   2.789   6.793   2.009
 1966TIP3    H1 5862   2.770   6.786   2.102
 1966TIP3    H2 5863   2.711   6.756   1.966
 1967TIP3   OH2 5864   2.054   6.142   1.825
 1967TIP3    H1 5865   2.005   6.067   1.790
 1967TIP3    H2 5866   2.136   6.104   1.857
 1968TIP3   OH2 5867   1.064   6.417   1.423
 1968TIP3    H1 5868   1.155   6.446   1.431
 1968TIP3    H2 5869   1.062   6.332   1.466
 1969TIP3   OH2 5870   5.078   1.527   4.308
 1969TIP3    H1 5871   5.061   1.453   4.250
 1969TIP3    H2 5872   4.994   1.571   4.316
 1970TIP3   OH2 5873   5.039   2.742   5.093
 1970TIP3    H1 5874   5.039   2.646   5.088
 1970TIP3    H2 5875   4.999   2.761   5.177
 1971TIP3   OH2 5876   0.982   0.000   4.586
 1971TIP3    H1 5877   0.966   0.026   4.677
 1971TIP3    H2 5878   0.996   0.082   4.539
 1972TIP3   OH2 5879   3.750   3.503   0.772
 1972TIP3    H1 5880   3.793   3.515   0.687
 1972TIP3    H2 5881   3.761   3.588   0.816
 1973TIP3   OH2 5882   0.890   5.910   2.499
 1973TIP3    H1 5883   0.880   5.864   2.582
 1973TIP3    H2 5884   0.953   5.856   2.450
 1974TIP3   OH2 5885   3.919   5.384   5.313
 1974TIP3    H1 5886   3.947   5.308   5.263
 1974TIP3    H2 5887   3.880   5.443   5.248
 1975TIP3   OH2 5888   3.503   4.317   3.077
 1975TIP3    H1 5889   3.417   4.337   3.039
 1975TIP3    H2 5890   3.484   4.254   3.147
 1976TIP3   OH2 5891   3.048   0.745   4.510
 1976TIP3    H1 5892   3.017   0.655   4.498
 1976TIP3    H2 5893   2.985   0.783   4.571
 1977TIP3   OH2 5894   4.693   3.868   0.579
 1977TIP3    H1 5895   4.667   3.950   0.537
 1977TIP3    H2 5896   4.780   3.887   0.616
 1978TIP3   OH2 5897   5.068   1.490   5.395
 1978TIP3    H1 5898   5.008   1.421   5.364
 1978TIP3    H2 5899   5.013   1.546   5.450
 1979TIP3   OH2 5900   3.513   6.415   2.588
 1979TIP3    H1 5901   3.605   6.391   2.598
 1979TIP3    H2 5902   3.475   6.402   2.675
 1980TIP3   OH2 5903   5.583   0.985   1.320
 1980TIP3    H1 5904   5.582   0.928   1.398
 1980TIP3    H2 5905   5.544   0.932   1.251
 1981TIP3   OH2 5906   1.604   0.038   3.510
 1981TIP3    H1 5907   1.515   0.064   3.490
 1981TIP3    H2 5908   1.648   0.033   3.426
 1982TIP3   OH2 5909   3.677   1.760   1.025
 1982TIP3    H1 5910   3.612   1.823   0.994
 1982TIP3    H2 5911   3.747   1.765   0.961
 1983TIP3   OH2 5912   3.907   3.185   1.614
 1983TIP3    H1 5913   3.874   3.252   1.554
 1983TIP3    H2 5914   3.997   3.171   1.586
 1984TIP3   OH2 5915   3.068   2.891   2.101
 1984TIP3    H1 5916   3.164   2.897   2.103
 1984TIP3    H2 5917   3.043   2.881   2.193
 1985TIP3   OH2 5918   7.121   3.724   0.259
 1985TIP3    H1 5919   7.054   3.790   0.239
 1985TIP3    H2 5920   7.199   3.775   0.282
 1986TIP3   OH2 5921   3.729   1.569   0.412
 1986TIP3    H1 5922   3.713   1.635   0.480
 1986TIP3    H2 5923   3.791   1.508   0.452
 1987TIP3   OH2 5924   6.692   2.783   5.592
 1987TIP3    H1 5925   6.695   2.795   5.687
 1987TIP3    H2 5926   6.601   2.798   5.569
 1988TIP3   OH2 5927   0.593   5.704   4.166
 1988TIP3    H1 5928   0.522   5.651   4.203
 1988TIP3    H2 5929   0.669   5.683   4.221
 1989TIP3   OH2 5930   1.455   0.553   3.300
 1989TIP3    H1 5931   1.387   0.486   3.303
 1989TIP3    H2 5932   1.473   0.564   3.206
 1990TIP3   OH2 5933   1.170   5.705   3.680
 1990TIP3    H1 5934   1.204   5.706   3.769
 1990TIP3    H2 5935   1.078   5.730   3.688
 1991TIP3   OH2 5936   4.412   0.669   4.126
 1991TIP3    H1 5937   4.335   0.613   4.117
 1991TIP3    H2 5938   4.486   0.609   4.120
 1992TIP3   OH2 5939   6.202   5.747   2.416
 1992TIP3    H1 5940   6.233   5.669   2.461
 1992TIP3    H2 5941   6.118   5.722   2.378
 1993TIP3   OH2 5942   0.696   4.517   1.176
 1993TIP3    H1 5943   0.618   4.461   1.175
 1993TIP3    H2 5944   0.677   4.582   1.244
 1994TIP3   OH2 5945   5.720   6.564   1.763
 1994TIP3    H1 5946   5.809   6.528   1.767
 1994TIP3    H2 5947   5.719   6.632   1.830
 1995TIP3   OH2 5948   4.968   5.805   5.158
 1995TIP3    H1 5949   5.039   5.870   5.159
 1995TIP3    H2 5950   4.920   5.820   5.239
 1996TIP3   OH2 5951   1.249   3.725   5.667
 1996TIP3    H1 5952   1.225   3.652   5.724
 1996TIP3    H2 5953   1.167   3.773   5.653
 1997TIP3   OH2 5954   1.659   6.225   2.979
 1997TIP3    H1 5955   1.640   6.220   2.886
 1997TIP3    H2 5956   1.669   6.318   2.998
 1998TIP3   OH2 5957   0.079   4.647   3.925
 1998TIP3    H1 5958   0.098   4.618   4.014
 1998TIP3    H2 5959   0.011   4.714   3.935
 1999TIP3   OH2 5960   6.307   4.600   5.433
 1999TIP3    H1 5961   6.396   4.635   5.428
 1999TIP3    H2 5962   6.272   4.612   5.344
 2000TIP3   OH2 5963   5.131   6.255   0.221
 2000TIP3    H1 5964   5.053   6.288   0.265
 2000TIP3    H2 5965   5.125   6.291   0.132
 2001TIP3   OH2 5966   2.255   2.695   2.415
 2001TIP3    H1 5967   2.291   2.608   2.431
 2001TIP3    H2 5968   2.269   2.710   2.321
 2002TIP3   OH2 5969   2.333   6.357   1.740
 2002TIP3    H1 5970   2.371   6.299   1.674
 2002TIP3    H2 5971   2.240   6.361   1.717
 2003TIP3   OH2 5972   4.062   0.326   5.656
 2003TIP3    H1 5973   4.012   0.299   5.579
 2003TIP3    H2 5974   4.145   0.358   5.621
 2004TIP3   OH2 5975   5.294   2.747   4.141
 2004TIP3    H1 5976   5.346   2.669   4.119
 2004TIP3    H2 5977   5.348   2.820   4.113
 2005TIP3   OH2 5978   4.510   4.469   2.377
 2005TIP3    H1 5979   4.548   4.518   2.451
 2005TIP3    H2 5980   4.582   4.414   2.345
 2006TIP3   OH2 5981   4.904   1.862   5.842
 2006TIP3    H1 5982   4.979   1.811   5.871
 2006TIP3    H2 5983   4.941   1.947   5.818
 2007TIP3   OH2 5984   0.461   3.664   3.151
 2007TIP3    H1 5985   0.412   3.622   3.081
 2007TIP3    H2 5986   0.481   3.593   3.212
 2008TIP3   OH2 5987   2.168   5.602   5.086
 2008TIP3    H1 5988   2.199   5.541   5.020
 2008TIP3    H2 5989   2.245   5.652   5.112
 2009TIP3   OH2 5990   1.435   0.450   1.445
 2009TIP3    H1 5991   1.474   0.398   1.515
 2009TIP3    H2 5992   1.450   0.541   1.471
 2010TIP3   OH2 5993   1.485   5.851   2.381
 2010TIP3    H1 5994   1.527   5.774   2.344
 2010TIP3    H2 5995   1.418   5.876   2.316
 2011TIP3   OH2 5996   2.580   5.145   5.172
 2011TIP3    H1 5997   2.648   5.078   5.184
 2011TIP3    H2 5998   2.617   5.224   5.211
 2012TIP3   OH2 5999   1.723   1.194   4.925
 2012TIP3    H1 6000   1.796   1.256   4.917
 2012TIP3    H2 6001   1.760   1.122   4.977
 2013TIP3   OH2 6002   1.740   6.492   2.708
 2013TIP3    H1 6003   1.759   6.524   2.620
 2013TIP3    H2 6004   1.798   6.417   2.720
 2014TIP3   OH2 6005   1.844   1.412   3.620
 2014TIP3    H1 6006   1.821   1.454   3.703
 2014TIP3    H2 6007   1.898   1.337   3.646
 2015TIP3   OH2 6008   6.057   4.767   1.481
 2015TIP3    H1 6009   5.991   4.836   1.488
 2015TIP3    H2 6010   6.007   4.686   1.478
 2016TIP3   OH2 6011   5.499   5.653   5.550
 2016TIP3    H1 6012   5.485   5.561   5.528
 2016TIP3    H2 6013   5.439   5.701   5.493
 2017TIP3   OH2 6014   4.284   6.550   3.608
 2017TIP3    H1 6015   4.240   6.481   3.559
 2017TIP3    H2 6016   4.357   6.577   3.552
 2018TIP3   OH2 6017   0.576   3.777   4.162
 2018TIP3    H1 6018   0.600   3.781   4.255
 2018TIP3    H2 6019   0.481   3.787   4.163
 2019TIP3   OH2 6020   0.780   1.060   4.801
 2019TIP3    H1 6021   0.839   1.129   4.771
 2019TIP3    H2 6022   0.787   1.061   4.896
 2020TIP3   OH2 6023   2.212   1.873   3.287
 2020TIP3    H1 6024   2.209   1.953   3.234
 2020TIP3    H2 6025   2.304   1.850   3.292
 2021TIP3   OH2 6026   4.033   6.168   0.624
 2021TIP3    H1 6027   4.038   6.073   0.620
 2021TIP3    H2 6028   3.961   6.191   0.565
 2022TIP3   OH2 6029   4.677   3.398   0.026
 2022TIP3    H1 6030   4.680   3.454  -0.052
 2022TIP3    H2 6031   4.588   3.408   0.060
 2023TIP3   OH2 6032   2.567   0.315   2.134
 2023TIP3    H1 6033   2.560   0.402   2.096
 2023TIP3    H2 6034   2.645   0.318   2.188
 2024TIP3   OH2 6035   6.574   0.320   3.378
 2024TIP3    H1 6036   6.646   0.368   3.418
 2024TIP3    H2 6037   6.603   0.229   3.377
 2025TIP3   OH2 6038   0.987   3.809   5.647
 2025TIP3    H1 6039   0.925   3.878   5.625
 2025TIP3    H2 6040   0.933   3.736   5.677
 2026TIP3   OH2 6041   0.744   0.066   1.181
 2026TIP3    H1 6042   0.815   0.053   1.244
 2026TIP3    H2 6043   0.684  -0.007   1.196
 2027TIP3   OH2 6044   3.593   3.204   2.031
 2027TIP3    H1 6045   3.541   3.280   2.053
 2027TIP3    H2 6046   3.679   3.239   2.009
 2028TIP3   OH2 6047   3.617   3.533   4.308
 2028TIP3    H1 6048   3.532   3.510   4.271
 2028TIP3    H2 6049   3.669   3.563   4.233
 2029TIP3   OH2 6050   3.458   1.480   4.685
 2029TIP3    H1 6051   3.376   1.526   4.667
 2029TIP3    H2 6052   3.449   1.449   4.775
 2030TIP3   OH2 6053   4.824   1.624   1.584
 2030TIP3    H1 6054   4.821   1.605   1.677
 2030TIP3    H2 6055   4.897   1.686   1.575
 2031TIP3   OH2 6056   2.436   0.807   2.722
 2031TIP3    H1 6057   2.423   0.775   2.812
 2031TIP3    H2 6058   2.421   0.730   2.667
 2032TIP3   OH2 6059   4.254   5.016   4.201
 2032TIP3    H1 6060   4.306   4.973   4.133
 2032TIP3    H2 6061   4.287   4.980   4.283
 2033TIP3   OH2 6062   0.137   4.631   3.472
 2033TIP3    H1 6063   0.150   4.536   3.474
 2033TIP3    H2 6064   0.055   4.643   3.424
 2034TIP3   OH2 6065   4.800   1.724   0.007
 2034TIP3    H1 6066   4.801   1.631   0.028
 2034TIP3    H2 6067   4.747   1.730  -0.073
 2035TIP3   OH2 6068   1.931   3.784   1.255
 2035TIP3    H1 6069   1.957   3.743   1.337
 2035TIP3    H2 6070   1.899   3.711   1.201
 2036TIP3   OH2 6071   0.694   1.889   2.950
 2036TIP3    H1 6072   0.625   1.860   2.891
 2036TIP3    H2 6073   0.678   1.840   3.031
 2037TIP3   OH2 6074   2.184   5.116   0.744
 2037TIP3    H1 6075   2.127   5.191   0.761
 2037TIP3    H2 6076   2.258   5.152   0.696
 2038TIP3   OH2 6077   6.684   0.892   5.276
 2038TIP3    H1 6078   6.768   0.938   5.271
 2038TIP3    H2 6079   6.706   0.801   5.257
 2039TIP3   OH2 6080   6.242   0.852   5.606
 2039TIP3    H1 6081   6.308   0.801   5.559
 2039TIP3    H2 6082   6.164   0.798   5.604
 2040TIP3   OH2 6083   1.149   2.556   4.540
 2040TIP3    H1 6084   1.059   2.563   4.573
 2040TIP3    H2 6085   1.202   2.599   4.606
 2041TIP3   OH2 6086   1.608   0.069   1.244
 2041TIP3    H1 6087   1.695   0.044   1.274
 2041TIP3    H2 6088   1.606   0.164   1.253
 2042TIP3   OH2 6089   3.971   6.089   2.103
 2042TIP3    H1 6090   4.048   6.033   2.105
 2042TIP3    H2 6091   3.978   6.136   2.019
 2043TIP3   OH2 6092   0.815   4.294   2.094
 2043TIP3    H1 6093   0.787   4.363   2.034
 2043TIP3    H2 6094   0.747   4.292   2.162
 2044TIP3   OH2 6095   2.125   3.513   1.282
 2044TIP3    H1 6096   2.203   3.461   1.259
 2044TIP3    H2 6097   2.052   3.452   1.272
 2045TIP3   OH2 6098   1.136   5.107   0.313
 2045TIP3    H1 6099   1.167   5.195   0.331
 2045TIP3    H2 6100   1.042   5.115   0.302
 2046TIP3   OH2 6101   5.759   0.675   1.232
 2046TIP3    H1 6102   5.739   0.596   1.182
 2046TIP3    H2 6103   5.721   0.659   1.319
 2047TIP3   OH2 6104   2.332   5.571   4.304
 2047TIP3    H1 6105   2.423   5.568   4.274
 2047TIP3    H2 6106   2.324   5.655   4.348
 2048TIP3   OH2 6107   1.803   5.443   1.060
 2048TIP3    H1 6108   1.742   5.414   0.991
 2048TIP3    H2 6109   1.787   5.383   1.133
 2049TIP3   OH2 6110   6.429   2.880   5.541
 2049TIP3    H1 6111   6.449   2.962   5.496
 2049TIP3    H2 6112   6.342   2.855   5.509
 2050TIP3   OH2 6113   5.189   0.668   2.079
 2050TIP3    H1 6114   5.222   0.601   2.138
 2050TIP3    H2 6115   5.232   0.651   1.995
 2051TIP3   OH2 6116   1.417   0.966   2.374
 2051TIP3    H1 6117   1.406   0.872   2.387
 2051TIP3    H2 6118   1.381   1.005   2.453
 2052TIP3   OH2 6119   0.539   0.970   4.113
 2052TIP3    H1 6120   0.476   1.014   4.170
 2052TIP3    H2 6121   0.506   0.987   4.024
 2053TIP3   OH2 6122   0.199   6.687   2.867
 2053TIP3    H1 6123   0.120   6.733   2.894
 2053TIP3    H2 6124   0.189   6.674   2.772
 2054TIP3   OH2 6125   4.784   2.082   0.563
 2054TIP3    H1 6126   4.828   2.138   0.626
 2054TIP3    H2 6127   4.691   2.103   0.572
 2055TIP3   OH2 6128   2.215   6.527   0.072
 2055TIP3    H1 6129   2.278   6.489   0.133
 2055TIP3    H2 6130   2.207   6.462   0.002
 2056TIP3   OH2 6131   6.022   1.393   0.124
 2056TIP3    H1 6132   5.992   1.370   0.036
 2056TIP3    H2 6133   5.942   1.414   0.172
 2057TIP3   OH2 6134   2.763   6.396   0.851
 2057TIP3    H1 6135   2.850   6.362   0.829
 2057TIP3    H2 6136   2.765   6.405   0.946
 2058TIP3   OH2 6137   3.458   2.874   1.575
 2058TIP3    H1 6138   3.511   2.944   1.614
 2058TIP3    H2 6139   3.467   2.887   1.480
 2059TIP3   OH2 6140   2.789   3.217   2.668
 2059TIP3    H1 6141   2.763   3.304   2.636
 2059TIP3    H2 6142   2.736   3.204   2.747
 2060TIP3   OH2 6143   1.903   6.444   3.543
 2060TIP3    H1 6144   1.913   6.535   3.515
 2060TIP3    H2 6145   1.965   6.435   3.616
 2061TIP3   OH2 6146   7.181   5.922   5.791
 2061TIP3    H1 6147   7.159   5.874   5.871
 2061TIP3    H2 6148   7.107   5.982   5.778
 2062TIP3   OH2 6149   1.599   1.067   4.330
 2062TIP3    H1 6150   1.544   1.026   4.398
 2062TIP3    H2 6151   1.571   1.159   4.330
 2063TIP3   OH2 6152   0.842   4.089   3.810
 2063TIP3    H1 6153   0.772   4.133   3.762
 2063TIP3    H2 6154   0.838   3.998   3.780
 2064TIP3   OH2 6155   6.485   3.310   2.632
 2064TIP3    H1 6156   6.429   3.276   2.702
 2064TIP3    H2 6157   6.548   3.366   2.677
 2065TIP3   OH2 6158   1.535   3.921   0.186
 2065TIP3    H1 6159   1.455   3.955   0.226
 2065TIP3    H2 6160   1.543   3.968   0.104
 2066TIP3   OH2 6161   5.760   5.505   1.390
 2066TIP3    H1 6162   5.686   5.487   1.449
 2066TIP3    H2 6163   5.806   5.578   1.430
 2067TIP3   OH2 6164   4.028   6.667   3.750
 2067TIP3    H1 6165   3.980   6.605   3.805
 2067TIP3    H2 6166   4.110   6.623   3.729
 2068TIP3   OH2 6167   5.986   4.130   1.740
 2068TIP3    H1 6168   5.998   4.178   1.658
 2068TIP3    H2 6169   5.891   4.126   1.752
 2069TIP3   OH2 6170   5.079   0.579   3.775
 2069TIP3    H1 6171   4.996   0.602   3.817
 2069TIP3    H2 6172   5.058   0.570   3.682
 2070TIP3   OH2 6173   1.329   5.510   4.756
 2070TIP3    H1 6174   1.281   5.488   4.836
 2070TIP3    H2 6175   1.262   5.524   4.690
 2071TIP3   OH2 6176   5.361   0.967   2.067
 2071TIP3    H1 6177   5.436   0.909   2.073
 2071TIP3    H2 6178   5.393   1.051   2.100
 2072TIP3   OH2 6179   2.551   0.134   4.609
 2072TIP3    H1 6180   2.526   0.154   4.699
 2072TIP3    H2 6181   2.481   0.078   4.576
 2073TIP3   OH2 6182   5.013   1.448   1.288
 2073TIP3    H1 6183   4.947   1.407   1.344
 2073TIP3    H2 6184   4.962   1.499   1.225
 2074TIP3   OH2 6185   6.481   6.577   2.752
 2074TIP3    H1 6186   6.496   6.484   2.736
 2074TIP3    H2 6187   6.569   6.614   2.763
 2075TIP3   OH2 6188   0.170   3.979   3.773
 2075TIP3    H1 6189   0.186   4.063   3.815
 2075TIP3    H2 6190   0.134   4.001   3.687
 2076TIP3   OH2 6191   0.096   2.867   3.869
 2076TIP3    H1 6192   0.184   2.831   3.879
 2076TIP3    H2 6193   0.039   2.789   3.865
 2077TIP3   OH2 6194   4.100   2.261   1.556
 2077TIP3    H1 6195   4.065   2.333   1.502
 2077TIP3    H2 6196   4.022   2.220   1.593
 2078TIP3   OH2 6197   3.594   4.706   5.616
 2078TIP3    H1 6198   3.605   4.691   5.710
 2078TIP3    H2 6199   3.560   4.796   5.610
 2079TIP3   OH2 6200   4.816   2.171   2.564
 2079TIP3    H1 6201   4.760   2.112   2.615
 2079TIP3    H2 6202   4.779   2.169   2.476
 2080TIP3   OH2 6203   5.183   6.579   5.684
 2080TIP3    H1 6204   5.103   6.536   5.655
 2080TIP3    H2 6205   5.167   6.672   5.669
 2081TIP3   OH2 6206   6.304   3.599   4.239
 2081TIP3    H1 6207   6.219   3.642   4.250
 2081TIP3    H2 6208   6.359   3.635   4.309
 2082TIP3   OH2 6209   5.679   1.214   0.330
 2082TIP3    H1 6210   5.666   1.122   0.306
 2082TIP3    H2 6211   5.773   1.226   0.330
 2083TIP3   OH2 6212   3.567   4.544   2.594
 2083TIP3    H1 6213   3.633   4.573   2.532
 2083TIP3    H2 6214   3.483   4.556   2.549
 2084TIP3   OH2 6215   5.147   3.245   3.654
 2084TIP3    H1 6216   5.068   3.243   3.600
 2084TIP3    H2 6217   5.143   3.330   3.699
 2085TIP3   OH2 6218   4.202   3.360   0.393
 2085TIP3    H1 6219   4.236   3.315   0.315
 2085TIP3    H2 6220   4.107   3.345   0.390
 2086TIP3   OH2 6221   6.935   3.125   0.462
 2086TIP3    H1 6222   6.881   3.057   0.422
 2086TIP3    H2 6223   6.958   3.091   0.548
 2087TIP3   OH2 6224   3.465   1.463   2.145
 2087TIP3    H1 6225   3.425   1.511   2.073
 2087TIP3    H2 6226   3.394   1.449   2.207
 2088TIP3   OH2 6227   1.362   2.934   5.371
 2088TIP3    H1 6228   1.370   2.849   5.329
 2088TIP3    H2 6229   1.275   2.965   5.346
 2089TIP3   OH2 6230   5.393   5.017   0.048
 2089TIP3    H1 6231   5.317   4.987  -0.003
 2089TIP3    H2 6232   5.453   4.943   0.046
 2090TIP3   OH2 6233   2.328   6.855   5.751
 2090TIP3    H1 6234   2.288   6.914   5.815
 2090TIP3    H2 6235   2.325   6.769   5.793
 2091TIP3   OH2 6236   2.365   6.596   4.053
 2091TIP3    H1 6237   2.289   6.639   4.013
 2091TIP3    H2 6238   2.334   6.569   4.140
 2092TIP3   OH2 6239   3.817   0.532   1.576
 2092TIP3    H1 6240   3.882   0.578   1.630
 2092TIP3    H2 6241   3.865   0.457   1.540
 2093TIP3   OH2 6242   4.326   1.726   5.348
 2093TIP3    H1 6243   4.396   1.740   5.285
 2093TIP3    H2 6244   4.348   1.643   5.390
 2094TIP3   OH2 6245   3.919   6.580   0.803
 2094TIP3    H1 6246   3.993   6.536   0.761
 2094TIP3    H2 6247   3.842   6.539   0.764
 2095TIP3   OH2 6248   2.028   2.026   5.104
 2095TIP3    H1 6249   2.048   2.098   5.045
 2095TIP3    H2 6250   1.949   2.054   5.150
 2096TIP3   OH2 6251   0.930   0.849   5.804
 2096TIP3    H1 6252   1.017   0.865   5.768
 2096TIP3    H2 6253   0.900   0.769   5.760
 2097TIP3   OH2 6254   3.895   6.342   1.786
 2097TIP3    H1 6255   3.970   6.289   1.810
 2097TIP3    H2 6256   3.861   6.301   1.706
 2098TIP3   OH2 6257   5.230   2.583   2.323
 2098TIP3    H1 6258   5.209   2.659   2.270
 2098TIP3    H2 6259   5.146   2.538   2.335
 2099TIP3   OH2 6260   4.931   0.649   2.892
 2099TIP3    H1 6261   5.002   0.586   2.882
 2099TIP3    H2 6262   4.887   0.625   2.973
 2100TIP3   OH2 6263   1.078   1.059   0.814
 2100TIP3    H1 6264   1.133   0.984   0.838
 2100TIP3    H2 6265   1.140   1.126   0.786
 2101TIP3   OH2 6266   6.238   4.741   0.455
 2101TIP3    H1 6267   6.297   4.735   0.530
 2101TIP3    H2 6268   6.153   4.715   0.490
 2102TIP3   OH2 6269   5.478   3.171   4.674
 2102TIP3    H1 6270   5.468   3.080   4.701
 2102TIP3    H2 6271   5.525   3.212   4.747
 2103TIP3   OH2 6272   5.439   6.338   5.259
 2103TIP3    H1 6273   5.451   6.433   5.253
 2103TIP3    H2 6274   5.498   6.311   5.329
 2104TIP3   OH2 6275   0.638   2.407   4.332
 2104TIP3    H1 6276   0.610   2.498   4.334
 2104TIP3    H2 6277   0.733   2.411   4.343
 2105TIP3   OH2 6278   5.321   2.550   4.961
 2105TIP3    H1 6279   5.318   2.645   4.959
 2105TIP3    H2 6280   5.246   2.525   5.015
 2106TIP3   OH2 6281   2.357   6.280   3.222
 2106TIP3    H1 6282   2.274   6.326   3.215
 2106TIP3    H2 6283   2.408   6.308   3.146
 2107TIP3   OH2 6284   3.518   1.758   1.618
 2107TIP3    H1 6285   3.561   1.840   1.641
 2107TIP3    H2 6286   3.569   1.691   1.664
 2108TIP3   OH2 6287   0.671   2.190   1.203
 2108TIP3    H1 6288   0.605   2.242   1.249
 2108TIP3    H2 6289   0.649   2.100   1.226
 2109TIP3   OH2 6290   4.431   4.265   2.578
 2109TIP3    H1 6291   4.508   4.298   2.625
 2109TIP3    H2 6292   4.436   4.308   2.493
 2110TIP3   OH2 6293   1.530   5.558   2.654
 2110TIP3    H1 6294   1.535   5.653   2.660
 2110TIP3    H2 6295   1.603   5.527   2.707
 2111TIP3   OH2 6296   6.227   4.242   5.282
 2111TIP3    H1 6297   6.191   4.328   5.303
 2111TIP3    H2 6298   6.273   4.255   5.200
 2112TIP3   OH2 6299   1.247   0.133   2.547
 2112TIP3    H1 6300   1.287   0.191   2.482
 2112TIP3    H2 6301   1.158   0.168   2.558
 2113TIP3   OH2 6302   3.024   2.846   1.839
 2113TIP3    H1 6303   3.059   2.857   1.927
 2113TIP3    H2 6304   3.100   2.821   1.786
 2114TIP3   OH2 6305   0.299   3.859   0.711
 2114TIP3    H1 6306   0.352   3.793   0.756
 2114TIP3    H2 6307   0.363   3.922   0.678
 2115TIP3   OH2 6308   5.560   5.725   3.147
 2115TIP3    H1 6309   5.640   5.723   3.199
 2115TIP3    H2 6310   5.571   5.800   3.089
 2116TIP3   OH2 6311   3.736   4.669   1.934
 2116TIP3    H1 6312   3.769   4.743   1.985
 2116TIP3    H2 6313   3.728   4.598   1.997
 2117TIP3   OH2 6314   0.184   2.198   5.801
 2117TIP3    H1 6315   0.214   2.122   5.750
 2117TIP3    H2 6316   0.146   2.160   5.880
 2118TIP3   OH2 6317   0.163   5.416   2.692
 2118TIP3    H1 6318   0.204   5.329   2.684
 2118TIP3    H2 6319   0.181   5.442   2.782
 2119TIP3   OH2 6320   6.329   5.367   2.249
 2119TIP3    H1 6321   6.346   5.289   2.196
 2119TIP3    H2 6322   6.286   5.428   2.189
 2120TIP3   OH2 6323   2.654   4.135   5.882
 2120TIP3    H1 6324   2.657   4.060   5.942
 2120TIP3    H2 6325   2.562   4.145   5.861
 2121TIP3   OH2 6326   0.361   2.720   1.760
 2121TIP3    H1 6327   0.408   2.653   1.710
 2121TIP3    H2 6328   0.394   2.712   1.849
 2122TIP3   OH2 6329   4.785   3.429   1.562
 2122TIP3    H1 6330   4.743   3.447   1.478
 2122TIP3    H2 6331   4.872   3.469   1.555
 2123TIP3   OH2 6332   1.563   6.258   5.243
 2123TIP3    H1 6333   1.571   6.208   5.162
 2123TIP3    H2 6334   1.606   6.203   5.309
 2124TIP3   OH2 6335   4.228   0.185   0.874
 2124TIP3    H1 6336   4.313   0.220   0.901
 2124TIP3    H2 6337   4.193   0.252   0.814
 2125TIP3   OH2 6338   6.615   2.563   2.935
 2125TIP3    H1 6339   6.686   2.611   2.891
 2125TIP3    H2 6340   6.653   2.537   3.019
 2126TIP3   OH2 6341   5.232   4.893   3.539
 2126TIP3    H1 6342   5.288   4.901   3.462
 2126TIP3    H2 6343   5.189   4.978   3.547
 2127TIP3   OH2 6344   2.239   4.366   1.610
 2127TIP3    H1 6345   2.173   4.331   1.669
 2127TIP3    H2 6346   2.321   4.358   1.659
 2128TIP3   OH2 6347   5.412   1.687   2.259
 2128TIP3    H1 6348   5.325   1.725   2.246
 2128TIP3    H2 6349   5.406   1.599   2.220
 2129TIP3   OH2 6350   4.991   5.987   1.058
 2129TIP3    H1 6351   5.044   6.052   1.011
 2129TIP3    H2 6352   4.901   6.008   1.033
 2130TIP3   OH2 6353   0.528   3.924   2.788
 2130TIP3    H1 6354   0.521   3.836   2.824
 2130TIP3    H2 6355   0.592   3.968   2.844
 2131TIP3   OH2 6356   0.031   2.380   2.448
 2131TIP3    H1 6357  -0.012   2.423   2.374
 2131TIP3    H2 6358   0.111   2.342   2.410
 2132TIP3   OH2 6359   1.548   0.825   0.100
 2132TIP3    H1 6360   1.539   0.804   0.193
 2132TIP3    H2 6361   1.553   0.739   0.057
 2133TIP3   OH2 6362   5.692   4.783   0.461
 2133TIP3    H1 6363   5.639   4.855   0.495
 2133TIP3    H2 6364   5.688   4.716   0.529
 2134TIP3   OH2 6365   2.179   4.272   0.252
 2134TIP3    H1 6366   2.090   4.296   0.279
 2134TIP3    H2 6367   2.167   4.232   0.166
 2135TIP3   OH2 6368   1.596   2.770   0.375
 2135TIP3    H1 6369   1.688   2.777   0.349
 2135TIP3    H2 6370   1.559   2.706   0.313
 2136TIP3   OH2 6371   1.736   6.499   2.978
 2136TIP3    H1 6372   1.723   6.509   2.884
 2136TIP3    H2 6373   1.715   6.585   3.015
 2137TIP3   OH2 6374   2.393   2.853   3.028
 2137TIP3    H1 6375   2.391   2.937   2.982
 2137TIP3    H2 6376   2.474   2.811   2.998
 2138TIP3   OH2 6377   4.114   1.911   2.255
 2138TIP3    H1 6378   4.020   1.899   2.261
 2138TIP3    H2 6379   4.149   1.822   2.251
 2139TIP3   OH2 6380   4.183   3.589   0.594
 2139TIP3    H1 6381   4.171   3.518   0.531
 2139TIP3    H2 6382   4.265   3.568   0.638
 2140TIP3   OH2 6383   5.086   4.633   2.188
 2140TIP3    H1 6384   5.081   4.671   2.100
 2140TIP3    H2 6385   4.995   4.624   2.215
 2141TIP3   OH2 6386   5.277   3.686   1.558
 2141TIP3    H1 6387   5.285   3.638   1.641
 2141TIP3    H2 6388   5.314   3.772   1.576
 2142TIP3   OH2 6389   2.757   4.511   2.371
 2142TIP3    H1 6390   2.662   4.498   2.360
 2142TIP3    H2 6391   2.788   4.534   2.284
 2143TIP3   OH2 6392   1.823   1.266   0.861
 2143TIP3    H1 6393   1.744   1.229   0.821
 2143TIP3    H2 6394   1.873   1.191   0.891
 2144TIP3   OH2 6395   6.711   2.857   2.853
 2144TIP3    H1 6396   6.792   2.907   2.843
 2144TIP3    H2 6397   6.697   2.817   2.768
 2145TIP3   OH2 6398   1.533   0.070   0.671
 2145TIP3    H1 6399   1.511   0.116   0.590
 2145TIP3    H2 6400   1.483  -0.011   0.667
 2146TIP3   OH2 6401   3.896   1.807   0.871
 2146TIP3    H1 6402   3.918   1.897   0.894
 2146TIP3    H2 6403   3.981   1.765   0.857
 2147TIP3   OH2 6404   5.956   0.524   4.525
 2147TIP3    H1 6405   5.889   0.463   4.556
 2147TIP3    H2 6406   6.008   0.544   4.603
 2148TIP3   OH2 6407   1.701   1.187   2.763
 2148TIP3    H1 6408   1.793   1.165   2.752
 2148TIP3    H2 6409   1.657   1.147   2.689
 2149TIP3   OH2 6410   6.089   0.403   5.442
 2149TIP3    H1 6411   6.177   0.428   5.413
 2149TIP3    H2 6412   6.036   0.482   5.428
 2150TIP3   OH2 6413   0.770   2.385   5.013
 2150TIP3    H1 6414   0.797   2.298   5.042
 2150TIP3    H2 6415   0.683   2.372   4.976
 2151TIP3   OH2 6416   4.510   2.762   1.526
 2151TIP3    H1 6417   4.540   2.685   1.575
 2151TIP3    H2 6418   4.538   2.837   1.578
 2152TIP3   OH2 6419   4.819   0.983   1.308
 2152TIP3    H1 6420   4.745   1.033   1.273
 2152TIP3    H2 6421   4.806   0.894   1.275
 2153TIP3   OH2 6422   4.421   2.701   4.323
 2153TIP3    H1 6423   4.362   2.721   4.396
 2153TIP3    H2 6424   4.429   2.783   4.275
 2154TIP3   OH2 6425   5.586   3.892   2.973
 2154TIP3    H1 6426   5.522   3.909   3.042
 2154TIP3    H2 6427   5.613   3.979   2.944
 2155TIP3   OH2 6428   2.669   5.356   4.950
 2155TIP3    H1 6429   2.728   5.281   4.936
 2155TIP3    H2 6430   2.657   5.359   5.045
 2156TIP3   OH2 6431   0.939   5.843   5.785
 2156TIP3    H1 6432   0.920   5.757   5.822
 2156TIP3    H2 6433   0.936   5.903   5.860
 2157TIP3   OH2 6434   3.225   2.329   4.827
 2157TIP3    H1 6435   3.176   2.309   4.747
 2157TIP3    H2 6436   3.284   2.400   4.802
 2158TIP3   OH2 6437   2.328   2.117   4.057
 2158TIP3    H1 6438   2.388   2.046   4.081
 2158TIP3    H2 6439   2.381   2.196   4.062
 2159TIP3   OH2 6440   6.950   5.629   1.402
 2159TIP3    H1 6441   6.957   5.539   1.433
 2159TIP3    H2 6442   6.859   5.653   1.419
 2160TIP3   OH2 6443   0.233   3.769   3.474
 2160TIP3    H1 6444   0.229   3.674   3.459
 2160TIP3    H2 6445   0.169   3.785   3.543
 2161TIP3   OH2 6446   0.259   5.612   0.730
 2161TIP3    H1 6447   0.277   5.572   0.815
 2161TIP3    H2 6448   0.331   5.674   0.717
 2162TIP3   OH2 6449   2.228   1.165   5.277
 2162TIP3    H1 6450   2.251   1.198   5.363
 2162TIP3    H2 6451   2.161   1.226   5.244
 2163TIP3   OH2 6452   0.796   6.147   5.439
 2163TIP3    H1 6453   0.785   6.055   5.465
 2163TIP3    H2 6454   0.838   6.143   5.353
 2164TIP3   OH2 6455   1.561   4.942   3.314
 2164TIP3    H1 6456   1.628   5.010   3.324
 2164TIP3    H2 6457   1.568   4.914   3.223
 2165TIP3   OH2 6458   4.839   4.361   3.996
 2165TIP3    H1 6459   4.871   4.294   4.056
 2165TIP3    H2 6460   4.851   4.443   4.043
 2166TIP3   OH2 6461   3.052   5.122   3.122
 2166TIP3    H1 6462   3.088   5.053   3.066
 2166TIP3    H2 6463   2.960   5.096   3.136
 2167TIP3   OH2 6464   2.526   2.647   4.962
 2167TIP3    H1 6465   2.500   2.671   4.874
 2167TIP3    H2 6466   2.591   2.578   4.950
 2168TIP3   OH2 6467   5.503   1.128   2.243
 2168TIP3    H1 6468   5.525   1.091   2.329
 2168TIP3    H2 6469   5.588   1.146   2.203
 2169TIP3   OH2 6470   2.308   2.009   5.259
 2169TIP3    H1 6471   2.291   2.103   5.270
 2169TIP3    H2 6472   2.252   1.983   5.186
 2170TIP3   OH2 6473   3.741   5.374   3.267
 2170TIP3    H1 6474   3.672   5.394   3.203
 2170TIP3    H2 6475   3.727   5.282   3.289
 2171TIP3   OH2 6476   6.668   1.406   4.105
 2171TIP3    H1 6477   6.644   1.391   4.013
 2171TIP3    H2 6478   6.607   1.351   4.155
 2172TIP3   OH2 6479   1.087   0.982   1.485
 2172TIP3    H1 6480   1.013   0.933   1.449
 2172TIP3    H2 6481   1.054   1.071   1.495
 2173TIP3   OH2 6482   0.406   5.442   3.434
 2173TIP3    H1 6483   0.331   5.399   3.393
 2173TIP3    H2 6484   0.369   5.485   3.511
 2174TIP3   OH2 6485   3.385   5.461   0.789
 2174TIP3    H1 6486   3.331   5.397   0.834
 2174TIP3    H2 6487   3.325   5.533   0.769
 2175TIP3   OH2 6488   4.100   1.077   1.195
 2175TIP3    H1 6489   4.062   1.091   1.282
 2175TIP3    H2 6490   4.072   0.989   1.171
 2176TIP3   OH2 6491   5.457   6.437   1.786
 2176TIP3    H1 6492   5.432   6.496   1.714
 2176TIP3    H2 6493   5.512   6.491   1.843
 2177TIP3   OH2 6494   1.037   2.435   2.764
 2177TIP3    H1 6495   1.117   2.428   2.714
 2177TIP3    H2 6496   1.066   2.450   2.854
 2178TIP3   OH2 6497   4.222   0.946   2.350
 2178TIP3    H1 6498   4.195   0.879   2.412
 2178TIP3    H2 6499   4.147   1.005   2.343
 2179TIP3   OH2 6500   6.485   5.722   1.804
 2179TIP3    H1 6501   6.522   5.803   1.768
 2179TIP3    H2 6502   6.407   5.705   1.751
 2180TIP3   OH2 6503   3.078   0.598   3.545
 2180TIP3    H1 6504   3.103   0.689   3.534
 2180TIP3    H2 6505   2.984   0.600   3.560
 2181TIP3   OH2 6506   0.329   2.510   3.395
 2181TIP3    H1 6507   0.255   2.560   3.431
 2181TIP3    H2 6508   0.291   2.424   3.375
 2182TIP3   OH2 6509   4.391   1.923   4.375
 2182TIP3    H1 6510   4.465   1.895   4.320
 2182TIP3    H2 6511   4.394   1.863   4.450
 2183TIP3   OH2 6512   2.641   6.658   3.836
 2183TIP3    H1 6513   2.616   6.614   3.755
 2183TIP3    H2 6514   2.585   6.735   3.841
 2184TIP3   OH2 6515   7.253   2.467   0.930
 2184TIP3    H1 6516   7.264   2.552   0.888
 2184TIP3    H2 6517   7.317   2.467   1.001
 2185TIP3   OH2 6518   4.979   3.656   0.053
 2185TIP3    H1 6519   4.983   3.571   0.010
 2185TIP3    H2 6520   5.058   3.659   0.108
 2186TIP3   OH2 6521   5.202   6.471   2.972
 2186TIP3    H1 6522   5.174   6.498   2.885
 2186TIP3    H2 6523   5.297   6.482   2.972
 2187TIP3   OH2 6524   2.171   2.063   1.157
 2187TIP3    H1 6525   2.239   2.109   1.205
 2187TIP3    H2 6526   2.150   1.988   1.211
 2188TIP3   OH2 6527   3.411   0.234   5.476
 2188TIP3    H1 6528   3.461   0.179   5.417
 2188TIP3    H2 6529   3.471   0.304   5.502
 2189TIP3   OH2 6530   4.313   5.318   4.032
 2189TIP3    H1 6531   4.263   5.245   3.995
 2189TIP3    H2 6532   4.397   5.279   4.056
 2190TIP3   OH2 6533   5.885   5.914   3.779
 2190TIP3    H1 6534   5.873   5.975   3.851
 2190TIP3    H2 6535   5.861   5.829   3.816
 2191TIP3   OH2 6536   0.756   4.029   0.394
 2191TIP3    H1 6537   0.787   3.981   0.471
 2191TIP3    H2 6538   0.826   4.021   0.331
 2192TIP3   OH2 6539   1.089   2.992   0.548
 2192TIP3    H1 6540   1.029   3.055   0.587
 2192TIP3    H2 6541   1.169   3.001   0.598
 2193TIP3   OH2 6542   5.741   2.054   2.915
 2193TIP3    H1 6543   5.758   1.971   2.961
 2193TIP3    H2 6544   5.659   2.085   2.953
 2194TIP3   OH2 6545   2.665   3.820   5.547
 2194TIP3    H1 6546   2.698   3.815   5.457
 2194TIP3    H2 6547   2.693   3.907   5.578
 2195TIP3   OH2 6548   0.172   4.970   1.381
 2195TIP3    H1 6549   0.142   4.893   1.332
 2195TIP3    H2 6550   0.094   5.000   1.428
 2196TIP3   OH2 6551   3.072   4.198   4.575
 2196TIP3    H1 6552   3.137   4.185   4.507
 2196TIP3    H2 6553   2.993   4.226   4.528
 2197TIP3   OH2 6554   5.489   3.603   4.658
 2197TIP3    H1 6555   5.575   3.643   4.644
 2197TIP3    H2 6556   5.508   3.514   4.687
 2198TIP3   OH2 6557   3.725   4.404   2.209
 2198TIP3    H1 6558   3.678   4.321   2.218
 2198TIP3    H2 6559   3.794   4.400   2.276
 2199TIP3   OH2 6560   0.375   1.072   1.634
 2199TIP3    H1 6561   0.285   1.094   1.657
 2199TIP3    H2 6562   0.392   0.989   1.678
 2200TIP3   OH2 6563   4.854   1.014   4.921
 2200TIP3    H1 6564   4.888   1.038   5.007
 2200TIP3    H2 6565   4.826   0.923   4.931
 2201TIP3   OH2 6566   4.540   4.976   2.600
 2201TIP3    H1 6567   4.454   4.936   2.590
 2201TIP3    H2 6568   4.573   4.984   2.511
 2202TIP3   OH2 6569   0.547   0.983   4.693
 2202TIP3    H1 6570   0.628   0.983   4.744
 2202TIP3    H2 6571   0.564   0.924   4.620
 2203TIP3   OH2 6572   5.574   0.170   4.065
 2203TIP3    H1 6573   5.653   0.122   4.088
 2203TIP3    H2 6574   5.512   0.102   4.039
 2204TIP3   OH2 6575   1.688   1.895   3.818
 2204TIP3    H1 6576   1.630   1.883   3.894
 2204TIP3    H2 6577   1.776   1.890   3.855
 2205TIP3   OH2 6578   3.901   2.180   1.707
 2205TIP3    H1 6579   3.875   2.089   1.694
 2205TIP3    H2 6580   3.842   2.211   1.777
 2206TIP3   OH2 6581   5.901   2.598   2.839
 2206TIP3    H1 6582   5.858   2.612   2.924
 2206TIP3    H2 6583   5.931   2.508   2.842
 2207TIP3   OH2 6584   5.659   6.660   2.671
 2207TIP3    H1 6585   5.649   6.565   2.660
 2207TIP3    H2 6586   5.687   6.670   2.762
 2208TIP3   OH2 6587   5.824   4.576   2.541
 2208TIP3    H1 6588   5.834   4.589   2.447
 2208TIP3    H2 6589   5.855   4.657   2.581
 2209TIP3   OH2 6590   6.272   0.954   4.975
 2209TIP3    H1 6591   6.188   0.962   4.930
 2209TIP3    H2 6592   6.312   1.040   4.966
 2210TIP3   OH2 6593   3.549   2.387   0.684
 2210TIP3    H1 6594   3.476   2.390   0.622
 2210TIP3    H2 6595   3.535   2.463   0.740
 2211TIP3   OH2 6596   6.282   5.802   4.323
 2211TIP3    H1 6597   6.307   5.711   4.306
 2211TIP3    H2 6598   6.189   5.797   4.347
 2212TIP3   OH2 6599   4.487   0.255   0.740
 2212TIP3    H1 6600   4.558   0.317   0.720
 2212TIP3    H2 6601   4.506   0.224   0.828
 2213TIP3   OH2 6602   0.150   4.922   5.478
 2213TIP3    H1 6603   0.153   4.850   5.415
 2213TIP3    H2 6604   0.062   4.916   5.517
 2214TIP3   OH2 6605   2.153   2.529   1.644
 2214TIP3    H1 6606   2.076   2.534   1.588
 2214TIP3    H2 6607   2.148   2.608   1.699
 2215TIP3   OH2 6608   0.638   3.859   3.876
 2215TIP3    H1 6609   0.544   3.846   3.868
 2215TIP3    H2 6610   0.658   3.837   3.967
 2216TIP3   OH2 6611   5.801   0.297   4.620
 2216TIP3    H1 6612   5.799   0.314   4.714
 2216TIP3    H2 6613   5.825   0.204   4.614
 2217TIP3   OH2 6614   5.341   1.812   4.413
 2217TIP3    H1 6615   5.417   1.823   4.355
 2217TIP3    H2 6616   5.355   1.726   4.454
 2218TIP3   OH2 6617   3.234   0.519   2.982
 2218TIP3    H1 6618   3.267   0.608   2.991
 2218TIP3    H2 6619   3.290   0.480   2.915
 2219TIP3   OH2 6620   1.666   3.990   3.689
 2219TIP3    H1 6621   1.574   3.979   3.712
 2219TIP3    H2 6622   1.710   3.915   3.730
 2220TIP3   OH2 6623   6.917   4.315   4.478
 2220TIP3    H1 6624   6.883   4.330   4.389
 2220TIP3    H2 6625   6.895   4.224   4.497
 2221TIP3   OH2 6626   3.137   5.370   2.384
 2221TIP3    H1 6627   3.123   5.379   2.290
 2221TIP3    H2 6628   3.050   5.384   2.423
 2222TIP3   OH2 6629   0.779   1.767   5.477
 2222TIP3    H1 6630   0.741   1.732   5.397
 2222TIP3    H2 6631   0.808   1.856   5.454
 2223TIP3   OH2 6632   4.003   5.458   3.586
 2223TIP3    H1 6633   3.950   5.451   3.666
 2223TIP3    H2 6634   4.003   5.551   3.565
 2224TIP3   OH2 6635   3.938   5.378   2.145
 2224TIP3    H1 6636   3.919   5.340   2.059
 2224TIP3    H2 6637   3.991   5.312   2.189
 2225TIP3   OH2 6638   1.308   3.770   4.850
 2225TIP3    H1 6639   1.326   3.696   4.792
 2225TIP3    H2 6640   1.253   3.828   4.798
 2226TIP3   OH2 6641   4.176   6.455   0.189
 2226TIP3    H1 6642   4.168   6.501   0.105
 2226TIP3    H2 6643   4.263   6.417   0.187
 2227TIP3   OH2 6644   5.852   5.724   5.475
 2227TIP3    H1 6645   5.789   5.780   5.429
 2227TIP3    H2 6646   5.935   5.739   5.429
 2228TIP3   OH2 6647   4.364   4.754   3.872
 2228TIP3    H1 6648   4.356   4.758   3.776
 2228TIP3    H2 6649   4.395   4.842   3.896
 2229TIP3   OH2 6650   4.427   5.992   4.069
 2229TIP3    H1 6651   4.371   5.965   3.996
 2229TIP3    H2 6652   4.473   6.070   4.037
 2230TIP3   OH2 6653   2.350   5.598   2.226
 2230TIP3    H1 6654   2.432   5.568   2.264
 2230TIP3    H2 6655   2.376   5.656   2.154
 2231TIP3   OH2 6656   4.170   4.782   1.464
 2231TIP3    H1 6657   4.192   4.875   1.470
 2231TIP3    H2 6658   4.138   4.760   1.552
 2232TIP3   OH2 6659   1.647   4.982   3.060
 2232TIP3    H1 6660   1.732   5.021   3.082
 2232TIP3    H2 6661   1.589   5.056   3.047
 2233TIP3   OH2 6662   2.663   5.491   5.466
 2233TIP3    H1 6663   2.583   5.502   5.414
 2233TIP3    H2 6664   2.632   5.457   5.551
 2234TIP3   OH2 6665   0.519   5.487   4.845
 2234TIP3    H1 6666   0.534   5.458   4.935
 2234TIP3    H2 6667   0.577   5.433   4.792
 2235TIP3   OH2 6668   2.410   1.980   5.695
 2235TIP3    H1 6669   2.418   1.955   5.787
 2235TIP3    H2 6670   2.495   2.018   5.673
 2236TIP3   OH2 6671   3.101   6.442   4.791
 2236TIP3    H1 6672   3.122   6.444   4.698
 2236TIP3    H2 6673   3.111   6.351   4.817
 2237TIP3   OH2 6674   1.550   2.586   4.098
 2237TIP3    H1 6675   1.473   2.532   4.113
 2237TIP3    H2 6676   1.616   2.553   4.159
 2238TIP3   OH2 6677   6.938   4.315   0.278
 2238TIP3    H1 6678   6.913   4.225   0.299
 2238TIP3    H2 6679   6.865   4.369   0.307
 2239TIP3   OH2 6680   1.334   1.948   5.484
 2239TIP3    H1 6681   1.268   1.948   5.415
 2239TIP3    H2 6682   1.356   1.855   5.496
 2240TIP3   OH2 6683   5.381   4.666   2.786
 2240TIP3    H1 6684   5.405   4.629   2.701
 2240TIP3    H2 6685   5.301   4.716   2.768
 2241TIP3   OH2 6686   1.772   5.903   0.843
 2241TIP3    H1 6687   1.677   5.898   0.855
 2241TIP3    H2 6688   1.784   5.962   0.769
 2242TIP3   OH2 6689   1.716   4.805   2.177
 2242TIP3    H1 6690   1.723   4.840   2.266
 2242TIP3    H2 6691   1.766   4.723   2.180
 2243TIP3   OH2 6692   6.386   4.381   2.994
 2243TIP3    H1 6693   6.294   4.360   3.010
 2243TIP3    H2 6694   6.433   4.301   3.017
 2244TIP3   OH2 6695   4.824   2.904   3.378
 2244TIP3    H1 6696   4.847   2.869   3.292
 2244TIP3    H2 6697   4.807   2.997   3.362
 2245TIP3   OH2 6698   4.249   5.514   2.292
 2245TIP3    H1 6699   4.341   5.532   2.310
 2245TIP3    H2 6700   4.233   5.428   2.331
 2246TIP3   OH2 6701   2.590   5.150   2.527
 2246TIP3    H1 6702   2.511   5.114   2.487
 2246TIP3    H2 6703   2.577   5.138   2.621
 2247TIP3   OH2 6704   3.802   3.167   3.311
 2247TIP3    H1 6705   3.718   3.205   3.286
 2247TIP3    H2 6706   3.828   3.215   3.390
 2248TIP3   OH2 6707   5.382   3.208   5.610
 2248TIP3    H1 6708   5.392   3.113   5.603
 2248TIP3    H2 6709   5.311   3.229   5.549
 2249TIP3   OH2 6710   3.696   0.841   5.162
 2249TIP3    H1 6711   3.751   0.919   5.169
 2249TIP3    H2 6712   3.666   0.843   5.071
 2250TIP3   OH2 6713   5.814   1.195   0.849
 2250TIP3    H1 6714   5.770   1.266   0.895
 2250TIP3    H2 6715   5.747   1.129   0.836
 2251TIP3   OH2 6716   1.104   6.414   3.499
 2251TIP3    H1 6717   1.176   6.371   3.453
 2251TIP3    H2 6718   1.076   6.350   3.564
 2252TIP3   OH2 6719   2.958   0.415   5.383
 2252TIP3    H1 6720   2.976   0.494   5.332
 2252TIP3    H2 6721   2.922   0.446   5.466
 2253TIP3   OH2 6722   4.856   1.170   2.368
 2253TIP3    H1 6723   4.859   1.118   2.448
 2253TIP3    H2 6724   4.777   1.223   2.377
 2254TIP3   OH2 6725   2.553   2.145   1.685
 2254TIP3    H1 6726   2.487   2.103   1.630
 2254TIP3    H2 6727   2.526   2.237   1.690
 2255TIP3   OH2 6728   1.128   1.430   2.484
 2255TIP3    H1 6729   1.214   1.435   2.441
 2255TIP3    H2 6730   1.065   1.448   2.414
 2256TIP3   OH2 6731   3.830   5.234   2.809
 2256TIP3    H1 6732   3.737   5.220   2.828
 2256TIP3    H2 6733   3.837   5.229   2.714
 2257TIP3   OH2 6734   2.056   4.289   1.812
 2257TIP3    H1 6735   1.965   4.320   1.810
 2257TIP3    H2 6736   2.049   4.200   1.847
 2258TIP3   OH2 6737   0.897   3.271   0.360
 2258TIP3    H1 6738   0.916   3.351   0.411
 2258TIP3    H2 6739   0.983   3.240   0.332
 2259TIP3   OH2 6740   2.526   4.449   2.078
 2259TIP3    H1 6741   2.609   4.421   2.038
 2259TIP3    H2 6742   2.525   4.544   2.068
 2260TIP3   OH2 6743   4.887   1.776   4.277
 2260TIP3    H1 6744   4.961   1.816   4.324
 2260TIP3    H2 6745   4.860   1.842   4.214
 2261TIP3   OH2 6746   1.587   3.555   2.039
 2261TIP3    H1 6747   1.641   3.486   1.999
 2261TIP3    H2 6748   1.550   3.602   1.965
 2262TIP3   OH2 6749   5.365   5.575   4.656
 2262TIP3    H1 6750   5.412   5.503   4.696
 2262TIP3    H2 6751   5.297   5.598   4.720
 2263TIP3   OH2 6752   3.517   2.870   0.768
 2263TIP3    H1 6753   3.564   2.953   0.758
 2263TIP3    H2 6754   3.536   2.842   0.857
 2264TIP3   OH2 6755   6.631   0.815   5.525
 2264TIP3    H1 6756   6.545   0.775   5.516
 2264TIP3    H2 6757   6.645   0.861   5.442
 2265TIP3   OH2 6758   2.962   6.541   5.009
 2265TIP3    H1 6759   2.909   6.464   5.030
 2265TIP3    H2 6760   3.016   6.514   4.935
 2266TIP3   OH2 6761   4.346   3.898   1.510
 2266TIP3    H1 6762   4.391   3.895   1.595
 2266TIP3    H2 6763   4.284   3.826   1.512
 2267TIP3   OH2 6764   5.208   4.108   5.255
 2267TIP3    H1 6765   5.202   4.113   5.160
 2267TIP3    H2 6766   5.289   4.154   5.277
 2268TIP3   OH2 6767   4.746   0.060   1.311
 2268TIP3    H1 6768   4.660   0.045   1.349
 2268TIP3    H2 6769   4.736   0.035   1.219
 2269TIP3   OH2 6770   2.119   1.566   5.632
 2269TIP3    H1 6771   2.094   1.539   5.720
 2269TIP3    H2 6772   2.159   1.652   5.644
 2270TIP3   OH2 6773   1.468   3.904   4.074
 2270TIP3    H1 6774   1.401   3.940   4.132
 2270TIP3    H2 6775   1.540   3.967   4.079
 2271TIP3   OH2 6776   1.745   2.812   0.643
 2271TIP3    H1 6777   1.747   2.903   0.613
 2271TIP3    H2 6778   1.812   2.808   0.711
 2272TIP3   OH2 6779   6.212   4.985   5.175
 2272TIP3    H1 6780   6.127   4.950   5.147
 2272TIP3    H2 6781   6.273   4.955   5.108
 2273TIP3   OH2 6782   6.927   0.495   1.727
 2273TIP3    H1 6783   6.927   0.588   1.705
 2273TIP3    H2 6784   7.004   0.460   1.682
 2274TIP3   OH2 6785   1.220   0.706   2.490
 2274TIP3    H1 6786   1.315   0.698   2.495
 2274TIP3    H2 6787   1.203   0.739   2.402
 2275TIP3   OH2 6788   0.614   2.374   0.097
 2275TIP3    H1 6789   0.611   2.390   0.191
 2275TIP3    H2 6790   0.684   2.431   0.066
 2276TIP3   OH2 6791   6.123   5.228   4.177
 2276TIP3    H1 6792   6.185   5.291   4.141
 2276TIP3    H2 6793   6.143   5.225   4.271
 2277TIP3   OH2 6794   2.523   2.829   2.080
 2277TIP3    H1 6795   2.500   2.918   2.052
 2277TIP3    H2 6796   2.594   2.841   2.143
 2278TIP3   OH2 6797   7.172   2.077   2.865
 2278TIP3    H1 6798   7.090   2.051   2.906
 2278TIP3    H2 6799   7.146   2.121   2.784
 2279TIP3   OH2 6800   3.205   0.810   2.417
 2279TIP3    H1 6801   3.228   0.729   2.463
 2279TIP3    H2 6802   3.169   0.866   2.486
 2280TIP3   OH2 6803   1.349   5.257   0.920
 2280TIP3    H1 6804   1.264   5.215   0.906
 2280TIP3    H2 6805   1.412   5.186   0.916
 2281TIP3   OH2 6806   1.781   2.185   1.495
 2281TIP3    H1 6807   1.697   2.205   1.455
 2281TIP3    H2 6808   1.815   2.111   1.444
 2282TIP3   OH2 6809   6.748   6.649   2.808
 2282TIP3    H1 6810   6.757   6.589   2.882
 2282TIP3    H2 6811   6.804   6.723   2.831
 2283TIP3   OH2 6812   3.969   1.610   1.396
 2283TIP3    H1 6813   3.903   1.653   1.342
 2283TIP3    H2 6814   4.003   1.539   1.341
 2284TIP3   OH2 6815   4.825   3.496   1.227
 2284TIP3    H1 6816   4.745   3.513   1.278
 2284TIP3    H2 6817   4.798   3.432   1.162
 2285TIP3   OH2 6818   7.142   4.381   5.859
 2285TIP3    H1 6819   7.119   4.415   5.773
 2285TIP3    H2 6820   7.102   4.442   5.921
 2286TIP3   OH2 6821   4.895   5.427   2.376
 2286TIP3    H1 6822   4.916   5.377   2.455
 2286TIP3    H2 6823   4.922   5.517   2.396
 2287TIP3   OH2 6824   6.939   0.172   3.169
 2287TIP3    H1 6825   7.000   0.228   3.123
 2287TIP3    H2 6826   6.981   0.086   3.171
 2288TIP3   OH2 6827   3.295   0.775   3.758
 2288TIP3    H1 6828   3.219   0.784   3.700
 2288TIP3    H2 6829   3.354   0.845   3.731
 2289TIP3   OH2 6830   4.467   1.975   5.355
 2289TIP3    H1 6831   4.492   1.922   5.431
 2289TIP3    H2 6832   4.422   2.051   5.393
 2290TIP3   OH2 6833   5.280   2.101   5.530
 2290TIP3    H1 6834   5.190   2.113   5.560
 2290TIP3    H2 6835   5.311   2.189   5.510
 2291TIP3   OH2 6836   4.167   3.758   2.019
 2291TIP3    H1 6837   4.083   3.763   2.065
 2291TIP3    H2 6838   4.179   3.845   1.982
 2292TIP3   OH2 6839   2.854   1.826   2.377
 2292TIP3    H1 6840   2.907   1.747   2.381
 2292TIP3    H2 6841   2.792   1.817   2.450
 2293TIP3   OH2 6842   0.386   4.728   1.679
 2293TIP3    H1 6843   0.429   4.676   1.610
 2293TIP3    H2 6844   0.381   4.816   1.642
 2294TIP3   OH2 6845   4.359   1.278   0.735
 2294TIP3    H1 6846   4.441   1.270   0.785
 2294TIP3    H2 6847   4.323   1.189   0.734
 2295TIP3   OH2 6848   6.870   0.958   0.092
 2295TIP3    H1 6849   6.851   1.021   0.022
 2295TIP3    H2 6850   6.838   1.000   0.172
 2296TIP3   OH2 6851   6.163   2.124   2.217
 2296TIP3    H1 6852   6.181   2.160   2.304
 2296TIP3    H2 6853   6.221   2.173   2.159
 2297TIP3   OH2 6854   2.113   1.833   1.296
 2297TIP3    H1 6855   2.166   1.758   1.269
 2297TIP3    H2 6856   2.083   1.810   1.385
 2298TIP3   OH2 6857   5.281   0.472   2.263
 2298TIP3    H1 6858   5.222   0.397   2.253
 2298TIP3    H2 6859   5.350   0.457   2.198
 2299TIP3   OH2 6860   0.753   4.695   2.751
 2299TIP3    H1 6861   0.711   4.772   2.713
 2299TIP3    H2 6862   0.844   4.722   2.767
 2300TIP3   OH2 6863   2.452   1.194   4.965
 2300TIP3    H1 6864   2.522   1.171   4.904
 2300TIP3    H2 6865   2.486   1.169   5.051
 2301TIP3   OH2 6866   1.261   2.025   1.095
 2301TIP3    H1 6867   1.213   1.988   1.022
 2301TIP3    H2 6868   1.348   1.985   1.090
 2302TIP3   OH2 6869   0.088   6.614   1.885
 2302TIP3    H1 6870   0.168   6.571   1.855
 2302TIP3    H2 6871   0.090   6.604   1.980
 2303TIP3   OH2 6872   2.897   1.765   1.552
 2303TIP3    H1 6873   2.936   1.698   1.496
 2303TIP3    H2 6874   2.938   1.751   1.638
 2304TIP3   OH2 6875   1.509   5.932   0.822
 2304TIP3    H1 6876   1.443   5.953   0.756
 2304TIP3    H2 6877   1.508   6.007   0.882
 2305TIP3   OH2 6878   0.613   2.394   0.376
 2305TIP3    H1 6879   0.684   2.351   0.424
 2305TIP3    H2 6880   0.620   2.486   0.400
 2306TIP3   OH2 6881   1.249   2.315   1.055
 2306TIP3    H1 6882   1.165   2.322   1.102
 2306TIP3    H2 6883   1.286   2.232   1.085
 2307TIP3   OH2 6884   2.662   0.326   4.458
 2307TIP3    H1 6885   2.698   0.288   4.378
 2307TIP3    H2 6886   2.610   0.256   4.497
 2308TIP3   OH2 6887   5.751   0.704   4.141
 2308TIP3    H1 6888   5.662   0.725   4.115
 2308TIP3    H2 6889   5.783   0.783   4.184
 2309TIP3   OH2 6890   4.605   5.733   4.198
 2309TIP3    H1 6891   4.556   5.809   4.167
 2309TIP3    H2 6892   4.670   5.717   4.129
 2310TIP3   OH2 6893   4.171   0.481   5.905
 2310TIP3    H1 6894   4.218   0.563   5.894
 2310TIP3    H2 6895   4.080   0.501   5.883
 2311TIP3   OH2 6896   7.024   6.037   0.204
 2311TIP3    H1 6897   6.952   6.064   0.147
 2311TIP3    H2 6898   7.103   6.055   0.152
 2312TIP3   OH2 6899   7.063   4.429   0.512
 2312TIP3    H1 6900   7.138   4.390   0.556
 2312TIP3    H2 6901   7.052   4.376   0.433
 2313TIP3   OH2 6902   1.821   2.834   2.358
 2313TIP3    H1 6903   1.880   2.801   2.426
 2313TIP3    H2 6904   1.870   2.824   2.277
 2314TIP3   OH2 6905   0.060   0.679   5.048
 2314TIP3    H1 6906  -0.028   0.684   5.011
 2314TIP3    H2 6907   0.086   0.770   5.063
 2315TIP3   OH2 6908   1.972   2.305   0.922
 2315TIP3    H1 6909   1.964   2.363   0.846
 2315TIP3    H2 6910   2.042   2.343   0.975
 2316TIP3   OH2 6911   5.950   1.263   5.053
 2316TIP3    H1 6912   5.869   1.255   5.103
 2316TIP3    H2 6913   5.925   1.239   4.964
 2317TIP3   OH2 6914   4.736   3.730   4.464
 2317TIP3    H1 6915   4.675   3.693   4.527
 2317TIP3    H2 6916   4.708   3.821   4.454
 2318TIP3   OH2 6917   5.579   3.617   4.197
 2318TIP3    H1 6918   5.518   3.680   4.160
 2318TIP3    H2 6919   5.536   3.586   4.276
 2319TIP3   OH2 6920   6.244   4.488   4.942
 2319TIP3    H1 6921   6.327   4.498   4.990
 2319TIP3    H2 6922   6.262   4.419   4.878
 2320TIP3   OH2 6923   3.595   5.275   4.445
 2320TIP3    H1 6924   3.674   5.274   4.500
 2320TIP3    H2 6925   3.572   5.368   4.438
 2321TIP3   OH2 6926   3.037   4.272   1.386
 2321TIP3    H1 6927   2.963   4.334   1.384
 2321TIP3    H2 6928   3.109   4.322   1.423
 2322TIP3   OH2 6929   1.452   4.675   2.820
 2322TIP3    H1 6930   1.418   4.586   2.812
 2322TIP3    H2 6931   1.546   4.666   2.803
 2323TIP3   OH2 6932   2.180   4.090   4.053
 2323TIP3    H1 6933   2.251   4.142   4.015
 2323TIP3    H2 6934   2.225   4.023   4.106
 2324TIP3   OH2 6935   4.494   4.758   0.892
 2324TIP3    H1 6936   4.407   4.755   0.852
 2324TIP3    H2 6937   4.485   4.706   0.972
 2325TIP3   OH2 6938   4.299   2.592   2.420
 2325TIP3    H1 6939   4.319   2.513   2.470
 2325TIP3    H2 6940   4.367   2.654   2.447
 2326TIP3   OH2 6941   1.981   3.468   4.744
 2326TIP3    H1 6942   1.911   3.445   4.805
 2326TIP3    H2 6943   1.936   3.517   4.674
 2327TIP3   OH2 6944   4.076   6.790   0.401
 2327TIP3    H1 6945   4.109   6.815   0.314
 2327TIP3    H2 6946   4.144   6.820   0.462
 2328TIP3   OH2 6947   4.224   5.480   1.213
 2328TIP3    H1 6948   4.183   5.438   1.288
 2328TIP3    H2 6949   4.267   5.558   1.249
 2329TIP3   OH2 6950   1.539   1.552   5.727
 2329TIP3    H1 6951   1.504   1.553   5.638
 2329TIP3    H2 6952   1.509   1.469   5.764
 2330TIP3   OH2 6953   5.926   4.837   2.577
 2330TIP3    H1 6954   5.945   4.912   2.520
 2330TIP3    H2 6955   6.002   4.779   2.568
 2331TIP3   OH2 6956   1.215   1.602   5.583
 2331TIP3    H1 6957   1.149   1.595   5.515
 2331TIP3    H2 6958   1.296   1.625   5.537
 2332TIP3   OH2 6959   1.750   2.570   3.278
 2332TIP3    H1 6960   1.708   2.601   3.358
 2332TIP3    H2 6961   1.834   2.533   3.307
 2333TIP3   OH2 6962   2.803   6.046   2.163
 2333TIP3    H1 6963   2.714   6.072   2.138
 2333TIP3    H2 6964   2.849   6.129   2.176
 2334TIP3   OH2 6965   4.535   6.755   1.880
 2334TIP3    H1 6966   4.534   6.842   1.839
 2334TIP3    H2 6967   4.581   6.700   1.818
 2335TIP3   OH2 6968   1.106   6.425   4.987
 2335TIP3    H1 6969   1.119   6.490   5.056
 2335TIP3    H2 6970   1.176   6.362   5.000
 2336TIP3   OH2 6971   6.885   1.022   4.508
 2336TIP3    H1 6972   6.865   0.940   4.553
 2336TIP3    H2 6973   6.838   1.089   4.558
 2337TIP3   OH2 6974   4.193   0.363   2.065
 2337TIP3    H1 6975   4.145   0.446   2.064
 2337TIP3    H2 6976   4.270   0.379   2.010
 2338TIP3   OH2 6977   3.996   1.369   1.255
 2338TIP3    H1 6978   4.062   1.306   1.227
 2338TIP3    H2 6979   3.919   1.346   1.203
 2339TIP3   OH2 6980   1.867   5.684   4.651
 2339TIP3    H1 6981   1.796   5.620   4.647
 2339TIP3    H2 6982   1.886   5.693   4.744
 2340TIP3   OH2 6983   2.865   5.418   2.473
 2340TIP3    H1 6984   2.772   5.425   2.495
 2340TIP3    H2 6985   2.889   5.329   2.497
 2341TIP3   OH2 6986   6.062   6.571   3.862
 2341TIP3    H1 6987   6.019   6.534   3.939
 2341TIP3    H2 6988   6.152   6.537   3.865
 2342TIP3   OH2 6989   3.611   5.593   0.783
 2342TIP3    H1 6990   3.539   5.530   0.778
 2342TIP3    H2 6991   3.589   5.660   0.719
 2343TIP3   OH2 6992  -0.017   2.763   2.671
 2343TIP3    H1 6993  -0.085   2.768   2.604
 2343TIP3    H2 6994  -0.010   2.670   2.692
 2344TIP3   OH2 6995   6.678   1.548   1.029
 2344TIP3    H1 6996   6.658   1.634   0.993
 2344TIP3    H2 6997   6.636   1.547   1.115
 2345TIP3   OH2 6998   5.587   6.158   4.725
 2345TIP3    H1 6999   5.508   6.133   4.773
 2345TIP3    H2 7000   5.568   6.245   4.691
 2346TIP3   OH2 7001   2.986   1.143   4.804
 2346TIP3    H1 7002   3.056   1.080   4.787
 2346TIP3    H2 7003   2.998   1.168   4.895
 2347TIP3   OH2 7004   2.169   0.824   4.027
 2347TIP3    H1 7005   2.093   0.877   4.003
 2347TIP3    H2 7006   2.189   0.851   4.117
 2348TIP3   OH2 7007   5.050   4.340   3.558
 2348TIP3    H1 7008   5.115   4.383   3.613
 2348TIP3    H2 7009   5.012   4.272   3.614
 2349TIP3   OH2 7010   4.182   5.835   5.511
 2349TIP3    H1 7011   4.249   5.834   5.443
 2349TIP3    H2 7012   4.196   5.919   5.556
 2350TIP3   OH2 7013   4.200   1.793   5.093
 2350TIP3    H1 7014   4.218   1.885   5.114
 2350TIP3    H2 7015   4.245   1.744   5.162
 2351TIP3   OH2 7016   2.571   0.038   4.136
 2351TIP3    H1 7017   2.580  -0.055   4.161
 2351TIP3    H2 7018   2.479   0.048   4.114
 2352TIP3   OH2 7019   4.574   1.440   3.774
 2352TIP3    H1 7020   4.611   1.490   3.846
 2352TIP3    H2 7021   4.555   1.505   3.706
 2353TIP3   OH2 7022   0.820   3.787   2.730
 2353TIP3    H1 7023   0.900   3.739   2.754
 2353TIP3    H2 7024   0.759   3.771   2.802
 2354TIP3   OH2 7025   6.105   5.673   4.947
 2354TIP3    H1 7026   6.046   5.623   5.005
 2354TIP3    H2 7027   6.063   5.668   4.861
 2355TIP3   OH2 7028   2.262   3.092   4.023
 2355TIP3    H1 7029   2.313   3.045   4.089
 2355TIP3    H2 7030   2.299   3.062   3.939
 2356TIP3   OH2 7031   2.672   6.759   2.258
 2356TIP3    H1 7032   2.606   6.690   2.271
 2356TIP3    H2 7033   2.730   6.751   2.333
 2357TIP3   OH2 7034   4.089   2.410   2.779
 2357TIP3    H1 7035   4.116   2.450   2.861
 2357TIP3    H2 7036   4.055   2.482   2.727
 2358TIP3   OH2 7037   4.303   4.146   0.503
 2358TIP3    H1 7038   4.219   4.120   0.540
 2358TIP3    H2 7039   4.280   4.200   0.427
 2359TIP3   OH2 7040   1.680   0.166   1.909
 2359TIP3    H1 7041   1.676   0.150   1.815
 2359TIP3    H2 7042   1.740   0.100   1.943
 2360TIP3   OH2 7043   7.228   4.506   1.155
 2360TIP3    H1 7044   7.233   4.590   1.200
 2360TIP3    H2 7045   7.182   4.448   1.216
 2361TIP3   OH2 7046   0.187   1.869   3.611
 2361TIP3    H1 7047   0.107   1.879   3.662
 2361TIP3    H2 7048   0.255   1.852   3.677
 2362TIP3   OH2 7049   4.610   3.817   0.073
 2362TIP3    H1 7050   4.587   3.816   0.166
 2362TIP3    H2 7051   4.693   3.770   0.068
 2363TIP3   OH2 7052   5.606   2.690   1.865
 2363TIP3    H1 7053   5.604   2.697   1.769
 2363TIP3    H2 7054   5.649   2.771   1.893
 2364TIP3   OH2 7055   7.209   6.472   4.515
 2364TIP3    H1 7056   7.137   6.428   4.469
 2364TIP3    H2 7057   7.165   6.520   4.586
 2365TIP3   OH2 7058   6.680   0.596   2.693
 2365TIP3    H1 7059   6.656   0.568   2.781
 2365TIP3    H2 7060   6.772   0.622   2.700
 2366TIP3   OH2 7061   0.535   2.223   4.149
 2366TIP3    H1 7062   0.581   2.139   4.143
 2366TIP3    H2 7063   0.571   2.264   4.228
 2367TIP3   OH2 7064   3.973   5.039   1.336
 2367TIP3    H1 7065   3.973   5.035   1.431
 2367TIP3    H2 7066   3.887   5.008   1.310
 2368TIP3   OH2 7067   1.300   5.126   1.337
 2368TIP3    H1 7068   1.333   5.042   1.303
 2368TIP3    H2 7069   1.369   5.158   1.395
 2369TIP3   OH2 7070   6.317   4.877   3.502
 2369TIP3    H1 7071   6.370   4.851   3.577
 2369TIP3    H2 7072   6.231   4.898   3.539
 2370TIP3   OH2 7073   6.549   6.212   4.188
 2370TIP3    H1 7074   6.488   6.149   4.224
 2370TIP3    H2 7075   6.599   6.163   4.122
 2371TIP3   OH2 7076   3.558   4.583   1.309
 2371TIP3    H1 7077   3.511   4.662   1.284
 2371TIP3    H2 7078   3.559   4.529   1.230
 2372TIP3   OH2 7079   2.794   5.191   1.208
 2372TIP3    H1 7080   2.717   5.151   1.168
 2372TIP3    H2 7081   2.857   5.119   1.215
 2373TIP3   OH2 7082   1.903   0.054   4.324
 2373TIP3    H1 7083   1.908   0.085   4.234
 2373TIP3    H2 7084   1.962   0.113   4.372
 2374TIP3   OH2 7085   4.770   1.009   5.766
 2374TIP3    H1 7086   4.698   1.046   5.817
 2374TIP3    H2 7087   4.843   1.005   5.828
 2375TIP3   OH2 7088   1.307   5.276   3.168
 2375TIP3    H1 7089   1.328   5.308   3.081
 2375TIP3    H2 7090   1.283   5.184   3.155
 2376TIP3   OH2 7091   4.105   3.834   4.892
 2376TIP3    H1 7092   4.037   3.839   4.826
 2376TIP3    H2 7093   4.059   3.842   4.976
 2377TIP3   OH2 7094   6.524   0.519   1.746
 2377TIP3    H1 7095   6.459   0.568   1.795
 2377TIP3    H2 7096   6.576   0.475   1.813
 2378TIP3   OH2 7097   0.829   0.868   1.776
 2378TIP3    H1 7098   0.892   0.805   1.739
 2378TIP3    H2 7099   0.845   0.948   1.726
 2379TIP3   OH2 7100   2.224   5.898   1.292
 2379TIP3    H1 7101   2.134   5.931   1.299
 2379TIP3    H2 7102   2.221   5.836   1.219
 2380TIP3   OH2 7103   4.677   2.430   0.485
 2380TIP3    H1 7104   4.634   2.378   0.553
 2380TIP3    H2 7105   4.720   2.364   0.430
 2381TIP3   OH2 7106   3.005   2.667   1.250
 2381TIP3    H1 7107   3.037   2.675   1.160
 2381TIP3    H2 7108   2.937   2.599   1.246
 2382TIP3   OH2 7109   1.019   5.543   5.664
 2382TIP3    H1 7110   1.023   5.638   5.674
 2382TIP3    H2 7111   1.014   5.510   5.753
 2383TIP3   OH2 7112   6.829   1.528   2.728
 2383TIP3    H1 7113   6.741   1.560   2.748
 2383TIP3    H2 7114   6.886   1.601   2.753
 2384TIP3   OH2 7115   6.896   0.778   2.042
 2384TIP3    H1 7116   6.854   0.846   1.988
 2384TIP3    H2 7117   6.834   0.762   2.113
 2385TIP3   OH2 7118   3.070   2.225   0.506
 2385TIP3    H1 7119   3.027   2.272   0.435
 2385TIP3    H2 7120   3.007   2.157   0.532
 2386TIP3   OH2 7121   1.250   4.121   3.847
 2386TIP3    H1 7122   1.168   4.137   3.895
 2386TIP3    H2 7123   1.288   4.208   3.837
 2387TIP3   OH2 7124   4.518   1.021   5.876
 2387TIP3    H1 7125   4.525   0.937   5.830
 2387TIP3    H2 7126   4.486   0.998   5.964
 2388TIP3   OH2 7127   3.348   0.934   0.416
 2388TIP3    H1 7128   3.286   0.862   0.424
 2388TIP3    H2 7129   3.326   0.976   0.333
 2389TIP3   OH2 7130   1.670   2.973   4.595
 2389TIP3    H1 7131   1.762   2.999   4.590
 2389TIP3    H2 7132   1.625   3.032   4.534
 2390TIP3   OH2 7133   6.208   4.893   1.103
 2390TIP3    H1 7134   6.229   4.987   1.101
 2390TIP3    H2 7135   6.112   4.890   1.108
 2391TIP3   OH2 7136   5.828   1.837   1.123
 2391TIP3    H1 7137   5.839   1.774   1.052
 2391TIP3    H2 7138   5.749   1.886   1.100
 2392TIP3   OH2 7139   6.307   4.078   4.117
 2392TIP3    H1 7140   6.371   4.145   4.093
 2392TIP3    H2 7141   6.353   3.995   4.104
 2393TIP3   OH2 7142   3.071   2.740   4.328
 2393TIP3    H1 7143   3.135   2.717   4.260
 2393TIP3    H2 7144   3.107   2.819   4.369
 2394TIP3   OH2 7145   2.233   5.707   0.431
 2394TIP3    H1 7146   2.222   5.786   0.378
 2394TIP3    H2 7147   2.160   5.710   0.493
 2395TIP3   OH2 7148   6.219   4.652   2.073
 2395TIP3    H1 7149   6.297   4.707   2.084
 2395TIP3    H2 7150   6.232   4.580   2.134
 2396TIP3   OH2 7151   1.676   1.133   3.643
 2396TIP3    H1 7152   1.732   1.058   3.662
 2396TIP3    H2 7153   1.655   1.170   3.729
 2397TIP3   OH2 7154   1.647   1.961   4.632
 2397TIP3    H1 7155   1.715   1.991   4.571
 2397TIP3    H2 7156   1.695   1.918   4.703
 2398TIP3   OH2 7157   3.688   1.132   3.629
 2398TIP3    H1 7158   3.771   1.122   3.582
 2398TIP3    H2 7159   3.706   1.098   3.716
 2399TIP3   OH2 7160   5.136   6.410   1.883
 2399TIP3    H1 7161   5.204   6.425   1.948
 2399TIP3    H2 7162   5.171   6.339   1.828
 2400TIP3   OH2 7163   0.785   4.001   1.486
 2400TIP3    H1 7164   0.761   3.920   1.532
 2400TIP3    H2 7165   0.753   3.988   1.397
 2401TIP3   OH2 7166   1.970   5.650   3.988
 2401TIP3    H1 7167   2.054   5.695   3.982
 2401TIP3    H2 7168   1.973   5.584   3.919
 2402TIP3   OH2 7169   3.781   3.727   0.893
 2402TIP3    H1 7170   3.724   3.803   0.884
 2402TIP3    H2 7171   3.867   3.757   0.863
 2403TIP3   OH2 7172   1.150   4.335   4.994
 2403TIP3    H1 7173   1.135   4.241   4.986
 2403TIP3    H2 7174   1.108   4.373   4.917
 2404TIP3   OH2 7175   4.170   1.472   0.315
 2404TIP3    H1 7176   4.226   1.474   0.393
 2404TIP3    H2 7177   4.192   1.552   0.267
 2405TIP3   OH2 7178   6.494   5.065   5.256
 2405TIP3    H1 7179   6.407   5.039   5.226
 2405TIP3    H2 7180   6.549   5.061   5.179
 2406TIP3   OH2 7181   4.710   0.609   3.460
 2406TIP3    H1 7182   4.728   0.515   3.466
 2406TIP3    H2 7183   4.662   0.619   3.377
 2407TIP3   OH2 7184   2.938   1.458   2.517
 2407TIP3    H1 7185   2.983   1.383   2.480
 2407TIP3    H2 7186   2.855   1.462   2.470
 2408TIP3   OH2 7187   2.730   6.617   1.369
 2408TIP3    H1 7188   2.679   6.573   1.437
 2408TIP3    H2 7189   2.709   6.569   1.289
 2409TIP3   OH2 7190   6.381   1.048   5.725
 2409TIP3    H1 7191   6.331   0.978   5.681
 2409TIP3    H2 7192   6.320   1.083   5.789
 2410TIP3   OH2 7193   2.449   1.578   0.635
 2410TIP3    H1 7194   2.500   1.531   0.701
 2410TIP3    H2 7195   2.515   1.619   0.579
 2411TIP3   OH2 7196   6.484   2.755   0.688
 2411TIP3    H1 7197   6.578   2.759   0.671
 2411TIP3    H2 7198   6.454   2.845   0.676
 2412TIP3   OH2 7199   1.847   5.735   4.396
 2412TIP3    H1 7200   1.921   5.687   4.359
 2412TIP3    H2 7201   1.857   5.725   4.491
 2413TIP3   OH2 7202   5.573   4.288   3.684
 2413TIP3    H1 7203   5.555   4.299   3.591
 2413TIP3    H2 7204   5.550   4.372   3.723
 2414TIP3   OH2 7205   1.536   1.227   4.576
 2414TIP3    H1 7206   1.503   1.138   4.578
 2414TIP3    H2 7207   1.458   1.282   4.572
 2415TIP3   OH2 7208   7.059   2.710   1.568
 2415TIP3    H1 7209   7.018   2.796   1.557
 2415TIP3    H2 7210   7.115   2.720   1.645
 2416TIP3   OH2 7211   1.260   2.735   2.202
 2416TIP3    H1 7212   1.328   2.778   2.150
 2416TIP3    H2 7213   1.182   2.788   2.188
 2417TIP3   OH2 7214   6.469   5.030   2.997
 2417TIP3    H1 7215   6.437   5.006   3.084
 2417TIP3    H2 7216   6.397   5.081   2.959
 2418TIP3   OH2 7217   2.382   4.937   1.425
 2418TIP3    H1 7218   2.294   4.933   1.388
 2418TIP3    H2 7219   2.437   4.894   1.360
 2419TIP3   OH2 7220   2.552   1.345   3.524
 2419TIP3    H1 7221   2.505   1.298   3.592
 2419TIP3    H2 7222   2.599   1.414   3.570
 2420TIP3   OH2 7223   4.130   0.818   5.640
 2420TIP3    H1 7224   4.161   0.806   5.729
 2420TIP3    H2 7225   4.072   0.894   5.645
 2421TIP3   OH2 7226   3.389   3.478   4.107
 2421TIP3    H1 7227   3.465   3.465   4.051
 2421TIP3    H2 7228   3.314   3.480   4.047
 2422TIP3   OH2 7229   2.888   6.064   4.862
 2422TIP3    H1 7230   2.944   6.006   4.809
 2422TIP3    H2 7231   2.812   6.082   4.806
 2423TIP3   OH2 7232   3.899   0.803   2.797
 2423TIP3    H1 7233   3.953   0.782   2.873
 2423TIP3    H2 7234   3.825   0.742   2.802
 2424TIP3   OH2 7235   0.977   1.783   4.495
 2424TIP3    H1 7236   0.891   1.771   4.455
 2424TIP3    H2 7237   0.958   1.811   4.585
 2425TIP3   OH2 7238   2.574   2.228   4.488
 2425TIP3    H1 7239   2.655   2.278   4.475
 2425TIP3    H2 7240   2.568   2.217   4.583
 2426TIP3   OH2 7241   2.645   6.115   4.781
 2426TIP3    H1 7242   2.644   6.199   4.827
 2426TIP3    H2 7243   2.579   6.062   4.827
 2427TIP3   OH2 7244   4.844   5.696   4.036
 2427TIP3    H1 7245   4.889   5.750   4.101
 2427TIP3    H2 7246   4.914   5.668   3.977
 2428TIP3   OH2 7247   6.008   3.346   2.325
 2428TIP3    H1 7248   6.093   3.304   2.328
 2428TIP3    H2 7249   5.945   3.275   2.336
 2429TIP3   OH2 7250   2.946   6.280   5.280
 2429TIP3    H1 7251   2.882   6.217   5.314
 2429TIP3    H2 7252   2.913   6.305   5.194
 2430TIP3   OH2 7253   0.177   1.905   2.464
 2430TIP3    H1 7254   0.150   1.856   2.387
 2430TIP3    H2 7255   0.135   1.860   2.537
 2431TIP3   OH2 7256   6.483   0.508   2.487
 2431TIP3    H1 7257   6.517   0.536   2.402
 2431TIP3    H2 7258   6.546   0.541   2.550
 2432TIP3   OH2 7259   4.833   0.254   0.121
 2432TIP3    H1 7260   4.903   0.225   0.063
 2432TIP3    H2 7261   4.784   0.174   0.141
 2433TIP3   OH2 7262   5.661   1.526   4.250
 2433TIP3    H1 7263   5.569   1.505   4.264
 2433TIP3    H2 7264   5.709   1.462   4.302
 2434TIP3   OH2 7265   3.993   3.002   4.361
 2434TIP3    H1 7266   4.072   3.024   4.312
 2434TIP3    H2 7267   4.014   3.025   4.452
 2435TIP3   OH2 7268   2.697   2.398   3.648
 2435TIP3    H1 7269   2.720   2.344   3.723
 2435TIP3    H2 7270   2.605   2.378   3.632
 2436TIP3   OH2 7271   3.776   6.747   0.061
 2436TIP3    H1 7272   3.803   6.662   0.026
 2436TIP3    H2 7273   3.761   6.730   0.154
 2437TIP3   OH2 7274   3.026   4.164   4.090
 2437TIP3    H1 7275   3.058   4.098   4.152
 2437TIP3    H2 7276   2.959   4.118   4.039
 2438TIP3   OH2 7277   6.879   0.088   2.217
 2438TIP3    H1 7278   6.793   0.061   2.248
 2438TIP3    H2 7279   6.921   0.007   2.190
 2439TIP3   OH2 7280   6.219   4.361   0.936
 2439TIP3    H1 7281   6.136   4.392   0.973
 2439TIP3    H2 7282   6.260   4.439   0.900
 2440TIP3   OH2 7283   1.876   5.589   3.064
 2440TIP3    H1 7284   1.943   5.652   3.088
 2440TIP3    H2 7285   1.924   5.515   3.028
 2441TIP3   OH2 7286   3.465   6.483   5.631
 2441TIP3    H1 7287   3.513   6.409   5.594
 2441TIP3    H2 7288   3.378   6.477   5.592
 2442TIP3   OH2 7289   1.161   2.842   3.812
 2442TIP3    H1 7290   1.094   2.834   3.744
 2442TIP3    H2 7291   1.234   2.789   3.779
 2443TIP3   OH2 7292   3.765   5.135   5.768
 2443TIP3    H1 7293   3.777   5.079   5.845
 2443TIP3    H2 7294   3.851   5.174   5.753
 2444TIP3   OH2 7295   5.340   6.568   0.962
 2444TIP3    H1 7296   5.253   6.529   0.960
 2444TIP3    H2 7297   5.339   6.635   0.894
 2445TIP3   OH2 7298   3.076   2.384   3.849
 2445TIP3    H1 7299   3.058   2.421   3.763
 2445TIP3    H2 7300   3.144   2.441   3.886
 2446TIP3   OH2 7301   4.565   5.244   0.535
 2446TIP3    H1 7302   4.519   5.186   0.474
 2446TIP3    H2 7303   4.503   5.256   0.607
 2447TIP3   OH2 7304   4.554   6.797   0.805
 2447TIP3    H1 7305   4.632   6.801   0.750
 2447TIP3    H2 7306   4.492   6.746   0.754
 2448TIP3   OH2 7307   5.206   4.110   4.359
 2448TIP3    H1 7308   5.240   4.029   4.398
 2448TIP3    H2 7309   5.251   4.118   4.276
 2449TIP3   OH2 7310   3.780   2.580   3.891
 2449TIP3    H1 7311   3.874   2.593   3.893
 2449TIP3    H2 7312   3.758   2.545   3.977
 2450TIP3   OH2 7313   7.065   3.510   5.374
 2450TIP3    H1 7314   7.051   3.515   5.280
 2450TIP3    H2 7315   7.075   3.416   5.392
 2451TIP3   OH2 7316   2.105   5.943   0.337
 2451TIP3    H1 7317   2.173   6.001   0.303
 2451TIP3    H2 7318   2.076   5.894   0.261
 2452TIP3   OH2 7319   0.547   6.672   1.511
 2452TIP3    H1 7320   0.558   6.618   1.590
 2452TIP3    H2 7321   0.595   6.625   1.444
 2453TIP3   OH2 7322   3.812   5.492   2.910
 2453TIP3    H1 7323   3.812   5.517   2.818
 2453TIP3    H2 7324   3.834   5.399   2.909
 2454TIP3   OH2 7325   1.179   3.849   5.415
 2454TIP3    H1 7326   1.177   3.867   5.322
 2454TIP3    H2 7327   1.118   3.776   5.426
 2455TIP3   OH2 7328   6.125   4.640   4.676
 2455TIP3    H1 7329   6.058   4.666   4.612
 2455TIP3    H2 7330   6.208   4.645   4.627
 2456TIP3   OH2 7331   1.348   0.239   5.458
 2456TIP3    H1 7332   1.268   0.283   5.487
 2456TIP3    H2 7333   1.340   0.150   5.493
 2457TIP3   OH2 7334   0.219   6.394   0.692
 2457TIP3    H1 7335   0.232   6.392   0.597
 2457TIP3    H2 7336   0.191   6.305   0.713
 2458TIP3   OH2 7337   2.627   6.632   1.735
 2458TIP3    H1 7338   2.591   6.601   1.818
 2458TIP3    H2 7339   2.674   6.712   1.757
 2459TIP3   OH2 7340   6.903   6.070   5.577
 2459TIP3    H1 7341   6.957   6.091   5.501
 2459TIP3    H2 7342   6.939   6.123   5.648
 2460TIP3   OH2 7343   5.513   4.403   2.946
 2460TIP3    H1 7344   5.457   4.481   2.951
 2460TIP3    H2 7345   5.579   4.425   2.880
 2461TIP3   OH2 7346   2.966   2.066   2.518
 2461TIP3    H1 7347   2.947   1.980   2.481
 2461TIP3    H2 7348   3.013   2.048   2.599
 2462TIP3   OH2 7349   6.511   6.117   4.667
 2462TIP3    H1 7350   6.538   6.044   4.612
 2462TIP3    H2 7351   6.517   6.083   4.756
 2463TIP3   OH2 7352   3.963   6.193   4.304
 2463TIP3    H1 7353   3.980   6.101   4.287
 2463TIP3    H2 7354   4.046   6.237   4.284
 2464TIP3   OH2 7355   4.051   0.443   1.424
 2464TIP3    H1 7356   4.133   0.472   1.465
 2464TIP3    H2 7357   4.056   0.478   1.335
 2465TIP3   OH2 7358   6.903   3.987   0.886
 2465TIP3    H1 7359   6.992   4.008   0.914
 2465TIP3    H2 7360   6.857   3.963   0.967
 2466TIP3   OH2 7361   1.446   5.991   1.450
 2466TIP3    H1 7362   1.485   5.982   1.364
 2466TIP3    H2 7363   1.390   5.914   1.459
 2467TIP3   OH2 7364   6.893   1.967   3.798
 2467TIP3    H1 7365   6.813   1.924   3.769
 2467TIP3    H2 7366   6.882   1.978   3.893
 2468TIP3   OH2 7367   5.010   5.681   4.621
 2468TIP3    H1 7368   5.044   5.636   4.543
 2468TIP3    H2 7369   5.062   5.645   4.693
 2469TIP3   OH2 7370   6.956   4.533   2.334
 2469TIP3    H1 7371   6.973   4.472   2.406
 2469TIP3    H2 7372   6.965   4.480   2.255
 2470TIP3   OH2 7373   2.981   4.652   4.017
 2470TIP3    H1 7374   2.955   4.646   4.109
 2470TIP3    H2 7375   3.066   4.608   4.013
 2471TIP3   OH2 7376   2.361   2.549   0.788
 2471TIP3    H1 7377   2.423   2.622   0.791
 2471TIP3    H2 7378   2.275   2.590   0.798
 2472TIP3   OH2 7379   2.256   1.554   2.691
 2472TIP3    H1 7380   2.298   1.640   2.701
 2472TIP3    H2 7381   2.310   1.510   2.625
 2473TIP3   OH2 7382   0.205   2.325   5.107
 2473TIP3    H1 7383   0.283   2.272   5.091
 2473TIP3    H2 7384   0.132   2.269   5.082
 2474TIP3   OH2 7385   3.469   6.674   1.000
 2474TIP3    H1 7386   3.400   6.707   1.057
 2474TIP3    H2 7387   3.440   6.586   0.974
 2475TIP3   OH2 7388   3.825   6.216   1.103
 2475TIP3    H1 7389   3.883   6.290   1.083
 2475TIP3    H2 7390   3.781   6.197   1.020
 2476TIP3   OH2 7391   2.674   3.704   1.364
 2476TIP3    H1 7392   2.651   3.772   1.427
 2476TIP3    H2 7393   2.591   3.674   1.329
 2477TIP3   OH2 7394   4.975   3.815   0.559
 2477TIP3    H1 7395   4.946   3.726   0.574
 2477TIP3    H2 7396   5.049   3.828   0.619
 2478TIP3   OH2 7397   1.797   6.333   2.159
 2478TIP3    H1 7398   1.742   6.322   2.237
 2478TIP3    H2 7399   1.885   6.311   2.189
 2479TIP3   OH2 7400   2.523   4.768   0.346
 2479TIP3    H1 7401   2.583   4.822   0.295
 2479TIP3    H2 7402   2.555   4.678   0.333
 2480TIP3   OH2 7403   5.504   4.275   5.669
 2480TIP3    H1 7404   5.477   4.201   5.724
 2480TIP3    H2 7405   5.596   4.261   5.652
 2481TIP3   OH2 7406   0.823   1.544   1.171
 2481TIP3    H1 7407   0.880   1.527   1.246
 2481TIP3    H2 7408   0.856   1.488   1.101
 2482TIP3   OH2 7409   3.321   3.816   4.754
 2482TIP3    H1 7410   3.282   3.848   4.673
 2482TIP3    H2 7411   3.356   3.730   4.731
 2483TIP3   OH2 7412   5.897   2.291   2.823
 2483TIP3    H1 7413   5.947   2.262   2.747
 2483TIP3    H2 7414   5.838   2.219   2.843
 2484TIP3   OH2 7415   2.851   1.113   1.305
 2484TIP3    H1 7416   2.914   1.161   1.251
 2484TIP3    H2 7417   2.801   1.181   1.350
 2485TIP3   OH2 7418   3.866   1.388   4.666
 2485TIP3    H1 7419   3.883   1.482   4.653
 2485TIP3    H2 7420   3.833   1.383   4.755
 2486TIP3   OH2 7421   4.758   6.070   4.455
 2486TIP3    H1 7422   4.774   6.074   4.361
 2486TIP3    H2 7423   4.841   6.039   4.492
 2487TIP3   OH2 7424   0.999   3.645   4.428
 2487TIP3    H1 7425   0.996   3.632   4.523
 2487TIP3    H2 7426   1.091   3.633   4.405
 2488TIP3   OH2 7427   6.022   0.069   5.739
 2488TIP3    H1 7428   6.090   0.094   5.802
 2488TIP3    H2 7429   5.966   0.146   5.732
 2489TIP3   OH2 7430   0.846   6.751   2.919
 2489TIP3    H1 7431   0.908   6.739   2.847
 2489TIP3    H2 7432   0.902   6.764   2.996
 2490TIP3   OH2 7433   2.937   5.374   0.142
 2490TIP3    H1 7434   2.994   5.298   0.129
 2490TIP3    H2 7435   2.871   5.343   0.205
 2491TIP3   OH2 7436   3.235   5.143   4.118
 2491TIP3    H1 7437   3.182   5.168   4.043
 2491TIP3    H2 7438   3.266   5.055   4.098
 2492TIP3   OH2 7439   1.309   2.529   2.374
 2492TIP3    H1 7440   1.274   2.448   2.337
 2492TIP3    H2 7441   1.276   2.598   2.316
 2493TIP3   OH2 7442   3.177   3.009   4.485
 2493TIP3    H1 7443   3.117   2.982   4.555
 2493TIP3    H2 7444   3.131   3.079   4.440
 2494TIP3   OH2 7445   0.835   6.059   3.741
 2494TIP3    H1 7446   0.740   6.058   3.733
 2494TIP3    H2 7447   0.867   6.090   3.657
 2495TIP3   OH2 7448   6.118   2.419   3.802
 2495TIP3    H1 7449   6.034   2.378   3.819
 2495TIP3    H2 7450   6.101   2.480   3.730
 2496TIP3   OH2 7451   2.754   4.601   3.862
 2496TIP3    H1 7452   2.843   4.608   3.896
 2496TIP3    H2 7453   2.719   4.690   3.869
 2497TIP3   OH2 7454   3.448   6.838   4.605
 2497TIP3    H1 7455   3.518   6.814   4.667
 2497TIP3    H2 7456   3.442   6.763   4.546
 2498TIP3   OH2 7457   5.149   4.262   2.257
 2498TIP3    H1 7458   5.240   4.278   2.284
 2498TIP3    H2 7459   5.145   4.299   2.168
 2499TIP3   OH2 7460   4.133   4.977   4.809
 2499TIP3    H1 7461   4.048   4.989   4.852
 2499TIP3    H2 7462   4.112   4.945   4.722
 2500TIP3   OH2 7463   0.014   1.420   4.608
 2500TIP3    H1 7464  -0.002   1.328   4.589
 2500TIP3    H2 7465  -0.026   1.467   4.534
 2501TIP3   OH2 7466   1.858   0.292   3.560
 2501TIP3    H1 7467   1.802   0.361   3.595
 2501TIP3    H2 7468   1.815   0.265   3.479
 2502TIP3   OH2 7469   4.207   6.662   1.857
 2502TIP3    H1 7470   4.120   6.648   1.896
 2502TIP3    H2 7471   4.247   6.575   1.857
 2503TIP3   OH2 7472   6.468   1.219   1.813
 2503TIP3    H1 7473   6.499   1.195   1.901
 2503TIP3    H2 7474   6.379   1.185   1.809
 2504TIP3   OH2 7475   1.684   4.606   0.102
 2504TIP3    H1 7476   1.601   4.568   0.073
 2504TIP3    H2 7477   1.704   4.560   0.183
 2505TIP3   OH2 7478   0.101   4.356   3.516
 2505TIP3    H1 7479   0.162   4.310   3.573
 2505TIP3    H2 7480   0.018   4.356   3.564
 2506TIP3   OH2 7481   1.700   3.340   3.694
 2506TIP3    H1 7482   1.734   3.429   3.687
 2506TIP3    H2 7483   1.673   3.317   3.606
 2507TIP3   OH2 7484   0.047   3.203   5.755
 2507TIP3    H1 7485   0.093   3.273   5.709
 2507TIP3    H2 7486  -0.034   3.245   5.786
 2508TIP3   OH2 7487   6.249   2.946   3.985
 2508TIP3    H1 7488   6.196   2.895   3.925
 2508TIP3    H2 7489   6.215   2.925   4.072
 2509TIP3   OH2 7490   6.899   0.227   1.802
 2509TIP3    H1 7491   6.835   0.221   1.872
 2509TIP3    H2 7492   6.910   0.321   1.787
 2510TIP3   OH2 7493   0.673   5.041   1.216
 2510TIP3    H1 7494   0.724   5.106   1.264
 2510TIP3    H2 7495   0.608   5.093   1.168
 2511TIP3   OH2 7496   0.198   5.114   2.208
 2511TIP3    H1 7497   0.218   5.195   2.255
 2511TIP3    H2 7498   0.280   5.092   2.162
 2512TIP3   OH2 7499   5.309   6.462   4.895
 2512TIP3    H1 7500   5.293   6.556   4.906
 2512TIP3    H2 7501   5.383   6.457   4.835
 2513TIP3   OH2 7502   3.025   3.027   1.009
 2513TIP3    H1 7503   3.004   3.088   1.079
 2513TIP3    H2 7504   3.118   3.042   0.992
 2514TIP3   OH2 7505   7.210   3.677   4.160
 2514TIP3    H1 7506   7.164   3.693   4.242
 2514TIP3    H2 7507   7.222   3.763   4.120
 2515TIP3   OH2 7508   5.184   2.098   0.819
 2515TIP3    H1 7509   5.205   2.133   0.905
 2515TIP3    H2 7510   5.171   2.004   0.833
 2516TIP3   OH2 7511   5.318   3.436   5.257
 2516TIP3    H1 7512   5.369   3.507   5.296
 2516TIP3    H2 7513   5.316   3.456   5.163
 2517TIP3   OH2 7514   3.801   5.496   2.362
 2517TIP3    H1 7515   3.751   5.570   2.328
 2517TIP3    H2 7516   3.858   5.471   2.290
 2518TIP3   OH2 7517   3.494   4.420   5.564
 2518TIP3    H1 7518   3.485   4.506   5.606
 2518TIP3    H2 7519   3.470   4.358   5.633
 2519TIP3   OH2 7520   3.464   1.572   3.660
 2519TIP3    H1 7521   3.447   1.558   3.753
 2519TIP3    H2 7522   3.475   1.666   3.651
 2520TIP3   OH2 7523   1.828   2.423   3.678
 2520TIP3    H1 7524   1.857   2.332   3.679
 2520TIP3    H2 7525   1.771   2.431   3.755
 2521TIP3   OH2 7526   0.327   5.913   0.927
 2521TIP3    H1 7527   0.387   5.850   0.890
 2521TIP3    H2 7528   0.298   5.966   0.853
 2522TIP3   OH2 7529   0.041   6.165   4.493
 2522TIP3    H1 7530   0.089   6.164   4.410
 2522TIP3    H2 7531   0.069   6.246   4.536
 2523TIP3   OH2 7532   2.261   4.387   2.458
 2523TIP3    H1 7533   2.208   4.462   2.487
 2523TIP3    H2 7534   2.253   4.324   2.530
 2524TIP3   OH2 7535   4.342   2.743   0.598
 2524TIP3    H1 7536   4.400   2.689   0.652
 2524TIP3    H2 7537   4.289   2.791   0.662
 2525TIP3   OH2 7538   6.417   2.907   2.657
 2525TIP3    H1 7539   6.498   2.896   2.606
 2525TIP3    H2 7540   6.380   2.818   2.660
 2526TIP3   OH2 7541   2.290   5.726   2.765
 2526TIP3    H1 7542   2.222   5.681   2.714
 2526TIP3    H2 7543   2.335   5.655   2.812
 2527TIP3   OH2 7544   0.560   2.214   3.057
 2527TIP3    H1 7545   0.532   2.156   3.127
 2527TIP3    H2 7546   0.569   2.300   3.100
 2528TIP3   OH2 7547   2.140   2.691   5.828
 2528TIP3    H1 7548   2.192   2.620   5.790
 2528TIP3    H2 7549   2.058   2.689   5.778
 2529TIP3   OH2 7550   6.720   0.626   0.187
 2529TIP3    H1 7551   6.761   0.549   0.149
 2529TIP3    H2 7552   6.630   0.624   0.156
 2530TIP3   OH2 7553   4.025   4.461   3.062
 2530TIP3    H1 7554   3.963   4.400   3.102
 2530TIP3    H2 7555   4.111   4.430   3.092
 2531TIP3   OH2 7556   1.086   6.456   2.880
 2531TIP3    H1 7557   1.102   6.447   2.974
 2531TIP3    H2 7558   1.100   6.368   2.845
 2532TIP3   OH2 7559   4.589   1.032   2.648
 2532TIP3    H1 7560   4.504   1.041   2.605
 2532TIP3    H2 7561   4.610   1.120   2.679
 2533TIP3   OH2 7562   4.275   5.876   3.299
 2533TIP3    H1 7563   4.315   5.790   3.284
 2533TIP3    H2 7564   4.296   5.896   3.391
 2534TIP3   OH2 7565   6.187   0.971   2.351
 2534TIP3    H1 7566   6.159   0.910   2.420
 2534TIP3    H2 7567   6.269   0.933   2.318
 2535TIP3   OH2 7568   0.019   5.673   4.023
 2535TIP3    H1 7569  -0.051   5.729   3.990
 2535TIP3    H2 7570   0.058   5.635   3.944
 2536TIP3   OH2 7571   4.446   1.499   2.825
 2536TIP3    H1 7572   4.440   1.426   2.762
 2536TIP3    H2 7573   4.398   1.469   2.902
 2537TIP3   OH2 7574   6.698   6.245   3.809
 2537TIP3    H1 7575   6.647   6.167   3.791
 2537TIP3    H2 7576   6.646   6.317   3.773
 2538TIP3   OH2 7577   4.992   4.954   0.637
 2538TIP3    H1 7578   4.948   4.905   0.567
 2538TIP3    H2 7579   4.941   5.035   0.645
 2539TIP3   OH2 7580   6.233   1.532   0.289
 2539TIP3    H1 7581   6.161   1.593   0.276
 2539TIP3    H2 7582   6.234   1.515   0.383
 2540TIP3   OH2 7583   2.177   2.984   0.039
 2540TIP3    H1 7584   2.104   3.041   0.064
 2540TIP3    H2 7585   2.164   2.905   0.090
 2541TIP3   OH2 7586   3.327   0.429   4.001
 2541TIP3    H1 7587   3.272   0.505   3.977
 2541TIP3    H2 7588   3.394   0.426   3.933
 2542TIP3   OH2 7589   0.145   1.988   2.028
 2542TIP3    H1 7590   0.198   2.065   2.047
 2542TIP3    H2 7591   0.208   1.919   2.007
 2543TIP3   OH2 7592   0.574   1.951   4.256
 2543TIP3    H1 7593   0.605   1.993   4.337
 2543TIP3    H2 7594   0.513   1.884   4.287
 2544TIP3   OH2 7595   5.644   5.060   5.187
 2544TIP3    H1 7596   5.587   5.121   5.141
 2544TIP3    H2 7597   5.604   5.051   5.274
 2545TIP3   OH2 7598   3.098   4.053   2.437
 2545TIP3    H1 7599   3.041   4.077   2.364
 2545TIP3    H2 7600   3.168   4.119   2.434
 2546TIP3   OH2 7601   6.890   3.295   2.947
 2546TIP3    H1 7602   6.894   3.358   3.019
 2546TIP3    H2 7603   6.801   3.259   2.951
 2547TIP3   OH2 7604   0.986   5.826   3.910
 2547TIP3    H1 7605   0.929   5.881   3.856
 2547TIP3    H2 7606   1.020   5.885   3.977
 2548TIP3   OH2 7607   3.691   6.123   4.575
 2548TIP3    H1 7608   3.606   6.167   4.567
 2548TIP3    H2 7609   3.726   6.123   4.486
 2549TIP3   OH2 7610   6.081   3.954   5.957
 2549TIP3    H1 7611   6.033   3.874   5.935
 2549TIP3    H2 7612   6.136   3.970   5.880
 2550TIP3   OH2 7613   4.226   2.238   3.054
 2550TIP3    H1 7614   4.270   2.176   3.113
 2550TIP3    H2 7615   4.262   2.217   2.968
 2551TIP3   OH2 7616   1.232   4.834   4.541
 2551TIP3    H1 7617   1.157   4.786   4.505
 2551TIP3    H2 7618   1.197   4.919   4.566
 2552TIP3   OH2 7619   6.188   3.307   1.395
 2552TIP3    H1 7620   6.243   3.295   1.317
 2552TIP3    H2 7621   6.217   3.239   1.455
 2553TIP3   OH2 7622   4.665   3.993   3.070
 2553TIP3    H1 7623   4.732   3.973   3.136
 2553TIP3    H2 7624   4.684   3.933   2.998
 2554TIP3   OH2 7625   0.396   6.084   2.966
 2554TIP3    H1 7626   0.428   6.170   2.994
 2554TIP3    H2 7627   0.349   6.101   2.884
 2555TIP3   OH2 7628   6.173   2.202   2.499
 2555TIP3    H1 7629   6.132   2.281   2.535
 2555TIP3    H2 7630   6.108   2.133   2.514
 2556TIP3   OH2 7631   4.209   0.436   1.669
 2556TIP3    H1 7632   4.295   0.470   1.645
 2556TIP3    H2 7633   4.158   0.514   1.693
 2557TIP3   OH2 7634   1.141   6.891   3.039
 2557TIP3    H1 7635   1.202   6.824   3.007
 2557TIP3    H2 7636   1.149   6.887   3.134
 2558TIP3   OH2 7637   1.758   3.004   4.280
 2558TIP3    H1 7638   1.739   3.015   4.187
 2558TIP3    H2 7639   1.848   3.035   4.290
 2559TIP3   OH2 7640   2.339   2.206   2.595
 2559TIP3    H1 7641   2.261   2.177   2.643
 2559TIP3    H2 7642   2.338   2.155   2.515
 2560TIP3   OH2 7643   2.478   2.628   0.501
 2560TIP3    H1 7644   2.424   2.553   0.526
 2560TIP3    H2 7645   2.419   2.686   0.453
 2561TIP3   OH2 7646   5.238   1.017   5.584
 2561TIP3    H1 7647   5.181   1.093   5.596
 2561TIP3    H2 7648   5.178   0.942   5.586
 2562TIP3   OH2 7649   6.263   6.141   3.137
 2562TIP3    H1 7650   6.352   6.171   3.123
 2562TIP3    H2 7651   6.219   6.214   3.180
 2563TIP3   OH2 7652   4.448   5.387   1.102
 2563TIP3    H1 7653   4.447   5.471   1.056
 2563TIP3    H2 7654   4.361   5.381   1.143
 2564TIP3   OH2 7655   1.860   3.420   4.431
 2564TIP3    H1 7656   1.867   3.507   4.470
 2564TIP3    H2 7657   1.785   3.425   4.373
 2565TIP3   OH2 7658   1.996   1.922   5.490
 2565TIP3    H1 7659   2.057   1.850   5.473
 2565TIP3    H2 7660   1.953   1.897   5.572
 2566TIP3   OH2 7661   2.432   5.226   4.953
 2566TIP3    H1 7662   2.453   5.187   5.038
 2566TIP3    H2 7663   2.513   5.270   4.926
 2567TIP3   OH2 7664   1.031   4.122   2.059
 2567TIP3    H1 7665   1.100   4.175   2.018
 2567TIP3    H2 7666   0.972   4.186   2.098
 2568TIP3   OH2 7667   6.531   3.875   0.296
 2568TIP3    H1 7668   6.570   3.874   0.209
 2568TIP3    H2 7669   6.578   3.808   0.345
 2569TIP3   OH2 7670   6.273   4.486   1.857
 2569TIP3    H1 7671   6.184   4.468   1.826
 2569TIP3    H2 7672   6.263   4.555   1.922
 2570TIP3   OH2 7673   4.351   1.805   5.803
 2570TIP3    H1 7674   4.391   1.826   5.887
 2570TIP3    H2 7675   4.258   1.793   5.823
 2571TIP3   OH2 7676   3.902   0.480   2.267
 2571TIP3    H1 7677   3.983   0.522   2.238
 2571TIP3    H2 7678   3.925   0.443   2.353
 2572TIP3   OH2 7679   4.517   5.436   3.156
 2572TIP3    H1 7680   4.489   5.371   3.092
 2572TIP3    H2 7681   4.612   5.441   3.144
 2573TIP3   OH2 7682   3.406   3.819   3.008
 2573TIP3    H1 7683   3.352   3.795   2.933
 2573TIP3    H2 7684   3.458   3.741   3.027
 2574TIP3   OH2 7685   4.652   2.787   0.987
 2574TIP3    H1 7686   4.645   2.812   0.895
 2574TIP3    H2 7687   4.640   2.692   0.986
 2575TIP3   OH2 7688   2.592   3.948   4.182
 2575TIP3    H1 7689   2.541   3.982   4.256
 2575TIP3    H2 7690   2.571   3.855   4.179
 2576TIP3   OH2 7691   6.236   1.312   2.281
 2576TIP3    H1 7692   6.176   1.252   2.236
 2576TIP3    H2 7693   6.298   1.339   2.213
 2577TIP3   OH2 7694   0.775   4.311   0.295
 2577TIP3    H1 7695   0.853   4.310   0.238
 2577TIP3    H2 7696   0.780   4.229   0.343
 2578TIP3   OH2 7697   4.135   6.015   2.477
 2578TIP3    H1 7698   4.187   6.033   2.555
 2578TIP3    H2 7699   4.173   5.935   2.440
 2579TIP3   OH2 7700   6.646   4.270   3.197
 2579TIP3    H1 7701   6.727   4.316   3.174
 2579TIP3    H2 7702   6.628   4.214   3.122
 2580TIP3   OH2 7703   0.997   4.825   4.361
 2580TIP3    H1 7704   1.013   4.796   4.271
 2580TIP3    H2 7705   0.923   4.772   4.390
 2581TIP3   OH2 7706   6.861   1.401   4.860
 2581TIP3    H1 7707   6.766   1.392   4.861
 2581TIP3    H2 7708   6.877   1.491   4.833
 2582TIP3   OH2 7709   4.814   5.497   0.666
 2582TIP3    H1 7710   4.854   5.410   0.667
 2582TIP3    H2 7711   4.735   5.488   0.612
 2583TIP3   OH2 7712   6.790   2.138   5.411
 2583TIP3    H1 7713   6.788   2.215   5.468
 2583TIP3    H2 7714   6.727   2.078   5.448
 2584TIP3   OH2 7715   2.559   3.258   4.661
 2584TIP3    H1 7716   2.515   3.248   4.746
 2584TIP3    H2 7717   2.650   3.232   4.679
 2585TIP3   OH2 7718   1.863   6.103   4.665
 2585TIP3    H1 7719   1.849   6.197   4.677
 2585TIP3    H2 7720   1.923   6.098   4.590
 2586TIP3   OH2 7721   3.360   6.428   2.845
 2586TIP3    H1 7722   3.376   6.520   2.827
 2586TIP3    H2 7723   3.444   6.395   2.878
 2587TIP3   OH2 7724   6.978   3.351   4.089
 2587TIP3    H1 7725   6.977   3.259   4.061
 2587TIP3    H2 7726   7.066   3.381   4.067
 2588TIP3   OH2 7727   0.166   3.384   5.595
 2588TIP3    H1 7728   0.160   3.376   5.500
 2588TIP3    H2 7729   0.150   3.477   5.612
 2589TIP3   OH2 7730   2.317   1.879   4.524
 2589TIP3    H1 7731   2.234   1.884   4.476
 2589TIP3    H2 7732   2.299   1.820   4.597
 2590TIP3   OH2 7733   0.469   3.979   0.290
 2590TIP3    H1 7734   0.563   3.999   0.291
 2590TIP3    H2 7735   0.428   4.064   0.275
 2591TIP3   OH2 7736   1.877   4.589   1.707
 2591TIP3    H1 7737   1.916   4.550   1.785
 2591TIP3    H2 7738   1.919   4.675   1.700
 2592TIP3   OH2 7739   6.682   0.292   4.476
 2592TIP3    H1 7740   6.598   0.246   4.477
 2592TIP3    H2 7741   6.668   0.371   4.528
 2593TIP3   OH2 7742   1.894   3.662   4.539
 2593TIP3    H1 7743   1.944   3.722   4.595
 2593TIP3    H2 7744   1.834   3.718   4.490
 2594TIP3   OH2 7745   4.511   0.437   4.496
 2594TIP3    H1 7746   4.516   0.458   4.589
 2594TIP3    H2 7747   4.418   0.438   4.476
 2595TIP3   OH2 7748   3.951   3.362   4.840
 2595TIP3    H1 7749   4.019   3.337   4.903
 2595TIP3    H2 7750   3.914   3.443   4.875
 2596TIP3   OH2 7751   5.613   1.472   2.102
 2596TIP3    H1 7752   5.686   1.488   2.161
 2596TIP3    H2 7753   5.652   1.426   2.027
 2597TIP3   OH2 7754   0.303   6.702   3.714
 2597TIP3    H1 7755   0.284   6.701   3.620
 2597TIP3    H2 7756   0.222   6.734   3.755
 2598TIP3   OH2 7757   3.171   3.080   3.789
 2598TIP3    H1 7758   3.225   3.007   3.820
 2598TIP3    H2 7759   3.205   3.157   3.835
 2599TIP3   OH2 7760   6.838   2.944   1.709
 2599TIP3    H1 7761   6.855   2.967   1.618
 2599TIP3    H2 7762   6.746   2.967   1.724
 2600TIP3   OH2 7763   6.335   1.090   2.914
 2600TIP3    H1 7764   6.270   1.022   2.897
 2600TIP3    H2 7765   6.372   1.067   2.999
 2601TIP3   OH2 7766   3.588   4.821   0.987
 2601TIP3    H1 7767   3.647   4.859   0.922
 2601TIP3    H2 7768   3.639   4.753   1.030
 2602TIP3   OH2 7769   5.401   2.358   4.035
 2602TIP3    H1 7770   5.328   2.334   3.979
 2602TIP3    H2 7771   5.478   2.321   3.991
 2603TIP3   OH2 7772   5.321   5.435   4.303
 2603TIP3    H1 7773   5.386   5.408   4.366
 2603TIP3    H2 7774   5.258   5.363   4.300
 2604TIP3   OH2 7775   0.199   3.478   1.520
 2604TIP3    H1 7776   0.187   3.567   1.487
 2604TIP3    H2 7777   0.110   3.442   1.523
 2605TIP3   OH2 7778   3.506   5.525   0.105
 2605TIP3    H1 7779   3.432   5.576   0.072
 2605TIP3    H2 7780   3.551   5.494   0.027
 2606TIP3   OH2 7781   2.125   6.313   0.417
 2606TIP3    H1 7782   2.035   6.303   0.450
 2606TIP3    H2 7783   2.180   6.276   0.486
 2607TIP3   OH2 7784   4.103   3.053   5.518
 2607TIP3    H1 7785   4.069   3.140   5.539
 2607TIP3    H2 7786   4.029   3.007   5.478
 2608TIP3   OH2 7787   7.216   5.322   4.283
 2608TIP3    H1 7788   7.237   5.324   4.190
 2608TIP3    H2 7789   7.259   5.399   4.319
 2609TIP3   OH2 7790   3.272   3.563   1.330
 2609TIP3    H1 7791   3.187   3.607   1.327
 2609TIP3    H2 7792   3.253   3.476   1.365
 2610TIP3   OH2 7793   2.164   0.895   0.673
 2610TIP3    H1 7794   2.172   0.971   0.616
 2610TIP3    H2 7795   2.248   0.849   0.663
 2611TIP3   OH2 7796   0.442   6.032   0.375
 2611TIP3    H1 7797   0.377   5.969   0.343
 2611TIP3    H2 7798   0.435   6.107   0.315
 2612TIP3   OH2 7799   6.339   0.996   3.192
 2612TIP3    H1 7800   6.415   0.994   3.249
 2612TIP3    H2 7801   6.284   1.066   3.227
 2613TIP3   OH2 7802   5.634   3.163   2.629
 2613TIP3    H1 7803   5.612   3.076   2.596
 2613TIP3    H2 7804   5.552   3.199   2.661
 2614TIP3   OH2 7805   1.071   5.122   2.221
 2614TIP3    H1 7806   1.054   5.143   2.313
 2614TIP3    H2 7807   1.110   5.035   2.223
 2615TIP3   OH2 7808   6.811   5.435   2.299
 2615TIP3    H1 7809   6.751   5.509   2.296
 2615TIP3    H2 7810   6.871   5.449   2.226
 2616TIP3   OH2 7811   0.374   2.357   5.478
 2616TIP3    H1 7812   0.459   2.391   5.507
 2616TIP3    H2 7813   0.318   2.434   5.470
 2617TIP3   OH2 7814   2.831   2.173   3.164
 2617TIP3    H1 7815   2.850   2.218   3.082
 2617TIP3    H2 7816   2.790   2.240   3.219
 2618TIP3   OH2 7817   6.392   6.151   5.585
 2618TIP3    H1 7818   6.472   6.173   5.631
 2618TIP3    H2 7819   6.421   6.099   5.510
 2619TIP3   OH2 7820   3.659   2.460   2.143
 2619TIP3    H1 7821   3.668   2.365   2.158
 2619TIP3    H2 7822   3.633   2.496   2.227
 2620TIP3   OH2 7823   1.246   1.411   4.972
 2620TIP3    H1 7824   1.276   1.348   4.906
 2620TIP3    H2 7825   1.237   1.493   4.925
 2621TIP3   OH2 7826   5.898   4.953   0.541
 2621TIP3    H1 7827   5.843   4.879   0.513
 2621TIP3    H2 7828   5.839   5.028   0.537
 2622TIP3   OH2 7829   4.186   5.168   2.618
 2622TIP3    H1 7830   4.150   5.255   2.638
 2622TIP3    H2 7831   4.154   5.112   2.688
 2623TIP3   OH2 7832   5.654   3.040   4.419
 2623TIP3    H1 7833   5.559   3.042   4.405
 2623TIP3    H2 7834   5.665   3.005   4.507
 2624TIP3   OH2 7835   6.278   6.693   2.121
 2624TIP3    H1 7836   6.269   6.672   2.214
 2624TIP3    H2 7837   6.223   6.771   2.109
 2625TIP3   OH2 7838   7.045   4.535   1.836
 2625TIP3    H1 7839   7.140   4.541   1.848
 2625TIP3    H2 7840   7.008   4.569   1.917
 2626TIP3   OH2 7841   5.177   2.770   0.332
 2626TIP3    H1 7842   5.233   2.705   0.292
 2626TIP3    H2 7843   5.181   2.845   0.272
 2627TIP3   OH2 7844   3.158   0.224   2.905
 2627TIP3    H1 7845   3.191   0.135   2.920
 2627TIP3    H2 7846   3.224   0.265   2.849
 2628TIP3   OH2 7847   3.999   4.611   5.257
 2628TIP3    H1 7848   4.050   4.548   5.308
 2628TIP3    H2 7849   3.912   4.609   5.297
 2629TIP3   OH2 7850   5.423   2.914   4.704
 2629TIP3    H1 7851   5.396   2.856   4.776
 2629TIP3    H2 7852   5.502   2.872   4.669
 2630TIP3   OH2 7853   1.803   6.612   2.237
 2630TIP3    H1 7854   1.770   6.696   2.270
 2630TIP3    H2 7855   1.730   6.551   2.247
 2631TIP3   OH2 7856   4.842   3.998   0.903
 2631TIP3    H1 7857   4.771   4.063   0.909
 2631TIP3    H2 7858   4.800   3.915   0.925
 2632TIP3   OH2 7859   0.868   5.324   2.090
 2632TIP3    H1 7860   0.911   5.243   2.120
 2632TIP3    H2 7861   0.776   5.311   2.112
 2633TIP3   OH2 7862   1.252   6.161   3.943
 2633TIP3    H1 7863   1.178   6.127   3.992
 2633TIP3    H2 7864   1.295   6.083   3.907
 2634TIP3   OH2 7865   4.155   0.952   4.016
 2634TIP3    H1 7866   4.235   0.900   4.007
 2634TIP3    H2 7867   4.095   0.896   4.065
 2635TIP3   OH2 7868   2.062   6.394   1.754
 2635TIP3    H1 7869   2.062   6.298   1.756
 2635TIP3    H2 7870   1.970   6.418   1.763
 2636TIP3   OH2 7871   4.997   3.174   4.521
 2636TIP3    H1 7872   4.960   3.260   4.538
 2636TIP3    H2 7873   5.034   3.147   4.605
 2637TIP3   OH2 7874   7.121   1.803   4.608
 2637TIP3    H1 7875   7.078   1.802   4.522
 2637TIP3    H2 7876   7.051   1.782   4.670
 2638TIP3   OH2 7877   0.292   2.750   1.143
 2638TIP3    H1 7878   0.221   2.687   1.154
 2638TIP3    H2 7879   0.367   2.698   1.116
 2639TIP3   OH2 7880   5.255   0.374   1.720
 2639TIP3    H1 7881   5.173   0.325   1.732
 2639TIP3    H2 7882   5.310   0.315   1.668
 2640TIP3   OH2 7883   6.295   1.932   5.012
 2640TIP3    H1 7884   6.345   2.004   5.051
 2640TIP3    H2 7885   6.353   1.897   4.944
 2641TIP3   OH2 7886   5.412   1.497   1.872
 2641TIP3    H1 7887   5.370   1.583   1.872
 2641TIP3    H2 7888   5.474   1.500   1.945
 2642TIP3   OH2 7889   6.850   4.293   5.228
 2642TIP3    H1 7890   6.821   4.310   5.318
 2642TIP3    H2 7891   6.888   4.377   5.200
 2643TIP3   OH2 7892   0.812   2.315   0.537
 2643TIP3    H1 7893   0.840   2.279   0.453
 2643TIP3    H2 7894   0.888   2.303   0.595
 2644TIP3   OH2 7895   4.961   6.629   0.418
 2644TIP3    H1 7896   4.878   6.583   0.401
 2644TIP3    H2 7897   5.015   6.610   0.341
 2645TIP3   OH2 7898   5.646   2.175  -0.021
 2645TIP3    H1 7899   5.656   2.152   0.071
 2645TIP3    H2 7900   5.587   2.109  -0.057
 2646TIP3   OH2 7901   6.459   1.617   0.092
 2646TIP3    H1 7902   6.468   1.682   0.022
 2646TIP3    H2 7903   6.463   1.668   0.173
 2647TIP3   OH2 7904   2.193   3.982   0.673
 2647TIP3    H1 7905   2.281   4.003   0.643
 2647TIP3    H2 7906   2.141   3.974   0.593
 2648TIP3   OH2 7907   0.223   3.879   0.044
 2648TIP3    H1 7908   0.197   3.786   0.043
 2648TIP3    H2 7909   0.230   3.902  -0.048
 2649TIP3   OH2 7910   5.493   2.871   3.104
 2649TIP3    H1 7911   5.453   2.832   3.026
 2649TIP3    H2 7912   5.517   2.960   3.077
 2650TIP3   OH2 7913   3.124   1.652   0.294
 2650TIP3    H1 7914   3.149   1.729   0.243
 2650TIP3    H2 7915   3.189   1.650   0.365
 2651TIP3   OH2 7916   1.516   4.837   3.804
 2651TIP3    H1 7917   1.465   4.859   3.882
 2651TIP3    H2 7918   1.515   4.916   3.751
 2652TIP3   OH2 7919   4.409   1.699   1.353
 2652TIP3    H1 7920   4.389   1.792   1.339
 2652TIP3    H2 7921   4.504   1.697   1.365
 2653TIP3   OH2 7922   4.633   1.911   3.521
 2653TIP3    H1 7923   4.649   1.858   3.599
 2653TIP3    H2 7924   4.717   1.954   3.504
 2654TIP3   OH2 7925   6.644   2.108   1.273
 2654TIP3    H1 7926   6.641   2.013   1.281
 2654TIP3    H2 7927   6.666   2.140   1.360
 2655TIP3   OH2 7928   2.857   4.432   1.650
 2655TIP3    H1 7929   2.842   4.416   1.557
 2655TIP3    H2 7930   2.860   4.345   1.689
 2656TIP3   OH2 7931   3.866   2.549   4.579
 2656TIP3    H1 7932   3.772   2.546   4.594
 2656TIP3    H2 7933   3.882   2.637   4.544
 2657TIP3   OH2 7934   3.420   0.319   3.200
 2657TIP3    H1 7935   3.459   0.406   3.210
 2657TIP3    H2 7936   3.490   0.259   3.226
 2658TIP3   OH2 7937   0.820   6.322   3.218
 2658TIP3    H1 7938   0.745   6.372   3.251
 2658TIP3    H2 7939   0.782   6.243   3.181
 2659TIP3   OH2 7940   1.071   5.699   4.837
 2659TIP3    H1 7941   0.980   5.673   4.843
 2659TIP3    H2 7942   1.099   5.670   4.750
 2660TIP3   OH2 7943   1.238   2.761   0.504
 2660TIP3    H1 7944   1.188   2.842   0.493
 2660TIP3    H2 7945   1.200   2.701   0.441
 2661TIP3   OH2 7946   6.266   5.381   1.624
 2661TIP3    H1 7947   6.242   5.460   1.672
 2661TIP3    H2 7948   6.195   5.368   1.561
 2662TIP3   OH2 7949   3.133   4.326   3.887
 2662TIP3    H1 7950   3.059   4.355   3.833
 2662TIP3    H2 7951   3.093   4.272   3.955
 2663TIP3   OH2 7952   3.184   3.391   4.530
 2663TIP3    H1 7953   3.201   3.480   4.498
 2663TIP3    H2 7954   3.124   3.353   4.466
 2664TIP3   OH2 7955   0.483   2.006   0.687
 2664TIP3    H1 7956   0.467   2.067   0.615
 2664TIP3    H2 7957   0.424   1.932   0.670
 2665TIP3   OH2 7958   3.168   1.992   5.299
 2665TIP3    H1 7959   3.218   2.068   5.329
 2665TIP3    H2 7960   3.210   1.917   5.341
 2666TIP3   OH2 7961   6.279   5.702   0.906
 2666TIP3    H1 7962   6.256   5.632   0.845
 2666TIP3    H2 7963   6.195   5.737   0.935
 2667TIP3   OH2 7964   3.178   6.297   2.265
 2667TIP3    H1 7965   3.198   6.274   2.175
 2667TIP3    H2 7966   3.123   6.224   2.296
 2668TIP3   OH2 7967   1.820   2.050   4.455
 2668TIP3    H1 7968   1.762   2.125   4.442
 2668TIP3    H2 7969   1.899   2.072   4.407
 2669TIP3   OH2 7970   6.698   2.151   2.603
 2669TIP3    H1 7971   6.611   2.191   2.593
 2669TIP3    H2 7972   6.681   2.057   2.608
 2670TIP3   OH2 7973   2.453   1.696   1.008
 2670TIP3    H1 7974   2.369   1.705   0.964
 2670TIP3    H2 7975   2.450   1.761   1.079
 2671TIP3   OH2 7976   0.116   2.548   1.204
 2671TIP3    H1 7977   0.028   2.579   1.182
 2671TIP3    H2 7978   0.112   2.530   1.298
 2672TIP3   OH2 7979   6.576   5.562   1.997
 2672TIP3    H1 7980   6.556   5.631   1.933
 2672TIP3    H2 7981   6.645   5.510   1.956
 2673TIP3   OH2 7982   5.799   4.736   0.180
 2673TIP3    H1 7983   5.760   4.748   0.267
 2673TIP3    H2 7984   5.873   4.677   0.195
 2674TIP3   OH2 7985   4.767   2.606   2.057
 2674TIP3    H1 7986   4.685   2.567   2.025
 2674TIP3    H2 7987   4.755   2.700   2.045
 2675TIP3   OH2 7988   4.412   3.801   3.214
 2675TIP3    H1 7989   4.480   3.863   3.237
 2675TIP3    H2 7990   4.344   3.814   3.281
 2676TIP3   OH2 7991   3.745   4.011   4.227
 2676TIP3    H1 7992   3.787   3.933   4.261
 2676TIP3    H2 7993   3.745   4.073   4.301
 2677TIP3   OH2 7994   2.945   4.387   0.179
 2677TIP3    H1 7995   3.026   4.376   0.229
 2677TIP3    H2 7996   2.951   4.321   0.110
 2678TIP3   OH2 7997   0.582   0.089   4.631
 2678TIP3    H1 7998   0.570   0.175   4.672
 2678TIP3    H2 7999   0.494   0.050   4.631
 2679TIP3   OH2 8000   3.299   5.648   0.497
 2679TIP3    H1 8001   3.355   5.576   0.467
 2679TIP3    H2 8002   3.278   5.697   0.418
 2680TIP3   OH2 8003   0.784   4.531   2.272
 2680TIP3    H1 8004   0.690   4.530   2.252
 2680TIP3    H2 8005   0.789   4.510   2.365
 2681TIP3   OH2 8006   3.624   3.681   1.831
 2681TIP3    H1 8007   3.556   3.746   1.850
 2681TIP3    H2 8008   3.696   3.732   1.794
 2682TIP3   OH2 8009   1.136   0.636   2.062
 2682TIP3    H1 8010   1.043   0.651   2.044
 2682TIP3    H2 8011   1.152   0.683   2.144
 2683TIP3   OH2 8012   0.213   5.673   1.727
 2683TIP3    H1 8013   0.272   5.660   1.801
 2683TIP3    H2 8014   0.181   5.763   1.737
 2684TIP3   OH2 8015   7.046   3.758   1.159
 2684TIP3    H1 8016   7.092   3.752   1.242
 2684TIP3    H2 8017   7.000   3.842   1.162
 2685TIP3   OH2 8018   5.305   5.890   1.410
 2685TIP3    H1 8019   5.371   5.901   1.342
 2685TIP3    H2 8020   5.349   5.921   1.490
 2686TIP3   OH2 8021   5.054   3.215   3.957
 2686TIP3    H1 8022   5.130   3.173   3.997
 2686TIP3    H2 8023   5.020   3.150   3.895
 2687TIP3   OH2 8024   5.595   0.717   5.382
 2687TIP3    H1 8025   5.562   0.790   5.434
 2687TIP3    H2 8026   5.518   0.661   5.367
 2688TIP3   OH2 8027   5.996   6.018   0.686
 2688TIP3    H1 8028   5.958   5.937   0.651
 2688TIP3    H2 8029   5.922   6.061   0.730
 2689TIP3   OH2 8030   0.552   3.939   5.640
 2689TIP3    H1 8031   0.623   3.933   5.576
 2689TIP3    H2 8032   0.473   3.916   5.591
 2690TIP3   OH2 8033   2.219   6.656   3.085
 2690TIP3    H1 8034   2.127   6.630   3.096
 2690TIP3    H2 8035   2.224   6.743   3.126
 2691TIP3   OH2 8036   6.063   6.491   5.706
 2691TIP3    H1 8037   6.086   6.427   5.639
 2691TIP3    H2 8038   6.140   6.496   5.763
 2692TIP3   OH2 8039   5.965   0.184   1.581
 2692TIP3    H1 8040   5.903   0.249   1.547
 2692TIP3    H2 8041   5.921   0.100   1.566
 2693TIP3   OH2 8042   1.623   5.961   4.701
 2693TIP3    H1 8043   1.704   5.981   4.656
 2693TIP3    H2 8044   1.583   5.891   4.649
 2694TIP3   OH2 8045   4.355   3.719   4.813
 2694TIP3    H1 8046   4.286   3.741   4.876
 2694TIP3    H2 8047   4.396   3.641   4.851
 2695TIP3   OH2 8048   6.561   4.661   5.329
 2695TIP3    H1 8049   6.608   4.690   5.250
 2695TIP3    H2 8050   6.625   4.667   5.399
 2696TIP3   OH2 8051   4.274   1.273   1.445
 2696TIP3    H1 8052   4.287   1.295   1.537
 2696TIP3    H2 8053   4.179   1.281   1.432
 2697TIP3   OH2 8054   6.047   0.299   3.750
 2697TIP3    H1 8055   5.996   0.262   3.821
 2697TIP3    H2 8056   6.008   0.385   3.735
 2698TIP3   OH2 8057   4.023   3.562   1.073
 2698TIP3    H1 8058   4.001   3.637   1.017
 2698TIP3    H2 8059   4.095   3.594   1.128
 2699TIP3   OH2 8060   1.699   4.266   2.192
 2699TIP3    H1 8061   1.703   4.188   2.136
 2699TIP3    H2 8062   1.611   4.265   2.229
 2700TIP3   OH2 8063   2.853   2.221   5.079
 2700TIP3    H1 8064   2.860   2.165   5.157
 2700TIP3    H2 8065   2.930   2.197   5.026
 2701TIP3   OH2 8066   4.464   2.514   1.272
 2701TIP3    H1 8067   4.529   2.531   1.204
 2701TIP3    H2 8068   4.419   2.435   1.243
 2702TIP3   OH2 8069   0.345   3.895   5.468
 2702TIP3    H1 8070   0.384   3.821   5.420
 2702TIP3    H2 8071   0.265   3.915   5.420
 2703TIP3   OH2 8072   6.870   1.612   4.148
 2703TIP3    H1 8073   6.958   1.594   4.116
 2703TIP3    H2 8074   6.834   1.525   4.167
 2704TIP3   OH2 8075   3.866   2.490   1.029
 2704TIP3    H1 8076   3.958   2.482   1.007
 2704TIP3    H2 8077   3.832   2.400   1.027
 2705TIP3   OH2 8078   1.086   6.743   2.409
 2705TIP3    H1 8079   1.041   6.814   2.364
 2705TIP3    H2 8080   1.141   6.787   2.473
 2706TIP3   OH2 8081   5.146   3.865   1.031
 2706TIP3    H1 8082   5.191   3.896   1.110
 2706TIP3    H2 8083   5.069   3.819   1.064
 2707TIP3   OH2 8084   2.080   5.163   5.154
 2707TIP3    H1 8085   1.994   5.195   5.128
 2707TIP3    H2 8086   2.067   5.071   5.177
 2708TIP3   OH2 8087   2.991   6.110   3.451
 2708TIP3    H1 8088   3.014   6.202   3.439
 2708TIP3    H2 8089   3.059   6.062   3.404
 2709TIP3   OH2 8090   5.755   6.623   2.933
 2709TIP3    H1 8091   5.716   6.710   2.946
 2709TIP3    H2 8092   5.841   6.629   2.975
 2710TIP3   OH2 8093   5.957   0.428   1.332
 2710TIP3    H1 8094   5.943   0.491   1.262
 2710TIP3    H2 8095   5.909   0.350   1.304
 2711TIP3   OH2 8096   6.610   3.550   4.494
 2711TIP3    H1 8097   6.553   3.622   4.466
 2711TIP3    H2 8098   6.697   3.577   4.466
 2712TIP3   OH2 8099   4.009   0.854   3.261
 2712TIP3    H1 8100   4.029   0.920   3.327
 2712TIP3    H2 8101   3.917   0.870   3.238
 2713TIP3   OH2 8102   0.103   2.692   0.815
 2713TIP3    H1 8103   0.036   2.739   0.765
 2713TIP3    H2 8104   0.164   2.760   0.843
 2714TIP3   OH2 8105   3.889   5.375   4.374
 2714TIP3    H1 8106   3.862   5.456   4.419
 2714TIP3    H2 8107   3.905   5.313   4.445
 2715TIP3   OH2 8108   5.482   0.749   4.061
 2715TIP3    H1 8109   5.421   0.716   4.127
 2715TIP3    H2 8110   5.436   0.824   4.022
 2716TIP3   OH2 8111   3.112   0.105   0.220
 2716TIP3    H1 8112   3.115   0.132   0.312
 2716TIP3    H2 8113   3.022   0.076   0.207
 2717TIP3   OH2 8114   2.072   4.249   5.415
 2717TIP3    H1 8115   2.082   4.226   5.322
 2717TIP3    H2 8116   2.001   4.315   5.415
 2718TIP3   OH2 8117   0.033   6.130   1.421
 2718TIP3    H1 8118   0.014   6.217   1.386
 2718TIP3    H2 8119   0.019   6.139   1.515
 2719TIP3   OH2 8120   3.989   6.223   1.353
 2719TIP3    H1 8121   4.043   6.269   1.288
 2719TIP3    H2 8122   3.943   6.156   1.302
 2720TIP3   OH2 8123   5.559   1.413   3.902
 2720TIP3    H1 8124   5.633   1.429   3.960
 2720TIP3    H2 8125   5.524   1.328   3.931
 2721TIP3   OH2 8126   4.571   6.740   4.493
 2721TIP3    H1 8127   4.479   6.762   4.507
 2721TIP3    H2 8128   4.614   6.762   4.575
 2722TIP3   OH2 8129   1.922   4.657   5.438
 2722TIP3    H1 8130   1.903   4.593   5.506
 2722TIP3    H2 8131   1.865   4.632   5.365
 2723TIP3   OH2 8132   4.469   5.035   0.780
 2723TIP3    H1 8133   4.498   4.955   0.823
 2723TIP3    H2 8134   4.407   5.005   0.713
 2724TIP3   OH2 8135   2.221   3.378   1.880
 2724TIP3    H1 8136   2.152   3.389   1.946
 2724TIP3    H2 8137   2.189   3.308   1.823
 2725TIP3   OH2 8138   0.456   0.513   5.212
 2725TIP3    H1 8139   0.404   0.590   5.191
 2725TIP3    H2 8140   0.533   0.519   5.155
 2726TIP3   OH2 8141   4.066   4.402   0.100
 2726TIP3    H1 8142   4.052   4.482   0.151
 2726TIP3    H2 8143   4.120   4.430   0.026
 2727TIP3   OH2 8144   1.052   5.964   1.973
 2727TIP3    H1 8145   1.034   5.871   1.961
 2727TIP3    H2 8146   1.137   5.967   2.017
 2728TIP3   OH2 8147   6.541   6.062   1.430
 2728TIP3    H1 8148   6.533   6.147   1.387
 2728TIP3    H2 8149   6.619   6.023   1.392
 2729TIP3   OH2 8150   0.675   5.977   2.712
 2729TIP3    H1 8151   0.646   6.061   2.678
 2729TIP3    H2 8152   0.763   5.995   2.746
 2730TIP3   OH2 8153   4.744   1.397   3.045
 2730TIP3    H1 8154   4.765   1.320   3.098
 2730TIP3    H2 8155   4.697   1.456   3.105
 2731TIP3   OH2 8156   4.955   5.225   2.553
 2731TIP3    H1 8157   5.035   5.206   2.602
 2731TIP3    H2 8158   4.908   5.142   2.551
 2732TIP3   OH2 8159   5.572   3.354   4.489
 2732TIP3    H1 8160   5.619   3.292   4.435
 2732TIP3    H2 8161   5.543   3.303   4.565
 2733TIP3   OH2 8162   5.513   1.911   3.163
 2733TIP3    H1 8163   5.450   1.870   3.223
 2733TIP3    H2 8164   5.475   1.901   3.076
 2734TIP3   OH2 8165   3.989   0.588   3.954
 2734TIP3    H1 8166   3.990   0.642   3.875
 2734TIP3    H2 8167   3.904   0.544   3.951
 2735TIP3   OH2 8168   0.863   0.572   4.867
 2735TIP3    H1 8169   0.915   0.617   4.933
 2735TIP3    H2 8170   0.786   0.540   4.915
 2736TIP3   OH2 8171   4.425   4.158   1.481
 2736TIP3    H1 8172   4.431   4.185   1.573
 2736TIP3    H2 8173   4.390   4.069   1.485
 2737TIP3   OH2 8174   6.014   6.102   1.337
 2737TIP3    H1 8175   6.101   6.076   1.369
 2737TIP3    H2 8176   5.966   6.020   1.328
 2738TIP3   OH2 8177   1.269   4.288   4.144
 2738TIP3    H1 8178   1.297   4.351   4.210
 2738TIP3    H2 8179   1.304   4.205   4.174
 2739TIP3   OH2 8180   3.377   2.678   1.010
 2739TIP3    H1 8181   3.366   2.710   1.099
 2739TIP3    H2 8182   3.292   2.692   0.968
 2740TIP3   OH2 8183   1.830   5.261   3.908
 2740TIP3    H1 8184   1.789   5.283   3.824
 2740TIP3    H2 8185   1.886   5.186   3.888
 2741TIP3   OH2 8186   3.592   2.078   3.383
 2741TIP3    H1 8187   3.606   1.985   3.364
 2741TIP3    H2 8188   3.667   2.103   3.436
 2742TIP3   OH2 8189   3.819   3.276   1.908
 2742TIP3    H1 8190   3.833   3.370   1.897
 2742TIP3    H2 8191   3.844   3.238   1.824
 2743TIP3   OH2 8192   2.583   6.845   5.663
 2743TIP3    H1 8193   2.506   6.868   5.715
 2743TIP3    H2 8194   2.634   6.787   5.719
 2744TIP3   OH2 8195   6.963   6.529   4.953
 2744TIP3    H1 8196   6.994   6.595   5.015
 2744TIP3    H2 8197   6.979   6.567   4.867
 2745TIP3   OH2 8198   5.959   6.325   2.466
 2745TIP3    H1 8199   5.917   6.246   2.433
 2745TIP3    H2 8200   5.912   6.397   2.424
 2746TIP3   OH2 8201   0.313   4.835   0.698
 2746TIP3    H1 8202   0.237   4.866   0.748
 2746TIP3    H2 8203   0.356   4.915   0.668
 2747TIP3   OH2 8204   1.089   4.629   4.184
 2747TIP3    H1 8205   1.184   4.637   4.184
 2747TIP3    H2 8206   1.071   4.545   4.225
 2748TIP3   OH2 8207   2.252   5.995   5.104
 2748TIP3    H1 8208   2.298   6.053   5.165
 2748TIP3    H2 8209   2.299   5.912   5.111
 2749TIP3   OH2 8210   5.670   1.812   5.316
 2749TIP3    H1 8211   5.617   1.861   5.378
 2749TIP3    H2 8212   5.749   1.865   5.304
 2750TIP3   OH2 8213   6.901   5.191   2.316
 2750TIP3    H1 8214   6.845   5.268   2.302
 2750TIP3    H2 8215   6.981   5.211   2.267
 2751TIP3   OH2 8216   0.996   6.637   0.839
 2751TIP3    H1 8217   1.077   6.623   0.889
 2751TIP3    H2 8218   1.002   6.727   0.807
 2752TIP3   OH2 8219   1.474   0.299   1.652
 2752TIP3    H1 8220   1.509   0.341   1.731
 2752TIP3    H2 8221   1.438   0.216   1.684
 2753TIP3   OH2 8222   4.642   3.809   2.775
 2753TIP3    H1 8223   4.703   3.744   2.809
 2753TIP3    H2 8224   4.693   3.859   2.710
 2754TIP3   OH2 8225   1.263   5.872   2.219
 2754TIP3    H1 8226   1.288   5.809   2.151
 2754TIP3    H2 8227   1.191   5.829   2.265
 2755TIP3   OH2 8228   2.475   6.360   0.851
 2755TIP3    H1 8229   2.420   6.435   0.833
 2755TIP3    H2 8230   2.565   6.394   0.848
 2756TIP3   OH2 8231   1.026   0.169   0.776
 2756TIP3    H1 8232   1.113   0.202   0.795
 2756TIP3    H2 8233   1.036   0.119   0.694
 2757TIP3   OH2 8234   0.083   0.706   0.602
 2757TIP3    H1 8235   0.071   0.695   0.697
 2757TIP3    H2 8236  -0.006   0.703   0.567
 2758TIP3   OH2 8237   0.874   1.575   2.757
 2758TIP3    H1 8238   0.967   1.591   2.746
 2758TIP3    H2 8239   0.862   1.566   2.852
 2759TIP3   OH2 8240   3.205   1.149   3.688
 2759TIP3    H1 8241   3.165   1.236   3.685
 2759TIP3    H2 8242   3.298   1.166   3.700
 2760TIP3   OH2 8243   1.487   3.018   1.103
 2760TIP3    H1 8244   1.549   2.963   1.149
 2760TIP3    H2 8245   1.516   3.015   1.012
 2761TIP3   OH2 8246   2.619   3.082   0.612
 2761TIP3    H1 8247   2.713   3.070   0.627
 2761TIP3    H2 8248   2.607   3.177   0.613
 2762TIP3   OH2 8249   6.042   4.310   1.499
 2762TIP3    H1 8250   6.120   4.339   1.546
 2762TIP3    H2 8251   6.075   4.277   1.415
 2763TIP3   OH2 8252   2.179   4.574   2.258
 2763TIP3    H1 8253   2.221   4.556   2.174
 2763TIP3    H2 8254   2.206   4.502   2.315
 2764TIP3   OH2 8255   4.880   4.949   5.184
 2764TIP3    H1 8256   4.849   5.037   5.163
 2764TIP3    H2 8257   4.829   4.923   5.261
 2765TIP3   OH2 8258   2.044   0.140   0.639
 2765TIP3    H1 8259   1.952   0.124   0.661
 2765TIP3    H2 8260   2.076   0.056   0.607
 2766TIP3   OH2 8261   1.816   6.388   4.430
 2766TIP3    H1 8262   1.831   6.355   4.518
 2766TIP3    H2 8263   1.758   6.463   4.442
 2767TIP3   OH2 8264   0.889   1.840   5.098
 2767TIP3    H1 8265   0.965   1.874   5.051
 2767TIP3    H2 8266   0.855   1.771   5.041
 2768TIP3   OH2 8267   2.894   3.395   3.242
 2768TIP3    H1 8268   2.956   3.331   3.279
 2768TIP3    H2 8269   2.861   3.352   3.163
 2769TIP3   OH2 8270   3.463   4.324   0.374
 2769TIP3    H1 8271   3.446   4.265   0.448
 2769TIP3    H2 8272   3.430   4.276   0.298
 2770TIP3   OH2 8273   4.874   1.481   5.692
 2770TIP3    H1 8274   4.860   1.498   5.598
 2770TIP3    H2 8275   4.968   1.468   5.700
 2771TIP3   OH2 8276   2.323   0.237   2.431
 2771TIP3    H1 8277   2.410   0.200   2.449
 2771TIP3    H2 8278   2.328   0.268   2.341
 2772TIP3   OH2 8279   0.672   3.500   1.514
 2772TIP3    H1 8280   0.620   3.491   1.434
 2772TIP3    H2 8281   0.608   3.492   1.585
 2773TIP3   OH2 8282   3.683   5.224   2.283
 2773TIP3    H1 8283   3.685   5.320   2.286
 2773TIP3    H2 8284   3.613   5.204   2.221
 2774TIP3   OH2 8285   5.253   2.632   2.619
 2774TIP3    H1 8286   5.239   2.671   2.533
 2774TIP3    H2 8287   5.347   2.619   2.625
 2775TIP3   OH2 8288   0.395   1.000   3.857
 2775TIP3    H1 8289   0.339   0.924   3.839
 2775TIP3    H2 8290   0.369   1.065   3.791
 2776TIP3   OH2 8291   6.879   1.281   3.887
 2776TIP3    H1 8292   6.800   1.232   3.912
 2776TIP3    H2 8293   6.854   1.373   3.900
 2777TIP3   OH2 8294   4.252   4.702   1.922
 2777TIP3    H1 8295   4.320   4.767   1.937
 2777TIP3    H2 8296   4.290   4.619   1.952
 2778TIP3   OH2 8297   5.747   2.619   5.445
 2778TIP3    H1 8298   5.818   2.599   5.385
 2778TIP3    H2 8299   5.670   2.630   5.389
 2779TIP3   OH2 8300   6.443   5.445   0.124
 2779TIP3    H1 8301   6.453   5.358   0.163
 2779TIP3    H2 8302   6.420   5.501   0.197
 2780TIP3   OH2 8303   6.566   5.771   4.148
 2780TIP3    H1 8304   6.590   5.833   4.217
 2780TIP3    H2 8305   6.632   5.785   4.080
 2781TIP3   OH2 8306   2.221   4.384   0.541
 2781TIP3    H1 8307   2.314   4.369   0.559
 2781TIP3    H2 8308   2.209   4.353   0.452
 2782TIP3   OH2 8309   1.917   2.583   4.707
 2782TIP3    H1 8310   1.988   2.559   4.768
 2782TIP3    H2 8311   1.916   2.513   4.642
 2783TIP3   OH2 8312   5.413   4.968   2.816
 2783TIP3    H1 8313   5.403   4.873   2.822
 2783TIP3    H2 8314   5.458   4.983   2.733
 2784TIP3   OH2 8315   5.509   5.145   3.338
 2784TIP3    H1 8316   5.476   5.131   3.250
 2784TIP3    H2 8317   5.582   5.205   3.327
 2785TIP3   OH2 8318   3.279   4.355   4.714
 2785TIP3    H1 8319   3.305   4.413   4.641
 2785TIP3    H2 8320   3.192   4.324   4.689
 2786TIP3   OH2 8321   4.450   5.834   0.531
 2786TIP3    H1 8322   4.370   5.828   0.480
 2786TIP3    H2 8323   4.454   5.926   0.559
 2787TIP3   OH2 8324   2.672   0.269   3.036
 2787TIP3    H1 8325   2.668   0.292   3.129
 2787TIP3    H2 8326   2.620   0.337   2.992
 2788TIP3   OH2 8327   3.226   5.652   0.051
 2788TIP3    H1 8328   3.140   5.627   0.017
 2788TIP3    H2 8329   3.208   5.694   0.135
 2789TIP3   OH2 8330   0.522   0.862   5.224
 2789TIP3    H1 8331   0.564   0.816   5.151
 2789TIP3    H2 8332   0.515   0.953   5.194
 2790TIP3   OH2 8333   4.163   6.357   3.381
 2790TIP3    H1 8334   4.067   6.364   3.389
 2790TIP3    H2 8335   4.184   6.271   3.416
 2791TIP3   OH2 8336   3.129   0.395   0.755
 2791TIP3    H1 8337   3.138   0.299   0.754
 2791TIP3    H2 8338   3.043   0.410   0.794
 2792TIP3   OH2 8339   1.842   4.415   5.573
 2792TIP3    H1 8340   1.796   4.351   5.519
 2792TIP3    H2 8341   1.794   4.417   5.656
 2793TIP3   OH2 8342   4.110   6.726   3.262
 2793TIP3    H1 8343   4.088   6.798   3.320
 2793TIP3    H2 8344   4.168   6.764   3.196
 2794TIP3   OH2 8345   4.208   4.627   2.611
 2794TIP3    H1 8346   4.185   4.599   2.700
 2794TIP3    H2 8347   4.236   4.718   2.622
 2795TIP3   OH2 8348   3.871   0.947   4.408
 2795TIP3    H1 8349   3.869   0.914   4.498
 2795TIP3    H2 8350   3.779   0.954   4.383
 2796TIP3   OH2 8351   4.178   3.146   2.740
 2796TIP3    H1 8352   4.252   3.204   2.758
 2796TIP3    H2 8353   4.196   3.067   2.791
 2797TIP3   OH2 8354   5.125   3.816   3.989
 2797TIP3    H1 8355   5.124   3.765   4.070
 2797TIP3    H2 8356   5.122   3.907   4.018
 2798TIP3   OH2 8357   6.762   4.639   4.948
 2798TIP3    H1 8358   6.806   4.597   5.022
 2798TIP3    H2 8359   6.695   4.694   4.987
 2799TIP3   OH2 8360   1.405   2.464   5.456
 2799TIP3    H1 8361   1.428   2.437   5.368
 2799TIP3    H2 8362   1.371   2.385   5.498
 2800TIP3   OH2 8363   5.155   2.751   3.040
 2800TIP3    H1 8364   5.198   2.826   2.998
 2800TIP3    H2 8365   5.130   2.694   2.968
 2801TIP3   OH2 8366   0.492   0.451   0.690
 2801TIP3    H1 8367   0.424   0.405   0.739
 2801TIP3    H2 8368   0.523   0.520   0.748
 2802TIP3   OH2 8369   4.970   1.333   0.825
 2802TIP3    H1 8370   4.897   1.272   0.819
 2802TIP3    H2 8371   5.022   1.317   0.747
 2803TIP3   OH2 8372   3.078   2.658   1.541
 2803TIP3    H1 8373   3.074   2.563   1.550
 2803TIP3    H2 8374   3.078   2.673   1.446
 2804TIP3   OH2 8375   6.800   0.819   4.690
 2804TIP3    H1 8376   6.748   0.884   4.736
 2804TIP3    H2 8377   6.773   0.735   4.728
 2805TIP3   OH2 8378   3.843   3.370   5.106
 2805TIP3    H1 8379   3.810   3.280   5.101
 2805TIP3    H2 8380   3.818   3.409   5.022
 2806TIP3   OH2 8381   3.419   4.969   2.661
 2806TIP3    H1 8382   3.369   5.050   2.668
 2806TIP3    H2 8383   3.458   4.972   2.574
 2807TIP3   OH2 8384   5.525   4.792   0.023
 2807TIP3    H1 8385   5.511   4.733  -0.051
 2807TIP3    H2 8386   5.494   4.743   0.099
 2808TIP3   OH2 8387   6.522   0.315   4.850
 2808TIP3    H1 8388   6.502   0.311   4.757
 2808TIP3    H2 8389   6.594   0.378   4.857
 2809TIP3   OH2 8390   5.922   4.983   4.615
 2809TIP3    H1 8391   5.993   4.993   4.679
 2809TIP3    H2 8392   5.940   4.899   4.573
 2810TIP3   OH2 8393   6.626   6.590   0.780
 2810TIP3    H1 8394   6.694   6.553   0.724
 2810TIP3    H2 8395   6.550   6.599   0.723
 2811TIP3   OH2 8396   1.388   3.522   5.518
 2811TIP3    H1 8397   1.366   3.565   5.601
 2811TIP3    H2 8398   1.476   3.487   5.533
 2812TIP3   OH2 8399   5.330   3.776   4.199
 2812TIP3    H1 8400   5.391   3.846   4.172
 2812TIP3    H2 8401   5.313   3.794   4.292
 2813TIP3   OH2 8402   1.429   1.261   1.595
 2813TIP3    H1 8403   1.404   1.169   1.600
 2813TIP3    H2 8404   1.375   1.305   1.661
 2814TIP3   OH2 8405   0.953   2.631   1.864
 2814TIP3    H1 8406   0.936   2.718   1.828
 2814TIP3    H2 8407   1.047   2.631   1.883
 2815TIP3   OH2 8408   1.196   3.272   2.684
 2815TIP3    H1 8409   1.259   3.293   2.615
 2815TIP3    H2 8410   1.236   3.304   2.764
 2816TIP3   OH2 8411   3.439   5.368   3.327
 2816TIP3    H1 8412   3.373   5.299   3.334
 2816TIP3    H2 8413   3.455   5.376   3.233
 2817TIP3   OH2 8414   2.368   1.250   1.386
 2817TIP3    H1 8415   2.302   1.317   1.405
 2817TIP3    H2 8416   2.384   1.257   1.292
 2818TIP3   OH2 8417   0.584   4.911   2.725
 2818TIP3    H1 8418   0.577   4.989   2.670
 2818TIP3    H2 8419   0.494   4.894   2.753
 2819TIP3   OH2 8420   6.144   3.839   4.551
 2819TIP3    H1 8421   6.124   3.929   4.578
 2819TIP3    H2 8422   6.231   3.823   4.586
 2820TIP3   OH2 8423   0.524   1.871   0.993
 2820TIP3    H1 8424   0.540   1.779   1.015
 2820TIP3    H2 8425   0.547   1.877   0.901
 2821TIP3   OH2 8426   0.074   6.645   5.462
 2821TIP3    H1 8427   0.161   6.605   5.464
 2821TIP3    H2 8428   0.034   6.613   5.381
 2822TIP3   OH2 8429   4.677   3.610   5.032
 2822TIP3    H1 8430   4.720   3.648   5.109
 2822TIP3    H2 8431   4.670   3.683   4.971
 2823TIP3   OH2 8432   3.350   5.556   5.335
 2823TIP3    H1 8433   3.274   5.614   5.324
 2823TIP3    H2 8434   3.366   5.555   5.429
 2824TIP3   OH2 8435   0.917   3.434   5.675
 2824TIP3    H1 8436   0.970   3.478   5.609
 2824TIP3    H2 8437   0.849   3.497   5.697
 2825TIP3   OH2 8438   6.636   0.358   2.858
 2825TIP3    H1 8439   6.716   0.320   2.824
 2825TIP3    H2 8440   6.573   0.286   2.857
 2826TIP3   OH2 8441   4.491   0.484   4.939
 2826TIP3    H1 8442   4.410   0.438   4.918
 2826TIP3    H2 8443   4.542   0.420   4.989
 2827TIP3   OH2 8444   2.786   2.640   1.743
 2827TIP3    H1 8445   2.879   2.660   1.750
 2827TIP3    H2 8446   2.743   2.725   1.734
 2828TIP3   OH2 8447   0.734   3.051   1.723
 2828TIP3    H1 8448   0.694   3.113   1.663
 2828TIP3    H2 8449   0.686   3.062   1.805
 2829TIP3   OH2 8450   4.613   1.099   0.599
 2829TIP3    H1 8451   4.690   1.049   0.571
 2829TIP3    H2 8452   4.572   1.129   0.517
 2830TIP3   OH2 8453   2.564   6.839   4.878
 2830TIP3    H1 8454   2.546   6.760   4.826
 2830TIP3    H2 8455   2.624   6.809   4.946
 2831TIP3   OH2 8456   4.640   2.024   4.543
 2831TIP3    H1 8457   4.565   2.063   4.589
 2831TIP3    H2 8458   4.675   1.960   4.606
 2832TIP3   OH2 8459   0.405   4.552   4.283
 2832TIP3    H1 8460   0.414   4.561   4.188
 2832TIP3    H2 8461   0.372   4.637   4.312
 2833TIP3   OH2 8462   4.002   6.292   0.863
 2833TIP3    H1 8463   4.090   6.313   0.894
 2833TIP3    H2 8464   4.016   6.242   0.783
 2834TIP3   OH2 8465   0.236   3.429   2.401
 2834TIP3    H1 8466   0.273   3.515   2.382
 2834TIP3    H2 8467   0.180   3.409   2.326
 2835TIP3   OH2 8468   1.922   2.702   1.291
 2835TIP3    H1 8469   1.847   2.667   1.243
 2835TIP3    H2 8470   1.928   2.648   1.370
 2836TIP3   OH2 8471   5.778   3.794   5.255
 2836TIP3    H1 8472   5.798   3.703   5.277
 2836TIP3    H2 8473   5.845   3.844   5.300
 2837TIP3   OH2 8474   5.667   3.456   1.574
 2837TIP3    H1 8475   5.719   3.425   1.648
 2837TIP3    H2 8476   5.659   3.550   1.588
 2838TIP3   OH2 8477   2.186   3.326   5.477
 2838TIP3    H1 8478   2.205   3.419   5.470
 2838TIP3    H2 8479   2.161   3.313   5.568
 2839TIP3   OH2 8480   6.276   6.031   0.736
 2839TIP3    H1 8481   6.283   6.117   0.777
 2839TIP3    H2 8482   6.183   6.020   0.717
 2840TIP3   OH2 8483   0.833   0.499   3.466
 2840TIP3    H1 8484   0.815   0.414   3.506
 2840TIP3    H2 8485   0.867   0.478   3.379
 2841TIP3   OH2 8486   3.164   2.146   2.341
 2841TIP3    H1 8487   3.235   2.210   2.350
 2841TIP3    H2 8488   3.112   2.158   2.420
 2842TIP3   OH2 8489   4.866   3.481   3.812
 2842TIP3    H1 8490   4.954   3.504   3.844
 2842TIP3    H2 8491   4.845   3.548   3.748
 2843TIP3   OH2 8492   3.797   5.883   5.292
 2843TIP3    H1 8493   3.714   5.855   5.330
 2843TIP3    H2 8494   3.772   5.952   5.230
 2844TIP3   OH2 8495   0.945   4.704   3.354
 2844TIP3    H1 8496   0.965   4.687   3.446
 2844TIP3    H2 8497   0.874   4.643   3.333
 2845TIP3   OH2 8498   6.628   0.022   2.395
 2845TIP3    H1 8499   6.569  -0.035   2.345
 2845TIP3    H2 8500   6.570   0.083   2.441
 2846TIP3   OH2 8501   2.669   2.283   1.273
 2846TIP3    H1 8502   2.589   2.316   1.314
 2846TIP3    H2 8503   2.641   2.203   1.228
 2847TIP3   OH2 8504   0.780   0.587   1.299
 2847TIP3    H1 8505   0.813   0.508   1.256
 2847TIP3    H2 8506   0.727   0.555   1.372
 2848TIP3   OH2 8507   2.310   4.960   0.424
 2848TIP3    H1 8508   2.369   4.899   0.379
 2848TIP3    H2 8509   2.365   5.005   0.488
 2849TIP3   OH2 8510   0.496   3.783   5.203
 2849TIP3    H1 8511   0.454   3.820   5.125
 2849TIP3    H2 8512   0.487   3.688   5.191
 2850TIP3   OH2 8513   1.184   3.596   3.532
 2850TIP3    H1 8514   1.173   3.691   3.537
 2850TIP3    H2 8515   1.113   3.567   3.476
 2851TIP3   OH2 8516   1.359   6.023   1.967
 2851TIP3    H1 8517   1.397   6.109   1.949
 2851TIP3    H2 8518   1.433   5.962   1.958
 2852TIP3   OH2 8519   3.469   2.724   0.532
 2852TIP3    H1 8520   3.511   2.778   0.599
 2852TIP3    H2 8521   3.387   2.694   0.572
 2853TIP3   OH2 8522   1.302   0.212   1.059
 2853TIP3    H1 8523   1.301   0.307   1.073
 2853TIP3    H2 8524   1.395   0.191   1.047
 2854TIP3   OH2 8525   5.997   1.253   5.346
 2854TIP3    H1 8526   5.920   1.219   5.301
 2854TIP3    H2 8527   6.021   1.332   5.297
 2855TIP3   OH2 8528   3.329   4.977   4.851
 2855TIP3    H1 8529   3.389   5.021   4.791
 2855TIP3    H2 8530   3.272   4.925   4.795
 2856TIP3   OH2 8531   5.175   3.621   2.431
 2856TIP3    H1 8532   5.155   3.694   2.490
 2856TIP3    H2 8533   5.269   3.607   2.440
 2857TIP3   OH2 8534   2.649   0.889   2.539
 2857TIP3    H1 8535   2.573   0.875   2.595
 2857TIP3    H2 8536   2.661   0.806   2.493
 2858TIP3   OH2 8537   1.930   2.750   4.348
 2858TIP3    H1 8538   1.962   2.840   4.347
 2858TIP3    H2 8539   1.989   2.703   4.406
 2859TIP3   OH2 8540   3.787   0.878   4.664
 2859TIP3    H1 8541   3.722   0.946   4.682
 2859TIP3    H2 8542   3.869   0.914   4.697
 2860TIP3   OH2 8543   3.834   0.381   0.188
 2860TIP3    H1 8544   3.919   0.408   0.152
 2860TIP3    H2 8545   3.771   0.439   0.147
 2861TIP3   OH2 8546   2.818   6.057   3.077
 2861TIP3    H1 8547   2.841   6.149   3.066
 2861TIP3    H2 8548   2.732   6.058   3.119
 2862TIP3   OH2 8549   2.838   2.017   4.373
 2862TIP3    H1 8550   2.750   1.978   4.374
 2862TIP3    H2 8551   2.888   1.963   4.312
 2863TIP3   OH2 8552   2.229   0.273   3.884
 2863TIP3    H1 8553   2.219   0.364   3.909
 2863TIP3    H2 8554   2.142   0.246   3.853
 2864TIP3   OH2 8555   6.741   2.264   4.550
 2864TIP3    H1 8556   6.720   2.347   4.592
 2864TIP3    H2 8557   6.657   2.227   4.526
 2865TIP3   OH2 8558   5.238   6.398   3.554
 2865TIP3    H1 8559   5.320   6.351   3.546
 2865TIP3    H2 8560   5.192   6.355   3.627
 2866TIP3   OH2 8561   4.775   2.256   5.194
 2866TIP3    H1 8562   4.742   2.322   5.132
 2866TIP3    H2 8563   4.713   2.184   5.187
 2867TIP3   OH2 8564   1.873   3.596   3.413
 2867TIP3    H1 8565   1.953   3.633   3.451
 2867TIP3    H2 8566   1.814   3.588   3.488
 2868TIP3   OH2 8567   1.135   1.257   2.829
 2868TIP3    H1 8568   1.228   1.267   2.809
 2868TIP3    H2 8569   1.130   1.264   2.924
 2869TIP3   OH2 8570   3.585   6.463   1.728
 2869TIP3    H1 8571   3.497   6.498   1.712
 2869TIP3    H2 8572   3.609   6.422   1.645
 2870TIP3   OH2 8573   2.163   2.004   0.134
 2870TIP3    H1 8574   2.169   1.971   0.044
 2870TIP3    H2 8575   2.074   1.983   0.161
 2871TIP3   OH2 8576   6.838   4.273   2.861
 2871TIP3    H1 8577   6.752   4.248   2.825
 2871TIP3    H2 8578   6.832   4.368   2.873
 2872TIP3   OH2 8579   1.685   6.642   0.011
 2872TIP3    H1 8580   1.745   6.594   0.069
 2872TIP3    H2 8581   1.648   6.575  -0.046
 2873TIP3   OH2 8582   2.213   3.504   0.560
 2873TIP3    H1 8583   2.139   3.470   0.509
 2873TIP3    H2 8584   2.249   3.574   0.506
 2874TIP3   OH2 8585   3.235   3.326   2.616
 2874TIP3    H1 8586   3.164   3.267   2.591
 2874TIP3    H2 8587   3.281   3.344   2.534
 2875TIP3   OH2 8588  -0.006   1.045   0.682
 2875TIP3    H1 8589  -0.053   0.981   0.630
 2875TIP3    H2 8590   0.080   1.006   0.697
 2876TIP3   OH2 8591   0.565   4.137   2.253
 2876TIP3    H1 8592   0.521   4.130   2.338
 2876TIP3    H2 8593   0.639   4.076   2.260
 2877TIP3   OH2 8594   4.954   6.693   0.932
 2877TIP3    H1 8595   4.935   6.700   0.838
 2877TIP3    H2 8596   4.870   6.669   0.972
 2878TIP3   OH2 8597   2.098   3.051   3.012
 2878TIP3    H1 8598   2.113   3.141   3.042
 2878TIP3    H2 8599   2.151   3.043   2.933
 2879TIP3   OH2 8600   0.814   0.188   5.524
 2879TIP3    H1 8601   0.809   0.251   5.595
 2879TIP3    H2 8602   0.871   0.118   5.558
 2880TIP3   OH2 8603   2.526   1.627   5.861
 2880TIP3    H1 8604   2.465   1.555   5.842
 2880TIP3    H2 8605   2.470   1.696   5.896
 2881TIP3   OH2 8606   1.675   5.223   5.801
 2881TIP3    H1 8607   1.678   5.314   5.773
 2881TIP3    H2 8608   1.672   5.173   5.719
 2882TIP3   OH2 8609   6.569   5.464   3.767
 2882TIP3    H1 8610   6.623   5.394   3.803
 2882TIP3    H2 8611   6.482   5.425   3.759
 2883TIP3   OH2 8612   6.910   1.418   0.125
 2883TIP3    H1 8613   6.989   1.401   0.075
 2883TIP3    H2 8614   6.939   1.422   0.216
 2884TIP3   OH2 8615   2.833   3.904   1.239
 2884TIP3    H1 8616   2.779   3.827   1.260
 2884TIP3    H2 8617   2.774   3.978   1.250
 2885TIP3   OH2 8618   0.981   2.573   1.089
 2885TIP3    H1 8619   1.068   2.607   1.065
 2885TIP3    H2 8620   0.938   2.558   1.005
 2886TIP3   OH2 8621   0.220   0.988   4.136
 2886TIP3    H1 8622   0.130   0.987   4.169
 2886TIP3    H2 8623   0.212   0.966   4.043
 2887TIP3   OH2 8624   5.271   5.707   3.246
 2887TIP3    H1 8625   5.365   5.721   3.233
 2887TIP3    H2 8626   5.248   5.640   3.181
 2888TIP3   OH2 8627   1.561   5.584   4.618
 2888TIP3    H1 8628   1.493   5.569   4.683
 2888TIP3    H2 8629   1.525   5.649   4.559
 2889TIP3   OH2 8630   6.426   6.778   2.560
 2889TIP3    H1 8631   6.366   6.748   2.491
 2889TIP3    H2 8632   6.406   6.721   2.634
 2890TIP3   OH2 8633   7.044   4.235   1.485
 2890TIP3    H1 8634   7.009   4.322   1.504
 2890TIP3    H2 8635   7.126   4.230   1.535
 2891TIP3   OH2 8636   5.898   4.674   4.845
 2891TIP3    H1 8637   5.988   4.691   4.818
 2891TIP3    H2 8638   5.880   4.584   4.817
 2892TIP3   OH2 8639   3.098   1.445   1.686
 2892TIP3    H1 8640   3.024   1.450   1.625
 2892TIP3    H2 8641   3.155   1.518   1.660
 2893TIP3   OH2 8642   1.869   0.144   1.680
 2893TIP3    H1 8643   1.908   0.072   1.730
 2893TIP3    H2 8644   1.849   0.105   1.595
 2894TIP3   OH2 8645   5.786   2.186   4.862
 2894TIP3    H1 8646   5.845   2.254   4.894
 2894TIP3    H2 8647   5.798   2.113   4.922
 2895TIP3   OH2 8648   5.189   2.385   2.687
 2895TIP3    H1 8649   5.203   2.477   2.668
 2895TIP3    H2 8650   5.231   2.371   2.772
 2896TIP3   OH2 8651   6.496   3.271   5.111
 2896TIP3    H1 8652   6.589   3.290   5.098
 2896TIP3    H2 8653   6.492   3.229   5.198
 2897TIP3   OH2 8654   5.369   2.515   1.314
 2897TIP3    H1 8655   5.413   2.578   1.257
 2897TIP3    H2 8656   5.360   2.436   1.261
 2898TIP3   OH2 8657   5.658   1.820   2.303
 2898TIP3    H1 8658   5.571   1.780   2.305
 2898TIP3    H2 8659   5.690   1.810   2.393
 2899TIP3   OH2 8660   4.653   3.728   0.995
 2899TIP3    H1 8661   4.721   3.667   0.968
 2899TIP3    H2 8662   4.616   3.761   0.913
 2900TIP3   OH2 8663   2.836   5.683   5.375
 2900TIP3    H1 8664   2.784   5.687   5.295
 2900TIP3    H2 8665   2.792   5.616   5.428
 2901TIP3   OH2 8666   3.409   6.599   4.900
 2901TIP3    H1 8667   3.397   6.560   4.813
 2901TIP3    H2 8668   3.499   6.576   4.924
 2902TIP3   OH2 8669   1.427   1.628   4.926
 2902TIP3    H1 8670   1.399   1.604   5.014
 2902TIP3    H2 8671   1.463   1.548   4.889
 2903TIP3   OH2 8672   5.816   5.879   2.563
 2903TIP3    H1 8673   5.805   5.785   2.549
 2903TIP3    H2 8674   5.875   5.885   2.638
 2904TIP3   OH2 8675   2.813   2.745   2.525
 2904TIP3    H1 8676   2.751   2.754   2.598
 2904TIP3    H2 8677   2.763   2.699   2.457
 2905TIP3   OH2 8678   6.489   1.455   5.640
 2905TIP3    H1 8679   6.441   1.381   5.603
 2905TIP3    H2 8680   6.563   1.468   5.581
 2906TIP3   OH2 8681   0.633   6.069   1.724
 2906TIP3    H1 8682   0.673   6.141   1.675
 2906TIP3    H2 8683   0.540   6.075   1.702
 2907TIP3   OH2 8684   3.616   4.513   1.566
 2907TIP3    H1 8685   3.565   4.581   1.611
 2907TIP3    H2 8686   3.602   4.530   1.473
 2908TIP3   OH2 8687   3.799   5.491   5.095
 2908TIP3    H1 8688   3.747   5.422   5.135
 2908TIP3    H2 8689   3.760   5.503   5.008
 2909TIP3   OH2 8690   0.733   4.112   2.923
 2909TIP3    H1 8691   0.823   4.145   2.921
 2909TIP3    H2 8692   0.729   4.057   3.002
 2910TIP3   OH2 8693   2.438   1.935   0.756
 2910TIP3    H1 8694   2.521   1.970   0.723
 2910TIP3    H2 8695   2.384   1.925   0.678
 2911TIP3   OH2 8696   0.873   3.149   0.680
 2911TIP3    H1 8697   0.892   3.149   0.774
 2911TIP3    H2 8698   0.888   3.239   0.652
 2912TIP3   OH2 8699   1.294   5.401   4.210
 2912TIP3    H1 8700   1.351   5.472   4.238
 2912TIP3    H2 8701   1.209   5.422   4.248
 2913TIP3   OH2 8702   3.683   4.010   4.525
 2913TIP3    H1 8703   3.740   3.935   4.507
 2913TIP3    H2 8704   3.597   3.972   4.543
 2914TIP3   OH2 8705   3.781   1.364   1.458
 2914TIP3    H1 8706   3.766   1.308   1.382
 2914TIP3    H2 8707   3.847   1.426   1.428
 2915TIP3   OH2 8708   6.898   1.528   5.242
 2915TIP3    H1 8709   6.819   1.530   5.188
 2915TIP3    H2 8710   6.872   1.570   5.324
 2916TIP3   OH2 8711   2.088   2.413   3.809
 2916TIP3    H1 8712   2.062   2.415   3.717
 2916TIP3    H2 8713   2.048   2.491   3.847
 2917TIP3   OH2 8714   2.159   2.737   0.145
 2917TIP3    H1 8715   2.182   2.656   0.098
 2917TIP3    H2 8716   2.128   2.707   0.230
 2918TIP3   OH2 8717   5.681   0.522   0.618
 2918TIP3    H1 8718   5.732   0.546   0.541
 2918TIP3    H2 8719   5.627   0.448   0.588
 2919TIP3   OH2 8720   2.469   4.800   1.196
 2919TIP3    H1 8721   2.545   4.742   1.200
 2919TIP3    H2 8722   2.401   4.747   1.153
 2920TIP3   OH2 8723   2.394   2.655   1.596
 2920TIP3    H1 8724   2.449   2.633   1.672
 2920TIP3    H2 8725   2.305   2.649   1.629
 2921TIP3   OH2 8726   1.492   1.314   5.808
 2921TIP3    H1 8727   1.499   1.222   5.784
 2921TIP3    H2 8728   1.446   1.314   5.892
 2922TIP3   OH2 8729   2.566   6.712   3.100
 2922TIP3    H1 8730   2.521   6.790   3.068
 2922TIP3    H2 8731   2.637   6.697   3.037
 2923TIP3   OH2 8732   4.105   4.568   1.302
 2923TIP3    H1 8733   4.128   4.656   1.333
 2923TIP3    H2 8734   4.129   4.511   1.375
 2924TIP3   OH2 8735   2.190   4.624   1.483
 2924TIP3    H1 8736   2.240   4.623   1.402
 2924TIP3    H2 8737   2.213   4.541   1.526
 2925TIP3   OH2 8738   3.573   1.136   1.948
 2925TIP3    H1 8739   3.478   1.129   1.944
 2925TIP3    H2 8740   3.604   1.061   1.897
 2926TIP3   OH2 8741   5.004   3.038   3.048
 2926TIP3    H1 8742   4.926   2.993   3.014
 2926TIP3    H2 8743   5.078   2.987   3.014
 2927TIP3   OH2 8744   4.308   5.327   0.846
 2927TIP3    H1 8745   4.219   5.295   0.829
 2927TIP3    H2 8746   4.295   5.409   0.894
 2928TIP3   OH2 8747   6.051   2.776   3.305
 2928TIP3    H1 8748   6.111   2.765   3.379
 2928TIP3    H2 8749   5.975   2.722   3.328
 2929TIP3   OH2 8750   2.781   2.264   3.870
 2929TIP3    H1 8751   2.771   2.314   3.951
 2929TIP3    H2 8752   2.873   2.276   3.845
 2930TIP3   OH2 8753   4.804   3.531   5.637
 2930TIP3    H1 8754   4.749   3.466   5.682
 2930TIP3    H2 8755   4.893   3.503   5.653
 2931TIP3   OH2 8756   0.881   0.799   3.001
 2931TIP3    H1 8757   0.950   0.862   3.021
 2931TIP3    H2 8758   0.839   0.781   3.085
 2932TIP3   OH2 8759   6.340   2.131   1.056
 2932TIP3    H1 8760   6.274   2.195   1.028
 2932TIP3    H2 8761   6.330   2.127   1.151
 2933TIP3   OH2 8762   5.850   2.604   3.388
 2933TIP3    H1 8763   5.799   2.676   3.424
 2933TIP3    H2 8764   5.793   2.528   3.397
 2934TIP3   OH2 8765   5.724   6.219   1.323
 2934TIP3    H1 8766   5.678   6.144   1.360
 2934TIP3    H2 8767   5.810   6.217   1.366
 2935TIP3   OH2 8768   2.176   1.030   0.955
 2935TIP3    H1 8769   2.108   0.974   0.917
 2935TIP3    H2 8770   2.249   0.971   0.971
 2936TIP3   OH2 8771   0.818   2.584   0.587
 2936TIP3    H1 8772   0.802   2.493   0.561
 2936TIP3    H2 8773   0.889   2.613   0.531
 2937TIP3   OH2 8774   6.881   2.191   2.797
 2937TIP3    H1 8775   6.947   2.206   2.729
 2937TIP3    H2 8776   6.797   2.197   2.751
 2938TIP3   OH2 8777   1.466   3.258   0.791
 2938TIP3    H1 8778   1.500   3.282   0.877
 2938TIP3    H2 8779   1.468   3.162   0.790
 2939TIP3   OH2 8780   4.263   5.218   4.847
 2939TIP3    H1 8781   4.259   5.201   4.941
 2939TIP3    H2 8782   4.217   5.144   4.807
 2940TIP3   OH2 8783   5.567   6.713   0.444
 2940TIP3    H1 8784   5.490   6.659   0.427
 2940TIP3    H2 8785   5.543   6.767   0.519
 2941TIP3   OH2 8786   1.526   2.454   5.190
 2941TIP3    H1 8787   1.535   2.500   5.106
 2941TIP3    H2 8788   1.560   2.366   5.174
 2942TIP3   OH2 8789   4.267   2.805   5.512
 2942TIP3    H1 8790   4.201   2.871   5.535
 2942TIP3    H2 8791   4.336   2.817   5.578
 2943TIP3   OH2 8792   1.026   2.729   5.462
 2943TIP3    H1 8793   0.946   2.693   5.425
 2943TIP3    H2 8794   1.049   2.801   5.403
 2944TIP3   OH2 8795   3.468   2.058   1.591
 2944TIP3    H1 8796   3.518   2.075   1.671
 2944TIP3    H2 8797   3.381   2.035   1.622
 2945TIP3   OH2 8798   6.180   4.298   1.273
 2945TIP3    H1 8799   6.109   4.275   1.213
 2945TIP3    H2 8800   6.251   4.327   1.216
 2946TIP3   OH2 8801   2.243   3.552   2.292
 2946TIP3    H1 8802   2.209   3.502   2.218
 2946TIP3    H2 8803   2.303   3.491   2.336
 2947TIP3   OH2 8804   5.335   0.528   3.614
 2947TIP3    H1 8805   5.390   0.595   3.654
 2947TIP3    H2 8806   5.246   0.551   3.640
 2948TIP3   OH2 8807   3.464   3.442   1.165
 2948TIP3    H1 8808   3.533   3.509   1.163
 2948TIP3    H2 8809   3.400   3.476   1.227
 2949TIP3   OH2 8810   5.782   1.980   3.912
 2949TIP3    H1 8811   5.850   1.940   3.966
 2949TIP3    H2 8812   5.796   1.944   3.824
 2950TIP3   OH2 8813   2.103   5.427   5.295
 2950TIP3    H1 8814   2.064   5.505   5.256
 2950TIP3    H2 8815   2.116   5.367   5.221
 2951TIP3   OH2 8816   5.950   0.114   2.011
 2951TIP3    H1 8817   5.964   0.030   1.969
 2951TIP3    H2 8818   5.918   0.171   1.941
 2952TIP3   OH2 8819   6.049   1.753   5.252
 2952TIP3    H1 8820   6.060   1.745   5.347
 2952TIP3    H2 8821   5.972   1.699   5.233
 2953TIP3   OH2 8822   4.128   5.284   0.293
 2953TIP3    H1 8823   4.161   5.369   0.322
 2953TIP3    H2 8824   4.201   5.245   0.245
 2954TIP3   OH2 8825   4.514   5.247   1.526
 2954TIP3    H1 8826   4.605   5.268   1.547
 2954TIP3    H2 8827   4.472   5.332   1.513
 2955TIP3   OH2 8828   1.367   0.290   2.350
 2955TIP3    H1 8829   1.460   0.287   2.372
 2955TIP3    H2 8830   1.359   0.366   2.292
 2956TIP3   OH2 8831   3.518   6.489   3.864
 2956TIP3    H1 8832   3.515   6.497   3.768
 2956TIP3    H2 8833   3.568   6.565   3.892
 2957TIP3   OH2 8834   1.082   3.184   2.287
 2957TIP3    H1 8835   1.062   3.228   2.204
 2957TIP3    H2 8836   1.166   3.220   2.314
 2958TIP3   OH2 8837   1.319   6.262   3.423
 2958TIP3    H1 8838   1.381   6.310   3.368
 2958TIP3    H2 8839   1.367   6.245   3.504
 2959TIP3   OH2 8840   6.529   5.121   0.284
 2959TIP3    H1 8841   6.582   5.040   0.288
 2959TIP3    H2 8842   6.454   5.103   0.340
 2960TIP3   OH2 8843   0.882   1.377   1.854
 2960TIP3    H1 8844   0.858   1.308   1.792
 2960TIP3    H2 8845   0.833   1.453   1.824
 2961TIP3   OH2 8846   7.107   2.127   5.511
 2961TIP3    H1 8847   7.187   2.156   5.466
 2961TIP3    H2 8848   7.036   2.156   5.454
 2962TIP3   OH2 8849   1.455   6.025   2.820
 2962TIP3    H1 8850   1.423   6.039   2.909
 2962TIP3    H2 8851   1.497   6.108   2.797
 2963TIP3   OH2 8852   3.770   2.434   2.851
 2963TIP3    H1 8853   3.781   2.501   2.784
 2963TIP3    H2 8854   3.704   2.471   2.911
 2964TIP3   OH2 8855   4.041   0.902   5.323
 2964TIP3    H1 8856   3.974   0.898   5.391
 2964TIP3    H2 8857   4.105   0.835   5.347
 2965TIP3   OH2 8858   6.168   6.072   0.170
 2965TIP3    H1 8859   6.148   6.086   0.262
 2965TIP3    H2 8860   6.097   6.016   0.138
 2966TIP3   OH2 8861   6.532   6.705   4.019
 2966TIP3    H1 8862   6.545   6.767   3.947
 2966TIP3    H2 8863   6.438   6.704   4.033
 2967TIP3   OH2 8864   1.749   4.852   2.814
 2967TIP3    H1 8865   1.685   4.892   2.755
 2967TIP3    H2 8866   1.722   4.880   2.901
 2968TIP3   OH2 8867   5.737   0.403   4.861
 2968TIP3    H1 8868   5.713   0.424   4.952
 2968TIP3    H2 8869   5.705   0.477   4.810
 2969TIP3   OH2 8870   1.414   4.422   5.043
 2969TIP3    H1 8871   1.472   4.358   5.000
 2969TIP3    H2 8872   1.328   4.381   5.041
 2970TIP3   OH2 8873   6.113   4.822   1.766
 2970TIP3    H1 8874   6.197   4.866   1.778
 2970TIP3    H2 8875   6.105   4.812   1.671
 2971TIP3   OH2 8876   0.513   4.852   1.445
 2971TIP3    H1 8877   0.486   4.942   1.461
 2971TIP3    H2 8878   0.606   4.858   1.425
 2972TIP3   OH2 8879   5.931   2.869   0.963
 2972TIP3    H1 8880   5.988   2.797   0.937
 2972TIP3    H2 8881   5.982   2.948   0.945
 2973TIP3   OH2 8882   6.858   6.645   1.474
 2973TIP3    H1 8883   6.935   6.638   1.529
 2973TIP3    H2 8884   6.891   6.643   1.384
 2974TIP3   OH2 8885   6.272   2.034   3.799
 2974TIP3    H1 8886   6.217   1.981   3.741
 2974TIP3    H2 8887   6.342   1.975   3.826
 2975TIP3   OH2 8888   2.110   4.096   5.832
 2975TIP3    H1 8889   2.067   4.177   5.859
 2975TIP3    H2 8890   2.077   4.078   5.744
 2976TIP3   OH2 8891   1.695   6.351   3.983
 2976TIP3    H1 8892   1.637   6.339   4.058
 2976TIP3    H2 8893   1.687   6.443   3.961
 2977TIP3   OH2 8894   0.986   2.070   5.559
 2977TIP3    H1 8895   0.921   2.043   5.624
 2977TIP3    H2 8896   1.061   2.014   5.576
 2978TIP3   OH2 8897   2.734   4.733   4.315
 2978TIP3    H1 8898   2.692   4.725   4.400
 2978TIP3    H2 8899   2.827   4.717   4.332
 2979TIP3   OH2 8900   0.519   0.327   2.871
 2979TIP3    H1 8901   0.434   0.334   2.915
 2979TIP3    H2 8902   0.529   0.234   2.852
 2980TIP3   OH2 8903   6.381   2.310   3.847
 2980TIP3    H1 8904   6.302   2.361   3.827
 2980TIP3    H2 8905   6.357   2.220   3.827
 2981TIP3   OH2 8906   3.337   3.697   2.434
 2981TIP3    H1 8907   3.401   3.757   2.396
 2981TIP3    H2 8908   3.381   3.661   2.511
 2982TIP3   OH2 8909   0.959   4.888   2.360
 2982TIP3    H1 8910   0.989   4.798   2.377
 2982TIP3    H2 8911   0.963   4.930   2.446
 2983TIP3   OH2 8912   0.969   4.315   0.080
 2983TIP3    H1 8913   0.990   4.404   0.051
 2983TIP3    H2 8914   0.926   4.275   0.004
 2984TIP3   OH2 8915   4.760   5.673   0.876
 2984TIP3    H1 8916   4.761   5.623   0.794
 2984TIP3    H2 8917   4.832   5.637   0.927
 2985TIP3   OH2 8918   3.124   1.278   2.092
 2985TIP3    H1 8919   3.113   1.361   2.045
 2985TIP3    H2 8920   3.165   1.303   2.175
 2986TIP3   OH2 8921   0.569   2.569   3.515
 2986TIP3    H1 8922   0.637   2.502   3.519
 2986TIP3    H2 8923   0.497   2.528   3.469
 2987TIP3   OH2 8924   2.426   6.290   2.010
 2987TIP3    H1 8925   2.411   6.354   2.079
 2987TIP3    H2 8926   2.401   6.334   1.929
 2988TIP3   OH2 8927   1.201   6.349   4.723
 2988TIP3    H1 8928   1.151   6.416   4.770
 2988TIP3    H2 8929   1.272   6.327   4.783
 2989TIP3   OH2 8930   1.088   2.703   5.819
 2989TIP3    H1 8931   1.034   2.625   5.808
 2989TIP3    H2 8932   1.154   2.696   5.749
 2990TIP3   OH2 8933   4.278   0.729   5.864
 2990TIP3    H1 8934   4.361   0.760   5.827
 2990TIP3    H2 8935   4.256   0.793   5.931
 2991TIP3   OH2 8936   0.829   1.887   4.710
 2991TIP3    H1 8937   0.744   1.852   4.734
 2991TIP3    H2 8938   0.842   1.962   4.768
 2992TIP3   OH2 8939   3.171   5.159   0.067
 2992TIP3    H1 8940   3.142   5.104  -0.006
 2992TIP3    H2 8941   3.232   5.104   0.116
 2993TIP3   OH2 8942   4.175   5.286   3.750
 2993TIP3    H1 8943   4.229   5.347   3.699
 2993TIP3    H2 8944   4.097   5.336   3.772
 2994TIP3   OH2 8945   0.539   0.548   0.080
 2994TIP3    H1 8946   0.473   0.486   0.050
 2994TIP3    H2 8947   0.494   0.600   0.147
 2995TIP3   OH2 8948   5.586   4.136   4.442
 2995TIP3    H1 8949   5.550   4.219   4.473
 2995TIP3    H2 8950   5.521   4.071   4.467
 2996TIP3   OH2 8951   1.760   1.815   2.769
 2996TIP3    H1 8952   1.684   1.801   2.825
 2996TIP3    H2 8953   1.835   1.792   2.824
 2997TIP3   OH2 8954   1.501   2.492   2.131
 2997TIP3    H1 8955   1.463   2.512   2.217
 2997TIP3    H2 8956   1.562   2.421   2.148
 2998TIP3   OH2 8957   2.306   6.029   1.923
 2998TIP3    H1 8958   2.375   6.079   1.966
 2998TIP3    H2 8959   2.352   5.957   1.879
 2999TIP3   OH2 8960   3.969   6.168   4.673
 2999TIP3    H1 8961   3.891   6.166   4.616
 2999TIP3    H2 8962   4.008   6.081   4.664
 3000TIP3   OH2 8963   6.412   3.461   5.781
 3000TIP3    H1 8964   6.434   3.376   5.820
 3000TIP3    H2 8965   6.446   3.525   5.844
 3001TIP3   OH2 8966   3.029   3.023   4.185
 3001TIP3    H1 8967   3.118   3.052   4.165
 3001TIP3    H2 8968   3.006   2.965   4.112
 3002TIP3   OH2 8969   6.557   1.717   0.606
 3002TIP3    H1 8970   6.531   1.677   0.523
 3002TIP3    H2 8971   6.537   1.810   0.596
 3003TIP3   OH2 8972   0.247   5.117   1.819
 3003TIP3    H1 8973   0.208   5.037   1.855
 3003TIP3    H2 8974   0.240   5.106   1.724
 3004TIP3   OH2 8975   0.023   1.738   0.356
 3004TIP3    H1 8976  -0.061   1.778   0.377
 3004TIP3    H2 8977   0.022   1.728   0.260
 3005TIP3   OH2 8978   0.193   0.621   2.483
 3005TIP3    H1 8979   0.120   0.630   2.422
 3005TIP3    H2 8980   0.198   0.527   2.502
 3006TIP3   OH2 8981   0.897   4.844   5.624
 3006TIP3    H1 8982   0.842   4.801   5.560
 3006TIP3    H2 8983   0.986   4.835   5.590
 3007TIP3   OH2 8984   5.140   6.768   4.699
 3007TIP3    H1 8985   5.075   6.822   4.745
 3007TIP3    H2 8986   5.088   6.702   4.653
 3008TIP3   OH2 8987   1.371   0.643   4.543
 3008TIP3    H1 8988   1.320   0.700   4.484
 3008TIP3    H2 8989   1.307   0.616   4.609
 3009TIP3   OH2 8990   4.893   5.328   2.106
 3009TIP3    H1 8991   4.946   5.332   2.185
 3009TIP3    H2 8992   4.950   5.287   2.041
 3010TIP3   OH2 8993   3.325   6.089   1.633
 3010TIP3    H1 8994   3.397   6.030   1.610
 3010TIP3    H2 8995   3.253   6.031   1.658
 3011TIP3   OH2 8996   6.260   6.201   4.525
 3011TIP3    H1 8997   6.243   6.295   4.517
 3011TIP3    H2 8998   6.311   6.194   4.606
 3012TIP3   OH2 8999   3.392   2.446   5.396
 3012TIP3    H1 9000   3.474   2.412   5.359
 3012TIP3    H2 9001   3.332   2.451   5.322
 3013TIP3   OH2 9002   1.637   1.520   4.136
 3013TIP3    H1 9003   1.692   1.447   4.164
 3013TIP3    H2 9004   1.699   1.587   4.108
 3014TIP3   OH2 9005   2.475   3.073   2.608
 3014TIP3    H1 9006   2.558   3.037   2.641
 3014TIP3    H2 9007   2.481   3.066   2.513
 3015TIP3   OH2 9008   2.297   5.566   1.836
 3015TIP3    H1 9009   2.360   5.501   1.804
 3015TIP3    H2 9010   2.333   5.650   1.809
 3016TIP3   OH2 9011   6.687   2.774   2.576
 3016TIP3    H1 9012   6.719   2.794   2.488
 3016TIP3    H2 9013   6.665   2.681   2.574
 3017TIP3   OH2 9014   2.965   0.656   3.101
 3017TIP3    H1 9015   2.872   0.632   3.092
 3017TIP3    H2 9016   2.986   0.699   3.017
 3018TIP3   OH2 9017   3.609   4.553   0.290
 3018TIP3    H1 9018   3.558   4.476   0.316
 3018TIP3    H2 9019   3.604   4.612   0.365
 3019TIP3   OH2 9020   0.188   1.658   3.863
 3019TIP3    H1 9021   0.250   1.615   3.922
 3019TIP3    H2 9022   0.233   1.738   3.836
 3020TIP3   OH2 9023   2.474   5.215   1.376
 3020TIP3    H1 9024   2.439   5.129   1.354
 3020TIP3    H2 9025   2.406   5.276   1.348
 3021TIP3   OH2 9026   5.907   4.648   5.434
 3021TIP3    H1 9027   5.873   4.571   5.388
 3021TIP3    H2 9028   5.898   4.719   5.371
 3022TIP3   OH2 9029   1.624   2.216   0.423
 3022TIP3    H1 9030   1.695   2.262   0.377
 3022TIP3    H2 9031   1.570   2.179   0.353
 3023TIP3   OH2 9032   4.227   4.356   4.456
 3023TIP3    H1 9033   4.301   4.295   4.447
 3023TIP3    H2 9034   4.263   4.427   4.510
 3024TIP3   OH2 9035   6.908   6.081   0.641
 3024TIP3    H1 9036   6.863   6.068   0.557
 3024TIP3    H2 9037   6.987   6.129   0.619
 3025TIP3   OH2 9038   5.334   0.202   1.389
 3025TIP3    H1 9039   5.285   0.143   1.332
 3025TIP3    H2 9040   5.337   0.157   1.474
 3026TIP3   OH2 9041   0.475   4.567   0.474
 3026TIP3    H1 9042   0.390   4.604   0.450
 3026TIP3    H2 9043   0.454   4.488   0.523
 3027TIP3   OH2 9044   4.349   6.319   0.490
 3027TIP3    H1 9045   4.437   6.353   0.474
 3027TIP3    H2 9046   4.322   6.282   0.407
 3028TIP3   OH2 9047   2.522   6.739   0.546
 3028TIP3    H1 9048   2.617   6.734   0.531
 3028TIP3    H2 9049   2.495   6.649   0.562
 3029TIP3   OH2 9050   1.040   0.546   4.327
 3029TIP3    H1 9051   1.083   0.541   4.241
 3029TIP3    H2 9052   0.979   0.619   4.319
 3030TIP3   OH2 9053   0.893   3.291   5.290
 3030TIP3    H1 9054   0.975   3.271   5.335
 3030TIP3    H2 9055   0.825   3.255   5.347
 3031TIP3   OH2 9056   2.404   1.505   5.494
 3031TIP3    H1 9057   2.452   1.588   5.495
 3031TIP3    H2 9058   2.358   1.503   5.578
 3032TIP3   OH2 9059   6.062   6.211   4.220
 3032TIP3    H1 9060   6.087   6.300   4.195
 3032TIP3    H2 9061   6.145   6.165   4.231
 3033TIP3   OH2 9062   7.205   4.147   0.381
 3033TIP3    H1 9063   7.130   4.159   0.324
 3033TIP3    H2 9064   7.279   4.137   0.321
 3034TIP3   OH2 9065   6.244   3.098   1.573
 3034TIP3    H1 9066   6.181   3.045   1.623
 3034TIP3    H2 9067   6.329   3.071   1.607
 3035TIP3   OH2 9068   2.189   6.524   3.433
 3035TIP3    H1 9069   2.118   6.461   3.419
 3035TIP3    H2 9070   2.234   6.492   3.512
 3036TIP3   OH2 9071   1.287   2.131   4.644
 3036TIP3    H1 9072   1.259   2.063   4.583
 3036TIP3    H2 9073   1.383   2.131   4.637
 3037TIP3   OH2 9074   2.789   2.680   4.697
 3037TIP3    H1 9075   2.703   2.678   4.654
 3037TIP3    H2 9076   2.841   2.740   4.643
 3038TIP3   OH2 9077   0.483   6.725   2.595
 3038TIP3    H1 9078   0.507   6.663   2.663
 3038TIP3    H2 9079   0.404   6.767   2.627
 3039TIP3   OH2 9080   2.646   1.162   1.656
 3039TIP3    H1 9081   2.555   1.157   1.685
 3039TIP3    H2 9082   2.642   1.198   1.567
 3040TIP3   OH2 9083   5.390   5.423   3.985
 3040TIP3    H1 9084   5.413   5.480   4.059
 3040TIP3    H2 9085   5.409   5.335   4.017
 3041TIP3   OH2 9086   5.630   5.723   2.839
 3041TIP3    H1 9087   5.538   5.708   2.861
 3041TIP3    H2 9088   5.657   5.796   2.895
 3042TIP3   OH2 9089   3.655   6.429   4.270
 3042TIP3    H1 9090   3.665   6.520   4.241
 3042TIP3    H2 9091   3.561   6.414   4.271
 3043TIP3   OH2 9092   4.330   3.655   5.881
 3043TIP3    H1 9093   4.298   3.708   5.954
 3043TIP3    H2 9094   4.289   3.693   5.803
 3044TIP3   OH2 9095   3.652   4.688   4.117
 3044TIP3    H1 9096   3.628   4.781   4.124
 3044TIP3    H2 9097   3.701   4.670   4.197
 3045TIP3   OH2 9098   2.293   4.557   1.228
 3045TIP3    H1 9099   2.316   4.464   1.229
 3045TIP3    H2 9100   2.282   4.577   1.135
 3046TIP3   OH2 9101   0.742   3.063   1.060
 3046TIP3    H1 9102   0.679   3.057   1.132
 3046TIP3    H2 9103   0.748   2.973   1.027
 3047TIP3   OH2 9104   6.738   5.206   5.805
 3047TIP3    H1 9105   6.791   5.126   5.810
 3047TIP3    H2 9106   6.754   5.240   5.717
 3048TIP3   OH2 9107   2.911   0.132   0.970
 3048TIP3    H1 9108   2.891   0.197   1.037
 3048TIP3    H2 9109   3.006   0.139   0.957
 3049TIP3   OH2 9110   4.655   2.332   1.699
 3049TIP3    H1 9111   4.645   2.404   1.760
 3049TIP3    H2 9112   4.571   2.329   1.651
 3050TIP3   OH2 9113   0.419   0.712   5.462
 3050TIP3    H1 9114   0.466   0.757   5.392
 3050TIP3    H2 9115   0.481   0.646   5.494
 3051TIP3   OH2 9116   3.373   6.075   2.240
 3051TIP3    H1 9117   3.435   6.147   2.251
 3051TIP3    H2 9118   3.403   6.030   2.161
 3052TIP3   OH2 9119   2.046   6.286   1.365
 3052TIP3    H1 9120   2.054   6.380   1.381
 3052TIP3    H2 9121   1.996   6.253   1.440
 3053TIP3   OH2 9122   1.974   3.005   1.040
 3053TIP3    H1 9123   1.921   2.989   1.119
 3053TIP3    H2 9124   1.930   2.956   0.971
 3054TIP3   OH2 9125   2.085   3.374   0.778
 3054TIP3    H1 9126   2.136   3.434   0.724
 3054TIP3    H2 9127   2.034   3.431   0.836
 3055TIP3   OH2 9128   6.029   1.896   4.600
 3055TIP3    H1 9129   6.031   1.894   4.695
 3055TIP3    H2 9130   5.980   1.975   4.578
 3056TIP3   OH2 9131   5.481   2.570   3.876
 3056TIP3    H1 9132   5.477   2.517   3.797
 3056TIP3    H2 9133   5.427   2.523   3.940
 3057TIP3   OH2 9134   4.715   6.530   0.945
 3057TIP3    H1 9135   4.693   6.550   0.853
 3057TIP3    H2 9136   4.671   6.447   0.962
 3058TIP3   OH2 9137   0.878   0.336   4.078
 3058TIP3    H1 9138   0.881   0.394   4.003
 3058TIP3    H2 9139   0.874   0.394   4.154
 3059TIP3   OH2 9140   3.393   4.320   3.797
 3059TIP3    H1 9141   3.310   4.341   3.840
 3059TIP3    H2 9142   3.379   4.343   3.705
 3060TIP3   OH2 9143   1.146   2.811   1.409
 3060TIP3    H1 9144   1.114   2.721   1.409
 3060TIP3    H2 9145   1.214   2.813   1.342
 3061TIP3   OH2 9146   3.063   2.897   2.423
 3061TIP3    H1 9147   2.990   2.855   2.469
 3061TIP3    H2 9148   3.069   2.984   2.464
 3062TIP3   OH2 9149   7.080   1.596   3.271
 3062TIP3    H1 9150   7.049   1.607   3.181
 3062TIP3    H2 9151   7.174   1.581   3.262
 3063TIP3   OH2 9152   2.241   1.208   3.307
 3063TIP3    H1 9153   2.219   1.273   3.374
 3063TIP3    H2 9154   2.174   1.140   3.316
 3064TIP3   OH2 9155   0.943   4.536   5.458
 3064TIP3    H1 9156   0.955   4.524   5.363
 3064TIP3    H2 9157   0.863   4.588   5.465
 3065TIP3   OH2 9158   6.133   1.695   2.117
 3065TIP3    H1 9159   6.052   1.738   2.088
 3065TIP3    H2 9160   6.120   1.603   2.094
 3066TIP3   OH2 9161   6.477   3.866   4.203
 3066TIP3    H1 9162   6.513   3.809   4.136
 3066TIP3    H2 9163   6.549   3.925   4.226
 3067TIP3   OH2 9164   2.652   1.291   1.406
 3067TIP3    H1 9165   2.557   1.287   1.399
 3067TIP3    H2 9166   2.678   1.362   1.347
 3068TIP3   OH2 9167   2.148   4.023   2.958
 3068TIP3    H1 9168   2.186   3.989   2.877
 3068TIP3    H2 9169   2.205   4.096   2.981
 3069TIP3   OH2 9170   6.876   6.278   1.105
 3069TIP3    H1 9171   6.935   6.211   1.139
 3069TIP3    H2 9172   6.861   6.254   1.014
 3070TIP3   OH2 9173   7.133   0.175   2.008
 3070TIP3    H1 9174   7.050   0.208   1.973
 3070TIP3    H2 9175   7.107   0.106   2.069
 3071TIP3   OH2 9176   2.055   2.347   5.331
 3071TIP3    H1 9177   2.001   2.306   5.263
 3071TIP3    H2 9178   2.145   2.329   5.305
 3072TIP3   OH2 9179   1.929   6.307   2.757
 3072TIP3    H1 9180   1.913   6.215   2.777
 3072TIP3    H2 9181   2.009   6.328   2.806
 3073TIP3   OH2 9182   4.478   2.085   1.517
 3073TIP3    H1 9183   4.489   2.180   1.515
 3073TIP3    H2 9184   4.547   2.054   1.575
 3074TIP3   OH2 9185   1.165   3.680   3.879
 3074TIP3    H1 9186   1.151   3.586   3.884
 3074TIP3    H2 9187   1.142   3.712   3.966
 3075TIP3   OH2 9188   5.117   2.171   1.999
 3075TIP3    H1 9189   5.026   2.194   1.980
 3075TIP3    H2 9190   5.166   2.250   1.977
 3076TIP3   OH2 9191   4.062   1.360   2.452
 3076TIP3    H1 9192   4.062   1.343   2.358
 3076TIP3    H2 9193   4.024   1.282   2.491
 3077TIP3   OH2 9194   4.106   6.537   4.410
 3077TIP3    H1 9195   4.146   6.614   4.451
 3077TIP3    H2 9196   4.080   6.482   4.483
 3078TIP3   OH2 9197   2.037   5.598   4.249
 3078TIP3    H1 9198   1.996   5.614   4.164
 3078TIP3    H2 9199   2.130   5.586   4.229
 3079TIP3   OH2 9200   4.740   2.457   0.821
 3079TIP3    H1 9201   4.721   2.390   0.755
 3079TIP3    H2 9202   4.833   2.446   0.842
 3080TIP3   OH2 9203   3.030   0.166   3.168
 3080TIP3    H1 9204   3.092   0.098   3.193
 3080TIP3    H2 9205   2.945   0.121   3.167
 3081TIP3   OH2 9206   5.651   5.842   5.009
 3081TIP3    H1 9207   5.689   5.780   4.948
 3081TIP3    H2 9208   5.692   5.926   4.986
 3082TIP3   OH2 9209   7.018   1.811   4.338
 3082TIP3    H1 9210   7.066   1.741   4.294
 3082TIP3    H2 9211   6.928   1.802   4.308
 3083TIP3   OH2 9212   0.911   2.269   4.084
 3083TIP3    H1 9213   0.887   2.248   4.174
 3083TIP3    H2 9214   0.972   2.342   4.092
 3084TIP3   OH2 9215   3.855   5.891   1.860
 3084TIP3    H1 9216   3.937   5.906   1.813
 3084TIP3    H2 9217   3.836   5.975   1.902
 3085TIP3   OH2 9218   2.124   2.572   2.898
 3085TIP3    H1 9219   2.152   2.655   2.860
 3085TIP3    H2 9220   2.187   2.556   2.969
 3086TIP3   OH2 9221   5.053   6.016   1.320
 3086TIP3    H1 9222   5.131   5.965   1.339
 3086TIP3    H2 9223   5.042   6.009   1.225
 3087TIP3   OH2 9224   2.036   6.645   4.480
 3087TIP3    H1 9225   1.949   6.608   4.496
 3087TIP3    H2 9226   2.019   6.731   4.441
 3088TIP3   OH2 9227   0.703   4.269   3.286
 3088TIP3    H1 9228   0.631   4.233   3.337
 3088TIP3    H2 9229   0.662   4.333   3.228
 3089TIP3   OH2 9230   6.325   1.902   0.129
 3089TIP3    H1 9231   6.235   1.934   0.117
 3089TIP3    H2 9232   6.352   1.872   0.042
 3090TIP3   OH2 9233   4.092   0.187   2.763
 3090TIP3    H1 9234   4.102   0.149   2.676
 3090TIP3    H2 9235   3.999   0.208   2.769
 3091TIP3   OH2 9236   0.025   0.557   2.007
 3091TIP3    H1 9237   0.104   0.516   2.042
 3091TIP3    H2 9238   0.006   0.508   1.927
 3092TIP3   OH2 9239   1.230   0.608   3.783
 3092TIP3    H1 9240   1.306   0.550   3.785
 3092TIP3    H2 9241   1.268   0.695   3.767
 3093TIP3   OH2 9242   0.065   4.223   1.623
 3093TIP3    H1 9243   0.059   4.186   1.711
 3093TIP3    H2 9244   0.105   4.310   1.637
 3094TIP3   OH2 9245   2.698   5.955   5.039
 3094TIP3    H1 9246   2.768   5.989   4.984
 3094TIP3    H2 9247   2.729   5.870   5.070
 3095TIP3   OH2 9248   1.377   1.724   2.286
 3095TIP3    H1 9249   1.300   1.723   2.342
 3095TIP3    H2 9250   1.351   1.675   2.208
 3096TIP3   OH2 9251   6.392   1.301   4.256
 3096TIP3    H1 9252   6.297   1.305   4.240
 3096TIP3    H2 9253   6.424   1.237   4.193
 3097TIP3   OH2 9254   6.815   5.485   5.176
 3097TIP3    H1 9255   6.824   5.444   5.262
 3097TIP3    H2 9256   6.775   5.570   5.194
 3098TIP3   OH2 9257   4.742   3.060   3.715
 3098TIP3    H1 9258   4.717   3.084   3.626
 3098TIP3    H2 9259   4.667   3.010   3.748
 3099TIP3   OH2 9260   0.304   4.592   5.495
 3099TIP3    H1 9261   0.255   4.587   5.413
 3099TIP3    H2 9262   0.396   4.596   5.469
 3100TIP3   OH2 9263   0.928   4.277   2.546
 3100TIP3    H1 9264   0.943   4.304   2.455
 3100TIP3    H2 9265   1.007   4.305   2.592
 3101TIP3   OH2 9266   4.194   3.758   1.731
 3101TIP3    H1 9267   4.275   3.764   1.781
 3101TIP3    H2 9268   4.167   3.666   1.741
 3102TIP3   OH2 9269   3.720   2.665   1.189
 3102TIP3    H1 9270   3.795   2.712   1.224
 3102TIP3    H2 9271   3.757   2.598   1.132
 3103TIP3   OH2 9272   4.613   4.481   0.323
 3103TIP3    H1 9273   4.680   4.449   0.383
 3103TIP3    H2 9274   4.535   4.490   0.377
 3104TIP3   OH2 9275   0.540   2.784   4.469
 3104TIP3    H1 9276   0.486   2.714   4.434
 3104TIP3    H2 9277   0.500   2.864   4.437
 3105TIP3   OH2 9278   3.996   2.000   4.435
 3105TIP3    H1 9279   4.078   2.020   4.390
 3105TIP3    H2 9280   3.960   1.926   4.387
 3106TIP3   OH2 9281   0.237   1.215   2.413
 3106TIP3    H1 9282   0.186   1.274   2.469
 3106TIP3    H2 9283   0.181   1.138   2.401
 3107TIP3   OH2 9284   5.117   1.209   0.595
 3107TIP3    H1 9285   5.190   1.244   0.646
 3107TIP3    H2 9286   5.130   1.244   0.507
 3108TIP3   OH2 9287   3.980   3.317   3.477
 3108TIP3    H1 9288   3.995   3.334   3.570
 3108TIP3    H2 9289   4.061   3.276   3.446
 3109TIP3   OH2 9290   4.155   2.877   0.752
 3109TIP3    H1 9291   4.085   2.920   0.704
 3109TIP3    H2 9292   4.116   2.852   0.835
 3110TIP3   OH2 9293   1.109   6.427   1.074
 3110TIP3    H1 9294   1.013   6.426   1.074
 3110TIP3    H2 9295   1.134   6.335   1.078
 3111TIP3   OH2 9296   4.049   3.560   4.066
 3111TIP3    H1 9297   4.115   3.571   3.998
 3111TIP3    H2 9298   4.086   3.602   4.144
 3112TIP3   OH2 9299   4.346   3.091   2.483
 3112TIP3    H1 9300   4.279   3.080   2.551
 3112TIP3    H2 9301   4.299   3.130   2.410
 3113TIP3   OH2 9302   4.977   5.716   2.448
 3113TIP3    H1 9303   4.976   5.801   2.492
 3113TIP3    H2 9304   5.064   5.710   2.410
 3114TIP3   OH2 9305   2.394   0.322   0.960
 3114TIP3    H1 9306   2.323   0.318   0.896
 3114TIP3    H2 9307   2.362   0.272   1.035
 3115TIP3   OH2 9308   4.590   1.065   3.684
 3115TIP3    H1 9309   4.520   1.083   3.747
 3115TIP3    H2 9310   4.629   0.983   3.716
 3116TIP3   OH2 9311   1.596   6.150   1.635
 3116TIP3    H1 9312   1.625   6.069   1.676
 3116TIP3    H2 9313   1.521   6.125   1.582
 3117TIP3   OH2 9314   0.986   4.377   1.600
 3117TIP3    H1 9315   1.034   4.295   1.592
 3117TIP3    H2 9316   0.916   4.371   1.535
 3118TIP3   OH2 9317   3.833   5.414   0.690
 3118TIP3    H1 9318   3.826   5.508   0.709
 3118TIP3    H2 9319   3.744   5.388   0.666
 3119TIP3   OH2 9320   4.261   1.722   2.742
 3119TIP3    H1 9321   4.241   1.749   2.831
 3119TIP3    H2 9322   4.320   1.647   2.752
 3120TIP3   OH2 9323   2.414   5.298   4.391
 3120TIP3    H1 9324   2.396   5.252   4.309
 3120TIP3    H2 9325   2.465   5.375   4.365
 3121TIP3   OH2 9326   7.013   0.393   3.474
 3121TIP3    H1 9327   7.025   0.327   3.405
 3121TIP3    H2 9328   6.920   0.387   3.497
 3122TIP3   OH2 9329   3.518   2.694   3.793
 3122TIP3    H1 9330   3.462   2.767   3.819
 3122TIP3    H2 9331   3.521   2.638   3.871
 3123TIP3   OH2 9332   5.231   2.782   0.603
 3123TIP3    H1 9333   5.246   2.874   0.625
 3123TIP3    H2 9334   5.207   2.783   0.510
 3124TIP3   OH2 9335   1.296   6.763   2.594
 3124TIP3    H1 9336   1.357   6.702   2.636
 3124TIP3    H2 9337   1.352   6.828   2.553
 3125TIP3   OH2 9338   6.716   6.256   2.388
 3125TIP3    H1 9339   6.761   6.309   2.322
 3125TIP3    H2 9340   6.779   6.247   2.459
 3126TIP3   OH2 9341   3.772   6.119   5.085
 3126TIP3    H1 9342   3.690   6.115   5.036
 3126TIP3    H2 9343   3.833   6.164   5.026
 3127TIP3   OH2 9344   7.128   6.747   2.258
 3127TIP3    H1 9345   7.168   6.693   2.325
 3127TIP3    H2 9346   7.035   6.728   2.264
 3128TIP3   OH2 9347   2.978   3.354   1.778
 3128TIP3    H1 9348   2.887   3.337   1.754
 3128TIP3    H2 9349   3.011   3.268   1.805
 3129TIP3   OH2 9350   6.267   1.310   3.149
 3129TIP3    H1 9351   6.352   1.315   3.105
 3129TIP3    H2 9352   6.214   1.254   3.092
 3130TIP3   OH2 9353   2.755   3.194   4.880
 3130TIP3    H1 9354   2.707   3.113   4.864
 3130TIP3    H2 9355   2.847   3.169   4.872
 3131TIP3   OH2 9356   1.635   4.659   4.585
 3131TIP3    H1 9357   1.724   4.691   4.568
 3131TIP3    H2 9358   1.588   4.674   4.503
 3132TIP3   OH2 9359   5.162   1.603   0.657
 3132TIP3    H1 9360   5.188   1.513   0.676
 3132TIP3    H2 9361   5.069   1.607   0.683
 3133TIP3   OH2 9362   1.336   1.903   1.927
 3133TIP3    H1 9363   1.264   1.932   1.983
 3133TIP3    H2 9364   1.294   1.843   1.864
 3134TIP3   OH2 9365   0.323   1.007   4.866
 3134TIP3    H1 9366   0.397   0.996   4.806
 3134TIP3    H2 9367   0.341   1.089   4.912
 3135TIP3   OH2 9368   6.575   3.465   2.814
 3135TIP3    H1 9369   6.632   3.487   2.887
 3135TIP3    H2 9370   6.545   3.550   2.781
 3136TIP3   OH2 9371   0.965   6.669   5.458
 3136TIP3    H1 9372   0.989   6.757   5.488
 3136TIP3    H2 9373   0.881   6.651   5.499
 3137TIP3   OH2 9374   1.196   1.735   3.808
 3137TIP3    H1 9375   1.129   1.730   3.740
 3137TIP3    H2 9376   1.278   1.712   3.763
 3138TIP3   OH2 9377   5.016   4.811   4.412
 3138TIP3    H1 9378   4.992   4.720   4.427
 3138TIP3    H2 9379   5.094   4.824   4.465
 3139TIP3   OH2 9380   4.920   5.323   5.042
 3139TIP3    H1 9381   4.898   5.388   4.974
 3139TIP3    H2 9382   4.907   5.370   5.124
 3140TIP3   OH2 9383   5.150   6.060   2.812
 3140TIP3    H1 9384   5.241   6.039   2.833
 3140TIP3    H2 9385   5.111   6.083   2.896
 3141TIP3   OH2 9386   5.168   6.129   0.898
 3141TIP3    H1 9387   5.182   6.056   0.838
 3141TIP3    H2 9388   5.251   6.141   0.943
 3142TIP3   OH2 9389   4.252   4.109   2.319
 3142TIP3    H1 9390   4.306   4.035   2.347
 3142TIP3    H2 9391   4.218   4.146   2.401
 3143TIP3   OH2 9392   5.515   5.416   5.399
 3143TIP3    H1 9393   5.592   5.359   5.406
 3143TIP3    H2 9394   5.529   5.466   5.319
 3144TIP3   OH2 9395   4.974   3.355   2.755
 3144TIP3    H1 9396   5.051   3.379   2.807
 3144TIP3    H2 9397   5.002   3.278   2.705
 3145TIP3   OH2 9398   2.698   1.999   0.352
 3145TIP3    H1 9399   2.767   2.028   0.293
 3145TIP3    H2 9400   2.622   1.985   0.295
 3146TIP3   OH2 9401   4.013   2.794   0.038
 3146TIP3    H1 9402   4.075   2.736   0.083
 3146TIP3    H2 9403   3.954   2.735  -0.009
 3147TIP3   OH2 9404   0.962   6.142   0.315
 3147TIP3    H1 9405   0.981   6.232   0.291
 3147TIP3    H2 9406   0.874   6.145   0.353
 3148TIP3   OH2 9407   4.345   1.261   3.708
 3148TIP3    H1 9408   4.418   1.322   3.714
 3148TIP3    H2 9409   4.310   1.274   3.620
 3149TIP3   OH2 9410   5.729   3.501   2.747
 3149TIP3    H1 9411   5.724   3.436   2.677
 3149TIP3    H2 9412   5.642   3.502   2.785
 3150TIP3   OH2 9413   5.717   4.151   0.077
 3150TIP3    H1 9414   5.682   4.064   0.059
 3150TIP3    H2 9415   5.773   4.138   0.154
 3151TIP3   OH2 9416   5.866   2.980   4.705
 3151TIP3    H1 9417   5.836   3.068   4.729
 3151TIP3    H2 9418   5.786   2.928   4.700
 3152TIP3   OH2 9419   6.745   5.408   0.934
 3152TIP3    H1 9420   6.778   5.318   0.935
 3152TIP3    H2 9421   6.684   5.412   1.007
 3153TIP3   OH2 9422   0.937   0.126   2.336
 3153TIP3    H1 9423   0.972   0.148   2.422
 3153TIP3    H2 9424   0.979   0.188   2.276
 3154TIP3   OH2 9425   6.127   3.316   0.404
 3154TIP3    H1 9426   6.042   3.359   0.417
 3154TIP3    H2 9427   6.188   3.368   0.456
 3155TIP3   OH2 9428   4.628   0.766   2.529
 3155TIP3    H1 9429   4.642   0.749   2.623
 3155TIP3    H2 9430   4.627   0.861   2.522
 3156TIP3   OH2 9431   4.667   4.638   2.567
 3156TIP3    H1 9432   4.750   4.683   2.558
 3156TIP3    H2 9433   4.634   4.666   2.653
 3157TIP3   OH2 9434   4.734   0.047   1.884
 3157TIP3    H1 9435   4.674  -0.007   1.834
 3157TIP3    H2 9436   4.677   0.097   1.943
 3158TIP3   OH2 9437   6.064   3.066   2.753
 3158TIP3    H1 9438   6.035   3.077   2.662
 3158TIP3    H2 9439   5.984   3.048   2.802
 3159TIP3   OH2 9440   5.385   2.779   1.634
 3159TIP3    H1 9441   5.478   2.768   1.612
 3159TIP3    H2 9442   5.376   2.872   1.653
 3160TIP3   OH2 9443   6.952   0.265   5.257
 3160TIP3    H1 9444   6.907   0.289   5.176
 3160TIP3    H2 9445   7.035   0.312   5.254
 3161TIP3   OH2 9446   3.516   2.672   4.449
 3161TIP3    H1 9447   3.515   2.767   4.458
 3161TIP3    H2 9448   3.575   2.641   4.518
 3162TIP3   OH2 9449   1.799   2.208   1.136
 3162TIP3    H1 9450   1.848   2.236   1.059
 3162TIP3    H2 9451   1.724   2.161   1.100
 3163TIP3   OH2 9452   3.018   0.952   5.651
 3163TIP3    H1 9453   3.064   0.868   5.648
 3163TIP3    H2 9454   2.943   0.940   5.592
 3164TIP3   OH2 9455   6.813   6.289   5.028
 3164TIP3    H1 9456   6.870   6.220   4.994
 3164TIP3    H2 9457   6.858   6.370   5.007
 3165TIP3   OH2 9458   4.543   3.167   1.941
 3165TIP3    H1 9459   4.493   3.174   2.023
 3165TIP3    H2 9460   4.585   3.252   1.931
 3166TIP3   OH2 9461   7.093   5.276   0.218
 3166TIP3    H1 9462   7.126   5.276   0.129
 3166TIP3    H2 9463   7.117   5.190   0.253
 3167TIP3   OH2 9464   5.117   2.738   3.337
 3167TIP3    H1 9465   5.142   2.791   3.413
 3167TIP3    H2 9466   5.175   2.767   3.267
 3168TIP3   OH2 9467   5.084   0.151   4.535
 3168TIP3    H1 9468   5.032   0.072   4.524
 3168TIP3    H2 9469   5.174   0.124   4.515
 3169TIP3   OH2 9470   0.400   3.996   1.118
 3169TIP3    H1 9471   0.482   3.947   1.124
 3169TIP3    H2 9472   0.392   4.040   1.203
 3170TIP3   OH2 9473   3.467   5.659   1.767
 3170TIP3    H1 9474   3.464   5.634   1.675
 3170TIP3    H2 9475   3.516   5.741   1.768
 3171TIP3   OH2 9476   4.731   4.876   5.401
 3171TIP3    H1 9477   4.648   4.916   5.372
 3171TIP3    H2 9478   4.708   4.830   5.482
 3172TIP3   OH2 9479   2.003   5.684   5.734
 3172TIP3    H1 9480   2.025   5.726   5.650
 3172TIP3    H2 9481   2.036   5.594   5.724
 3173TIP3   OH2 9482   2.132   3.698   2.762
 3173TIP3    H1 9483   2.176   3.655   2.836
 3173TIP3    H2 9484   2.140   3.635   2.690
 3174TIP3   OH2 9485   6.344   0.354   5.839
 3174TIP3    H1 9486   6.381   0.412   5.773
 3174TIP3    H2 9487   6.359   0.399   5.922
 3175TIP3   OH2 9488   5.220   1.772   4.865
 3175TIP3    H1 9489   5.164   1.842   4.898
 3175TIP3    H2 9490   5.280   1.817   4.804
 3176TIP3   OH2 9491   1.963   5.819   0.128
 3176TIP3    H1 9492   1.924   5.742   0.168
 3176TIP3    H2 9493   1.890   5.865   0.088
 3177TIP3   OH2 9494   6.325   4.547   4.138
 3177TIP3    H1 9495   6.354   4.638   4.137
 3177TIP3    H2 9496   6.362   4.509   4.058
 3178TIP3   OH2 9497   7.044   4.187   2.701
 3178TIP3    H1 9498   7.061   4.262   2.644
 3178TIP3    H2 9499   6.970   4.215   2.756
 3179TIP3   OH2 9500   1.695   5.688   0.220
 3179TIP3    H1 9501   1.615   5.701   0.170
 3179TIP3    H2 9502   1.726   5.601   0.195
 3180TIP3   OH2 9503   0.804   5.321   0.541
 3180TIP3    H1 9504   0.774   5.409   0.565
 3180TIP3    H2 9505   0.896   5.319   0.568
 3181TIP3   OH2 9506   1.928   3.087   0.168
 3181TIP3    H1 9507   1.886   3.164   0.128
 3181TIP3    H2 9508   1.863   3.055   0.230
 3182TIP3   OH2 9509   1.645   5.243   2.303
 3182TIP3    H1 9510   1.701   5.300   2.249
 3182TIP3    H2 9511   1.692   5.234   2.386
 3183TIP3   OH2 9512   3.216   5.286   0.898
 3183TIP3    H1 9513   3.204   5.202   0.853
 3183TIP3    H2 9514   3.155   5.282   0.972
 3184TIP3   OH2 9515   2.240   4.193   2.686
 3184TIP3    H1 9516   2.145   4.187   2.698
 3184TIP3    H2 9517   2.271   4.103   2.697
 3185TIP3   OH2 9518   5.074   4.362   2.828
 3185TIP3    H1 9519   5.037   4.293   2.882
 3185TIP3    H2 9520   5.140   4.403   2.884
 3186TIP3   OH2 9521   4.506   5.506   4.830
 3186TIP3    H1 9522   4.513   5.602   4.829
 3186TIP3    H2 9523   4.464   5.486   4.913
 3187TIP3   OH2 9524   3.004   4.430   5.141
 3187TIP3    H1 9525   2.990   4.453   5.049
 3187TIP3    H2 9526   3.067   4.496   5.172
 3188TIP3   OH2 9527   0.953   2.418   0.093
 3188TIP3    H1 9528   0.898   2.476   0.042
 3188TIP3    H2 9529   0.939   2.445   0.184
 3189TIP3   OH2 9530   0.691   4.591   0.290
 3189TIP3    H1 9531   0.759   4.563   0.351
 3189TIP3    H2 9532   0.613   4.601   0.344
 3190TIP3   OH2 9533   2.538   1.447   0.297
 3190TIP3    H1 9534   2.624   1.441   0.340
 3190TIP3    H2 9535   2.492   1.368   0.325
 3191TIP3   OH2 9536   7.201   2.095   4.280
 3191TIP3    H1 9537   7.113   2.058   4.291
 3191TIP3    H2 9538   7.225   2.072   4.191
 3192TIP3   OH2 9539   0.454   1.261   4.601
 3192TIP3    H1 9540   0.361   1.245   4.590
 3192TIP3    H2 9541   0.487   1.184   4.647
 3193TIP3   OH2 9542   6.846   2.792   1.058
 3193TIP3    H1 9543   6.858   2.868   1.115
 3193TIP3    H2 9544   6.766   2.750   1.090
 3194TIP3   OH2 9545   2.744   3.643   4.524
 3194TIP3    H1 9546   2.775   3.553   4.513
 3194TIP3    H2 9547   2.674   3.637   4.588
 3195TIP3   OH2 9548   2.454   4.658   5.394
 3195TIP3    H1 9549   2.458   4.616   5.481
 3195TIP3    H2 9550   2.367   4.637   5.361
 3196TIP3   OH2 9551   3.712   4.704   2.287
 3196TIP3    H1 9552   3.626   4.662   2.296
 3196TIP3    H2 9553   3.763   4.669   2.360
 3197TIP3   OH2 9554   6.408   2.070   3.055
 3197TIP3    H1 9555   6.395   2.137   2.988
 3197TIP3    H2 9556   6.486   2.098   3.102
 3198TIP3   OH2 9557   5.440   5.152   4.044
 3198TIP3    H1 9558   5.480   5.111   3.967
 3198TIP3    H2 9559   5.469   5.098   4.118
 3199TIP3   OH2 9560   5.800   4.006   5.666
 3199TIP3    H1 9561   5.828   4.072   5.730
 3199TIP3    H2 9562   5.855   4.023   5.589
 3200TIP3   OH2 9563   5.023   5.434   2.740
 3200TIP3    H1 9564   5.062   5.505   2.688
 3200TIP3    H2 9565   5.071   5.356   2.714
 3201TIP3   OH2 9566   4.477   6.610   3.127
 3201TIP3    H1 9567   4.422   6.532   3.136
 3201TIP3    H2 9568   4.415   6.682   3.114
 3202TIP3   OH2 9569   1.862   6.164   0.227
 3202TIP3    H1 9570   1.822   6.172   0.313
 3202TIP3    H2 9571   1.940   6.110   0.242
 3203TIP3   OH2 9572   4.361   6.460   4.750
 3203TIP3    H1 9573   4.428   6.521   4.717
 3203TIP3    H2 9574   4.359   6.476   4.845
 3204TIP3   OH2 9575   5.848   4.319   3.767
 3204TIP3    H1 9576   5.803   4.275   3.838
 3204TIP3    H2 9577   5.797   4.298   3.689
 3205TIP3   OH2 9578   3.182   4.885   1.533
 3205TIP3    H1 9579   3.158   4.969   1.494
 3205TIP3    H2 9580   3.108   4.827   1.515
 3206TIP3   OH2 9581   2.726   0.575   3.125
 3206TIP3    H1 9582   2.698   0.503   3.182
 3206TIP3    H2 9583   2.665   0.571   3.051
 3207TIP3   OH2 9584   7.098  -0.012   0.219
 3207TIP3    H1 9585   7.096   0.039   0.300
 3207TIP3    H2 9586   7.094  -0.103   0.248
 3208TIP3   OH2 9587   5.298   4.952   2.514
 3208TIP3    H1 9588   5.296   4.925   2.422
 3208TIP3    H2 9589   5.367   5.019   2.518
 3209TIP3   OH2 9590   6.010   2.435   2.563
 3209TIP3    H1 9591   5.939   2.437   2.499
 3209TIP3    H2 9592   5.995   2.511   2.618
 3210TIP3   OH2 9593   4.817   3.689   5.287
 3210TIP3    H1 9594   4.897   3.675   5.338
 3210TIP3    H2 9595   4.746   3.680   5.350
 3211TIP3   OH2 9596   4.907   4.209   3.023
 3211TIP3    H1 9597   4.938   4.134   2.971
 3211TIP3    H2 9598   4.837   4.173   3.077
 3212TIP3   OH2 9599   3.223   0.431   1.767
 3212TIP3    H1 9600   3.305   0.395   1.800
 3212TIP3    H2 9601   3.243   0.522   1.745
 3213TIP3   OH2 9602   4.490   5.226   2.733
 3213TIP3    H1 9603   4.490   5.156   2.668
 3213TIP3    H2 9604   4.420   5.285   2.705
 3214TIP3   OH2 9605   4.347   3.830   0.997
 3214TIP3    H1 9606   4.349   3.737   0.972
 3214TIP3    H2 9607   4.399   3.874   0.930
 3215TIP3   OH2 9608   5.198   4.382  -0.027
 3215TIP3    H1 9609   5.235   4.466  -0.002
 3215TIP3    H2 9610   5.246   4.358  -0.107
 3216TIP3   OH2 9611   4.231   4.218   5.859
 3216TIP3    H1 9612   4.141   4.192   5.840
 3216TIP3    H2 9613   4.224   4.273   5.937
 3217TIP3   OH2 9614   6.992   2.822   2.513
 3217TIP3    H1 9615   6.985   2.916   2.499
 3217TIP3    H2 9616   7.011   2.786   2.427
 3218TIP3   OH2 9617   5.522   5.149   0.681
 3218TIP3    H1 9618   5.549   5.080   0.620
 3218TIP3    H2 9619   5.427   5.140   0.687
 3219TIP3   OH2 9620   3.854   3.353   2.303
 3219TIP3    H1 9621   3.910   3.427   2.328
 3219TIP3    H2 9622   3.765   3.385   2.316
 3220TIP3   OH2 9623   1.398   6.732   5.338
 3220TIP3    H1 9624   1.407   6.640   5.312
 3220TIP3    H2 9625   1.361   6.729   5.426
 3221TIP3   OH2 9626   1.172   1.972   4.423
 3221TIP3    H1 9627   1.091   1.925   4.440
 3221TIP3    H2 9628   1.241   1.911   4.447
 3222TIP3   OH2 9629   4.632   6.337   2.000
 3222TIP3    H1 9630   4.619   6.342   1.905
 3222TIP3    H2 9631   4.704   6.397   2.018
 3223TIP3   OH2 9632   5.935   4.509   0.961
 3223TIP3    H1 9633   5.912   4.589   0.913
 3223TIP3    H2 9634   5.875   4.443   0.927
 3224TIP3   OH2 9635   6.014   5.585   2.953
 3224TIP3    H1 9636   6.015   5.681   2.950
 3224TIP3    H2 9637   6.020   5.558   2.861
 3225TIP3   OH2 9638   6.714   4.549   0.710
 3225TIP3    H1 9639   6.668   4.484   0.656
 3225TIP3    H2 9640   6.717   4.510   0.797
 3226TIP3   OH2 9641   2.868   1.762   4.770
 3226TIP3    H1 9642   2.822   1.797   4.693
 3226TIP3    H2 9643   2.860   1.667   4.761
 3227TIP3   OH2 9644   0.189   2.525   2.043
 3227TIP3    H1 9645   0.139   2.491   1.968
 3227TIP3    H2 9646   0.273   2.551   2.006
 3228TIP3   OH2 9647   0.335   1.836   1.896
 3228TIP3    H1 9648   0.395   1.885   1.840
 3228TIP3    H2 9649   0.391   1.776   1.944
 3229TIP3   OH2 9650   0.743   1.769   0.399
 3229TIP3    H1 9651   0.654   1.752   0.430
 3229TIP3    H2 9652   0.797   1.704   0.444
 3230TIP3   OH2 9653   4.275   4.203   5.155
 3230TIP3    H1 9654   4.332   4.197   5.231
 3230TIP3    H2 9655   4.241   4.292   5.157
 3231TIP3   OH2 9656   6.237   1.075   3.637
 3231TIP3    H1 9657   6.171   1.097   3.572
 3231TIP3    H2 9658   6.299   1.147   3.634
 3232TIP3   OH2 9659   1.682   6.110   0.673
 3232TIP3    H1 9660   1.659   6.073   0.588
 3232TIP3    H2 9661   1.598   6.137   0.710
 3233TIP3   OH2 9662   1.321   1.365   3.607
 3233TIP3    H1 9663   1.228   1.360   3.585
 3233TIP3    H2 9664   1.357   1.427   3.544
 3234TIP3   OH2 9665   5.096   1.766   3.839
 3234TIP3    H1 9666   5.174   1.725   3.877
 3234TIP3    H2 9667   5.124   1.797   3.753
 3235TIP3   OH2 9668   1.434   2.412   0.433
 3235TIP3    H1 9669   1.492   2.345   0.467
 3235TIP3    H2 9670   1.479   2.495   0.454
 3236TIP3   OH2 9671   4.567   0.466   4.201
 3236TIP3    H1 9672   4.634   0.398   4.208
 3236TIP3    H2 9673   4.520   0.461   4.284
 3237TIP3   OH2 9674   2.421   4.390   4.843
 3237TIP3    H1 9675   2.407   4.316   4.784
 3237TIP3    H2 9676   2.348   4.450   4.823
 3238TIP3   OH2 9677   5.955   4.561   3.176
 3238TIP3    H1 9678   6.020   4.630   3.189
 3238TIP3    H2 9679   5.871   4.602   3.196
 3239TIP3   OH2 9680   1.301   3.632   2.948
 3239TIP3    H1 9681   1.388   3.613   2.984
 3239TIP3    H2 9682   1.307   3.607   2.856
 3240TIP3   OH2 9683   1.537   2.169   5.040
 3240TIP3    H1 9684   1.492   2.089   5.066
 3240TIP3    H2 9685   1.601   2.141   4.975
 3241TIP3   OH2 9686   0.688   1.349   4.255
 3241TIP3    H1 9687   0.725   1.340   4.167
 3241TIP3    H2 9688   0.649   1.264   4.274
 3242TIP3   OH2 9689   3.898   3.999   2.377
 3242TIP3    H1 9690   3.859   3.911   2.371
 3242TIP3    H2 9691   3.992   3.983   2.380
 3243TIP3   OH2 9692   6.016   4.182   5.627
 3243TIP3    H1 9693   6.068   4.250   5.583
 3243TIP3    H2 9694   6.081   4.124   5.666
 3244TIP3   OH2 9695   2.206   0.441   2.904
 3244TIP3    H1 9696   2.169   0.526   2.882
 3244TIP3    H2 9697   2.174   0.382   2.835
 3245TIP3   OH2 9698   1.354   3.260   1.149
 3245TIP3    H1 9699   1.280   3.241   1.206
 3245TIP3    H2 9700   1.393   3.175   1.129
 3246TIP3   OH2 9701   0.170   0.114   2.297
 3246TIP3    H1 9702   0.087   0.077   2.269
 3246TIP3    H2 9703   0.229   0.101   2.222
 3247TIP3   OH2 9704   3.570   0.578   3.107
 3247TIP3    H1 9705   3.652   0.623   3.124
 3247TIP3    H2 9706   3.513   0.644   3.066
 3248TIP3   OH2 9707   5.462   3.032   5.107
 3248TIP3    H1 9708   5.484   3.114   5.063
 3248TIP3    H2 9709   5.369   3.040   5.128
 3249TIP3   OH2 9710   2.665   2.066   5.580
 3249TIP3    H1 9711   2.757   2.085   5.596
 3249TIP3    H2 9712   2.660   2.050   5.486
 3250TIP3   OH2 9713   6.997   5.122   1.878
 3250TIP3    H1 9714   7.025   5.173   1.954
 3250TIP3    H2 9715   6.952   5.185   1.822
 3251TIP3   OH2 9716   5.978   2.044   1.240
 3251TIP3    H1 9717   5.920   1.981   1.197
 3251TIP3    H2 9718   5.952   2.042   1.332
 3252TIP3   OH2 9719   2.136   5.342   0.517
 3252TIP3    H1 9720   2.096   5.281   0.456
 3252TIP3    H2 9721   2.063   5.395   0.550
 3253TIP3   OH2 9722   1.266   0.894   2.801
 3253TIP3    H1 9723   1.174   0.867   2.798
 3253TIP3    H2 9724   1.300   0.852   2.880
 3254TIP3   OH2 9725   7.064   3.653   5.085
 3254TIP3    H1 9726   7.020   3.615   5.010
 3254TIP3    H2 9727   7.055   3.748   5.074
 3255TIP3   OH2 9728   6.782   1.255   2.841
 3255TIP3    H1 9729   6.851   1.211   2.892
 3255TIP3    H2 9730   6.821   1.339   2.816
 3256TIP3   OH2 9731   4.577   1.869   2.379
 3256TIP3    H1 9732   4.648   1.932   2.367
 3256TIP3    H2 9733   4.503   1.907   2.333
 3257TIP3   OH2 9734   0.395   2.939   0.093
 3257TIP3    H1 9735   0.427   3.017   0.136
 3257TIP3    H2 9736   0.457   2.870   0.118
 3258TIP3   OH2 9737   2.435   0.182   0.643
 3258TIP3    H1 9738   2.369   0.178   0.573
 3258TIP3    H2 9739   2.391   0.227   0.715
 3259TIP3   OH2 9740   1.890   3.903   2.946
 3259TIP3    H1 9741   1.981   3.925   2.927
 3259TIP3    H2 9742   1.892   3.861   3.032
 3260TIP3   OH2 9743   1.663   6.313   1.154
 3260TIP3    H1 9744   1.746   6.272   1.179
 3260TIP3    H2 9745   1.651   6.383   1.218
 3261TIP3   OH2 9746   5.027   3.601   3.253
 3261TIP3    H1 9747   5.095   3.559   3.305
 3261TIP3    H2 9748   5.073   3.634   3.176
 3262TIP3   OH2 9749   1.377   3.211   5.611
 3262TIP3    H1 9750   1.283   3.217   5.627
 3262TIP3    H2 9751   1.406   3.137   5.664
 3263TIP3   OH2 9752   3.048   1.207   4.246
 3263TIP3    H1 9753   2.960   1.227   4.214
 3263TIP3    H2 9754   3.106   1.252   4.185
 3264TIP3   OH2 9755   4.779   3.364   0.353
 3264TIP3    H1 9756   4.689   3.366   0.385
 3264TIP3    H2 9757   4.772   3.376   0.259
 3265TIP3   OH2 9758   1.959   5.191   1.591
 3265TIP3    H1 9759   1.914   5.237   1.662
 3265TIP3    H2 9760   2.052   5.207   1.607
 3266TIP3   OH2 9761   6.559   4.187   2.704
 3266TIP3    H1 9762   6.478   4.138   2.715
 3266TIP3    H2 9763   6.537   4.277   2.728
 3267TIP3   OH2 9764   6.585   5.828   5.799
 3267TIP3    H1 9765   6.496   5.811   5.829
 3267TIP3    H2 9766   6.603   5.918   5.828
 3268TIP3   OH2 9767   5.781   6.362   1.047
 3268TIP3    H1 9768   5.824   6.439   1.083
 3268TIP3    H2 9769   5.765   6.305   1.123
 3269TIP3   OH2 9770   2.606   0.777   1.147
 3269TIP3    H1 9771   2.700   0.762   1.153
 3269TIP3    H2 9772   2.568   0.690   1.136
 3270TIP3   OH2 9773   1.390   0.959   0.566
 3270TIP3    H1 9774   1.437   1.041   0.552
 3270TIP3    H2 9775   1.298   0.983   0.563
 3271TIP3   OH2 9776   6.712   2.021   1.537
 3271TIP3    H1 9777   6.683   2.077   1.609
 3271TIP3    H2 9778   6.660   1.941   1.546
 3272TIP3   OH2 9779   1.709   4.517   5.315
 3272TIP3    H1 9780   1.643   4.454   5.343
 3272TIP3    H2 9781   1.764   4.468   5.253
 3273TIP3   OH2 9782   0.850   0.224   0.384
 3273TIP3    H1 9783   0.794   0.248   0.309
 3273TIP3    H2 9784   0.807   0.264   0.459
 3274TIP3   OH2 9785   5.007   6.305   4.102
 3274TIP3    H1 9786   4.991   6.310   4.008
 3274TIP3    H2 9787   4.993   6.394   4.133
 3275TIP3   OH2 9788   2.942   0.227   4.692
 3275TIP3    H1 9789   2.957   0.195   4.603
 3275TIP3    H2 9790   2.856   0.269   4.687
 3276TIP3   OH2 9791   7.156   4.438   5.564
 3276TIP3    H1 9792   7.168   4.460   5.472
 3276TIP3    H2 9793   7.144   4.343   5.565
 3277TIP3   OH2 9794   3.785   1.116   0.495
 3277TIP3    H1 9795   3.766   1.129   0.588
 3277TIP3    H2 9796   3.873   1.152   0.483
 3278TIP3   OH2 9797   3.161   3.877   0.563
 3278TIP3    H1 9798   3.116   3.793   0.574
 3278TIP3    H2 9799   3.199   3.894   0.650
 3279TIP3   OH2 9800   3.454   1.345   1.761
 3279TIP3    H1 9801   3.379   1.295   1.731
 3279TIP3    H2 9802   3.416   1.416   1.813
 3280TIP3   OH2 9803   2.192   2.788   1.789
 3280TIP3    H1 9804   2.181   2.783   1.884
 3280TIP3    H2 9805   2.164   2.876   1.765
 3281TIP3   OH2 9806   5.549   2.345   5.034
 3281TIP3    H1 9807   5.463   2.361   4.996
 3281TIP3    H2 9808   5.610   2.390   4.975
 3282TIP3   OH2 9809   2.256   6.639   0.377
 3282TIP3    H1 9810   2.253   6.545   0.358
 3282TIP3    H2 9811   2.349   6.661   0.377
 3283TIP3   OH2 9812   4.903   3.837   4.216
 3283TIP3    H1 9813   4.829   3.782   4.189
 3283TIP3    H2 9814   4.942   3.790   4.290
 3284TIP3   OH2 9815   3.222   6.462   5.556
 3284TIP3    H1 9816   3.201   6.530   5.492
 3284TIP3    H2 9817   3.137   6.428   5.584
 3285TIP3   OH2 9818   5.654   2.216   1.046
 3285TIP3    H1 9819   5.674   2.197   1.138
 3285TIP3    H2 9820   5.625   2.132   1.011
 3286TIP3   OH2 9821   6.723   6.396   0.603
 3286TIP3    H1 9822   6.631   6.372   0.615
 3286TIP3    H2 9823   6.750   6.347   0.525
 3287TIP3   OH2 9824   3.315   6.304   1.460
 3287TIP3    H1 9825   3.340   6.224   1.506
 3287TIP3    H2 9826   3.284   6.362   1.529
 3288TIP3   OH2 9827   0.034   4.230   4.314
 3288TIP3    H1 9828   0.011   4.143   4.281
 3288TIP3    H2 9829   0.065   4.278   4.237
 3289TIP3   OH2 9830   2.923   5.790   3.451
 3289TIP3    H1 9831   2.976   5.840   3.390
 3289TIP3    H2 9832   2.861   5.853   3.487
 3290TIP3   OH2 9833   6.058   0.310   2.158
 3290TIP3    H1 9834   6.019   0.237   2.109
 3290TIP3    H2 9835   6.136   0.273   2.199
 3291TIP3   OH2 9836   1.900   4.075   4.239
 3291TIP3    H1 9837   1.928   4.143   4.178
 3291TIP3    H2 9838   1.963   4.080   4.311
 3292TIP3   OH2 9839   2.317   3.736   0.380
 3292TIP3    H1 9840   2.240   3.792   0.387
 3292TIP3    H2 9841   2.304   3.686   0.299
 3293TIP3   OH2 9842   5.722   4.266   4.251
 3293TIP3    H1 9843   5.812   4.232   4.249
 3293TIP3    H2 9844   5.674   4.204   4.306
 3294TIP3   OH2 9845   6.714   1.532   1.373
 3294TIP3    H1 9846   6.675   1.444   1.373
 3294TIP3    H2 9847   6.804   1.518   1.342
 3295TIP3   OH2 9848   5.477   0.798   2.374
 3295TIP3    H1 9849   5.477   0.710   2.411
 3295TIP3    H2 9850   5.386   0.813   2.349
 3296TIP3   OH2 9851   4.882   2.796   0.677
 3296TIP3    H1 9852   4.791   2.813   0.700
 3296TIP3    H2 9853   4.927   2.879   0.696
 3297TIP3   OH2 9854   4.056   2.895   1.586
 3297TIP3    H1 9855   3.968   2.866   1.565
 3297TIP3    H2 9856   4.093   2.924   1.503
 3298TIP3   OH2 9857   1.575   5.608   2.282
 3298TIP3    H1 9858   1.621   5.616   2.199
 3298TIP3    H2 9859   1.640   5.572   2.342
 3299TIP3   OH2 9860   2.362   5.016   2.379
 3299TIP3    H1 9861   2.293   5.065   2.335
 3299TIP3    H2 9862   2.316   4.943   2.421
 3300TIP3   OH2 9863   4.599   0.459   3.242
 3300TIP3    H1 9864   4.565   0.379   3.282
 3300TIP3    H2 9865   4.557   0.462   3.156
 3301TIP3   OH2 9866   3.957   3.101   4.043
 3301TIP3    H1 9867   3.982   3.049   3.967
 3301TIP3    H2 9868   4.035   3.102   4.098
 3302TIP3   OH2 9869   6.202   5.893   1.625
 3302TIP3    H1 9870   6.265   5.865   1.558
 3302TIP3    H2 9871   6.195   5.988   1.612
 3303TIP3   OH2 9872   6.113   1.920   0.890
 3303TIP3    H1 9873   6.089   1.828   0.881
 3303TIP3    H2 9874   6.030   1.965   0.910
 3304TIP3   OH2 9875   1.966   2.650   3.892
 3304TIP3    H1 9876   1.925   2.687   3.814
 3304TIP3    H2 9877   1.908   2.676   3.964
 3305TIP3   OH2 9878   0.444   5.847   2.651
 3305TIP3    H1 9879   0.430   5.755   2.674
 3305TIP3    H2 9880   0.521   5.873   2.702
 3306TIP3   OH2 9881   2.509   0.827   0.306
 3306TIP3    H1 9882   2.583   0.887   0.302
 3306TIP3    H2 9883   2.520   0.770   0.230
 3307TIP3   OH2 9884   0.564   6.100   0.781
 3307TIP3    H1 9885   0.605   6.056   0.707
 3307TIP3    H2 9886   0.470   6.084   0.770
 3308TIP3   OH2 9887   2.688   4.574   0.746
 3308TIP3    H1 9888   2.614   4.519   0.719
 3308TIP3    H2 9889   2.756   4.512   0.772
 3309TIP3   OH2 9890   0.510   0.673   4.840
 3309TIP3    H1 9891   0.556   0.726   4.905
 3309TIP3    H2 9892   0.427   0.651   4.883
 3310TIP3   OH2 9893   2.264   1.113   5.821
 3310TIP3    H1 9894   2.356   1.085   5.818
 3310TIP3    H2 9895   2.216   1.033   5.843
 3311TIP3   OH2 9896   5.700   2.837   1.119
 3311TIP3    H1 9897   5.671   2.921   1.155
 3311TIP3    H2 9898   5.790   2.854   1.091
 3312TIP3   OH2 9899   1.270   3.168   4.300
 3312TIP3    H1 9900   1.251   3.074   4.299
 3312TIP3    H2 9901   1.186   3.209   4.317
 3313TIP3   OH2 9902   5.996   3.399   5.352
 3313TIP3    H1 9903   5.949   3.391   5.435
 3313TIP3    H2 9904   6.081   3.435   5.375
 3314TIP3   OH2 9905   7.256   3.710   0.994
 3314TIP3    H1 9906   7.234   3.765   0.918
 3314TIP3    H2 9907   7.175   3.709   1.046
 3315TIP3   OH2 9908   3.082   4.715   1.175
 3315TIP3    H1 9909   2.993   4.737   1.149
 3315TIP3    H2 9910   3.124   4.683   1.095
 3316TIP3   OH2 9911   0.401   4.957   4.869
 3316TIP3    H1 9912   0.454   4.878   4.862
 3316TIP3    H2 9913   0.445   5.011   4.935
 3317TIP3   OH2 9914   2.211   5.298   5.528
 3317TIP3    H1 9915   2.151   5.311   5.455
 3317TIP3    H2 9916   2.288   5.257   5.489
 3318TIP3   OH2 9917   4.727   6.546   2.359
 3318TIP3    H1 9918   4.775   6.466   2.342
 3318TIP3    H2 9919   4.640   6.517   2.385
 3319TIP3   OH2 9920   2.747   6.569   2.722
 3319TIP3    H1 9921   2.789   6.621   2.792
 3319TIP3    H2 9922   2.807   6.497   2.706
 3320TIP3   OH2 9923   5.582   2.557   5.211
 3320TIP3    H1 9924   5.634   2.598   5.142
 3320TIP3    H2 9925   5.569   2.467   5.182
 3321TIP3   OH2 9926   0.078   2.251   5.343
 3321TIP3    H1 9927   0.061   2.288   5.257
 3321TIP3    H2 9928   0.147   2.186   5.329
 3322TIP3   OH2 9929   3.089   1.010   3.895
 3322TIP3    H1 9930   3.110   1.072   3.965
 3322TIP3    H2 9931   3.134   1.044   3.818
 3323TIP3   OH2 9932   4.650   0.300   5.136
 3323TIP3    H1 9933   4.612   0.225   5.182
 3323TIP3    H2 9934   4.661   0.367   5.203
 3324TIP3   OH2 9935   0.792   3.570   3.385
 3324TIP3    H1 9936   0.736   3.647   3.375
 3324TIP3    H2 9937   0.852   3.574   3.311
 3325TIP3   OH2 9938   6.043   4.596   0.590
 3325TIP3    H1 9939   6.003   4.530   0.533
 3325TIP3    H2 9940   5.981   4.606   0.662
 3326TIP3   OH2 9941   1.202   0.280   3.482
 3326TIP3    H1 9942   1.238   0.199   3.517
 3326TIP3    H2 9943   1.126   0.252   3.430
 3327TIP3   OH2 9944   2.778   3.001   4.317
 3327TIP3    H1 9945   2.735   3.070   4.266
 3327TIP3    H2 9946   2.869   3.004   4.289
 3328TIP3   OH2 9947   2.804   6.735   0.569
 3328TIP3    H1 9948   2.776   6.790   0.642
 3328TIP3    H2 9949   2.861   6.792   0.517
 3329TIP3   OH2 9950   4.102   6.408   4.665
 3329TIP3    H1 9951   4.194   6.400   4.690
 3329TIP3    H2 9952   4.064   6.323   4.686
 3330TIP3   OH2 9953   6.537   2.083   0.246
 3330TIP3    H1 9954   6.461   2.025   0.249
 3330TIP3    H2 9955   6.598   2.040   0.186
 3331TIP3   OH2 9956   1.251   4.316   0.138
 3331TIP3    H1 9957   1.156   4.311   0.150
 3331TIP3    H2 9958   1.286   4.318   0.227
 3332TIP3   OH2 9959   0.433   3.027   4.368
 3332TIP3    H1 9960   0.360   3.012   4.309
 3332TIP3    H2 9961   0.439   3.123   4.375
 3333TIP3   OH2 9962   3.928   4.986   3.931
 3333TIP3    H1 9963   3.883   4.909   3.896
 3333TIP3    H2 9964   4.015   4.953   3.955
 3334TIP3   OH2 9965   2.169   0.345   3.158
 3334TIP3    H1 9966   2.191   0.372   3.069
 3334TIP3    H2 9967   2.151   0.251   3.151
 3335TIP3   OH2 9968   0.336   6.256   4.499
 3335TIP3    H1 9969   0.322   6.343   4.461
 3335TIP3    H2 9970   0.385   6.274   4.580
 3336TIP3   OH2 9971   3.887   4.321   2.016
 3336TIP3    H1 9972   3.830   4.367   2.078
 3336TIP3    H2 9973   3.975   4.355   2.035
 3337TIP3   OH2 9974   0.926   4.451   3.090
 3337TIP3    H1 9975   0.879   4.412   3.016
 3337TIP3    H2 9976   0.952   4.376   3.144
 3338TIP3   OH2 9977   2.041   4.817   2.168
 3338TIP3    H1 9978   2.047   4.911   2.188
 3338TIP3    H2 9979   2.094   4.775   2.236
 3339TIP3   OH2 9980   5.962   4.687   1.984
 3339TIP3    H1 9981   5.981   4.703   1.892
 3339TIP3    H2 9982   6.048   4.677   2.026
 3340TIP3   OH2 9983   7.127   6.072   3.361
 3340TIP3    H1 9984   7.176   6.068   3.443
 3340TIP3    H2 9985   7.140   5.986   3.321
 3341TIP3   OH2 9986   5.142   0.677   1.276
 3341TIP3    H1 9987   5.086   0.644   1.206
 3341TIP3    H2 9988   5.081   0.717   1.338
 3342TIP3   OH2 9989   1.598   4.542   4.021
 3342TIP3    H1 9990   1.655   4.466   4.017
 3342TIP3    H2 9991   1.594   4.574   3.931
 3343TIP3   OH2 9992   6.921   4.383   3.421
 3343TIP3    H1 9993   6.946   4.412   3.508
 3343TIP3    H2 9994   6.876   4.459   3.383
 3344TIP3   OH2 9995   0.225   4.739   3.714
 3344TIP3    H1 9996   0.184   4.728   3.628
 3344TIP3    H2 9997   0.166   4.695   3.775
 3345TIP3   OH2 9998   3.162   0.976   4.659
 3345TIP3    H1 9999   3.195   1.008   4.575
 3345TIP3    H210000   3.125   0.890   4.639
 3346TIP3   OH210001   1.555   5.142   5.232
 3346TIP3    H110002   1.491   5.105   5.171
 3346TIP3    H210003   1.622   5.075   5.240
 3347TIP3   OH210004   7.086   5.922   4.408
 3347TIP3    H110005   7.112   6.013   4.400
 3347TIP3    H210006   7.165   5.872   4.389
 3348TIP3   OH210007   2.945   5.168   2.566
 3348TIP3    H110008   2.932   5.156   2.660
 3348TIP3    H210009   2.908   5.088   2.527
 3349TIP3   OH210010   3.153   1.888   3.377
 3349TIP3    H110011   3.152   1.946   3.301
 3349TIP3    H210012   3.137   1.801   3.341
 3350TIP3   OH210013   1.560   1.744   2.027
 3350TIP3    H110014   1.590   1.717   2.114
 3350TIP3    H210015   1.466   1.761   2.038
 3351TIP3   OH210016   4.747   6.813   5.315
 3351TIP3    H110017   4.770   6.905   5.307
 3351TIP3    H210018   4.790   6.771   5.240
 3352TIP3   OH210019   0.166   2.846   0.214
 3352TIP3    H110020   0.084   2.894   0.202
 3352TIP3    H210021   0.233   2.903   0.176
 3353TIP3   OH210022   1.543   4.035   2.504
 3353TIP3    H110023   1.476   4.046   2.437
 3353TIP3    H210024   1.621   4.075   2.466
 3354TIP3   OH210025   5.881   1.764   3.525
 3354TIP3    H110026   5.878   1.695   3.592
 3354TIP3    H210027   5.962   1.747   3.478
 3355TIP3   OH210028   6.264   3.817   3.214
 3355TIP3    H110029   6.273   3.755   3.142
 3355TIP3    H210030   6.260   3.903   3.172
 3356TIP3   OH210031   0.835   0.751   4.351
 3356TIP3    H110032   0.781   0.677   4.325
 3356TIP3    H210033   0.842   0.745   4.446
 3357TIP3   OH210034   2.811   0.534   1.210
 3357TIP3    H110035   2.784   0.565   1.296
 3357TIP3    H210036   2.733   0.494   1.172
 3358TIP3   OH210037   4.588   2.408   1.032
 3358TIP3    H110038   4.619   2.318   1.024
 3358TIP3    H210039   4.650   2.460   0.980
 3359TIP3   OH210040   6.880   3.615   4.004
 3359TIP3    H110041   6.942   3.636   3.934
 3359TIP3    H210042   6.898   3.524   4.026
 3360TIP3   OH210043   4.362   3.904   3.887
 3360TIP3    H110044   4.277   3.876   3.854
 3360TIP3    H210045   4.345   3.989   3.927
 3361TIP3   OH210046   3.467   1.745   1.340
 3361TIP3    H110047   3.496   1.768   1.428
 3361TIP3    H210048   3.397   1.808   1.320
 3362TIP3   OH210049   0.727   3.434   4.820
 3362TIP3    H110050   0.697   3.520   4.848
 3362TIP3    H210051   0.730   3.382   4.901
 3363TIP3   OH210052   5.715   2.726   3.028
 3363TIP3    H110053   5.634   2.677   3.014
 3363TIP3    H210054   5.689   2.801   3.082
 3364TIP3   OH210055   0.328   4.360   1.671
 3364TIP3    H110056   0.412   4.406   1.675
 3364TIP3    H210057   0.264   4.429   1.654
 3365TIP3   OH210058   6.350   1.927   1.478
 3365TIP3    H110059   6.392   1.877   1.548
 3365TIP3    H210060   6.296   1.862   1.432
 3366TIP3   OH210061   0.204   1.219   0.184
 3366TIP3    H110062   0.233   1.161   0.256
 3366TIP3    H210063   0.201   1.162   0.107
 3367TIP3   OH210064   5.838   3.268   4.655
 3367TIP3    H110065   5.906   3.301   4.714
 3367TIP3    H210066   5.875   3.279   4.568
 3368TIP3   OH210067   6.057   2.750   2.351
 3368TIP3    H110068   6.068   2.726   2.443
 3368TIP3    H210069   5.963   2.742   2.336
 3369TIP3   OH210070   3.996   0.683   3.020
 3369TIP3    H110071   4.027   0.715   3.105
 3369TIP3    H210072   3.960   0.596   3.039
 3370TIP3   OH210073   1.206   5.202   5.593
 3370TIP3    H110074   1.147   5.153   5.649
 3370TIP3    H210075   1.205   5.154   5.510
 3371TIP3   OH210076   4.325   1.496   0.551
 3371TIP3    H110077   4.396   1.528   0.606
 3371TIP3    H210078   4.300   1.413   0.591
 3372TIP3   OH210079   3.682   3.426   3.639
 3372TIP3    H110080   3.647   3.468   3.560
 3372TIP3    H210081   3.735   3.495   3.680
 3373TIP3   OH210082   4.001   3.565   5.235
 3373TIP3    H110083   3.942   3.507   5.187
 3373TIP3    H210084   3.981   3.652   5.201
 3374TIP3   OH210085   5.696   6.353   4.187
 3374TIP3    H110086   5.612   6.351   4.140
 3374TIP3    H210087   5.702   6.442   4.221
 3375TIP3   OH210088   3.721   5.500   3.664
 3375TIP3    H110089   3.730   5.593   3.643
 3375TIP3    H210090   3.660   5.497   3.738
 3376TIP3   OH210091   5.261   6.214   1.757
 3376TIP3    H110092   5.230   6.175   1.676
 3376TIP3    H210093   5.349   6.246   1.737
 3377TIP3   OH210094   3.004   5.655   0.261
 3377TIP3    H110095   3.022   5.568   0.296
 3377TIP3    H210096   2.970   5.639   0.173
 3378TIP3   OH210097   1.303   1.884   2.585
 3378TIP3    H110098   1.335   1.973   2.567
 3378TIP3    H210099   1.321   1.871   2.678
 3379TIP3   OH210100   1.187   0.868   4.951
 3379TIP3    H110101   1.200   0.950   4.903
 3379TIP3    H210102   1.248   0.807   4.912
 3380TIP3   OH210103   6.151   4.428   3.409
 3380TIP3    H110104   6.239   4.466   3.407
 3380TIP3    H210105   6.157   4.357   3.473
 3381TIP3   OH210106   1.854   2.986   1.289
 3381TIP3    H110107   1.840   2.905   1.338
 3381TIP3    H210108   1.940   3.017   1.317
 3382TIP3   OH210109   4.615   2.311   2.329
 3382TIP3    H110110   4.608   2.354   2.244
 3382TIP3    H210111   4.673   2.236   2.313
 3383TIP3   OH210112   3.255   6.410   1.220
 3383TIP3    H110113   3.320   6.342   1.234
 3383TIP3    H210114   3.244   6.452   1.305
 3384TIP3   OH210115   6.821   2.379   1.930
 3384TIP3    H110116   6.908   2.398   1.967
 3384TIP3    H210117   6.812   2.442   1.859
 3385TIP3   OH210118   4.696   6.285   2.579
 3385TIP3    H110119   4.697   6.244   2.493
 3385TIP3    H210120   4.614   6.334   2.581
 3386TIP3   OH210121   1.551   2.052   3.199
 3386TIP3    H110122   1.606   2.083   3.271
 3386TIP3    H210123   1.537   2.129   3.144
 3387TIP3   OH210124   0.776   1.005   2.827
 3387TIP3    H110125   0.843   1.069   2.804
 3387TIP3    H210126   0.821   0.942   2.883
 3388TIP3   OH210127   0.650   4.840   4.210
 3388TIP3    H110128   0.633   4.930   4.181
 3388TIP3    H210129   0.661   4.791   4.128
 3389TIP3   OH210130   5.505   6.646   4.769
 3389TIP3    H110131   5.492   6.737   4.742
 3389TIP3    H210132   5.571   6.650   4.838
 3390TIP3   OH210133   4.038   5.699   3.489
 3390TIP3    H110134   4.100   5.734   3.425
 3390TIP3    H210135   3.988   5.775   3.517
 3391TIP3   OH210136   4.028   3.383   3.731
 3391TIP3    H110137   4.027   3.476   3.706
 3391TIP3    H210138   4.085   3.380   3.808
 3392TIP3   OH210139   3.231   0.576   1.306
 3392TIP3    H110140   3.276   0.533   1.378
 3392TIP3    H210141   3.269   0.664   1.302
 3393TIP3   OH210142   6.473   0.338   0.071
 3393TIP3    H110143   6.457   0.393   0.148
 3393TIP3    H210144   6.407   0.366   0.008
 3394TIP3   OH210145   4.909   4.163   2.366
 3394TIP3    H110146   4.858   4.243   2.354
 3394TIP3    H210147   4.995   4.184   2.329
 3395TIP3   OH210148   0.406   5.104   1.456
 3395TIP3    H110149   0.326   5.075   1.413
 3395TIP3    H210150   0.411   5.197   1.435
 3396TIP3   OH210151   1.055   2.911   2.051
 3396TIP3    H110152   1.005   2.868   1.982
 3396TIP3    H210153   0.990   2.931   2.118
 3397TIP3   OH210154   0.952   4.008   2.609
 3397TIP3    H110155   0.864   3.972   2.605
 3397TIP3    H210156   0.940   4.103   2.606
 3398TIP3   OH210157   1.589   0.025   5.721
 3398TIP3    H110158   1.619   0.111   5.750
 3398TIP3    H210159   1.669  -0.024   5.703
 3399TIP3   OH210160   4.500   5.194   2.105
 3399TIP3    H110161   4.570   5.221   2.164
 3399TIP3    H210162   4.439   5.268   2.105
 3400TIP3   OH210163   7.136   5.501   0.743
 3400TIP3    H110164   7.099   5.542   0.665
 3400TIP3    H210165   7.101   5.551   0.816
 3401TIP3   OH210166   0.350   4.864   5.185
 3401TIP3    H110167   0.366   4.957   5.200
 3401TIP3    H210168   0.258   4.860   5.157
 3402TIP3   OH210169   4.294   2.883   1.932
 3402TIP3    H110170   4.344   2.832   1.868
 3402TIP3    H210171   4.322   2.849   2.017
 3403TIP3   OH210172   2.793   5.697   5.079
 3403TIP3    H110173   2.860   5.628   5.084
 3403TIP3    H210174   2.718   5.655   5.038
 3404TIP3   OH210175   2.576   4.031   2.646
 3404TIP3    H110176   2.527   3.984   2.714
 3404TIP3    H210177   2.664   3.993   2.649
 3405TIP3   OH210178   0.007   2.191  -0.009
 3405TIP3    H110179   0.024   2.162   0.081
 3405TIP3    H210180   0.093   2.187  -0.052
 3406TIP3   OH210181   4.066   1.518   2.965
 3406TIP3    H110182   3.996   1.501   2.902
 3406TIP3    H210183   4.080   1.612   2.961
 3407TIP3   OH210184   6.052   3.258   3.657
 3407TIP3    H110185   6.103   3.209   3.592
 3407TIP3    H210186   6.034   3.194   3.726
 3408TIP3   OH210187   0.301   0.966   3.516
 3408TIP3    H110188   0.345   1.035   3.566
 3408TIP3    H210189   0.316   0.886   3.566
 3409TIP3   OH210190   4.965   0.952   2.849
 3409TIP3    H110191   4.939   0.978   2.938
 3409TIP3    H210192   5.003   0.865   2.860
 3410TIP3   OH210193   1.159   3.050   1.710
 3410TIP3    H110194   1.180   3.121   1.649
 3410TIP3    H210195   1.208   3.071   1.789
 3411TIP3   OH210196   4.776   5.483   4.370
 3411TIP3    H110197   4.828   5.444   4.440
 3411TIP3    H210198   4.696   5.430   4.368
 3412TIP3   OH210199   5.318   1.991   2.821
 3412TIP3    H110200   5.362   1.961   2.741
 3412TIP3    H210201   5.240   2.037   2.789
 3413TIP3   OH210202   5.248   6.617   2.694
 3413TIP3    H110203   5.197   6.608   2.613
 3413TIP3    H210204   5.318   6.552   2.685
 3414TIP3   OH210205   2.935   1.395   0.780
 3414TIP3    H110206   2.853   1.349   0.766
 3414TIP3    H210207   2.972   1.406   0.692
 3415TIP3   OH210208   6.397   5.290   2.694
 3415TIP3    H110209   6.423   5.317   2.782
 3415TIP3    H210210   6.477   5.299   2.642
 3416TIP3   OH210211   6.710   2.005   5.157
 3416TIP3    H110212   6.752   2.029   5.239
 3416TIP3    H210213   6.748   2.065   5.092
 3417TIP3   OH210214   0.448   6.647   1.058
 3417TIP3    H110215   0.465   6.730   1.014
 3417TIP3    H210216   0.423   6.587   0.988
 3418TIP3   OH210217   5.443   6.612   5.190
 3418TIP3    H110218   5.456   6.629   5.097
 3418TIP3    H210219   5.408   6.694   5.224
 3419TIP3   OH210220   2.876   0.805   1.112
 3419TIP3    H110221   2.955   0.858   1.126
 3419TIP3    H210222   2.910   0.717   1.094
 3420TIP3   OH210223   0.706   4.608   5.080
 3420TIP3    H110224   0.799   4.600   5.100
 3420TIP3    H210225   0.680   4.520   5.049
 3421TIP3   OH210226   3.759   1.320   5.174
 3421TIP3    H110227   3.691   1.357   5.231
 3421TIP3    H210228   3.830   1.298   5.234
 3422TIP3   OH210229   2.998   4.823   1.807
 3422TIP3    H110230   3.015   4.777   1.725
 3422TIP3    H210231   2.928   4.885   1.786
 3423TIP3   OH210232   5.474   0.335   0.558
 3423TIP3    H110233   5.396   0.340   0.614
 3423TIP3    H210234   5.528   0.267   0.598
 3424TIP3   OH210235   2.553   6.324   4.408
 3424TIP3    H110236   2.504   6.309   4.488
 3424TIP3    H210237   2.626   6.262   4.412
 3425TIP3   OH210238   2.255   0.791   3.777
 3425TIP3    H110239   2.217   0.814   3.862
 3425TIP3    H210240   2.286   0.874   3.741
 3426TIP3   OH210241   6.288   6.032   3.732
 3426TIP3    H110242   6.239   6.108   3.762
 3426TIP3    H210243   6.299   5.978   3.810
 3427TIP3   OH210244   2.053   2.598   1.993
 3427TIP3    H110245   2.138   2.562   1.966
 3427TIP3    H210246   1.990   2.530   1.973
 3428TIP3   OH210247   1.474   3.872   5.806
 3428TIP3    H110248   1.405   3.843   5.747
 3428TIP3    H210249   1.432   3.874   5.892
 3429TIP3   OH210250   0.334   3.301   2.625
 3429TIP3    H110251   0.328   3.332   2.535
 3429TIP3    H210252   0.427   3.308   2.646
 3430TIP3   OH210253   3.926   0.395   3.065
 3430TIP3    H110254   3.990   0.340   3.111
 3430TIP3    H210255   3.956   0.394   2.974
 3431TIP3   OH210256   0.086   2.187   1.140
 3431TIP3    H110257   0.166   2.237   1.122
 3431TIP3    H210258   0.063   2.210   1.230
 3432TIP3   OH210259   6.084   3.635   1.782
 3432TIP3    H110260   6.115   3.726   1.777
 3432TIP3    H210261   6.158   3.583   1.753
 3433TIP3   OH210262   6.410   2.934   2.341
 3433TIP3    H110263   6.417   3.023   2.307
 3433TIP3    H210264   6.360   2.943   2.422
 3434TIP3   OH210265   2.916   3.787   4.378
 3434TIP3    H110266   2.858   3.725   4.422
 3434TIP3    H210267   2.924   3.753   4.289
 3435TIP3   OH210268   7.179   3.940   2.274
 3435TIP3    H110269   7.264   3.905   2.247
 3435TIP3    H210270   7.184   4.033   2.255
 3436TIP3   OH210271   5.289   3.701   3.783
 3436TIP3    H110272   5.267   3.610   3.803
 3436TIP3    H210273   5.225   3.752   3.832
 3437TIP3   OH210274   0.898   4.573   0.929
 3437TIP3    H110275   0.849   4.640   0.881
 3437TIP3    H210276   0.849   4.560   1.010
 3438TIP3   OH210277  -0.058   5.852   4.781
 3438TIP3    H110278  -0.074   5.902   4.701
 3438TIP3    H210279   0.023   5.804   4.764
 3439TIP3   OH210280   6.657   1.316   0.668
 3439TIP3    H110281   6.728   1.379   0.686
 3439TIP3    H210282   6.697   1.230   0.681
 3440TIP3   OH210283   5.566   4.833   3.143
 3440TIP3    H110284   5.526   4.905   3.094
 3440TIP3    H210285   5.503   4.761   3.135
 3441TIP3   OH210286   5.019   4.231   1.750
 3441TIP3    H110287   4.988   4.168   1.815
 3441TIP3    H210288   4.976   4.203   1.669
 3442TIP3   OH210289   4.957   1.021   5.195
 3442TIP3    H110290   5.019   0.956   5.163
 3442TIP3    H210291   4.891   0.970   5.242
 3443TIP3   OH210292   2.663   5.471   1.026
 3443TIP3    H110293   2.687   5.489   0.935
 3443TIP3    H210294   2.732   5.514   1.077
 3444TIP3   OH210295   0.840   5.225   1.333
 3444TIP3    H110296   0.903   5.251   1.266
 3444TIP3    H210297   0.774   5.294   1.331
 3445TIP3   OH210298   6.117   1.499   4.500
 3445TIP3    H110299   6.082   1.570   4.446
 3445TIP3    H210300   6.144   1.541   4.581
 3446TIP3   OH210301   3.184   1.900   1.162
 3446TIP3    H110302   3.235   1.982   1.160
 3446TIP3    H210303   3.231   1.841   1.104
 3447TIP3   OH210304   2.633   0.358   3.294
 3447TIP3    H110305   2.548   0.334   3.333
 3447TIP3    H210306   2.695   0.298   3.334
 3448TIP3   OH210307   2.536   1.504   4.361
 3448TIP3    H110308   2.528   1.542   4.449
 3448TIP3    H210309   2.629   1.491   4.348
 3449TIP3   OH210310   4.058   4.916   1.959
 3449TIP3    H110311   4.029   4.885   2.045
 3449TIP3    H210312   4.116   4.847   1.927
 3450TIP3   OH210313   6.876   1.943   4.076
 3450TIP3    H110314   6.813   1.880   4.110
 3450TIP3    H210315   6.962   1.902   4.090
 3451TIP3   OH210316   5.606   2.298   2.468
 3451TIP3    H110317   5.661   2.224   2.442
 3451TIP3    H210318   5.586   2.342   2.385
 3452TIP3   OH210319   6.883   0.695   3.383
 3452TIP3    H110320   6.952   0.638   3.415
 3452TIP3    H210321   6.891   0.692   3.288
 3453TIP3   OH210322   5.973   4.747   4.469
 3453TIP3    H110323   6.033   4.686   4.427
 3453TIP3    H210324   5.887   4.727   4.431
 3454TIP3   OH210325   5.345   1.763   1.072
 3454TIP3    H110326   5.360   1.673   1.100
 3454TIP3    H210327   5.270   1.758   1.013
 3455TIP3   OH210328   0.603   2.481   5.617
 3455TIP3    H110329   0.652   2.554   5.655
 3455TIP3    H210330   0.671   2.422   5.585
 3456TIP3   OH210331   5.720   6.131   5.001
 3456TIP3    H110332   5.626   6.127   5.019
 3456TIP3    H210333   5.726   6.140   4.906
 3457TIP3   OH210334   6.312   2.984   0.969
 3457TIP3    H110335   6.406   2.998   0.966
 3457TIP3    H210336   6.299   2.920   1.039
 3458TIP3   OH210337   2.107   2.146   3.875
 3458TIP3    H110338   2.165   2.101   3.936
 3458TIP3    H210339   2.141   2.236   3.872
 3459TIP3   OH210340   2.994   4.987   3.468
 3459TIP3    H110341   2.989   4.921   3.398
 3459TIP3    H210342   2.978   5.070   3.424
 3460TIP3   OH210343   4.766   4.159   1.580
 3460TIP3    H110344   4.716   4.236   1.554
 3460TIP3    H210345   4.756   4.097   1.507
 3461TIP3   OH210346   4.878   2.024   4.098
 3461TIP3    H110347   4.951   2.083   4.084
 3461TIP3    H210348   4.816   2.074   4.151
 3462TIP3   OH210349   5.982   3.959   2.077
 3462TIP3    H110350   6.023   3.887   2.126
 3462TIP3    H210351   6.036   3.969   1.999
 3463TIP3   OH210352   5.997   1.173   2.514
 3463TIP3    H110353   5.971   1.118   2.588
 3463TIP3    H210354   6.069   1.126   2.473
 3464TIP3   OH210355   4.074   3.349   4.239
 3464TIP3    H110356   4.060   3.417   4.173
 3464TIP3    H210357   3.986   3.327   4.271
 3465TIP3   OH210358   4.100   6.645   2.226
 3465TIP3    H110359   4.122   6.571   2.169
 3465TIP3    H210360   4.010   6.627   2.254
 3466TIP3   OH210361   6.805   1.508   3.661
 3466TIP3    H110362   6.888   1.555   3.653
 3466TIP3    H210363   6.776   1.494   3.571
 3467TIP3   OH210364   1.425   1.923   0.469
 3467TIP3    H110365   1.421   1.888   0.380
 3467TIP3    H210366   1.487   1.866   0.514
 3468TIP3   OH210367   3.143   3.903   4.020
 3468TIP3    H110368   3.233   3.930   4.039
 3468TIP3    H210369   3.122   3.949   3.938
 3469TIP3   OH210370   0.368   3.818   3.908
 3469TIP3    H110371   0.364   3.724   3.889
 3469TIP3    H210372   0.289   3.854   3.868
 3470TIP3   OH210373   1.890   3.148   2.220
 3470TIP3    H110374   1.938   3.223   2.255
 3470TIP3    H210375   1.803   3.155   2.258
 3471TIP3   OH210376   4.889   2.919   1.362
 3471TIP3    H110377   4.859   2.993   1.309
 3471TIP3    H210378   4.906   2.957   1.448
 3472TIP3   OH210379   4.635   4.671   4.642
 3472TIP3    H110380   4.632   4.601   4.708
 3472TIP3    H210381   4.712   4.723   4.666
 3473TIP3   OH210382   5.638   0.125   0.666
 3473TIP3    H110383   5.565   0.089   0.616
 3473TIP3    H210384   5.711   0.065   0.649
 3474TIP3   OH210385   2.391   2.202   1.062
 3474TIP3    H110386   2.330   2.134   1.033
 3474TIP3    H210387   2.471   2.154   1.083
 3475TIP3   OH210388   1.049   2.872   0.023
 3475TIP3    H110389   1.138   2.838   0.031
 3475TIP3    H210390   1.013   2.825  -0.053
 3476TIP3   OH210391   3.905   4.971   4.982
 3476TIP3    H110392   3.949   5.035   5.038
 3476TIP3    H210393   3.853   4.918   5.043
 3477TIP3   OH210394   4.716   5.837   3.488
 3477TIP3    H110395   4.779   5.788   3.436
 3477TIP3    H210396   4.647   5.773   3.510
 3478TIP3   OH210397   6.855   6.615   3.161
 3478TIP3    H110398   6.786   6.573   3.110
 3478TIP3    H210399   6.829   6.602   3.252
 3479TIP3   OH210400   6.213   0.223   1.767
 3479TIP3    H110401   6.300   0.209   1.731
 3479TIP3    H210402   6.155   0.175   1.708
 3480TIP3   OH210403   1.312   1.390   4.540
 3480TIP3    H110404   1.312   1.430   4.453
 3480TIP3    H210405   1.258   1.448   4.593
 3481TIP3   OH210406   6.451   3.693   1.214
 3481TIP3    H110407   6.501   3.612   1.208
 3481TIP3    H210408   6.404   3.687   1.297
 3482TIP3   OH210409   3.105   5.175   1.690
 3482TIP3    H110410   3.020   5.203   1.724
 3482TIP3    H210411   3.103   5.198   1.597
 3483TIP3   OH210412   1.175   4.293   1.345
 3483TIP3    H110413   1.177   4.368   1.406
 3483TIP3    H210414   1.083   4.288   1.317
 3484TIP3   OH210415   4.221   4.444   3.248
 3484TIP3    H110416   4.295   4.484   3.202
 3484TIP3    H210417   4.253   4.356   3.270
 3485TIP3   OH210418   3.044   1.203   1.157
 3485TIP3    H110419   3.058   1.118   1.116
 3485TIP3    H210420   3.129   1.227   1.195
 3486TIP3   OH210421   4.470   2.948   1.736
 3486TIP3    H110422   4.450   3.016   1.672
 3486TIP3    H210423   4.474   2.994   1.820
 3487TIP3   OH210424   5.808   1.737   1.374
 3487TIP3    H110425   5.887   1.683   1.366
 3487TIP3    H210426   5.791   1.767   1.285
 3488TIP3   OH210427   3.232   1.403   2.305
 3488TIP3    H110428   3.174   1.345   2.355
 3488TIP3    H210429   3.290   1.441   2.371
 3489TIP3   OH210430   5.858   3.393   3.449
 3489TIP3    H110431   5.908   3.456   3.396
 3489TIP3    H210432   5.900   3.395   3.535
 3490TIP3   OH210433   2.451   5.303   1.063
 3490TIP3    H110434   2.477   5.216   1.093
 3490TIP3    H210435   2.533   5.349   1.049
 3491TIP3   OH210436   1.286   3.986   4.250
 3491TIP3    H110437   1.310   3.962   4.340
 3491TIP3    H210438   1.192   4.004   4.255
 3492TIP3   OH210439   1.735   5.708   5.067
 3492TIP3    H110440   1.698   5.701   5.155
 3492TIP3    H210441   1.662   5.689   5.009
 3493TIP3   OH210442   4.154   1.711   0.123
 3493TIP3    H110443   4.208   1.746   0.053
 3493TIP3    H210444   4.067   1.701   0.085
 3494TIP3   OH210445   2.547   2.712   3.440
 3494TIP3    H110446   2.526   2.790   3.491
 3494TIP3    H210447   2.483   2.647   3.467
 3495TIP3   OH210448   2.220   1.502   5.088
 3495TIP3    H110449   2.315   1.512   5.087
 3495TIP3    H210450   2.195   1.517   5.179
 3496TIP3   OH210451   1.621   3.639   1.399
 3496TIP3    H110452   1.617   3.582   1.322
 3496TIP3    H210453   1.570   3.716   1.374
 3497TIP3   OH210454   0.686   1.463   1.677
 3497TIP3    H110455   0.710   1.468   1.585
 3497TIP3    H210456   0.608   1.408   1.679
 3498TIP3   OH210457   0.210   5.959   4.864
 3498TIP3    H110458   0.173   5.973   4.777
 3498TIP3    H210459   0.276   5.891   4.852
 3499TIP3   OH210460  -0.002   5.030   3.450
 3499TIP3    H110461   0.030   5.113   3.413
 3499TIP3    H210462  -0.001   4.969   3.376
 3500TIP3   OH210463   0.930   0.085   0.143
 3500TIP3    H110464   0.902   0.163   0.096
 3500TIP3    H210465   0.936   0.113   0.234
 3501TIP3   OH210466   0.084   0.100   3.213
 3501TIP3    H110467   0.096   0.180   3.265
 3501TIP3    H210468   0.068   0.132   3.124
 3502TIP3   OH210469   3.942   2.354   0.046
 3502TIP3    H110470   3.974   2.372   0.134
 3502TIP3    H210471   3.854   2.391   0.045
 3503TIP3   OH210472   0.569   4.576   5.728
 3503TIP3    H110473   0.531   4.653   5.685
 3503TIP3    H210474   0.662   4.580   5.706
 3504TIP3   OH210475   6.560   6.009   5.351
 3504TIP3    H110476   6.548   6.065   5.275
 3504TIP3    H210477   6.647   5.971   5.340
 3505TIP3   OH210478   3.963   6.160   2.978
 3505TIP3    H110479   3.993   6.079   3.018
 3505TIP3    H210480   3.906   6.200   3.044
 3506TIP3   OH210481   0.594   4.222   1.927
 3506TIP3    H110482   0.548   4.151   1.971
 3506TIP3    H210483   0.682   4.187   1.910
 3507TIP3   OH210484   6.833   5.776   5.682
 3507TIP3    H110485   6.851   5.858   5.637
 3507TIP3    H210486   6.745   5.786   5.718
 3508TIP3   OH210487   3.596   5.644   2.262
 3508TIP3    H110488   3.526   5.580   2.272
 3508TIP3    H210489   3.597   5.664   2.168
 3509TIP3   OH210490   6.654   2.183   3.886
 3509TIP3    H110491   6.585   2.248   3.901
 3509TIP3    H210492   6.708   2.221   3.816
 3510TIP3   OH210493   0.102   3.647   4.431
 3510TIP3    H110494   0.160   3.682   4.364
 3510TIP3    H210495   0.034   3.714   4.441
 3511TIP3   OH210496   5.824   4.502   5.190
 3511TIP3    H110497   5.823   4.577   5.131
 3511TIP3    H210498   5.868   4.433   5.141
 3512TIP3   OH210499   6.907   2.847   4.579
 3512TIP3    H110500   6.943   2.935   4.591
 3512TIP3    H210501   6.880   2.843   4.488
 3513TIP3   OH210502   1.297   5.521   5.220
 3513TIP3    H110503   1.208   5.510   5.254
 3513TIP3    H210504   1.312   5.616   5.221
 3514TIP3   OH210505   2.163   1.269   4.427
 3514TIP3    H110506   2.240   1.274   4.371
 3514TIP3    H210507   2.164   1.180   4.462
 3515TIP3   OH210508   1.668   1.852   5.434
 3515TIP3    H110509   1.673   1.916   5.505
 3515TIP3    H210510   1.756   1.815   5.429
 3516TIP3   OH210511   5.537   5.722   4.476
 3516TIP3    H110512   5.546   5.804   4.525
 3516TIP3    H210513   5.476   5.670   4.528
 3517TIP3   OH210514   0.735   4.653   4.389
 3517TIP3    H110515   0.780   4.584   4.340
 3517TIP3    H210516   0.686   4.702   4.323
 3518TIP3   OH210517   6.731   0.206   5.842
 3518TIP3    H110518   6.742   0.131   5.901
 3518TIP3    H210519   6.713   0.166   5.757
 3519TIP3   OH210520   1.943   5.285   2.744
 3519TIP3    H110521   1.999   5.334   2.805
 3519TIP3    H210522   2.000   5.218   2.706
 3520TIP3   OH210523   1.776   0.684   3.262
 3520TIP3    H110524   1.831   0.606   3.253
 3520TIP3    H210525   1.835   0.757   3.245
 3521TIP3   OH210526   6.064   1.360   1.479
 3521TIP3    H110527   6.069   1.335   1.571
 3521TIP3    H210528   6.048   1.278   1.433
 3522TIP3   OH210529   6.570   5.960   2.739
 3522TIP3    H110530   6.638   5.917   2.791
 3522TIP3    H210531   6.617   5.995   2.663
 3523TIP3   OH210532   2.107   2.638   3.411
 3523TIP3    H110533   2.176   2.675   3.355
 3523TIP3    H210534   2.141   2.552   3.436
 3524TIP3   OH210535   3.592   1.074   4.753
 3524TIP3    H110536   3.622   1.152   4.706
 3524TIP3    H210537   3.510   1.050   4.709
 3525TIP3   OH210538   2.185   2.869   5.412
 3525TIP3    H110539   2.127   2.796   5.433
 3525TIP3    H210540   2.143   2.945   5.452
 3526TIP3   OH210541   6.266   3.774   3.497
 3526TIP3    H110542   6.207   3.844   3.527
 3526TIP3    H210543   6.280   3.794   3.404
 3527TIP3   OH210544   6.420   3.226   2.376
 3527TIP3    H110545   6.403   3.249   2.467
 3527TIP3    H210546   6.514   3.239   2.364
 3528TIP3   OH210547   6.297   5.476   2.504
 3528TIP3    H110548   6.292   5.435   2.418
 3528TIP3    H210549   6.329   5.407   2.562
 3529TIP3   OH210550   5.116   6.515   2.199
 3529TIP3    H110551   5.186   6.451   2.193
 3529TIP3    H210552   5.159   6.595   2.230
 3530TIP3   OH210553   3.492   6.814   3.183
 3530TIP3    H110554   3.462   6.837   3.095
 3530TIP3    H210555   3.540   6.733   3.171
 3531TIP3   OH210556   0.423   1.572   4.882
 3531TIP3    H110557   0.433   1.645   4.943
 3531TIP3    H210558   0.337   1.584   4.843
 3532TIP3   OH210559   4.695   2.950   2.695
 3532TIP3    H110560   4.778   2.962   2.741
 3532TIP3    H210561   4.630   2.941   2.765
 3533TIP3   OH210562   5.999   3.789   1.415
 3533TIP3    H110563   5.985   3.699   1.384
 3533TIP3    H210564   6.043   3.833   1.342
 3534TIP3   OH210565   7.125   6.438   5.315
 3534TIP3    H110566   7.132   6.412   5.223
 3534TIP3    H210567   7.159   6.362   5.363
 3535TIP3   OH210568   2.848   4.308   4.470
 3535TIP3    H110569   2.756   4.330   4.484
 3535TIP3    H210570   2.846   4.221   4.430
 3536TIP3   OH210571   2.521   4.677   4.165
 3536TIP3    H110572   2.457   4.652   4.231
 3536TIP3    H210573   2.605   4.676   4.212
 3537TIP3   OH210574   4.764   2.228   0.327
 3537TIP3    H110575   4.827   2.232   0.399
 3537TIP3    H210576   4.751   2.135   0.312
 3538TIP3   OH210577   4.250   0.877   3.725
 3538TIP3    H110578   4.310   0.882   3.799
 3538TIP3    H210579   4.275   0.952   3.670
 3539TIP3   OH210580   2.219   4.765   3.186
 3539TIP3    H110581   2.217   4.684   3.134
 3539TIP3    H210582   2.130   4.774   3.219
 3540TIP3   OH210583   0.304   2.293   1.056
 3540TIP3    H110584   0.354   2.365   1.094
 3540TIP3    H210585   0.361   2.257   0.988
 3541TIP3   OH210586   2.691   6.314   3.118
 3541TIP3    H110587   2.719   6.405   3.129
 3541TIP3    H210588   2.718   6.270   3.199
 3542TIP3   OH210589   5.757   6.092   0.246
 3542TIP3    H110590   5.768   6.004   0.282
 3542TIP3    H210591   5.800   6.149   0.310
 3543TIP3   OH210592   0.744   5.331   4.804
 3543TIP3    H110593   0.812   5.302   4.743
 3543TIP3    H210594   0.671   5.272   4.789
 3544TIP3   OH210595   4.750   4.746   1.964
 3544TIP3    H110596   4.710   4.759   1.878
 3544TIP3    H210597   4.707   4.668   1.998
 3545TIP3   OH210598   3.474   0.581   1.010
 3545TIP3    H110599   3.527   0.660   1.005
 3545TIP3    H210600   3.482   0.552   1.101
 3546TIP3   OH210601   3.510   4.666   5.065
 3546TIP3    H110602   3.454   4.659   5.142
 3546TIP3    H210603   3.511   4.579   5.027
 3547TIP3   OH210604   4.679   4.316   4.255
 3547TIP3    H110605   4.738   4.392   4.253
 3547TIP3    H210606   4.694   4.276   4.340
 3548TIP3   OH210607   3.664   3.186   4.323
 3548TIP3    H110608   3.699   3.218   4.240
 3548TIP3    H210609   3.670   3.091   4.317
 3549TIP3   OH210610   3.948   2.938   3.190
 3549TIP3    H110611   3.934   2.962   3.099
 3549TIP3    H210612   3.928   3.018   3.239
 3550TIP3   OH210613   0.889   0.144   3.849
 3550TIP3    H110614   0.822   0.086   3.886
 3550TIP3    H210615   0.878   0.227   3.896
 3551TIP3   OH210616   3.834   4.698   1.058
 3551TIP3    H110617   3.911   4.688   1.001
 3551TIP3    H210618   3.817   4.610   1.091
 3552TIP3   OH210619   6.930   4.886   0.389
 3552TIP3    H110620   6.979   4.810   0.419
 3552TIP3    H210621   6.978   4.918   0.313
 3553TIP3   OH210622   6.655   3.009   3.346
 3553TIP3    H110623   6.718   2.973   3.283
 3553TIP3    H210624   6.675   2.965   3.428
 3554TIP3   OH210625   1.753   0.679   4.027
 3554TIP3    H110626   1.755   0.745   4.096
 3554TIP3    H210627   1.823   0.618   4.050
 3555TIP3   OH210628   2.633   3.685   5.213
 3555TIP3    H110629   2.574   3.610   5.225
 3555TIP3    H210630   2.575   3.762   5.217
 3556TIP3   OH210631   4.656   6.553   4.874
 3556TIP3    H110632   4.625   6.570   4.963
 3556TIP3    H210633   4.653   6.457   4.865
 3557TIP3   OH210634   0.456   4.051   0.613
 3557TIP3    H110635   0.504   4.028   0.693
 3557TIP3    H210636   0.513   4.020   0.542
 3558TIP3   OH210637   6.831   5.570   4.192
 3558TIP3    H110638   6.762   5.505   4.194
 3558TIP3    H210639   6.823   5.611   4.105
 3559TIP3   OH210640   5.695   1.910   0.777
 3559TIP3    H110641   5.638   1.843   0.815
 3559TIP3    H210642   5.636   1.975   0.740
 3560TIP3   OH210643   6.112   0.661   1.945
 3560TIP3    H110644   6.176   0.625   2.007
 3560TIP3    H210645   6.100   0.592   1.880
 3561TIP3   OH210646   1.283   5.411   0.668
 3561TIP3    H110647   1.353   5.420   0.603
 3561TIP3    H210648   1.327   5.384   0.748
 3562TIP3   OH210649   0.256   4.722   5.891
 3562TIP3    H110650   0.255   4.652   5.957
 3562TIP3    H210651   0.197   4.690   5.822
 3563TIP3   OH210652   5.817   5.258   5.680
 3563TIP3    H110653   5.815   5.349   5.649
 3563TIP3    H210654   5.725   5.237   5.697
 3564TIP3   OH210655   2.185   2.313   4.754
 3564TIP3    H110656   2.227   2.397   4.731
 3564TIP3    H210657   2.256   2.249   4.749
 3565TIP3   OH210658   3.623   3.532   0.122
 3565TIP3    H110659   3.539   3.556   0.084
 3565TIP3    H210660   3.601   3.489   0.205
 3566TIP3   OH210661   3.503   0.245   0.333
 3566TIP3    H110662   3.485   0.160   0.373
 3566TIP3    H210663   3.452   0.307   0.385
 3567TIP3   OH210664   1.886   2.511   0.472
 3567TIP3    H110665   1.799   2.549   0.484
 3567TIP3    H210666   1.877   2.454   0.395
 3568TIP3   OH210667   4.355   4.079   4.768
 3568TIP3    H110668   4.262   4.100   4.779
 3568TIP3    H210669   4.356   4.004   4.708
 3569TIP3   OH210670   5.527   3.926   5.319
 3569TIP3    H110671   5.536   3.959   5.230
 3569TIP3    H210672   5.616   3.906   5.347
 3570TIP3   OH210673   3.753   2.962   1.765
 3570TIP3    H110674   3.836   3.007   1.780
 3570TIP3    H210675   3.696   3.028   1.726
 3571TIP3   OH210676   4.918   6.748   5.548
 3571TIP3    H110677   4.987   6.788   5.495
 3571TIP3    H210678   4.895   6.668   5.501
 3572TIP3   OH210679   3.891   4.824   0.392
 3572TIP3    H110680   3.937   4.903   0.419
 3572TIP3    H210681   3.921   4.756   0.453
 3573TIP3   OH210682   3.498   4.329   4.411
 3573TIP3    H110683   3.455   4.283   4.339
 3573TIP3    H210684   3.578   4.280   4.426
 3574TIP3   OH210685   6.045   3.922   3.614
 3574TIP3    H110686   5.971   3.984   3.611
 3574TIP3    H210687   6.011   3.847   3.664
 3575TIP3   OH210688   2.806   5.623   1.214
 3575TIP3    H110689   2.847   5.561   1.274
 3575TIP3    H210690   2.857   5.703   1.223
 3576TIP3   OH210691   5.282   0.788   3.761
 3576TIP3    H110692   5.221   0.836   3.705
 3576TIP3    H210693   5.226   0.752   3.831
 3577TIP3   OH210694   1.908   4.201   3.451
 3577TIP3    H110695   1.999   4.221   3.472
 3577TIP3    H210696   1.907   4.185   3.357
 3578TIP3   OH210697   1.579   5.306   4.625
 3578TIP3    H110698   1.568   5.398   4.603
 3578TIP3    H210699   1.612   5.307   4.715
 3579TIP3   OH210700   2.090   3.613   5.476
 3579TIP3    H110701   2.057   3.631   5.388
 3579TIP3    H210702   2.017   3.635   5.534
 3580TIP3   OH210703   3.031   3.692   2.999
 3580TIP3    H110704   3.043   3.786   2.988
 3580TIP3    H210705   3.002   3.661   2.912
 3581TIP3   OH210706   6.060   0.218   4.771
 3581TIP3    H110707   6.132   0.256   4.821
 3581TIP3    H210708   6.066   0.124   4.788
 3582TIP3   OH210709   1.379   5.907   5.484
 3582TIP3    H110710   1.319   5.842   5.448
 3582TIP3    H210711   1.347   5.990   5.451
 3583TIP3   OH210712   4.815   3.640   3.561
 3583TIP3    H110713   4.830   3.715   3.617
 3583TIP3    H210714   4.838   3.671   3.473
 3584TIP3   OH210715   2.146   5.322   4.008
 3584TIP3    H110716   2.064   5.324   4.059
 3584TIP3    H210717   2.160   5.229   3.991
 3585TIP3   OH210718   0.454   3.637   5.620
 3585TIP3    H110719   0.363   3.631   5.591
 3585TIP3    H210720   0.492   3.552   5.598
 3586TIP3   OH210721   5.259   3.523   4.140
 3586TIP3    H110722   5.244   3.470   4.219
 3586TIP3    H210723   5.270   3.612   4.173
 3587TIP3   OH210724   6.295   0.879   2.017
 3587TIP3    H110725   6.252   0.818   1.958
 3587TIP3    H210726   6.344   0.822   2.078
 3588TIP3   OH210727   3.584   0.342   1.618
 3588TIP3    H110728   3.578   0.246   1.616
 3588TIP3    H210729   3.657   0.362   1.560
 3589TIP3   OH210730   1.380   0.787   2.015
 3589TIP3    H110731   1.291   0.817   1.995
 3589TIP3    H210732   1.416   0.761   1.930
 3590TIP3   OH210733   4.759   6.345   1.397
 3590TIP3    H110734   4.819   6.413   1.367
 3590TIP3    H210735   4.672   6.385   1.394
 3591TIP3   OH210736   7.154   2.574   4.050
 3591TIP3    H110737   7.246   2.559   4.072
 3591TIP3    H210738   7.124   2.636   4.116
 3592TIP3   OH210739   0.189   3.640   5.517
 3592TIP3    H110740   0.196   3.604   5.429
 3592TIP3    H210741   0.119   3.705   5.511
 3593TIP3   OH210742   4.169   5.004   4.498
 3593TIP3    H110743   4.251   4.974   4.537
 3593TIP3    H210744   4.135   4.928   4.451
 3594TIP3   OH210745   6.298   6.435   3.955
 3594TIP3    H110746   6.343   6.431   3.871
 3594TIP3    H210747   6.302   6.346   3.990
 3595TIP3   OH210748   6.037   6.560   2.038
 3595TIP3    H110749   6.039   6.466   2.018
 3595TIP3    H210750   6.128   6.583   2.055
 3596TIP3   OH210751   0.296   1.756   0.747
 3596TIP3    H110752   0.215   1.806   0.751
 3596TIP3    H210753   0.316   1.736   0.839
 3597TIP3   OH210754   4.703   0.906   3.994
 3597TIP3    H110755   4.756   0.826   3.995
 3597TIP3    H210756   4.762   0.974   3.963
 3598TIP3   OH210757   2.905   1.384   5.434
 3598TIP3    H110758   2.998   1.363   5.440
 3598TIP3    H210759   2.860   1.303   5.458
 3599TIP3   OH210760   0.787   1.313   3.965
 3599TIP3    H110761   0.842   1.294   3.889
 3599TIP3    H210762   0.824   1.393   4.002
 3600TIP3   OH210763   5.180   3.114   0.172
 3600TIP3    H110764   5.231   3.193   0.149
 3600TIP3    H210765   5.202   3.051   0.104
 3601TIP3   OH210766   1.945   3.514   3.045
 3601TIP3    H110767   2.037   3.487   3.040
 3601TIP3    H210768   1.948   3.609   3.057
 3602TIP3   OH210769   5.446   5.148   1.714
 3602TIP3    H110770   5.487   5.068   1.680
 3602TIP3    H210771   5.513   5.187   1.771
 3603TIP3   OH210772   5.371   6.452   4.427
 3603TIP3    H110773   5.316   6.530   4.421
 3603TIP3    H210774   5.442   6.477   4.486
 3604TIP3   OH210775   3.321   1.120   2.743
 3604TIP3    H110776   3.370   1.120   2.661
 3604TIP3    H210777   3.235   1.156   2.720
 3605TIP3   OH210778   1.987   0.158   3.796
 3605TIP3    H110779   1.954   0.203   3.718
 3605TIP3    H210780   1.969   0.065   3.780
 3606TIP3   OH210781   4.866   5.314   0.090
 3606TIP3    H110782   4.828   5.333   0.175
 3606TIP3    H210783   4.961   5.311   0.106
 3607TIP3   OH210784   2.705   4.801   4.649
 3607TIP3    H110785   2.741   4.760   4.728
 3607TIP3    H210786   2.616   4.766   4.643
 3608TIP3   OH210787   5.771   6.634   1.491
 3608TIP3    H110788   5.752   6.609   1.581
 3608TIP3    H210789   5.864   6.615   1.479
 3609TIP3   OH210790   4.106   2.458   1.764
 3609TIP3    H110791   4.120   2.532   1.704
 3609TIP3    H210792   4.096   2.382   1.707
 3610TIP3   OH210793   6.178   3.256   3.016
 3610TIP3    H110794   6.096   3.285   2.977
 3610TIP3    H210795   6.223   3.208   2.946
 3611TIP3   OH210796   1.402   4.971   2.469
 3611TIP3    H110797   1.444   4.888   2.448
 3611TIP3    H210798   1.329   4.948   2.525
 3612TIP3   OH210799   5.749   3.170   3.667
 3612TIP3    H110800   5.664   3.138   3.637
 3612TIP3    H210801   5.799   3.184   3.586
 3613TIP3   OH210802   6.886   6.669   4.096
 3613TIP3    H110803   6.958   6.627   4.049
 3613TIP3    H210804   6.815   6.604   4.095
 3614TIP3   OH210805   2.834   1.727   5.037
 3614TIP3    H110806   2.917   1.711   5.082
 3614TIP3    H210807   2.859   1.742   4.946
 3615TIP3   OH210808   1.471   4.288   1.510
 3615TIP3    H110809   1.518   4.279   1.427
 3615TIP3    H210810   1.489   4.377   1.539
 3616TIP3   OH210811   1.265   2.760   1.684
 3616TIP3    H110812   1.218   2.708   1.749
 3616TIP3    H210813   1.204   2.832   1.663
 3617TIP3   OH210814   5.274   3.194   3.221
 3617TIP3    H110815   5.329   3.159   3.151
 3617TIP3    H210816   5.245   3.117   3.270
 3618TIP3   OH210817   3.239   3.091   1.739
 3618TIP3    H110818   3.312   3.043   1.779
 3618TIP3    H210819   3.281   3.151   1.678
 3619TIP3   OH210820   6.267   4.789   2.975
 3619TIP3    H110821   6.347   4.750   3.012
 3619TIP3    H210822   6.287   4.801   2.882
 3620TIP3   OH210823   2.907   4.856   3.241
 3620TIP3    H110824   2.822   4.885   3.206
 3620TIP3    H210825   2.946   4.806   3.170
 3621TIP3   OH210826   4.307   1.350   2.610
 3621TIP3    H110827   4.247   1.401   2.555
 3621TIP3    H210828   4.347   1.288   2.549
 3622TIP3   OH210829   4.979   5.829   3.301
 3622TIP3    H110830   5.025   5.889   3.360
 3622TIP3    H210831   5.039   5.816   3.228
 3623TIP3   OH210832   4.704   4.327   2.237
 3623TIP3    H110833   4.669   4.249   2.194
 3623TIP3    H210834   4.730   4.385   2.166
 3624TIP3   OH210835   4.639   0.502   3.948
 3624TIP3    H110836   4.590   0.482   4.027
 3624TIP3    H210837   4.577   0.491   3.877
 3625TIP3   OH210838   6.739   1.209   3.265
 3625TIP3    H110839   6.725   1.296   3.304
 3625TIP3    H210840   6.827   1.185   3.293
 3626TIP3   OH210841   1.582   0.346   5.309
 3626TIP3    H110842   1.598   0.438   5.333
 3626TIP3    H210843   1.500   0.324   5.352
 3627TIP3   OH210844   3.795   2.292   5.061
 3627TIP3    H110845   3.801   2.196   5.058
 3627TIP3    H210846   3.794   2.319   4.969
 3628TIP3   OH210847   2.226   0.263   1.167
 3628TIP3    H110848   2.152   0.225   1.213
 3628TIP3    H210849   2.217   0.357   1.180
 3629TIP3   OH210850   3.146   0.950   4.238
 3629TIP3    H110851   3.082   0.881   4.257
 3629TIP3    H210852   3.097   1.031   4.247
 3630TIP3   OH210853   6.599   6.461   3.675
 3630TIP3    H110854   6.516   6.469   3.629
 3630TIP3    H210855   6.637   6.549   3.671
 3631TIP3   OH210856   6.163   4.246   3.824
 3631TIP3    H110857   6.150   4.168   3.878
 3631TIP3    H210858   6.074   4.277   3.806
 3632TIP3   OH210859   5.499   5.892   3.483
 3632TIP3    H110860   5.412   5.879   3.518
 3632TIP3    H210861   5.545   5.810   3.503
 3633TIP3   OH210862   2.896   0.620   0.291
 3633TIP3    H110863   2.882   0.614   0.386
 3633TIP3    H210864   2.879   0.531   0.259
 3634TIP3   OH210865   3.075   3.985   1.338
 3634TIP3    H110866   3.058   4.079   1.346
 3634TIP3    H210867   3.011   3.954   1.274
 3635TIP3   OH210868   2.651   0.957   4.847
 3635TIP3    H110869   2.656   0.900   4.924
 3635TIP3    H210870   2.558   0.974   4.836
 3636TIP3   OH210871   5.813   3.430   0.749
 3636TIP3    H110872   5.839   3.493   0.816
 3636TIP3    H210873   5.766   3.362   0.797
 3637TIP3   OH210874   4.242   0.159   0.276
 3637TIP3    H110875   4.292   0.202   0.346
 3637TIP3    H210876   4.305   0.100   0.235
 3638TIP3   OH210877   6.408   5.874   0.269
 3638TIP3    H110878   6.331   5.930   0.272
 3638TIP3    H210879   6.380   5.792   0.309
 3639TIP3   OH210880   5.981   6.715   0.238
 3639TIP3    H110881   5.971   6.809   0.255
 3639TIP3    H210882   6.011   6.710   0.147
 3640TIP3   OH210883   1.232   2.625   1.947
 3640TIP3    H110884   1.325   2.618   1.924
 3640TIP3    H210885   1.231   2.629   2.043
 3641TIP3   OH210886   2.873   3.144   1.374
 3641TIP3    H110887   2.915   3.093   1.444
 3641TIP3    H210888   2.947   3.180   1.324
 3642TIP3   OH210889   2.796   6.550   5.381
 3642TIP3    H110890   2.889   6.564   5.364
 3642TIP3    H210891   2.785   6.455   5.379
 3643TIP3   OH210892   3.854   1.899   1.715
 3643TIP3    H110893   3.907   1.828   1.751
 3643TIP3    H210894   3.862   1.890   1.620
 3644TIP3   OH210895   1.682   4.097   5.921
 3644TIP3    H110896   1.738   4.072   5.847
 3644TIP3    H210897   1.629   4.019   5.938
 3645TIP3   OH210898   6.958   4.651   0.618
 3645TIP3    H110899   7.006   4.575   0.585
 3645TIP3    H210900   6.884   4.614   0.666
 3646TIP3   OH210901   6.958   3.774   2.208
 3646TIP3    H110902   6.991   3.812   2.290
 3646TIP3    H210903   7.033   3.730   2.170
 3647TIP3   OH210904   4.638   1.439   0.774
 3647TIP3    H110905   4.641   1.391   0.856
 3647TIP3    H210906   4.545   1.457   0.760
 3648TIP3   OH210907   3.879   5.029   2.277
 3648TIP3    H110908   3.827   5.108   2.293
 3648TIP3    H210909   3.814   4.964   2.249
 3649TIP3   OH210910   3.271   6.053   3.365
 3649TIP3    H110911   3.262   5.957   3.358
 3649TIP3    H210912   3.326   6.077   3.291
 3650TIP3   OH210913   4.654   2.147   4.207
 3650TIP3    H110914   4.596   2.167   4.280
 3650TIP3    H210915   4.597   2.106   4.142
 3651TIP3   OH210916   1.855   2.288   0.273
 3651TIP3    H110917   1.845   2.228   0.199
 3651TIP3    H210918   1.949   2.288   0.291
 3652TIP3   OH210919   1.115   0.004   3.778
 3652TIP3    H110920   1.137  -0.082   3.813
 3652TIP3    H210921   1.040   0.033   3.830
 3653TIP3   OH210922   1.494   3.966   4.950
 3653TIP3    H110923   1.486   3.985   5.044
 3653TIP3    H210924   1.442   3.887   4.937
 3654TIP3   OH210925   1.080   5.305   1.877
 3654TIP3    H110926   1.036   5.221   1.894
 3654TIP3    H210927   1.009   5.368   1.865
 3655TIP3   OH210928   3.228   5.829   2.031
 3655TIP3    H110929   3.309   5.870   1.999
 3655TIP3    H210930   3.242   5.821   2.126
 3656TIP3   OH210931   2.748   0.967   4.411
 3656TIP3    H110932   2.800   0.906   4.358
 3656TIP3    H210933   2.808   0.996   4.480
 3657TIP3   OH210934   2.758   3.940   1.725
 3657TIP3    H110935   2.838   3.915   1.772
 3657TIP3    H210936   2.784   4.017   1.674
 3658TIP3   OH210937   5.323   1.116   1.313
 3658TIP3    H110938   5.341   1.210   1.309
 3658TIP3    H210939   5.409   1.075   1.300
 3659TIP3   OH210940   4.792   3.611   2.899
 3659TIP3    H110941   4.886   3.603   2.916
 3659TIP3    H210942   4.751   3.578   2.979
 3660TIP3   OH210943   6.308   0.058   4.907
 3660TIP3    H110944   6.298   0.144   4.947
 3660TIP3    H210945   6.226   0.012   4.929
 3661TIP3   OH210946   7.012   3.946   3.696
 3661TIP3    H110947   7.079   3.982   3.638
 3661TIP3    H210948   6.941   3.920   3.636
 3662TIP3   OH210949   2.668   6.110   1.241
 3662TIP3    H110950   2.621   6.046   1.294
 3662TIP3    H210951   2.600   6.167   1.206
 3663TIP3   OH210952   6.611   4.316   0.154
 3663TIP3    H110953   6.643   4.376   0.220
 3663TIP3    H210954   6.571   4.372   0.087
 3664TIP3   OH210955   3.688   4.514   4.692
 3664TIP3    H110956   3.740   4.496   4.771
 3664TIP3    H210957   3.597   4.506   4.721
 3665TIP3   OH210958   1.951   6.530   0.136
 3665TIP3    H110959   1.998   6.490   0.062
 3665TIP3    H210960   1.941   6.458   0.199
 3666TIP3   OH210961   3.690   5.999   4.813
 3666TIP3    H110962   3.784   5.987   4.831
 3666TIP3    H210963   3.686   6.010   4.718
 3667TIP3   OH210964   7.071   1.376   2.961
 3667TIP3    H110965   7.140   1.375   3.027
 3667TIP3    H210966   7.111   1.415   2.884
 3668TIP3   OH210967   2.212   2.940   5.726
 3668TIP3    H110968   2.188   2.848   5.734
 3668TIP3    H210969   2.132   2.984   5.697
 3669TIP3   OH210970   2.244   5.021   3.910
 3669TIP3    H110971   2.156   5.023   3.872
 3669TIP3    H210972   2.253   4.931   3.942
 3670TIP3   OH210973   0.448   1.172   3.611
 3670TIP3    H110974   0.542   1.174   3.631
 3670TIP3    H210975   0.414   1.254   3.648
 3671TIP3   OH210976   0.011   5.808   1.245
 3671TIP3    H110977   0.035   5.892   1.205
 3671TIP3    H210978  -0.043   5.832   1.321
 3672TIP3   OH210979   0.098   1.137   3.800
 3672TIP3    H110980   0.008   1.138   3.767
 3672TIP3    H210981   0.121   1.044   3.803
 3673TIP3   OH210982   7.278   2.946   4.417
 3673TIP3    H110983   7.186   2.970   4.409
 3673TIP3    H210984   7.316   3.013   4.473
 3674TIP3   OH210985   0.891   0.741   2.010
 3674TIP3    H110986   0.877   0.815   2.069
 3674TIP3    H210987   0.869   0.774   1.923
 3675TIP3   OH210988   4.595   5.714   1.679
 3675TIP3    H110989   4.641   5.757   1.751
 3675TIP3    H210990   4.538   5.650   1.723
 3676TIP3   OH210991   2.160   5.333   2.392
 3676TIP3    H110992   2.200   5.383   2.321
 3676TIP3    H210993   2.190   5.375   2.472
 3677TIP3   OH210994   3.403   6.484   2.185
 3677TIP3    H110995   3.316   6.481   2.224
 3677TIP3    H210996   3.437   6.395   2.195
 3678TIP3   OH210997   5.957   0.111   3.565
 3678TIP3    H110998   5.901   0.175   3.610
 3678TIP3    H210999   6.039   0.111   3.615
 3679TIP3   OH211000   6.056   1.434   2.059
 3679TIP3    H111001   6.115   1.444   1.984
 3679TIP3    H211002   6.057   1.341   2.078
 3680TIP3   OH211003   1.841   2.771   0.930
 3680TIP3    H111004   1.888   2.698   0.890
 3680TIP3    H211005   1.809   2.737   1.013
 3681TIP3   OH211006   6.011   6.239   5.860
 3681TIP3    H111007   6.015   6.332   5.883
 3681TIP3    H211008   6.047   6.235   5.772
 3682TIP3   OH211009   0.285   0.291   5.575
 3682TIP3    H111010   0.291   0.386   5.578
 3682TIP3    H211011   0.197   0.271   5.606
 3683TIP3   OH211012   6.512   2.594   1.698
 3683TIP3    H111013   6.607   2.591   1.713
 3683TIP3    H211014   6.501   2.658   1.628
 3684TIP3   OH211015   5.459   0.841   5.135
 3684TIP3    H111016   5.473   0.846   5.041
 3684TIP3    H211017   5.532   0.789   5.168
 3685TIP3   OH211018   6.947   2.055   1.832
 3685TIP3    H111019   6.887   2.071   1.905
 3685TIP3    H211020   6.934   1.963   1.809
 3686TIP3   OH211021   6.310   5.025   3.872
 3686TIP3    H111022   6.392   4.977   3.886
 3686TIP3    H211023   6.286   5.005   3.781
 3687TIP3   OH211024   6.728   1.843   3.603
 3687TIP3    H111025   6.811   1.800   3.586
 3687TIP3    H211026   6.718   1.905   3.530
 3688TIP3   OH211027   2.746   2.785   1.336
 3688TIP3    H111028   2.675   2.721   1.335
 3688TIP3    H211029   2.820   2.739   1.297
 3689TIP3   OH211030   6.922   0.434   2.059
 3689TIP3    H111031   6.895   0.488   1.985
 3689TIP3    H211032   7.013   0.458   2.075
 3690TIP3   OH211033   5.949   3.255   1.813
 3690TIP3    H111034   5.889   3.326   1.788
 3690TIP3    H211035   5.903   3.175   1.788
 3691TIP3   OH211036   4.730   3.453   4.344
 3691TIP3    H111037   4.771   3.432   4.261
 3691TIP3    H211038   4.756   3.544   4.362
 3692TIP3   OH211039   4.234   5.132   0.077
 3692TIP3    H111040   4.177   5.061   0.110
 3692TIP3    H211041   4.322   5.094   0.079
 3693TIP3   OH211042   6.720   3.470   4.774
 3693TIP3    H111043   6.665   3.479   4.696
 3693TIP3    H211044   6.664   3.499   4.846
 3694TIP3   OH211045   1.329   4.604   5.336
 3694TIP3    H111046   1.381   4.597   5.256
 3694TIP3    H211047   1.394   4.617   5.405
 3695TIP3   OH211048   2.818   1.269   5.675
 3695TIP3    H111049   2.828   1.235   5.764
 3695TIP3    H211050   2.896   1.322   5.660
 3696TIP3   OH211051   4.071   1.706   3.253
 3696TIP3    H111052   4.103   1.773   3.192
 3696TIP3    H211053   4.150   1.671   3.294
 3697TIP3   OH211054   2.489   5.087   2.764
 3697TIP3    H111055   2.480   5.074   2.859
 3697TIP3    H211056   2.415   5.142   2.741
 3698TIP3   OH211057   0.241   4.525   5.097
 3698TIP3    H111058   0.228   4.431   5.090
 3698TIP3    H211059   0.331   4.535   5.131
 3699TIP3   OH211060   5.193   5.344   5.251
 3699TIP3    H111061   5.138   5.266   5.243
 3699TIP3    H211062   5.263   5.318   5.310
 3700TIP3   OH211063   6.723   4.751   1.354
 3700TIP3    H111064   6.685   4.773   1.439
 3700TIP3    H211065   6.809   4.793   1.355
 3701TIP3   OH211066   7.078   5.988   2.158
 3701TIP3    H111067   7.127   6.001   2.240
 3701TIP3    H211068   7.044   5.899   2.165
 3702TIP3   OH211069   6.566   5.965   1.695
 3702TIP3    H111070   6.572   5.965   1.599
 3702TIP3    H211071   6.647   6.006   1.723
 3703TIP3   OH211072   5.752   2.671   0.079
 3703TIP3    H111073   5.668   2.705   0.109
 3703TIP3    H211074   5.791   2.743   0.029
 3704TIP3   OH211075   2.398   1.434   3.250
 3704TIP3    H111076   2.357   1.349   3.261
 3704TIP3    H211077   2.421   1.461   3.339
 3705TIP3   OH211078   3.470   4.387   3.538
 3705TIP3    H111079   3.484   4.452   3.469
 3705TIP3    H211080   3.521   4.311   3.511
 3706TIP3   OH211081   2.392   3.117   1.754
 3706TIP3    H111082   2.300   3.140   1.766
 3706TIP3    H211083   2.391   3.049   1.687
 3707TIP3   OH211084   2.791   2.037   1.840
 3707TIP3    H111085   2.722   2.100   1.820
 3707TIP3    H211086   2.846   2.081   1.905
 3708TIP3   OH211087   3.284   4.522   0.083
 3708TIP3    H111088   3.318   4.510  -0.005
 3708TIP3    H211089   3.333   4.461   0.138
 3709TIP3   OH211090   5.920   0.303   0.141
 3709TIP3    H111091   5.831   0.276   0.122
 3709TIP3    H211092   5.945   0.253   0.219
 3710TIP3   OH211093   2.343   1.458   1.133
 3710TIP3    H111094   2.380   1.537   1.094
 3710TIP3    H211095   2.366   1.388   1.072
 3711TIP3   OH211096   7.168   0.379   5.538
 3711TIP3    H111097   7.185   0.439   5.610
 3711TIP3    H211098   7.073   0.370   5.537
 3712TIP3   OH211099   4.555   5.960   5.129
 3712TIP3    H111100   4.601   5.876   5.126
 3712TIP3    H211101   4.579   5.997   5.214
 3713TIP3   OH211102   6.277   4.044   1.914
 3713TIP3    H111103   6.269   4.129   1.872
 3713TIP3    H211104   6.292   4.064   2.006
 3714TIP3   OH211105   3.706   2.664   2.651
 3714TIP3    H111106   3.795   2.697   2.667
 3714TIP3    H211107   3.663   2.735   2.603
 3715TIP3   OH211108   4.455   2.551   1.803
 3715TIP3    H111109   4.371   2.585   1.774
 3715TIP3    H211110   4.520   2.613   1.768
 3716TIP3   OH211111   4.867   3.812   2.574
 3716TIP3    H111112   4.937   3.809   2.639
 3716TIP3    H211113   4.849   3.721   2.553
 3717TIP3   OH211114   1.761   2.127   4.876
 3717TIP3    H111115   1.843   2.167   4.904
 3717TIP3    H211116   1.788   2.045   4.835
 3718TIP3   OH211117   1.921   1.949   3.957
 3718TIP3    H111118   1.954   2.026   4.002
 3718TIP3    H211119   1.977   1.941   3.880
 3719TIP3   OH211120   4.441   3.499   4.965
 3719TIP3    H111121   4.481   3.415   4.986
 3719TIP3    H211122   4.497   3.564   5.005
 3720TIP3   OH211123   2.235   3.394   4.635
 3720TIP3    H111124   2.211   3.301   4.637
 3720TIP3    H211125   2.160   3.439   4.675
 3721TIP3   OH211126   6.426   1.699   3.597
 3721TIP3    H111127   6.497   1.755   3.627
 3721TIP3    H211128   6.409   1.641   3.670
 3722TIP3   OH211129   4.721   0.865   1.968
 3722TIP3    H111130   4.630   0.889   1.948
 3722TIP3    H211131   4.754   0.829   1.886
 3723TIP3   OH211132   0.459   1.980   1.262
 3723TIP3    H111133   0.509   1.903   1.289
 3723TIP3    H211134   0.438   1.964   1.170
 3724TIP3   OH211135   0.047   0.433   4.099
 3724TIP3    H111136   0.007   0.362   4.149
 3724TIP3    H211137   0.021   0.415   4.008
 3725TIP3   OH211138   5.320   1.577   5.246
 3725TIP3    H111139   5.228   1.569   5.272
 3725TIP3    H211140   5.320   1.564   5.151
 3726TIP3   OH211141   1.235   3.116   3.311
 3726TIP3    H111142   1.192   3.122   3.397
 3726TIP3    H211143   1.326   3.098   3.331
 3727TIP3   OH211144   1.405   4.542   0.024
 3727TIP3    H111145   1.344   4.610  -0.005
 3727TIP3    H211146   1.359   4.495   0.093
 3728TIP3   OH211147   1.730   1.476   0.037
 3728TIP3    H111148   1.679   1.491   0.117
 3728TIP3    H211149   1.739   1.563  -0.002
 3729TIP3   OH211150   4.896   2.830   4.685
 3729TIP3    H111151   4.900   2.738   4.711
 3729TIP3    H211152   4.927   2.831   4.595
 3730TIP3   OH211153   5.557   3.783   3.798
 3730TIP3    H111154   5.465   3.756   3.789
 3730TIP3    H211155   5.554   3.878   3.796
 3731TIP3   OH211156   5.913   4.669   1.212
 3731TIP3    H111157   5.864   4.614   1.273
 3731TIP3    H211158   5.929   4.612   1.136
 3732TIP3   OH211159   3.463   5.153   4.669
 3732TIP3    H111160   3.540   5.130   4.618
 3732TIP3    H211161   3.463   5.249   4.670
 3733TIP3   OH211162   3.760   3.561   4.890
 3733TIP3    H111163   3.750   3.586   4.798
 3733TIP3    H211164   3.688   3.606   4.934
 3734TIP3   OH211165   2.193   6.019   5.862
 3734TIP3    H111166   2.225   5.938   5.822
 3734TIP3    H211167   2.110   5.994   5.903
 3735TIP3   OH211168   3.548   1.938   0.867
 3735TIP3    H111169   3.522   1.936   0.774
 3735TIP3    H211170   3.576   2.028   0.882
 3736TIP3   OH211171   2.020   5.683   3.618
 3736TIP3    H111172   2.019   5.626   3.695
 3736TIP3    H211173   2.087   5.645   3.561
 3737TIP3   OH211174   3.341   1.525   3.895
 3737TIP3    H111175   3.384   1.521   3.981
 3737TIP3    H211176   3.256   1.565   3.913
 3738TIP3   OH211177   2.716   1.806   4.551
 3738TIP3    H111178   2.658   1.857   4.495
 3738TIP3    H211179   2.657   1.751   4.603
 3739TIP3   OH211180   5.532   3.728   5.031
 3739TIP3    H111181   5.525   3.800   4.968
 3739TIP3    H211182   5.441   3.704   5.050
 3740TIP3   OH211183   5.765   4.356   1.842
 3740TIP3    H111184   5.763   4.431   1.902
 3740TIP3    H211185   5.676   4.349   1.809
 3741TIP3   OH211186   5.661   1.529   4.562
 3741TIP3    H111187   5.737   1.488   4.521
 3741TIP3    H211188   5.664   1.500   4.653
 3742TIP3   OH211189   4.120   5.244   3.447
 3742TIP3    H111190   4.058   5.310   3.478
 3742TIP3    H211191   4.179   5.230   3.521
 3743TIP3   OH211192   3.491   1.984   3.904
 3743TIP3    H111193   3.555   1.939   3.849
 3743TIP3    H211194   3.484   2.072   3.866
 3744TIP3   OH211195   3.496   5.234   1.601
 3744TIP3    H111196   3.443   5.268   1.672
 3744TIP3    H211197   3.440   5.238   1.523
 3745TIP3   OH211198   1.965   3.680   2.339
 3745TIP3    H111199   1.999   3.591   2.327
 3745TIP3    H211200   1.939   3.684   2.430
 3746TIP3   OH211201   2.391   5.425   4.053
 3746TIP3    H111202   2.297   5.416   4.067
 3746TIP3    H211203   2.419   5.489   4.119
 3747TIP3   OH211204   4.412   4.678   5.370
 3747TIP3    H111205   4.485   4.706   5.426
 3747TIP3    H211206   4.447   4.603   5.321
 3748TIP3   OH211207   5.757   4.028   5.069
 3748TIP3    H111208   5.786   3.967   5.136
 3748TIP3    H211209   5.761   3.978   4.988
 3749TIP3   OH211210   0.250   6.516   4.416
 3749TIP3    H111211   0.176   6.493   4.471
 3749TIP3    H211212   0.212   6.539   4.332
 3750TIP3   OH211213   5.212   3.553   1.322
 3750TIP3    H111214   5.249   3.602   1.395
 3750TIP3    H211215   5.287   3.535   1.265
 3751TIP3   OH211216   4.992   0.364   0.670
 3751TIP3    H111217   4.966   0.446   0.712
 3751TIP3    H211218   4.935   0.357   0.593
 3752TIP3   OH211219   6.459   1.822   2.920
 3752TIP3    H111220   6.514   1.871   2.981
 3752TIP3    H211221   6.456   1.877   2.841
 3753TIP3   OH211222   6.982   5.261   3.559
 3753TIP3    H111223   7.032   5.214   3.492
 3753TIP3    H211224   7.047   5.304   3.614
 3754TIP3   OH211225   2.619   1.755   0.504
 3754TIP3    H111226   2.688   1.698   0.470
 3754TIP3    H211227   2.623   1.834   0.450
 3755TIP3   OH211228   4.579   2.474   5.150
 3755TIP3    H111229   4.530   2.459   5.232
 3755TIP3    H211230   4.643   2.541   5.173
 3756TIP3   OH211231   2.913   0.218   5.849
 3756TIP3    H111232   3.005   0.217   5.875
 3756TIP3    H211233   2.865   0.216   5.932
 3757TIP3   OH211234   6.697   6.303   3.324
 3757TIP3    H111235   6.719   6.384   3.370
 3757TIP3    H211236   6.758   6.238   3.359
 3758TIP3   OH211237   1.868   5.168   5.435
 3758TIP3    H111238   1.917   5.107   5.380
 3758TIP3    H211239   1.806   5.113   5.483
 3759TIP3   OH211240   5.562   4.810   1.030
 3759TIP3    H111241   5.610   4.736   0.993
 3759TIP3    H211242   5.599   4.821   1.118
 3760TIP3   OH211243   3.036   2.449   4.203
 3760TIP3    H111244   3.052   2.478   4.293
 3760TIP3    H211245   3.121   2.421   4.171
 3761TIP3   OH211246   1.395   5.116   2.227
 3761TIP3    H111247   1.470   5.175   2.230
 3761TIP3    H211248   1.393   5.076   2.314
 3762TIP3   OH211249   1.389   3.337   3.237
 3762TIP3    H111250   1.448   3.268   3.204
 3762TIP3    H211251   1.302   3.297   3.234
 3763TIP3   OH211252   3.265   3.081   4.069
 3763TIP3    H111253   3.281   3.154   4.009
 3763TIP3    H211254   3.313   3.104   4.148
 3764TIP3   OH211255   0.566   4.500   1.586
 3764TIP3    H111256   0.616   4.426   1.620
 3764TIP3    H211257   0.632   4.564   1.560
 3765TIP3   OH211258   1.652   6.081   0.395
 3765TIP3    H111259   1.706   6.004   0.413
 3765TIP3    H211260   1.582   6.050   0.338
 3766TIP3   OH211261   4.034   1.705   1.792
 3766TIP3    H111262   4.110   1.729   1.844
 3766TIP3    H211263   4.030   1.610   1.798
 3767TIP3   OH211264   6.687   1.191   3.606
 3767TIP3    H111265   6.685   1.226   3.695
 3767TIP3    H211266   6.756   1.123   3.608
 3768TIP3   OH211267   2.598   4.892   2.259
 3768TIP3    H111268   2.513   4.935   2.271
 3768TIP3    H211269   2.589   4.809   2.305
 3769TIP3   OH211270   1.759   2.529   2.931
 3769TIP3    H111271   1.787   2.444   2.966
 3769TIP3    H211272   1.749   2.584   3.009
 3770TIP3   OH211273   7.124   6.337   4.801
 3770TIP3    H111274   7.058   6.327   4.732
 3770TIP3    H211275   7.080   6.384   4.871
 3771TIP3   OH211276   2.100   0.235   1.538
 3771TIP3    H111277   2.011   0.267   1.553
 3771TIP3    H211278   2.153   0.314   1.530
 3772TIP3   OH211279   3.562   4.009   0.175
 3772TIP3    H111280   3.614   3.964   0.242
 3772TIP3    H211281   3.599   3.979   0.092
 3773TIP3   OH211282   1.746   3.816   2.216
 3773TIP3    H111283   1.795   3.753   2.269
 3773TIP3    H211284   1.751   3.898   2.266
 3774TIP3   OH211285   4.321   3.884   0.303
 3774TIP3    H111286   4.314   3.978   0.283
 3774TIP3    H211287   4.300   3.878   0.396
 3775TIP3   OH211288   0.637   4.101   5.848
 3775TIP3    H111289   0.686   4.169   5.802
 3775TIP3    H211290   0.606   4.043   5.779
 3776TIP3   OH211291   5.843   0.292   5.340
 3776TIP3    H111292   5.927   0.296   5.386
 3776TIP3    H211293   5.866   0.263   5.252
 3777TIP3   OH211294   4.028   4.070   1.083
 3777TIP3    H111295   3.994   4.144   1.135
 3777TIP3    H211296   4.104   4.106   1.037
 3778TIP3   OH211297   5.021   3.726   4.440
 3778TIP3    H111298   5.047   3.801   4.493
 3778TIP3    H211299   4.941   3.694   4.481
 3779TIP3   OH211300   4.821   4.911   2.181
 3779TIP3    H111301   4.900   4.862   2.158
 3779TIP3    H211302   4.749   4.853   2.154
 3780TIP3   OH211303   5.280   1.264   4.707
 3780TIP3    H111304   5.269   1.180   4.751
 3780TIP3    H211305   5.342   1.312   4.762
 3781TIP3   OH211306   0.597   2.234   2.525
 3781TIP3    H111307   0.563   2.318   2.558
 3781TIP3    H211308   0.521   2.176   2.525
 3782TIP3   OH211309   1.338   6.288   5.028
 3782TIP3    H111310   1.418   6.302   4.977
 3782TIP3    H211311   1.356   6.210   5.080
 3783TIP3   OH211312   2.437   3.416   0.670
 3783TIP3    H111313   2.347   3.447   0.656
 3783TIP3    H211314   2.446   3.411   0.765
 3784TIP3   OH211315   2.974   5.681   2.492
 3784TIP3    H111316   2.931   5.595   2.497
 3784TIP3    H211317   2.947   5.725   2.573
 3785TIP3   OH211318   6.744   5.019   2.488
 3785TIP3    H111319   6.803   5.087   2.455
 3785TIP3    H211320   6.801   4.944   2.504
 3786TIP3   OH211321   1.208   1.407   5.797
 3786TIP3    H111322   1.266   1.440   5.865
 3786TIP3    H211323   1.208   1.475   5.730
 3787TIP3   OH211324   1.075   0.095   5.235
 3787TIP3    H111325   1.093   0.016   5.287
 3787TIP3    H211326   0.984   0.085   5.207
 3788TIP3   OH211327   0.668   2.088   0.070
 3788TIP3    H111328   0.757   2.053   0.066
 3788TIP3    H211329   0.680   2.183   0.077
 3789TIP3   OH211330   0.767   2.095   5.111
 3789TIP3    H111331   0.778   2.006   5.144
 3789TIP3    H211332   0.710   2.138   5.175
 3790TIP3   OH211333   0.471   6.429   4.246
 3790TIP3    H111334   0.550   6.375   4.254
 3790TIP3    H211335   0.450   6.453   4.336
 3791TIP3   OH211336   2.552   6.385   2.738
 3791TIP3    H111337   2.589   6.344   2.660
 3791TIP3    H211338   2.584   6.475   2.734
 3792TIP3   OH211339   4.166   1.200   4.146
 3792TIP3    H111340   4.165   1.108   4.120
 3792TIP3    H211341   4.163   1.249   4.064
 3793TIP3   OH211342   1.355   3.069   0.253
 3793TIP3    H111343   1.384   3.063   0.344
 3793TIP3    H211344   1.399   2.997   0.208
 3794TIP3   OH211345   5.683   0.943   0.794
 3794TIP3    H111346   5.657   0.907   0.709
 3794TIP3    H211347   5.611   0.920   0.853
 3795TIP3   OH211348   3.012   6.264   4.049
 3795TIP3    H111349   2.978   6.185   4.091
 3795TIP3    H211350   3.024   6.239   3.957
 3796TIP3   OH211351   4.111   1.058   2.631
 3796TIP3    H111352   4.057   1.058   2.710
 3796TIP3    H211353   4.049   1.073   2.560
 3797TIP3   OH211354   0.643   3.029   4.750
 3797TIP3    H111355   0.555   3.065   4.739
 3797TIP3    H211356   0.628   2.947   4.798
 3798TIP3   OH211357   6.722   1.831   4.278
 3798TIP3    H111358   6.644   1.883   4.297
 3798TIP3    H211359   6.693   1.766   4.214
 3799TIP3   OH211360   3.056   2.644   2.686
 3799TIP3    H111361   2.992   2.574   2.702
 3799TIP3    H211362   3.006   2.713   2.643
 3800TIP3   OH211363   2.815   0.099   1.590
 3800TIP3    H111364   2.841   0.169   1.529
 3800TIP3    H211365   2.876   0.028   1.572
 3801TIP3   OH211366   5.301   5.462   2.276
 3801TIP3    H111367   5.355   5.437   2.351
 3801TIP3    H211368   5.252   5.382   2.254
 3802TIP3   OH211369   5.213   5.839   4.043
 3802TIP3    H111370   5.258   5.779   4.102
 3802TIP3    H211371   5.251   5.820   3.956
 3803TIP3   OH211372   6.979   2.508   5.812
 3803TIP3    H111373   7.035   2.433   5.790
 3803TIP3    H211374   6.922   2.475   5.881
 3804TIP3   OH211375   4.628   2.458   4.743
 3804TIP3    H111376   4.618   2.553   4.740
 3804TIP3    H211377   4.660   2.435   4.655
 3805TIP3   OH211378   5.592   1.902   2.033
 3805TIP3    H111379   5.581   1.868   2.122
 3805TIP3    H211380   5.513   1.954   2.017
 3806TIP3   OH211381   7.045   3.752   2.500
 3806TIP3    H111382   7.048   3.769   2.594
 3806TIP3    H211383   7.120   3.801   2.465
 3807TIP3   OH211384   1.794   3.581   0.678
 3807TIP3    H111385   1.814   3.568   0.770
 3807TIP3    H211386   1.778   3.675   0.670
 3808TIP3   OH211387   5.861   1.013   2.331
 3808TIP3    H111388   5.836   1.060   2.251
 3808TIP3    H211389   5.907   1.078   2.384
 3809TIP3   OH211390   3.271   3.372   5.592
 3809TIP3    H111391   3.246   3.422   5.515
 3809TIP3    H211392   3.206   3.395   5.658
 3810TIP3   OH211393   2.679   5.052   4.073
 3810TIP3    H111394   2.652   5.010   4.155
 3810TIP3    H211395   2.671   4.984   4.007
 3811TIP3   OH211396   1.387   5.162   3.477
 3811TIP3    H111397   1.361   5.160   3.385
 3811TIP3    H211398   1.417   5.252   3.491
 3812TIP3   OH211399   2.680   1.558   2.761
 3812TIP3    H111400   2.663   1.547   2.855
 3812TIP3    H211401   2.671   1.652   2.746
 3813TIP3   OH211402   0.531   3.445   3.404
 3813TIP3    H111403   0.532   3.392   3.325
 3813TIP3    H211404   0.622   3.467   3.421
 3814TIP3   OH211405   3.684   0.205   0.606
 3814TIP3    H111406   3.744   0.148   0.654
 3814TIP3    H211407   3.647   0.263   0.673
 3815TIP3   OH211408   6.446   0.414   3.636
 3815TIP3    H111409   6.412   0.374   3.716
 3815TIP3    H211410   6.493   0.344   3.592
 3816TIP3   OH211411   2.818   5.960   5.377
 3816TIP3    H111412   2.818   5.868   5.405
 3816TIP3    H211413   2.864   6.006   5.447
 3817TIP3   OH211414   6.746   4.800   3.467
 3817TIP3    H111415   6.722   4.886   3.433
 3817TIP3    H211416   6.779   4.817   3.555
 3818TIP3   OH211417   0.201   3.377   5.300
 3818TIP3    H111418   0.122   3.383   5.247
 3818TIP3    H211419   0.238   3.292   5.277
 3819TIP3   OH211420   1.692   6.463   0.288
 3819TIP3    H111421   1.602   6.464   0.257
 3819TIP3    H211422   1.717   6.555   0.290
 3820TIP3   OH211423   3.225   0.702   0.936
 3820TIP3    H111424   3.176   0.630   0.976
 3820TIP3    H211425   3.316   0.672   0.937
 3821TIP3   OH211426   0.953   6.191   2.571
 3821TIP3    H111427   0.926   6.116   2.517
 3821TIP3    H211428   0.945   6.266   2.513
 3822TIP3   OH211429   2.321   5.217   2.984
 3822TIP3    H111430   2.322   5.213   3.079
 3822TIP3    H211431   2.351   5.306   2.963
 3823TIP3   OH211432   2.470   3.128   2.028
 3823TIP3    H111433   2.456   3.092   1.940
 3823TIP3    H211434   2.382   3.148   2.060
 3824TIP3   OH211435   2.990   4.518   2.856
 3824TIP3    H111436   2.931   4.445   2.876
 3824TIP3    H211437   2.935   4.581   2.810
 3825TIP3   OH211438   4.893   1.978   3.477
 3825TIP3    H111439   4.966   2.037   3.457
 3825TIP3    H211440   4.935   1.896   3.503
 3826TIP3   OH211441   3.991   1.189   5.285
 3826TIP3    H111442   3.995   1.093   5.294
 3826TIP3    H211443   4.022   1.205   5.196
 3827TIP3   OH211444   6.865   4.759   2.476
 3827TIP3    H111445   6.910   4.691   2.426
 3827TIP3    H211446   6.936   4.815   2.509
 3828TIP3   OH211447   5.948   1.191   0.334
 3828TIP3    H111448   5.969   1.120   0.395
 3828TIP3    H211449   6.013   1.181   0.264
 3829TIP3   OH211450   0.699   2.796   0.149
 3829TIP3    H111451   0.677   2.754   0.232
 3829TIP3    H211452   0.792   2.818   0.156
 3830TIP3   OH211453   0.102   1.774   5.412
 3830TIP3    H111454   0.099   1.751   5.505
 3830TIP3    H211455   0.150   1.701   5.371
 3831TIP3   OH211456   1.866   1.533   0.936
 3831TIP3    H111457   1.824   1.451   0.908
 3831TIP3    H211458   1.914   1.509   1.015
 3832TIP3   OH211459   0.625   4.365   3.928
 3832TIP3    H111460   0.571   4.288   3.947
 3832TIP3    H211461   0.670   4.343   3.847
 3833TIP3   OH211462   0.505   0.774   5.879
 3833TIP3    H111463   0.468   0.694   5.915
 3833TIP3    H211464   0.428   0.830   5.863
 3834TIP3   OH211465   0.482   5.912   1.144
 3834TIP3    H111466   0.555   5.863   1.105
 3834TIP3    H211467   0.419   5.922   1.073
 3835TIP3   OH211468   6.462   1.197   0.437
 3835TIP3    H111469   6.506   1.221   0.518
 3835TIP3    H211470   6.506   1.117   0.408
 3836TIP3   OH211471   4.089   4.439   4.751
 3836TIP3    H111472   4.120   4.363   4.801
 3836TIP3    H211473   4.060   4.403   4.667
 3837TIP3   OH211474   6.808   5.845   4.327
 3837TIP3    H111475   6.895   5.881   4.345
 3837TIP3    H211476   6.825   5.764   4.278
 3838TIP3   OH211477   5.049   2.642   2.803
 3838TIP3    H111478   5.125   2.666   2.750
 3838TIP3    H211479   5.036   2.549   2.786
 3839TIP3   OH211480   6.515   5.127   2.408
 3839TIP3    H111481   6.602   5.092   2.424
 3839TIP3    H211482   6.523   5.178   2.327
 3840TIP3   OH211483   6.329   0.067   1.970
 3840TIP3    H111484   6.294   0.128   1.905
 3840TIP3    H211485   6.309  -0.020   1.934
 3841TIP3   OH211486   4.550   4.074   0.453
 3841TIP3    H111487   4.579   4.150   0.404
 3841TIP3    H211488   4.457   4.089   0.468
 3842TIP3   OH211489   5.950   3.715   5.876
 3842TIP3    H111490   5.958   3.730   5.782
 3842TIP3    H211491   5.857   3.726   5.894
 3843TIP3   OH211492   3.789   2.035   1.974
 3843TIP3    H111493   3.873   2.064   2.010
 3843TIP3    H211494   3.809   1.953   1.928
 3844TIP3   OH211495   1.308   4.566   3.085
 3844TIP3    H111496   1.374   4.630   3.109
 3844TIP3    H211497   1.225   4.614   3.092
 3845TIP3   OH211498   6.255   3.139   3.467
 3845TIP3    H111499   6.331   3.175   3.514
 3845TIP3    H211500   6.274   3.046   3.458
 3846TIP3   OH211501   0.296   1.012   5.823
 3846TIP3    H111502   0.276   1.099   5.858
 3846TIP3    H211503   0.241   0.953   5.875
 3847TIP3   OH211504   4.588   0.973   5.156
 3847TIP3    H111505   4.642   0.932   5.224
 3847TIP3    H211506   4.630   1.057   5.139
 3848TIP3   OH211507   5.446   3.590   2.506
 3848TIP3    H111508   5.435   3.532   2.582
 3848TIP3    H211509   5.532   3.567   2.470
 3849TIP3   OH211510   4.588   6.347   3.382
 3849TIP3    H111511   4.612   6.260   3.416
 3849TIP3    H211512   4.498   6.335   3.350
 3850TIP3   OH211513   6.214   0.277   3.214
 3850TIP3    H111514   6.300   0.319   3.212
 3850TIP3    H211515   6.158   0.339   3.261
 3851TIP3   OH211516   6.074   6.235   3.749
 3851TIP3    H111517   6.002   6.234   3.686
 3851TIP3    H211518   6.035   6.206   3.831
 3852TIP3   OH211519   4.593   1.733   1.746
 3852TIP3    H111520   4.576   1.762   1.836
 3852TIP3    H211521   4.551   1.647   1.741
 3853TIP3   OH211522   1.218   4.686   1.390
 3853TIP3    H111523   1.229   4.677   1.485
 3853TIP3    H211524   1.272   4.762   1.368
 3854TIP3   OH211525  -0.013   3.322   1.449
 3854TIP3    H111526   0.005   3.253   1.385
 3854TIP3    H211527  -0.051   3.276   1.524
 3855TIP3   OH211528   6.000   6.398   1.264
 3855TIP3    H111529   6.008   6.303   1.266
 3855TIP3    H211530   6.036   6.423   1.179
 3856TIP3   OH211531   0.802   6.231   0.647
 3856TIP3    H111532   0.875   6.292   0.654
 3856TIP3    H211533   0.839   6.147   0.676
 3857TIP3   OH211534   0.970   0.458   3.843
 3857TIP3    H111535   0.901   0.525   3.842
 3857TIP3    H211536   1.052   0.508   3.846
 3858TIP3   OH211537   1.515   2.610   1.883
 3858TIP3    H111538   1.599   2.653   1.867
 3858TIP3    H211539   1.520   2.579   1.973
 3859TIP3   OH211540   4.826   6.323   0.686
 3859TIP3    H111541   4.822   6.263   0.760
 3859TIP3    H211542   4.916   6.317   0.655
 3860TIP3   OH211543   4.784   4.925   3.530
 3860TIP3    H111544   4.817   4.991   3.591
 3860TIP3    H211545   4.805   4.842   3.572
 3861TIP3   OH211546   0.871   1.502   4.664
 3861TIP3    H111547   0.828   1.571   4.615
 3861TIP3    H211548   0.800   1.452   4.704
 3862TIP3   OH211549   0.386   4.066   4.987
 3862TIP3    H111550   0.355   3.978   5.010
 3862TIP3    H211551   0.481   4.058   4.982
 3863TIP3   OH211552   3.088   2.753   0.965
 3863TIP3    H111553   3.042   2.836   0.976
 3863TIP3    H211554   3.043   2.709   0.893
 3864TIP3   OH211555   5.718   2.647   4.904
 3864TIP3    H111556   5.788   2.664   4.967
 3864TIP3    H211557   5.659   2.722   4.913
 3865TIP3   OH211558   6.901   2.533   2.821
 3865TIP3    H111559   6.921   2.520   2.729
 3865TIP3    H211560   6.900   2.444   2.858
 3866TIP3   OH211561   5.856   3.800   3.024
 3866TIP3    H111562   5.771   3.815   2.984
 3866TIP3    H211563   5.918   3.842   2.964
 3867TIP3   OH211564   5.673   6.261   0.650
 3867TIP3    H111565   5.672   6.312   0.732
 3867TIP3    H211566   5.676   6.170   0.678
 3868TIP3   OH211567   4.640   4.695   5.570
 3868TIP3    H111568   4.620   4.720   5.660
 3868TIP3    H211569   4.708   4.628   5.578
 3869TIP3   OH211570   0.300   2.061   5.273
 3869TIP3    H111571   0.347   2.091   5.195
 3869TIP3    H211572   0.239   1.995   5.240
 3870TIP3   OH211573   2.203   4.151   2.136
 3870TIP3    H111574   2.129   4.208   2.114
 3870TIP3    H211575   2.201   4.145   2.231
 3871TIP3   OH211576   5.960   1.718   1.826
 3871TIP3    H111577   5.916   1.763   1.898
 3871TIP3    H211578   5.890   1.673   1.779
 3872TIP3   OH211579   5.124   0.453   0.333
 3872TIP3    H111580   5.040   0.427   0.370
 3872TIP3    H211581   5.104   0.476   0.242
 3873TIP3   OH211582   6.329   1.906   4.554
 3873TIP3    H111583   6.275   1.833   4.585
 3873TIP3    H211584   6.267   1.975   4.532
 3874TIP3   OH211585   0.508   2.344   3.764
 3874TIP3    H111586   0.462   2.427   3.753
 3874TIP3    H211587   0.576   2.363   3.828
 3875TIP3   OH211588   1.029   5.621   2.955
 3875TIP3    H111589   0.974   5.673   2.896
 3875TIP3    H211590   1.011   5.530   2.930
 3876TIP3   OH211591   0.560   5.311   2.929
 3876TIP3    H111592   0.570   5.265   3.013
 3876TIP3    H211593   0.558   5.403   2.953
 3877TIP3   OH211594   2.990   5.330   2.821
 3877TIP3    H111595   3.052   5.396   2.790
 3877TIP3    H211596   2.909   5.349   2.774
 3878TIP3   OH211597   2.730   1.836   2.814
 3878TIP3    H111598   2.675   1.883   2.876
 3878TIP3    H211599   2.711   1.876   2.729
 3879TIP3   OH211600   1.162   5.147   5.912
 3879TIP3    H111601   1.086   5.144   5.855
 3879TIP3    H211602   1.217   5.075   5.884
 3880TIP3   OH211603   5.088   4.659   0.526
 3880TIP3    H111604   5.078   4.586   0.464
 3880TIP3    H211605   5.024   4.640   0.594
 3881TIP3   OH211606   1.678   1.615   3.117
 3881TIP3    H111607   1.658   1.690   3.174
 3881TIP3    H211608   1.759   1.640   3.072
 3882TIP3   OH211609   4.291   2.501   5.633
 3882TIP3    H111610   4.307   2.582   5.681
 3882TIP3    H211611   4.247   2.444   5.696
 3883TIP3   OH211612   6.705   5.677   2.219
 3883TIP3    H111613   6.656   5.635   2.148
 3883TIP3    H211614   6.684   5.770   2.211
 3884TIP3   OH211615   4.571   1.791   2.017
 3884TIP3    H111616   4.640   1.729   2.043
 3884TIP3    H211617   4.601   1.875   2.051
 3885TIP3   OH211618   1.125   6.361   3.180
 3885TIP3    H111619   1.161   6.370   3.268
 3885TIP3    H211620   1.034   6.334   3.194
 3886TIP3   OH211621   0.395   3.315   5.704
 3886TIP3    H111622   0.312   3.349   5.671
 3886TIP3    H211623   0.370   3.235   5.751
 3887TIP3   OH211624   2.447   3.617   3.231
 3887TIP3    H111625   2.397   3.693   3.202
 3887TIP3    H211626   2.479   3.641   3.318
 3888TIP3   OH211627   2.554   4.894   1.883
 3888TIP3    H111628   2.484   4.853   1.833
 3888TIP3    H211629   2.526   4.885   1.975
 3889TIP3   OH211630   0.268   0.215   3.423
 3889TIP3    H111631   0.212   0.150   3.465
 3889TIP3    H211632   0.207   0.283   3.393
 3890TIP3   OH211633   2.085   4.123   1.069
 3890TIP3    H111634   1.995   4.114   1.098
 3890TIP3    H211635   2.100   4.217   1.065
 3891TIP3   OH211636   3.444   6.249   4.511
 3891TIP3    H111637   3.416   6.301   4.435
 3891TIP3    H211638   3.374   6.185   4.523
 3892TIP3   OH211639   7.240   6.777   1.049
 3892TIP3    H111640   7.148   6.775   1.022
 3892TIP3    H211641   7.287   6.738   0.975
 3893TIP3   OH211642   1.468   6.678   2.179
 3893TIP3    H111643   1.417   6.739   2.125
 3893TIP3    H211644   1.403   6.621   2.220
 3894TIP3   OH211645   2.868   3.669   3.217
 3894TIP3    H111646   2.871   3.574   3.224
 3894TIP3    H211647   2.946   3.692   3.166
 3895TIP3   OH211648   5.333   0.930   4.225
 3895TIP3    H111649   5.274   0.973   4.287
 3895TIP3    H211650   5.384   0.869   4.278
 3896TIP3   OH211651   4.281   0.462   5.568
 3896TIP3    H111652   4.352   0.403   5.541
 3896TIP3    H211653   4.325   0.546   5.585
 3897TIP3   OH211654   0.350   5.143   5.209
 3897TIP3    H111655   0.312   5.225   5.179
 3897TIP3    H211656   0.339   5.146   5.304
 3898TIP3   OH211657   5.964   4.570   3.819
 3898TIP3    H111658   5.918   4.487   3.806
 3898TIP3    H211659   6.020   4.579   3.742
 3899TIP3   OH211660   1.621   2.703   5.833
 3899TIP3    H111661   1.625   2.658   5.749
 3899TIP3    H211662   1.530   2.695   5.861
 3900TIP3   OH211663   6.803   1.930   4.789
 3900TIP3    H111664   6.772   1.973   4.709
 3900TIP3    H211665   6.869   1.990   4.823
 3901TIP3   OH211666   6.960   1.519   2.200
 3901TIP3    H111667   7.014   1.515   2.121
 3901TIP3    H211668   7.016   1.483   2.269
 3902TIP3   OH211669   2.112   3.280   0.356
 3902TIP3    H111670   2.039   3.307   0.413
 3902TIP3    H211671   2.156   3.212   0.406
 3903TIP3   OH211672   6.795   5.586   2.929
 3903TIP3    H111673   6.845   5.649   2.877
 3903TIP3    H211674   6.737   5.641   2.982
 3904TIP3   OH211675   1.039   3.197   4.478
 3904TIP3    H111676   0.953   3.162   4.453
 3904TIP3    H211677   1.070   3.138   4.547
 3905TIP3   OH211678   2.859   0.911   4.668
 3905TIP3    H111679   2.921   0.961   4.722
 3905TIP3    H211680   2.775   0.925   4.710
 3906TIP3   OH211681   2.085   2.239   0.588
 3906TIP3    H111682   2.001   2.195   0.594
 3906TIP3    H211683   2.148   2.169   0.569
 3907TIP3   OH211684   0.752   1.337   3.360
 3907TIP3    H111685   0.723   1.313   3.448
 3907TIP3    H211686   0.687   1.400   3.329
 3908TIP3   OH211687   2.557   4.298   4.250
 3908TIP3    H111688   2.645   4.322   4.222
 3908TIP3    H211689   2.570   4.248   4.330
 3909TIP3   OH211690   2.770   4.946   1.680
 3909TIP3    H111691   2.764   5.034   1.644
 3909TIP3    H211692   2.707   4.946   1.752
 3910TIP3   OH211693   3.401   2.354   1.534
 3910TIP3    H111694   3.468   2.413   1.570
 3910TIP3    H211695   3.427   2.268   1.566
 3911TIP3   OH211696   0.208   4.059   4.413
 3911TIP3    H111697   0.156   4.021   4.484
 3911TIP3    H211698   0.177   4.149   4.407
 3912TIP3   OH211699   1.731   0.554   2.389
 3912TIP3    H111700   1.681   0.487   2.435
 3912TIP3    H211701   1.770   0.508   2.314
 3913TIP3   OH211702   0.961   5.993   0.619
 3913TIP3    H111703   0.869   5.971   0.601
 3913TIP3    H211704   1.010   5.952   0.547
 3914TIP3   OH211705   2.013   1.043   1.878
 3914TIP3    H111706   1.973   0.960   1.906
 3914TIP3    H211707   1.951   1.110   1.906
 3915TIP3   OH211708   0.484   2.561   0.975
 3915TIP3    H111709   0.500   2.572   0.881
 3915TIP3    H211710   0.570   2.541   1.012
 3916TIP3   OH211711   5.269   4.887   5.421
 3916TIP3    H111712   5.175   4.889   5.438
 3916TIP3    H211713   5.295   4.797   5.438
 3917TIP3   OH211714   2.898   1.228   3.356
 3917TIP3    H111715   2.858   1.228   3.269
 3917TIP3    H211716   2.982   1.185   3.343
 3918TIP3   OH211717   0.040   6.232   5.501
 3918TIP3    H111718  -0.018   6.243   5.577
 3918TIP3    H211719  -0.001   6.164   5.449
 3919TIP3   OH211720   4.030   2.068   2.835
 3919TIP3    H111721   4.019   2.065   2.930
 3919TIP3    H211722   3.992   2.152   2.809
 3920TIP3   OH211723   1.198   0.581   5.420
 3920TIP3    H111724   1.145   0.510   5.457
 3920TIP3    H211725   1.136   0.654   5.409
 3921TIP3   OH211726   2.871   2.198   0.062
 3921TIP3    H111727   2.778   2.219   0.068
 3921TIP3    H211728   2.915   2.281   0.077
 3922TIP3   OH211729   0.575   3.245   0.915
 3922TIP3    H111730   0.578   3.265   0.821
 3922TIP3    H211731   0.645   3.182   0.928
 3923TIP3   OH211732   3.146   0.754   0.462
 3923TIP3    H111733   3.069   0.747   0.518
 3923TIP3    H211734   3.209   0.695   0.502
 3924TIP3   OH211735   4.001   3.625   5.491
 3924TIP3    H111736   3.927   3.641   5.432
 3924TIP3    H211737   4.070   3.591   5.434
 3925TIP3   OH211738   1.000   4.586   1.252
 3925TIP3    H111739   1.059   4.645   1.300
 3925TIP3    H211740   0.917   4.634   1.248
 3926TIP3   OH211741   3.400   5.271   5.328
 3926TIP3    H111742   3.334   5.341   5.323
 3926TIP3    H211743   3.451   5.292   5.405
 3927TIP3   OH211744   4.063   4.614   0.263
 3927TIP3    H111745   4.077   4.665   0.183
 3927TIP3    H211746   4.101   4.667   0.333
 3928TIP3   OH211747   5.727   5.279   3.342
 3928TIP3    H111748   5.822   5.287   3.339
 3928TIP3    H211749   5.701   5.329   3.420
 3929TIP3   OH211750   4.132   4.242   2.545
 3929TIP3    H111751   4.155   4.167   2.601
 3929TIP3    H211752   4.126   4.316   2.605
 3930TIP3   OH211753   3.738   0.243   2.034
 3930TIP3    H111754   3.826   0.215   2.057
 3930TIP3    H211755   3.684   0.164   2.047
 3931TIP3   OH211756   2.039   5.839   0.866
 3931TIP3    H111757   1.948   5.867   0.860
 3931TIP3    H211758   2.086   5.915   0.899
 3932TIP3   OH211759   6.354   1.612   3.867
 3932TIP3    H111760   6.266   1.648   3.875
 3932TIP3    H211761   6.366   1.561   3.948
 3933TIP3   OH211762   5.041   6.210   3.717
 3933TIP3    H111763   4.972   6.261   3.759
 3933TIP3    H211764   5.036   6.124   3.760
 3934TIP3   OH211765   0.533   1.624   0.261
 3934TIP3    H111766   0.621   1.661   0.263
 3934TIP3    H211767   0.484   1.682   0.202
 3935TIP3   OH211768   0.172   1.256   1.354
 3935TIP3    H111769   0.213   1.170   1.343
 3935TIP3    H211770   0.082   1.243   1.323
 3936TIP3   OH211771   4.709   4.229   5.661
 3936TIP3    H111772   4.618   4.198   5.658
 3936TIP3    H211773   4.754   4.178   5.594
 3937TIP3   OH211774   5.025   2.519   0.316
 3937TIP3    H111775   5.073   2.599   0.340
 3937TIP3    H211776   4.939   2.551   0.287
 3938TIP3   OH211777   3.169   1.526   4.810
 3938TIP3    H111778   3.182   1.438   4.775
 3938TIP3    H211779   3.179   1.515   4.905
 3939TIP3   OH211780   3.507   0.370   4.218
 3939TIP3    H111781   3.501   0.423   4.298
 3939TIP3    H211782   3.444   0.410   4.159
 3940TIP3   OH211783   2.601   4.321   4.582
 3940TIP3    H111784   2.642   4.298   4.666
 3940TIP3    H211785   2.574   4.237   4.545
 3941TIP3   OH211786   6.534   6.783   0.051
 3941TIP3    H111787   6.472   6.715   0.076
 3941TIP3    H211788   6.480   6.850   0.009
 3942TIP3   OH211789   7.123   0.779   2.924
 3942TIP3    H111790   7.052   0.777   2.861
 3942TIP3    H211791   7.132   0.872   2.947
 3943TIP3   OH211792   4.472   2.015   4.052
 3943TIP3    H111793   4.529   1.951   4.095
 3943TIP3    H211794   4.432   1.966   3.980
 3944TIP3   OH211795   4.313   5.284   5.235
 3944TIP3    H111796   4.396   5.313   5.198
 3944TIP3    H211797   4.329   5.279   5.329
 3945TIP3   OH211798   4.583   1.146   4.530
 3945TIP3    H111799   4.493   1.139   4.564
 3945TIP3    H211800   4.573   1.156   4.436
 3946TIP3   OH211801   3.734   6.710   4.209
 3946TIP3    H111802   3.811   6.694   4.263
 3946TIP3    H211803   3.692   6.786   4.249
 3947TIP3   OH211804   4.773   3.612   4.093
 3947TIP3    H111805   4.778   3.632   4.000
 3947TIP3    H211806   4.833   3.539   4.105
 3948TIP3   OH211807   2.416   2.348   3.660
 3948TIP3    H111808   2.374   2.262   3.656
 3948TIP3    H211809   2.425   2.365   3.754
 3949TIP3   OH211810   1.838   0.686   1.391
 3949TIP3    H111811   1.846   0.769   1.439
 3949TIP3    H211812   1.804   0.711   1.305
 3950TIP3   OH211813   6.670   5.657   2.608
 3950TIP3    H111814   6.602   5.686   2.547
 3950TIP3    H211815   6.623   5.604   2.672
 3951TIP3   OH211816   6.508   5.291   5.627
 3951TIP3    H111817   6.561   5.281   5.548
 3951TIP3    H211818   6.555   5.242   5.695
 3952TIP3   OH211819   2.291   4.782   4.050
 3952TIP3    H111820   2.351   4.745   4.115
 3952TIP3    H211821   2.210   4.732   4.060
 3953TIP3   OH211822   5.273   1.399   1.321
 3953TIP3    H111823   5.182   1.429   1.312
 3953TIP3    H211824   5.320   1.477   1.352
 3954TIP3   OH211825   5.832   4.804   3.673
 3954TIP3    H111826   5.886   4.728   3.651
 3954TIP3    H211827   5.791   4.829   3.590
 3955TIP3   OH211828   0.375   5.721   4.821
 3955TIP3    H111829   0.408   5.633   4.804
 3955TIP3    H211830   0.391   5.736   4.914
 3956TIP3   OH211831   2.669   4.090   1.952
 3956TIP3    H111832   2.582   4.080   1.915
 3956TIP3    H211833   2.726   4.039   1.894
 3957TIP3   OH211834   6.140   1.428   2.630
 3957TIP3    H111835   6.189   1.370   2.688
 3957TIP3    H211836   6.088   1.369   2.575
 3958TIP3   OH211837   1.593   2.098   2.299
 3958TIP3    H111838   1.556   2.037   2.235
 3958TIP3    H211839   1.595   2.047   2.380
 3959TIP3   OH211840   6.346   0.630   2.798
 3959TIP3    H111841   6.401   0.592   2.730
 3959TIP3    H211842   6.394   0.707   2.828
 3960TIP3   OH211843   6.712   4.468   0.334
 3960TIP3    H111844   6.743   4.534   0.271
 3960TIP3    H211845   6.755   4.492   0.416
 3961TIP3   OH211846   7.193   3.870   0.769
 3961TIP3    H111847   7.193   3.960   0.803
 3961TIP3    H211848   7.197   3.881   0.674
 3962TIP3   OH211849   5.626   5.243   1.880
 3962TIP3    H111850   5.589   5.220   1.965
 3962TIP3    H211851   5.720   5.234   1.892
 3963TIP3   OH211852   0.584   1.296   0.637
 3963TIP3    H111853   0.504   1.276   0.588
 3963TIP3    H211854   0.620   1.210   0.660
 3964TIP3   OH211855   3.349   1.697   5.109
 3964TIP3    H111856   3.366   1.780   5.065
 3964TIP3    H211857   3.410   1.696   5.183
 3965TIP3   OH211858   6.606   0.376   4.213
 3965TIP3    H111859   6.671   0.333   4.269
 3965TIP3    H211860   6.553   0.303   4.178
 3966TIP3   OH211861   5.814   3.674   5.553
 3966TIP3    H111862   5.812   3.767   5.573
 3966TIP3    H211863   5.905   3.648   5.567
 3967TIP3   OH211864   1.800   6.583   1.109
 3967TIP3    H111865   1.743   6.565   1.035
 3967TIP3    H211866   1.742   6.585   1.185
 3968TIP3   OH211867   2.518   0.491   1.162
 3968TIP3    H111868   2.424   0.507   1.155
 3968TIP3    H211869   2.533   0.409   1.116
 3969TIP3   OH211870   1.121   0.911   1.996
 3969TIP3    H111871   1.101   1.002   1.975
 3969TIP3    H211872   1.062   0.859   1.941
 3970TIP3   OH211873   6.971   2.898   4.266
 3970TIP3    H111874   7.025   2.974   4.245
 3970TIP3    H211875   6.883   2.933   4.278
 3971TIP3   OH211876   4.694   5.217   2.296
 3971TIP3    H111877   4.769   5.277   2.302
 3971TIP3    H211878   4.728   5.135   2.330
 3972TIP3   OH211879   0.999   2.205   0.737
 3972TIP3    H111880   1.040   2.137   0.683
 3972TIP3    H211881   0.919   2.163   0.771
 3973TIP3   OH211882   0.859   0.320   1.668
 3973TIP3    H111883   0.858   0.252   1.601
 3973TIP3    H211884   0.946   0.360   1.659
 3974TIP3   OH211885   3.632   6.143   3.589
 3974TIP3    H111886   3.626   6.054   3.556
 3974TIP3    H211887   3.629   6.135   3.684
 3975TIP3   OH211888   3.440   6.687   2.783
 3975TIP3    H111889   3.426   6.781   2.776
 3975TIP3    H211890   3.481   6.662   2.700
 3976TIP3   OH211891   4.740   2.696   0.458
 3976TIP3    H111892   4.722   2.605   0.479
 3976TIP3    H211893   4.790   2.729   0.533
 3977TIP3   OH211894   3.436   3.529   5.305
 3977TIP3    H111895   3.370   3.587   5.341
 3977TIP3    H211896   3.506   3.588   5.274
 3978TIP3   OH211897   0.505   1.034   2.804
 3978TIP3    H111898   0.497   1.098   2.874
 3978TIP3    H211899   0.594   1.001   2.812
 3979TIP3   OH211900   4.974   1.476   3.305
 3979TIP3    H111901   4.919   1.398   3.302
 3979TIP3    H211902   5.050   1.450   3.356
 3980TIP3   OH211903   2.583   1.851   1.920
 3980TIP3    H111904   2.538   1.932   1.945
 3980TIP3    H211905   2.665   1.881   1.882
 3981TIP3   OH211906   1.624   0.274   0.232
 3981TIP3    H111907   1.572   0.275   0.152
 3981TIP3    H211908   1.631   0.367   0.257
 3982TIP3   OH211909   1.048   4.405   3.629
 3982TIP3    H111910   1.024   4.318   3.596
 3982TIP3    H211911   1.142   4.398   3.646
 3983TIP3   OH211912   3.577   5.987   1.024
 3983TIP3    H111913   3.519   5.964   0.952
 3983TIP3    H211914   3.632   6.058   0.990
 3984TIP3   OH211915   0.338   1.682   3.139
 3984TIP3    H111916   0.263   1.708   3.085
 3984TIP3    H211917   0.332   1.740   3.215
 3985TIP3   OH211918   4.763   1.151   0.837
 3985TIP3    H111919   4.698   1.145   0.767
 3985TIP3    H211920   4.755   1.068   0.884
 3986TIP3   OH211921   6.675   4.454   1.692
 3986TIP3    H111922   6.618   4.411   1.628
 3986TIP3    H211923   6.687   4.389   1.761
 3987TIP3   OH211924   5.844   5.277   0.709
 3987TIP3    H111925   5.812   5.233   0.630
 3987TIP3    H211926   5.919   5.328   0.678
 3988TIP3   OH211927   5.496   0.943   5.511
 3988TIP3    H111928   5.546   1.024   5.523
 3988TIP3    H211929   5.407   0.966   5.536
 3989TIP3   OH211930   4.389   0.377   1.383
 3989TIP3    H111931   4.404   0.335   1.467
 3989TIP3    H211932   4.351   0.462   1.405
 3990TIP3   OH211933   5.874   4.351   3.425
 3990TIP3    H111934   5.817   4.409   3.475
 3990TIP3    H211935   5.891   4.399   3.343
 3991TIP3   OH211936   1.871   5.910   3.013
 3991TIP3    H111937   1.824   5.896   3.096
 3991TIP3    H211938   1.952   5.860   3.022
 3992TIP3   OH211939   3.810   0.431   4.499
 3992TIP3    H111940   3.714   0.425   4.500
 3992TIP3    H211941   3.831   0.454   4.409
 3993TIP3   OH211942   6.731   4.982   4.078
 3993TIP3    H111943   6.792   5.025   4.017
 3993TIP3    H211944   6.752   5.019   4.163
 3994TIP3   OH211945   6.311   3.214   4.029
 3994TIP3    H111946   6.282   3.214   4.120
 3994TIP3    H211947   6.307   3.122   4.003
 3995TIP3   OH211948   2.123   6.682   3.934
 3995TIP3    H111949   2.068   6.703   3.859
 3995TIP3    H211950   2.063   6.679   4.008
 3996TIP3   OH211951   7.072   5.174   1.284
 3996TIP3    H111952   7.043   5.228   1.210
 3996TIP3    H211953   7.161   5.205   1.302
 3997TIP3   OH211954   0.687   1.431   0.396
 3997TIP3    H111955   0.659   1.378   0.470
 3997TIP3    H211956   0.617   1.496   0.386
 3998TIP3   OH211957   2.095   4.850   0.320
 3998TIP3    H111958   2.174   4.887   0.359
 3998TIP3    H211959   2.121   4.764   0.290
 3999TIP3   OH211960   3.978   2.279   3.650
 3999TIP3    H111961   4.025   2.207   3.692
 3999TIP3    H211962   3.999   2.356   3.703
 4000TIP3   OH211963   4.899   3.617   0.902
 4000TIP3    H111964   4.962   3.548   0.921
 4000TIP3    H211965   4.857   3.589   0.820
 4001TIP3   OH211966   0.343   4.835   4.395
 4001TIP3    H111967   0.339   4.818   4.489
 4001TIP3    H211968   0.345   4.930   4.388
 4002TIP3   OH211969   4.633   2.653   5.399
 4002TIP3    H111970   4.551   2.604   5.397
 4002TIP3    H211971   4.642   2.680   5.491
 4003TIP3   OH211972   3.657   4.783   4.470
 4003TIP3    H111973   3.699   4.701   4.443
 4003TIP3    H211974   3.620   4.818   4.389
 4004TIP3   OH211975   0.746   5.337   2.727
 4004TIP3    H111976   0.796   5.311   2.804
 4004TIP3    H211977   0.656   5.343   2.758
 4005TIP3   OH211978   3.054   1.073   1.531
 4005TIP3    H111979   2.999   1.121   1.468
 4005TIP3    H211980   2.996   1.056   1.605
 4006TIP3   OH211981   3.912   2.785   5.193
 4006TIP3    H111982   3.855   2.710   5.184
 4006TIP3    H211983   4.000   2.748   5.205
 4007TIP3   OH211984   5.928   3.057   5.610
 4007TIP3    H111985   6.020   3.030   5.617
 4007TIP3    H211986   5.925   3.141   5.656
 4008TIP3   OH211987   6.433   6.473   4.302
 4008TIP3    H111988   6.515   6.518   4.322
 4008TIP3    H211989   6.458   6.382   4.288
 4009TIP3   OH211990   2.776   3.328   0.729
 4009TIP3    H111991   2.776   3.238   0.762
 4009TIP3    H211992   2.756   3.382   0.806
 4010TIP3   OH211993  -0.006   3.382   4.370
 4010TIP3    H111994   0.055   3.375   4.297
 4010TIP3    H211995   0.018   3.463   4.414
 4011TIP3   OH211996   0.687   3.423   1.119
 4011TIP3    H111997   0.630   3.355   1.155
 4011TIP3    H211998   0.627   3.494   1.095
 4012TIP3   OH211999   5.208   0.411   3.955
 4012TIP3    H112000   5.140   0.391   4.018
 4012TIP3    H212001   5.170   0.480   3.900
 4013TIP3   OH212002   5.275   4.457   3.680
 4013TIP3    H112003   5.300   4.518   3.610
 4013TIP3    H212004   5.344   4.466   3.745
 4014TIP3   OH212005   6.340   0.626   1.407
 4014TIP3    H112006   6.342   0.534   1.435
 4014TIP3    H212007   6.248   0.652   1.417
 4015TIP3   OH212008   6.631   1.192   5.348
 4015TIP3    H112009   6.585   1.175   5.265
 4015TIP3    H212010   6.566   1.176   5.416
 4016TIP3   OH212011   6.380   2.057   5.592
 4016TIP3    H112012   6.472   2.032   5.584
 4016TIP3    H212013   6.373   2.139   5.542
 4017TIP3   OH212014   6.342   4.746   0.178
 4017TIP3    H112015   6.372   4.803   0.249
 4017TIP3    H212016   6.405   4.761   0.107
 4018TIP3   OH212017   6.573   4.993   2.043
 4018TIP3    H112018   6.666   4.993   2.067
 4018TIP3    H212019   6.549   5.086   2.039
 4019TIP3   OH212020   4.685   3.107   4.116
 4019TIP3    H112021   4.762   3.080   4.165
 4019TIP3    H212022   4.719   3.158   4.043
 4020TIP3   OH212023   2.271   2.135   2.150
 4020TIP3    H112024   2.264   2.040   2.156
 4020TIP3    H212025   2.340   2.150   2.086
 4021TIP3   OH212026   6.179   2.614   0.369
 4021TIP3    H112027   6.167   2.689   0.311
 4021TIP3    H212028   6.091   2.576   0.379
 4022TIP3   OH212029   2.892   1.017  -0.039
 4022TIP3    H112030   2.797   1.026  -0.033
 4022TIP3    H212031   2.920   0.994   0.049
 4023TIP3   OH212032   4.027   0.690   3.707
 4023TIP3    H112033   4.079   0.770   3.711
 4023TIP3    H212034   4.034   0.662   3.616
 4024TIP3   OH212035   5.899   4.205   4.879
 4024TIP3    H112036   5.851   4.124   4.863
 4024TIP3    H212037   5.905   4.210   4.975
 4025TIP3   OH212038   3.136   5.372   5.159
 4025TIP3    H112039   3.177   5.357   5.074
 4025TIP3    H212040   3.084   5.451   5.146
 4026TIP3   OH212041   6.438   0.589   4.288
 4026TIP3    H112042   6.458   0.631   4.372
 4026TIP3    H212043   6.515   0.535   4.269
 4027TIP3   OH212044   2.993   3.690   1.407
 4027TIP3    H112045   2.942   3.760   1.366
 4027TIP3    H212046   3.022   3.728   1.490
 4028TIP3   OH212047   3.561   2.605   1.907
 4028TIP3    H112048   3.573   2.592   2.001
 4028TIP3    H212049   3.499   2.536   1.881
 4029TIP3   OH212050   1.444   5.140   0.215
 4029TIP3    H112051   1.423   5.046   0.209
 4029TIP3    H212052   1.539   5.143   0.225
 4030TIP3   OH212053   2.941   0.481   4.462
 4030TIP3    H112054   3.000   0.432   4.518
 4030TIP3    H212055   2.854   0.447   4.482
 4031TIP3   OH212056   6.052   2.088   3.975
 4031TIP3    H112057   6.093   2.003   3.958
 4031TIP3    H212058   6.054   2.133   3.891
 4032TIP3   OH212059   1.686   2.781   4.798
 4032TIP3    H112060   1.768   2.750   4.759
 4032TIP3    H212061   1.639   2.821   4.725
 4033TIP3   OH212062   1.584   1.261   1.369
 4033TIP3    H112063   1.528   1.271   1.445
 4033TIP3    H212064   1.633   1.343   1.364
 4034TIP3   OH212065   3.305   0.252   5.180
 4034TIP3    H112066   3.330   0.245   5.272
 4034TIP3    H212067   3.268   0.167   5.158
 4035TIP3   OH212068   6.221   2.712   1.439
 4035TIP3    H112069   6.134   2.702   1.477
 4035TIP3    H212070   6.250   2.623   1.421
 4036TIP3   OH212071   6.202   3.563   0.837
 4036TIP3    H112072   6.159   3.647   0.856
 4036TIP3    H212073   6.223   3.528   0.923
 4037TIP3   OH212074   2.392   6.422   2.978
 4037TIP3    H112075   2.367   6.511   3.000
 4037TIP3    H212076   2.453   6.431   2.904
 4038TIP3   OH212077   2.329   1.159   2.270
 4038TIP3    H112078   2.295   1.076   2.236
 4038TIP3    H212079   2.302   1.224   2.205
 4039TIP3   OH212080   5.397   6.645   1.235
 4039TIP3    H112081   5.379   6.622   1.144
 4039TIP3    H212082   5.438   6.566   1.271
 4040TIP3   OH212083   6.836   6.675   2.224
 4040TIP3    H112084   6.847   6.581   2.213
 4040TIP3    H212085   6.753   6.685   2.271
 4041TIP3   OH212086   7.155   3.505   2.884
 4041TIP3    H112087   7.192   3.532   2.800
 4041TIP3    H212088   7.076   3.560   2.893
 4042TIP3   OH212089   1.784   2.667   1.854
 4042TIP3    H112090   1.844   2.595   1.875
 4042TIP3    H212091   1.774   2.715   1.936
 4043TIP3   OH212092   5.164   4.368   1.077
 4043TIP3    H112093   5.211   4.451   1.063
 4043TIP3    H212094   5.076   4.394   1.103
 4044TIP3   OH212095   4.707   2.686   1.304
 4044TIP3    H112096   4.638   2.733   1.351
 4044TIP3    H212097   4.750   2.752   1.251
 4045TIP3   OH212098   6.035   4.631   2.901
 4045TIP3    H112099   5.978   4.599   2.970
 4045TIP3    H212100   6.098   4.688   2.946
 4046TIP3   OH212101   2.858   4.146   2.309
 4046TIP3    H112102   2.763   4.154   2.301
 4046TIP3    H212103   2.892   4.223   2.263
 4047TIP3   OH212104   6.933   2.477   2.567
 4047TIP3    H112105   6.848   2.507   2.536
 4047TIP3    H212106   6.990   2.484   2.490
 4048TIP3   OH212107   3.115   2.182   5.024
 4048TIP3    H112108   3.186   2.152   5.081
 4048TIP3    H212109   3.158   2.235   4.957
 4049TIP3   OH212110   1.683   0.478   4.713
 4049TIP3    H112111   1.693   0.396   4.762
 4049TIP3    H212112   1.632   0.535   4.770
 4050TIP3   OH212113   6.460   0.659   3.563
 4050TIP3    H112114   6.464   0.572   3.603
 4050TIP3    H212115   6.551   0.688   3.559
 4051TIP3   OH212116   5.570   6.734   1.983
 4051TIP3    H112117   5.665   6.727   1.994
 4051TIP3    H212118   5.534   6.677   2.051
 4052TIP3   OH212119   0.366   4.085   1.610
 4052TIP3    H112120   0.448   4.082   1.659
 4052TIP3    H212121   0.320   4.162   1.644
 4053TIP3   OH212122   1.199   3.117   3.944
 4053TIP3    H112123   1.173   3.068   3.866
 4053TIP3    H212124   1.254   3.057   3.994
 4054TIP3   OH212125   0.252   1.866   5.837
 4054TIP3    H112126   0.314   1.894   5.770
 4054TIP3    H212127   0.295   1.885   5.920
 4055TIP3   OH212128   4.097   1.207   3.089
 4055TIP3    H112129   4.169   1.210   3.151
 4055TIP3    H212130   4.132   1.243   3.008
 4056TIP3   OH212131   4.094   2.930   2.315
 4056TIP3    H112132   4.057   2.844   2.295
 4056TIP3    H212133   4.158   2.945   2.246
 4057TIP3   OH212134   0.715   2.147   2.839
 4057TIP3    H112135   0.680   2.206   2.906
 4057TIP3    H212136   0.684   2.060   2.865
 4058TIP3   OH212137   1.466   4.723   2.313
 4058TIP3    H112138   1.523   4.750   2.241
 4058TIP3    H212139   1.378   4.749   2.285
 4059TIP3   OH212140   4.683   3.363   2.724
 4059TIP3    H112141   4.715   3.444   2.764
 4059TIP3    H212142   4.756   3.301   2.735
 4060TIP3   OH212143  -0.016   4.655   2.344
 4060TIP3    H112144   0.004   4.669   2.437
 4060TIP3    H212145  -0.094   4.600   2.345
 4061TIP3   OH212146   1.261   0.338   3.194
 4061TIP3    H112147   1.185   0.302   3.239
 4061TIP3    H212148   1.238   0.335   3.102
 4062TIP3   OH212149   0.124   6.035   0.448
 4062TIP3    H112150   0.104   6.092   0.374
 4062TIP3    H212151   0.110   5.946   0.414
 4063TIP3   OH212152   3.021   3.553   2.733
 4063TIP3    H112153   3.088   3.622   2.741
 4063TIP3    H212154   3.071   3.473   2.717
 4064TIP3   OH212155   6.405   6.685   3.014
 4064TIP3    H112156   6.401   6.775   2.983
 4064TIP3    H212157   6.447   6.637   2.942
 4065TIP3   OH212158   2.095   0.744   0.079
 4065TIP3    H112159   2.175   0.693   0.087
 4065TIP3    H212160   2.030   0.683   0.043
 4066TIP3   OH212161  -0.007   0.296   2.544
 4066TIP3    H112162  -0.047   0.210   2.527
 4066TIP3    H212163   0.056   0.308   2.473
 4067TIP3   OH212164   0.943   5.138   5.763
 4067TIP3    H112165   0.898   5.058   5.737
 4067TIP3    H212166   0.884   5.209   5.735
 4068TIP3   OH212167   4.907   0.577   0.802
 4068TIP3    H112168   4.842   0.636   0.765
 4068TIP3    H212169   4.977   0.636   0.833
 4069TIP3   OH212170   1.221   3.376   0.698
 4069TIP3    H112171   1.203   3.394   0.791
 4069TIP3    H212172   1.292   3.312   0.700
 4070TIP3   OH212173   6.476   6.320   3.180
 4070TIP3    H112174   6.438   6.397   3.221
 4070TIP3    H212175   6.570   6.326   3.197
 4071TIP3   OH212176   1.665   4.167   0.929
 4071TIP3    H112177   1.690   4.083   0.890
 4071TIP3    H212178   1.586   4.147   0.979
 4072TIP3   OH212179   3.338   2.348   1.898
 4072TIP3    H112180   3.383   2.271   1.932
 4072TIP3    H212181   3.290   2.316   1.821
 4073TIP3   OH212182   3.869   2.856   1.338
 4073TIP3    H112183   3.950   2.892   1.303
 4073TIP3    H212184   3.800   2.915   1.305
 4074TIP3   OH212185   4.321   4.128   1.752
 4074TIP3    H112186   4.278   4.062   1.699
 4074TIP3    H212187   4.370   4.079   1.817
 4075TIP3   OH212188   5.523   0.833   1.535
 4075TIP3    H112189   5.435   0.838   1.571
 4075TIP3    H212190   5.579   0.870   1.604
 4076TIP3   OH212191   1.540   2.699   3.126
 4076TIP3    H112192   1.600   2.639   3.170
 4076TIP3    H212193   1.590   2.781   3.117
 4077TIP3   OH212194   0.906   0.390   0.874
 4077TIP3    H112195   0.853   0.372   0.952
 4077TIP3    H212196   0.913   0.305   0.831
 4078TIP3   OH212197   5.051   3.317   1.344
 4078TIP3    H112198   5.105   3.393   1.323
 4078TIP3    H212199   4.978   3.321   1.282
 4079TIP3   OH212200   1.137   6.217   4.241
 4079TIP3    H112201   1.124   6.208   4.335
 4079TIP3    H212202   1.181   6.301   4.231
 4080TIP3   OH212203   1.447   4.395   2.809
 4080TIP3    H112204   1.364   4.363   2.846
 4080TIP3    H212205   1.514   4.341   2.852
 4081TIP3   OH212206   1.271   6.779   3.721
 4081TIP3    H112207   1.298   6.838   3.651
 4081TIP3    H212208   1.205   6.828   3.770
 4082TIP3   OH212209   4.654   2.982   0.227
 4082TIP3    H112210   4.745   2.971   0.253
 4082TIP3    H212211   4.619   3.047   0.288
 4083TIP3   OH212212   2.039   2.930   3.274
 4083TIP3    H112213   2.011   2.839   3.282
 4083TIP3    H212214   2.087   2.934   3.191
 4084TIP3   OH212215   4.859   5.126   1.182
 4084TIP3    H112216   4.805   5.201   1.207
 4084TIP3    H212217   4.909   5.104   1.261
 4085TIP3   OH212218   5.455   2.705   1.092
 4085TIP3    H112219   5.549   2.722   1.095
 4085TIP3    H212220   5.428   2.736   1.005
 4086TIP3   OH212221   5.911   1.765   0.670
 4086TIP3    H112222   5.947   1.824   0.604
 4086TIP3    H212223   5.827   1.804   0.693
 4087TIP3   OH212224   4.552   5.875   1.213
 4087TIP3    H112225   4.553   5.887   1.308
 4087TIP3    H212226   4.463   5.847   1.193
 4088TIP3   OH212227   1.518   3.524   3.062
 4088TIP3    H112228   1.547   3.469   3.135
 4088TIP3    H212229   1.567   3.605   3.072
 4089TIP3   OH212230   6.537   6.294   2.808
 4089TIP3    H112231   6.598   6.225   2.780
 4089TIP3    H212232   6.454   6.248   2.823
 4090TIP3   OH212233   6.420   5.762   1.424
 4090TIP3    H112234   6.485   5.757   1.354
 4090TIP3    H212235   6.360   5.690   1.407
 4091TIP3   OH212236   6.702   0.908   0.907
 4091TIP3    H112237   6.698   1.004   0.901
 4091TIP3    H212238   6.719   0.891   0.999
 4092TIP3   OH212239   3.118   0.922   1.056
 4092TIP3    H112240   3.124   0.841   1.006
 4092TIP3    H212241   3.209   0.946   1.074
 4093TIP3   OH212242   4.254   4.616   4.069
 4093TIP3    H112243   4.315   4.544   4.087
 4093TIP3    H212244   4.289   4.658   3.991
 4094TIP3   OH212245   3.829   4.326   2.747
 4094TIP3    H112246   3.917   4.363   2.753
 4094TIP3    H212247   3.840   4.245   2.697
 4095TIP3   OH212248   5.748   6.540   4.516
 4095TIP3    H112249   5.738   6.543   4.421
 4095TIP3    H212250   5.739   6.631   4.544
 4096TIP3   OH212251   3.449   4.647   2.337
 4096TIP3    H112252   3.392   4.697   2.395
 4096TIP3    H212253   3.416   4.557   2.343
 4097TIP3   OH212254   0.461   6.751   4.142
 4097TIP3    H112255   0.433   6.662   4.122
 4097TIP3    H212256   0.458   6.796   4.058
 4098TIP3   OH212257   4.068   4.679   1.686
 4098TIP3    H112258   4.008   4.607   1.703
 4098TIP3    H212259   4.150   4.652   1.728
 4099TIP3   OH212260   1.271   2.666   5.613
 4099TIP3    H112261   1.210   2.706   5.552
 4099TIP3    H212262   1.316   2.598   5.562
 4100TIP3   OH212263   3.975   1.231   0.113
 4100TIP3    H112264   3.963   1.289   0.038
 4100TIP3    H212265   3.958   1.288   0.189
 4101TIP3   OH212266   6.172   2.571   3.035
 4101TIP3    H112267   6.086   2.531   3.053
 4101TIP3    H212268   6.205   2.594   3.122
 4102TIP3   OH212269   4.595   5.700   5.530
 4102TIP3    H112270   4.532   5.732   5.465
 4102TIP3    H212271   4.618   5.612   5.498
 4103TIP3   OH212272   5.295   2.881   0.873
 4103TIP3    H112273   5.268   2.952   0.815
 4103TIP3    H212274   5.332   2.815   0.814
 4104TIP3   OH212275   1.882   6.786   3.789
 4104TIP3    H112276   1.788   6.773   3.796
 4104TIP3    H212277   1.891   6.868   3.739
 4105TIP3   OH212278   2.013   4.964   5.356
 4105TIP3    H112279   2.028   4.872   5.334
 4105TIP3    H212280   2.052   4.974   5.443
 4106TIP3   OH212281   2.856   2.801   3.593
 4106TIP3    H112282   2.771   2.789   3.635
 4106TIP3    H212283   2.843   2.875   3.534
 4107TIP3   OH212284   3.425   3.854   1.918
 4107TIP3    H112285   3.491   3.889   1.978
 4107TIP3    H212286   3.352   3.917   1.924
 4108TIP3   OH212287   0.077   4.735   4.840
 4108TIP3    H112288   0.125   4.718   4.920
 4108TIP3    H212289  -0.005   4.686   4.850
 4109TIP3   OH212290   5.425   6.369   4.165
 4109TIP3    H112291   5.391   6.281   4.172
 4109TIP3    H212292   5.394   6.413   4.244
 4110TIP3   OH212293   5.667   6.594   0.205
 4110TIP3    H112294   5.660   6.643   0.287
 4110TIP3    H212295   5.734   6.641   0.155
 4111TIP3   OH212296   3.683   6.694   3.926
 4111TIP3    H112297   3.711   6.742   4.004
 4111TIP3    H212298   3.693   6.756   3.854
 4112TIP3   OH212299   3.161   6.180   4.798
 4112TIP3    H112300   3.149   6.144   4.710
 4112TIP3    H212301   3.255   6.182   4.811
 4113TIP3   OH212302   6.018   3.029   2.476
 4113TIP3    H112303   6.077   2.955   2.491
 4113TIP3    H212304   5.976   3.010   2.392
 4114TIP3   OH212305   2.991   1.163   0.322
 4114TIP3    H112306   3.030   1.210   0.248
 4114TIP3    H212307   2.999   1.071   0.299
 4115TIP3   OH212308   1.889   1.727   2.504
 4115TIP3    H112309   1.840   1.722   2.586
 4115TIP3    H212310   1.940   1.807   2.512
 4116TIP3   OH212311   6.667   6.837   1.368
 4116TIP3    H112312   6.731   6.855   1.298
 4116TIP3    H212313   6.712   6.776   1.426
 4117TIP3   OH212314   5.550   4.620   4.503
 4117TIP3    H112315   5.569   4.613   4.409
 4117TIP3    H212316   5.548   4.715   4.519
 4118TIP3   OH212317   1.198   2.141   2.948
 4118TIP3    H112318   1.171   2.233   2.943
 4118TIP3    H212319   1.115   2.093   2.954
 4119TIP3   OH212320   0.573   3.045   2.011
 4119TIP3    H112321   0.583   2.957   2.046
 4119TIP3    H212322   0.480   3.066   2.024
 4120TIP3   OH212323   5.005   0.416   4.469
 4120TIP3    H112324   5.021   0.323   4.487
 4120TIP3    H212325   4.922   0.434   4.513
 4121TIP3   OH212326   6.648   0.588   2.983
 4121TIP3    H112327   6.616   0.499   2.974
 4121TIP3    H212328   6.613   0.619   3.066
 4122TIP3   OH212329   0.629   5.704   5.545
 4122TIP3    H112330   0.548   5.723   5.498
 4122TIP3    H212331   0.617   5.745   5.631
 4123TIP3   OH212332   5.970   5.583   5.801
 4123TIP3    H112333   5.901   5.580   5.735
 4123TIP3    H212334   6.045   5.623   5.755
 4124TIP3   OH212335   6.011   5.799   4.414
 4124TIP3    H112336   5.932   5.773   4.367
 4124TIP3    H212337   5.987   5.880   4.459
 4125TIP3   OH212338   4.079   6.370   2.200
 4125TIP3    H112339   4.103   6.286   2.160
 4125TIP3    H212340   4.000   6.352   2.250
 4126TIP3   OH212341   0.377   5.141   3.330
 4126TIP3    H112342   0.295   5.190   3.322
 4126TIP3    H212343   0.398   5.145   3.423
 4127TIP3   OH212344   2.278   1.912   1.852
 4127TIP3    H112345   2.274   1.895   1.946
 4127TIP3    H212346   2.188   1.936   1.828
 4128TIP3   OH212347   3.709   0.388   3.318
 4128TIP3    H112348   3.729   0.306   3.363
 4128TIP3    H212349   3.772   0.391   3.246
 4129TIP3   OH212350   5.442   2.121   5.200
 4129TIP3    H112351   5.499   2.097   5.274
 4129TIP3    H212352   5.486   2.196   5.160
 4130TIP3   OH212353   4.058   3.916   4.559
 4130TIP3    H112354   4.150   3.888   4.559
 4130TIP3    H212355   4.057   3.991   4.500
 4131TIP3   OH212356   4.494   1.978   2.999
 4131TIP3    H112357   4.557   1.908   3.018
 4131TIP3    H212358   4.421   1.933   2.957
 4132TIP3   OH212359   5.342   4.246   5.453
 4132TIP3    H112360   5.252   4.232   5.481
 4132TIP3    H212361   5.390   4.261   5.534
 4133TIP3   OH212362   3.611   6.527   5.280
 4133TIP3    H112363   3.523   6.514   5.244
 4133TIP3    H212364   3.598   6.581   5.358
 4134TIP3   OH212365   5.877   0.923   0.454
 4134TIP3    H112366   5.789   0.890   0.437
 4134TIP3    H212367   5.934   0.869   0.399
 4135TIP3   OH212368   5.672   2.826   1.598
 4135TIP3    H112369   5.739   2.797   1.536
 4135TIP3    H212370   5.655   2.917   1.574
 4136TIP3   OH212371   1.613   1.195   3.951
 4136TIP3    H112372   1.549   1.125   3.961
 4136TIP3    H212373   1.563   1.269   3.918
 4137TIP3   OH212374   5.906   6.147   3.955
 4137TIP3    H112375   5.828   6.201   3.940
 4137TIP3    H212376   5.917   6.146   4.050
 4138TIP3   OH212377   5.697   3.793   1.311
 4138TIP3    H112378   5.742   3.828   1.234
 4138TIP3    H212379   5.764   3.795   1.380
 4139TIP3   OH212380   6.685   2.512   4.743
 4139TIP3    H112381   6.754   2.570   4.774
 4139TIP3    H212382   6.625   2.569   4.694
 4140TIP3   OH212383   0.689   4.430   4.808
 4140TIP3    H112384   0.715   4.508   4.759
 4140TIP3    H212385   0.600   4.411   4.777
 4141TIP3   OH212386   1.125   1.014   3.787
 4141TIP3    H112387   1.208   0.967   3.781
 4141TIP3    H212388   1.058   0.949   3.765
 4142TIP3   OH212389   4.214   6.317   2.960
 4142TIP3    H112390   4.238   6.355   2.875
 4142TIP3    H212391   4.129   6.277   2.945
 4143TIP3   OH212392   2.309   6.667   2.457
 4143TIP3    H112393   2.350   6.648   2.372
 4143TIP3    H212394   2.215   6.663   2.439
 4144TIP3   OH212395   1.749   0.726   5.801
 4144TIP3    H112396   1.794   0.667   5.741
 4144TIP3    H212397   1.802   0.806   5.799
 4145TIP3   OH212398   2.333   6.524   5.690
 4145TIP3    H112399   2.277   6.535   5.767
 4145TIP3    H212400   2.272   6.509   5.618
 4146TIP3   OH212401   1.675   5.479   1.796
 4146TIP3    H112402   1.594   5.441   1.830
 4146TIP3    H212403   1.735   5.406   1.787
 4147TIP3   OH212404   3.893   4.280   3.629
 4147TIP3    H112405   3.840   4.228   3.689
 4147TIP3    H212406   3.857   4.262   3.542
 4148TIP3   OH212407   0.914   5.438   3.700
 4148TIP3    H112408   0.961   5.440   3.617
 4148TIP3    H212409   0.839   5.496   3.687
 4149TIP3   OH212410   6.069   3.943   1.191
 4149TIP3    H112411   6.030   4.029   1.174
 4149TIP3    H212412   6.162   3.955   1.174
 4150TIP3   OH212413   0.645   6.510   1.707
 4150TIP3    H112414   0.702   6.586   1.717
 4150TIP3    H212415   0.689   6.440   1.755
 4151TIP3   OH212416   0.145   5.702   2.053
 4151TIP3    H112417   0.160   5.748   1.970
 4151TIP3    H212418   0.209   5.630   2.053
 4152TIP3   OH212419   2.855   3.791   5.321
 4152TIP3    H112420   2.780   3.747   5.280
 4152TIP3    H212421   2.882   3.857   5.257
 4153TIP3   OH212422   3.489   3.983   4.166
 4153TIP3    H112423   3.475   4.069   4.127
 4153TIP3    H212424   3.583   3.980   4.185
 4154TIP3   OH212425   6.112   3.065   4.810
 4154TIP3    H112426   6.184   3.024   4.763
 4154TIP3    H212427   6.033   3.023   4.775
 4155TIP3   OH212428   3.366   0.380   2.798
 4155TIP3    H112429   3.381   0.369   2.704
 4155TIP3    H212430   3.453   0.374   2.837
 4156TIP3   OH212431   6.395   1.846   1.133
 4156TIP3    H112432   6.341   1.842   1.212
 4156TIP3    H212433   6.479   1.809   1.160
 4157TIP3   OH212434   6.373   2.642   5.030
 4157TIP3    H112435   6.409   2.557   5.004
 4157TIP3    H212436   6.449   2.700   5.034
 4158TIP3   OH212437   6.782   0.548   3.810
 4158TIP3    H112438   6.845   0.620   3.804
 4158TIP3    H212439   6.789   0.518   3.900
 4159TIP3   OH212440   1.249   1.525   3.974
 4159TIP3    H112441   1.272   1.588   4.042
 4159TIP3    H212442   1.217   1.579   3.902
 4160TIP3   OH212443   4.389   6.618   0.370
 4160TIP3    H112444   4.440   6.563   0.310
 4160TIP3    H212445   4.300   6.583   0.365
 4161TIP3   OH212446   0.869   2.846   0.423
 4161TIP3    H112447   0.941   2.909   0.428
 4161TIP3    H212448   0.799   2.886   0.474
 4162TIP3   OH212449   6.630   2.962   2.014
 4162TIP3    H112450   6.716   2.919   2.012
 4162TIP3    H212451   6.636   3.024   2.086
 4163TIP3   OH212452   5.148   4.699   5.233
 4163TIP3    H112453   5.187   4.772   5.281
 4163TIP3    H212454   5.074   4.672   5.287
 4164TIP3   OH212455   0.226   2.871   2.098
 4164TIP3    H112456   0.247   2.804   2.033
 4164TIP3    H212457   0.287   2.943   2.078
 4165TIP3   OH212458   4.301   0.582   5.274
 4165TIP3    H112459   4.225   0.619   5.318
 4165TIP3    H212460   4.304   0.625   5.189
 4166TIP3   OH212461   1.257   5.062   1.985
 4166TIP3    H112462   1.172   5.103   1.997
 4166TIP3    H212463   1.309   5.091   2.060
 4167TIP3   OH212464   2.802   0.013   3.082
 4167TIP3    H112465   2.778   0.096   3.039
 4167TIP3    H212466   2.748  -0.053   3.039
 4168TIP3   OH212467   3.816   4.818   2.952
 4168TIP3    H112468   3.811   4.911   2.972
 4168TIP3    H212469   3.907   4.804   2.923
 4169TIP3   OH212470   0.888   3.488   3.617
 4169TIP3    H112471   0.843   3.559   3.662
 4169TIP3    H212472   0.875   3.507   3.524
 4170TIP3   OH212473   4.253   3.612   5.334
 4170TIP3    H112474   4.323   3.551   5.314
 4170TIP3    H212475   4.186   3.594   5.268
 4171TIP3   OH212476   5.534   4.372   0.788
 4171TIP3    H112477   5.506   4.344   0.700
 4171TIP3    H212478   5.453   4.379   0.838
 4172TIP3   OH212479   1.782   1.189   1.867
 4172TIP3    H112480   1.742   1.270   1.836
 4172TIP3    H212481   1.709   1.126   1.871
 4173TIP3   OH212482   0.731   3.211   1.466
 4173TIP3    H112483   0.762   3.301   1.462
 4173TIP3    H212484   0.804   3.163   1.506
 4174TIP3   OH212485   4.116   0.974   0.216
 4174TIP3    H112486   4.045   0.934   0.166
 4174TIP3    H212487   4.094   1.067   0.221
 4175TIP3   OH212488   4.517   6.448   1.368
 4175TIP3    H112489   4.501   6.459   1.274
 4175TIP3    H212490   4.461   6.374   1.393
 4176TIP3   OH212491   1.694   3.829   2.768
 4176TIP3    H112492   1.761   3.863   2.827
 4176TIP3    H212493   1.697   3.734   2.779
 4177TIP3   OH212494   3.733   2.122   4.715
 4177TIP3    H112495   3.751   2.035   4.679
 4177TIP3    H212496   3.694   2.170   4.641
 4178TIP3   OH212497   5.426   5.774   1.180
 4178TIP3    H112498   5.433   5.793   1.086
 4178TIP3    H212499   5.382   5.689   1.184
 4179TIP3   OH212500   6.811   3.305   4.335
 4179TIP3    H112501   6.863   3.314   4.255
 4179TIP3    H212502   6.776   3.393   4.351
 4180TIP3   OH212503   2.867   0.096   5.591
 4180TIP3    H112504   2.958   0.066   5.589
 4180TIP3    H212505   2.852   0.121   5.682
 4181TIP3   OH212506   1.904   4.713   2.406
 4181TIP3    H112507   1.946   4.722   2.320
 4181TIP3    H212508   1.862   4.798   2.421
 4182TIP3   OH212509   3.190   0.020   5.711
 4182TIP3    H112510   3.179   0.036   5.805
 4182TIP3    H212511   3.174   0.105   5.670
 4183TIP3   OH212512   5.205   1.283   1.853
 4183TIP3    H112513   5.283   1.329   1.884
 4183TIP3    H212514   5.198   1.308   1.761
 4184TIP3   OH212515   4.367   2.308   2.445
 4184TIP3    H112516   4.311   2.276   2.373
 4184TIP3    H212517   4.456   2.286   2.418
 4185TIP3   OH212518   6.651   0.678   0.682
 4185TIP3    H112519   6.716   0.694   0.751
 4185TIP3    H212520   6.703   0.672   0.602
 4186TIP3   OH212521   0.612   5.937   1.963
 4186TIP3    H112522   0.677   5.866   1.965
 4186TIP3    H212523   0.603   5.958   1.871
 4187TIP3   OH212524   4.128   3.048   0.257
 4187TIP3    H112525   4.075   2.996   0.197
 4187TIP3    H212526   4.146   3.129   0.209
 4188TIP3   OH212527   0.622   6.406   4.588
 4188TIP3    H112528   0.558   6.414   4.660
 4188TIP3    H212529   0.676   6.485   4.595
 4189TIP3   OH212530   5.089   1.295   4.121
 4189TIP3    H112531   5.021   1.240   4.160
 4189TIP3    H212532   5.169   1.242   4.126
 4190TIP3   OH212533   2.978   5.932   0.305
 4190TIP3    H112534   2.949   5.933   0.213
 4190TIP3    H212535   3.011   5.843   0.318
 4191TIP3   OH212536   2.432   3.525   2.021
 4191TIP3    H112537   2.373   3.458   1.986
 4191TIP3    H212538   2.397   3.608   1.987
 4192TIP3   OH212539   1.164   3.873   2.170
 4192TIP3    H112540   1.108   3.837   2.238
 4192TIP3    H212541   1.107   3.931   2.120
 4193TIP3   OH212542   3.634   4.206   3.867
 4193TIP3    H112543   3.552   4.246   3.838
 4193TIP3    H212544   3.660   4.257   3.943
 4194TIP3   OH212545   4.754   2.455   2.531
 4194TIP3    H112546   4.812   2.384   2.558
 4194TIP3    H212547   4.704   2.420   2.457
 4195TIP3   OH212548   3.170   4.169   3.221
 4195TIP3    H112549   3.192   4.228   3.294
 4195TIP3    H212550   3.077   4.148   3.235
 4196TIP3   OH212551   2.719   0.271   1.191
 4196TIP3    H112552   2.770   0.291   1.270
 4196TIP3    H212553   2.658   0.203   1.219
 4197TIP3   OH212554   0.525   2.144   3.549
 4197TIP3    H112555   0.618   2.157   3.532
 4197TIP3    H212556   0.502   2.212   3.612
 4198TIP3   OH212557   4.676   3.568   0.607
 4198TIP3    H112558   4.667   3.660   0.585
 4198TIP3    H212559   4.763   3.544   0.572
 4199TIP3   OH212560   0.024   0.349   0.236
 4199TIP3    H112561   0.031   0.273   0.293
 4199TIP3    H212562  -0.059   0.390   0.260
 4200TIP3   OH212563   4.732   5.396   1.881
 4200TIP3    H112564   4.769   5.375   1.967
 4200TIP3    H212565   4.778   5.477   1.855
 4201TIP3   OH212566   3.258   6.006   3.875
 4201TIP3    H112567   3.174   6.012   3.831
 4201TIP3    H212568   3.282   6.097   3.893
 4202TIP3   OH212569   5.830   5.062   4.168
 4202TIP3    H112570   5.921   5.086   4.182
 4202TIP3    H212571   5.834   4.989   4.106
 4203TIP3   OH212572   5.145   2.415   1.830
 4203TIP3    H112573   5.107   2.503   1.836
 4203TIP3    H212574   5.071   2.358   1.812
 4204TIP3   OH212575   6.054   6.764   4.850
 4204TIP3    H112576   6.040   6.687   4.794
 4204TIP3    H212577   6.145   6.756   4.879
 4205TIP3   OH212578   2.107   2.300   0.322
 4205TIP3    H112579   2.107   2.315   0.417
 4205TIP3    H212580   2.197   2.273   0.303
 4206TIP3   OH212581   3.479   0.891   4.551
 4206TIP3    H112582   3.499   0.948   4.477
 4206TIP3    H212583   3.482   0.802   4.514
 4207TIP3   OH212584   6.789   4.420   5.450
 4207TIP3    H112585   6.696   4.426   5.472
 4207TIP3    H212586   6.834   4.456   5.527
 4208TIP3   OH212587   5.696   3.217   2.037
 4208TIP3    H112588   5.697   3.130   1.996
 4208TIP3    H212589   5.728   3.201   2.126
 4209TIP3   OH212590   0.357   1.512   1.260
 4209TIP3    H112591   0.290   1.567   1.219
 4209TIP3    H212592   0.308   1.441   1.301
 4210TIP3   OH212593   4.605   0.734   0.234
 4210TIP3    H112594   4.694   0.767   0.247
 4210TIP3    H212595   4.615   0.640   0.224
 4211TIP3   OH212596   2.526   1.942   2.952
 4211TIP3    H112597   2.499   1.913   3.039
 4211TIP3    H212598   2.490   2.031   2.945
 4212TIP3   OH212599   0.266   5.623   3.630
 4212TIP3    H112600   0.171   5.634   3.633
 4212TIP3    H212601   0.289   5.592   3.717
 4213TIP3   OH212602   2.989   1.811   2.131
 4213TIP3    H112603   2.906   1.827   2.176
 4213TIP3    H212604   3.054   1.806   2.201
 4214TIP3   OH212605   6.485   1.985   4.302
 4214TIP3    H112606   6.450   1.962   4.388
 4214TIP3    H212607   6.415   1.963   4.241
 4215TIP3   OH212608   0.047   0.823   4.463
 4215TIP3    H112609   0.095   0.827   4.546
 4215TIP3    H212610   0.083   0.747   4.418
 4216TIP3   OH212611   5.570   6.665   3.286
 4216TIP3    H112612   5.613   6.673   3.371
 4216TIP3    H212613   5.602   6.583   3.250
 4217TIP3   OH212614   2.318   3.839   3.139
 4217TIP3    H112615   2.266   3.852   3.060
 4217TIP3    H212616   2.278   3.898   3.203
 4218TIP3   OH212617   0.540   5.123   2.378
 4218TIP3    H112618   0.617   5.112   2.434
 4218TIP3    H212619   0.503   5.207   2.405
 4219TIP3   OH212620   5.551   5.379   3.530
 4219TIP3    H112621   5.461   5.375   3.561
 4219TIP3    H212622   5.604   5.355   3.607
 4220TIP3   OH212623   5.187   3.071   0.687
 4220TIP3    H112624   5.225   3.146   0.641
 4220TIP3    H212625   5.101   3.061   0.647
 4221TIP3   OH212626   3.596   5.825   5.483
 4221TIP3    H112627   3.655   5.761   5.522
 4221TIP3    H212628   3.523   5.832   5.545
 4222TIP3   OH212629   4.089   5.922   3.089
 4222TIP3    H112630   4.041   5.840   3.100
 4222TIP3    H212631   4.156   5.921   3.157
 4223TIP3   OH212632   0.592   3.951   0.852
 4223TIP3    H112633   0.636   3.905   0.923
 4223TIP3    H212634   0.627   4.041   0.856
 4224TIP3   OH212635   4.569   1.460   5.901
 4224TIP3    H112636   4.619   1.541   5.890
 4224TIP3    H212637   4.621   1.393   5.856
 4225TIP3   OH212638   0.317   3.810   4.988
 4225TIP3    H112639   0.357   3.726   4.964
 4225TIP3    H212640   0.226   3.802   4.960
 4226TIP3   OH212641   0.736   3.710   3.683
 4226TIP3    H112642   0.656   3.728   3.634
 4226TIP3    H212643   0.722   3.749   3.769
 4227TIP3   OH212644   2.974   1.056   0.588
 4227TIP3    H112645   2.981   1.094   0.501
 4227TIP3    H212646   2.959   0.963   0.573
 4228TIP3   OH212647   4.437   3.245   3.816
 4228TIP3    H112648   4.441   3.150   3.818
 4228TIP3    H212649   4.440   3.267   3.723
 4229TIP3   OH212650   3.474   3.085   2.358
 4229TIP3    H112651   3.442   3.175   2.350
 4229TIP3    H212652   3.506   3.079   2.448
 4230TIP3   OH212653   1.542   1.039   1.855
 4230TIP3    H112654   1.456   1.082   1.856
 4230TIP3    H212655   1.545   0.990   1.938
 4231TIP3   OH212656   5.179   2.438   1.528
 4231TIP3    H112657   5.148   2.518   1.571
 4231TIP3    H212658   5.262   2.462   1.487
 4232TIP3   OH212659   3.165   1.896   0.465
 4232TIP3    H112660   3.252   1.881   0.427
 4232TIP3    H212661   3.126   1.964   0.411
 4233TIP3   OH212662   1.787   6.102   1.964
 4233TIP3    H112663   1.766   6.156   2.040
 4233TIP3    H212664   1.878   6.124   1.943
 4234TIP3   OH212665   2.156   0.595   0.504
 4234TIP3    H112666   2.237   0.548   0.485
 4234TIP3    H212667   2.174   0.686   0.478
 4235TIP3   OH212668   6.199   5.264   4.591
 4235TIP3    H112669   6.294   5.264   4.599
 4235TIP3    H212670   6.175   5.171   4.584
 4236TIP3   OH212671   1.689   4.200   1.346
 4236TIP3    H112672   1.771   4.195   1.296
 4236TIP3    H212673   1.681   4.114   1.387
 4237TIP3   OH212674   5.377   4.986   5.682
 4237TIP3    H112675   5.464   4.947   5.687
 4237TIP3    H212676   5.347   4.967   5.593
 4238TIP3   OH212677   6.953   0.119   3.678
 4238TIP3    H112678   6.883   0.115   3.744
 4238TIP3    H212679   7.004   0.040   3.693
 4239TIP3   OH212680   1.363   4.889   4.294
 4239TIP3    H112681   1.346   4.827   4.365
 4239TIP3    H212682   1.311   4.966   4.317
 4240TIP3   OH212683   5.373   3.635   3.230
 4240TIP3    H112684   5.329   3.567   3.282
 4240TIP3    H212685   5.349   3.717   3.273
 4241TIP3   OH212686   2.659   0.651   4.205
 4241TIP3    H112687   2.751   0.641   4.229
 4241TIP3    H212688   2.614   0.665   4.289
 4242TIP3   OH212689   3.653   3.958   1.745
 4242TIP3    H112690   3.743   3.931   1.767
 4242TIP3    H212691   3.656   4.053   1.745
 4243TIP3   OH212692   4.358   1.175   5.012
 4243TIP3    H112693   4.310   1.093   5.025
 4243TIP3    H212694   4.298   1.243   5.042
 4244TIP3   OH212695   6.968   1.415   5.884
 4244TIP3    H112696   6.881   1.402   5.848
 4244TIP3    H212697   6.975   1.348   5.953
 4245TIP3   OH212698   0.382   1.265   0.443
 4245TIP3    H112699   0.372   1.352   0.403
 4245TIP3    H212700   0.295   1.245   0.477
 4246TIP3   OH212701   0.340   3.102   5.336
 4246TIP3    H112702   0.333   3.011   5.305
 4246TIP3    H212703   0.259   3.116   5.386
 4247TIP3   OH212704   5.516   4.187   5.149
 4247TIP3    H112705   5.456   4.221   5.083
 4247TIP3    H212706   5.577   4.133   5.100
 4248TIP3   OH212707   3.143   6.682   2.190
 4248TIP3    H112708   3.111   6.602   2.233
 4248TIP3    H212709   3.156   6.744   2.262
 4249TIP3   OH212710   0.869   5.570   4.577
 4249TIP3    H112711   0.856   5.475   4.574
 4249TIP3    H212712   0.964   5.581   4.575
 4250TIP3   OH212713   4.415   4.935   0.023
 4250TIP3    H112714   4.321   4.939   0.006
 4250TIP3    H212715   4.432   4.843   0.044
 4251TIP3   OH212716   1.270   2.797   4.828
 4251TIP3    H112717   1.231   2.836   4.906
 4251TIP3    H212718   1.291   2.871   4.771
 4252TIP3   OH212719   1.565   3.422   1.216
 4252TIP3    H112720   1.479   3.379   1.210
 4252TIP3    H212721   1.624   3.362   1.170
 4253TIP3   OH212722   0.094   2.178   3.097
 4253TIP3    H112723   0.113   2.259   3.050
 4253TIP3    H212724   0.040   2.127   3.037
 4254TIP3   OH212725   4.113   3.467   2.047
 4254TIP3    H112726   4.142   3.506   2.130
 4254TIP3    H212727   4.042   3.523   2.017
 4255TIP3   OH212728   4.216   6.285   4.345
 4255TIP3    H112729   4.240   6.243   4.427
 4255TIP3    H212730   4.196   6.375   4.368
 4256TIP3   OH212731   2.544   5.648   1.634
 4256TIP3    H112732   2.457   5.676   1.603
 4256TIP3    H212733   2.559   5.564   1.592
 4257TIP3   OH212734   1.426   6.202   0.696
 4257TIP3    H112735   1.334   6.175   0.693
 4257TIP3    H212736   1.439   6.234   0.785
 4258TIP3   OH212737   2.521   4.318   0.363
 4258TIP3    H112738   2.552   4.228   0.370
 4258TIP3    H212739   2.503   4.344   0.453
 4259TIP3   OH212740   2.418   2.868   0.800
 4259TIP3    H112741   2.340   2.919   0.824
 4259TIP3    H212742   2.488   2.904   0.855
 4260TIP3   OH212743   6.255   0.347   4.920
 4260TIP3    H112744   6.343   0.316   4.900
 4260TIP3    H212745   6.268   0.421   4.980
 4261TIP3   OH212746   5.539   4.997   1.989
 4261TIP3    H112747   5.587   5.006   1.907
 4261TIP3    H212748   5.591   4.937   2.042
 4262TIP3   OH212749   5.142   0.632   0.102
 4262TIP3    H112750   5.218   0.659   0.153
 4262TIP3    H212751   5.099   0.713   0.077
 4263TIP3   OH212752   5.226   5.527   2.564
 4263TIP3    H112753   5.221   5.605   2.619
 4263TIP3    H212754   5.319   5.519   2.542
 4264TIP3   OH212755   4.173   2.113   3.776
 4264TIP3    H112756   4.242   2.077   3.721
 4264TIP3    H212757   4.219   2.167   3.841
 4265TIP3   OH212758   5.319   3.704   2.973
 4265TIP3    H112759   5.354   3.703   3.062
 4265TIP3    H212760   5.376   3.766   2.927
 4266TIP3   OH212761   5.855   6.242   0.464
 4266TIP3    H112762   5.915   6.316   0.458
 4266TIP3    H212763   5.789   6.269   0.529
 4267TIP3   OH212764   7.079   3.157   4.277
 4267TIP3    H112765   7.128   3.232   4.312
 4267TIP3    H212766   7.125   3.134   4.196
 4268TIP3   OH212767   1.716   2.586   1.149
 4268TIP3    H112768   1.630   2.607   1.185
 4268TIP3    H212769   1.698   2.547   1.063
 4269TIP3   OH212770   0.782   2.734   3.045
 4269TIP3    H112771   0.792   2.758   3.137
 4269TIP3    H212772   0.857   2.776   3.001
 4270TIP3   OH212773   4.668   2.090   2.038
 4270TIP3    H112774   4.574   2.094   2.022
 4270TIP3    H212775   4.707   2.116   1.955
 4271TIP3   OH212776   2.315   2.298   1.641
 4271TIP3    H112777   2.307   2.265   1.730
 4271TIP3    H212778   2.274   2.385   1.644
 4272TIP3   OH212779   1.796   3.281   4.074
 4272TIP3    H112780   1.745   3.203   4.052
 4272TIP3    H212781   1.858   3.290   4.001
 4273TIP3   OH212782   0.871   2.216   0.299
 4273TIP3    H112783   0.898   2.124   0.307
 4273TIP3    H212784   0.934   2.255   0.239
 4274TIP3   OH212785   0.849   3.072   4.247
 4274TIP3    H112786   0.810   3.067   4.335
 4274TIP3    H212787   0.782   3.035   4.189
 4275TIP3   OH212788   4.463   4.541   2.059
 4275TIP3    H112789   4.469   4.590   2.141
 4275TIP3    H212790   4.415   4.462   2.082
 4276TIP3   OH212791   5.178   4.319   4.688
 4276TIP3    H112792   5.123   4.308   4.610
 4276TIP3    H212793   5.260   4.357   4.655
 4277TIP3   OH212794   3.963   0.232   0.469
 4277TIP3    H112795   3.993   0.278   0.547
 4277TIP3    H212796   4.027   0.256   0.401
 4278TIP3   OH212797   4.008   2.272   5.345
 4278TIP3    H112798   3.980   2.218   5.272
 4278TIP3    H212799   4.045   2.210   5.408
 4279TIP3   OH212800   1.602   2.608   2.422
 4279TIP3    H112801   1.531   2.671   2.435
 4279TIP3    H212802   1.681   2.661   2.414
 4280TIP3   OH212803   1.252   4.421   3.411
 4280TIP3    H112804   1.272   4.515   3.404
 4280TIP3    H212805   1.181   4.407   3.350
 4281TIP3   OH212806   1.278   1.283   5.309
 4281TIP3    H112807   1.328   1.250   5.383
 4281TIP3    H212808   1.330   1.257   5.232
 4282TIP3   OH212809   3.860   2.021   3.226
 4282TIP3    H112810   3.873   2.006   3.320
 4282TIP3    H212811   3.800   2.096   3.222
 4283TIP3   OH212812   6.402   0.820   1.647
 4283TIP3    H112813   6.390   0.771   1.566
 4283TIP3    H212814   6.437   0.905   1.618
 4284TIP3   OH212815   1.171   3.456   5.186
 4284TIP3    H112816   1.118   3.414   5.118
 4284TIP3    H212817   1.205   3.383   5.238
 4285TIP3   OH212818   2.486   2.305   4.202
 4285TIP3    H112819   2.457   2.373   4.263
 4285TIP3    H212820   2.572   2.279   4.234
 4286TIP3   OH212821   4.070   3.207   0.891
 4286TIP3    H112822   4.102   3.202   0.801
 4286TIP3    H212823   4.054   3.116   0.916
 4287TIP3   OH212824   3.464   5.100   0.965
 4287TIP3    H112825   3.433   5.025   1.016
 4287TIP3    H212826   3.412   5.174   0.998
 4288TIP3   OH212827   6.735   0.469   5.883
 4288TIP3    H112828   6.722   0.378   5.856
 4288TIP3    H212829   6.779   0.510   5.809
 4289TIP3   OH212830   5.382   5.241   2.833
 4289TIP3    H112831   5.411   5.153   2.811
 4289TIP3    H212832   5.456   5.297   2.808
 4290TIP3   OH212833   2.165   3.896   5.052
 4290TIP3    H112834   2.202   3.959   5.114
 4290TIP3    H212835   2.088   3.861   5.096
 4291TIP3   OH212836   5.850   0.163   2.652
 4291TIP3    H112837   5.800   0.171   2.570
 4291TIP3    H212838   5.879   0.252   2.672
 4292TIP3   OH212839   5.576   1.607   5.688
 4292TIP3    H112840   5.487   1.578   5.666
 4292TIP3    H212841   5.569   1.642   5.776
 4293TIP3   OH212842   3.367   4.578   2.066
 4293TIP3    H112843   3.429   4.609   2.133
 4293TIP3    H212844   3.288   4.556   2.115
 4294TIP3   OH212845   4.827   2.695   2.375
 4294TIP3    H112846   4.764   2.658   2.436
 4294TIP3    H212847   4.840   2.628   2.309
 4295TIP3   OH212848   5.087   6.590   3.917
 4295TIP3    H112849   5.151   6.624   3.980
 4295TIP3    H212850   5.125   6.509   3.885
 4296TIP3   OH212851   2.864   3.055   0.784
 4296TIP3    H112852   2.933   3.050   0.850
 4296TIP3    H212853   2.910   3.071   0.701
 4297TIP3   OH212854   4.383   2.938   5.273
 4297TIP3    H112855   4.388   2.862   5.215
 4297TIP3    H212856   4.366   2.901   5.359
 4298TIP3   OH212857   4.360   4.124   0.974
 4298TIP3    H112858   4.401   4.148   0.891
 4298TIP3    H212859   4.416   4.164   1.041
 4299TIP3   OH212860   6.711   5.104   4.552
 4299TIP3    H112861   6.800   5.133   4.574
 4299TIP3    H212862   6.698   5.025   4.605
 4300TIP3   OH212863   0.221   2.431   4.589
 4300TIP3    H112864   0.274   2.364   4.545
 4300TIP3    H212865   0.238   2.511   4.540
 4301TIP3   OH212866   0.929   1.808   1.206
 4301TIP3    H112867   0.913   1.867   1.132
 4301TIP3    H212868   0.872   1.734   1.189
 4302TIP3   OH212869   0.522   5.769   1.713
 4302TIP3    H112870   0.455   5.822   1.670
 4302TIP3    H212871   0.545   5.702   1.649
 4303TIP3   OH212872   2.453   3.106   1.316
 4303TIP3    H112873   2.523   3.144   1.368
 4303TIP3    H212874   2.497   3.060   1.244
 4304TIP3   OH212875   5.538   0.744   3.252
 4304TIP3    H112876   5.566   0.709   3.167
 4304TIP3    H212877   5.619   0.773   3.294
 4305TIP3   OH212878   7.062   6.018   1.873
 4305TIP3    H112879   7.070   6.025   1.968
 4305TIP3    H212880   7.056   5.924   1.856
 4306TIP3   OH212881   4.503   0.051   1.406
 4306TIP3    H112882   4.490   0.110   1.480
 4306TIP3    H212883   4.416   0.040   1.368
 4307TIP3   OH212884   2.618   3.367   5.724
 4307TIP3    H112885   2.588   3.409   5.643
 4307TIP3    H212886   2.565   3.407   5.793
 4308TIP3   OH212887   3.430   5.114   4.347
 4308TIP3    H112888   3.504   5.170   4.369
 4308TIP3    H212889   3.353   5.170   4.359
 4309TIP3   OH212890   3.690   6.731   5.086
 4309TIP3    H112891   3.651   6.671   5.150
 4309TIP3    H212892   3.674   6.818   5.123
 4310TIP3   OH212893   6.540   3.783   3.705
 4310TIP3    H112894   6.545   3.699   3.659
 4310TIP3    H212895   6.473   3.832   3.658
 4311TIP3   OH212896   4.510   6.693   1.476
 4311TIP3    H112897   4.519   6.624   1.411
 4311TIP3    H212898   4.515   6.647   1.560
 4312TIP3   OH212899   4.270   3.284   1.348
 4312TIP3    H112900   4.272   3.365   1.399
 4312TIP3    H212901   4.224   3.308   1.267
 4313TIP3   OH212902   2.729   5.602   0.792
 4313TIP3    H112903   2.668   5.668   0.826
 4313TIP3    H212904   2.762   5.639   0.711
 4314TIP3   OH212905   3.447   6.722   0.122
 4314TIP3    H112906   3.397   6.789   0.075
 4314TIP3    H212907   3.408   6.639   0.095
 4315TIP3   OH212908   4.843   3.152   3.255
 4315TIP3    H112909   4.799   3.232   3.227
 4315TIP3    H212910   4.885   3.118   3.176
 4316TIP3   OH212911   1.239   5.026   3.078
 4316TIP3    H112912   1.157   4.997   3.039
 4316TIP3    H212913   1.250   4.969   3.155
 4317TIP3   OH212914   3.650   0.406   5.536
 4317TIP3    H112915   3.714   0.453   5.482
 4317TIP3    H212916   3.702   0.341   5.583
 4318TIP3   OH212917   6.572   3.141   4.075
 4318TIP3    H112918   6.618   3.157   4.157
 4318TIP3    H212919   6.525   3.059   4.089
 4319TIP3   OH212920   2.974   6.449   3.678
 4319TIP3    H112921   2.929   6.483   3.756
 4319TIP3    H212922   3.066   6.447   3.703
 4320TIP3   OH212923   3.042   6.100   1.551
 4320TIP3    H112924   3.114   6.107   1.488
 4320TIP3    H212925   3.034   6.007   1.569
 4321TIP3   OH212926   3.264   3.717   2.769
 4321TIP3    H112927   3.342   3.671   2.737
 4321TIP3    H212928   3.270   3.805   2.730
 4322TIP3   OH212929   3.105   4.207   0.916
 4322TIP3    H112930   3.058   4.245   0.841
 4322TIP3    H212931   3.046   4.140   0.950
 4323TIP3   OH212932   1.097   0.555   0.811
 4323TIP3    H112933   1.012   0.511   0.812
 4323TIP3    H212934   1.161   0.484   0.806
 4324TIP3   OH212935   6.347   1.272   0.192
 4324TIP3    H112936   6.282   1.204   0.210
 4324TIP3    H212937   6.407   1.268   0.266
 4325TIP3   OH212938   4.804   3.446   3.192
 4325TIP3    H112939   4.746   3.518   3.169
 4325TIP3    H212940   4.889   3.487   3.207
 4326TIP3   OH212941   0.355   1.612   2.367
 4326TIP3    H112942   0.284   1.624   2.431
 4326TIP3    H212943   0.321   1.545   2.307
 4327TIP3   OH212944   3.300   2.935   2.626
 4327TIP3    H112945   3.244   2.922   2.550
 4327TIP3    H212946   3.318   2.847   2.658
 4328TIP3   OH212947   5.977   3.623   3.618
 4328TIP3    H112948   5.886   3.608   3.643
 4328TIP3    H212949   6.022   3.643   3.700
 4329TIP3   OH212950   3.361   5.693   2.589
 4329TIP3    H112951   3.419   5.762   2.559
 4329TIP3    H212952   3.398   5.613   2.553
 4330TIP3   OH212953   6.618   5.706   3.123
 4330TIP3    H112954   6.533   5.698   3.080
 4330TIP3    H212955   6.607   5.661   3.207
 4331TIP3   OH212956   2.428   6.111   4.283
 4331TIP3    H112957   2.442   6.204   4.300
 4331TIP3    H212958   2.455   6.067   4.364
 4332TIP3   OH212959   5.186   2.348   3.889
 4332TIP3    H112960   5.145   2.432   3.908
 4332TIP3    H212961   5.143   2.317   3.809
 4333TIP3   OH212962   5.035   3.804   5.065
 4333TIP3    H112963   4.990   3.883   5.095
 4333TIP3    H212964   4.965   3.739   5.054
 4334TIP3   OH212965   1.985   5.023   3.815
 4334TIP3    H112966   2.022   5.049   3.730
 4334TIP3    H212967   1.907   4.972   3.793
 4335TIP3   OH212968   4.305   0.146   2.915
 4335TIP3    H112969   4.341   0.060   2.893
 4335TIP3    H212970   4.227   0.154   2.860
 4336TIP3   OH212971   4.085   2.110   5.548
 4336TIP3    H112972   4.062   2.017   5.545
 4336TIP3    H212973   4.109   2.125   5.639
 4337TIP3   OH212974   3.485   2.242   4.854
 4337TIP3    H112975   3.520   2.162   4.816
 4337TIP3    H212976   3.390   2.230   4.853
 4338TIP3   OH212977   3.199   0.611   0.194
 4338TIP3    H112978   3.294   0.599   0.206
 4338TIP3    H212979   3.166   0.629   0.282
 4339TIP3   OH212980   4.293   4.196   3.999
 4339TIP3    H112981   4.266   4.219   3.910
 4339TIP3    H212982   4.218   4.220   4.054
 4340TIP3   OH212983   7.185   4.074   5.548
 4340TIP3    H112984   7.249   4.062   5.617
 4340TIP3    H212985   7.224   4.033   5.471
 4341TIP3   OH212986   2.793   1.292   2.744
 4341TIP3    H112987   2.779   1.332   2.659
 4341TIP3    H212988   2.794   1.366   2.806
 4342TIP3   OH212989   6.939   4.479   1.589
 4342TIP3    H112990   6.967   4.500   1.678
 4342TIP3    H212991   6.844   4.470   1.594
 4343TIP3   OH212992   1.063   0.914   0.280
 4343TIP3    H112993   1.097   0.845   0.222
 4343TIP3    H212994   0.987   0.875   0.322
 4344TIP3   OH212995   1.376   6.517   0.569
 4344TIP3    H112996   1.351   6.460   0.643
 4344TIP3    H212997   1.469   6.536   0.584
 4345TIP3   OH212998  -0.014   2.909   3.560
 4345TIP3    H112999  -0.066   2.934   3.636
 4345TIP3    H213000  -0.009   2.988   3.507
 4346TIP3   OH213001   3.549   1.825   3.652
 4346TIP3    H113002   3.512   1.906   3.616
 4346TIP3    H213003   3.631   1.853   3.694
 4347TIP3   OH213004   5.905   2.978   1.764
 4347TIP3    H113005   5.994   2.953   1.790
 4347TIP3    H213006   5.890   2.931   1.682
 4348TIP3   OH213007   2.005   2.719   2.530
 4348TIP3    H113008   1.997   2.627   2.554
 4348TIP3    H213009   2.094   2.727   2.496
 4349TIP3   OH213010   6.618   1.274   1.567
 4349TIP3    H113011   6.582   1.249   1.482
 4349TIP3    H213012   6.552   1.245   1.630
 4350TIP3   OH213013   0.761   6.787   1.737
 4350TIP3    H113014   0.688   6.822   1.788
 4350TIP3    H213015   0.835   6.789   1.798
 4351TIP3   OH213016   3.105   2.016   3.148
 4351TIP3    H113017   3.015   2.047   3.149
 4351TIP3    H213018   3.153   2.080   3.096
 4352TIP3   OH213019   3.272   4.239   0.183
 4352TIP3    H113020   3.275   4.238   0.088
 4352TIP3    H213021   3.255   4.147   0.207
 4353TIP3   OH213022   3.832   6.261   4.088
 4353TIP3    H113023   3.774   6.304   4.151
 4353TIP3    H213024   3.900   6.220   4.142
 4354TIP3   OH213025   3.664   5.427   1.331
 4354TIP3    H113026   3.636   5.358   1.272
 4354TIP3    H213027   3.670   5.385   1.417
 4355TIP3   OH213028   1.603   6.082   5.031
 4355TIP3    H113029   1.648   5.998   5.038
 4355TIP3    H213030   1.561   6.079   4.945
 4356TIP3   OH213031   6.555   3.799   3.040
 4356TIP3    H113032   6.480   3.748   3.008
 4356TIP3    H213033   6.629   3.738   3.033
 4357TIP3   OH213034   5.515   5.416   0.711
 4357TIP3    H113035   5.534   5.324   0.694
 4357TIP3    H213036   5.487   5.418   0.803
 4358TIP3   OH213037   0.201   3.483   4.184
 4358TIP3    H113038   0.159   3.567   4.167
 4358TIP3    H213039   0.280   3.484   4.131
 4359TIP3   OH213040   1.072   4.096   4.889
 4359TIP3    H113041   1.092   4.020   4.835
 4359TIP3    H213042   0.992   4.133   4.852
 4360TIP3   OH213043   1.106   5.318   1.229
 4360TIP3    H113044   1.187   5.290   1.271
 4360TIP3    H213045   1.120   5.411   1.208
 4361TIP3   OH213046   2.754   1.841   1.312
 4361TIP3    H113047   2.814   1.869   1.244
 4361TIP3    H213048   2.803   1.852   1.394
 4362TIP3   OH213049   4.016   6.276   2.464
 4362TIP3    H113050   4.051   6.365   2.470
 4362TIP3    H213051   4.093   6.220   2.462
 4363TIP3   OH213052   0.609   6.724   0.676
 4363TIP3    H113053   0.636   6.667   0.604
 4363TIP3    H213054   0.545   6.672   0.725
 4364TIP3   OH213055   0.377   6.767   1.309
 4364TIP3    H113056   0.443   6.757   1.378
 4364TIP3    H213057   0.418   6.730   1.231
 4365TIP3   OH213058   0.389   5.510   3.911
 4365TIP3    H113059   0.405   5.493   4.004
 4365TIP3    H213060   0.441   5.588   3.892
 4366TIP3   OH213061   4.022   4.942   0.149
 4366TIP3    H113062   3.964   4.924   0.075
 4366TIP3    H213063   3.967   4.930   0.227
 4367TIP3   OH213064   0.613   3.308   2.669
 4367TIP3    H113065   0.603   3.226   2.717
 4367TIP3    H213066   0.705   3.310   2.643
 4368TIP3   OH213067   0.119   6.459   0.413
 4368TIP3    H113068   0.147   6.545   0.444
 4368TIP3    H213069   0.025   6.457   0.429
 4369TIP3   OH213070   2.023   5.437   1.256
 4369TIP3    H113071   1.965   5.448   1.181
 4369TIP3    H213072   2.052   5.526   1.277
 4370TIP3   OH213073   4.073   5.912   4.605
 4370TIP3    H113074   4.152   5.897   4.552
 4370TIP3    H213075   4.073   5.840   4.668
 4371TIP3   OH213076   1.628   1.340   2.156
 4371TIP3    H113077   1.537   1.324   2.180
 4371TIP3    H213078   1.667   1.253   2.152
 4372TIP3   OH213079   5.518   1.531   3.023
 4372TIP3    H113080   5.505   1.624   3.003
 4372TIP3    H213081   5.544   1.492   2.940
 4373TIP3   OH213082   0.269   1.253   4.056
 4373TIP3    H113083   0.236   1.164   4.065
 4373TIP3    H213084   0.364   1.245   4.058
 4374TIP3   OH213085   5.754   1.164   2.153
 4374TIP3    H113086   5.783   1.136   2.066
 4374TIP3    H213087   5.795   1.249   2.165
 4375TIP3   OH213088   1.040   4.647   4.968
 4375TIP3    H113089   1.114   4.654   4.907
 4375TIP3    H213090   0.974   4.708   4.933
 4376TIP3   OH213091   5.745   0.346   2.000
 4376TIP3    H113092   5.690   0.329   2.077
 4376TIP3    H213093   5.802   0.417   2.028
 4377TIP3   OH213094   1.591   5.125   4.889
 4377TIP3    H113095   1.534   5.073   4.945
 4377TIP3    H213096   1.597   5.075   4.807
 4378TIP3   OH213097   4.071   2.800   3.553
 4378TIP3    H113098   4.156   2.817   3.512
 4378TIP3    H213099   4.023   2.750   3.488
 4379TIP3   OH213100  -0.046   6.566   2.695
 4379TIP3    H113101  -0.133   6.571   2.656
 4379TIP3    H213102  -0.057   6.511   2.772
 4380TIP3   OH213103   6.570   2.456   2.041
 4380TIP3    H113104   6.564   2.552   2.041
 4380TIP3    H213105   6.661   2.438   2.016
 4381TIP3   OH213106   4.542   2.778   5.004
 4381TIP3    H113107   4.594   2.759   4.926
 4381TIP3    H213108   4.453   2.787   4.972
 4382TIP3   OH213109   1.353   6.089   5.225
 4382TIP3    H113110   1.442   6.056   5.232
 4382TIP3    H213111   1.338   6.135   5.308
 4383TIP3   OH213112   4.561   4.105   2.169
 4383TIP3    H113113   4.538   4.078   2.258
 4383TIP3    H213114   4.606   4.029   2.132
 4384TIP3   OH213115   4.999   2.026   3.047
 4384TIP3    H113116   4.912   2.020   3.087
 4384TIP3    H213117   4.989   1.982   2.963
 4385TIP3   OH213118   2.311   2.879   5.004
 4385TIP3    H113119   2.380   2.932   4.963
 4385TIP3    H213120   2.358   2.804   5.040
 4386TIP3   OH213121   3.959   2.199   5.799
 4386TIP3    H113122   3.970   2.145   5.877
 4386TIP3    H213123   4.025   2.269   5.810
 4387TIP3   OH213124   0.381   3.676   2.391
 4387TIP3    H113125   0.330   3.747   2.431
 4387TIP3    H213126   0.437   3.645   2.462
 4388TIP3   OH213127   5.037   4.939   3.986
 4388TIP3    H113128   4.944   4.916   3.986
 4388TIP3    H213129   5.073   4.891   3.911
 4389TIP3   OH213130   0.323   2.936   1.361
 4389TIP3    H113131   0.298   2.869   1.297
 4389TIP3    H213132   0.267   2.917   1.437
 4390TIP3   OH213133   4.911   4.089   0.496
 4390TIP3    H113134   4.999   4.123   0.509
 4390TIP3    H213135   4.922   3.994   0.488
 4391TIP3   OH213136   5.017   5.985   4.546
 4391TIP3    H113137   5.063   6.056   4.502
 4391TIP3    H213138   5.043   5.906   4.499
 4392TIP3   OH213139   6.460   6.326   0.203
 4392TIP3    H113140   6.436   6.263   0.135
 4392TIP3    H213141   6.525   6.383   0.163
 4393TIP3   OH213142   5.549   5.503   1.814
 4393TIP3    H113143   5.563   5.554   1.894
 4393TIP3    H213144   5.590   5.418   1.831
 4394TIP3   OH213145   5.211   4.411   5.246
 4394TIP3    H113146   5.120   4.433   5.264
 4394TIP3    H213147   5.224   4.324   5.285
 4395TIP3   OH213148   6.614   5.013   3.351
 4395TIP3    H113149   6.643   5.062   3.274
 4395TIP3    H213150   6.528   4.980   3.327
 4396TIP3   OH213151   0.990   4.648   1.660
 4396TIP3    H113152   0.993   4.558   1.627
 4396TIP3    H213153   1.058   4.652   1.726
 4397TIP3   OH213154   3.026   5.316   1.099
 4397TIP3    H113155   3.033   5.403   1.060
 4397TIP3    H213156   2.939   5.314   1.139
 4398TIP3   OH213157   0.398   4.214   5.529
 4398TIP3    H113158   0.310   4.222   5.492
 4398TIP3    H213159   0.414   4.120   5.533
 4399TIP3   OH213160   7.094   1.906   2.601
 4399TIP3    H113161   7.036   1.977   2.575
 4399TIP3    H213162   7.167   1.911   2.540
 4400TIP3   OH213163   3.310   2.526   3.608
 4400TIP3    H113164   3.364   2.458   3.569
 4400TIP3    H213165   3.305   2.503   3.700
 4401TIP3   OH213166   5.987   5.915   2.763
 4401TIP3    H113167   6.007   6.008   2.756
 4401TIP3    H213168   6.070   5.871   2.744
 4402TIP3   OH213169   2.165   5.000   2.947
 4402TIP3    H113170   2.204   5.085   2.928
 4402TIP3    H213171   2.237   4.937   2.933
 4403TIP3   OH213172   1.890   4.674   4.826
 4403TIP3    H113173   1.823   4.737   4.800
 4403TIP3    H213174   1.971   4.708   4.787
 4404TIP3   OH213175   4.797   0.807   4.736
 4404TIP3    H113176   4.812   0.792   4.829
 4404TIP3    H213177   4.735   0.738   4.710
 4405TIP3   OH213178   2.501   3.401   0.148
 4405TIP3    H113179   2.468   3.351   0.073
 4405TIP3    H213180   2.596   3.386   0.147
 4406TIP3   OH213181   6.248   6.658   1.272
 4406TIP3    H113182   6.314   6.722   1.243
 4406TIP3    H213183   6.246   6.592   1.203
 4407TIP3   OH213184   7.182   1.370   2.025
 4407TIP3    H113185   7.262   1.405   1.987
 4407TIP3    H213186   7.182   1.277   1.999
 4408TIP3   OH213187   4.855   5.100   5.566
 4408TIP3    H113188   4.799   5.116   5.490
 4408TIP3    H213189   4.826   5.015   5.600
 4409TIP3   OH213190   6.034   4.337   4.054
 4409TIP3    H113191   6.121   4.377   4.049
 4409TIP3    H213192   5.978   4.396   4.003
 4410TIP3   OH213193   1.418   1.674   3.674
 4410TIP3    H113194   1.414   1.686   3.579
 4410TIP3    H213195   1.482   1.604   3.687
 4411TIP3   OH213196   3.635   1.782   1.936
 4411TIP3    H113197   3.681   1.768   2.019
 4411TIP3    H213198   3.655   1.703   1.885
 4412TIP3   OH213199   1.371   4.502   5.782
 4412TIP3    H113200   1.367   4.467   5.692
 4412TIP3    H213201   1.457   4.542   5.788
 4413TIP3   OH213202   4.268   5.907   3.852
 4413TIP3    H113203   4.181   5.946   3.852
 4413TIP3    H213204   4.252   5.813   3.844
 4414TIP3   OH213205   6.763   5.069   1.491
 4414TIP3    H113206   6.856   5.058   1.472
 4414TIP3    H213207   6.734   4.982   1.518
 4415TIP3   OH213208   3.946   3.832   5.155
 4415TIP3    H113209   3.907   3.888   5.088
 4415TIP3    H213210   4.002   3.891   5.206
 4416TIP3   OH213211   3.579   6.405   1.442
 4416TIP3    H113212   3.501   6.360   1.410
 4416TIP3    H213213   3.601   6.468   1.374
 4417TIP3   OH213214   6.721   3.584   3.041
 4417TIP3    H113215   6.747   3.522   3.109
 4417TIP3    H213216   6.802   3.610   2.998
 4418TIP3   OH213217   1.374   5.661   3.501
 4418TIP3    H113218   1.310   5.699   3.561
 4418TIP3    H213219   1.322   5.622   3.431
 4419TIP3   OH213220   0.808   6.168   3.457
 4419TIP3    H113221   0.860   6.241   3.423
 4419TIP3    H213222   0.744   6.150   3.389
 4420TIP3   OH213223   3.117   5.411   2.097
 4420TIP3    H113224   3.040   5.456   2.132
 4420TIP3    H213225   3.149   5.469   2.027
 4421TIP3   OH213226   0.571   2.797   3.722
 4421TIP3    H113227   0.637   2.788   3.791
 4421TIP3    H213228   0.591   2.726   3.661
 4422TIP3   OH213229   3.230   2.602   1.961
 4422TIP3    H113230   3.232   2.670   1.893
 4422TIP3    H213231   3.250   2.521   1.914
 4423TIP3   OH213232   6.099   4.549   4.279
 4423TIP3    H113233   6.182   4.531   4.234
 4423TIP3    H213234   6.057   4.616   4.225
 4424TIP3   OH213235   4.696   0.743   0.738
 4424TIP3    H113236   4.672   0.805   0.670
 4424TIP3    H213237   4.692   0.794   0.819
 4425TIP3   OH213238   3.402   1.686   2.858
 4425TIP3    H113239   3.395   1.701   2.952
 4425TIP3    H213240   3.316   1.653   2.832
 4426TIP3   OH213241   0.062   3.278   2.572
 4426TIP3    H113242   0.152   3.311   2.572
 4426TIP3    H213243   0.062   3.208   2.506
 4427TIP3   OH213244   2.985   3.882   1.924
 4427TIP3    H113245   2.985   3.802   1.977
 4427TIP3    H213246   3.070   3.923   1.942
 4428TIP3   OH213247   3.815   6.258   1.551
 4428TIP3    H113248   3.872   6.231   1.479
 4428TIP3    H213249   3.750   6.315   1.510
 4429TIP3   OH213250   2.919   1.799   4.204
 4429TIP3    H113251   2.865   1.722   4.186
 4429TIP3    H213252   2.911   1.853   4.124
 4430TIP3   OH213253   0.389   1.253   3.359
 4430TIP3    H113254   0.396   1.228   3.452
 4430TIP3    H213255   0.403   1.171   3.312
 4431TIP3   OH213256   3.866   6.523   5.100
 4431TIP3    H113257   3.850   6.438   5.140
 4431TIP3    H213258   3.780   6.566   5.099
 4432TIP3   OH213259   1.959   2.347   3.021
 4432TIP3    H113260   2.009   2.267   3.036
 4432TIP3    H213261   2.026   2.413   3.002
 4433TIP3   OH213262   2.273   4.884   5.568
 4433TIP3    H113263   2.323   4.897   5.488
 4433TIP3    H213264   2.209   4.956   5.568
 4434TIP3   OH213265   7.069   2.335   4.836
 4434TIP3    H113266   7.137   2.401   4.852
 4434TIP3    H213267   7.086   2.306   4.747
 4435TIP3   OH213268   0.564   5.865   2.941
 4435TIP3    H113269   0.522   5.951   2.950
 4435TIP3    H213270   0.619   5.874   2.863
 4436TIP3   OH213271   4.690   0.437   1.999
 4436TIP3    H113272   4.680   0.351   2.040
 4436TIP3    H213273   4.781   0.462   2.017
 4437TIP3   OH213274   5.630   5.444   0.375
 4437TIP3    H113275   5.570   5.456   0.301
 4437TIP3    H213276   5.717   5.449   0.335
 4438TIP3   OH213277   4.384   6.572   2.312
 4438TIP3    H113278   4.369   6.595   2.220
 4438TIP3    H213279   4.314   6.618   2.359
 4439TIP3   OH213280   0.163   3.089   0.873
 4439TIP3    H113281   0.175   3.180   0.844
 4439TIP3    H213282   0.230   3.040   0.826
 4440TIP3   OH213283   5.249   3.858   5.876
 4440TIP3    H113284   5.164   3.883   5.838
 4440TIP3    H213285   5.261   3.767   5.848
 4441TIP3   OH213286   5.457   5.238   1.453
 4441TIP3    H113287   5.474   5.332   1.465
 4441TIP3    H213288   5.414   5.211   1.534
 4442TIP3   OH213289   7.053   0.310   3.892
 4442TIP3    H113290   7.000   0.300   3.813
 4442TIP3    H213291   7.002   0.370   3.947
 4443TIP3   OH213292   0.560   0.758   0.755
 4443TIP3    H113293   0.488   0.759   0.818
 4443TIP3    H213294   0.593   0.848   0.754
 4444TIP3   OH213295   5.655   4.210   3.315
 4444TIP3    H113296   5.745   4.237   3.335
 4444TIP3    H213297   5.654   4.115   3.328
 4445TIP3   OH213298   4.602   0.190   2.098
 4445TIP3    H113299   4.534   0.122   2.105
 4445TIP3    H213300   4.629   0.206   2.188
 4446TIP3   OH213301   4.855   5.629   1.790
 4446TIP3    H113302   4.848   5.623   1.695
 4446TIP3    H213303   4.937   5.676   1.805
 4447TIP3   OH213304   0.096   2.517   2.682
 4447TIP3    H113305   0.185   2.541   2.658
 4447TIP3    H213306   0.070   2.451   2.617
 4448TIP3   OH213307   1.743   3.442   3.232
 4448TIP3    H113308   1.810   3.450   3.164
 4448TIP3    H213309   1.769   3.505   3.299
 4449TIP3   OH213310   5.987   1.934   3.194
 4449TIP3    H113311   6.060   1.883   3.228
 4449TIP3    H213312   6.028   2.008   3.151
 4450TIP3   OH213313   1.335   6.520   2.381
 4450TIP3    H113314   1.263   6.509   2.319
 4450TIP3    H213315   1.306   6.589   2.440
 4451TIP3   OH213316   5.161   1.398   2.895
 4451TIP3    H113317   5.187   1.308   2.877
 4451TIP3    H213318   5.177   1.444   2.813
 4452TIP3   OH213319   0.188   1.945   1.126
 4452TIP3    H113320   0.128   2.018   1.111
 4452TIP3    H213321   0.249   1.976   1.192
 4453TIP3   OH213322   3.915   3.339   0.392
 4453TIP3    H113323   3.846   3.305   0.449
 4453TIP3    H213324   3.880   3.332   0.303
 4454TIP3   OH213325   5.391   1.203   3.506
 4454TIP3    H113326   5.439   1.128   3.541
 4454TIP3    H213327   5.437   1.279   3.540
 4455TIP3   OH213328   0.225   5.886   3.071
 4455TIP3    H113329   0.276   5.819   3.118
 4455TIP3    H213330   0.291   5.942   3.031
 4456TIP3   OH213331   2.817   1.336   1.084
 4456TIP3    H113332   2.885   1.287   1.130
 4456TIP3    H213333   2.861   1.374   1.008
 4457TIP3   OH213334   5.306   6.057   2.174
 4457TIP3    H113335   5.252   6.099   2.240
 4457TIP3    H213336   5.385   6.029   2.221
 4458TIP3   OH213337   7.084   2.421   2.055
 4458TIP3    H113338   7.123   2.337   2.079
 4458TIP3    H213339   7.089   2.473   2.136
 4459TIP3   OH213340   6.001   0.234   0.388
 4459TIP3    H113341   5.966   0.204   0.472
 4459TIP3    H213342   6.083   0.186   0.377
 4460TIP3   OH213343   4.756   1.962   0.152
 4460TIP3    H113344   4.675   1.978   0.103
 4460TIP3    H213345   4.785   1.876   0.121
 4461TIP3   OH213346   1.723   1.880   0.366
 4461TIP3    H113347   1.692   1.848   0.451
 4461TIP3    H213348   1.642   1.898   0.317
 4462TIP3   OH213349   1.385   1.424   2.381
 4462TIP3    H113350   1.465   1.404   2.430
 4462TIP3    H213351   1.380   1.355   2.314
 4463TIP3   OH213352   4.551   1.620   5.214
 4463TIP3    H113353   4.562   1.542   5.270
 4463TIP3    H213354   4.639   1.644   5.188
 4464TIP3   OH213355   4.880   1.688   3.164
 4464TIP3    H113356   4.906   1.678   3.072
 4464TIP3    H213357   4.902   1.605   3.205
 4465TIP3   OH213358   1.514   5.839   3.285
 4465TIP3    H113359   1.495   5.800   3.200
 4465TIP3    H213360   1.552   5.924   3.265
 4466TIP3   OH213361   1.106   5.952   4.550
 4466TIP3    H113362   1.028   5.942   4.604
 4466TIP3    H213363   1.121   6.046   4.547
 4467TIP3   OH213364   1.271   0.507   2.741
 4467TIP3    H113365   1.253   0.527   2.649
 4467TIP3    H213366   1.229   0.579   2.789
 4468TIP3   OH213367   2.257   4.502   3.082
 4468TIP3    H113368   2.310   4.489   3.003
 4468TIP3    H213369   2.319   4.490   3.155
 4469TIP3   OH213370   3.844   1.056   5.076
 4469TIP3    H113371   3.894   1.010   5.009
 4469TIP3    H213372   3.848   1.148   5.050
 4470TIP3   OH213373   4.456   6.446   0.104
 4470TIP3    H113374   4.458   6.397   0.022
 4470TIP3    H213375   4.458   6.538   0.077
 4471TIP3   OH213376   0.597   1.949   2.335
 4471TIP3    H113377   0.653   1.961   2.258
 4471TIP3    H213378   0.658   1.937   2.408
 4472TIP3   OH213379   6.991   2.035   0.620
 4472TIP3    H113380   7.051   1.960   0.618
 4472TIP3    H213381   7.026   2.092   0.689
 4473TIP3   OH213382   4.514   0.816   0.518
 4473TIP3    H113383   4.534   0.798   0.426
 4473TIP3    H213384   4.446   0.752   0.541
 4474TIP3   OH213385   3.676   4.644   0.553
 4474TIP3    H113386   3.770   4.635   0.537
 4474TIP3    H213387   3.654   4.571   0.610
 4475TIP3   OH213388   0.613   5.184   3.186
 4475TIP3    H113389   0.660   5.102   3.171
 4475TIP3    H213390   0.546   5.162   3.251
 4476TIP3   OH213391   3.679   6.474   0.735
 4476TIP3    H113392   3.592   6.436   0.746
 4476TIP3    H213393   3.674   6.520   0.651
 4477TIP3   OH213394   3.259   5.724   4.973
 4477TIP3    H113395   3.335   5.685   5.016
 4477TIP3    H213396   3.272   5.819   4.982
 4478TIP3   OH213397   5.564   5.103   3.803
 4478TIP3    H113398   5.552   5.051   3.724
 4478TIP3    H213399   5.634   5.060   3.851
 4479TIP3   OH213400   4.921   4.750   4.760
 4479TIP3    H113401   4.996   4.788   4.805
 4479TIP3    H213402   4.879   4.695   4.826
 4480TIP3   OH213403   4.258   2.053   5.169
 4480TIP3    H113404   4.303   2.057   5.253
 4480TIP3    H213405   4.301   2.120   5.116
 4481TIP3   OH213406   1.514   6.194   0.959
 4481TIP3    H113407   1.584   6.235   1.008
 4481TIP3    H213408   1.437   6.203   1.015
 4482TIP3   OH213409   5.958   1.929   0.442
 4482TIP3    H113410   5.865   1.948   0.429
 4482TIP3    H213411   5.970   1.842   0.404
 4483TIP3   OH213412   6.556   2.837   3.814
 4483TIP3    H113413   6.607   2.808   3.890
 4483TIP3    H213414   6.477   2.783   3.817
 4484TIP3   OH213415   6.360   3.555   1.435
 4484TIP3    H113416   6.286   3.501   1.407
 4484TIP3    H213417   6.348   3.567   1.529
 4485TIP3   OH213418   3.172   2.518   5.173
 4485TIP3    H113419   3.101   2.505   5.235
 4485TIP3    H213420   3.130   2.553   5.095
 4486TIP3   OH213421   2.376   1.634   2.173
 4486TIP3    H113422   2.443   1.611   2.109
 4486TIP3    H213423   2.411   1.601   2.256
 4487TIP3   OH213424   2.448   0.159   2.739
 4487TIP3    H113425   2.456   0.235   2.682
 4487TIP3    H213426   2.367   0.117   2.712
 4488TIP3   OH213427   3.547   5.894   0.150
 4488TIP3    H113428   3.468   5.851   0.181
 4488TIP3    H213429   3.525   5.987   0.148
 4489TIP3   OH213430   3.100   3.419   0.345
 4489TIP3    H113431   3.037   3.449   0.410
 4489TIP3    H213432   3.115   3.495   0.289
 4490TIP3   OH213433   6.876   1.198   2.103
 4490TIP3    H113434   6.843   1.275   2.056
 4490TIP3    H213435   6.856   1.124   2.046
 4491TIP3   OH213436   2.645   4.352   3.901
 4491TIP3    H113437   2.687   4.354   3.987
 4491TIP3    H213438   2.656   4.440   3.867
 4492TIP3   OH213439   4.691   0.339   3.568
 4492TIP3    H113440   4.601   0.311   3.585
 4492TIP3    H213441   4.734   0.261   3.532
 4493TIP3   OH213442   3.524   2.838   3.244
 4493TIP3    H113443   3.583   2.835   3.320
 4493TIP3    H213444   3.582   2.859   3.170
 4494TIP3   OH213445   1.573   0.555   0.000
 4494TIP3    H113446   1.494   0.526   0.046
 4494TIP3    H213447   1.556   0.535  -0.092
 4495TIP3   OH213448   0.459   0.716   4.187
 4495TIP3    H113449   0.507   0.798   4.175
 4495TIP3    H213450   0.375   0.731   4.144
 4496TIP3   OH213451   5.159   0.680   2.544
 4496TIP3    H113452   5.080   0.671   2.490
 4496TIP3    H213453   5.172   0.593   2.583
 4497TIP3   OH213454   2.211   0.349   0.749
 4497TIP3    H113455   2.131   0.338   0.801
 4497TIP3    H213456   2.191   0.306   0.666
 4498TIP3   OH213457   3.263   4.829   5.081
 4498TIP3    H113458   3.330   4.882   5.123
 4498TIP3    H213459   3.273   4.846   4.987
 4499TIP3   OH213460   3.909   2.070   0.682
 4499TIP3    H113461   3.844   2.059   0.613
 4499TIP3    H213462   3.981   2.012   0.658
 4500TIP3   OH213463   0.832   5.279   4.541
 4500TIP3    H113464   0.910   5.237   4.505
 4500TIP3    H213465   0.781   5.304   4.464
 4501TIP3   OH213466   5.001   4.224   4.483
 4501TIP3    H113467   4.913   4.186   4.482
 4501TIP3    H213468   5.056   4.158   4.440
 4502TIP3   OH213469   2.664   4.234   2.518
 4502TIP3    H113470   2.612   4.246   2.439
 4502TIP3    H213471   2.620   4.164   2.566
 4503TIP3   OH213472   0.098   2.149   0.279
 4503TIP3    H113473   0.152   2.106   0.344
 4503TIP3    H213474   0.158   2.207   0.232
 4504TIP3   OH213475   0.370   5.356   1.901
 4504TIP3    H113476   0.325   5.280   1.865
 4504TIP3    H213477   0.311   5.389   1.969
 4505TIP3   OH213478   2.940   2.523   4.826
 4505TIP3    H113479   2.916   2.435   4.799
 4505TIP3    H213480   2.889   2.581   4.770
 4506TIP3   OH213481   5.320   3.167   1.022
 4506TIP3    H113482   5.330   3.073   1.005
 4506TIP3    H213483   5.294   3.172   1.114
 4507TIP3   OH213484   3.396   6.740   3.420
 4507TIP3    H113485   3.451   6.792   3.479
 4507TIP3    H213486   3.428   6.761   3.333
 4508TIP3   OH213487   6.338   2.601   2.488
 4508TIP3    H113488   6.350   2.585   2.394
 4508TIP3    H213489   6.245   2.622   2.497
 4509TIP3   OH213490   0.740   3.679   5.750
 4509TIP3    H113491   0.658   3.713   5.714
 4509TIP3    H213492   0.759   3.736   5.825
 4510TIP3   OH213493   1.046   1.188   1.939
 4510TIP3    H113494   1.000   1.259   1.896
 4510TIP3    H213495   1.006   1.182   2.026
 4511TIP3   OH213496   5.035   3.272   2.373
 4511TIP3    H113497   4.962   3.329   2.398
 4511TIP3    H213498   5.013   3.187   2.412
 4512TIP3   OH213499   2.113   3.031   2.359
 4512TIP3    H113500   2.038   3.073   2.318
 4512TIP3    H213501   2.105   2.939   2.337
 4513TIP3   OH213502   6.709  -0.023   1.289
 4513TIP3    H113503   6.755   0.014   1.215
 4513TIP3    H213504   6.778  -0.046   1.352
 4514TIP3   OH213505   7.027   5.382   1.480
 4514TIP3    H113506   7.106   5.420   1.442
 4514TIP3    H213507   7.039   5.288   1.471
 4515TIP3   OH213508   2.894   6.004   4.057
 4515TIP3    H113509   2.910   5.924   4.107
 4515TIP3    H213510   2.862   5.973   3.972
 4516TIP3   OH213511   2.521   2.340   0.859
 4516TIP3    H113512   2.466   2.290   0.920
 4516TIP3    H213513   2.459   2.397   0.813
 4517TIP3   OH213514   3.358   6.229   3.551
 4517TIP3    H113515   3.341   6.152   3.497
 4517TIP3    H213516   3.444   6.213   3.590
 4518TIP3   OH213517   2.142   1.788   3.754
 4518TIP3    H113518   2.069   1.810   3.696
 4518TIP3    H213519   2.101   1.762   3.836
 4519TIP3   OH213520   1.204   1.905   0.174
 4519TIP3    H113521   1.144   1.870   0.109
 4519TIP3    H213522   1.149   1.954   0.235
 4520TIP3   OH213523   3.861   5.631   0.878
 4520TIP3    H113524   3.869   5.617   0.972
 4520TIP3    H213525   3.767   5.622   0.860
 4521TIP3   OH213526   1.525   3.293   1.722
 4521TIP3    H113527   1.592   3.345   1.765
 4521TIP3    H213528   1.472   3.357   1.674
 4522TIP3   OH213529   5.877   0.601   5.352
 4522TIP3    H113530   5.927   0.682   5.348
 4522TIP3    H213531   5.786   0.629   5.361
 4523TIP3   OH213532   1.079   2.586   3.612
 4523TIP3    H113533   1.037   2.670   3.594
 4523TIP3    H213534   1.161   2.590   3.564
 4524TIP3   OH213535   5.660   3.293   5.185
 4524TIP3    H113536   5.632   3.325   5.270
 4524TIP3    H213537   5.692   3.370   5.138
 4525TIP3   OH213538   3.204   5.229   3.348
 4525TIP3    H113539   3.156   5.261   3.424
 4525TIP3    H213540   3.152   5.258   3.273
 4526TIP3   OH213541   1.731   3.199   0.394
 4526TIP3    H113542   1.709   3.283   0.436
 4526TIP3    H213543   1.724   3.217   0.301
 4527TIP3   OH213544   3.008   5.558   5.004
 4527TIP3    H113545   3.022   5.508   4.924
 4527TIP3    H213546   3.070   5.632   4.998
 4528TIP3   OH213547   6.198   1.048   1.813
 4528TIP3    H113548   6.161   0.992   1.745
 4528TIP3    H213549   6.228   0.988   1.880
 4529TIP3   OH213550   2.760   4.847   3.526
 4529TIP3    H113551   2.714   4.909   3.582
 4529TIP3    H213552   2.847   4.885   3.515
 4530TIP3   OH213553   6.558   5.709   4.673
 4530TIP3    H113554   6.475   5.662   4.675
 4530TIP3    H213555   6.575   5.732   4.764
 4531TIP3   OH213556   3.277   4.768   0.206
 4531TIP3    H113557   3.225   4.750   0.284
 4531TIP3    H213558   3.292   4.683   0.166
 4532TIP3   OH213559   2.432   2.346   1.398
 4532TIP3    H113560   2.423   2.339   1.493
 4532TIP3    H213561   2.397   2.263   1.365
 4533TIP3   OH213562   0.343   6.339   1.838
 4533TIP3    H113563   0.367   6.431   1.828
 4533TIP3    H213564   0.401   6.306   1.906
 4534TIP3   OH213565   2.089   2.969   4.284
 4534TIP3    H113566   2.184   2.961   4.293
 4534TIP3    H213567   2.072   2.955   4.191
 4535TIP3   OH213568   5.795   3.565   4.003
 4535TIP3    H113569   5.778   3.552   3.910
 4535TIP3    H213570   5.708   3.565   4.043
 4536TIP3   OH213571   1.678   0.727   1.893
 4536TIP3    H113572   1.605   0.735   1.832
 4536TIP3    H213573   1.732   0.657   1.856
 4537TIP3   OH213574   6.042   1.430   5.764
 4537TIP3    H113575   5.978   1.480   5.815
 4537TIP3    H213576   5.989   1.379   5.703
 4538TIP3   OH213577   6.963   3.709   3.241
 4538TIP3    H113578   7.049   3.689   3.203
 4538TIP3    H213579   6.959   3.805   3.243
 4539TIP3   OH213580   5.360   5.286   3.740
 4539TIP3    H113581   5.349   5.351   3.810
 4539TIP3    H213582   5.439   5.238   3.764
 4540TIP3   OH213583   3.141   0.894   3.550
 4540TIP3    H113584   3.133   0.981   3.589
 4540TIP3    H213585   3.095   0.900   3.467
 4541TIP3   OH213586   5.902   4.256   5.910
 4541TIP3    H113587   5.934   4.219   5.828
 4541TIP3    H213588   5.958   4.332   5.926
 4542TIP3   OH213589   6.252   6.309   1.449
 4542TIP3    H113590   6.332   6.360   1.463
 4542TIP3    H213591   6.220   6.290   1.537
 4543TIP3   OH213592   1.357   1.799   1.457
 4543TIP3    H113593   1.363   1.835   1.546
 4543TIP3    H213594   1.348   1.876   1.401
 4544TIP3   OH213595   2.525   1.559   2.386
 4544TIP3    H113596   2.500   1.529   2.473
 4544TIP3    H213597   2.591   1.496   2.357
 4545TIP3   OH213598   4.580   3.885   4.962
 4545TIP3    H113599   4.487   3.881   4.985
 4545TIP3    H213600   4.588   3.963   4.907
 4546TIP3   OH213601   5.784   5.109   0.959
 4546TIP3    H113602   5.710   5.168   0.974
 4546TIP3    H213603   5.835   5.151   0.890
 4547TIP3   OH213604   3.815   1.474   0.733
 4547TIP3    H113605   3.789   1.565   0.718
 4547TIP3    H213606   3.863   1.449   0.654
 4548TIP3   OH213607   2.295   1.047   3.611
 4548TIP3    H113608   2.296   1.016   3.520
 4548TIP3    H213609   2.387   1.065   3.631
 4549TIP3   OH213610   6.684   1.780   5.004
 4549TIP3    H113611   6.738   1.789   4.926
 4549TIP3    H213612   6.710   1.853   5.060
 4550TIP3   OH213613   5.329   4.856   1.705
 4550TIP3    H113614   5.240   4.884   1.727
 4550TIP3    H213615   5.317   4.794   1.633
 4551TIP3   OH213616   5.113   6.156   2.363
 4551TIP3    H113617   5.161   6.198   2.435
 4551TIP3    H213618   5.076   6.077   2.403
 4552TIP3   OH213619   0.835   0.515   2.651
 4552TIP3    H113620   0.799   0.583   2.708
 4552TIP3    H213621   0.791   0.528   2.567
 4553TIP3   OH213622   6.678   1.581   2.311
 4553TIP3    H113623   6.761   1.549   2.275
 4553TIP3    H213624   6.638   1.502   2.349
 4554TIP3   OH213625   1.097   2.406   5.064
 4554TIP3    H113626   1.120   2.316   5.039
 4554TIP3    H213627   1.160   2.461   5.017
 4555TIP3   OH213628   6.061   2.241   0.785
 4555TIP3    H113629   5.996   2.204   0.845
 4555TIP3    H213630   6.061   2.335   0.802
 4556TIP3   OH213631   3.342   1.173   5.283
 4556TIP3    H113632   3.409   1.164   5.215
 4556TIP3    H213633   3.389   1.159   5.365
 4557TIP3   OH213634   3.644   0.169   4.493
 4557TIP3    H113635   3.586   0.241   4.517
 4557TIP3    H213636   3.650   0.173   4.397
 4558TIP3   OH213637   0.612   5.426   1.703
 4558TIP3    H113638   0.540   5.433   1.766
 4558TIP3    H213639   0.617   5.332   1.683
 4559TIP3   OH213640   1.391   1.309   2.774
 4559TIP3    H113641   1.462   1.316   2.710
 4559TIP3    H213642   1.409   1.378   2.838
 4560TIP3   OH213643   2.815   1.198   4.087
 4560TIP3    H113644   2.809   1.113   4.042
 4560TIP3    H213645   2.731   1.240   4.069
 4561TIP3   OH213646   6.328   4.425   0.578
 4561TIP3    H113647   6.423   4.426   0.560
 4561TIP3    H213648   6.315   4.347   0.631
 4562TIP3   OH213649   3.621   2.055   2.834
 4562TIP3    H113650   3.575   2.138   2.844
 4562TIP3    H213651   3.599   2.006   2.914
 4563TIP3   OH213652   0.520   5.231   0.991
 4563TIP3    H113653   0.529   5.251   0.898
 4563TIP3    H213654   0.428   5.206   1.002
 4564TIP3   OH213655   0.068   5.226   0.749
 4564TIP3    H113656   0.106   5.295   0.695
 4564TIP3    H213657   0.001   5.270   0.801
 4565TIP3   OH213658   4.728   6.290   4.814
 4565TIP3    H113659   4.645   6.244   4.830
 4565TIP3    H213660   4.791   6.220   4.797
 4566TIP3   OH213661   2.053   3.374   0.105
 4566TIP3    H113662   2.034   3.305   0.042
 4566TIP3    H213663   2.055   3.330   0.190
 4567TIP3   OH213664   3.570   6.698   5.494
 4567TIP3    H113665   3.570   6.767   5.560
 4567TIP3    H213666   3.525   6.625   5.536
 4568TIP3   OH213667   3.758   6.733   0.333
 4568TIP3    H113668   3.815   6.686   0.393
 4568TIP3    H213669   3.797   6.820   0.325
 4569TIP3   OH213670   0.266   2.082   5.537
 4569TIP3    H113671   0.298   2.080   5.447
 4569TIP3    H213672   0.285   2.170   5.568
 4570TIP3   OH213673   4.195   2.442   5.227
 4570TIP3    H113674   4.200   2.437   5.132
 4570TIP3    H213675   4.127   2.379   5.250
 4571TIP3   OH213676   0.475   0.572   2.430
 4571TIP3    H113677   0.468   0.486   2.471
 4571TIP3    H213678   0.391   0.614   2.447
 4572TIP3   OH213679   6.758   3.882   1.174
 4572TIP3    H113680   6.686   3.913   1.229
 4572TIP3    H213681   6.725   3.801   1.135
 4573TIP3   OH213682   0.840   0.985   2.489
 4573TIP3    H113683   0.807   0.999   2.578
 4573TIP3    H213684   0.919   1.039   2.485
 4574TIP3   OH213685   3.156   4.852   4.677
 4574TIP3    H113686   3.207   4.883   4.603
 4574TIP3    H213687   3.074   4.902   4.672
 4575TIP3   OH213688   1.529   2.143   0.162
 4575TIP3    H113689   1.524   2.048   0.167
 4575TIP3    H213690   1.613   2.162   0.121
 4576TIP3   OH213691   0.859   3.256   3.407
 4576TIP3    H113692   0.923   3.325   3.424
 4576TIP3    H213693   0.794   3.266   3.477
 4577TIP3   OH213694   5.060   4.271   5.512
 4577TIP3    H113695   5.020   4.352   5.543
 4577TIP3    H213696   4.997   4.203   5.537
 4578TIP3   OH213697   5.842   6.164   1.985
 4578TIP3    H113698   5.751   6.186   1.963
 4578TIP3    H213699   5.865   6.226   2.054
 4579TIP3   OH213700   3.490   5.903   5.166
 4579TIP3    H113701   3.510   5.813   5.141
 4579TIP3    H213702   3.502   5.905   5.261
 4580TIP3   OH213703   6.263   2.758   2.179
 4580TIP3    H113704   6.198   2.768   2.248
 4580TIP3    H213705   6.324   2.830   2.192
 4581TIP3   OH213706   1.177   1.631   0.910
 4581TIP3    H113707   1.158   1.604   0.820
 4581TIP3    H213708   1.267   1.604   0.925
 4582TIP3   OH213709   5.324   5.505   0.962
 4582TIP3    H113710   5.231   5.527   0.957
 4582TIP3    H213711   5.350   5.529   1.051
 4583TIP3   OH213712   4.869   5.224   0.610
 4583TIP3    H113713   4.911   5.263   0.533
 4583TIP3    H213714   4.776   5.229   0.592
 4584TIP3   OH213715   4.059   4.499   2.158
 4584TIP3    H113716   4.128   4.528   2.218
 4584TIP3    H213717   4.032   4.414   2.192
 4585TIP3   OH213718   0.361   0.798   0.955
 4585TIP3    H113719   0.442   0.828   0.997
 4585TIP3    H213720   0.338   0.717   1.001
 4586TIP3   OH213721   0.842   2.199   3.178
 4586TIP3    H113722   0.845   2.136   3.250
 4586TIP3    H213723   0.766   2.172   3.125
 4587TIP3   OH213724   5.567   3.958   0.755
 4587TIP3    H113725   5.653   3.939   0.790
 4587TIP3    H213726   5.519   3.875   0.763
 4588TIP3   OH213727   4.480   2.891   5.655
 4588TIP3    H113728   4.502   2.984   5.663
 4588TIP3    H213729   4.564   2.847   5.642
 4589TIP3   OH213730   2.335   2.645   2.151
 4589TIP3    H113731   2.326   2.571   2.090
 4589TIP3    H213732   2.405   2.698   2.114
 4590TIP3   OH213733   3.111   1.208   5.698
 4590TIP3    H113734   3.141   1.256   5.621
 4590TIP3    H213735   3.068   1.130   5.662
 4591TIP3   OH213736   3.730   0.897   1.135
 4591TIP3    H113737   3.758   0.960   1.069
 4591TIP3    H213738   3.765   0.813   1.104
 4592TIP3   OH213739   1.638   6.807   3.522
 4592TIP3    H113740   1.604   6.728   3.563
 4592TIP3    H213741   1.733   6.796   3.523
 4593TIP3   OH213742   6.729   3.060   4.304
 4593TIP3    H113743   6.760   3.149   4.325
 4593TIP3    H213744   6.676   3.035   4.380
 4594TIP3   OH213745   3.752   0.614   4.722
 4594TIP3    H113746   3.769   0.693   4.671
 4594TIP3    H213747   3.751   0.544   4.657
 4595TIP3   OH213748   1.377   2.391   4.139
 4595TIP3    H113749   1.349   2.306   4.171
 4595TIP3    H213750   1.298   2.445   4.139
 4596TIP3   OH213751   1.209   0.531   4.078
 4596TIP3    H113752   1.302   0.533   4.099
 4596TIP3    H213753   1.201   0.584   3.999
 4597TIP3   OH213754   3.459   2.944   4.486
 4597TIP3    H113755   3.364   2.940   4.477
 4597TIP3    H213756   3.480   3.037   4.482
 4598TIP3   OH213757   1.705   3.592   5.570
 4598TIP3    H113758   1.717   3.549   5.485
 4598TIP3    H213759   1.669   3.524   5.627
 4599TIP3   OH213760   5.020   2.550   0.819
 4599TIP3    H113761   5.003   2.637   0.784
 4599TIP3    H213762   5.041   2.497   0.742
 4600TIP3   OH213763   3.157   3.536   5.418
 4600TIP3    H113764   3.207   3.615   5.435
 4600TIP3    H213765   3.074   3.567   5.382
 4601TIP3   OH213766   2.351   6.106   5.392
 4601TIP3    H113767   2.414   6.037   5.375
 4601TIP3    H213768   2.367   6.132   5.483
 4602TIP3   OH213769   1.809   1.735   1.138
 4602TIP3    H113770   1.874   1.665   1.146
 4602TIP3    H213771   1.791   1.762   1.228
 4603TIP3   OH213772   0.820   3.389   1.843
 4603TIP3    H113773   0.867   3.355   1.768
 4603TIP3    H213774   0.777   3.469   1.811
 4604TIP3   OH213775   4.068   4.135   4.771
 4604TIP3    H113776   4.043   4.074   4.702
 4604TIP3    H213777   3.997   4.130   4.835
 4605TIP3   OH213778   4.770   6.124   0.862
 4605TIP3    H113779   4.806   6.097   0.778
 4605TIP3    H213780   4.725   6.046   0.896
 4606TIP3   OH213781   6.422   2.158   2.615
 4606TIP3    H113782   6.430   2.066   2.643
 4606TIP3    H213783   6.338   2.162   2.571
 4607TIP3   OH213784   6.190   0.379   2.810
 4607TIP3    H113785   6.209   0.470   2.832
 4607TIP3    H213786   6.276   0.338   2.801
 4608TIP3   OH213787   5.749   3.313   4.141
 4608TIP3    H113788   5.817   3.300   4.207
 4608TIP3    H213789   5.784   3.382   4.084
 4609TIP3   OH213790   6.752   3.086   4.992
 4609TIP3    H113791   6.811   3.013   5.012
 4609TIP3    H213792   6.731   3.075   4.899
 4610TIP3   OH213793   3.400   3.204   4.587
 4610TIP3    H113794   3.322   3.228   4.536
 4610TIP3    H213795   3.365   3.167   4.668
 4611TIP3   OH213796   4.527   2.272   3.646
 4611TIP3    H113797   4.567   2.351   3.610
 4611TIP3    H213798   4.510   2.293   3.738
 4612TIP3   OH213799   0.353   1.893   3.828
 4612TIP3    H113800   0.346   1.988   3.838
 4612TIP3    H213801   0.445   1.874   3.845
 4613TIP3   OH213802   2.808   4.797   1.159
 4613TIP3    H113803   2.784   4.827   1.247
 4613TIP3    H213804   2.748   4.724   1.142
 4614TIP3   OH213805   0.550   0.053   5.278
 4614TIP3    H113806   0.520   0.043   5.369
 4614TIP3    H213807   0.503   0.131   5.247
 4615TIP3   OH213808   5.505   0.474   4.241
 4615TIP3    H113809   5.586   0.525   4.235
 4615TIP3    H213810   5.466   0.502   4.324
 4616TIP3   OH213811   3.983   3.356   3.172
 4616TIP3    H113812   3.971   3.285   3.236
 4616TIP3    H213813   3.896   3.367   3.133
 4617TIP3   OH213814   0.798   5.139   3.924
 4617TIP3    H113815   0.724   5.140   3.985
 4617TIP3    H213816   0.757   5.146   3.837
 4618TIP3   OH213817   5.106   6.219   5.692
 4618TIP3    H113818   5.126   6.160   5.765
 4618TIP3    H213819   5.028   6.181   5.651
 4619TIP3   OH213820   5.894   3.874   2.375
 4619TIP3    H113821   5.880   3.858   2.468
 4619TIP3    H213822   5.937   3.960   2.371
 4620TIP3   OH213823   0.711   2.376   3.929
 4620TIP3    H113824   0.739   2.328   4.007
 4620TIP3    H213825   0.792   2.411   3.892
 4621TIP3   OH213826   6.824   6.032   0.387
 4621TIP3    H113827   6.916   6.016   0.365
 4621TIP3    H213828   6.776   5.976   0.326
 4622TIP3   OH213829   2.420   5.991   3.873
 4622TIP3    H113830   2.459   5.927   3.933
 4622TIP3    H213831   2.410   5.943   3.791
 4623TIP3   OH213832   0.249   4.831   4.134
 4623TIP3    H113833   0.295   4.821   4.218
 4623TIP3    H213834   0.319   4.827   4.069
 4624TIP3   OH213835   0.566   4.931   0.019
 4624TIP3    H113836   0.502   4.894   0.079
 4624TIP3    H213837   0.546   5.024   0.016
 4625TIP3   OH213838   7.087   4.618   0.317
 4625TIP3    H113839   7.182   4.630   0.309
 4625TIP3    H213840   7.076   4.569   0.399
 4626TIP3   OH213841   7.119   6.576   1.480
 4626TIP3    H113842   7.122   6.534   1.394
 4626TIP3    H213843   7.128   6.669   1.461
 4627TIP3   OH213844   0.260   5.434   4.420
 4627TIP3    H113845   0.326   5.401   4.482
 4627TIP3    H213846   0.182   5.448   4.474
 4628TIP3   OH213847   3.049   5.557   0.960
 4628TIP3    H113848   3.056   5.642   1.003
 4628TIP3    H213849   3.094   5.567   0.877
 4629TIP3   OH213850   1.761   0.696   2.690
 4629TIP3    H113851   1.709   0.769   2.721
 4629TIP3    H213852   1.720   0.619   2.729
 4630TIP3   OH213853   0.310   4.869   1.020
 4630TIP3    H113854   0.326   4.797   0.959
 4630TIP3    H213855   0.397   4.892   1.054
 4631TIP3   OH213856   5.775   1.201   1.726
 4631TIP3    H113857   5.746   1.110   1.733
 4631TIP3    H213858   5.723   1.236   1.654
 4632TIP3   OH213859   3.876   2.239   4.441
 4632TIP3    H113860   3.785   2.236   4.469
 4632TIP3    H213861   3.913   2.155   4.470
 4633TIP3   OH213862   1.713   1.504   3.825
 4633TIP3    H113863   1.633   1.470   3.786
 4633TIP3    H213864   1.688   1.531   3.913
 4634TIP3   OH213865   1.949   3.465   1.693
 4634TIP3    H113866   1.994   3.418   1.623
 4634TIP3    H213867   1.897   3.531   1.649
 4635TIP3   OH213868   5.875   2.012   5.299
 4635TIP3    H113869   5.946   1.990   5.240
 4635TIP3    H213870   5.910   2.081   5.355
 4636TIP3   OH213871   5.230   4.853   0.387
 4636TIP3    H113872   5.179   4.837   0.307
 4636TIP3    H213873   5.187   4.801   0.454
 4637TIP3   OH213874   0.666   3.216   3.607
 4637TIP3    H113875   0.700   3.188   3.692
 4637TIP3    H213876   0.588   3.268   3.629
 4638TIP3   OH213877   7.186   2.867   5.201
 4638TIP3    H113878   7.176   2.852   5.295
 4638TIP3    H213879   7.211   2.781   5.165
 4639TIP3   OH213880   3.081   3.910   5.608
 4639TIP3    H113881   3.094   3.855   5.685
 4639TIP3    H213882   2.988   3.934   5.611
 4640TIP3   OH213883   6.836   4.734   1.952
 4640TIP3    H113884   6.820   4.727   1.858
 4640TIP3    H213885   6.824   4.828   1.971
 4641TIP3   OH213886   1.722   2.164   4.062
 4641TIP3    H113887   1.714   2.081   4.015
 4641TIP3    H213888   1.654   2.161   4.128
 4642TIP3   OH213889   4.411   0.891   4.286
 4642TIP3    H113890   4.346   0.865   4.352
 4642TIP3    H213891   4.427   0.812   4.235
 4643TIP3   OH213892   2.173   6.145   3.497
 4643TIP3    H113893   2.258   6.183   3.517
 4643TIP3    H213894   2.134   6.126   3.583
 4644TIP3   OH213895   6.751   1.086   0.338
 4644TIP3    H113896   6.711   1.134   0.266
 4644TIP3    H213897   6.829   1.137   0.361
 4645TIP3   OH213898   2.150   6.341   4.487
 4645TIP3    H113899   2.105   6.410   4.535
 4645TIP3    H213900   2.180   6.384   4.406
 4646TIP3   OH213901   0.951   2.237   1.270
 4646TIP3    H113902   0.867   2.219   1.228
 4646TIP3    H213903   0.929   2.281   1.351
 4647TIP3   OH213904   1.969   0.577   1.138
 4647TIP3    H113905   1.951   0.662   1.178
 4647TIP3    H213906   1.892   0.559   1.085
 4648TIP3   OH213907   1.506   3.798   3.343
 4648TIP3    H113908   1.559   3.871   3.375
 4648TIP3    H213909   1.464   3.762   3.421
 4649TIP3   OH213910   0.102   1.289   3.326
 4649TIP3    H113911   0.193   1.315   3.338
 4649TIP3    H213912   0.051   1.362   3.361
 4650TIP3   OH213913   1.447   0.322   4.341
 4650TIP3    H113914   1.396   0.324   4.422
 4650TIP3    H213915   1.384   0.296   4.273
 4651TIP3   OH213916   4.976   4.176   3.786
 4651TIP3    H113917   4.962   4.226   3.867
 4651TIP3    H213918   5.069   4.153   3.788
 4652TIP3   OH213919   3.331   3.125   1.261
 4652TIP3    H113920   3.267   3.184   1.222
 4652TIP3    H213921   3.296   3.038   1.244
 4653TIP3   OH213922   0.491   5.150   3.565
 4653TIP3    H113923   0.521   5.236   3.595
 4653TIP3    H213924   0.564   5.092   3.584
 4654TIP3   OH213925   4.937   4.519   0.720
 4654TIP3    H113926   4.938   4.447   0.783
 4654TIP3    H213927   4.874   4.582   0.757
 4655TIP3   OH213928   1.500   3.449   3.834
 4655TIP3    H113929   1.513   3.473   3.926
 4655TIP3    H213930   1.586   3.422   3.803
 4656TIP3   OH213931   2.023   3.919   0.880
 4656TIP3    H113932   2.074   3.943   0.802
 4656TIP3    H213933   2.060   3.972   0.950
 4657TIP3   OH213934   1.793   6.275   3.356
 4657TIP3    H113935   1.802   6.303   3.447
 4657TIP3    H213936   1.882   6.277   3.321
 4658TIP3   OH213937   5.178   2.355   0.681
 4658TIP3    H113938   5.187   2.274   0.730
 4658TIP3    H213939   5.251   2.409   0.710
 4659TIP3   OH213940   4.800   2.348   4.916
 4659TIP3    H113941   4.725   2.381   4.866
 4659TIP3    H213942   4.783   2.254   4.926
 4660TIP3   OH213943   6.942   1.166   4.766
 4660TIP3    H113944   6.959   1.122   4.849
 4660TIP3    H213945   6.926   1.257   4.790
 4661TIP3   OH213946   4.350   6.373   3.181
 4661TIP3    H113947   4.315   6.337   3.099
 4661TIP3    H213948   4.277   6.368   3.243
 4662TIP3   OH213949   5.145   6.278   3.324
 4662TIP3    H113950   5.143   6.189   3.359
 4662TIP3    H213951   5.179   6.331   3.395
 4663TIP3   OH213952   1.267   3.259   5.331
 4663TIP3    H113953   1.332   3.194   5.304
 4663TIP3    H213954   1.286   3.274   5.424
 4664TIP3   OH213955   1.962   1.756   5.086
 4664TIP3    H113956   1.992   1.842   5.115
 4664TIP3    H213957   1.918   1.719   5.163
 4665TIP3   OH213958   4.793   5.210   3.298
 4665TIP3    H113959   4.780   5.246   3.211
 4665TIP3    H213960   4.705   5.201   3.334
 4666TIP3   OH213961   0.013   6.811   1.692
 4666TIP3    H113962  -0.009   6.727   1.732
 4666TIP3    H213963  -0.043   6.817   1.615
 4667TIP3   OH213964   1.861   6.118   1.055
 4667TIP3    H113965   1.803   6.056   1.010
 4667TIP3    H213966   1.886   6.072   1.136
 4668TIP3   OH213967   7.161   0.215   4.994
 4668TIP3    H113968   7.154   0.138   5.051
 4668TIP3    H213969   7.073   0.227   4.959
 4669TIP3   OH213970   0.941   5.447   5.150
 4669TIP3    H113971   0.968   5.495   5.228
 4669TIP3    H213972   0.899   5.368   5.184
 4670TIP3   OH213973   4.763   1.533   3.501
 4670TIP3    H113974   4.853   1.506   3.482
 4670TIP3    H213975   4.717   1.452   3.521
 4671TIP3   OH213976   3.799   6.326   5.296
 4671TIP3    H113977   3.710   6.361   5.304
 4671TIP3    H213978   3.788   6.242   5.253
 4672TIP3   OH213979   2.321   3.780   1.981
 4672TIP3    H113980   2.241   3.802   2.028
 4672TIP3    H213981   2.317   3.833   1.901
 4673TIP3   OH213982   0.732   4.113   4.326
 4673TIP3    H113983   0.676   4.148   4.257
 4673TIP3    H213984   0.673   4.064   4.383
 4674TIP3   OH213985   5.618   2.198   3.889
 4674TIP3    H113986   5.538   2.148   3.875
 4674TIP3    H213987   5.687   2.133   3.895
 4675TIP3   OH213988   3.651   6.516   1.197
 4675TIP3    H113989   3.593   6.546   1.126
 4675TIP3    H213990   3.734   6.498   1.153
 4676TIP3   OH213991   1.062   1.517   4.393
 4676TIP3    H113992   1.063   1.612   4.401
 4676TIP3    H213993   0.988   1.489   4.447
 4677TIP3   OH213994   4.257   1.045   2.901
 4677TIP3    H113995   4.263   0.994   2.981
 4677TIP3    H213996   4.166   1.074   2.898
 4678TIP3   OH213997   5.187   1.533   2.170
 4678TIP3    H113998   5.110   1.513   2.116
 4678TIP3    H213999   5.217   1.448   2.202
 4679TIP3   OH214000   6.274   3.864   5.463
 4679TIP3    H114001   6.344   3.804   5.489
 4679TIP3    H214002   6.257   3.842   5.371
 4680TIP3   OH214003   6.321   3.630   3.010
 4680TIP3    H114004   6.357   3.556   3.059
 4680TIP3    H214005   6.252   3.591   2.956
 4681TIP3   OH214006   2.435   5.065   5.735
 4681TIP3    H114007   2.385   5.016   5.669
 4681TIP3    H214008   2.526   5.049   5.712
 4682TIP3   OH214009   6.816   3.645   4.345
 4682TIP3    H114010   6.801   3.660   4.251
 4682TIP3    H214011   6.890   3.701   4.367
 4683TIP3   OH214012   6.569   4.133   5.825
 4683TIP3    H114013   6.647   4.107   5.874
 4683TIP3    H214014   6.562   4.068   5.755
 4684TIP3   OH214015   5.732   1.729   4.091
 4684TIP3    H114016   5.694   1.685   4.167
 4684TIP3    H214017   5.716   1.669   4.018
 4685TIP3   OH214018   2.349   3.087   0.275
 4685TIP3    H114019   2.258   3.116   0.271
 4685TIP3    H214020   2.374   3.074   0.184
 4686TIP3   OH214021   3.396   4.975   3.903
 4686TIP3    H114022   3.371   4.897   3.854
 4686TIP3    H214023   3.441   5.030   3.839
 4687TIP3   OH214024   4.844   4.660   3.670
 4687TIP3    H114025   4.888   4.613   3.599
 4687TIP3    H214026   4.798   4.592   3.719
 4688TIP3   OH214027   5.355   0.551   0.484
 4688TIP3    H114028   5.268   0.520   0.460
 4688TIP3    H214029   5.392   0.480   0.537
 4689TIP3   OH214030   1.992   3.374   2.369
 4689TIP3    H114031   1.904   3.390   2.404
 4689TIP3    H214032   2.051   3.414   2.432
 4690TIP3   OH214033   1.350   1.861   4.827
 4690TIP3    H114034   1.378   1.870   4.736
 4690TIP3    H214035   1.393   1.781   4.857
 4691TIP3   OH214036   5.896   5.707   1.547
 4691TIP3    H114037   5.867   5.795   1.571
 4691TIP3    H214038   5.991   5.710   1.553
 4692TIP3   OH214039   6.563   2.671   1.119
 4692TIP3    H114040   6.509   2.750   1.129
 4692TIP3    H214041   6.505   2.599   1.142
 4693TIP3   OH214042   2.776   1.541   5.769
 4693TIP3    H114043   2.757   1.448   5.755
 4693TIP3    H214044   2.692   1.579   5.794
 4694TIP3   OH214045   4.674   3.388   2.407
 4694TIP3    H114046   4.719   3.437   2.475
 4694TIP3    H214047   4.694   3.296   2.426
 4695TIP3   OH214048   2.464   5.830   2.545
 4695TIP3    H114049   2.384   5.878   2.525
 4695TIP3    H214050   2.436   5.762   2.606
 4696TIP3   OH214051   2.646   5.480   5.819
 4696TIP3    H114052   2.673   5.436   5.900
 4696TIP3    H214053   2.726   5.521   5.786
 4697TIP3   OH214054   1.342   5.765   5.172
 4697TIP3    H114055   1.268   5.818   5.143
 4697TIP3    H214056   1.407   5.773   5.102
 4698TIP3   OH214057   7.195   5.594   4.303
 4698TIP3    H114058   7.155   5.619   4.386
 4698TIP3    H214059   7.121   5.577   4.245
 4699TIP3   OH214060   1.186   0.458   4.721
 4699TIP3    H114061   1.174   0.386   4.783
 4699TIP3    H214062   1.157   0.421   4.637
 4700TIP3   OH214063   0.756   1.095   5.659
 4700TIP3    H114064   0.661   1.095   5.651
 4700TIP3    H214065   0.774   1.149   5.736
 4701TIP3   OH214066   0.367   3.288   4.361
 4701TIP3    H114067   0.397   3.371   4.399
 4701TIP3    H214068   0.418   3.280   4.280
 4702TIP3   OH214069   1.364   1.689   5.922
 4702TIP3    H114070   1.415   1.658   5.847
 4702TIP3    H214071   1.404   1.772   5.946
 4703TIP3   OH214072   2.167   1.305   3.042
 4703TIP3    H114073   2.073   1.296   3.027
 4703TIP3    H214074   2.186   1.241   3.111
 4704TIP3   OH214075   4.146   5.632   0.818
 4704TIP3    H114076   4.054   5.641   0.844
 4704TIP3    H214077   4.143   5.580   0.738
 4705TIP3   OH214078   7.117   5.434   5.214
 4705TIP3    H114079   7.091   5.456   5.124
 4705TIP3    H214080   7.039   5.394   5.253
 4706TIP3   OH214081   0.506   4.226  -0.010
 4706TIP3    H114082   0.413   4.217  -0.029
 4706TIP3    H214083   0.510   4.253   0.082
 4707TIP3   OH214084   3.253   1.660   1.645
 4707TIP3    H114085   3.260   1.674   1.550
 4707TIP3    H214086   3.317   1.721   1.682
 4708TIP3   OH214087   3.405   3.240   4.248
 4708TIP3    H114088   3.402   3.320   4.196
 4708TIP3    H214089   3.488   3.245   4.295
 4709TIP3   OH214090   6.230   1.247   4.515
 4709TIP3    H114091   6.191   1.332   4.535
 4709TIP3    H214092   6.307   1.268   4.462
 4710TIP3   OH214093   2.104   4.401   1.026
 4710TIP3    H114094   2.198   4.395   1.008
 4710TIP3    H214095   2.085   4.495   1.028
 4711TIP3   OH214096   0.108   2.235   1.459
 4711TIP3    H114097   0.194   2.240   1.417
 4711TIP3    H214098   0.088   2.326   1.482
 4712TIP3   OH214099   3.491   0.512   3.430
 4712TIP3    H114100   3.558   0.454   3.395
 4712TIP3    H214101   3.429   0.454   3.474
 4713TIP3   OH214102   1.564   4.502   1.999
 4713TIP3    H114103   1.513   4.424   2.023
 4713TIP3    H214104   1.616   4.521   2.077
 4714TIP3   OH214105   2.043   1.596   4.887
 4714TIP3    H114106   2.000   1.653   4.950
 4714TIP3    H214107   2.121   1.564   4.933
 4715TIP3   OH214108   6.433   0.468   3.200
 4715TIP3    H114109   6.468   0.553   3.223
 4715TIP3    H214110   6.470   0.408   3.264
 4716TIP3   OH214111   5.745   0.054   5.013
 4716TIP3    H114112   5.822   0.103   5.041
 4716TIP3    H214113   5.780  -0.021   4.964
 4717TIP3   OH214114   2.331   2.236   0.099
 4717TIP3    H114115   2.384   2.207   0.025
 4717TIP3    H214116   2.269   2.165   0.114
 4718TIP3   OH214117   4.147   0.052   2.400
 4718TIP3    H114118   4.212   0.017   2.461
 4718TIP3    H214119   4.196   0.114   2.345
 4719TIP3   OH214120   1.018   4.616   2.158
 4719TIP3    H114121   1.004   4.587   2.068
 4719TIP3    H214122   0.949   4.574   2.208
 4720TIP3   OH214123   1.821   1.849   1.772
 4720TIP3    H114124   1.826   1.780   1.838
 4720TIP3    H214125   1.748   1.905   1.801
 4721TIP3   OH214126   2.459   6.657   3.610
 4721TIP3    H114127   2.389   6.598   3.637
 4721TIP3    H214128   2.479   6.633   3.520
 4722TIP3   OH214129   3.819   0.235   1.047
 4722TIP3    H114130   3.755   0.179   1.003
 4722TIP3    H214131   3.776   0.259   1.129
 4723TIP3   OH214132   1.314   2.363   1.343
 4723TIP3    H114133   1.273   2.277   1.354
 4723TIP3    H214134   1.242   2.422   1.326
 4724TIP3   OH214135   3.878   2.979   4.854
 4724TIP3    H114136   3.955   3.013   4.899
 4724TIP3    H214137   3.883   3.016   4.766
 4725TIP3   OH214138   4.791   4.316   2.601
 4725TIP3    H114139   4.814   4.227   2.574
 4725TIP3    H214140   4.849   4.372   2.550
 4726TIP3   OH214141   2.459   6.200   0.480
 4726TIP3    H114142   2.379   6.183   0.530
 4726TIP3    H214143   2.487   6.114   0.450
 4727TIP3   OH214144   5.226   0.085   3.823
 4727TIP3    H114145   5.309   0.071   3.779
 4727TIP3    H214146   5.183  -0.001   3.822
 4728TIP3   OH214147   5.320   5.974   4.561
 4728TIP3    H114148   5.411   5.968   4.534
 4728TIP3    H214149   5.271   5.938   4.486
 4729TIP3   OH214150   2.561   6.065   2.076
 4729TIP3    H114151   2.570   6.124   2.002
 4729TIP3    H214152   2.515   6.116   2.143
 4730TIP3   OH214153   4.758   5.607   2.969
 4730TIP3    H114154   4.679   5.611   2.915
 4730TIP3    H214155   4.806   5.531   2.936
 4731TIP3   OH214156   6.108   2.726   0.136
 4731TIP3    H114157   6.114   2.633   0.114
 4731TIP3    H214158   6.054   2.764   0.067
 4732TIP3   OH214159   3.441   1.223   4.001
 4732TIP3    H114160   3.533   1.221   4.025
 4732TIP3    H214161   3.440   1.252   3.910
 4733TIP3   OH214162   6.823   5.107   4.305
 4733TIP3    H114163   6.803   5.083   4.395
 4733TIP3    H214164   6.918   5.122   4.304
 4734TIP3   OH214165   6.425   5.777   2.247
 4734TIP3    H114166   6.366   5.797   2.320
 4734TIP3    H214167   6.435   5.860   2.201
 4735TIP3   OH214168   6.776   3.266   0.783
 4735TIP3    H114169   6.804   3.181   0.817
 4735TIP3    H214170   6.768   3.321   0.861
 4736TIP3   OH214171   6.112   6.599   2.918
 4736TIP3    H114172   6.091   6.603   2.824
 4736TIP3    H214173   6.193   6.648   2.926
 4737TIP3   OH214174   2.180   3.392   4.933
 4737TIP3    H114175   2.238   3.468   4.924
 4737TIP3    H214176   2.101   3.416   4.884
 4738TIP3   OH214177   2.143   4.169   5.164
 4738TIP3    H114178   2.238   4.176   5.161
 4738TIP3    H214179   2.114   4.210   5.082
 4739TIP3   OH214180   4.756   5.926   3.157
 4739TIP3    H114181   4.808   5.883   3.225
 4739TIP3    H214182   4.813   5.925   3.080
 4740TIP3   OH214183   1.833   4.970   2.425
 4740TIP3    H114184   1.787   5.014   2.496
 4740TIP3    H214185   1.912   5.022   2.412
 4741TIP3   OH214186   6.457   0.751   0.961
 4741TIP3    H114187   6.529   0.760   0.898
 4741TIP3    H214188   6.378   0.754   0.908
 4742TIP3   OH214189   0.173   6.721   0.528
 4742TIP3    H114190   0.113   6.791   0.551
 4742TIP3    H214191   0.244   6.728   0.592
 4743TIP3   OH214192   0.391   1.536   4.017
 4743TIP3    H114193   0.374   1.476   4.090
 4743TIP3    H214194   0.485   1.553   4.021
 4744TIP3   OH214195   6.829   1.538   3.075
 4744TIP3    H114196   6.881   1.464   3.045
 4744TIP3    H214197   6.782   1.568   2.997
 4745TIP3   OH214198   3.996   5.923   2.764
 4745TIP3    H114199   3.956   6.009   2.750
 4745TIP3    H214200   4.058   5.936   2.836
 4746TIP3   OH214201   6.505   3.428   3.329
 4746TIP3    H114202   6.511   3.434   3.234
 4746TIP3    H214203   6.594   3.406   3.357
 4747TIP3   OH214204   0.564   1.903   5.266
 4747TIP3    H114205   0.506   1.855   5.325
 4747TIP3    H214206   0.551   1.995   5.289
 4748TIP3   OH214207   0.516   6.342   2.633
 4748TIP3    H114208   0.597   6.369   2.590
 4748TIP3    H214209   0.535   6.343   2.726
 4749TIP3   OH214210   4.955   3.518   0.630
 4749TIP3    H114211   4.927   3.437   0.672
 4749TIP3    H214212   5.050   3.520   0.641
 4750TIP3   OH214213   5.863   1.205   1.171
 4750TIP3    H114214   5.861   1.123   1.120
 4750TIP3    H214215   5.908   1.181   1.252
 4751TIP3   OH214216   5.038   0.826   5.866
 4751TIP3    H114217   4.972   0.838   5.934
 4751TIP3    H214218   4.992   0.780   5.796
 4752TIP3   OH214219   3.611   3.523   1.438
 4752TIP3    H114220   3.619   3.497   1.530
 4752TIP3    H214221   3.543   3.590   1.437
 4753TIP3   OH214222   3.838   2.913   0.241
 4753TIP3    H114223   3.820   2.867   0.323
 4753TIP3    H214224   3.893   2.852   0.192
 4754TIP3   OH214225   0.698   6.664   3.434
 4754TIP3    H114226   0.720   6.744   3.482
 4754TIP3    H214227   0.692   6.691   3.343
 4755TIP3   OH214228   2.678   4.499   0.222
 4755TIP3    H114229   2.616   4.441   0.266
 4755TIP3    H214230   2.741   4.440   0.181
 4756TIP3   OH214231   4.081   0.234   1.802
 4756TIP3    H114232   4.107   0.243   1.894
 4756TIP3    H214233   4.130   0.302   1.756
 4757TIP3   OH214234   6.919   5.196   0.926
 4757TIP3    H114235   6.994   5.238   0.968
 4757TIP3    H214236   6.950   5.173   0.839
 4758TIP3   OH214237   2.499   3.089   2.300
 4758TIP3    H114238   2.550   3.008   2.307
 4758TIP3    H214239   2.487   3.101   2.206
 4759TIP3   OH214240   3.585   2.571   1.611
 4759TIP3    H114241   3.557   2.638   1.674
 4759TIP3    H214242   3.677   2.593   1.593
 4760TIP3   OH214243   3.715   4.294   0.112
 4760TIP3    H114244   3.801   4.252   0.105
 4760TIP3    H214245   3.655   4.221   0.128
 4761TIP3   OH214246   5.669   0.155   5.599
 4761TIP3    H114247   5.599   0.210   5.564
 4761TIP3    H214248   5.749   0.205   5.585
 4762TIP3   OH214249   6.151   2.072   1.733
 4762TIP3    H114250   6.127   2.056   1.825
 4762TIP3    H214251   6.241   2.039   1.726
 4763TIP3   OH214252   3.607   0.182   5.796
 4763TIP3    H114253   3.672   0.247   5.822
 4763TIP3    H214254   3.523   0.222   5.819
 4764TIP3   OH214255   5.092   6.233   3.024
 4764TIP3    H114256   5.130   6.246   3.111
 4764TIP3    H214257   5.093   6.320   2.984
 4765TIP3   OH214258   3.598   6.441   5.012
 4765TIP3    H114259   3.650   6.387   4.952
 4765TIP3    H214260   3.545   6.378   5.061
 4766TIP3   OH214261   5.016   4.520   1.675
 4766TIP3    H114262   4.998   4.556   1.588
 4766TIP3    H214263   5.047   4.431   1.658
 4767TIP3   OH214264   2.615   4.012   0.946
 4767TIP3    H114265   2.529   4.021   0.987
 4767TIP3    H214266   2.648   3.929   0.978
 4768TIP3   OH214267   6.620   0.355   1.964
 4768TIP3    H114268   6.625   0.266   1.998
 4768TIP3    H214269   6.598   0.409   2.040
 4769TIP3   OH214270   6.415   6.039   4.924
 4769TIP3    H114271   6.396   5.951   4.958
 4769TIP3    H214272   6.459   6.084   4.996
 4770TIP3   OH214273   3.868   1.818   0.349
 4770TIP3    H114274   3.897   1.760   0.419
 4770TIP3    H214275   3.855   1.760   0.273
 4771TIP3   OH214276   6.657   2.632   4.385
 4771TIP3    H114277   6.630   2.712   4.339
 4771TIP3    H214278   6.582   2.573   4.377
 4772TIP3   OH214279   1.847   4.773   4.131
 4772TIP3    H114280   1.770   4.796   4.183
 4772TIP3    H214281   1.822   4.794   4.041
 4773TIP3   OH214282   2.238   1.393   0.699
 4773TIP3    H114283   2.167   1.456   0.713
 4773TIP3    H214284   2.318   1.445   0.699
 4774TIP3   OH214285   4.563   3.763   0.339
 4774TIP3    H114286   4.483   3.815   0.326
 4774TIP3    H214287   4.591   3.784   0.428
 4775TIP3   OH214288   3.011   4.994   5.835
 4775TIP3    H114289   2.978   5.080   5.861
 4775TIP3    H214290   2.932   4.940   5.825
 4776TIP3   OH214291   6.600   1.989   0.867
 4776TIP3    H114292   6.631   2.079   0.857
 4776TIP3    H214293   6.676   1.935   0.845
 4777TIP3   OH214294   1.932   2.823   2.938
 4777TIP3    H114295   1.969   2.904   2.973
 4777TIP3    H214296   2.001   2.758   2.950
 4778TIP3   OH214297   5.694   0.168   0.132
 4778TIP3    H114298   5.604   0.151   0.103
 4778TIP3    H214299   5.701   0.121   0.215
 4779TIP3   OH214300   0.503   6.210   2.014
 4779TIP3    H114301   0.533   6.226   2.104
 4779TIP3    H214302   0.540   6.124   1.992
 4780TIP3   OH214303   2.294   0.757   4.598
 4780TIP3    H114304   2.323   0.822   4.661
 4780TIP3    H214305   2.215   0.795   4.559
 4781TIP3   OH214306   5.860   0.901   1.096
 4781TIP3    H114307   5.831   0.918   1.006
 4781TIP3    H214308   5.807   0.826   1.124
 4782TIP3   OH214309   0.221   1.600   4.383
 4782TIP3    H114310   0.275   1.531   4.344
 4782TIP3    H214311   0.250   1.605   4.474
 4783TIP3   OH214312   6.881   4.088   0.408
 4783TIP3    H114313   6.788   4.078   0.426
 4783TIP3    H214314   6.923   4.082   0.494
 4784TIP3   OH214315   6.868   4.652   0.140
 4784TIP3    H114316   6.897   4.732   0.096
 4784TIP3    H214317   6.948   4.613   0.175
 4785TIP3   OH214318   6.469   0.241   1.637
 4785TIP3    H114319   6.534   0.176   1.664
 4785TIP3    H214320   6.517   0.324   1.642
 4786TIP3   OH214321   2.887   5.872   1.284
 4786TIP3    H114322   2.900   5.856   1.378
 4786TIP3    H214323   2.829   5.949   1.281
 4787TIP3   OH214324   7.258   3.131   0.371
 4787TIP3    H114325   7.267   3.225   0.352
 4787TIP3    H214326   7.164   3.117   0.379
 4788TIP3   OH214327   6.579   3.696   0.579
 4788TIP3    H114328   6.594   3.774   0.634
 4788TIP3    H214329   6.484   3.688   0.575
 4789TIP3   OH214330   1.260   5.628   3.937
 4789TIP3    H114331   1.345   5.587   3.921
 4789TIP3    H214332   1.196   5.559   3.918
 4790TIP3   OH214333   3.872   2.758   5.685
 4790TIP3    H114334   3.833   2.839   5.652
 4790TIP3    H214335   3.901   2.711   5.606
 4791TIP3   OH214336   0.907   4.834   0.042
 4791TIP3    H114337   0.902   4.908   0.104
 4791TIP3    H214338   0.909   4.875  -0.044
 4792TIP3   OH214339   5.158   0.765   4.062
 4792TIP3    H114340   5.109   0.844   4.035
 4792TIP3    H214341   5.237   0.799   4.104
 4793TIP3   OH214342   5.977   1.797   2.342
 4793TIP3    H114343   6.052   1.760   2.295
 4793TIP3    H214344   5.957   1.733   2.410
 4794TIP3   OH214345   1.736   5.516   2.819
 4794TIP3    H114346   1.735   5.539   2.912
 4794TIP3    H214347   1.802   5.447   2.812
 4795TIP3   OH214348   4.225   4.461   5.125
 4795TIP3    H114349   4.309   4.505   5.127
 4795TIP3    H214350   4.175   4.506   5.057
 4796TIP3   OH214351   5.542   0.040   2.393
 4796TIP3    H114352   5.565   0.120   2.441
 4796TIP3    H214353   5.591  -0.029   2.436
 4797TIP3   OH214354   5.128   1.554   2.650
 4797TIP3    H114355   5.059   1.510   2.599
 4797TIP3    H214356   5.101   1.646   2.653
 4798TIP3   OH214357   1.441   1.503   0.874
 4798TIP3    H114358   1.482   1.589   0.867
 4798TIP3    H214359   1.477   1.466   0.955
 4799TIP3   OH214360   0.417   2.068   2.848
 4799TIP3    H114361   0.452   2.102   2.930
 4799TIP3    H214362   0.460   2.120   2.780
 4800TIP3   OH214363   3.281   6.219   0.291
 4800TIP3    H114364   3.235   6.208   0.208
 4800TIP3    H214365   3.221   6.184   0.357
 4801TIP3   OH214366   4.871   6.760   3.856
 4801TIP3    H114367   4.931   6.687   3.869
 4801TIP3    H214368   4.910   6.833   3.904
 4802TIP3   OH214369   4.242   0.410   3.378
 4802TIP3    H114370   4.272   0.344   3.440
 4802TIP3    H214371   4.236   0.365   3.294
 4803TIP3   OH214372   5.574   3.071   1.209
 4803TIP3    H114373   5.621   3.128   1.270
 4803TIP3    H214374   5.484   3.103   1.212
 4804TIP3   OH214375   5.039   5.975   3.838
 4804TIP3    H114376   4.974   5.906   3.823
 4804TIP3    H214377   5.098   5.938   3.904
 4805TIP3   OH214378   3.099   6.643   5.835
 4805TIP3    H114379   3.164   6.594   5.885
 4805TIP3    H214380   3.031   6.579   5.815
 4806TIP3   OH214381   7.055   5.869   1.452
 4806TIP3    H114382   7.016   5.783   1.436
 4806TIP3    H214383   7.070   5.871   1.546
 4807TIP3   OH214384   3.497   2.286   2.918
 4807TIP3    H114385   3.509   2.371   2.876
 4807TIP3    H214386   3.523   2.301   3.009
 4808TIP3   OH214387   6.006   3.515   2.094
 4808TIP3    H114388   5.913   3.517   2.119
 4808TIP3    H214389   6.038   3.433   2.130
 4809TIP3   OH214390   4.250   1.795   3.006
 4809TIP3    H114391   4.329   1.780   3.057
 4809TIP3    H214392   4.200   1.859   3.058
 4810TIP3   OH214393   6.566   0.102   4.204
 4810TIP3    H114394   6.482   0.067   4.234
 4810TIP3    H214395   6.589   0.048   4.128
 4811TIP3   OH214396   3.831   0.663   0.994
 4811TIP3    H114397   3.793   0.652   0.907
 4811TIP3    H214398   3.893   0.591   1.002
 4812TIP3   OH214399   5.956   2.183   4.625
 4812TIP3    H114400   5.919   2.164   4.711
 4812TIP3    H214401   5.882   2.215   4.573
 4813TIP3   OH214402   3.640   2.070   5.824
 4813TIP3    H114403   3.719   2.016   5.810
 4813TIP3    H214404   3.668   2.138   5.885
 4814TIP3   OH214405   0.289   5.428   1.615
 4814TIP3    H114406   0.291   5.374   1.694
 4814TIP3    H214407   0.286   5.518   1.649
 4815TIP3   OH214408   2.692   2.416   0.349
 4815TIP3    H114409   2.627   2.390   0.414
 4815TIP3    H214410   2.668   2.505   0.324
 4816TIP3   OH214411   7.228   5.721   5.537
 4816TIP3    H114412   7.239   5.810   5.571
 4816TIP3    H214413   7.316   5.685   5.533
 4817TIP3   OH214414   6.389   0.414   5.346
 4817TIP3    H114415   6.342   0.339   5.309
 4817TIP3    H214416   6.474   0.378   5.373
 4818TIP3   OH214417   0.291   5.448   0.978
 4818TIP3    H114418   0.273   5.354   0.979
 4818TIP3    H214419   0.222   5.486   1.033
 4819TIP3   OH214420   6.878   6.311   4.165
 4819TIP3    H114421   6.804   6.372   4.172
 4819TIP3    H214422   6.838   6.228   4.140
 4820TIP3   OH214423   4.586   3.767   3.878
 4820TIP3    H114424   4.500   3.809   3.873
 4820TIP3    H214425   4.640   3.828   3.928
 4821TIP3   OH214426   1.590   2.076   0.983
 4821TIP3    H114427   1.546   2.150   0.939
 4821TIP3    H214428   1.616   2.018   0.911
 4822TIP3   OH214429   3.423   4.740   2.806
 4822TIP3    H114430   3.405   4.829   2.776
 4822TIP3    H214431   3.505   4.716   2.763
 4823TIP3   OH214432   0.452   3.348   0.463
 4823TIP3    H114433   0.526   3.379   0.410
 4823TIP3    H214434   0.419   3.427   0.506
 4824TIP3   OH214435   2.803   2.867   5.836
 4824TIP3    H114436   2.795   2.875   5.741
 4824TIP3    H214437   2.852   2.786   5.850
 4825TIP3   OH214438   0.996   6.766   1.881
 4825TIP3    H114439   0.978   6.845   1.933
 4825TIP3    H214440   1.088   6.746   1.900
 4826TIP3   OH214441   3.883   1.374   0.974
 4826TIP3    H114442   3.883   1.412   0.886
 4826TIP3    H214443   3.965   1.405   1.013
 4827TIP3   OH214444   5.143   1.284   1.056
 4827TIP3    H114445   5.081   1.319   0.991
 4827TIP3    H214446   5.134   1.343   1.131
 4828TIP3   OH214447   5.002   6.072   1.981
 4828TIP3    H114448   5.063   6.030   2.041
 4828TIP3    H214449   4.976   6.153   2.025
 4829TIP3   OH214450   5.569   2.864   5.910
 4829TIP3    H114451   5.595   2.955   5.927
 4829TIP3    H214452   5.607   2.843   5.825
 4830TIP3   OH214453   1.124   3.396   4.645
 4830TIP3    H114454   1.214   3.381   4.614
 4830TIP3    H214455   1.069   3.357   4.577
 4831TIP3   OH214456   6.682   5.368   4.313
 4831TIP3    H114457   6.729   5.401   4.390
 4831TIP3    H214458   6.690   5.273   4.319
 4832TIP3   OH214459   4.576   3.281   1.349
 4832TIP3    H114460   4.607   3.274   1.259
 4832TIP3    H214461   4.480   3.276   1.341
 4833TIP3   OH214462   2.255   0.274   4.837
 4833TIP3    H114463   2.346   0.303   4.845
 4833TIP3    H214464   2.228   0.256   4.927
 4834TIP3   OH214465   6.639   1.987   5.554
 4834TIP3    H114466   6.693   2.008   5.630
 4834TIP3    H214467   6.663   1.897   5.532
 4835TIP3   OH214468   2.548   4.550   3.588
 4835TIP3    H114469   2.471   4.594   3.553
 4835TIP3    H214470   2.563   4.592   3.673
 4836TIP3   OH214471   1.693   4.382   4.632
 4836TIP3    H114472   1.609   4.419   4.604
 4836TIP3    H214473   1.758   4.426   4.577
 4837TIP3   OH214474   1.476   5.163   3.898
 4837TIP3    H114475   1.447   5.080   3.937
 4837TIP3    H214476   1.495   5.140   3.807
 4838TIP3   OH214477   7.133   6.339   1.631
 4838TIP3    H114478   7.063   6.338   1.697
 4838TIP3    H214479   7.109   6.409   1.571
 4839TIP3   OH214480   5.324   5.223   5.451
 4839TIP3    H114481   5.407   5.177   5.439
 4839TIP3    H214482   5.343   5.291   5.516
 4840TIP3   OH214483   3.717   5.109   0.530
 4840TIP3    H114484   3.662   5.186   0.544
 4840TIP3    H214485   3.727   5.103   0.435
 4841TIP3   OH214486   5.369   0.726   0.284
 4841TIP3    H114487   5.375   0.661   0.354
 4841TIP3    H214488   5.446   0.710   0.230
 4842TIP3   OH214489   0.040   5.095   4.033
 4842TIP3    H114490   0.077   5.053   3.956
 4842TIP3    H214491   0.082   5.181   4.036
 4843TIP3   OH214492   3.889   5.792   2.211
 4843TIP3    H114493   3.832   5.868   2.221
 4843TIP3    H214494   3.836   5.728   2.163
 4844TIP3   OH214495   1.643   3.418   4.238
 4844TIP3    H114496   1.693   3.358   4.184
 4844TIP3    H214497   1.563   3.435   4.188
 4845TIP3   OH214498   4.078   1.097   5.620
 4845TIP3    H114499   4.120   1.111   5.705
 4845TIP3    H214500   4.146   1.114   5.556
 4846TIP3   OH214501   3.748   3.028   0.730
 4846TIP3    H114502   3.752   3.084   0.652
 4846TIP3    H214503   3.732   3.088   0.802
 4847TIP3   OH214504   5.931   0.976   1.971
 4847TIP3    H114505   5.904   0.892   2.008
 4847TIP3    H214506   5.942   0.960   1.878
 4848TIP3   OH214507   2.634   5.383   0.616
 4848TIP3    H114508   2.582   5.450   0.573
 4848TIP3    H214509   2.702   5.431   0.663
 4849TIP3   OH214510   2.508   2.664   5.512
 4849TIP3    H114511   2.603   2.660   5.502
 4849TIP3    H214512   2.491   2.749   5.551
 4850TIP3   OH214513   0.474   0.153   2.556
 4850TIP3    H114514   0.496   0.061   2.537
 4850TIP3    H214515   0.394   0.147   2.609
 4851TIP3   OH214516   0.493   0.631   3.003
 4851TIP3    H114517   0.472   0.648   2.912
 4851TIP3    H214518   0.408   0.623   3.047
 4852TIP3   OH214519   3.484   3.528   0.773
 4852TIP3    H114520   3.578   3.519   0.757
 4852TIP3    H214521   3.479   3.587   0.848
 4853TIP3   OH214522   3.687   3.243   5.417
 4853TIP3    H114523   3.619   3.251   5.350
 4853TIP3    H214524   3.727   3.158   5.400
 4854TIP3   OH214525   6.557   4.096   3.000
 4854TIP3    H114526   6.541   4.005   3.026
 4854TIP3    H214527   6.586   4.090   2.909
 4855TIP3   OH214528   0.176   6.488   0.041
 4855TIP3    H114529   0.189   6.414   0.099
 4855TIP3    H214530   0.226   6.466  -0.038
 4856TIP3   OH214531   5.147   4.966   3.130
 4856TIP3    H114532   5.165   4.872   3.131
 4856TIP3    H214533   5.121   4.986   3.220
 4857TIP3   OH214534   1.057   2.932   4.580
 4857TIP3    H114535   1.002   2.856   4.600
 4857TIP3    H214536   1.074   2.973   4.665
 4858TIP3   OH214537   1.407   1.168   0.938
 4858TIP3    H114538   1.346   1.163   1.012
 4858TIP3    H214539   1.356   1.206   0.867
 4859TIP3   OH214540   0.594   4.948   1.873
 4859TIP3    H114541   0.632   4.862   1.856
 4859TIP3    H214542   0.536   4.934   1.948
 4860TIP3   OH214543   2.557   5.767   2.105
 4860TIP3    H114544   2.610   5.762   2.185
 4860TIP3    H214545   2.567   5.858   2.076
 4861TIP3   OH214546   5.741   3.039   0.746
 4861TIP3    H114547   5.673   3.038   0.679
 4861TIP3    H214548   5.728   3.122   0.792
 4862TIP3   OH214549   6.274   0.047   3.039
 4862TIP3    H114550   6.269   0.131   3.086
 4862TIP3    H214551   6.183   0.022   3.025
 4863TIP3   OH214552   1.195   0.741   0.087
 4863TIP3    H114553   1.286   0.770   0.090
 4863TIP3    H214554   1.171   0.746  -0.005
 4864TIP3   OH214555   4.427   3.425   5.279
 4864TIP3    H114556   4.474   3.376   5.212
 4864TIP3    H214557   4.388   3.358   5.335
 4865TIP3   OH214558   6.491   5.468   4.851
 4865TIP3    H114559   6.467   5.511   4.770
 4865TIP3    H214560   6.587   5.470   4.852
 4866TIP3   OH214561   6.416   3.543   3.571
 4866TIP3    H114562   6.465   3.518   3.493
 4866TIP3    H214563   6.362   3.617   3.543
 4867TIP3   OH214564   5.745   0.227   3.728
 4867TIP3    H114565   5.725   0.135   3.713
 4867TIP3    H214566   5.672   0.274   3.688
 4868TIP3   OH214567   2.709   2.507   0.968
 4868TIP3    H114568   2.652   2.440   0.930
 4868TIP3    H214569   2.649   2.578   0.992
 4869TIP3   OH214570   2.397   5.561   0.125
 4869TIP3    H114571   2.335   5.616   0.076
 4869TIP3    H214572   2.347   5.484   0.148
 4870TIP3   OH214573   2.357   6.362   0.265
 4870TIP3    H114574   2.404   6.307   0.327
 4870TIP3    H214575   2.265   6.347   0.284
 4871TIP3   OH214576   2.543   0.074   3.275
 4871TIP3    H114577   2.482   0.135   3.317
 4871TIP3    H214578   2.520   0.077   3.182
 4872TIP3   OH214579   1.850   2.192   2.812
 4872TIP3    H114580   1.886   2.276   2.840
 4872TIP3    H214581   1.817   2.152   2.893
 4873TIP3   OH214582   2.185   2.401   1.042
 4873TIP3    H114583   2.265   2.349   1.049
 4873TIP3    H214584   2.216   2.491   1.040
 4874TIP3   OH214585   6.127   0.077   1.140
 4874TIP3    H114586   6.037   0.109   1.132
 4874TIP3    H214587   6.162   0.080   1.051
 4875TIP3   OH214588   3.024   2.636   5.691
 4875TIP3    H114589   3.072   2.658   5.611
 4875TIP3    H214590   3.080   2.666   5.762
 4876TIP3   OH214591   4.842   6.134   5.630
 4876TIP3    H114592   4.820   6.044   5.653
 4876TIP3    H214593   4.758   6.176   5.613
 4877TIP3   OH214594   3.208   4.300   3.465
 4877TIP3    H114595   3.297   4.334   3.462
 4877TIP3    H214596   3.159   4.364   3.517
 4878TIP3   OH214597   3.334   4.519   5.810
 4878TIP3    H114598   3.247   4.542   5.777
 4878TIP3    H214599   3.349   4.578   5.883
 4879TIP3   OH214600   6.979   4.459   3.100
 4879TIP3    H114601   6.916   4.488   3.166
 4879TIP3    H214602   6.953   4.505   3.020
 4880TIP3   OH214603   0.918   0.292   4.444
 4880TIP3    H114604   0.967   0.361   4.400
 4880TIP3    H214605   0.911   0.323   4.535
 4881TIP3   OH214606   6.545   0.580   4.571
 4881TIP3    H114607   6.460   0.548   4.604
 4881TIP3    H214608   6.595   0.601   4.650
 4882TIP3   OH214609   2.570   2.406   4.728
 4882TIP3    H114610   2.571   2.500   4.707
 4882TIP3    H214611   2.478   2.381   4.719
 4883TIP3   OH214612   1.819   0.897   3.704
 4883TIP3    H114613   1.879   0.915   3.776
 4883TIP3    H214614   1.876   0.881   3.629
 4884TIP3   OH214615   5.114   5.103   0.379
 4884TIP3    H114616   5.135   5.015   0.412
 4884TIP3    H214617   5.023   5.095   0.350
 4885TIP3   OH214618   5.019   5.741   0.698
 4885TIP3    H114619   4.979   5.682   0.634
 4885TIP3    H214620   5.027   5.689   0.777
 4886TIP3   OH214621   2.518   1.896   4.145
 4886TIP3    H114622   2.518   1.930   4.235
 4886TIP3    H214623   2.480   1.808   4.154
 4887TIP3   OH214624   2.932   3.041   3.005
 4887TIP3    H114625   2.939   3.038   2.910
 4887TIP3    H214626   2.991   2.973   3.036
 4888TIP3   OH214627   5.438   5.207   0.310
 4888TIP3    H114628   5.533   5.194   0.314
 4888TIP3    H214629   5.409   5.149   0.239
 4889TIP3   OH214630   2.280   0.791   5.039
 4889TIP3    H114631   2.297   0.874   4.994
 4889TIP3    H214632   2.366   0.757   5.061
 4890TIP3   OH214633   2.700   6.154   3.376
 4890TIP3    H114634   2.697   6.246   3.404
 4890TIP3    H214635   2.793   6.132   3.379
 4891TIP3   OH214636   4.133   3.074   5.812
 4891TIP3    H114637   4.062   3.123   5.853
 4891TIP3    H214638   4.091   3.025   5.741
 4892TIP3   OH214639   1.982   6.186   5.638
 4892TIP3    H114640   2.021   6.248   5.700
 4892TIP3    H214641   2.056   6.156   5.585
 4893TIP3   OH214642   3.773   4.717   5.052
 4893TIP3    H114643   3.797   4.642   5.108
 4893TIP3    H214644   3.678   4.709   5.043
 4894TIP3   OH214645   5.672   1.528   4.883
 4894TIP3    H114646   5.661   1.541   4.977
 4894TIP3    H214647   5.766   1.522   4.871
 4895TIP3   OH214648   7.194   0.601   0.841
 4895TIP3    H114649   7.100   0.616   0.842
 4895TIP3    H214650   7.213   0.561   0.926
 4896TIP3   OH214651   0.959   2.516   4.830
 4896TIP3    H114652   0.922   2.466   4.902
 4896TIP3    H214653   1.050   2.532   4.856
 4897TIP3   OH214654   0.618   5.740   5.803
 4897TIP3    H114655   0.604   5.832   5.827
 4897TIP3    H214656   0.703   5.719   5.841
 4898TIP3   OH214657   6.068   0.447   1.800
 4898TIP3    H114658   6.003   0.420   1.864
 4898TIP3    H214659   6.120   0.368   1.784
 4899TIP3   OH214660   5.667   5.838   0.982
 4899TIP3    H114661   5.587   5.808   0.939
 4899TIP3    H214662   5.686   5.771   1.047
 4900TIP3   OH214663   1.791   5.447   0.140
 4900TIP3    H114664   1.881   5.464   0.169
 4900TIP3    H214665   1.767   5.365   0.182
 4901TIP3   OH214666   4.545   0.919   3.267
 4901TIP3    H114667   4.602   0.850   3.232
 4901TIP3    H214668   4.469   0.918   3.209
 4902TIP3   OH214669   5.614   6.183   3.261
 4902TIP3    H114670   5.595   6.277   3.254
 4902TIP3    H214671   5.580   6.146   3.179
 4903TIP3   OH214672   4.083   2.970   5.052
 4903TIP3    H114673   4.118   3.040   5.108
 4903TIP3    H214674   4.046   2.907   5.113
 4904TIP3   OH214675   6.606   3.578   1.988
 4904TIP3    H114676   6.604   3.483   1.998
 4904TIP3    H214677   6.671   3.608   2.052
 4905TIP3   OH214678   2.944   0.496   3.903
 4905TIP3    H114679   2.849   0.502   3.902
 4905TIP3    H214680   2.965   0.428   3.839
 4906TIP3   OH214681   0.289   3.085   2.771
 4906TIP3    H114682   0.291   3.174   2.736
 4906TIP3    H214683   0.254   3.032   2.700
 4907TIP3   OH214684   6.439   2.940   2.965
 4907TIP3    H114685   6.532   2.927   2.950
 4907TIP3    H214686   6.400   2.935   2.877
 4908TIP3   OH214687   3.811   4.336   4.519
 4908TIP3    H114688   3.775   4.417   4.555
 4908TIP3    H214689   3.782   4.267   4.578
 4909TIP3   OH214690   3.056   5.075   1.218
 4909TIP3    H114691   3.086   5.005   1.161
 4909TIP3    H214692   3.079   5.155   1.172
 4910TIP3   OH214693   0.828   1.147   1.690
 4910TIP3    H114694   0.888   1.161   1.617
 4910TIP3    H214695   0.741   1.149   1.650
 4911TIP3   OH214696   5.370   4.675   2.002
 4911TIP3    H114697   5.448   4.671   1.946
 4911TIP3    H214698   5.303   4.629   1.952
 4912TIP3   OH214699   1.196   4.220   4.548
 4912TIP3    H114700   1.142   4.272   4.607
 4912TIP3    H214701   1.227   4.282   4.482
 4913TIP3   OH214702   0.503   5.788   3.200
 4913TIP3    H114703   0.579   5.744   3.238
 4913TIP3    H214704   0.530   5.807   3.110
 4914TIP3   OH214705   2.245   5.179   3.257
 4914TIP3    H114706   2.305   5.106   3.240
 4914TIP3    H214707   2.193   5.150   3.332
 4915TIP3   OH214708   5.837   1.441   3.972
 4915TIP3    H114709   5.846   1.345   3.975
 4915TIP3    H214710   5.906   1.473   4.031
 4916TIP3   OH214711   4.895   6.438   2.711
 4916TIP3    H114712   4.980   6.403   2.684
 4916TIP3    H214713   4.832   6.398   2.651
 4917TIP3   OH214714   1.702   5.250   2.986
 4917TIP3    H114715   1.796   5.233   2.980
 4917TIP3    H214716   1.669   5.237   2.897
 4918TIP3   OH214717   4.479   1.277   3.986
 4918TIP3    H114718   4.486   1.358   3.935
 4918TIP3    H214719   4.429   1.218   3.930
 4919TIP3   OH214720   0.756   2.005   0.724
 4919TIP3    H114721   0.795   1.927   0.684
 4919TIP3    H214722   0.661   1.990   0.719
 4920TIP3   OH214723   1.060   4.085   1.512
 4920TIP3    H114724   0.973   4.052   1.491
 4920TIP3    H214725   1.119   4.012   1.492
 4921TIP3   OH214726   1.407   6.602   4.468
 4921TIP3    H114727   1.319   6.595   4.431
 4921TIP3    H214728   1.419   6.521   4.517
 4922TIP3   OH214729   2.221   3.179   2.151
 4922TIP3    H114730   2.204   3.132   2.232
 4922TIP3    H214731   2.234   3.270   2.177
 4923TIP3   OH214732   5.011   2.235   2.265
 4923TIP3    H114733   5.066   2.212   2.190
 4923TIP3    H214734   5.071   2.235   2.340
 4924TIP3   OH214735   3.777   3.551   4.067
 4924TIP3    H114736   3.872   3.543   4.069
 4924TIP3    H214737   3.746   3.463   4.047
 4925TIP3   OH214738   4.146   1.625   0.821
 4925TIP3    H114739   4.135   1.552   0.881
 4925TIP3    H214740   4.241   1.638   0.816
 4926TIP3   OH214741   1.874   1.398   5.160
 4926TIP3    H114742   1.817   1.437   5.095
 4926TIP3    H214743   1.925   1.472   5.195
 4927TIP3   OH214744   5.584   5.488   3.023
 4927TIP3    H114745   5.652   5.457   3.082
 4927TIP3    H214746   5.554   5.570   3.062
 4928TIP3   OH214747   3.369   5.020   0.160
 4928TIP3    H114748   3.450   5.020   0.212
 4928TIP3    H214749   3.339   4.929   0.161
 4929TIP3   OH214750   6.974   0.435   2.570
 4929TIP3    H114751   7.057   0.393   2.550
 4929TIP3    H214752   6.927   0.437   2.487
 4930TIP3   OH214753   6.417   5.508   3.403
 4930TIP3    H114754   6.508   5.502   3.371
 4930TIP3    H214755   6.406   5.600   3.427
 4931TIP3   OH214756   2.084   4.744   3.604
 4931TIP3    H114757   2.073   4.839   3.603
 4931TIP3    H214758   2.030   4.713   3.531
 4932TIP3   OH214759   2.723   0.866   3.133
 4932TIP3    H114760   2.739   0.877   3.039
 4932TIP3    H214761   2.742   0.774   3.150
 4933TIP3   OH214762   1.140   1.624   5.112
 4933TIP3    H114763   1.192   1.545   5.127
 4933TIP3    H214764   1.051   1.592   5.099
 4934TIP3   OH214765   6.854   6.059   1.502
 4934TIP3    H114766   6.800   6.029   1.428
 4934TIP3    H214767   6.943   6.036   1.476
 4935TIP3   OH214768   5.983   4.131   3.241
 4935TIP3    H114769   5.974   4.178   3.324
 4935TIP3    H214770   5.946   4.044   3.259
 4936TIP3   OH214771   2.540   1.738   5.500
 4936TIP3    H114772   2.605   1.742   5.430
 4936TIP3    H214773   2.582   1.781   5.575
 4937TIP3   OH214774   3.700   1.452   3.546
 4937TIP3    H114775   3.708   1.527   3.488
 4937TIP3    H214776   3.653   1.487   3.623
 4938TIP3   OH214777   4.755   1.310   3.965
 4938TIP3    H114778   4.667   1.289   3.994
 4938TIP3    H214779   4.744   1.382   3.903
 4939TIP3   OH214780   6.798   6.298   0.367
 4939TIP3    H114781   6.748   6.304   0.285
 4939TIP3    H214782   6.819   6.205   0.375
 4940TIP3   OH214783   6.977   0.414   4.647
 4940TIP3    H114784   6.943   0.389   4.561
 4940TIP3    H214785   6.904   0.461   4.688
 4941TIP3   OH214786   1.801   0.388   0.732
 4941TIP3    H114787   1.793   0.302   0.690
 4941TIP3    H214788   1.855   0.439   0.672
 4942TIP3   OH214789   0.844   5.872   5.527
 4942TIP3    H114790   0.772   5.808   5.522
 4942TIP3    H214791   0.870   5.869   5.619
 4943TIP3   OH214792   1.883   5.398   3.442
 4943TIP3    H114793   1.912   5.363   3.357
 4943TIP3    H214794   1.965   5.415   3.490
 4944TIP3   OH214795   5.534   1.964   5.525
 4944TIP3    H114796   5.562   2.034   5.584
 4944TIP3    H214797   5.441   1.980   5.510
 4945TIP3   OH214798   1.305   3.886   3.188
 4945TIP3    H114799   1.376   3.857   3.245
 4945TIP3    H214800   1.249   3.809   3.179
 4946TIP3   OH214801   2.062   5.311   2.066
 4946TIP3    H114802   2.116   5.247   2.019
 4946TIP3    H214803   2.085   5.395   2.025
 4947TIP3   OH214804   5.533   5.651   3.748
 4947TIP3    H114805   5.585   5.571   3.759
 4947TIP3    H214806   5.576   5.698   3.677
 4948TIP3   OH214807   3.715   2.033   4.964
 4948TIP3    H114808   3.786   1.969   4.975
 4948TIP3    H214809   3.723   2.062   4.873
 4949TIP3   OH214810   3.451   1.130   2.980
 4949TIP3    H114811   3.412   1.117   2.894
 4949TIP3    H214812   3.438   1.222   2.999
 4950TIP3   OH214813   5.900   2.204   2.221
 4950TIP3    H114814   5.989   2.176   2.242
 4950TIP3    H214815   5.845   2.164   2.289
 4951TIP3   OH214816   0.760   2.682   5.406
 4951TIP3    H114817   0.768   2.630   5.326
 4951TIP3    H214818   0.669   2.670   5.434
 4952TIP3   OH214819   4.697   3.141   0.588
 4952TIP3    H114820   4.671   3.058   0.627
 4952TIP3    H214821   4.624   3.164   0.530
 4953TIP3   OH214822   4.845   4.511   5.057
 4953TIP3    H114823   4.888   4.432   5.024
 4953TIP3    H214824   4.900   4.583   5.026
 4954TIP3   OH214825   4.524   0.117   5.264
 4954TIP3    H114826   4.462   0.159   5.323
 4954TIP3    H214827   4.578   0.061   5.320
 4955TIP3   OH214828   3.511   6.739   2.293
 4955TIP3    H114829   3.439   6.695   2.249
 4955TIP3    H214830   3.589   6.714   2.243
 4956TIP3   OH214831   1.245   1.616   2.041
 4956TIP3    H114832   1.181   1.546   2.056
 4956TIP3    H214833   1.192   1.690   2.010
 4957TIP3   OH214834   5.411   6.284   1.515
 4957TIP3    H114835   5.407   6.378   1.535
 4957TIP3    H214836   5.385   6.278   1.423
 4958TIP3   OH214837   1.789   6.264   4.962
 4958TIP3    H114838   1.875   6.230   4.989
 4958TIP3    H214839   1.731   6.188   4.967
 4959TIP3   OH214840   0.639   0.058   0.714
 4959TIP3    H114841   0.553   0.029   0.745
 4959TIP3    H214842   0.700   0.018   0.776
 4960TIP3   OH214843   4.348   3.254   5.495
 4960TIP3    H114844   4.415   3.283   5.557
 4960TIP3    H214845   4.270   3.241   5.548
 4961TIP3   OH214846   6.963   2.726   5.638
 4961TIP3    H114847   6.979   2.640   5.675
 4961TIP3    H214848   6.868   2.731   5.626
 4962TIP3   OH214849   4.478   5.265   4.705
 4962TIP3    H114850   4.416   5.236   4.772
 4962TIP3    H214851   4.497   5.356   4.728
 4963TIP3   OH214852   6.322   6.582   0.018
 4963TIP3    H114853   6.261   6.644  -0.020
 4963TIP3    H214854   6.268   6.508   0.045
 4964TIP3   OH214855   5.789   4.297   0.847
 4964TIP3    H114856   5.710   4.338   0.813
 4964TIP3    H214857   5.762   4.255   0.929
 4965TIP3   OH214858   5.014   0.976   0.717
 4965TIP3    H114859   4.922   0.997   0.703
 4965TIP3    H214860   5.061   1.055   0.691
 4966TIP3   OH214861   1.441   1.532   5.200
 4966TIP3    H114862   1.520   1.483   5.223
 4966TIP3    H214863   1.369   1.471   5.217
 4967TIP3   OH214864   6.082   2.705   3.694
 4967TIP3    H114865   6.068   2.636   3.629
 4967TIP3    H214866   5.998   2.712   3.740
 4968TIP3   OH214867   1.509   5.147   1.834
 4968TIP3    H114868   1.545   5.085   1.897
 4968TIP3    H214869   1.414   5.140   1.845
 4969TIP3   OH214870   2.948   1.673   5.493
 4969TIP3    H114871   2.950   1.577   5.491
 4969TIP3    H214872   2.877   1.697   5.434
 4970TIP3   OH214873   1.087   3.449   3.335
 4970TIP3    H114874   1.167   3.497   3.312
 4970TIP3    H214875   1.060   3.407   3.254
 4971TIP3   OH214876   6.618   5.257   2.119
 4971TIP3    H114877   6.579   5.344   2.128
 4971TIP3    H214878   6.696   5.271   2.066
 4972TIP3   OH214879   3.255   4.057   4.389
 4972TIP3    H114880   3.222   3.980   4.436
 4972TIP3    H214881   3.289   4.023   4.307
 4973TIP3   OH214882   3.579   1.762   5.712
 4973TIP3    H114883   3.573   1.702   5.785
 4973TIP3    H214884   3.671   1.759   5.685
 4974TIP3   OH214885   5.831   1.046   4.464
 4974TIP3    H114886   5.908   1.090   4.428
 4974TIP3    H214887   5.843   0.954   4.441
 4975TIP3   OH214888   4.477   4.014   2.423
 4975TIP3    H114889   4.561   3.972   2.445
 4975TIP3    H214890   4.454   4.062   2.502
 4976TIP3   OH214891   6.498   3.413   4.163
 4976TIP3    H114892   6.468   3.351   4.230
 4976TIP3    H214893   6.431   3.482   4.163
 4977TIP3   OH214894   5.726   2.073   2.389
 4977TIP3    H114895   5.718   2.062   2.483
 4977TIP3    H214896   5.689   1.993   2.352
 4978TIP3   OH214897   4.837   4.570   3.345
 4978TIP3    H114898   4.882   4.642   3.387
 4978TIP3    H214899   4.877   4.563   3.258
 4979TIP3   OH214900   1.686   2.178   3.399
 4979TIP3    H114901   1.697   2.180   3.494
 4979TIP3    H214902   1.775   2.168   3.365
 4980TIP3   OH214903   1.936   0.255   5.659
 4980TIP3    H114904   1.991   0.209   5.595
 4980TIP3    H214905   1.972   0.230   5.744
 4981TIP3   OH214906   0.728   6.708   3.844
 4981TIP3    H114907   0.633   6.697   3.848
 4981TIP3    H214908   0.755   6.719   3.935
 4982TIP3   OH214909   4.883   0.397   3.795
 4982TIP3    H114910   4.848   0.460   3.858
 4982TIP3    H214911   4.807   0.347   3.766
 4983TIP3   OH214912   4.762   6.458   0.071
 4983TIP3    H114913   4.845   6.492   0.037
 4983TIP3    H214914   4.715   6.427  -0.007
 4984TIP3   OH214915   6.295   4.617   3.710
 4984TIP3    H114916   6.303   4.551   3.779
 4984TIP3    H214917   6.337   4.695   3.746
 4985TIP3   OH214918   0.867   0.077   4.201
 4985TIP3    H114919   0.875   0.164   4.161
 4985TIP3    H214920   0.784   0.080   4.248
 4986TIP3   OH214921   6.427   3.756   4.456
 4986TIP3    H114922   6.408   3.826   4.519
 4986TIP3    H214923   6.424   3.800   4.371
 4987TIP3   OH214924   1.866   4.984   1.221
 4987TIP3    H114925   1.955   4.961   1.193
 4987TIP3    H214926   1.860   4.953   1.311
 4988TIP3   OH214927   3.666   1.550   5.383
 4988TIP3    H114928   3.593   1.502   5.422
 4988TIP3    H214929   3.720   1.576   5.458
 4989TIP3   OH214930   6.922   5.831   0.796
 4989TIP3    H114931   6.908   5.904   0.736
 4989TIP3    H214932   7.010   5.844   0.830
 4990TIP3   OH214933   3.739   5.559   4.527
 4990TIP3    H114934   3.695   5.637   4.493
 4990TIP3    H214935   3.735   5.569   4.622
 4991TIP3   OH214936   3.933   2.565   5.480
 4991TIP3    H114937   4.013   2.511   5.485
 4991TIP3    H214938   3.889   2.536   5.401
 4992TIP3   OH214939   0.444   4.824   3.920
 4992TIP3    H114940   0.378   4.790   3.860
 4992TIP3    H214941   0.462   4.912   3.889
 4993TIP3   OH214942   2.433   3.653   1.252
 4993TIP3    H114943   2.427   3.581   1.190
 4993TIP3    H214944   2.348   3.698   1.245
 4994TIP3   OH214945   7.043   5.793   5.289
 4994TIP3    H114946   7.097   5.733   5.341
 4994TIP3    H214947   7.046   5.756   5.200
 4995TIP3   OH214948   3.522   6.345   0.340
 4995TIP3    H114949   3.441   6.295   0.340
 4995TIP3    H214950   3.548   6.349   0.248
 4996TIP3   OH214951   4.856   6.655   5.818
 4996TIP3    H114952   4.875   6.701   5.736
 4996TIP3    H214953   4.908   6.574   5.812
 4997TIP3   OH214954   5.880   4.552   1.454
 4997TIP3    H114955   5.908   4.460   1.449
 4997TIP3    H214956   5.813   4.553   1.522
 4998TIP3   OH214957   6.071   1.567   4.124
 4998TIP3    H114958   6.044   1.608   4.206
 4998TIP3    H214959   6.076   1.640   4.061
 4999TIP3   OH214960   2.113   2.083   2.754
 4999TIP3    H114961   2.155   2.086   2.840
 4999TIP3    H214962   2.023   2.113   2.771
 5000TIP3   OH214963   6.688   2.874   4.050
 5000TIP3    H114964   6.767   2.821   4.044
 5000TIP3    H214965   6.716   2.961   4.021
 5001TIP3   OH214966   1.340   4.881   0.237
 5001TIP3    H114967   1.287   4.951   0.276
 5001TIP3    H214968   1.282   4.805   0.238
 5002TIP3   OH214969   6.090   4.449   5.516
 5002TIP3    H114970   6.168   4.491   5.481
 5002TIP3    H214971   6.026   4.520   5.525
 5003TIP3   OH214972   5.057   3.304   3.102
 5003TIP3    H114973   5.125   3.276   3.163
 5003TIP3    H214974   5.034   3.225   3.054
 5004TIP3   OH214975   1.757   5.942   3.542
 5004TIP3    H114976   1.824   5.949   3.474
 5004TIP3    H214977   1.805   5.938   3.624
 5005TIP3   OH214978   1.311   3.217   1.496
 5005TIP3    H114979   1.357   3.295   1.527
 5005TIP3    H214980   1.380   3.161   1.461
 5006TIP3   OH214981   3.777   6.639   3.570
 5006TIP3    H114982   3.764   6.720   3.519
 5006TIP3    H214983   3.828   6.666   3.646
 5007TIP3   OH214984   4.950   3.001   0.287
 5007TIP3    H114985   5.032   3.038   0.254
 5007TIP3    H214986   4.930   2.930   0.226
 5008TIP3   OH214987   5.033   5.444   3.030
 5008TIP3    H114988   5.017   5.412   2.941
 5008TIP3    H214989   5.129   5.449   3.037
 5009TIP3   OH214990   1.030   1.406   3.486
 5009TIP3    H114991   0.944   1.400   3.444
 5009TIP3    H214992   1.090   1.365   3.423
 5010TIP3   OH214993   2.087   6.712   5.077
 5010TIP3    H114994   2.059   6.734   5.166
 5010TIP3    H214995   2.141   6.787   5.050
 5011TIP3   OH214996   1.597   5.082   0.935
 5011TIP3    H114997   1.554   5.059   0.852
 5011TIP3    H214998   1.671   5.022   0.941
 5012TIP3   OH214999   3.203   4.986   0.402
 5012TIP3    H115000   3.292   4.967   0.431
 5012TIP3    H215001   3.205   4.973   0.307
 5013TIP3   OH215002   1.230   4.788   3.609
 5013TIP3    H115003   1.298   4.723   3.628
 5013TIP3    H215004   1.151   4.735   3.594
 5014TIP3   OH215005   5.547   1.933   0.170
 5014TIP3    H115006   5.457   1.954   0.193
 5014TIP3    H215007   5.597   1.951   0.249
 5015TIP3   OH215008   1.430   2.618   1.243
 5015TIP3    H115009   1.371   2.545   1.259
 5015TIP3    H215010   1.430   2.668   1.325
 5016TIP3   OH215011   2.542   6.538   4.727
 5016TIP3    H115012   2.626   6.554   4.683
 5016TIP3    H215013   2.557   6.459   4.780
 5017TIP3   OH215014   0.913   2.962   2.289
 5017TIP3    H115015   0.822   2.980   2.314
 5017TIP3    H215016   0.960   3.042   2.313
 5018TIP3   OH215017   2.609   0.211   3.588
 5018TIP3    H115018   2.514   0.209   3.597
 5018TIP3    H215019   2.635   0.296   3.624
 5019TIP3   OH215020   1.834   2.091   0.617
 5019TIP3    H115021   1.775   2.133   0.554
 5019TIP3    H215022   1.776   2.064   0.688
 5020TIP3   OH215023   1.093   2.896   3.294
 5020TIP3    H115024   1.156   2.967   3.302
 5020TIP3    H215025   1.012   2.938   3.267
 5021TIP3   OH215026   2.355   3.189   4.839
 5021TIP3    H115027   2.307   3.175   4.758
 5021TIP3    H215028   2.302   3.252   4.887
 5022TIP3   OH215029   5.598   3.041   0.510
 5022TIP3    H115030   5.503   3.055   0.505
 5022TIP3    H215031   5.635   3.117   0.464
 5023TIP3   OH215032   2.262   6.041   0.923
 5023TIP3    H115033   2.353   6.012   0.928
 5023TIP3    H215034   2.251   6.099   0.999
 5024TIP3   OH215035   5.117   2.101   3.378
 5024TIP3    H115036   5.169   2.178   3.358
 5024TIP3    H215037   5.152   2.032   3.322
 5025TIP3   OH215038   6.973   6.346   4.415
 5025TIP3    H115039   6.955   6.339   4.321
 5025TIP3    H215040   6.902   6.296   4.457
 5026TIP3   OH215041   6.991   0.163   1.513
 5026TIP3    H115042   6.938   0.185   1.589
 5026TIP3    H215043   6.960   0.076   1.487
 5027TIP3   OH215044   0.337   0.689   5.056
 5027TIP3    H115045   0.317   0.780   5.077
 5027TIP3    H215046   0.252   0.645   5.060
 5028TIP3   OH215047   2.558   6.784   4.140
 5028TIP3    H115048   2.515   6.721   4.083
 5028TIP3    H215049   2.576   6.736   4.221
 5029TIP3   OH215050   2.997   1.621   3.577
 5029TIP3    H115051   3.069   1.579   3.623
 5029TIP3    H215052   3.021   1.714   3.574
 5030TIP3   OH215053   1.788   6.352   0.726
 5030TIP3    H115054   1.742   6.272   0.702
 5030TIP3    H215055   1.849   6.325   0.794
 5031TIP3   OH215056   1.817   4.069   4.837
 5031TIP3    H115057   1.776   3.983   4.848
 5031TIP3    H215058   1.800   4.093   4.746
 5032TIP3   OH215059   4.479   5.666   2.789
 5032TIP3    H115060   4.413   5.731   2.813
 5032TIP3    H215061   4.431   5.600   2.740
 5033TIP3   OH215062   2.222   5.624   5.513
 5033TIP3    H115063   2.202   5.653   5.424
 5033TIP3    H215064   2.288   5.555   5.502
 5034TIP3   OH215065   5.143   0.069   1.227
 5034TIP3    H115066   5.147   0.045   1.135
 5034TIP3    H215067   5.145  -0.014   1.274
 5035TIP3   OH215068   6.023   0.653   0.802
 5035TIP3    H115069   6.040   0.595   0.876
 5035TIP3    H215070   6.029   0.596   0.725
 5036TIP3   OH215071   2.987   1.086   5.369
 5036TIP3    H115072   3.070   1.040   5.383
 5036TIP3    H215073   2.930   1.022   5.327
 5037TIP3   OH215074   0.137   5.367   4.947
 5037TIP3    H115075   0.177   5.428   5.009
 5037TIP3    H215076   0.052   5.345   4.986
 5038TIP3   OH215077   6.604   4.794   0.582
 5038TIP3    H115078   6.527   4.801   0.638
 5038TIP3    H215079   6.663   4.736   0.630
 5039TIP3   OH215080   5.871   4.548   2.259
 5039TIP3    H115081   5.844   4.464   2.222
 5039TIP3    H215082   5.908   4.596   2.185
 5040TIP3   OH215083   2.609   5.637   0.264
 5040TIP3    H115084   2.530   5.600   0.225
 5040TIP3    H215085   2.629   5.713   0.210
 5041TIP3   OH215086   6.672   6.699   5.490
 5041TIP3    H115087   6.764   6.704   5.462
 5041TIP3    H215088   6.634   6.782   5.460
 5042TIP3   OH215089   2.864   2.569   4.036
 5042TIP3    H115090   2.929   2.523   4.088
 5042TIP3    H215091   2.907   2.652   4.013
 5043TIP3   OH215092   4.872   6.389   3.830
 5043TIP3    H115093   4.906   6.473   3.861
 5043TIP3    H215094   4.786   6.411   3.793
 5044TIP3   OH215095   2.257   0.337   5.443
 5044TIP3    H115096   2.338   0.380   5.471
 5044TIP3    H215097   2.196   0.409   5.427
 5045TIP3   OH215098   4.957   6.706   2.704
 5045TIP3    H115099   4.992   6.759   2.776
 5045TIP3    H215100   4.930   6.624   2.745
 5046TIP3   OH215101   0.862   1.512   2.308
 5046TIP3    H115102   0.850   1.574   2.379
 5046TIP3    H215103   0.774   1.480   2.289
 5047TIP3   OH215104   3.275   1.296   1.233
 5047TIP3    H115105   3.347   1.244   1.270
 5047TIP3    H215106   3.253   1.358   1.303
 5048TIP3   OH215107   5.326   4.365   0.289
 5048TIP3    H115108   5.369   4.325   0.213
 5048TIP3    H215109   5.398   4.395   0.345
 5049TIP3   OH215110   2.879   3.528   2.185
 5049TIP3    H115111   2.872   3.609   2.236
 5049TIP3    H215112   2.935   3.472   2.237
 5050TIP3   OH215113   3.128   0.270   4.216
 5050TIP3    H115114   3.130   0.260   4.121
 5050TIP3    H215115   3.197   0.333   4.236
 5051TIP3   OH215116   4.130   1.870   1.050
 5051TIP3    H115117   4.154   1.945   1.105
 5051TIP3    H215118   4.165   1.794   1.095
 5052TIP3   OH215119   2.392   5.043   3.666
 5052TIP3    H115120   2.347   5.025   3.748
 5052TIP3    H215121   2.322   5.052   3.602
 5053TIP3   OH215122   0.544   6.528   0.075
 5053TIP3    H115123   0.489   6.603   0.098
 5053TIP3    H215124   0.630   6.566   0.059
 5054TIP3   OH215125   2.716   3.702   2.691
 5054TIP3    H115126   2.648   3.654   2.644
 5054TIP3    H215127   2.784   3.636   2.708
 5055TIP3   OH215128   6.608   1.734   5.758
 5055TIP3    H115129   6.643   1.758   5.673
 5055TIP3    H215130   6.674   1.763   5.821
 5056TIP3   OH215131   6.097   6.747   0.617
 5056TIP3    H115132   6.120   6.692   0.541
 5056TIP3    H215133   6.002   6.753   0.613
 5057TIP3   OH215134   3.866   3.084   2.937
 5057TIP3    H115135   3.829   3.136   2.865
 5057TIP3    H215136   3.911   3.148   2.992
 5058TIP3   OH215137   2.248   5.472   0.975
 5058TIP3    H115138   2.277   5.508   0.892
 5058TIP3    H215139   2.319   5.413   1.002
 5059TIP3   OH215140   3.331   2.761   3.479
 5059TIP3    H115141   3.423   2.765   3.451
 5059TIP3    H215142   3.326   2.680   3.530
 5060TIP3   OH215143   1.198   0.272   4.164
 5060TIP3    H115144   1.191   0.362   4.131
 5060TIP3    H215145   1.178   0.217   4.088
 5061TIP3   OH215146   5.308   5.529   1.237
 5061TIP3    H115147   5.240   5.546   1.303
 5061TIP3    H215148   5.312   5.434   1.231
 5062TIP3   OH215149   6.131   3.835   0.925
 5062TIP3    H115150   6.149   3.907   0.865
 5062TIP3    H215151   6.114   3.877   1.009
 5063TIP3   OH215152   2.972   3.644   0.114
 5063TIP3    H115153   2.943   3.703   0.184
 5063TIP3    H215154   2.988   3.702   0.039
 5064TIP3   OH215155   3.568   0.810   2.330
 5064TIP3    H115156   3.662   0.818   2.312
 5064TIP3    H215157   3.533   0.898   2.312
 5065TIP3   OH215158   2.894   2.843   4.511
 5065TIP3    H115159   2.851   2.899   4.446
 5065TIP3    H215160   2.948   2.784   4.459
 5066TIP3   OH215161   2.952   6.199   2.466
 5066TIP3    H115162   3.019   6.131   2.470
 5066TIP3    H215163   2.870   6.153   2.485
 5067TIP3   OH215164   1.201   6.173   0.070
 5067TIP3    H115165   1.180   6.246   0.128
 5067TIP3    H215166   1.124   6.116   0.074
 5068TIP3   OH215167   3.639   2.664   3.556
 5068TIP3    H115168   3.650   2.758   3.539
 5068TIP3    H215169   3.600   2.661   3.643
 5069TIP3   OH215170   5.680   1.008   4.059
 5069TIP3    H115171   5.626   1.009   4.138
 5069TIP3    H215172   5.618   1.014   3.986
 5070TIP3   OH215173   0.251   0.615   1.646
 5070TIP3    H115174   0.323   0.663   1.607
 5070TIP3    H215175   0.191   0.683   1.677
 5071TIP3   OH215176   3.062   6.177   0.132
 5071TIP3    H115177   3.005   6.144   0.201
 5071TIP3    H215178   3.055   6.272   0.137
 5072TIP3   OH215179   5.596   1.222   2.636
 5072TIP3    H115180   5.588   1.195   2.727
 5072TIP3    H215181   5.612   1.141   2.588
 5073TIP3   OH215182   7.165   0.173   0.484
 5073TIP3    H115183   7.072   0.151   0.473
 5073TIP3    H215184   7.165   0.250   0.541
 5074TIP3   OH215185   2.739   3.818   2.004
 5074TIP3    H115186   2.722   3.751   1.937
 5074TIP3    H215187   2.828   3.848   1.985
 5075TIP3   OH215188   0.106   0.796   1.377
 5075TIP3    H115189   0.088   0.862   1.444
 5075TIP3    H215190   0.033   0.734   1.384
 5076TIP3   OH215191   1.700   0.503   1.075
 5076TIP3    H115192   1.648   0.467   1.004
 5076TIP3    H215193   1.680   0.447   1.151
 5077TIP3   OH215194   3.796   6.291   3.153
 5077TIP3    H115195   3.871   6.348   3.171
 5077TIP3    H215196   3.745   6.291   3.234
 5078TIP3   OH215197   1.173   0.968   3.295
 5078TIP3    H115198   1.159   0.892   3.351
 5078TIP3    H215199   1.264   0.993   3.311
 5079TIP3   OH215200   3.090   5.042   5.068
 5079TIP3    H115201   3.154   5.092   5.017
 5079TIP3    H215202   3.135   4.961   5.090
 5080TIP3   OH215203   6.362   5.438   5.111
 5080TIP3    H115204   6.318   5.391   5.040
 5080TIP3    H215205   6.427   5.493   5.066
 5081TIP3   OH215206   6.836   0.562   1.378
 5081TIP3    H115207   6.772   0.602   1.436
 5081TIP3    H215208   6.788   0.492   1.333
 5082TIP3   OH215209   3.539   1.119   5.101
 5082TIP3    H115210   3.599   1.116   5.176
 5082TIP3    H215211   3.590   1.086   5.027
 5083TIP3   OH215212   7.112   6.219   5.747
 5083TIP3    H115213   7.076   6.306   5.762
 5083TIP3    H215214   7.184   6.212   5.809
 5084TIP3   OH215215   4.947   6.185   1.503
 5084TIP3    H115216   4.890   6.239   1.449
 5084TIP3    H215217   4.999   6.134   1.441
 5085TIP3   OH215218   4.922   4.033   5.241
 5085TIP3    H115219   5.012   4.065   5.245
 5085TIP3    H215220   4.888   4.067   5.158
 5086TIP3   OH215221   4.760   3.799   5.590
 5086TIP3    H115222   4.778   3.705   5.592
 5086TIP3    H215223   4.678   3.807   5.542
 5087TIP3   OH215224   0.082   4.799   1.177
 5087TIP3    H115225   0.002   4.803   1.125
 5087TIP3    H215226   0.152   4.814   1.114
 5088TIP3   OH215227   5.177   0.748   5.466
 5088TIP3    H115228   5.196   0.720   5.377
 5088TIP3    H215229   5.250   0.713   5.518
 5089TIP3   OH215230   0.792   6.214   4.686
 5089TIP3    H115231   0.835   6.261   4.758
 5089TIP3    H215232   0.735   6.280   4.646
 5090TIP3   OH215233   6.287   5.417   4.048
 5090TIP3    H115234   6.323   5.505   4.057
 5090TIP3    H215235   6.363   5.359   4.047
 5091TIP3   OH215236   5.371   4.892   0.747
 5091TIP3    H115237   5.415   4.927   0.825
 5091TIP3    H215238   5.355   4.968   0.692
 5092TIP3   OH215239   6.296   1.824   5.846
 5092TIP3    H115240   6.274   1.826   5.939
 5092TIP3    H215241   6.258   1.904   5.810
 5093TIP3   OH215242   6.638   3.766   2.497
 5093TIP3    H115243   6.589   3.734   2.572
 5093TIP3    H215244   6.702   3.826   2.534
 5094TIP3   OH215245   4.296   3.574   0.920
 5094TIP3    H115246   4.220   3.518   0.937
 5094TIP3    H215247   4.345   3.527   0.852
 5095TIP3   OH215248   6.173   6.363   0.405
 5095TIP3    H115249   6.213   6.450   0.407
 5095TIP3    H215250   6.150   6.349   0.313
 5096TIP3   OH215251   3.417   1.925   5.913
 5096TIP3    H115252   3.413   1.880   5.829
 5096TIP3    H215253   3.479   1.996   5.900
 5097TIP3   OH215254   0.317   1.962   0.428
 5097TIP3    H115255   0.404   1.967   0.388
 5097TIP3    H215256   0.317   2.032   0.493
 5098TIP3   OH215257   1.118   3.675   3.155
 5098TIP3    H115258   1.034   3.630   3.156
 5098TIP3    H215259   1.165   3.638   3.080
 5099TIP3   OH215260   3.623   6.722   2.535
 5099TIP3    H115261   3.631   6.815   2.553
 5099TIP3    H215262   3.577   6.717   2.451
 5100TIP3   OH215263   3.548   5.464   3.939
 5100TIP3    H115264   3.639   5.480   3.966
 5100TIP3    H215265   3.505   5.431   4.018
 5101TIP3   OH215266   3.078   5.250   3.906
 5101TIP3    H115267   2.994   5.285   3.877
 5101TIP3    H215268   3.080   5.161   3.871
 5102TIP3   OH215269   4.370   2.538   4.941
 5102TIP3    H115270   4.444   2.542   5.001
 5102TIP3    H215271   4.410   2.528   4.854
 5103TIP3   OH215272   6.499   6.409   2.107
 5103TIP3    H115273   6.489   6.461   2.186
 5103TIP3    H215274   6.558   6.338   2.132
 5104TIP3   OH215275   1.588   0.137   5.079
 5104TIP3    H115276   1.617   0.169   5.164
 5104TIP3    H215277   1.492   0.139   5.083
 5105TIP3   OH215278   2.483   1.117   1.122
 5105TIP3    H115279   2.465   1.024   1.115
 5105TIP3    H215280   2.442   1.156   1.044
 5106TIP3   OH215281   2.614   5.839   0.050
 5106TIP3    H115282   2.597   5.766  -0.011
 5106TIP3    H215283   2.702   5.869   0.028
 5107TIP3   OH215284   4.292   1.455   5.506
 5107TIP3    H115285   4.293   1.485   5.597
 5107TIP3    H215286   4.203   1.473   5.476
 5108TIP3   OH215287   5.184   4.871   1.334
 5108TIP3    H115288   5.106   4.886   1.387
 5108TIP3    H215289   5.202   4.955   1.292
 5109TIP3   OH215290   3.677   6.075   1.269
 5109TIP3    H115291   3.738   6.131   1.221
 5109TIP3    H215292   3.635   6.022   1.202
 5110TIP3   OH215293   2.085   0.856   2.377
 5110TIP3    H115294   2.035   0.925   2.332
 5110TIP3    H215295   2.176   0.878   2.360
 5111TIP3   OH215296   5.167   6.588   0.188
 5111TIP3    H115297   5.125   6.574   0.103
 5111TIP3    H215298   5.202   6.677   0.183
 5112TIP3   OH215299   5.664   4.057   0.523
 5112TIP3    H115300   5.623   4.018   0.600
 5112TIP3    H215301   5.605   4.034   0.451
 5113TIP3   OH215302   3.447   2.487   5.089
 5113TIP3    H115303   3.459   2.414   5.029
 5113TIP3    H215304   3.352   2.492   5.102
 5114TIP3   OH215305   0.421   3.533   4.061
 5114TIP3    H115306   0.396   3.576   3.980
 5114TIP3    H215307   0.514   3.514   4.051
 5115TIP3   OH215308   6.692   5.555  -0.135
 5115TIP3    H115309   6.722   5.626  -0.078
 5115TIP3    H215310   6.712   5.475  -0.086
 5116TIP3   OH215311   1.400   4.762   0.852
 5116TIP3    H115312   1.489   4.783   0.879
 5116TIP3    H215313   1.351   4.758   0.934
 5117TIP3   OH215314   6.565   2.263   3.349
 5117TIP3    H115315   6.474   2.266   3.379
 5117TIP3    H215316   6.613   2.316   3.413
 5118TIP3   OH215317   0.992   0.890   1.162
 5118TIP3    H115318   0.943   0.862   1.239
 5118TIP3    H215319   1.032   0.809   1.128
 5119TIP3   OH215320   6.945   2.940   2.755
 5119TIP3    H115321   7.026   2.992   2.758
 5119TIP3    H215322   6.941   2.909   2.665
 5120TIP3   OH215323   6.298   6.366   3.639
 5120TIP3    H115324   6.265   6.455   3.625
 5120TIP3    H215325   6.230   6.322   3.689
 5121TIP3   OH215326   1.034   0.362   5.212
 5121TIP3    H115327   1.059   0.272   5.234
 5121TIP3    H215328   1.024   0.405   5.297
 5122TIP3   OH215329   0.023   3.787   2.707
 5122TIP3    H115330   0.084   3.823   2.772
 5122TIP3    H215331   0.041   3.693   2.707
 5123TIP3   OH215332   2.255   5.366   1.499
 5123TIP3    H115333   2.165   5.381   1.470
 5123TIP3    H215334   2.301   5.446   1.475
 5124TIP3   OH215335   0.217   5.118   3.066
 5124TIP3    H115336   0.273   5.117   3.143
 5124TIP3    H215337   0.171   5.202   3.071
 5125TIP3   OH215338   2.264   1.168   3.965
 5125TIP3    H115339   2.231   1.235   3.905
 5125TIP3    H215340   2.275   1.214   4.048
 5126TIP3   OH215341   7.087   2.917   0.668
 5126TIP3    H115342   7.022   2.851   0.691
 5126TIP3    H215343   7.151   2.870   0.615
 5127TIP3   OH215344   6.374   4.392   3.905
 5127TIP3    H115345   6.300   4.342   3.871
 5127TIP3    H215346   6.451   4.339   3.882
 5128TIP3   OH215347   1.876   5.961   4.998
 5128TIP3    H115348   1.945   5.944   4.934
 5128TIP3    H215349   1.828   5.879   5.004
 5129TIP3   OH215350   2.497   1.414   2.617
 5129TIP3    H115351   2.560   1.475   2.654
 5129TIP3    H215352   2.454   1.373   2.692
 5130TIP3   OH215353   6.098   2.564   1.113
 5130TIP3    H115354   6.081   2.470   1.105
 5130TIP3    H215355   6.119   2.593   1.024
 5131TIP3   OH215356   4.282   5.254   1.737
 5131TIP3    H115357   4.359   5.310   1.732
 5131TIP3    H215358   4.294   5.204   1.817
 5132TIP3   OH215359   5.514   3.959   4.892
 5132TIP3    H115360   5.598   3.929   4.860
 5132TIP3    H215361   5.515   4.054   4.879
 5133TIP3   OH215362   0.556   5.154   1.724
 5133TIP3    H115363   0.587   5.075   1.769
 5133TIP3    H215364   0.478   5.126   1.676
 5134TIP3   OH215365   5.298   1.396   3.185
 5134TIP3    H115366   5.381   1.400   3.137
 5134TIP3    H215367   5.232   1.382   3.117
 5135TIP3   OH215368   4.330   6.589   4.969
 5135TIP3    H115369   4.236   6.605   4.978
 5135TIP3    H215370   4.371   6.664   5.012
 5136TIP3   OH215371   5.106   0.591   5.229
 5136TIP3    H115372   5.075   0.512   5.185
 5136TIP3    H215373   5.027   0.628   5.270
 5137TIP3   OH215374   3.372   2.184   5.157
 5137TIP3    H115375   3.455   2.232   5.153
 5137TIP3    H215376   3.354   2.173   5.250
 5138TIP3   OH215377   1.599   1.721   0.968
 5138TIP3    H115378   1.676   1.700   1.021
 5138TIP3    H215379   1.527   1.726   1.031
 5139TIP3   OH215380   4.000   1.354   5.629
 5139TIP3    H115381   4.009   1.260   5.620
 5139TIP3    H215382   3.991   1.387   5.539
 5140TIP3   OH215383   5.462   4.115   2.766
 5140TIP3    H115384   5.528   4.170   2.807
 5140TIP3    H215385   5.485   4.114   2.673
 5141TIP3   OH215386   0.381   5.440   4.173
 5141TIP3    H115387   0.332   5.440   4.255
 5141TIP3    H215388   0.439   5.364   4.180
 5142TIP3   OH215389   1.296   5.691   2.001
 5142TIP3    H115390   1.340   5.606   1.998
 5142TIP3    H215391   1.325   5.735   1.921
 5143TIP3   OH215392   2.803   1.236   4.591
 5143TIP3    H115393   2.864   1.205   4.658
 5143TIP3    H215394   2.734   1.280   4.640
 5144TIP3   OH215395   6.939   1.074   5.057
 5144TIP3    H115396   6.974   1.162   5.074
 5144TIP3    H215397   6.971   1.021   5.130
 5145TIP3   OH215398   3.563   5.820   2.451
 5145TIP3    H115399   3.575   5.776   2.366
 5145TIP3    H215400   3.650   5.818   2.491
 5146TIP3   OH215401   2.995   2.400   4.503
 5146TIP3    H115402   3.002   2.306   4.489
 5146TIP3    H215403   2.904   2.421   4.483
 5147TIP3   OH215404   1.552   2.176   0.697
 5147TIP3    H115405   1.601   2.209   0.622
 5147TIP3    H215406   1.494   2.247   0.722
 5148TIP3   OH215407   1.529   4.772   1.862
 5148TIP3    H115408   1.532   4.849   1.918
 5148TIP3    H215409   1.550   4.699   1.921
 5149TIP3   OH215410   6.829   3.524   0.586
 5149TIP3    H115411   6.832   3.511   0.681
 5149TIP3    H215412   6.757   3.586   0.573
 5150TIP3   OH215413   6.805   2.983   1.263
 5150TIP3    H115414   6.794   3.069   1.303
 5150TIP3    H215415   6.773   2.922   1.329
 5151TIP3   OH215416   2.868   6.470   5.650
 5151TIP3    H115417   2.840   6.522   5.576
 5151TIP3    H215418   2.787   6.443   5.693
 5152TIP3   OH215419   4.001   4.235   0.474
 5152TIP3    H115420   3.954   4.154   0.457
 5152TIP3    H215421   3.956   4.300   0.420
 5153TIP3   OH215422   3.865   4.018   0.740
 5153TIP3    H115423   3.842   4.084   0.804
 5153TIP3    H215424   3.786   4.008   0.686
 5154TIP3   OH215425   3.482   4.684   3.058
 5154TIP3    H115426   3.568   4.648   3.035
 5154TIP3    H215427   3.446   4.713   2.975
 5155TIP3   OH215428   5.568   4.315   0.507
 5155TIP3    H115429   5.589   4.346   0.419
 5155TIP3    H215430   5.609   4.229   0.512
 5156TIP3   OH215431   1.425   5.590   1.556
 5156TIP3    H115432   1.408   5.533   1.630
 5156TIP3    H215433   1.461   5.532   1.489
 5157TIP3   OH215434   0.261   2.978   4.148
 5157TIP3    H115435   0.260   2.915   4.075
 5157TIP3    H215436   0.183   2.957   4.199
 5158TIP3   OH215437   0.202   1.149   4.555
 5158TIP3    H115438   0.144   1.206   4.505
 5158TIP3    H215439   0.144   1.081   4.590
 5159TIP3   OH215440   3.456   4.073   3.424
 5159TIP3    H115441   3.424   4.065   3.334
 5159TIP3    H215442   3.377   4.090   3.476
 5160TIP3   OH215443   2.816   6.790   2.975
 5160TIP3    H115444   2.874   6.769   2.902
 5160TIP3    H215445   2.828   6.719   3.037
 5161TIP3   OH215446   0.189   1.356   1.058
 5161TIP3    H115447   0.173   1.366   1.152
 5161TIP3    H215448   0.186   1.261   1.044
 5162TIP3   OH215449   4.125   5.770   2.361
 5162TIP3    H115450   4.163   5.684   2.342
 5162TIP3    H215451   4.040   5.769   2.317
 5163TIP3   OH215452   6.346   4.956   3.237
 5163TIP3    H115453   6.278   5.022   3.251
 5163TIP3    H215454   6.342   4.900   3.314
 5164TIP3   OH215455   2.797   2.202   1.526
 5164TIP3    H115456   2.743   2.218   1.449
 5164TIP3    H215457   2.746   2.140   1.578
 5165TIP3   OH215458   1.997   1.478   4.437
 5165TIP3    H115459   2.057   1.404   4.433
 5165TIP3    H215460   1.915   1.439   4.469
 5166TIP3   OH215461   4.875   0.110   5.256
 5166TIP3    H115462   4.809   0.059   5.209
 5166TIP3    H215463   4.918   0.046   5.314
 5167TIP3   OH215464   5.413   4.337   2.011
 5167TIP3    H115465   5.337   4.391   2.034
 5167TIP3    H215466   5.386   4.288   1.934
 5168TIP3   OH215467   5.565   5.632   2.052
 5168TIP3    H115468   5.581   5.717   2.012
 5168TIP3    H215469   5.470   5.620   2.048
 5169TIP3   OH215470   3.420   5.999   0.776
 5169TIP3    H115471   3.343   5.989   0.832
 5169TIP3    H215472   3.429   6.093   0.764
 5170TIP3   OH215473   4.981   4.503   5.327
 5170TIP3    H115474   4.912   4.502   5.261
 5170TIP3    H215475   4.935   4.506   5.410
 5171TIP3   OH215476   6.051   5.002   0.270
 5171TIP3    H115477   6.006   5.010   0.355
 5171TIP3    H215478   6.098   5.084   0.260
 5172TIP3   OH215479   7.053   6.696   5.621
 5172TIP3    H115480   7.134   6.681   5.571
 5172TIP3    H215481   7.064   6.784   5.657
 5173TIP3   OH215482   6.609   3.345   0.546
 5173TIP3    H115483   6.665   3.335   0.469
 5173TIP3    H215484   6.667   3.327   0.620
 5174TIP3   OH215485   6.952   4.825   0.815
 5174TIP3    H115486   6.965   4.750   0.756
 5174TIP3    H215487   6.923   4.896   0.758
 5175TIP3   OH215488   0.218   5.320   2.420
 5175TIP3    H115489   0.129   5.356   2.424
 5175TIP3    H215490   0.222   5.258   2.492
 5176TIP3   OH215491   2.526   6.773   2.678
 5176TIP3    H115492   2.604   6.717   2.680
 5176TIP3    H215493   2.469   6.732   2.613
 5177TIP3   OH215494   2.830   1.624   0.045
 5177TIP3    H115495   2.817   1.718   0.037
 5177TIP3    H215496   2.902   1.606  -0.016
 5178TIP3   OH215497   7.083   2.168   0.847
 5178TIP3    H115498   7.121   2.184   0.933
 5178TIP3    H215499   7.137   2.218   0.787
 5179TIP3   OH215500   0.003   2.983   2.828
 5179TIP3    H115501   0.081   3.039   2.821
 5179TIP3    H215502   0.018   2.914   2.763
 5180TIP3   OH215503   1.900   0.192   2.407
 5180TIP3    H115504   1.925   0.262   2.468
 5180TIP3    H215505   1.930   0.223   2.322
 5181TIP3   OH215506   5.829   3.925   4.198
 5181TIP3    H115507   5.889   3.986   4.242
 5181TIP3    H215508   5.877   3.842   4.196
 5182TIP3   OH215509   2.028   0.415   2.511
 5182TIP3    H115510   2.112   0.427   2.466
 5182TIP3    H215511   1.995   0.504   2.523
 5183TIP3   OH215512   6.659   3.975   3.871
 5183TIP3    H115513   6.639   4.065   3.847
 5183TIP3    H215514   6.609   3.922   3.810
 5184TIP3   OH215515   0.487   4.643   5.275
 5184TIP3    H115516   0.428   4.717   5.260
 5184TIP3    H215517   0.557   4.655   5.211
 5185TIP3   OH215518   1.862   1.985   1.334
 5185TIP3    H115519   1.948   1.951   1.308
 5185TIP3    H215520   1.830   2.032   1.257
 5186TIP3   OH215521   3.343   2.384   2.528
 5186TIP3    H115522   3.393   2.434   2.463
 5186TIP3    H215523   3.368   2.423   2.612
 5187TIP3   OH215524   0.699   4.999   3.645
 5187TIP3    H115525   0.790   5.031   3.651
 5187TIP3    H215526   0.706   4.916   3.598
 5188TIP3   OH215527   5.626   0.151   5.891
 5188TIP3    H115528   5.627   0.245   5.910
 5188TIP3    H215529   5.641   0.146   5.797
 5189TIP3   OH215530   3.335   5.818   5.599
 5189TIP3    H115531   3.306   5.860   5.518
 5189TIP3    H215532   3.263   5.759   5.622
 5190TIP3   OH215533   2.817   5.879   1.894
 5190TIP3    H115534   2.853   5.795   1.866
 5190TIP3    H215535   2.850   5.890   1.984
 5191TIP3   OH215536   2.663   0.302   0.904
 5191TIP3    H115537   2.693   0.231   0.962
 5191TIP3    H215538   2.568   0.299   0.911
 5192TIP3   OH215539   1.967   4.358   0.651
 5192TIP3    H115540   2.003   4.437   0.691
 5192TIP3    H215541   2.043   4.313   0.614
 5193TIP3   OH215542   2.355   4.796   2.891
 5193TIP3    H115543   2.417   4.770   2.822
 5193TIP3    H215544   2.407   4.796   2.971
 5194TIP3   OH215545   0.366   3.829   1.712
 5194TIP3    H115546   0.312   3.894   1.669
 5194TIP3    H215547   0.413   3.785   1.641
 5195TIP3   OH215548   5.382   0.133   1.665
 5195TIP3    H115549   5.468   0.123   1.705
 5195TIP3    H215550   5.327   0.068   1.709
 5196TIP3   OH215551   4.759   3.228   5.617
 5196TIP3    H115552   4.751   3.160   5.685
 5196TIP3    H215553   4.850   3.221   5.588
 5197TIP3   OH215554  -0.050   3.916   0.499
 5197TIP3    H115555   0.040   3.889   0.477
 5197TIP3    H215556  -0.058   4.004   0.462
 5198TIP3   OH215557   6.191   1.965   2.951
 5198TIP3    H115558   6.273   1.976   2.997
 5198TIP3    H215559   6.149   2.051   2.954
 5199TIP3   OH215560   0.372   2.606   2.929
 5199TIP3    H115561   0.413   2.623   2.844
 5199TIP3    H215562   0.438   2.630   2.994
 5200TIP3   OH215563   6.088   2.913   4.212
 5200TIP3    H115564   6.013   2.970   4.230
 5200TIP3    H215565   6.157   2.944   4.271
 5201TIP3   OH215566   5.517   4.525   3.826
 5201TIP3    H115567   5.495   4.599   3.769
 5201TIP3    H215568   5.586   4.558   3.883
 5202TIP3   OH215569   2.196   0.238   5.129
 5202TIP3    H115570   2.249   0.252   5.208
 5202TIP3    H215571   2.115   0.286   5.147
 5203TIP3   OH215572   5.459   1.292   4.106
 5203TIP3    H115573   5.401   1.352   4.153
 5203TIP3    H215574   5.507   1.247   4.175
 5204TIP3   OH215575   3.679   3.977   3.123
 5204TIP3    H115576   3.677   3.910   3.191
 5204TIP3    H215577   3.591   4.015   3.123
 5205TIP3   OH215578   3.228   2.875   0.622
 5205TIP3    H115579   3.251   2.792   0.664
 5205TIP3    H215580   3.163   2.851   0.556
 5206TIP3   OH215581   5.885   5.121   1.938
 5206TIP3    H115582   5.916   5.183   1.872
 5206TIP3    H215583   5.928   5.039   1.915
 5207TIP3   OH215584   0.699   0.450   5.047
 5207TIP3    H115585   0.754   0.432   5.123
 5207TIP3    H215586   0.667   0.364   5.019
 5208TIP3   OH215587   3.334   3.155   2.810
 5208TIP3    H115588   3.289   3.220   2.756
 5208TIP3    H215589   3.363   3.088   2.748
 5209TIP3   OH215590   4.477   0.914   1.808
 5209TIP3    H115591   4.409   0.976   1.835
 5209TIP3    H215592   4.485   0.926   1.714
 5210TIP3   OH215593   6.487   5.283   4.590
 5210TIP3    H115594   6.528   5.360   4.550
 5210TIP3    H215595   6.553   5.214   4.581
 5211TIP3   OH215596   4.109   2.656   0.416
 5211TIP3    H115597   4.053   2.651   0.494
 5211TIP3    H215598   4.191   2.692   0.448
 5212TIP3   OH215599   3.266   6.687   1.369
 5212TIP3    H115600   3.289   6.775   1.398
 5212TIP3    H215601   3.205   6.656   1.436
 5213TIP3   OH215602   1.130   0.973   0.526
 5213TIP3    H115603   1.129   0.962   0.431
 5213TIP3    H215604   1.100   0.889   0.560
 5214TIP3   OH215605   0.823   1.501   3.024
 5214TIP3    H115606   0.859   1.420   3.059
 5214TIP3    H215607   0.802   1.553   3.101
 5215TIP3   OH215608   1.201   6.485   4.242
 5215TIP3    H115609   1.148   6.477   4.163
 5215TIP3    H215610   1.199   6.579   4.263
 5216TIP3   OH215611   4.971   5.047   4.872
 5216TIP3    H115612   5.014   4.972   4.914
 5216TIP3    H215613   4.878   5.023   4.871
 5217TIP3   OH215614   1.157   3.460   1.417
 5217TIP3    H115615   1.084   3.471   1.478
 5217TIP3    H215616   1.140   3.376   1.374
 5218TIP3   OH215617   1.111   5.723   4.199
 5218TIP3    H115618   1.124   5.710   4.105
 5218TIP3    H215619   1.200   5.735   4.233
 5219TIP3   OH215620   5.610   1.843   3.522
 5219TIP3    H115621   5.702   1.818   3.513
 5219TIP3    H215622   5.570   1.769   3.567
 5220TIP3   OH215623   1.647   5.754   1.610
 5220TIP3    H115624   1.702   5.693   1.659
 5220TIP3    H215625   1.563   5.708   1.600
 5221TIP3   OH215626   4.910   6.758   0.672
 5221TIP3    H115627   4.923   6.726   0.582
 5221TIP3    H215628   4.912   6.853   0.664
 5222TIP3   OH215629   6.376   1.611   1.467
 5222TIP3    H115630   6.441   1.591   1.535
 5222TIP3    H215631   6.292   1.609   1.512
 5223TIP3   OH215632   1.260   3.728   1.106
 5223TIP3    H115633   1.294   3.659   1.163
 5223TIP3    H215634   1.177   3.753   1.145
 5224TIP3   OH215635   7.195   1.041   4.264
 5224TIP3    H115636   7.205   0.959   4.312
 5224TIP3    H215637   7.106   1.038   4.228
 5225TIP3   OH215638   4.317   2.787   2.184
 5225TIP3    H115639   4.284   2.708   2.142
 5225TIP3    H215640   4.339   2.760   2.273
 5226TIP3   OH215641   5.948   5.203   3.795
 5226TIP3    H115642   5.855   5.202   3.775
 5226TIP3    H215643   5.957   5.263   3.869
 5227TIP3   OH215644   6.060   6.050   5.388
 5227TIP3    H115645   5.980   6.075   5.342
 5227TIP3    H215646   6.073   5.958   5.366
 5228TIP3   OH215647   2.739   3.688   5.890
 5228TIP3    H115648   2.765   3.681   5.798
 5228TIP3    H215649   2.644   3.691   5.888
 5229TIP3   OH215650   0.484   0.096   5.555
 5229TIP3    H115651   0.542   0.097   5.631
 5229TIP3    H215652   0.414   0.158   5.577
 5230TIP3   OH215653   4.329   2.918   3.546
 5230TIP3    H115654   4.401   2.871   3.503
 5230TIP3    H215655   4.360   2.932   3.635
 5231TIP3   OH215656   7.082   4.930   1.736
 5231TIP3    H115657   7.151   4.883   1.783
 5231TIP3    H215658   7.056   5.001   1.795
 5232TIP3   OH215659   1.315   1.568   0.499
 5232TIP3    H115660   1.390   1.570   0.558
 5232TIP3    H215661   1.295   1.475   0.489
 5233TIP3   OH215662   5.630   5.647   3.485
 5233TIP3    H115663   5.577   5.567   3.484
 5233TIP3    H215664   5.719   5.616   3.471
 5234TIP3   OH215665   1.947   1.731   2.989
 5234TIP3    H115666   1.972   1.653   2.940
 5234TIP3    H215667   2.031   1.770   3.016
 5235TIP3   OH215668   0.493   1.573   2.075
 5235TIP3    H115669   0.523   1.513   2.143
 5235TIP3    H215670   0.412   1.610   2.110
 5236TIP3   OH215671   6.861   4.711   4.079
 5236TIP3    H115672   6.821   4.633   4.041
 5236TIP3    H215673   6.806   4.783   4.049
 5237TIP3   OH215674   5.982   0.236   5.108
 5237TIP3    H115675   5.940   0.297   5.047
 5237TIP3    H215676   6.075   0.260   5.106
 5238TIP3   OH215677   1.116   0.288   4.925
 5238TIP3    H115678   1.101   0.360   4.987
 5238TIP3    H215679   1.157   0.219   4.978
 5239TIP3   OH215680  -0.029   6.786   0.350
 5239TIP3    H115681   0.055   6.754   0.382
 5239TIP3    H215682  -0.007   6.863   0.297
 5240TIP3   OH215683   6.685   1.478   5.442
 5240TIP3    H115684   6.694   1.383   5.442
 5240TIP3    H215685   6.654   1.500   5.354
 5241TIP3   OH215686   7.196   3.654   2.091
 5241TIP3    H115687   7.157   3.587   2.033
 5241TIP3    H215688   7.266   3.608   2.137
 5242TIP3   OH215689   6.715   3.345   3.497
 5242TIP3    H115690   6.742   3.425   3.542
 5242TIP3    H215691   6.796   3.305   3.467
 5243TIP3   OH215692   6.139   4.900   0.032
 5243TIP3    H115693   6.094   4.935   0.110
 5243TIP3    H215694   6.147   4.806   0.050
 5244TIP3   OH215695   6.577   1.154   5.099
 5244TIP3    H115696   6.560   1.201   5.017
 5244TIP3    H215697   6.619   1.073   5.072
 5245TIP3   OH215698   5.218   1.128   2.888
 5245TIP3    H115699   5.207   1.038   2.856
 5245TIP3    H215700   5.312   1.139   2.896
 5246TIP3   OH215701   1.472   6.549   2.682
 5246TIP3    H115702   1.453   6.471   2.630
 5246TIP3    H215703   1.568   6.555   2.682
 5247TIP3   OH215704   4.412   0.889   3.950
 5247TIP3    H115705   4.400   0.846   4.034
 5247TIP3    H215706   4.507   0.899   3.941
 5248TIP3   OH215707   0.474   2.047   3.265
 5248TIP3    H115708   0.432   1.964   3.242
 5248TIP3    H215709   0.499   2.037   3.356
 5249TIP3   OH215710   5.591   6.252   5.465
 5249TIP3    H115711   5.623   6.164   5.480
 5249TIP3    H215712   5.522   6.264   5.531
 5250TIP3   OH215713   0.947   1.225   3.153
 5250TIP3    H115714   0.887   1.233   3.227
 5250TIP3    H215715   0.941   1.133   3.127
 5251TIP3   OH215716   1.013   2.018   4.046
 5251TIP3    H115717   1.004   2.110   4.071
 5251TIP3    H215718   0.923   1.984   4.043
 5252TIP3   OH215719   6.048   5.396   5.477
 5252TIP3    H115720   6.113   5.340   5.521
 5252TIP3    H215721   6.049   5.477   5.527
 5253TIP3   OH215722   7.127   5.533   3.375
 5253TIP3    H115723   7.058   5.497   3.320
 5253TIP3    H215724   7.198   5.469   3.370
 5254TIP3   OH215725   3.239   6.235   5.223
 5254TIP3    H115726   3.152   6.248   5.262
 5254TIP3    H215727   3.268   6.323   5.201
 5255TIP3   OH215728   0.857   6.124   5.163
 5255TIP3    H115729   0.883   6.216   5.169
 5255TIP3    H215730   0.932   6.081   5.121
 5256TIP3   OH215731   0.128   5.419   4.057
 5256TIP3    H115732   0.206   5.454   4.098
 5256TIP3    H215733   0.064   5.490   4.062
 5257TIP3   OH215734   2.208   5.778   3.926
 5257TIP3    H115735   2.247   5.825   4.000
 5257TIP3    H215736   2.277   5.719   3.896
 5258TIP3   OH215737   0.752   4.288   5.656
 5258TIP3    H115738   0.758   4.372   5.701
 5258TIP3    H215739   0.721   4.311   5.568
 5259TIP3   OH215740   5.955   5.088   5.466
 5259TIP3    H115741   6.014   5.147   5.419
 5259TIP3    H215742   5.926   5.138   5.542
 5260TIP3   OH215743   5.560   0.626   4.754
 5260TIP3    H115744   5.568   0.650   4.662
 5260TIP3    H215745   5.541   0.709   4.799
 5261TIP3   OH215746   6.845   4.122   2.040
 5261TIP3    H115747   6.901   4.167   1.977
 5261TIP3    H215748   6.756   4.135   2.007
 5262TIP3   OH215749   4.639   6.312   0.480
 5262TIP3    H115750   4.694   6.336   0.554
 5262TIP3    H215751   4.699   6.274   0.417
 5263TIP3   OH215752   5.173   4.611   4.217
 5263TIP3    H115753   5.260   4.650   4.228
 5263TIP3    H215754   5.161   4.606   4.122
 5264TIP3   OH215755   1.932   5.602   1.752
 5264TIP3    H115756   1.887   5.519   1.739
 5264TIP3    H215757   1.969   5.596   1.841
 5265TIP3   OH215758   6.066   2.410   5.376
 5265TIP3    H115759   5.975   2.410   5.346
 5265TIP3    H215760   6.110   2.473   5.319
 5266TIP3   OH215761   1.241   2.527   4.879
 5266TIP3    H115762   1.263   2.620   4.868
 5266TIP3    H215763   1.288   2.482   4.810
 5267TIP3   OH215764   4.927   4.177   4.784
 5267TIP3    H115765   4.979   4.139   4.713
 5267TIP3    H215766   4.980   4.250   4.816
 5268TIP3   OH215767   3.961   1.085   2.876
 5268TIP3    H115768   3.934   1.139   2.950
 5268TIP3    H215769   3.903   1.009   2.879
 5269TIP3   OH215770   1.843   6.380   4.726
 5269TIP3    H115771   1.806   6.465   4.704
 5269TIP3    H215772   1.817   6.365   4.817
 5270TIP3   OH215773   4.631   4.420   1.559
 5270TIP3    H115774   4.631   4.485   1.630
 5270TIP3    H215775   4.550   4.438   1.511
 5271TIP3   OH215776   4.617   2.415   5.664
 5271TIP3    H115777   4.591   2.344   5.606
 5271TIP3    H215778   4.557   2.409   5.738
 5272TIP3   OH215779   3.598   2.474   4.638
 5272TIP3    H115780   3.579   2.433   4.554
 5272TIP3    H215781   3.578   2.406   4.703
 5273TIP3   OH215782   1.036   6.680   2.746
 5273TIP3    H115783   1.123   6.696   2.708
 5273TIP3    H215784   1.046   6.599   2.796
 5274TIP3   OH215785   6.752   2.757   0.592
 5274TIP3    H115786   6.739   2.666   0.564
 5274TIP3    H215787   6.828   2.753   0.649
 5275TIP3   OH215788   1.417   6.302   2.534
 5275TIP3    H115789   1.381   6.215   2.518
 5275TIP3    H215790   1.391   6.352   2.456
 5276TIP3   OH215791  -0.029   1.938   4.050
 5276TIP3    H115792   0.033   1.989   3.998
 5276TIP3    H215793   0.026   1.873   4.094
 5277TIP3   OH215794   4.430   5.742   5.311
 5277TIP3    H115795   4.425   5.663   5.258
 5277TIP3    H215796   4.430   5.814   5.247
 5278TIP3   OH215797   2.754   5.983   2.606
 5278TIP3    H115798   2.687   5.956   2.668
 5278TIP3    H215799   2.826   5.921   2.619
 5279TIP3   OH215800   2.235   0.493   1.518
 5279TIP3    H115801   2.246   0.564   1.454
 5279TIP3    H215802   2.323   0.455   1.527
 5280TIP3   OH215803   3.404   5.866   4.334
 5280TIP3    H115804   3.497   5.844   4.336
 5280TIP3    H215805   3.373   5.849   4.423
 5281TIP3   OH215806   4.321   0.445   0.095
 5281TIP3    H115807   4.370   0.373   0.134
 5281TIP3    H215808   4.372   0.469   0.017
 5282TIP3   OH215809   6.264   4.629   2.483
 5282TIP3    H115810   6.237   4.711   2.444
 5282TIP3    H215811   6.305   4.581   2.411
 5283TIP3   OH215812   2.628   4.861   0.597
 5283TIP3    H115813   2.585   4.943   0.621
 5283TIP3    H215814   2.559   4.810   0.553
 5284TIP3   OH215815   6.147   5.315   4.944
 5284TIP3    H115816   6.071   5.300   5.000
 5284TIP3    H215817   6.125   5.396   4.896
 5285TIP3   OH215818   5.072   0.246   2.336
 5285TIP3    H115819   4.992   0.236   2.387
 5285TIP3    H215820   5.083   0.162   2.292
 5286TIP3   OH215821   5.329   6.134   4.834
 5286TIP3    H115822   5.268   6.061   4.828
 5286TIP3    H215823   5.290   6.203   4.781
 5287TIP3   OH215824   1.462   6.373   4.614
 5287TIP3    H115825   1.516   6.376   4.693
 5287TIP3    H215826   1.397   6.306   4.632
 5288TIP3   OH215827   6.003   4.771   5.075
 5288TIP3    H115828   5.953   4.737   5.001
 5288TIP3    H215829   5.938   4.815   5.130
 5289TIP3   OH215830   2.654   4.145   1.281
 5289TIP3    H115831   2.692   4.201   1.348
 5289TIP3    H215832   2.618   4.206   1.216
 5290TIP3   OH215833   2.847   2.558   5.092
 5290TIP3    H115834   2.880   2.470   5.108
 5290TIP3    H215835   2.880   2.580   5.005
 5291TIP3   OH215836   3.706   1.259   4.068
 5291TIP3    H115837   3.720   1.340   4.019
 5291TIP3    H215838   3.769   1.262   4.140
 5292TIP3   OH215839   3.491   3.733   4.016
 5292TIP3    H115840   3.425   3.664   4.020
 5292TIP3    H215841   3.467   3.793   4.087
 5293TIP3   OH215842   3.203   4.046   1.935
 5293TIP3    H115843   3.161   4.093   1.863
 5293TIP3    H215844   3.227   4.113   1.998
 5294TIP3   OH215845   0.927   3.727   0.310
 5294TIP3    H115846   1.008   3.729   0.361
 5294TIP3    H215847   0.930   3.645   0.261
 5295TIP3   OH215848   3.881   5.741   1.617
 5295TIP3    H115849   3.856   5.689   1.693
 5295TIP3    H215850   3.806   5.799   1.601
 5296TIP3   OH215851   4.122   2.105   2.023
 5296TIP3    H115852   4.111   2.018   2.062
 5296TIP3    H215853   4.160   2.087   1.937
 5297TIP3   OH215854   2.532   0.753   3.811
 5297TIP3    H115855   2.530   0.824   3.876
 5297TIP3    H215856   2.441   0.744   3.782
 5298TIP3   OH215857   0.356   2.864   0.898
 5298TIP3    H115858   0.433   2.816   0.867
 5298TIP3    H215859   0.335   2.823   0.982
 5299TIP3   OH215860   6.263   2.549   4.744
 5299TIP3    H115861   6.323   2.515   4.810
 5299TIP3    H215862   6.313   2.616   4.697
 5300TIP3   OH215863   3.537   2.746   5.032
 5300TIP3    H115864   3.620   2.734   4.986
 5300TIP3    H215865   3.493   2.661   5.024
 5301TIP3   OH215866   6.413   5.776   5.442
 5301TIP3    H115867   6.455   5.858   5.469
 5301TIP3    H215868   6.471   5.707   5.475
 5302TIP3   OH215869   2.938   2.547   3.345
 5302TIP3    H115870   2.987   2.499   3.279
 5302TIP3    H215871   2.978   2.634   3.346
 5303TIP3   OH215872   4.571   0.523   0.671
 5303TIP3    H115873   4.613   0.600   0.709
 5303TIP3    H215874   4.486   0.554   0.641
 5304TIP3   OH215875   0.190   5.418   2.116
 5304TIP3    H115876   0.195   5.435   2.210
 5304TIP3    H215877   0.096   5.409   2.098
 5305TIP3   OH215878   1.745   4.933   5.260
 5305TIP3    H115879   1.748   4.856   5.204
 5305TIP3    H215880   1.833   4.939   5.298
 5306TIP3   OH215881   0.600   1.238   2.974
 5306TIP3    H115882   0.666   1.251   2.906
 5306TIP3    H215883   0.573   1.326   2.999
 5307TIP3   OH215884   6.248   3.721   5.197
 5307TIP3    H115885   6.228   3.769   5.117
 5307TIP3    H215886   6.329   3.673   5.176
 5308TIP3   OH215887   1.992   4.600   1.962
 5308TIP3    H115888   1.987   4.658   2.037
 5308TIP3    H215889   2.080   4.564   1.966
 5309TIP3   OH215890   1.308   4.373   3.741
 5309TIP3    H115891   1.351   4.434   3.681
 5309TIP3    H215892   1.296   4.423   3.822
 5310TIP3   OH215893   2.892   6.669   3.486
 5310TIP3    H115894   2.922   6.583   3.515
 5310TIP3    H215895   2.945   6.731   3.536
 5311TIP3   OH215896   0.882   3.564   3.093
 5311TIP3    H115897   0.933   3.527   3.021
 5311TIP3    H215898   0.793   3.531   3.080
 5312TIP3   OH215899   1.635   4.486   2.623
 5312TIP3    H115900   1.571   4.429   2.666
 5312TIP3    H215901   1.592   4.513   2.542
 5313TIP3   OH215902   0.562   0.479   1.438
 5313TIP3    H115903   0.545   0.397   1.392
 5313TIP3    H215904   0.484   0.533   1.421
 5314TIP3   OH215905   7.032   0.778   2.436
 5314TIP3    H115906   7.111   0.774   2.382
 5314TIP3    H215907   7.031   0.868   2.470
 5315TIP3   OH215908   5.532   5.988   2.328
 5315TIP3    H115909   5.519   5.912   2.384
 5315TIP3    H215910   5.599   5.960   2.265
 5316TIP3   OH215911   5.669   4.841   1.288
 5316TIP3    H115912   5.677   4.936   1.290
 5316TIP3    H215913   5.728   4.810   1.358
 5317TIP3   OH215914   0.642   2.127   1.505
 5317TIP3    H115915   0.572   2.096   1.563
 5317TIP3    H215916   0.701   2.052   1.496
 5318TIP3   OH215917   6.291   6.063   1.068
 5318TIP3    H115918   6.326   6.045   1.155
 5318TIP3    H215919   6.351   6.019   1.008
 5319TIP3   OH215920   1.349   4.935   4.012
 5319TIP3    H115921   1.256   4.938   3.987
 5319TIP3    H215922   1.349   4.897   4.100
 5320TIP3   OH215923   6.788   5.344   5.564
 5320TIP3    H115924   6.830   5.428   5.581
 5320TIP3    H215925   6.818   5.319   5.477
 5321TIP3   OH215926   6.081   5.893   3.600
 5321TIP3    H115927   6.147   5.942   3.648
 5321TIP3    H215928   6.003   5.895   3.655
 5322TIP3   OH215929   2.668   2.312   2.900
 5322TIP3    H115930   2.583   2.273   2.882
 5322TIP3    H215931   2.731   2.242   2.883
 5323TIP3   OH215932   6.902   6.236   3.063
 5323TIP3    H115933   6.912   6.155   3.013
 5323TIP3    H215934   6.941   6.217   3.148
 5324TIP3   OH215935   5.098   2.662   1.960
 5324TIP3    H115936   5.057   2.599   2.018
 5324TIP3    H215937   5.162   2.708   2.014
 5325TIP3   OH215938   3.771   5.781   2.841
 5325TIP3    H115939   3.866   5.795   2.833
 5325TIP3    H215940   3.751   5.721   2.769
 5326TIP3   OH215941   1.519   1.992   1.283
 5326TIP3    H115942   1.573   1.927   1.327
 5326TIP3    H215943   1.567   2.013   1.203
 5327TIP3   OH215944   6.438   0.158   2.848
 5327TIP3    H115945   6.367   0.113   2.894
 5327TIP3    H215946   6.513   0.099   2.855
 5328TIP3   OH215947   6.704   4.043   4.248
 5328TIP3    H115948   6.762   4.058   4.323
 5328TIP3    H215949   6.755   3.990   4.187
 5329TIP3   OH215950   3.101   2.693   4.962
 5329TIP3    H115951   3.042   2.636   4.912
 5329TIP3    H215952   3.185   2.686   4.917
 5330TIP3   OH215953   2.942   2.882   0.102
 5330TIP3    H115954   2.963   2.793   0.072
 5330TIP3    H215955   2.885   2.869   0.177
 5331TIP3   OH215956   5.572   6.382   0.891
 5331TIP3    H115957   5.629   6.368   0.966
 5331TIP3    H215958   5.535   6.469   0.905
 5332TIP3   OH215959   2.149   0.486   4.550
 5332TIP3    H115960   2.152   0.524   4.638
 5332TIP3    H215961   2.225   0.524   4.505
 5333TIP3   OH215962   5.447  -0.003   3.669
 5333TIP3    H115963   5.501  -0.029   3.744
 5333TIP3    H215964   5.510   0.029   3.605
 5334TIP3   OH215965   2.296   2.463   1.944
 5334TIP3    H115966   2.265   2.372   1.939
 5334TIP3    H215967   2.376   2.464   1.892
 5335TIP3   OH215968   1.621   2.335   1.291
 5335TIP3    H115969   1.532   2.324   1.258
 5335TIP3    H215970   1.675   2.284   1.231
 5336TIP3   OH215971   5.891   2.682   1.856
 5336TIP3    H115972   5.832   2.744   1.815
 5336TIP3    H215973   5.841   2.600   1.859
 5337TIP3   OH215974   0.516   4.664   1.925
 5337TIP3    H115975   0.447   4.622   1.977
 5337TIP3    H215976   0.472   4.690   1.844
 5338TIP3   OH215977   0.340   2.268   0.197
 5338TIP3    H115978   0.424   2.229   0.221
 5338TIP3    H215979   0.362   2.355   0.164
 5339TIP3   OH215980   6.497   4.858   4.042
 5339TIP3    H115981   6.567   4.912   4.078
 5339TIP3    H215982   6.540   4.778   4.013
 5340TIP3   OH215983   0.208   3.296   0.649
 5340TIP3    H115984   0.212   3.207   0.612
 5340TIP3    H215985   0.293   3.334   0.628
 5341TIP3   OH215986   6.470   3.692   2.690
 5341TIP3    H115987   6.411   3.657   2.624
 5341TIP3    H215988   6.416   3.751   2.743
 5342TIP3   OH215989   2.097   3.595   0.923
 5342TIP3    H115990   2.140   3.681   0.918
 5342TIP3    H215991   2.012   3.613   0.965
 5343TIP3   OH215992   1.969   0.490   3.275
 5343TIP3    H115993   1.976   0.488   3.370
 5343TIP3    H215994   2.049   0.447   3.244
 5344TIP3   OH215995   4.589   0.594   4.708
 5344TIP3    H115996   4.557   0.593   4.797
 5344TIP3    H215997   4.519   0.634   4.657
 5345TIP3   OH215998   0.083   6.647   3.540
 5345TIP3    H115999   0.070   6.735   3.505
 5345TIP3    H216000   0.010   6.634   3.600
 5346TIP3   OH216001   2.861   5.459   4.128
 5346TIP3    H116002   2.936   5.405   4.151
 5346TIP3    H216003   2.855   5.453   4.032
 5347TIP3   OH216004   6.213   6.290   2.394
 5347TIP3    H116005   6.210   6.194   2.396
 5347TIP3    H216006   6.131   6.317   2.435
 5348TIP3   OH216007   2.189   4.637   5.348
 5348TIP3    H116008   2.141   4.654   5.267
 5348TIP3    H216009   2.126   4.654   5.417
 5349TIP3   OH216010   2.012   4.393   3.032
 5349TIP3    H116011   1.968   4.461   2.981
 5349TIP3    H216012   2.102   4.425   3.041
 5350TIP3   OH216013   7.016   0.673   4.398
 5350TIP3    H116014   7.074   0.733   4.445
 5350TIP3    H216015   7.072   0.598   4.378
 5351TIP3   OH216016   3.981   1.904   2.603
 5351TIP3    H116017   3.899   1.855   2.607
 5351TIP3    H216018   3.975   1.968   2.674
 5352TIP3   OH216019   2.183   1.006   3.088
 5352TIP3    H116020   2.149   0.988   3.000
 5352TIP3    H216021   2.278   1.011   3.076
 5353TIP3   OH216022   1.969   0.121   4.061
 5353TIP3    H116023   1.985   0.027   4.059
 5353TIP3    H216024   1.990   0.151   3.973
 5354TIP3   OH216025   6.032   1.999   4.860
 5354TIP3    H116026   6.041   1.943   4.937
 5354TIP3    H216027   6.074   2.081   4.885
 5355TIP3   OH216028   5.873   2.072   0.907
 5355TIP3    H116029   5.814   2.125   0.960
 5355TIP3    H216030   5.818   2.003   0.871
 5356TIP3   OH216031   5.788   2.793   2.714
 5356TIP3    H116032   5.788   2.859   2.783
 5356TIP3    H216033   5.838   2.720   2.750
 5357TIP3   OH216034   5.218   0.199   5.046
 5357TIP3    H116035   5.211   0.224   4.954
 5357TIP3    H216036   5.190   0.108   5.049
 5358TIP3   OH216037   6.046   0.837   4.211
 5358TIP3    H116038   6.125   0.805   4.255
 5358TIP3    H216039   6.060   0.931   4.203
 5359TIP3   OH216040   6.373   2.534   0.587
 5359TIP3    H116041   6.397   2.619   0.625
 5359TIP3    H216042   6.328   2.557   0.505
 5360TIP3   OH216043   0.087   2.523   1.482
 5360TIP3    H116044   0.019   2.587   1.504
 5360TIP3    H216045   0.135   2.510   1.563
 5361TIP3   OH216046   4.690   5.121   4.667
 5361TIP3    H116047   4.677   5.072   4.749
 5361TIP3    H216048   4.612   5.175   4.658
 5362TIP3   OH216049   2.892   4.764   2.753
 5362TIP3    H116050   2.917   4.855   2.736
 5362TIP3    H216051   2.928   4.715   2.679
 5363TIP3   OH216052   3.981   0.783   4.982
 5363TIP3    H116053   4.038   0.708   4.965
 5363TIP3    H216054   3.906   0.746   5.029
 5364TIP3   OH216055   2.948   5.064   3.725
 5364TIP3    H116056   2.986   5.007   3.792
 5364TIP3    H216057   2.985   5.031   3.643
 5365TIP3   OH216058   4.349   5.525   2.002
 5365TIP3    H116059   4.260   5.558   2.011
 5365TIP3    H216060   4.375   5.502   2.092
 5366TIP3   OH216061   3.779   0.811   1.398
 5366TIP3    H116062   3.738   0.865   1.331
 5366TIP3    H216063   3.726   0.731   1.401
 5367TIP3   OH216064   6.183   2.801   0.803
 5367TIP3    H116065   6.117   2.846   0.751
 5367TIP3    H216066   6.233   2.872   0.844
 5368TIP3   OH216067   1.851   0.554   2.997
 5368TIP3    H116068   1.907   0.582   2.924
 5368TIP3    H216069   1.894   0.590   3.075
 5369TIP3   OH216070   6.310   1.701   5.537
 5369TIP3    H116071   6.320   1.765   5.466
 5369TIP3    H216072   6.218   1.675   5.533
 5370TIP3   OH216073   1.701   2.089   1.827
 5370TIP3    H116074   1.746   2.167   1.794
 5370TIP3    H216075   1.637   2.122   1.890
 5371TIP3   OH216076   2.079   2.687   0.413
 5371TIP3    H116077   2.033   2.608   0.440
 5371TIP3    H216078   2.112   2.725   0.494
 5372TIP3   OH216079   3.956   4.279   2.318
 5372TIP3    H116080   3.930   4.190   2.296
 5372TIP3    H216081   4.011   4.269   2.396
 5373TIP3   OH216082   4.726   1.735   3.703
 5373TIP3    H116083   4.780   1.739   3.782
 5373TIP3    H216084   4.776   1.678   3.644
 5374TIP3   OH216085   5.311   3.646   1.013
 5374TIP3    H116086   5.250   3.573   1.023
 5374TIP3    H216087   5.257   3.720   0.986
 5375TIP3   OH216088   0.442   4.662   3.008
 5375TIP3    H116089   0.435   4.612   2.926
 5375TIP3    H216090   0.382   4.736   2.996
 5376TIP3   OH216091   4.580   2.133   5.786
 5376TIP3    H116092   4.524   2.093   5.719
 5376TIP3    H216093   4.550   2.095   5.868
 5377TIP3   OH216094   6.393   0.698   5.441
 5377TIP3    H116095   6.358   0.759   5.376
 5377TIP3    H216096   6.418   0.621   5.390
 5378TIP3   OH216097   6.672   4.481   2.281
 5378TIP3    H116098   6.723   4.417   2.332
 5378TIP3    H216099   6.726   4.498   2.204
 5379TIP3   OH216100   3.134   0.136   0.764
 5379TIP3    H116101   3.225   0.111   0.748
 5379TIP3    H216102   3.085   0.054   0.757
 5380TIP3   OH216103   0.506   1.684   4.370
 5380TIP3    H116104   0.500   1.669   4.464
 5380TIP3    H216105   0.443   1.624   4.332
 5381TIP3   OH216106   0.401   6.127   4.979
 5381TIP3    H116107   0.362   6.065   4.918
 5381TIP3    H216108   0.362   6.211   4.955
 5382TIP3   OH216109   0.305   4.538   2.073
 5382TIP3    H116110   0.298   4.461   2.016
 5382TIP3    H216111   0.215   4.567   2.084
 5383TIP3   OH216112   0.847   1.356   0.690
 5383TIP3    H116113   0.865   1.272   0.649
 5383TIP3    H216114   0.755   1.374   0.668
 5384TIP3   OH216115   6.640   2.366   0.242
 5384TIP3    H116116   6.579   2.437   0.223
 5384TIP3    H216117   6.593   2.287   0.215
 5385TIP3   OH216118   0.625   1.779   1.946
 5385TIP3    H116119   0.586   1.704   1.990
 5385TIP3    H216120   0.686   1.816   2.010
 5386TIP3   OH216121   5.656   4.763   2.334
 5386TIP3    H116122   5.685   4.677   2.305
 5386TIP3    H216123   5.649   4.815   2.254
 5387TIP3   OH216124   5.062   2.190   4.794
 5387TIP3    H116125   4.986   2.144   4.758
 5387TIP3    H216126   5.057   2.173   4.888
 5388TIP3   OH216127   1.000   2.775   4.058
 5388TIP3    H116128   1.026   2.798   4.147
 5388TIP3    H216129   1.063   2.821   4.002
 5389TIP3   OH216130   1.875   6.021   2.770
 5389TIP3    H116131   1.947   5.962   2.745
 5389TIP3    H216132   1.857   5.999   2.861
 5390TIP3   OH216133   2.410   2.373   5.448
 5390TIP3    H116134   2.393   2.358   5.541
 5390TIP3    H216135   2.475   2.442   5.446
 5391TIP3   OH216136   7.214   5.091   1.579
 5391TIP3    H116137   7.215   5.169   1.634
 5391TIP3    H216138   7.179   5.022   1.635
 5392TIP3   OH216139   3.719   1.577   1.749
 5392TIP3    H116140   3.748   1.541   1.665
 5392TIP3    H216141   3.712   1.502   1.807
 5393TIP3   OH216142   3.443   6.064   4.926
 5393TIP3    H116143   3.518   6.047   4.869
 5393TIP3    H216144   3.449   5.997   4.994
 5394TIP3   OH216145   5.707   3.516   5.041
 5394TIP3    H116146   5.637   3.581   5.035
 5394TIP3    H216147   5.779   3.563   5.084
 5395TIP3   OH216148   4.850   6.004   0.098
 5395TIP3    H116149   4.855   5.963   0.012
 5395TIP3    H216150   4.909   6.079   0.092
 5396TIP3   OH216151   1.333   4.547   4.032
 5396TIP3    H116152   1.296   4.461   4.053
 5396TIP3    H216153   1.428   4.532   4.032
 5397TIP3   OH216154   5.011   1.506   4.888
 5397TIP3    H116155   4.932   1.561   4.884
 5397TIP3    H216156   5.057   1.525   4.807
 5398TIP3   OH216157   4.532   5.245   3.418
 5398TIP3    H116158   4.444   5.282   3.430
 5398TIP3    H216159   4.536   5.172   3.480
 5399TIP3   OH216160   5.489   3.705   2.194
 5399TIP3    H116161   5.473   3.756   2.114
 5399TIP3    H216162   5.584   3.707   2.205
 5400TIP3   OH216163   1.105   0.674   3.192
 5400TIP3    H116164   1.139   0.760   3.167
 5400TIP3    H216165   1.130   0.664   3.284
 5401TIP3   OH216166   0.918   4.066   1.190
 5401TIP3    H116167   0.899   4.160   1.194
 5401TIP3    H216168   0.832   4.024   1.194
 5402TIP3   OH216169   5.337   1.872   5.120
 5402TIP3    H116170   5.397   1.837   5.054
 5402TIP3    H216171   5.379   1.953   5.150
 5403TIP3   OH216172   4.494   2.352   3.899
 5403TIP3    H116173   4.417   2.319   3.946
 5403TIP3    H216174   4.475   2.445   3.885
 5404TIP3   OH216175   0.151   6.175   4.213
 5404TIP3    H116176   0.227   6.144   4.262
 5404TIP3    H216177   0.185   6.246   4.158
 5405TIP3   OH216178   2.050   5.032   5.624
 5405TIP3    H116179   2.085   5.121   5.635
 5405TIP3    H216180   1.987   5.023   5.695
 5406TIP3   OH216181   3.492   2.883   4.208
 5406TIP3    H116182   3.585   2.890   4.189
 5406TIP3    H216183   3.487   2.878   4.303
 5407TIP3   OH216184   0.755   6.301   1.854
 5407TIP3    H116185   0.729   6.314   1.945
 5407TIP3    H216186   0.702   6.227   1.824
 5408TIP3   OH216187   5.397   4.769   4.270
 5408TIP3    H116188   5.317   4.820   4.282
 5408TIP3    H216189   5.466   4.835   4.264
 5409TIP3   OH216190   3.714   5.638   0.477
 5409TIP3    H116191   3.800   5.666   0.446
 5409TIP3    H216192   3.653   5.701   0.439
 5410TIP3   OH216193   1.625   6.476   2.005
 5410TIP3    H116194   1.598   6.533   2.077
 5410TIP3    H216195   1.697   6.424   2.041
 5411TIP3   OH216196   5.808   2.407   1.895
 5411TIP3    H116197   5.744   2.341   1.923
 5411TIP3    H216198   5.887   2.356   1.875
 5412TIP3   OH216199   1.492   0.498   4.122
 5412TIP3    H116200   1.500   0.483   4.216
 5412TIP3    H216201   1.581   0.494   4.088
 5413TIP3   OH216202   1.997   1.490   1.181
 5413TIP3    H116203   1.995   1.436   1.259
 5413TIP3    H216204   2.074   1.461   1.132
 5414TIP3   OH216205   4.994   1.724   2.282
 5414TIP3    H116206   4.930   1.747   2.215
 5414TIP3    H216207   5.070   1.692   2.234
 5415TIP3   OH216208   2.077   5.244   0.080
 5415TIP3    H116209   2.047   5.168   0.129
 5415TIP3    H216210   2.052   5.319   0.135
 5416TIP3   OH216211   5.900   5.878   1.226
 5416TIP3    H116212   5.937   5.941   1.164
 5416TIP3    H216213   5.876   5.803   1.172
 5417TIP3   OH216214   3.595   3.931   0.898
 5417TIP3    H116215   3.607   3.986   0.976
 5417TIP3    H216216   3.517   3.880   0.916
 5418TIP3   OH216217   6.708   2.441   3.164
 5418TIP3    H116218   6.791   2.393   3.155
 5418TIP3    H216219   6.655   2.387   3.221
 5419TIP3   OH216220   6.349   4.760   2.717
 5419TIP3    H116221   6.418   4.823   2.697
 5419TIP3    H216222   6.333   4.715   2.634
 5420TIP3   OH216223   4.937   4.936   3.314
 5420TIP3    H116224   4.920   5.003   3.247
 5420TIP3    H216225   4.878   4.958   3.386
 5421TIP3   OH216226   1.474   4.282   5.291
 5421TIP3    H116227   1.438   4.322   5.212
 5421TIP3    H216228   1.495   4.192   5.266
 5422TIP3   OH216229   0.360   4.361   2.900
 5422TIP3    H116230   0.329   4.396   2.816
 5422TIP3    H216231   0.283   4.317   2.937
 5423TIP3   OH216232   1.713  -0.020   3.271
 5423TIP3    H116233   1.675  -0.046   3.187
 5423TIP3    H216234   1.738   0.072   3.259
 5424TIP3   OH216235   4.360   1.238   1.710
 5424TIP3    H116236   4.304   1.184   1.765
 5424TIP3    H216237   4.449   1.212   1.733
 5425TIP3   OH216238   2.737   4.038   5.059
 5425TIP3    H116239   2.824   3.998   5.052
 5425TIP3    H216240   2.751   4.115   5.115
 5426TIP3   OH216241   6.399   2.184   4.809
 5426TIP3    H116242   6.326   2.191   4.871
 5426TIP3    H216243   6.425   2.092   4.813
 5427TIP3   OH216244   0.244   2.613   5.265
 5427TIP3    H116245   0.182   2.588   5.333
 5427TIP3    H216246   0.242   2.541   5.203
 5428TIP3   OH216247   4.591   4.692   1.726
 5428TIP3    H116248   4.503   4.670   1.694
 5428TIP3    H216249   4.626   4.752   1.660
 5429TIP3   OH216250   6.364   0.133   5.676
 5429TIP3    H116251   6.430   0.085   5.726
 5429TIP3    H216252   6.361   0.220   5.717
 5430TIP3   OH216253   5.373   4.110   4.137
 5430TIP3    H116254   5.449   4.053   4.128
 5430TIP3    H216255   5.382   4.174   4.067
 5431TIP3   OH216256   4.470   2.816   2.458
 5431TIP3    H116257   4.470   2.898   2.408
 5431TIP3    H216258   4.443   2.843   2.546
 5432TIP3   OH216259   1.596   4.877   0.424
 5432TIP3    H116260   1.521   4.878   0.364
 5432TIP3    H216261   1.608   4.784   0.444
 5433TIP3   OH216262   4.944   0.242   1.155
 5433TIP3    H116263   5.034   0.211   1.158
 5433TIP3    H216264   4.892   0.166   1.182
 5434TIP3   OH216265   6.702   0.092   3.476
 5434TIP3    H116266   6.714   0.015   3.419
 5434TIP3    H216267   6.758   0.075   3.552
 5435TIP3   OH216268   1.941   2.041   5.848
 5435TIP3    H116269   1.923   2.061   5.940
 5435TIP3    H216270   1.982   2.120   5.813
 5436TIP3   OH216271   5.262   4.036   2.030
 5436TIP3    H116272   5.218   4.102   2.083
 5436TIP3    H216273   5.191   3.980   1.998
 5437TIP3   OH216274   4.282   6.691   0.978
 5437TIP3    H116275   4.227   6.754   0.931
 5437TIP3    H216276   4.313   6.632   0.910
 5438TIP3   OH216277   7.129   0.680   3.999
 5438TIP3    H116278   7.093   0.617   4.060
 5438TIP3    H216279   7.061   0.747   3.990
 5439TIP3   OH216280   6.198   0.083   3.709
 5439TIP3    H116281   6.289   0.100   3.686
 5439TIP3    H216282   6.162   0.169   3.730
 5440TIP3   OH216283   5.639   4.347   2.159
 5440TIP3    H116284   5.679   4.261   2.142
 5440TIP3    H216285   5.557   4.345   2.110
 5441TIP3   OH216286   2.163   1.307   2.075
 5441TIP3    H116287   2.247   1.311   2.030
 5441TIP3    H216288   2.098   1.324   2.007
 5442TIP3   OH216289   6.507   4.536   5.723
 5442TIP3    H116290   6.568   4.605   5.699
 5442TIP3    H216291   6.473   4.563   5.808
 5443TIP3   OH216292   1.799   2.000   3.029
 5443TIP3    H116293   1.817   2.059   3.103
 5443TIP3    H216294   1.853   1.923   3.045
 5444TIP3   OH216295   3.896   6.493   5.511
 5444TIP3    H116296   3.893   6.423   5.446
 5444TIP3    H216297   3.843   6.460   5.584
 5445TIP3   OH216298   3.322   5.138   3.025
 5445TIP3    H116299   3.259   5.177   3.086
 5445TIP3    H216300   3.347   5.056   3.067
 5446TIP3   OH216301   0.047   5.848   0.734
 5446TIP3    H116302   0.092   5.765   0.753
 5446TIP3    H216303   0.056   5.859   0.640
 5447TIP3   OH216304   1.943   0.523   5.708
 5447TIP3    H116305   1.933   0.447   5.650
 5447TIP3    H216306   2.034   0.519   5.738
 5448TIP3   OH216307   4.967   4.159   2.034
 5448TIP3    H116308   4.941   4.116   2.115
 5448TIP3    H216309   4.884   4.181   1.991
 5449TIP3   OH216310   1.381   5.391   2.917
 5449TIP3    H116311   1.370   5.483   2.893
 5449TIP3    H216312   1.476   5.379   2.922
 5450TIP3   OH216313   6.320   4.844   5.834
 5450TIP3    H116314   6.261   4.840   5.759
 5450TIP3    H216315   6.403   4.877   5.800
 5451TIP3   OH216316   0.188   2.767   2.336
 5451TIP3    H116317   0.231   2.682   2.338
 5451TIP3    H216318   0.214   2.805   2.252
 5452TIP3   OH216319   1.104   2.337   5.625
 5452TIP3    H116320   1.114   2.367   5.535
 5452TIP3    H216321   1.079   2.245   5.617
 5453TIP3   OH216322   0.737   6.259   1.568
 5453TIP3    H116323   0.691   6.342   1.555
 5453TIP3    H216324   0.808   6.261   1.504
 5454TIP3   OH216325   6.650   3.357   0.280
 5454TIP3    H116326   6.661   3.337   0.187
 5454TIP3    H216327   6.620   3.275   0.319
 5455TIP3   OH216328   5.498   6.758   2.487
 5455TIP3    H116329   5.551   6.725   2.414
 5455TIP3    H216330   5.544   6.727   2.565
 5456TIP3   OH216331   5.750   5.776   4.296
 5456TIP3    H116332   5.708   5.841   4.240
 5456TIP3    H216333   5.684   5.752   4.361
 5457TIP3   OH216334   5.450   6.475   2.378
 5457TIP3    H116335   5.461   6.448   2.469
 5457TIP3    H216336   5.528   6.526   2.358
 5458TIP3   OH216337   1.932   3.212   3.808
 5458TIP3    H116338   1.951   3.130   3.764
 5458TIP3    H216339   1.854   3.246   3.764
 5459TIP3   OH216340   6.582   2.342   5.160
 5459TIP3    H116341   6.532   2.388   5.092
 5459TIP3    H216342   6.666   2.322   5.119
 5460TIP3   OH216343   0.994   4.358   4.222
 5460TIP3    H116344   1.035   4.309   4.151
 5460TIP3    H216345   0.902   4.333   4.219
 5461TIP3   OH216346   6.906   3.970   3.196
 5461TIP3    H116347   6.823   3.924   3.215
 5461TIP3    H216348   6.901   3.991   3.103
 5462TIP3   OH216349   5.377   3.401   1.154
 5462TIP3    H116350   5.443   3.465   1.128
 5462TIP3    H216351   5.379   3.335   1.086
 5463TIP3   OH216352   0.364   2.468   2.314
 5463TIP3    H116353   0.318   2.436   2.236
 5463TIP3    H216354   0.456   2.451   2.295
 5464TIP3   OH216355   0.425   5.664   2.373
 5464TIP3    H116356   0.351   5.678   2.432
 5464TIP3    H216357   0.432   5.745   2.323
 5465TIP3   OH216358   2.093   6.474   5.565
 5465TIP3    H116359   2.104   6.438   5.477
 5465TIP3    H216360   2.006   6.445   5.592
 5466TIP3   OH216361   0.600   0.827   3.747
 5466TIP3    H116362   0.676   0.882   3.730
 5466TIP3    H216363   0.537   0.886   3.789
 5467TIP3   OH216364   7.068   0.752   4.731
 5467TIP3    H116365   7.098   0.837   4.701
 5467TIP3    H216366   6.975   0.749   4.708
 5468TIP3   OH216367   0.211   0.546   0.181
 5468TIP3    H116368   0.251   0.545   0.268
 5468TIP3    H216369   0.138   0.484   0.188
 5469TIP3   OH216370   5.185   2.979   3.474
 5469TIP3    H116371   5.093   2.954   3.480
 5469TIP3    H216372   5.200   3.031   3.553
 5470TIP3   OH216373   2.588   0.619   2.424
 5470TIP3    H116374   2.637   0.546   2.387
 5470TIP3    H216375   2.554   0.667   2.349
 5471TIP3   OH216376   3.770   6.046   0.019
 5471TIP3    H116377   3.746   6.020  -0.070
 5471TIP3    H216378   3.706   6.002   0.075
 5472TIP3   OH216379   5.707   5.424   3.767
 5472TIP3    H116380   5.787   5.473   3.746
 5472TIP3    H216381   5.727   5.378   3.848
 5473TIP3   OH216382   2.014   5.296   3.203
 5473TIP3    H116383   1.966   5.225   3.159
 5473TIP3    H216384   2.105   5.267   3.203
 5474TIP3   OH216385   1.912   1.481   1.586
 5474TIP3    H116386   1.888   1.477   1.494
 5474TIP3    H216387   1.838   1.441   1.632
 5475TIP3   OH216388   1.468   0.275   3.888
 5475TIP3    H116389   1.497   0.352   3.840
 5475TIP3    H216390   1.489   0.294   3.979
 5476TIP3   OH216391   4.340   1.976   2.744
 5476TIP3    H116392   4.308   1.886   2.752
 5476TIP3    H216393   4.261   2.028   2.729
 5477TIP3   OH216394   6.994   2.724   2.981
 5477TIP3    H116395   6.997   2.631   2.959
 5477TIP3    H216396   6.995   2.768   2.896
 5478TIP3   OH216397   2.084   5.573   1.981
 5478TIP3    H116398   2.165   5.581   1.929
 5478TIP3    H216399   2.057   5.664   1.997
 5479TIP3   OH216400   2.068   6.277   3.278
 5479TIP3    H116401   2.097   6.233   3.358
 5479TIP3    H216402   2.074   6.210   3.210
 5480TIP3   OH216403   7.145   1.909   3.466
 5480TIP3    H116404   7.127   1.997   3.500
 5480TIP3    H216405   7.208   1.871   3.527
 5481TIP3   OH216406   0.966   2.103   1.672
 5481TIP3    H116407   1.037   2.160   1.641
 5481TIP3    H216408   0.901   2.163   1.709
 5482TIP3   OH216409   2.966   4.528   4.277
 5482TIP3    H116410   3.055   4.499   4.257
 5482TIP3    H216411   2.937   4.470   4.347
 5483TIP3   OH216412   3.896   1.202   4.274
 5483TIP3    H116413   3.979   1.210   4.227
 5483TIP3    H216414   3.897   1.114   4.310
 5484TIP3   OH216415   5.915   0.798   4.453
 5484TIP3    H116416   5.905   0.706   4.476
 5484TIP3    H216417   5.988   0.800   4.391
 5485TIP3   OH216418   5.498   4.767   5.176
 5485TIP3    H116419   5.581   4.766   5.128
 5485TIP3    H216420   5.489   4.857   5.206
 5486TIP3   OH216421   6.633   1.545   5.169
 5486TIP3    H116422   6.547   1.506   5.155
 5486TIP3    H216423   6.633   1.624   5.115
 5487TIP3   OH216424   3.074   1.630   1.088
 5487TIP3    H116425   3.126   1.600   1.014
 5487TIP3    H216426   3.003   1.680   1.049
 5488TIP3   OH216427   0.983   4.798   2.856
 5488TIP3    H116428   1.029   4.734   2.911
 5488TIP3    H216429   0.949   4.862   2.918
 5489TIP3   OH216430   0.100   3.684   5.255
 5489TIP3    H116431   0.097   3.758   5.194
 5489TIP3    H216432   0.023   3.632   5.233
 5490TIP3   OH216433   4.953   1.177   5.897
 5490TIP3    H116434   5.006   1.134   5.964
 5490TIP3    H216435   5.012   1.187   5.823
 5491TIP3   OH216436   6.302   6.305   0.864
 5491TIP3    H116437   6.247   6.281   0.938
 5491TIP3    H216438   6.391   6.310   0.900
 5492TIP3   OH216439   3.993   5.697   5.331
 5492TIP3    H116440   3.929   5.766   5.313
 5492TIP3    H216441   4.055   5.738   5.391
 5493TIP3   OH216442   6.974   1.629   5.501
 5493TIP3    H116443   7.017   1.553   5.540
 5493TIP3    H216444   7.026   1.704   5.531
 5494TIP3   OH216445   4.135   1.495   4.806
 5494TIP3    H116446   4.213   1.490   4.751
 5494TIP3    H216447   4.080   1.561   4.765
 5495TIP3   OH216448   4.501   3.894   1.784
 5495TIP3    H116449   4.531   3.816   1.736
 5495TIP3    H216450   4.515   3.872   1.876
 5496TIP3   OH216451   1.047   3.953   2.856
 5496TIP3    H116452   0.994   3.957   2.777
 5496TIP3    H216453   1.055   3.860   2.875
 5497TIP3   OH216454   6.583   5.766   4.931
 5497TIP3    H116455   6.551   5.735   5.015
 5497TIP3    H216456   6.638   5.842   4.952
 5498TIP3   OH216457   0.661   1.769   1.304
 5498TIP3    H116458   0.735   1.821   1.337
 5498TIP3    H216459   0.665   1.781   1.209
 5499TIP3   OH216460   6.053   6.608   1.452
 5499TIP3    H116461   6.038   6.513   1.454
 5499TIP3    H216462   6.127   6.620   1.392
 5500TIP3   OH216463   6.251   6.001   5.769
 5500TIP3    H116464   6.295   6.036   5.691
 5500TIP3    H216465   6.166   5.971   5.737
 5501TIP3   OH216466   4.029   2.935   1.008
 5501TIP3    H116467   4.052   2.875   1.079
 5501TIP3    H216468   3.972   3.000   1.048
 5502TIP3   OH216469   4.124   2.435   5.832
 5502TIP3    H116470   4.206   2.463   5.874
 5502TIP3    H216471   4.057   2.494   5.869
 5503TIP3   OH216472   4.610   4.695   5.846
 5503TIP3    H116473   4.636   4.605   5.867
 5503TIP3    H216474   4.612   4.740   5.930
 5504TIP3   OH216475   6.993   5.546   5.672
 5504TIP3    H116476   6.947   5.630   5.671
 5504TIP3    H216477   7.070   5.560   5.617
 5505TIP3   OH216478   3.399   2.878   0.303
 5505TIP3    H116479   3.431   2.827   0.377
 5505TIP3    H216480   3.451   2.958   0.304
 5506TIP3   OH216481   1.531   0.509   2.790
 5506TIP3    H116482   1.552   0.421   2.759
 5506TIP3    H216483   1.443   0.525   2.757
 5507TIP3   OH216484   6.992   5.752   3.159
 5507TIP3    H116485   7.061   5.751   3.226
 5507TIP3    H216486   6.928   5.816   3.191
 5508TIP3   OH216487   0.692   2.435   2.830
 5508TIP3    H116488   0.713   2.522   2.863
 5508TIP3    H216489   0.599   2.439   2.809
 5509TIP3   OH216490   6.170   1.811   1.307
 5509TIP3    H116491   6.122   1.730   1.290
 5509TIP3    H216492   6.105   1.881   1.293
 5510TIP3   OH216493   4.325   0.291   0.510
 5510TIP3    H116494   4.263   0.358   0.538
 5510TIP3    H216495   4.378   0.273   0.587
 5511TIP3   OH216496   4.722   2.559   3.253
 5511TIP3    H116497   4.676   2.510   3.185
 5511TIP3    H216498   4.723   2.649   3.220
 5512TIP3   OH216499   4.302   1.488   3.111
 5512TIP3    H116500   4.216   1.489   3.069
 5512TIP3    H216501   4.322   1.395   3.123
 5513TIP3   OH216502   3.200   5.757   3.310
 5513TIP3    H116503   3.177   5.713   3.228
 5513TIP3    H216504   3.195   5.688   3.376
 5514TIP3   OH216505   1.020   0.932   4.600
 5514TIP3    H116506   0.974   1.002   4.554
 5514TIP3    H216507   0.951   0.871   4.627
 5515TIP3   OH216508   0.871   3.658   5.377
 5515TIP3    H116509   0.924   3.578   5.380
 5515TIP3    H216510   0.907   3.708   5.304
 5516TIP3   OH216511   0.990   1.251   1.506
 5516TIP3    H116512   0.919   1.294   1.458
 5516TIP3    H216513   1.068   1.270   1.455
 5517TIP3   OH216514   3.349   4.863   4.451
 5517TIP3    H116515   3.385   4.950   4.433
 5517TIP3    H216516   3.411   4.823   4.512
 5518TIP3   OH216517   3.686   4.307   5.209
 5518TIP3    H116518   3.622   4.235   5.213
 5518TIP3    H216519   3.742   4.293   5.285
 5519TIP3   OH216520   3.522   3.250   0.574
 5519TIP3    H116521   3.523   3.321   0.637
 5519TIP3    H216522   3.435   3.211   0.583
 5520TIP3   OH216523   1.200   0.063   4.366
 5520TIP3    H116524   1.145   0.132   4.330
 5520TIP3    H216525   1.207  -0.002   4.296
 5521TIP3   OH216526   2.450   0.456   5.021
 5521TIP3    H116527   2.396   0.495   4.953
 5521TIP3    H216528   2.488   0.531   5.067
 5522TIP3   OH216529   0.255   6.027   2.734
 5522TIP3    H116530   0.174   5.979   2.718
 5522TIP3    H216531   0.324   5.973   2.693
 5523TIP3   OH216532   1.838   2.057   5.284
 5523TIP3    H116533   1.894   2.020   5.351
 5523TIP3    H216534   1.778   2.115   5.332
 5524TIP3   OH216535   4.227   5.591   4.075
 5524TIP3    H116536   4.267   5.521   4.023
 5524TIP3    H216537   4.261   5.577   4.164
 5525TIP3   OH216538   1.871   1.115   4.422
 5525TIP3    H116539   1.896   1.086   4.510
 5525TIP3    H216540   1.794   1.062   4.401
 5526TIP3   OH216541   6.601   3.079   0.104
 5526TIP3    H116542   6.589   3.064   0.198
 5526TIP3    H216543   6.671   3.017   0.080
 5527TIP3   OH216544   4.039   2.167   0.381
 5527TIP3    H116545   4.037   2.241   0.321
 5527TIP3    H216546   4.050   2.207   0.468
 5528TIP3   OH216547   6.183   5.728   0.636
 5528TIP3    H116548   6.234   5.794   0.682
 5528TIP3    H216549   6.241   5.651   0.633
 5529TIP3   OH216550   6.294   4.468   1.497
 5529TIP3    H116551   6.308   4.561   1.480
 5529TIP3    H216552   6.285   4.429   1.410
 5530TIP3   OH216553   3.954   4.770   0.813
 5530TIP3    H116554   3.865   4.805   0.805
 5530TIP3    H216555   4.011   4.845   0.798
 5531TIP3   OH216556   2.873   5.805   4.781
 5531TIP3    H116557   2.827   5.835   4.860
 5531TIP3    H216558   2.810   5.747   4.738
 5532TIP3   OH216559   5.271   5.882   3.642
 5532TIP3    H116560   5.279   5.796   3.684
 5532TIP3    H216561   5.277   5.944   3.715
 5533TIP3   OH216562   5.859   0.192   2.355
 5533TIP3    H116563   5.928   0.236   2.305
 5533TIP3    H216564   5.880   0.099   2.349
 5534TIP3   OH216565   5.945   0.914   0.807
 5534TIP3    H116566   5.952   0.821   0.786
 5534TIP3    H216567   5.851   0.932   0.808
 5535TIP3   OH216568   4.541   2.417   2.026
 5535TIP3    H116569   4.491   2.476   1.970
 5535TIP3    H216570   4.498   2.332   2.017
 5536TIP3   OH216571   0.351   3.548   2.909
 5536TIP3    H116572   0.319   3.585   2.826
 5536TIP3    H216573   0.275   3.501   2.945
 5537TIP3   OH216574   2.306   0.042   4.491
 5537TIP3    H116575   2.267   0.126   4.468
 5537TIP3    H216576   2.258  -0.022   4.439
 5538TIP3   OH216577   6.495   6.445   1.519
 5538TIP3    H116578   6.559   6.422   1.451
 5538TIP3    H216579   6.485   6.540   1.511
 5539TIP3   OH216580   4.585   5.780   0.310
 5539TIP3    H116581   4.531   5.842   0.262
 5539TIP3    H216582   4.555   5.787   0.401
 5540TIP3   OH216583   4.960   0.412   5.492
 5540TIP3    H116584   4.957   0.333   5.438
 5540TIP3    H216585   5.019   0.391   5.564
 5541TIP3   OH216586   3.373   4.232   4.072
 5541TIP3    H116587   3.381   4.256   3.980
 5541TIP3    H216588   3.287   4.265   4.098
 5542TIP3   OH216589   1.081   4.706   3.891
 5542TIP3    H116590   1.073   4.799   3.913
 5542TIP3    H216591   1.121   4.667   3.969
 5543TIP3   OH216592   6.154   4.236   2.892
 5543TIP3    H116593   6.073   4.197   2.927
 5543TIP3    H216594   6.127   4.323   2.863
 5544TIP3   OH216595   0.290   3.489   3.483
 5544TIP3    H116596   0.287   3.425   3.555
 5544TIP3    H216597   0.371   3.470   3.437
 5545TIP3   OH216598   4.950   6.798   5.081
 5545TIP3    H116599   4.932   6.722   5.026
 5545TIP3    H216600   4.991   6.862   5.022
 5546TIP3   OH216601   3.593   4.068   1.148
 5546TIP3    H116602   3.660   4.026   1.202
 5546TIP3    H216603   3.514   4.066   1.201
 5547TIP3   OH216604   6.360   4.862   0.751
 5547TIP3    H116605   6.267   4.876   0.770
 5547TIP3    H216606   6.401   4.945   0.776
 5548TIP3   OH216607   4.429   2.735   3.382
 5548TIP3    H116608   4.344   2.760   3.347
 5548TIP3    H216609   4.492   2.772   3.321
 5549TIP3   OH216610   2.754   5.158   2.254
 5549TIP3    H116611   2.796   5.159   2.340
 5549TIP3    H216612   2.692   5.085   2.258
 5550TIP3   OH216613   0.553   0.446   5.774
 5550TIP3    H116614   0.621   0.513   5.775
 5550TIP3    H216615   0.535   0.431   5.682
 5551TIP3   OH216616   1.512   1.891   4.047
 5551TIP3    H116617   1.519   1.960   4.114
 5551TIP3    H216618   1.481   1.814   4.095
 5552TIP3   OH216619   1.680   6.780   3.004
 5552TIP3    H116620   1.653   6.831   2.928
 5552TIP3    H216621   1.599   6.762   3.052
 5553TIP3   OH216622   4.989   5.574   0.011
 5553TIP3    H116623   5.025   5.526  -0.064
 5553TIP3    H216624   5.044   5.547   0.085
 5554TIP3   OH216625   3.363   6.815   4.180
 5554TIP3    H116626   3.366   6.780   4.269
 5554TIP3    H216627   3.344   6.739   4.125
 5555TIP3   OH216628   2.945   0.262   5.170
 5555TIP3    H116629   2.933   0.340   5.224
 5555TIP3    H216630   3.039   0.257   5.155
 5556TIP3   OH216631   4.721   0.924   0.959
 5556TIP3    H116632   4.639   0.922   1.008
 5556TIP3    H216633   4.783   0.875   1.012
 5557TIP3   OH216634   3.390   4.031   3.148
 5557TIP3    H116635   3.387   3.955   3.089
 5557TIP3    H216636   3.301   4.066   3.145
 5558TIP3   OH216637   4.850   5.061   0.336
 5558TIP3    H116638   4.833   4.971   0.361
 5558TIP3    H216639   4.794   5.076   0.260
 5559TIP3   OH216640   5.075   2.871   1.056
 5559TIP3    H116641   5.051   2.790   1.101
 5559TIP3    H216642   5.164   2.855   1.023
 5560TIP3   OH216643   2.306   5.803   4.418
 5560TIP3    H116644   2.361   5.874   4.451
 5560TIP3    H216645   2.235   5.796   4.483
 5561TIP3   OH216646   5.011   4.811   0.177
 5561TIP3    H116647   4.945   4.759   0.131
 5561TIP3    H216648   5.006   4.897   0.137
 5562TIP3   OH216649   5.406   0.480   2.852
 5562TIP3    H116650   5.501   0.478   2.862
 5562TIP3    H216651   5.379   0.563   2.892
 5563TIP3   OH216652   4.252   5.879   0.884
 5563TIP3    H116653   4.207   5.801   0.853
 5563TIP3    H216654   4.341   5.871   0.849
 5564TIP3   OH216655   2.475   6.244   1.095
 5564TIP3    H116656   2.389   6.231   1.133
 5564TIP3    H216657   2.458   6.281   1.008
 5565TIP3   OH216658   4.694   6.346   4.548
 5565TIP3    H116659   4.696   6.260   4.508
 5565TIP3    H216660   4.716   6.331   4.640
 5566TIP3   OH216661   6.772   0.421   5.103
 5566TIP3    H116662   6.687   0.381   5.123
 5566TIP3    H216663   6.760   0.462   5.018
 5567TIP3   OH216664   0.538   3.582   2.593
 5567TIP3    H116665   0.553   3.547   2.681
 5567TIP3    H216666   0.603   3.540   2.538
 5568TIP3   OH216667   5.599   5.878   1.880
 5568TIP3    H116668   5.511   5.904   1.906
 5568TIP3    H216669   5.601   5.890   1.785
 5569TIP3   OH216670   4.282   1.571   1.604
 5569TIP3    H116671   4.287   1.650   1.550
 5569TIP3    H216672   4.351   1.582   1.669
 5570TIP3   OH216673   1.968   1.394   1.911
 5570TIP3    H116674   1.930   1.478   1.935
 5570TIP3    H216675   1.907   1.356   1.848
 5571TIP3   OH216676   2.759   3.252   1.612
 5571TIP3    H116677   2.730   3.171   1.571
 5571TIP3    H216678   2.836   3.279   1.562
 5572TIP3   OH216679   6.064   1.999   0.079
 5572TIP3    H116680   6.019   1.922   0.043
 5572TIP3    H216681   5.998   2.043   0.132
 5573TIP3   OH216682   4.377   6.103   1.844
 5573TIP3    H116683   4.353   6.019   1.804
 5573TIP3    H216684   4.458   6.085   1.890
 5574TIP3   OH216685   3.056   1.675   5.198
 5574TIP3    H116686   3.073   1.651   5.289
 5574TIP3    H216687   3.126   1.736   5.175
 5575TIP3   OH216688   1.782   6.123   5.828
 5575TIP3    H116689   1.824   6.037   5.831
 5575TIP3    H216690   1.823   6.167   5.753
 5576TIP3   OH216691   2.932   3.475   4.712
 5576TIP3    H116692   2.948   3.428   4.630
 5576TIP3    H216693   2.839   3.463   4.729
 5577TIP3   OH216694   0.160   5.544   5.232
 5577TIP3    H116695   0.072   5.506   5.234
 5577TIP3    H216696   0.182   5.558   5.324
 5578TIP3   OH216697   6.686   0.793   5.796
 5578TIP3    H116698   6.672   0.775   5.703
 5578TIP3    H216699   6.614   0.747   5.840
 5579TIP3   OH216700   3.034   2.980   1.539
 5579TIP3    H116701   3.108   3.000   1.595
 5579TIP3    H216702   3.014   2.888   1.557
 5580TIP3   OH216703   2.617   1.030   3.643
 5580TIP3    H116704   2.709   1.052   3.656
 5580TIP3    H216705   2.619   0.943   3.602
 5581TIP3   OH216706   3.581   1.143   2.655
 5581TIP3    H116707   3.636   1.067   2.635
 5581TIP3    H216708   3.627   1.189   2.725
 5582TIP3   OH216709   1.714   6.767   5.447
 5582TIP3    H116710   1.722   6.675   5.422
 5582TIP3    H216711   1.794   6.785   5.495
 5583TIP3   OH216712   3.203   2.106   2.045
 5583TIP3    H116713   3.184   2.018   2.077
 5583TIP3    H216714   3.225   2.156   2.124
 5584TIP3   OH216715   5.888   2.673   3.901
 5584TIP3    H116716   5.864   2.593   3.854
 5584TIP3    H216717   5.811   2.729   3.893
 5585TIP3   OH216718   7.021   5.684   4.513
 5585TIP3    H116719   7.068   5.665   4.594
 5585TIP3    H216720   7.033   5.778   4.500
 5586TIP3   OH216721   6.751   5.524   4.912
 5586TIP3    H116722   6.755   5.618   4.890
 5586TIP3    H216723   6.778   5.520   5.003
 5587TIP3   OH216724   1.726   0.806   4.668
 5587TIP3    H116725   1.793   0.866   4.700
 5587TIP3    H216726   1.651   0.820   4.725
 5588TIP3   OH216727   5.376   4.166   1.065
 5588TIP3    H116728   5.367   4.097   1.131
 5588TIP3    H216729   5.307   4.228   1.086
 5589TIP3   OH216730   1.521   5.422   3.494
 5589TIP3    H116731   1.585   5.421   3.422
 5589TIP3    H216732   1.477   5.507   3.486
 5590TIP3   OH216733   2.379   5.760   5.152
 5590TIP3    H116734   2.436   5.697   5.107
 5590TIP3    H216735   2.431   5.789   5.227
 5591TIP3   OH216736   0.921   3.584   4.704
 5591TIP3    H116737   1.014   3.564   4.712
 5591TIP3    H216738   0.877   3.517   4.755
 5592TIP3   OH216739   2.914   5.538   2.196
 5592TIP3    H116740   2.901   5.630   2.173
 5592TIP3    H216741   2.834   5.512   2.240
 5593TIP3   OH216742   6.003   5.776   0.967
 5593TIP3    H116743   5.985   5.870   0.973
 5593TIP3    H216744   5.920   5.737   0.942
 5594TIP3   OH216745   6.673   0.092   5.615
 5594TIP3    H116746   6.578   0.078   5.606
 5594TIP3    H216747   6.712   0.011   5.585
 5595TIP3   OH216748   3.468   5.817   1.240
 5595TIP3    H116749   3.538   5.847   1.183
 5595TIP3    H216750   3.394   5.874   1.220
 5596TIP3   OH216751   1.200   5.817   0.140
 5596TIP3    H116752   1.145   5.874   0.086
 5596TIP3    H216753   1.147   5.737   0.150
 5597TIP3   OH216754   1.403   4.352   5.544
 5597TIP3    H116755   1.443   4.315   5.465
 5597TIP3    H216756   1.309   4.345   5.529
 5598TIP3   OH216757   5.569   3.671   3.460
 5598TIP3    H116758   5.633   3.625   3.514
 5598TIP3    H216759   5.527   3.603   3.407
 5599TIP3   OH216760   5.437   0.751   1.183
 5599TIP3    H116761   5.483   0.686   1.237
 5599TIP3    H216762   5.354   0.765   1.228
 5600TIP3   OH216763   2.459   1.713   1.702
 5600TIP3    H116764   2.396   1.776   1.739
 5600TIP3    H216765   2.543   1.738   1.741
 5601TIP3   OH216766   5.290   0.702   2.938
 5601TIP3    H116767   5.270   0.762   3.009
 5601TIP3    H216768   5.298   0.757   2.860
 5602TIP3   OH216769   0.924   6.614   1.257
 5602TIP3    H116770   0.984   6.574   1.320
 5602TIP3    H216771   0.930   6.558   1.180
 5603TIP3   OH216772   4.355   5.610   5.046
 5603TIP3    H116773   4.349   5.695   5.002
 5603TIP3    H216774   4.265   5.577   5.047
 5604TIP3   OH216775   2.198   4.599   2.619
 5604TIP3    H116776   2.125   4.651   2.654
 5604TIP3    H216777   2.264   4.600   2.688
 5605TIP3   OH216778   7.060   4.399   4.920
 5605TIP3    H116779   7.029   4.320   4.963
 5605TIP3    H216780   7.095   4.369   4.835
 5606TIP3   OH216781   6.450   5.506   4.286
 5606TIP3    H116782   6.522   5.446   4.307
 5606TIP3    H216783   6.493   5.580   4.245
 5607TIP3   OH216784   6.182   4.418   2.259
 5607TIP3    H116785   6.128   4.366   2.200
 5607TIP3    H216786   6.144   4.404   2.345
 5608TIP3   OH216787   3.543   4.992   5.649
 5608TIP3    H116788   3.625   5.018   5.690
 5608TIP3    H216789   3.475   5.027   5.708
 5609TIP3   OH216790   2.662   0.612   5.616
 5609TIP3    H116791   2.635   0.663   5.693
 5609TIP3    H216792   2.684   0.678   5.550
 5610TIP3   OH216793   2.717   0.114   2.703
 5610TIP3    H116794   2.638   0.145   2.747
 5610TIP3    H216795   2.788   0.166   2.741
 5611TIP3   OH216796   3.166   1.070   0.780
 5611TIP3    H116797   3.140   1.017   0.855
 5611TIP3    H216798   3.087   1.078   0.727
 5612TIP3   OH216799   2.396   0.999   4.736
 5612TIP3    H116800   2.323   1.061   4.737
 5612TIP3    H216801   2.433   1.007   4.648
 5613TIP3   OH216802   2.736   1.023   0.952
 5613TIP3    H116803   2.817   0.978   0.976
 5613TIP3    H216804   2.735   1.101   1.008
 5614TIP3   OH216805   1.752   0.780   1.131
 5614TIP3    H116806   1.702   0.852   1.092
 5614TIP3    H216807   1.702   0.702   1.108
 5615TIP3   OH216808   4.288   3.638   0.200
 5615TIP3    H116809   4.194   3.638   0.182
 5615TIP3    H216810   4.303   3.719   0.251
 5616TIP3   OH216811   3.162   1.330   5.461
 5616TIP3    H116812   3.233   1.394   5.464
 5616TIP3    H216813   3.181   1.278   5.383
 5617TIP3   OH216814   3.696   6.614   3.245
 5617TIP3    H116815   3.726   6.699   3.278
 5617TIP3    H216816   3.748   6.600   3.166
 5618TIP3   OH216817   1.096   6.259   5.831
 5618TIP3    H116818   1.088   6.230   5.740
 5618TIP3    H216819   1.105   6.354   5.825
 5619TIP3   OH216820   3.566   5.907   3.497
 5619TIP3    H116821   3.590   5.818   3.471
 5619TIP3    H216822   3.477   5.899   3.531
 5620TIP3   OH216823   4.445   2.422   5.898
 5620TIP3    H116824   4.388   2.454   5.968
 5620TIP3    H216825   4.533   2.427   5.934
 5621TIP3   OH216826   2.911   3.071   0.536
 5621TIP3    H116827   2.957   3.027   0.465
 5621TIP3    H216828   2.865   3.144   0.494
 5622TIP3   OH216829   0.269   4.420   1.225
 5622TIP3    H116830   0.302   4.501   1.264
 5622TIP3    H216831   0.181   4.442   1.195
 5623TIP3   OH216832   0.224   3.735   1.404
 5623TIP3    H116833   0.187   3.808   1.454
 5623TIP3    H216834   0.315   3.729   1.435
 5624TIP3   OH216835   5.033   3.243   5.610
 5624TIP3    H116836   5.051   3.320   5.664
 5624TIP3    H216837   5.105   3.241   5.547
 5625TIP3   OH216838   4.459   0.993   2.096
 5625TIP3    H116839   4.371   0.993   2.060
 5625TIP3    H216840   4.492   1.082   2.081
 5626TIP3   OH216841   6.876   0.484   4.072
 5626TIP3    H116842   6.893   0.410   4.131
 5626TIP3    H216843   6.837   0.551   4.127
 5627TIP3   OH216844   5.268   5.668   3.800
 5627TIP3    H116845   5.364   5.667   3.796
 5627TIP3    H216846   5.243   5.576   3.793
 5628TIP3   OH216847   6.063   5.412   1.222
 5628TIP3    H116848   6.069   5.441   1.131
 5628TIP3    H216849   6.060   5.317   1.216
 5629TIP3   OH216850   4.916   2.867   2.828
 5629TIP3    H116851   4.978   2.798   2.807
 5629TIP3    H216852   4.858   2.830   2.894
 5630TIP3   OH216853   4.521   3.219   0.398
 5630TIP3    H116854   4.497   3.299   0.352
 5630TIP3    H216855   4.439   3.171   0.408
 5631TIP3   OH216856   0.430   4.148   3.983
 5631TIP3    H116857   0.460   4.136   4.073
 5631TIP3    H216858   0.388   4.064   3.961
 5632TIP3   OH216859   3.666   4.822   4.818
 5632TIP3    H116860   3.733   4.792   4.880
 5632TIP3    H216861   3.634   4.742   4.778
 5633TIP3   OH216862   5.200   2.346   3.327
 5633TIP3    H116863   5.122   2.395   3.301
 5633TIP3    H216864   5.270   2.385   3.275
 5634TIP3   OH216865   1.102   5.125   3.363
 5634TIP3    H116866   1.141   5.075   3.433
 5634TIP3    H216867   1.041   5.065   3.320
 5635TIP3   OH216868   5.361   6.092   3.864
 5635TIP3    H116869   5.328   6.179   3.886
 5635TIP3    H216870   5.419   6.106   3.789
 5636TIP3   OH216871   5.245   4.619   0.103
 5636TIP3    H116872   5.170   4.647   0.155
 5636TIP3    H216873   5.316   4.608   0.166
 5637TIP3   OH216874   0.263   6.498   1.255
 5637TIP3    H116875   0.266   6.584   1.297
 5637TIP3    H216876   0.328   6.503   1.184
 5638TIP3   OH216877   5.533   3.731   0.240
 5638TIP3    H116878   5.537   3.641   0.272
 5638TIP3    H216879   5.571   3.727   0.152
 5639TIP3   OH216880   2.664   3.014   3.121
 5639TIP3    H116881   2.749   3.022   3.077
 5639TIP3    H216882   2.659   2.923   3.148
 5640TIP3   OH216883   3.522   0.454   4.808
 5640TIP3    H116884   3.485   0.473   4.894
 5640TIP3    H216885   3.574   0.532   4.787
 5641TIP3   OH216886   2.911   0.169   2.392
 5641TIP3    H116887   2.918   0.100   2.458
 5641TIP3    H216888   2.972   0.143   2.323
 5642TIP3   OH216889   5.923   6.134   3.523
 5642TIP3    H116890   6.005   6.085   3.519
 5642TIP3    H216891   5.870   6.100   3.451
 5643TIP3   OH216892   1.629   2.572   0.550
 5643TIP3    H116893   1.619   2.601   0.641
 5643TIP3    H216894   1.630   2.653   0.499
 5644TIP3   OH216895   3.127   4.672   5.760
 5644TIP3    H116896   3.083   4.700   5.840
 5644TIP3    H216897   3.086   4.723   5.690
 5645TIP3   OH216898   3.975   0.164   2.144
 5645TIP3    H116899   4.014   0.125   2.223
 5645TIP3    H216900   4.017   0.250   2.137
 5646TIP3   OH216901   0.162   4.836   2.166
 5646TIP3    H116902   0.137   4.774   2.235
 5646TIP3    H216903   0.226   4.893   2.207
 5647TIP3   OH216904   2.485   4.948   4.299
 5647TIP3    H116905   2.428   4.993   4.236
 5647TIP3    H216906   2.463   4.855   4.290
 5648TIP3   OH216907   0.723   0.807   5.585
 5648TIP3    H116908   0.726   0.901   5.605
 5648TIP3    H216909   0.712   0.764   5.670
 5649TIP3   OH216910   0.660   3.124   5.401
 5649TIP3    H116911   0.595   3.135   5.332
 5649TIP3    H216912   0.678   3.030   5.403
 5650TIP3   OH216913   3.857   1.902   5.805
 5650TIP3    H116914   3.912   1.825   5.789
 5650TIP3    H216915   3.917   1.968   5.839
 5651TIP3   OH216916   4.064   5.678   2.627
 5651TIP3    H116917   4.082   5.709   2.539
 5651TIP3    H216918   4.052   5.757   2.679
 5652TIP3   OH216919   3.986   0.853   1.586
 5652TIP3    H116920   4.009   0.776   1.639
 5652TIP3    H216921   3.924   0.819   1.521
 5653TIP3   OH216922   5.255   5.817   2.622
 5653TIP3    H116923   5.217   5.896   2.584
 5653TIP3    H216924   5.270   5.838   2.714
 5654TIP3   OH216925   2.067   2.589   5.463
 5654TIP3    H116926   2.002   2.573   5.532
 5654TIP3    H216927   2.086   2.503   5.426
 5655TIP3   OH216928   6.370   0.637   2.169
 5655TIP3    H116929   6.386   0.707   2.232
 5655TIP3    H216930   6.453   0.590   2.163
 5656TIP3   OH216931   3.082   3.070   5.125
 5656TIP3    H116932   3.078   3.131   5.198
 5656TIP3    H216933   3.026   3.108   5.058
 5657TIP3   OH216934   5.602   0.383   5.413
 5657TIP3    H116935   5.691   0.358   5.390
 5657TIP3    H216936   5.547   0.326   5.358
 5658TIP3   OH216937   1.697   1.609   2.212
 5658TIP3    H116938   1.666   1.538   2.155
 5658TIP3    H216939   1.761   1.567   2.270
 5659TIP3   OH216940   6.617   3.804   4.797
 5659TIP3    H116941   6.708   3.831   4.785
 5659TIP3    H216942   6.574   3.879   4.837
 5660TIP3   OH216943   3.822   3.982   1.284
 5660TIP3    H116944   3.915   3.995   1.302
 5660TIP3    H216945   3.817   3.897   1.241
 5661TIP3   OH216946   0.396   0.439   3.403
 5661TIP3    H116947   0.380   0.351   3.435
 5661TIP3    H216948   0.467   0.472   3.458
 5662TIP3   OH216949   5.030   2.211   1.528
 5662TIP3    H116950   5.098   2.277   1.519
 5662TIP3    H216951   4.956   2.246   1.477
 5663TIP3   OH216952   2.448   0.190   0.212
 5663TIP3    H116953   2.515   0.251   0.244
 5663TIP3    H216954   2.489   0.147   0.137
 5664TIP3   OH216955   0.605   3.000   3.443
 5664TIP3    H116956   0.622   3.087   3.481
 5664TIP3    H216957   0.553   2.955   3.509
 5665TIP3   OH216958   6.297   2.796   1.165
 5665TIP3    H116959   6.319   2.708   1.133
 5665TIP3    H216960   6.268   2.782   1.256
 5666TIP3   OH216961   0.391   3.124   4.732
 5666TIP3    H116962   0.378   3.213   4.766
 5666TIP3    H216963   0.329   3.071   4.781
 5667TIP3   OH216964   5.357   1.529   4.243
 5667TIP3    H116965   5.263   1.542   4.258
 5667TIP3    H216966   5.389   1.616   4.219
 5668TIP3   OH216967   2.827   1.445   4.401
 5668TIP3    H116968   2.854   1.377   4.463
 5668TIP3    H216969   2.901   1.506   4.398
 5669TIP3   OH216970   2.193   1.437   3.454
 5669TIP3    H116971   2.252   1.505   3.485
 5669TIP3    H216972   2.147   1.477   3.380
 5670TIP3   OH216973   0.093   1.726   2.998
 5670TIP3    H116974   0.113   1.795   2.935
 5670TIP3    H216975   0.046   1.771   3.069
 5671TIP3   OH216976   1.243   1.244   4.067
 5671TIP3    H116977   1.163   1.195   4.050
 5671TIP3    H216978   1.225   1.332   4.031
 5672TIP3   OH216979   1.423   5.466   1.069
 5672TIP3    H116980   1.385   5.381   1.047
 5672TIP3    H216981   1.478   5.448   1.146
 5673TIP3   OH216982   5.468   2.460   2.261
 5673TIP3    H116983   5.400   2.503   2.313
 5673TIP3    H216984   5.470   2.510   2.179
 5674TIP3   OH216985   6.419   6.618   4.823
 5674TIP3    H116986   6.458   6.691   4.775
 5674TIP3    H216987   6.488   6.552   4.826
 5675TIP3   OH216988   0.105   4.142   2.685
 5675TIP3    H116989   0.015   4.175   2.692
 5675TIP3    H216990   0.160   4.220   2.696
 5676TIP3   OH216991   4.839   0.898   3.700
 5676TIP3    H116992   4.856   0.943   3.783
 5676TIP3    H216993   4.789   0.821   3.725
 5677TIP3   OH216994   0.208   6.086   5.863
 5677TIP3    H116995   0.156   6.028   5.808
 5677TIP3    H216996   0.159   6.092   5.945
 5678TIP3   OH216997   2.299   0.052   1.445
 5678TIP3    H116998   2.358   0.110   1.397
 5678TIP3    H216999   2.227   0.109   1.473
 5679TIP3   OH217000   2.987   1.678   4.472
 5679TIP3    H117001   2.894   1.674   4.494
 5679TIP3    H217002   2.994   1.747   4.406
 5680TIP3   OH217003   4.887   4.447   1.139
 5680TIP3    H117004   4.834   4.426   1.062
 5680TIP3    H217005   4.854   4.388   1.207
 5681TIP3   OH217006   0.091   1.736   0.095
 5681TIP3    H117007   0.039   1.736   0.014
 5681TIP3    H217008   0.145   1.658   0.088
 5682TIP3   OH217009   1.365   2.615   0.703
 5682TIP3    H117010   1.292   2.553   0.706
 5682TIP3    H217011   1.334   2.686   0.647
 5683TIP3   OH217012   3.390   1.514   2.501
 5683TIP3    H117013   3.378   1.607   2.485
 5683TIP3    H217014   3.406   1.507   2.595
 5684TIP3   OH217015   3.493   0.583   2.543
 5684TIP3    H117016   3.409   0.612   2.579
 5684TIP3    H217017   3.500   0.626   2.458
 5685TIP3   OH217018   5.690   4.907   0.786
 5685TIP3    H117019   5.719   4.988   0.826
 5685TIP3    H217020   5.609   4.885   0.832
 5686TIP3   OH217021   0.124   5.784   4.397
 5686TIP3    H117022   0.185   5.828   4.338
 5686TIP3    H217023   0.095   5.707   4.348
 5687TIP3   OH217024   3.802   5.689   4.795
 5687TIP3    H117025   3.849   5.728   4.869
 5687TIP3    H217026   3.795   5.596   4.818
 5688TIP3   OH217027   6.121   0.597   2.517
 5688TIP3    H117028   6.132   0.502   2.528
 5688TIP3    H217029   6.107   0.608   2.423
 5689TIP3   OH217030   4.566   1.706   2.948
 5689TIP3    H117031   4.553   1.673   3.037
 5689TIP3    H217032   4.524   1.642   2.891
 5690TIP3   OH217033   0.840   2.852   5.138
 5690TIP3    H117034   0.871   2.764   5.157
 5690TIP3    H217035   0.750   2.840   5.109
 5691TIP3   OH217036   0.273   4.257   3.695
 5691TIP3    H117037   0.308   4.346   3.696
 5691TIP3    H217038   0.348   4.201   3.714
 5692TIP3   OH217039   1.423   1.061   3.352
 5692TIP3    H117040   1.494   1.116   3.384
 5692TIP3    H217041   1.466   0.983   3.317
 5693TIP3   OH217042   1.155   1.345   0.006
 5693TIP3    H117043   1.133   1.257   0.036
 5693TIP3    H217044   1.250   1.344  -0.005
 5694TIP3   OH217045   2.445   5.419   5.640
 5694TIP3    H117046   2.373   5.361   5.665
 5694TIP3    H217047   2.489   5.439   5.722
 5695TIP3   OH217048   6.093   3.147   5.173
 5695TIP3    H117049   6.109   3.224   5.228
 5695TIP3    H217050   6.084   3.075   5.235
 5696TIP3   OH217051   1.567   5.910   3.998
 5696TIP3    H117052   1.608   5.827   4.021
 5696TIP3    H217053   1.540   5.948   4.082
 5697TIP3   OH217054   6.074   6.011   4.626
 5697TIP3    H117055   6.125   6.072   4.574
 5697TIP3    H217056   6.010   6.065   4.671
 5698TIP3   OH217057   2.599   6.346   4.926
 5698TIP3    H117058   2.513   6.307   4.942
 5698TIP3    H217059   2.604   6.419   4.988
 5699TIP3   OH217060   6.718   0.880   1.632
 5699TIP3    H117061   6.761   0.928   1.561
 5699TIP3    H217062   6.675   0.806   1.590
 5700TIP3   OH217063   4.436   5.953   0.143
 5700TIP3    H117064   4.348   5.927   0.115
 5700TIP3    H217065   4.472   6.000   0.069
 5701TIP3   OH217066   1.859   6.331   0.460
 5701TIP3    H117067   1.839   6.341   0.553
 5701TIP3    H217068   1.777   6.352   0.415
 5702TIP3   OH217069   2.133   2.253   1.887
 5702TIP3    H117070   2.088   2.242   1.970
 5702TIP3    H217071   2.090   2.192   1.827
 5703TIP3   OH217072   3.840   5.274   2.536
 5703TIP3    H117073   3.772   5.210   2.514
 5703TIP3    H217074   3.820   5.349   2.480
 5704TIP3   OH217075   1.980   6.733   5.573
 5704TIP3    H117076   1.967   6.727   5.668
 5704TIP3    H217077   2.052   6.673   5.555
 5705TIP3   OH217078   0.447   5.101   2.097
 5705TIP3    H117079   0.494   5.174   2.058
 5705TIP3    H217080   0.491   5.085   2.181
 5706TIP3   OH217081   6.878   2.677   4.006
 5706TIP3    H117082   6.954   2.619   3.996
 5706TIP3    H217083   6.806   2.618   4.031
 5707TIP3   OH217084   2.060   4.834   2.749
 5707TIP3    H117085   1.973   4.874   2.749
 5707TIP3    H217086   2.118   4.903   2.719
 5708TIP3   OH217087   7.066   6.441   2.939
 5708TIP3    H117088   7.103   6.499   3.005
 5708TIP3    H217089   7.009   6.381   2.989
 5709TIP3   OH217090   7.104   2.762   3.235
 5709TIP3    H117091   7.073   2.773   3.145
 5709TIP3    H217092   7.167   2.690   3.230
 5710TIP3   OH217093   4.542   4.208   3.399
 5710TIP3    H117094   4.483   4.208   3.474
 5710TIP3    H217095   4.627   4.233   3.434
 5711TIP3   OH217096   2.070   6.322   2.227
 5711TIP3    H117097   2.085   6.410   2.192
 5711TIP3    H217098   2.058   6.335   2.321
 5712TIP3   OH217099   5.303   5.424   0.438
 5712TIP3    H117100   5.367   5.458   0.502
 5712TIP3    H217101   5.342   5.342   0.407
 5713TIP3   OH217102   3.710   5.716   1.995
 5713TIP3    H117103   3.709   5.647   1.928
 5713TIP3    H217104   3.768   5.783   1.958
 5714TIP3   OH217105   2.716   5.140   1.507
 5714TIP3    H117106   2.623   5.164   1.508
 5714TIP3    H217107   2.744   5.157   1.417
 5715TIP3   OH217108   4.614   5.844   1.923
 5715TIP3    H117109   4.585   5.824   2.012
 5715TIP3    H217110   4.645   5.934   1.927
 5716TIP3   OH217111   5.737   0.665   2.633
 5716TIP3    H117112   5.716   0.572   2.619
 5716TIP3    H217113   5.653   0.706   2.653
 5717TIP3   OH217114   1.579   0.804   0.392
 5717TIP3    H117115   1.647   0.869   0.372
 5717TIP3    H217116   1.518   0.850   0.449
 5718TIP3   OH217117   0.766   3.789   4.950
 5718TIP3    H117118   0.710   3.751   5.018
 5718TIP3    H217119   0.707   3.845   4.900
 5719TIP3   OH217120   5.075   4.127  -0.033
 5719TIP3    H117121   5.094   4.199   0.027
 5719TIP3    H217122   5.015   4.070   0.015
 5720TIP3   OH217123   3.997   3.633   0.209
 5720TIP3    H117124   3.989   3.538   0.203
 5720TIP3    H217125   3.946   3.666   0.134
 5721TIP3   OH217126  -0.011   1.138   1.915
 5721TIP3    H117127  -0.034   1.045   1.915
 5721TIP3    H217128   0.024   1.154   1.827
 5722TIP3   OH217129   3.172   1.012   3.005
 5722TIP3    H117130   3.112   1.080   2.974
 5722TIP3    H217131   3.255   1.058   3.019
 5723TIP3   OH217132   4.993   4.780   2.499
 5723TIP3    H117133   5.045   4.811   2.573
 5723TIP3    H217134   5.050   4.717   2.454
 5724TIP3   OH217135   7.108   1.359   5.253
 5724TIP3    H117136   7.030   1.413   5.241
 5724TIP3    H217137   7.151   1.396   5.330
 5725TIP3   OH217138   3.948   1.101   2.404
 5725TIP3    H117139   3.855   1.121   2.397
 5725TIP3    H217140   3.988   1.148   2.330
 5726TIP3   OH217141   2.143   4.411   3.358
 5726TIP3    H117142   2.201   4.401   3.434
 5726TIP3    H217143   2.203   4.415   3.283
 5727TIP3   OH217144   6.640   3.280   5.651
 5727TIP3    H117145   6.591   3.256   5.573
 5727TIP3    H217146   6.574   3.311   5.713
 5728TIP3   OH217147   6.242   3.749   2.458
 5728TIP3    H117148   6.168   3.805   2.479
 5728TIP3    H217149   6.290   3.796   2.390
 5729TIP3   OH217150   2.685   1.660   3.197
 5729TIP3    H117151   2.737   1.739   3.213
 5729TIP3    H217152   2.723   1.594   3.255
 5730TIP3   OH217153   3.828   6.573   2.324
 5730TIP3    H117154   3.750   6.595   2.375
 5730TIP3    H217155   3.794   6.542   2.240
 5731TIP3   OH217156   4.495   6.496   2.574
 5731TIP3    H117157   4.448   6.532   2.499
 5731TIP3    H217158   4.548   6.568   2.607
 5732TIP3   OH217159   6.521   1.296   3.040
 5732TIP3    H117160   6.577   1.226   3.074
 5732TIP3    H217161   6.581   1.355   2.995
 5733TIP3   OH217162   7.063   4.824   5.884
 5733TIP3    H117163   7.048   4.730   5.879
 5733TIP3    H217164   7.125   4.836   5.956
 5734TIP3   OH217165   2.420   5.934   4.852
 5734TIP3    H117166   2.333   5.900   4.872
 5734TIP3    H217167   2.446   5.983   4.930
 5735TIP3   OH217168   6.228   6.552   2.637
 5735TIP3    H117169   6.296   6.588   2.693
 5735TIP3    H217170   6.237   6.457   2.647
 5736TIP3   OH217171   1.692   5.371   4.353
 5736TIP3    H117172   1.636   5.308   4.307
 5736TIP3    H217173   1.667   5.364   4.445
 5737TIP3   OH217174   2.517   5.991   0.941
 5737TIP3    H117175   2.542   6.064   0.885
 5737TIP3    H217176   2.550   6.016   1.028
 5738TIP3   OH217177   6.653   6.158   5.645
 5738TIP3    H117178   6.652   6.230   5.582
 5738TIP3    H217179   6.727   6.103   5.617
 5739TIP3   OH217180   2.304   6.567   0.749
 5739TIP3    H117181   2.273   6.654   0.725
 5739TIP3    H217182   2.257   6.547   0.830
 5740TIP3   OH217183   4.716   0.784   3.082
 5740TIP3    H117184   4.757   0.705   3.117
 5740TIP3    H217185   4.785   0.850   3.087
 5741TIP3   OH217186   5.937   2.997   3.505
 5741TIP3    H117187   5.874   2.928   3.521
 5741TIP3    H217188   6.013   2.953   3.466
 5742TIP3   OH217189   1.615   0.545   4.415
 5742TIP3    H117190   1.684   0.558   4.480
 5742TIP3    H217191   1.535   0.576   4.458
 5743TIP3   OH217192   2.889   0.293   2.857
 5743TIP3    H117193   2.822   0.282   2.924
 5743TIP3    H217194   2.972   0.280   2.904
 5744TIP3   OH217195   5.984   2.028   2.562
 5744TIP3    H117196   5.988   1.963   2.492
 5744TIP3    H217197   5.894   2.023   2.594
 5745TIP3   OH217198   0.098   4.940   5.146
 5745TIP3    H117199   0.082   4.953   5.052
 5745TIP3    H217200   0.080   5.026   5.185
 5746TIP3   OH217201   3.989   1.079   1.447
 5746TIP3    H117202   3.989   1.003   1.505
 5746TIP3    H217203   3.902   1.118   1.459
 5747TIP3   OH217204   0.213   0.164   3.980
 5747TIP3    H117205   0.299   0.127   3.998
 5747TIP3    H217206   0.232   0.248   3.938
 5748TIP3   OH217207   4.899   0.750   0.287
 5748TIP3    H117208   4.932   0.803   0.215
 5748TIP3    H217209   4.885   0.663   0.249
 5749TIP3   OH217210   6.350   2.415   0.924
 5749TIP3    H117211   6.288   2.458   0.865
 5749TIP3    H217212   6.436   2.438   0.889
 5750TIP3   OH217213   1.363   0.080   1.774
 5750TIP3    H117214   1.353  -0.013   1.794
 5750TIP3    H217215   1.338   0.125   1.855
 5751TIP3   OH217216   0.513   0.388   4.518
 5751TIP3    H117217   0.542   0.479   4.524
 5751TIP3    H217218   0.492   0.364   4.609
 5752TIP3   OH217219   0.319   0.075   0.218
 5752TIP3    H117220   0.362   0.075   0.304
 5752TIP3    H217221   0.363   0.144   0.169
 5753TIP3   OH217222   5.655   3.688   1.960
 5753TIP3    H117223   5.589   3.757   1.963
 5753TIP3    H217224   5.605   3.607   1.948
 5754TIP3   OH217225   4.710   4.441   5.451
 5754TIP3    H117226   4.719   4.375   5.382
 5754TIP3    H217227   4.663   4.396   5.521
 5755TIP3   OH217228   0.873   3.320   2.529
 5755TIP3    H117229   0.856   3.272   2.449
 5755TIP3    H217230   0.879   3.253   2.597
 5756TIP3   OH217231   5.419   3.196   3.929
 5756TIP3    H117232   5.435   3.178   4.021
 5756TIP3    H217233   5.360   3.126   3.901
 5757TIP3   OH217234   0.034   4.110   1.865
 5757TIP3    H117235   0.075   4.137   1.947
 5757TIP3    H217236   0.026   4.015   1.871
 5758TIP3   OH217237   3.723   0.554   3.954
 5758TIP3    H117238   3.706   0.590   3.867
 5758TIP3    H217239   3.647   0.579   4.006
 5759TIP3   OH217240   5.286   6.175   5.423
 5759TIP3    H117241   5.337   6.227   5.360
 5759TIP3    H217242   5.279   6.232   5.500
 5760TIP3   OH217243   4.782   5.539   1.517
 5760TIP3    H117244   4.781   5.451   1.554
 5760TIP3    H217245   4.699   5.578   1.544
 5761TIP3   OH217246   6.943   5.186   4.024
 5761TIP3    H117247   6.929   5.247   4.096
 5761TIP3    H217248   7.037   5.169   4.025
 5762TIP3   OH217249   6.428   6.087   1.918
 5762TIP3    H117250   6.453   6.180   1.914
 5762TIP3    H217251   6.483   6.045   1.853
 5763TIP3   OH217252   6.461   3.944   1.552
 5763TIP3    H117253   6.373   3.958   1.517
 5763TIP3    H217254   6.446   3.906   1.639
 5764TIP3   OH217255   2.352   5.347   3.739
 5764TIP3    H117256   2.408   5.269   3.744
 5764TIP3    H217257   2.377   5.400   3.814
 5765TIP3   OH217258   5.129   2.479   4.311
 5765TIP3    H117259   5.153   2.564   4.347
 5765TIP3    H217260   5.111   2.424   4.388
 5766TIP3   OH217261   1.815   1.871   5.693
 5766TIP3    H117262   1.870   1.939   5.730
 5766TIP3    H217263   1.797   1.811   5.765
 5767TIP3   OH217264   4.143   2.354   4.959
 5767TIP3    H117265   4.053   2.331   4.936
 5767TIP3    H217266   4.177   2.399   4.882
 5768TIP3   OH217267   7.233   6.057   5.034
 5768TIP3    H117268   7.237   5.995   5.106
 5768TIP3    H217269   7.303   6.029   4.975
 5769TIP3   OH217270   2.473   3.508   4.547
 5769TIP3    H117271   2.383   3.481   4.562
 5769TIP3    H217272   2.526   3.434   4.578
 5770TIP3   OH217273   3.683   0.619   5.325
 5770TIP3    H117274   3.720   0.673   5.255
 5770TIP3    H217275   3.683   0.530   5.290
 5771TIP3   OH217276   1.954   0.344   5.203
 5771TIP3    H117277   1.902   0.399   5.144
 5771TIP3    H217278   1.965   0.397   5.282
 5772TIP3   OH217279   1.206   3.390   3.927
 5772TIP3    H117280   1.206   3.296   3.909
 5772TIP3    H217281   1.276   3.425   3.872
 5773TIP3   OH217282   0.777   3.272   5.050
 5773TIP3    H117283   0.691   3.238   5.074
 5773TIP3    H217284   0.817   3.296   5.134
 5774TIP3   OH217285   2.728   1.256   3.094
 5774TIP3    H117286   2.660   1.238   3.159
 5774TIP3    H217287   2.705   1.342   3.058
 5775TIP3   OH217288   1.500   6.525   1.044
 5775TIP3    H117289   1.536   6.497   1.128
 5775TIP3    H217290   1.438   6.595   1.066
 5776TIP3   OH217291   3.453   3.685   5.687
 5776TIP3    H117292   3.391   3.612   5.693
 5776TIP3    H217293   3.419   3.740   5.617
 5777TIP3   OH217294   6.795   4.912   3.758
 5777TIP3    H117295   6.773   4.981   3.695
 5777TIP3    H217296   6.889   4.899   3.749
 5778TIP3   OH217297   2.280   4.127   3.686
 5778TIP3    H117298   2.204   4.074   3.708
 5778TIP3    H217299   2.347   4.100   3.748
 5779TIP3   OH217300   4.234   5.031   3.737
 5779TIP3    H117301   4.206   5.123   3.738
 5779TIP3    H217302   4.156   4.984   3.707
 5780TIP3   OH217303   4.224   2.206   0.746
 5780TIP3    H117304   4.225   2.110   0.746
 5780TIP3    H217305   4.254   2.231   0.833
 5781TIP3   OH217306   6.982   4.223   1.838
 5781TIP3    H117307   6.939   4.213   1.754
 5781TIP3    H217308   7.072   4.194   1.822
 5782TIP3   OH217309   3.299   3.716   1.656
 5782TIP3    H117310   3.362   3.745   1.722
 5782TIP3    H217311   3.335   3.746   1.573
 5783TIP3   OH217312   3.143   4.315   5.836
 5783TIP3    H117313   3.204   4.387   5.822
 5783TIP3    H217314   3.078   4.350   5.897
 5784TIP3   OH217315   5.067   0.784   0.899
 5784TIP3    H117316   5.085   0.837   0.976
 5784TIP3    H217317   5.065   0.846   0.827
 5785TIP3   OH217318   1.210   1.068   1.153
 5785TIP3    H117319   1.128   1.020   1.151
 5785TIP3    H217320   1.184   1.160   1.149
 5786TIP3   OH217321   4.173   3.489   4.567
 5786TIP3    H117322   4.263   3.488   4.537
 5786TIP3    H217323   4.179   3.486   4.662
 5787TIP3   OH217324   5.989   2.754   4.579
 5787TIP3    H117325   5.953   2.837   4.611
 5787TIP3    H217326   5.916   2.692   4.588
 5788TIP3   OH217327   0.416   2.028   2.525
 5788TIP3    H117328   0.324   2.001   2.525
 5788TIP3    H217329   0.459   1.968   2.465
 5789TIP3   OH217330   6.686   1.845   2.370
 5789TIP3    H117331   6.595   1.866   2.348
 5789TIP3    H217332   6.695   1.752   2.350
 5790TIP3   OH217333   4.107   6.790   5.337
 5790TIP3    H117334   4.017   6.784   5.370
 5790TIP3    H217335   4.159   6.739   5.400
 5791TIP3   OH217336   6.655   4.130   0.839
 5791TIP3    H117337   6.738   4.087   0.859
 5791TIP3    H217338   6.610   4.138   0.924
 5792TIP3   OH217339   2.410   4.766   3.768
 5792TIP3    H117340   2.396   4.762   3.674
 5792TIP3    H217341   2.322   4.768   3.805
 5793TIP3   OH217342   0.459   6.706   4.872
 5793TIP3    H117343   0.380   6.694   4.820
 5793TIP3    H217344   0.449   6.793   4.911
 5794TIP3   OH217345   2.503   5.902   5.629
 5794TIP3    H117346   2.415   5.886   5.663
 5794TIP3    H217347   2.532   5.981   5.675
 5795TIP3   OH217348   3.047   4.761   3.037
 5795TIP3    H117349   3.027   4.691   2.976
 5795TIP3    H217350   3.079   4.833   2.983
 5796TIP3   OH217351   1.123   5.083   0.832
 5796TIP3    H117352   1.168   5.004   0.804
 5796TIP3    H217353   1.057   5.053   0.895
 5797TIP3   OH217354   6.524   0.075   0.157
 5797TIP3    H117355   6.529   0.159   0.112
 5797TIP3    H217356   6.545   0.010   0.089
 5798TIP3   OH217357   3.506   6.559   3.593
 5798TIP3    H117358   3.465   6.582   3.509
 5798TIP3    H217359   3.592   6.599   3.589
 5799TIP3   OH217360   5.468   1.337   4.891
 5799TIP3    H117361   5.425   1.394   4.956
 5799TIP3    H217362   5.539   1.390   4.856
 5800TIP3   OH217363   5.149   3.814   0.308
 5800TIP3    H117364   5.145   3.906   0.281
 5800TIP3    H217365   5.076   3.804   0.369
 5801TIP3   OH217366   3.136   6.721   4.713
 5801TIP3    H117367   3.151   6.812   4.741
 5801TIP3    H217368   3.188   6.668   4.773
 5802TIP3   OH217369   4.312   4.998   5.016
 5802TIP3    H117370   4.262   4.996   4.935
 5802TIP3    H217371   4.255   4.957   5.081
 5803TIP3   OH217372   4.963   0.490   2.052
 5803TIP3    H117373   4.986   0.404   2.018
 5803TIP3    H217374   5.046   0.538   2.056
 5804TIP3   OH217375   2.265   0.889   2.097
 5804TIP3    H117376   2.351   0.882   2.139
 5804TIP3    H217377   2.284   0.920   2.009
 5805TIP3   OH217378   1.608   5.474   3.910
 5805TIP3    H117379   1.616   5.432   3.996
 5805TIP3    H217380   1.664   5.421   3.853
 5806TIP3   OH217381   2.756   2.253   2.577
 5806TIP3    H117382   2.697   2.191   2.622
 5806TIP3    H217383   2.831   2.200   2.552
 5807TIP3   OH217384   0.001   5.612   3.712
 5807TIP3    H117385  -0.082   5.642   3.675
 5807TIP3    H217386  -0.003   5.516   3.708
 5808TIP3   OH217387   2.981   2.561   2.098
 5808TIP3    H117388   3.056   2.530   2.047
 5808TIP3    H217389   2.994   2.655   2.104
 5809TIP3   OH217390   0.848   5.117   0.311
 5809TIP3    H117391   0.809   5.037   0.345
 5809TIP3    H217392   0.843   5.179   0.384
 5810TIP3   OH217393   5.420   2.632   2.066
 5810TIP3    H117394   5.429   2.707   2.124
 5810TIP3    H217395   5.474   2.655   1.989
 5811TIP3   OH217396   2.454   3.772   3.678
 5811TIP3    H117397   2.390   3.709   3.712
 5811TIP3    H217398   2.453   3.844   3.742
 5812TIP3   OH217399   5.459   6.217   2.990
 5812TIP3    H117400   5.477   6.304   2.955
 5812TIP3    H217401   5.366   6.202   2.971
 5813TIP3   OH217402   1.290   2.520   2.637
 5813TIP3    H117403   1.287   2.522   2.541
 5813TIP3    H217404   1.383   2.511   2.658
 5814TIP3   OH217405   0.239   0.121   1.954
 5814TIP3    H117406   0.191   0.192   1.997
 5814TIP3    H217407   0.219   0.131   1.861
 5815TIP3   OH217408   4.519   1.883   5.614
 5815TIP3    H117409   4.580   1.824   5.659
 5815TIP3    H217410   4.449   1.897   5.678
 5816TIP3   OH217411   0.034   1.615   5.079
 5816TIP3    H117412   0.007   1.560   5.005
 5816TIP3    H217413   0.108   1.567   5.117
 5817TIP3   OH217414   1.574   0.553   3.069
 5817TIP3    H117415   1.667   0.575   3.075
 5817TIP3    H217416   1.553   0.561   2.976
 5818TIP3   OH217417   5.458   4.248   4.799
 5818TIP3    H117418   5.428   4.257   4.709
 5818TIP3    H217419   5.466   4.338   4.831
 5819TIP3   OH217420   2.219   0.562   5.715
 5819TIP3    H117421   2.310   0.589   5.708
 5819TIP3    H217422   2.217   0.498   5.787
 5820TIP3   OH217423   4.350   6.172   3.536
 5820TIP3    H117424   4.341   6.076   3.533
 5820TIP3    H217425   4.436   6.189   3.497
 5821TIP3   OH217426   3.481   0.924   5.794
 5821TIP3    H117427   3.433   1.006   5.778
 5821TIP3    H217428   3.429   0.879   5.861
 5822TIP3   OH217429   0.999   6.002   0.908
 5822TIP3    H117430   0.911   6.008   0.944
 5822TIP3    H217431   0.986   5.998   0.813
 5823TIP3   OH217432   0.109   0.148   5.738
 5823TIP3    H117433   0.021   0.165   5.772
 5823TIP3    H217434   0.098   0.069   5.684
 5824TIP3   OH217435   7.095   4.888   4.355
 5824TIP3    H117436   7.113   4.917   4.444
 5824TIP3    H217437   7.016   4.835   4.363
 5825TIP3   OH217438   4.282   4.501   0.770
 5825TIP3    H117439   4.220   4.452   0.825
 5825TIP3    H217440   4.275   4.591   0.801
 5826TIP3   OH217441   6.387   1.944   3.424
 5826TIP3    H117442   6.320   1.877   3.413
 5826TIP3    H217443   6.381   1.968   3.516
 5827TIP3   OH217444   6.468   6.475   2.363
 5827TIP3    H117445   6.390   6.419   2.364
 5827TIP3    H217446   6.541   6.413   2.369
 5828TIP3   OH217447   1.990   0.842   3.179
 5828TIP3    H117448   2.072   0.880   3.148
 5828TIP3    H217449   1.927   0.860   3.109
 5829TIP3   OH217450   6.532   4.064   3.560
 5829TIP3    H117451   6.457   4.037   3.614
 5829TIP3    H217452   6.498   4.064   3.471
 5830TIP3   OH217453   2.126   6.776   0.731
 5830TIP3    H117454   2.095   6.858   0.691
 5830TIP3    H217455   2.045   6.733   0.761
 5831TIP3   OH217456   5.229   4.719   1.090
 5831TIP3    H117457   5.190   4.778   1.156
 5831TIP3    H217458   5.199   4.754   1.006
 5832TIP3   OH217459   5.031   3.131   0.912
 5832TIP3    H117460   5.105   3.103   0.859
 5832TIP3    H217461   5.007   3.053   0.962
 5833TIP3   OH217462   4.464   2.920   4.141
 5833TIP3    H117463   4.459   2.925   4.046
 5833TIP3    H217464   4.534   2.981   4.165
 5834TIP3   OH217465   3.716   4.054   2.854
 5834TIP3    H117466   3.700   4.000   2.931
 5834TIP3    H217467   3.782   4.006   2.804
 5835TIP3   OH217468   1.911   1.697   0.487
 5835TIP3    H117469   1.859   1.776   0.502
 5835TIP3    H217470   1.856   1.641   0.433
 5836TIP3   OH217471   0.868   3.919   0.639
 5836TIP3    H117472   0.868   4.008   0.674
 5836TIP3    H217473   0.834   3.865   0.710
 5837TIP3   OH217474   5.020   5.070   1.466
 5837TIP3    H117475   5.000   5.029   1.551
 5837TIP3    H217476   5.039   5.161   1.488
 5838TIP3   OH217477   0.150   0.036   4.217
 5838TIP3    H117478   0.114   0.105   4.273
 5838TIP3    H217479   0.158   0.076   4.131
 5839TIP3   OH217480   3.472   6.053   5.723
 5839TIP3    H117481   3.408   5.983   5.706
 5839TIP3    H217482   3.538   6.011   5.778
 5840TIP3   OH217483   1.208   4.632   0.254
 5840TIP3    H117484   1.238   4.548   0.287
 5840TIP3    H217485   1.157   4.669   0.326
 5841TIP3   OH217486   3.867   0.230   3.533
 5841TIP3    H117487   3.935   0.162   3.536
 5841TIP3    H217488   3.898   0.297   3.594
 5842TIP3   OH217489   4.847   0.974   2.606
 5842TIP3    H117490   4.885   0.962   2.693
 5842TIP3    H217491   4.756   0.998   2.623
 5843TIP3   OH217492   5.375   1.653   2.626
 5843TIP3    H117493   5.280   1.666   2.629
 5843TIP3    H217494   5.387   1.559   2.618
 5844TIP3   OH217495   3.673   0.504   0.435
 5844TIP3    H117496   3.716   0.567   0.378
 5844TIP3    H217497   3.618   0.557   0.492
 5845TIP3   OH217498   7.126  -0.032   3.429
 5845TIP3    H117499   7.066   0.036   3.398
 5845TIP3    H217500   7.179   0.011   3.496
 5846TIP3   OH217501   4.389   3.367   2.547
 5846TIP3    H117502   4.456   3.331   2.605
 5846TIP3    H217503   4.374   3.298   2.482
 5847TIP3   OH217504   2.431   3.462   3.520
 5847TIP3    H117505   2.429   3.367   3.532
 5847TIP3    H217506   2.522   3.481   3.495
 5848TIP3   OH217507   7.007   2.008   4.950
 5848TIP3    H117508   7.096   2.044   4.948
 5848TIP3    H217509   7.010   1.940   5.017
 5849TIP3   OH217510   1.447   3.450   1.504
 5849TIP3    H117511   1.363   3.481   1.469
 5849TIP3    H217512   1.513   3.505   1.461
 5850TIP3   OH217513   1.914   3.776   5.145
 5850TIP3    H117514   1.844   3.715   5.169
 5850TIP3    H217515   1.886   3.814   5.062
 5851TIP3   OH217516   3.698   3.390   3.143
 5851TIP3    H117517   3.658   3.471   3.109
 5851TIP3    H217518   3.630   3.351   3.198
 5852TIP3   OH217519   1.460   2.340   3.402
 5852TIP3    H117520   1.525   2.296   3.347
 5852TIP3    H217521   1.486   2.319   3.492
 5853TIP3   OH217522   4.440   6.148   1.152
 5853TIP3    H117523   4.488   6.135   1.233
 5853TIP3    H217524   4.349   6.126   1.173
 5854TIP3   OH217525   5.357   6.554   0.416
 5854TIP3    H117526   5.293   6.531   0.348
 5854TIP3    H217527   5.306   6.556   0.497
 5855TIP3   OH217528   1.613   0.639   5.380
 5855TIP3    H117529   1.691   0.648   5.435
 5855TIP3    H217530   1.629   0.697   5.306
 5856TIP3   OH217531   6.776   0.177   2.631
 5856TIP3    H117532   6.681   0.186   2.630
 5856TIP3    H217533   6.803   0.200   2.542
 5857TIP3   OH217534   0.915   1.951   0.285
 5857TIP3    H117535   0.965   1.962   0.366
 5857TIP3    H217536   0.834   1.908   0.313
 5858TIP3   OH217537   3.107   2.465   3.137
 5858TIP3    H117538   3.201   2.483   3.145
 5858TIP3    H217539   3.102   2.372   3.118
 5859TIP3   OH217540   0.366   0.503   0.399
 5859TIP3    H117541   0.387   0.596   0.407
 5859TIP3    H217542   0.389   0.466   0.484
 5860TIP3   OH217543   3.503   2.030   4.334
 5860TIP3    H117544   3.559   2.002   4.261
 5860TIP3    H217545   3.485   1.949   4.382
 5861TIP3   OH217546   4.161   1.898   0.391
 5861TIP3    H117547   4.101   1.972   0.377
 5861TIP3    H217548   4.200   1.882   0.305
 5862TIP3   OH217549   2.015   2.373   4.125
 5862TIP3    H117550   1.968   2.437   4.072
 5862TIP3    H217551   2.005   2.291   4.078
 5863TIP3   OH217552   6.922   0.058   4.249
 5863TIP3    H117553   6.952  -0.003   4.181
 5863TIP3    H217554   6.950   0.017   4.331
 5864TIP3   OH217555   4.304   0.601   3.193
 5864TIP3    H117556   4.278   0.562   3.276
 5864TIP3    H217557   4.338   0.528   3.141
 5865TIP3   OH217558   4.748   1.625   4.896
 5865TIP3    H117559   4.716   1.648   4.983
 5865TIP3    H217560   4.683   1.564   4.862
 5866TIP3   OH217561   1.374   5.938   0.497
 5866TIP3    H117562   1.407   6.024   0.469
 5866TIP3    H217563   1.280   5.942   0.481
 5867TIP3   OH217564   4.856   2.599   4.500
 5867TIP3    H117565   4.815   2.512   4.499
 5867TIP3    H217566   4.947   2.581   4.525
 5868TIP3   OH217567   3.666   0.878   2.626
 5868TIP3    H117568   3.711   0.813   2.572
 5868TIP3    H217569   3.721   0.888   2.703
 5869TIP3   OH217570   1.385   0.481   0.202
 5869TIP3    H117571   1.387   0.528   0.286
 5869TIP3    H217572   1.292   0.474   0.181
 5870TIP3   OH217573   6.118   5.553   5.247
 5870TIP3    H117574   6.191   5.501   5.213
 5870TIP3    H217575   6.079   5.497   5.315
 5871TIP3   OH217576   1.472   0.369   1.947
 5871TIP3    H117577   1.526   0.292   1.968
 5871TIP3    H217578   1.496   0.434   2.013
 5872TIP3   OH217579   6.041   4.313   0.428
 5872TIP3    H117580   6.003   4.285   0.511
 5872TIP3    H217581   6.135   4.317   0.444
 5873TIP3   OH217582   1.635   4.624   0.925
 5873TIP3    H117583   1.585   4.563   0.871
 5873TIP3    H217584   1.690   4.568   0.980
 5874TIP3   OH217585   5.243   5.455   1.783
 5874TIP3    H117586   5.222   5.540   1.821
 5874TIP3    H217587   5.338   5.457   1.769
 5875TIP3   OH217588   2.556   1.982   4.393
 5875TIP3    H117589   2.471   1.956   4.428
 5875TIP3    H217590   2.573   2.068   4.432
 5876TIP3   OH217591   3.959   5.934   3.635
 5876TIP3    H117592   3.956   6.019   3.591
 5876TIP3    H217593   3.973   5.955   3.727
 5877TIP3   OH217594   0.381   4.585   0.920
 5877TIP3    H117595   0.418   4.509   0.966
 5877TIP3    H217596   0.312   4.548   0.865
 5878TIP3   OH217597   6.485   1.989   0.569
 5878TIP3    H117598   6.416   1.962   0.508
 5878TIP3    H217599   6.440   2.045   0.633
 5879TIP3   OH217600   2.854   6.247   1.410
 5879TIP3    H117601   2.773   6.201   1.390
 5879TIP3    H217602   2.906   6.184   1.461
 5880TIP3   OH217603   5.535   2.363   2.722
 5880TIP3    H117604   5.496   2.303   2.785
 5880TIP3    H217605   5.551   2.309   2.644
 5881TIP3   OH217606   2.328   3.492   1.053
 5881TIP3    H117607   2.247   3.534   1.024
 5881TIP3    H217608   2.339   3.417   0.996
 5882TIP3   OH217609   4.540   0.796   5.732
 5882TIP3    H117610   4.504   0.761   5.650
 5882TIP3    H217611   4.605   0.731   5.759
 5883TIP3   OH217612   2.609   2.248   0.130
 5883TIP3    H117613   2.617   2.319   0.194
 5883TIP3    H217614   2.520   2.216   0.141
 5884TIP3   OH217615   5.524   3.454   1.988
 5884TIP3    H117616   5.593   3.391   2.009
 5884TIP3    H217617   5.461   3.446   2.060
 5885TIP3   OH217618   3.937   5.726   0.345
 5885TIP3    H117619   3.934   5.680   0.261
 5885TIP3    H217620   3.947   5.818   0.322
 5886TIP3   OH217621   2.467   0.944   3.117
 5886TIP3    H117622   2.434   0.859   3.086
 5886TIP3    H217623   2.561   0.929   3.130
 5887TIP3   OH217624   0.721   5.633   3.658
 5887TIP3    H117625   0.690   5.647   3.747
 5887TIP3    H217626   0.677   5.701   3.606
 5888TIP3   OH217627   2.970   6.434   2.627
 5888TIP3    H117628   2.953   6.366   2.562
 5888TIP3    H217629   2.981   6.387   2.709
 5889TIP3   OH217630   6.066   0.813   3.425
 5889TIP3    H117631   6.094   0.733   3.469
 5889TIP3    H217632   6.090   0.883   3.486
 5890TIP3   OH217633   4.452   3.545   0.003
 5890TIP3    H117634   4.396   3.556   0.080
 5890TIP3    H217635   4.517   3.616   0.010
 5891TIP3   OH217636   5.321   1.818   0.785
 5891TIP3    H117637   5.288   1.756   0.720
 5891TIP3    H217638   5.400   1.776   0.820
 5892TIP3   OH217639   1.530   1.679   2.512
 5892TIP3    H117640   1.477   1.692   2.434
 5892TIP3    H217641   1.562   1.589   2.506
 5893TIP3   OH217642   1.425   2.268   3.091
 5893TIP3    H117643   1.359   2.276   3.022
 5893TIP3    H217644   1.376   2.272   3.173
 5894TIP3   OH217645   5.831   5.962   1.616
 5894TIP3    H117646   5.766   6.033   1.614
 5894TIP3    H217647   5.906   6.000   1.662
 5895TIP3   OH217648   5.213   3.985   2.875
 5895TIP3    H117649   5.291   4.029   2.840
 5895TIP3    H217650   5.218   3.999   2.969
 5896TIP3   OH217651   1.530   0.806   3.264
 5896TIP3    H117652   1.623   0.783   3.267
 5896TIP3    H217653   1.484   0.723   3.280
 5897TIP3   OH217654   6.333   3.072   5.024
 5897TIP3    H117655   6.386   3.150   5.038
 5897TIP3    H217656   6.243   3.100   5.043
 5898TIP3   OH217657   6.679   6.657   2.456
 5898TIP3    H117658   6.593   6.614   2.461
 5898TIP3    H217659   6.660   6.750   2.470
 5899TIP3   OH217660   4.652   1.491   2.574
 5899TIP3    H117661   4.662   1.435   2.497
 5899TIP3    H217662   4.667   1.433   2.649
 5900TIP3   OH217663   7.073   6.564   3.930
 5900TIP3    H117664   7.028   6.517   3.860
 5900TIP3    H217665   7.103   6.494   3.989
 5901TIP3   OH217666   2.705   2.413   5.439
 5901TIP3    H117667   2.717   2.327   5.398
 5901TIP3    H217668   2.685   2.472   5.366
 5902TIP3   OH217669   3.416   4.640   5.383
 5902TIP3    H117670   3.457   4.570   5.434
 5902TIP3    H217671   3.481   4.710   5.381
 5903TIP3   OH217672   1.373   3.599   0.840
 5903TIP3    H117673   1.325   3.517   0.844
 5903TIP3    H217674   1.322   3.659   0.894
 5904TIP3   OH217675   0.286   0.664   4.413
 5904TIP3    H117676   0.340   0.700   4.484
 5904TIP3    H217677   0.327   0.697   4.333
 5905TIP3   OH217678   5.039   5.564   0.907
 5905TIP3    H117679   5.024   5.631   0.974
 5905TIP3    H217680   4.989   5.488   0.939
 5906TIP3   OH217681   5.038   4.360   4.217
 5906TIP3    H117682   5.050   4.451   4.190
 5906TIP3    H217683   5.002   4.366   4.305
 5907TIP3   OH217684   4.227   3.173   3.446
 5907TIP3    H117685   4.278   3.095   3.466
 5907TIP3    H217686   4.290   3.245   3.447
 5908TIP3   OH217687   1.676   4.087   1.992
 5908TIP3    H117688   1.727   4.016   1.953
 5908TIP3    H217689   1.587   4.071   1.963
 5909TIP3   OH217690   2.242   5.147   4.543
 5909TIP3    H117691   2.195   5.203   4.605
 5909TIP3    H217692   2.304   5.206   4.500
 5910TIP3   OH217693   0.340   6.262   3.817
 5910TIP3    H117694   0.377   6.177   3.793
 5910TIP3    H217695   0.306   6.297   3.735
 5911TIP3   OH217696   3.731   3.094   5.040
 5911TIP3    H117697   3.768   3.056   4.960
 5911TIP3    H217698   3.640   3.064   5.041
 5912TIP3   OH217699   6.093   5.249   0.177
 5912TIP3    H117700   6.035   5.325   0.170
 5912TIP3    H217701   6.145   5.252   0.097
 5913TIP3   OH217702   4.686   4.455   3.793
 5913TIP3    H117703   4.642   4.387   3.741
 5913TIP3    H217704   4.736   4.406   3.858
 5914TIP3   OH217705   5.742   3.226   0.378
 5914TIP3    H117706   5.733   3.206   0.285
 5914TIP3    H217707   5.787   3.149   0.414
 5915TIP3   OH217708   0.439   3.342   3.150
 5915TIP3    H117709   0.354   3.377   3.124
 5915TIP3    H217710   0.418   3.260   3.195
 5916TIP3   OH217711   0.441   2.137   2.138
 5916TIP3    H117712   0.437   2.072   2.208
 5916TIP3    H217713   0.532   2.136   2.109
 5917TIP3   OH217714   6.360   2.732   3.177
 5917TIP3    H117715   6.454   2.746   3.164
 5917TIP3    H217716   6.319   2.813   3.145
 5918TIP3   OH217717   3.551   2.850   2.528
 5918TIP3    H117718   3.458   2.834   2.514
 5918TIP3    H217719   3.554   2.916   2.597
 5919TIP3   OH217720   0.209   2.445   4.047
 5919TIP3    H117721   0.158   2.402   3.978
 5919TIP3    H217722   0.229   2.376   4.110
 5920TIP3   OH217723   1.457   5.716   0.063
 5920TIP3    H117724   1.380   5.773   0.065
 5920TIP3    H217725   1.499   5.735  -0.022
 5921TIP3   OH217726   4.098   0.617   0.439
 5921TIP3    H117727   4.065   0.555   0.504
 5921TIP3    H217728   4.046   0.599   0.361
 5922TIP3   OH217729   4.026   2.583   0.672
 5922TIP3    H117730   4.003   2.500   0.714
 5922TIP3    H217731   3.959   2.644   0.704
 5923TIP3   OH217732   0.655   6.005   2.391
 5923TIP3    H117733   0.651   5.937   2.324
 5923TIP3    H217734   0.737   5.988   2.437
 5924TIP3   OH217735   1.208   0.240   0.315
 5924TIP3    H117736   1.154   0.319   0.304
 5924TIP3    H217737   1.167   0.194   0.389
 5925TIP3   OH217738   6.565   4.057   2.179
 5925TIP3    H117739   6.546   4.149   2.197
 5925TIP3    H217740   6.488   4.010   2.211
 5926TIP3   OH217741   6.331   5.579   2.077
 5926TIP3    H117742   6.418   5.546   2.057
 5926TIP3    H217743   6.344   5.641   2.148
 5927TIP3   OH217744   6.918   0.660   0.804
 5927TIP3    H117745   6.943   0.713   0.880
 5927TIP3    H217746   6.887   0.577   0.842
 5928TIP3   OH217747   5.426   3.931   1.683
 5928TIP3    H117748   5.403   3.931   1.776
 5928TIP3    H217749   5.518   3.902   1.681
 5929TIP3   OH217750   4.760   2.553   3.775
 5929TIP3    H117751   4.716   2.534   3.692
 5929TIP3    H217752   4.853   2.560   3.752
 5930TIP3   OH217753   0.965   2.836   2.635
 5930TIP3    H117754   0.970   2.785   2.554
 5930TIP3    H217755   1.047   2.818   2.680
 5931TIP3   OH217756   4.590   5.453   0.853
 5931TIP3    H117757   4.656   5.517   0.880
 5931TIP3    H217758   4.547   5.493   0.777
 5932TIP3   OH217759   0.676   0.549   4.274
 5932TIP3    H117760   0.648   0.461   4.248
 5932TIP3    H217761   0.604   0.606   4.249
 5933TIP3   OH217762   1.724   0.254   4.867
 5933TIP3    H117763   1.676   0.222   4.943
 5933TIP3    H217764   1.816   0.239   4.888
 5934TIP3   OH217765   6.426   0.384   0.518
 5934TIP3    H117766   6.397   0.313   0.576
 5934TIP3    H217767   6.421   0.463   0.572
 5935TIP3   OH217768   0.944   5.742   1.843
 5935TIP3    H117769   0.946   5.677   1.773
 5935TIP3    H217770   0.898   5.697   1.915
 5936TIP3   OH217771   1.715   4.529   3.731
 5936TIP3    H117772   1.702   4.435   3.731
 5936TIP3    H217773   1.688   4.557   3.644
 5937TIP3   OH217774   5.934   0.842   1.416
 5937TIP3    H117775   5.861   0.831   1.355
 5937TIP3    H217776   5.997   0.774   1.391
 5938TIP3   OH217777   0.673   4.748   3.544
 5938TIP3    H117778   0.723   4.674   3.507
 5938TIP3    H217779   0.607   4.767   3.478
 5939TIP3   OH217780   7.047   4.761   1.048
 5939TIP3    H117781   7.064   4.667   1.038
 5939TIP3    H217782   7.007   4.787   0.965
 5940TIP3   OH217783   3.828   1.703   3.396
 5940TIP3    H117784   3.893   1.649   3.350
 5940TIP3    H217785   3.881   1.765   3.447
 5941TIP3   OH217786   6.662   2.021   3.386
 5941TIP3    H117787   6.654   2.107   3.346
 5941TIP3    H217788   6.572   1.992   3.399
 5942TIP3   OH217789   3.160   2.325   2.712
 5942TIP3    H117790   3.235   2.335   2.654
 5942TIP3    H217791   3.189   2.360   2.796
 5943TIP3   OH217792   5.796   2.038   5.929
 5943TIP3    H117793   5.803   2.099   6.003
 5943TIP3    H217794   5.887   2.027   5.899
 5944TIP3   OH217795   4.494   6.861   0.477
 5944TIP3    H117796   4.406   6.898   0.482
 5944TIP3    H217797   4.482   6.774   0.439
 5945TIP3   OH217798   4.264   4.676   4.400
 5945TIP3    H117799   4.316   4.597   4.383
 5945TIP3    H217800   4.317   4.727   4.461
 5946TIP3   OH217801   6.573   2.480   5.852
 5946TIP3    H117802   6.516   2.528   5.792
 5946TIP3    H217803   6.534   2.392   5.856
 5947TIP3   OH217804   6.071   3.108   0.922
 5947TIP3    H117805   6.157   3.071   0.906
 5947TIP3    H217806   6.056   3.166   0.847
 5948TIP3   OH217807   3.245   2.896   0.040
 5948TIP3    H117808   3.211   2.985   0.039
 5948TIP3    H217809   3.330   2.903   0.084
 5949TIP3   OH217810   2.574   4.481   2.641
 5949TIP3    H117811   2.632   4.452   2.711
 5949TIP3    H217812   2.568   4.407   2.582
 5950TIP3   OH217813   0.981   4.656   3.638
 5950TIP3    H117814   0.988   4.696   3.724
 5950TIP3    H217815   1.007   4.565   3.651
 5951TIP3   OH217816   3.327   3.407   1.842
 5951TIP3    H117817   3.274   3.407   1.762
 5951TIP3    H217818   3.317   3.495   1.878
 5952TIP3   OH217819   4.486   3.828   4.148
 5952TIP3    H117820   4.511   3.737   4.136
 5952TIP3    H217821   4.422   3.845   4.079
 5953TIP3   OH217822   2.813   2.245   4.160
 5953TIP3    H117823   2.870   2.322   4.168
 5953TIP3    H217824   2.847   2.183   4.224
 5954TIP3   OH217825   5.053   3.110   2.669
 5954TIP3    H117826   5.146   3.119   2.692
 5954TIP3    H217827   5.030   3.022   2.698
 5955TIP3   OH217828   5.736   1.443   1.275
 5955TIP3    H117829   5.804   1.510   1.284
 5955TIP3    H217830   5.776   1.377   1.218
 5956TIP3   OH217831   1.073   4.693   3.106
 5956TIP3    H117832   1.055   4.707   3.199
 5956TIP3    H217833   1.036   4.606   3.088
 5957TIP3   OH217834   2.980   6.643   1.805
 5957TIP3    H117835   3.053   6.593   1.840
 5957TIP3    H217836   2.943   6.689   1.881
 5958TIP3   OH217837   3.358   0.166   4.598
 5958TIP3    H117838   3.353   0.070   4.594
 5958TIP3    H217839   3.283   0.196   4.548
 5959TIP3   OH217840   7.020   0.795   1.024
 5959TIP3    H117841   6.982   0.841   1.099
 5959TIP3    H217842   7.112   0.784   1.046
 5960TIP3   OH217843   2.768   2.924   1.794
 5960TIP3    H117844   2.863   2.921   1.806
 5960TIP3    H217845   2.735   2.962   1.876
 5961TIP3   OH217846   3.178   4.600   5.230
 5961TIP3    H117847   3.201   4.689   5.204
 5961TIP3    H217848   3.254   4.569   5.279
 5962TIP3   OH217849   1.644   5.243   3.267
 5962TIP3    H117850   1.621   5.209   3.180
 5962TIP3    H217851   1.662   5.335   3.252
 5963TIP3   OH217852   6.021   0.642   3.713
 5963TIP3    H117853   6.014   0.622   3.807
 5963TIP3    H217854   6.094   0.703   3.707
 5964TIP3   OH217855   6.302   2.860   0.470
 5964TIP3    H117856   6.254   2.937   0.498
 5964TIP3    H217857   6.251   2.786   0.502
 5965TIP3   OH217858   3.380   4.394   2.364
 5965TIP3    H117859   3.457   4.340   2.350
 5965TIP3    H217860   3.332   4.350   2.434
 5966TIP3   OH217861   0.413   5.621   2.788
 5966TIP3    H117862   0.488   5.577   2.829
 5966TIP3    H217863   0.340   5.604   2.848
 5967TIP3   OH217864   3.199   4.293   2.553
 5967TIP3    H117865   3.112   4.290   2.514
 5967TIP3    H217866   3.184   4.319   2.644
 5968TIP3   OH217867   6.065   4.021   3.962
 5968TIP3    H117868   6.042   3.929   3.954
 5968TIP3    H217869   6.113   4.027   4.045
 5969TIP3   OH217870   2.122   0.637   0.835
 5969TIP3    H117871   2.184   0.695   0.791
 5969TIP3    H217872   2.123   0.557   0.783
 5970TIP3   OH217873   7.003   3.552   0.079
 5970TIP3    H117874   6.923   3.584   0.120
 5970TIP3    H217875   7.072   3.569   0.143
 5971TIP3   OH217876   3.145   2.422   0.886
 5971TIP3    H117877   3.050   2.417   0.872
 5971TIP3    H217878   3.162   2.361   0.958
 5972TIP3   OH217879   6.629   1.756   1.251
 5972TIP3    H117880   6.723   1.774   1.246
 5972TIP3    H217881   6.621   1.681   1.310
 5973TIP3   OH217882   0.467   4.400   2.521
 5973TIP3    H117883   0.485   4.454   2.444
 5973TIP3    H217884   0.554   4.375   2.554
 5974TIP3   OH217885   5.921   2.494   2.152
 5974TIP3    H117886   5.940   2.401   2.167
 5974TIP3    H217887   5.875   2.496   2.069
 5975TIP3   OH217888   0.524   2.439   1.381
 5975TIP3    H117889   0.546   2.457   1.472
 5975TIP3    H217890   0.585   2.493   1.331
 5976TIP3   OH217891   2.470   2.950   5.556
 5976TIP3    H117892   2.434   2.965   5.469
 5976TIP3    H217893   2.395   2.954   5.615
 5977TIP3   OH217894   2.679   5.650   2.854
 5977TIP3    H117895   2.657   5.726   2.799
 5977TIP3    H217896   2.597   5.602   2.863
 5978TIP3   OH217897   6.842   3.260   1.922
 5978TIP3    H117898   6.877   3.346   1.947
 5978TIP3    H217899   6.892   3.198   1.975
 5979TIP3   OH217900   3.144   6.332   1.681
 5979TIP3    H117901   3.162   6.250   1.634
 5979TIP3    H217902   3.142   6.307   1.773
 5980TIP3   OH217903   6.561   3.099   1.007
 5980TIP3    H117904   6.531   3.173   0.954
 5980TIP3    H217905   6.652   3.086   0.980
 5981TIP3   OH217906   5.099   6.406   0.961
 5981TIP3    H117907   5.014   6.414   0.918
 5981TIP3    H217908   5.116   6.312   0.962
 5982TIP3   OH217909   2.343   6.697   1.542
 5982TIP3    H117910   2.366   6.751   1.467
 5982TIP3    H217911   2.420   6.643   1.557
 5983TIP3   OH217912   7.134   3.246   5.406
 5983TIP3    H117913   7.095   3.195   5.334
 5983TIP3    H217914   7.198   3.187   5.445
 5984TIP3   OH217915   3.684   4.552   3.695
 5984TIP3    H117916   3.695   4.606   3.617
 5984TIP3    H217917   3.620   4.486   3.670
 5985TIP3   OH217918   0.345   0.916   2.143
 5985TIP3    H117919   0.253   0.939   2.159
 5985TIP3    H217920   0.394   0.990   2.179
 5986TIP3   OH217921   2.031   6.099   4.390
 5986TIP3    H117922   2.034   6.109   4.295
 5986TIP3    H217923   2.077   6.176   4.424
 5987TIP3   OH217924   2.216   6.249   1.149
 5987TIP3    H117925   2.178   6.311   1.088
 5987TIP3    H217926   2.160   6.253   1.227
 5988TIP3   OH217927   1.535   1.035   5.703
 5988TIP3    H117928   1.629   1.044   5.688
 5988TIP3    H217929   1.522   0.941   5.716
 5989TIP3   OH217930   2.181   4.980   1.227
 5989TIP3    H117931   2.203   4.950   1.139
 5989TIP3    H217932   2.201   5.074   1.226
 5990TIP3   OH217933   4.432   4.500   4.298
 5990TIP3    H117934   4.499   4.550   4.346
 5990TIP3    H217935   4.481   4.452   4.232
 5991TIP3   OH217936   3.259   6.391   3.744
 5991TIP3    H117937   3.297   6.331   3.679
 5991TIP3    H217938   3.310   6.377   3.823
 5992TIP3   OH217939   0.290   1.005   1.320
 5992TIP3    H117940   0.379   0.969   1.319
 5992TIP3    H217941   0.235   0.933   1.351
 5993TIP3   OH217942   6.085   3.517   2.511
 5993TIP3    H117943   6.110   3.602   2.477
 5993TIP3    H217944   6.041   3.474   2.437
 5994TIP3   OH217945   4.547   1.473   4.796
 5994TIP3    H117946   4.589   1.391   4.821
 5994TIP3    H217947   4.464   1.473   4.843
 5995TIP3   OH217948   4.428   2.235   3.292
 5995TIP3    H117949   4.339   2.269   3.292
 5995TIP3    H217950   4.465   2.263   3.376
 5996TIP3   OH217951   6.994   3.409   4.866
 5996TIP3    H117952   6.904   3.392   4.838
 5996TIP3    H217953   7.037   3.323   4.863
 5997TIP3   OH217954   1.138   2.036   0.431
 5997TIP3    H117955   1.189   2.117   0.424
 5997TIP3    H217956   1.203   1.969   0.453
 5998TIP3   OH217957   5.998   5.387   1.512
 5998TIP3    H117958   6.019   5.390   1.418
 5998TIP3    H217959   5.907   5.414   1.517
 5999TIP3   OH217960   1.699   1.268   5.550
 5999TIP3    H117961   1.738   1.345   5.591
 5999TIP3    H217962   1.755   1.196   5.577
 6000TIP3   OH217963   2.286   3.835   5.318
 6000TIP3    H117964   2.379   3.858   5.322
 6000TIP3    H217965   2.265   3.808   5.407
 6001TIP3   OH217966   0.411   2.462   2.587
 6001TIP3    H117967   0.374   2.456   2.499
 6001TIP3    H217968   0.443   2.551   2.594
 6002TIP3   OH217969   3.576   6.648   1.939
 6002TIP3    H117970   3.591   6.581   2.006
 6002TIP3    H217971   3.589   6.602   1.856
 6003TIP3   OH217972   2.264   1.885   4.868
 6003TIP3    H117973   2.175   1.904   4.896
 6003TIP3    H217974   2.318   1.950   4.914
 6004TIP3   OH217975   6.751   1.057   2.615
 6004TIP3    H117976   6.735   1.110   2.537
 6004TIP3    H217977   6.759   1.121   2.686
 6005TIP3   OH217978   6.703   1.371   5.782
 6005TIP3    H117979   6.620   1.394   5.740
 6005TIP3    H217980   6.704   1.276   5.783
 6006TIP3   OH217981   4.906   3.768   1.171
 6006TIP3    H117982   4.853   3.783   1.092
 6006TIP3    H217983   4.894   3.675   1.189
 6007TIP3   OH217984   0.864   6.412   5.541
 6007TIP3    H117985   0.836   6.341   5.483
 6007TIP3    H217986   0.955   6.427   5.518
 6008TIP3   OH217987   4.547   6.061   0.630
 6008TIP3    H117988   4.465   6.101   0.661
 6008TIP3    H217989   4.584   6.125   0.569
 6009TIP3   OH217990   1.476   2.911   1.803
 6009TIP3    H117991   1.407   2.976   1.818
 6009TIP3    H217992   1.432   2.839   1.757
 6010TIP3   OH217993   4.487   5.853   2.173
 6010TIP3    H117994   4.542   5.837   2.250
 6010TIP3    H217995   4.501   5.945   2.152
 6011TIP3   OH217996   2.905   4.301   3.231
 6011TIP3    H117997   2.897   4.231   3.296
 6011TIP3    H217998   2.880   4.260   3.148
 6012TIP3   OH217999   4.971   2.395   1.119
 6012TIP3    H118000   4.994   2.388   1.027
 6012TIP3    H218001   5.006   2.481   1.146
 6013TIP3   OH218002   6.538   5.851   0.527
 6013TIP3    H118003   6.496   5.886   0.448
 6013TIP3    H218004   6.554   5.928   0.582
 6014TIP3   OH218005   6.590   1.363   4.751
 6014TIP3    H118006   6.608   1.397   4.663
 6014TIP3    H218007   6.499   1.389   4.768
 6015TIP3   OH218008   0.011   5.345   3.641
 6015TIP3    H118009   0.037   5.330   3.551
 6015TIP3    H218010   0.089   5.324   3.692
 6016TIP3   OH218011   2.927   0.481   1.706
 6016TIP3    H118012   2.936   0.530   1.624
 6016TIP3    H218013   3.016   0.464   1.734
 6017TIP3   OH218014   5.513   4.440   3.231
 6017TIP3    H118015   5.555   4.356   3.248
 6017TIP3    H218016   5.527   4.455   3.137
 6018TIP3   OH218017   5.015   0.199   5.895
 6018TIP3    H118018   5.052   0.176   5.810
 6018TIP3    H218019   5.052   0.135   5.956
 6019TIP3   OH218020   4.529   3.600   3.430
 6019TIP3    H118021   4.612   3.614   3.476
 6019TIP3    H218022   4.464   3.643   3.486
 6020TIP3   OH218023   4.522   5.469   2.243
 6020TIP3    H118024   4.607   5.496   2.209
 6020TIP3    H218025   4.531   5.477   2.338
 6021TIP3   OH218026   3.273   3.136   0.590
 6021TIP3    H118027   3.246   3.044   0.590
 6021TIP3    H218028   3.219   3.177   0.657
 6022TIP3   OH218029   4.408   5.564   4.277
 6022TIP3    H118030   4.444   5.481   4.308
 6022TIP3    H218031   4.482   5.612   4.241
 6023TIP3   OH218032   4.935   0.943   3.123
 6023TIP3    H118033   4.946   0.997   3.200
 6023TIP3    H218034   4.999   0.872   3.134
 6024TIP3   OH218035   0.558   1.630   3.687
 6024TIP3    H118036   0.597   1.714   3.665
 6024TIP3    H218037   0.544   1.633   3.781
 6025TIP3   OH218038   5.468   4.687   0.275
 6025TIP3    H118039   5.532   4.619   0.298
 6025TIP3    H218040   5.491   4.762   0.329
 6026TIP3   OH218041   7.095   3.046   0.928
 6026TIP3    H118042   7.079   3.031   0.835
 6026TIP3    H218043   7.190   3.049   0.937
 6027TIP3   OH218044   2.788   6.487   2.085
 6027TIP3    H118045   2.846   6.491   2.161
 6027TIP3    H218046   2.700   6.501   2.121
 6028TIP3   OH218047   5.879   2.599   0.348
 6028TIP3    H118048   5.890   2.603   0.253
 6028TIP3    H218049   5.795   2.640   0.364
 6029TIP3   OH218050   5.987   5.469   2.391
 6029TIP3    H118051   5.932   5.419   2.331
 6029TIP3    H218052   5.998   5.554   2.349
 6030TIP3   OH218053   6.924   2.078   2.468
 6030TIP3    H118054   6.916   2.060   2.374
 6030TIP3    H218055   6.835   2.099   2.496
 6031TIP3   OH218056   6.519   3.178   3.519
 6031TIP3    H118057   6.569   3.259   3.507
 6031TIP3    H218058   6.566   3.113   3.468
 6032TIP3   OH218059   5.087   4.896   0.879
 6032TIP3    H118060   5.056   4.884   0.789
 6032TIP3    H218061   5.173   4.937   0.869
 6033TIP3   OH218062   5.129   1.522   4.619
 6033TIP3    H118063   5.214   1.490   4.589
 6033TIP3    H218064   5.077   1.528   4.539
 6034TIP3   OH218065   1.007   1.646   3.272
 6034TIP3    H118066   1.040   1.735   3.288
 6034TIP3    H218067   1.044   1.623   3.186
 6035TIP3   OH218068   6.848   0.976   3.747
 6035TIP3    H118069   6.933   1.009   3.717
 6035TIP3    H218070   6.867   0.930   3.829
 6036TIP3   OH218071   6.936   2.727   0.810
 6036TIP3    H118072   6.955   2.633   0.815
 6036TIP3    H218073   6.922   2.753   0.901
 6037TIP3   OH218074   6.233   3.103   0.652
 6037TIP3    H118075   6.308   3.153   0.685
 6037TIP3    H218076   6.159   3.165   0.657
 6038TIP3   OH218077   3.484   0.697   3.982
 6038TIP3    H118078   3.459   0.696   3.889
 6038TIP3    H218079   3.416   0.749   4.024
 6039TIP3   OH218080   1.865   2.902   3.765
 6039TIP3    H118081   1.876   2.833   3.699
 6039TIP3    H218082   1.770   2.918   3.767
 6040TIP3   OH218083   3.546   3.301   5.646
 6040TIP3    H118084   3.595   3.280   5.567
 6040TIP3    H218085   3.463   3.337   5.615
 6041TIP3   OH218086   4.612   6.583   1.706
 6041TIP3    H118087   4.693   6.571   1.656
 6041TIP3    H218088   4.577   6.494   1.716
 6042TIP3   OH218089   0.625   4.902   4.519
 6042TIP3    H118090   0.662   4.818   4.546
 6042TIP3    H218091   0.604   4.890   4.426
 6043TIP3   OH218092   3.395   0.963   4.090
 6043TIP3    H118093   3.325   0.934   4.148
 6043TIP3    H218094   3.356   1.033   4.038
 6044TIP3   OH218095   0.047   4.823   0.069
 6044TIP3    H118096   0.062   4.729   0.059
 6044TIP3    H218097   0.048   4.858  -0.020
 6045TIP3   OH218098   4.636   0.216   4.105
 6045TIP3    H118099   4.624   0.206   4.010
 6045TIP3    H218100   4.716   0.268   4.112
 6046TIP3   OH218101   4.451   1.574   0.032
 6046TIP3    H118102   4.523   1.517   0.004
 6046TIP3    H218103   4.462   1.583   0.126
 6047TIP3   OH218104   6.157   5.138   2.674
 6047TIP3    H118105   6.225   5.201   2.699
 6047TIP3    H218106   6.205   5.065   2.636
 6048TIP3   OH218107   5.645   2.802   3.829
 6048TIP3    H118108   5.592   2.725   3.852
 6048TIP3    H218109   5.602   2.875   3.874
 6049TIP3   OH218110   4.211   3.070   4.152
 6049TIP3    H118111   4.287   3.012   4.157
 6049TIP3    H218112   4.227   3.138   4.217
 6050TIP3   OH218113   0.723   6.603   0.464
 6050TIP3    H118114   0.813   6.600   0.494
 6050TIP3    H218115   0.729   6.591   0.369
 6051TIP3   OH218116   3.740   1.502   3.940
 6051TIP3    H118117   3.756   1.498   3.846
 6051TIP3    H218118   3.695   1.586   3.953
 6052TIP3   OH218119   2.219   1.215   4.698
 6052TIP3    H118120   2.213   1.239   4.791
 6052TIP3    H218121   2.176   1.287   4.652
 6053TIP3   OH218122   4.448   4.542   3.104
 6053TIP3    H118123   4.465   4.625   3.147
 6053TIP3    H218124   4.526   4.489   3.123
 6054TIP3   OH218125   5.043   1.651   1.944
 6054TIP3    H118126   5.135   1.667   1.926
 6054TIP3    H218127   5.021   1.574   1.891
 6055TIP3   OH218128   3.893   4.442   5.789
 6055TIP3    H118129   3.842   4.394   5.724
 6055TIP3    H218130   3.916   4.377   5.856
 6056TIP3   OH218131   3.210   4.144   5.631
 6056TIP3    H118132   3.170   4.197   5.701
 6056TIP3    H218133   3.144   4.079   5.610
 6057TIP3   OH218134   0.193   0.390   1.317
 6057TIP3    H118135   0.105   0.352   1.319
 6057TIP3    H218136   0.234   0.359   1.397
 6058TIP3   OH218137   4.995   4.419   2.455
 6058TIP3    H118138   5.038   4.366   2.388
 6058TIP3    H218139   5.061   4.482   2.482
 6059TIP3   OH218140   6.067   3.305   0.731
 6059TIP3    H118141   6.126   3.369   0.771
 6059TIP3    H218142   5.982   3.347   0.731
 6060TIP3   OH218143   3.293   0.558   5.418
 6060TIP3    H118144   3.312   0.591   5.331
 6060TIP3    H218145   3.201   0.581   5.433
 6061TIP3   OH218146   6.144   3.880   1.701
 6061TIP3    H118147   6.152   3.919   1.614
 6061TIP3    H218148   6.127   3.954   1.759
 6062TIP3   OH218149   2.919   2.140   5.627
 6062TIP3    H118150   2.992   2.101   5.675
 6062TIP3    H218151   2.928   2.234   5.642
 6063TIP3   OH218152   2.759   3.868   0.709
 6063TIP3    H118153   2.676   3.826   0.687
 6063TIP3    H218154   2.737   3.960   0.722
 6064TIP3   OH218155   4.383   4.392   1.801
 6064TIP3    H118156   4.429   4.391   1.885
 6064TIP3    H218157   4.336   4.309   1.798
 6065TIP3   OH218158   5.581   5.287   4.394
 6065TIP3    H118159   5.567   5.261   4.486
 6065TIP3    H218160   5.571   5.206   4.345
 6066TIP3   OH218161   5.698   5.617   4.839
 6066TIP3    H118162   5.655   5.572   4.766
 6066TIP3    H218163   5.789   5.588   4.834
 6067TIP3   OH218164   4.684   6.532   4.342
 6067TIP3    H118165   4.667   6.600   4.407
 6067TIP3    H218166   4.684   6.450   4.392
 6068TIP3   OH218167   2.973   1.295   3.821
 6068TIP3    H118168   2.963   1.225   3.886
 6068TIP3    H218169   3.009   1.368   3.870
 6069TIP3   OH218170   3.274  -0.040   5.175
 6069TIP3    H118171   3.192  -0.081   5.148
 6069TIP3    H218172   3.297  -0.084   5.257
 6070TIP3   OH218173   6.586   2.338   2.327
 6070TIP3    H118174   6.567   2.374   2.241
 6070TIP3    H218175   6.546   2.251   2.327
 6071TIP3   OH218176   5.338   6.112   4.147
 6071TIP3    H118177   5.294   6.092   4.064
 6071TIP3    H218178   5.428   6.084   4.134
 6072TIP3   OH218179   0.514   2.394   4.904
 6072TIP3    H118180   0.422   2.419   4.911
 6072TIP3    H218181   0.538   2.418   4.814
 6073TIP3   OH218182   3.464   5.457   2.774
 6073TIP3    H118183   3.378   5.416   2.778
 6073TIP3    H218184   3.503   5.424   2.693
 6074TIP3   OH218185   6.663   5.103   1.190
 6074TIP3    H118186   6.692   5.064   1.108
 6074TIP3    H218187   6.732   5.083   1.252
 6075TIP3   OH218188   4.131   1.983   3.145
 6075TIP3    H118189   4.036   1.991   3.140
 6075TIP3    H218190   4.155   2.028   3.226
 6076TIP3   OH218191   5.632   6.680   2.252
 6076TIP3    H118192   5.702   6.616   2.245
 6076TIP3    H218193   5.676   6.763   2.265
 6077TIP3   OH218194   4.968   2.782   3.587
 6077TIP3    H118195   4.898   2.811   3.529
 6077TIP3    H218196   4.964   2.686   3.584
 6078TIP3   OH218197   4.972   3.303   3.446
 6078TIP3    H118198   5.005   3.360   3.377
 6078TIP3    H218199   4.913   3.242   3.401
 6079TIP3   OH218200   1.897   1.285   3.071
 6079TIP3    H118201   1.809   1.260   3.043
 6079TIP3    H218202   1.884   1.332   3.153
 6080TIP3   OH218203   5.769   4.906   3.900
 6080TIP3    H118204   5.793   4.878   3.812
 6080TIP3    H218205   5.721   4.831   3.936
 6081TIP3   OH218206   6.149   2.209   5.012
 6081TIP3    H118207   6.166   2.190   5.104
 6081TIP3    H218208   6.075   2.270   5.013
 6082TIP3   OH218209   6.054   0.255   0.891
 6082TIP3    H118210   6.032   0.322   0.826
 6082TIP3    H218211   6.108   0.302   0.955
 6083TIP3   OH218212   5.135   2.706   5.624
 6083TIP3    H118213   5.139   2.800   5.643
 6083TIP3    H218214   5.048   2.679   5.654
 6084TIP3   OH218215   2.754   5.862   4.480
 6084TIP3    H118216   2.766   5.778   4.524
 6084TIP3    H218217   2.700   5.842   4.404
 6085TIP3   OH218218   1.216   0.498   1.275
 6085TIP3    H118219   1.177   0.411   1.285
 6085TIP3    H218220   1.279   0.505   1.346
 6086TIP3   OH218221   3.218   0.526   4.709
 6086TIP3    H118222   3.264   0.475   4.775
 6086TIP3    H218223   3.207   0.613   4.748
 6087TIP3   OH218224   3.783   5.574   1.147
 6087TIP3    H118225   3.737   5.528   1.217
 6087TIP3    H218226   3.813   5.655   1.188
 6088TIP3   OH218227   4.892   1.614   0.702
 6088TIP3    H118228   4.819   1.672   0.679
 6088TIP3    H218229   4.855   1.526   0.700
 6089TIP3   OH218230   5.667   6.215   1.612
 6089TIP3    H118231   5.604   6.282   1.586
 6089TIP3    H218232   5.753   6.252   1.590
 6090TIP3   OH218233   3.182   6.617   2.534
 6090TIP3    H118234   3.227   6.533   2.530
 6090TIP3    H218235   3.099   6.598   2.578
 6091TIP3   OH218236   1.974   6.456   4.224
 6091TIP3    H118237   1.931   6.520   4.167
 6091TIP3    H218238   1.910   6.438   4.293
 6092TIP3   OH218239   0.476   2.006   5.719
 6092TIP3    H118240   0.453   1.994   5.627
 6092TIP3    H218241   0.557   2.056   5.718
 6093TIP3   OH218242   5.411   6.194   1.028
 6093TIP3    H118243   5.447   6.255   0.964
 6093TIP3    H218244   5.485   6.136   1.049
 6094TIP3   OH218245   0.989   4.505   5.192
 6094TIP3    H118246   1.052   4.440   5.222
 6094TIP3    H218247   1.016   4.524   5.102
 6095TIP3   OH218248   5.793   1.416   1.902
 6095TIP3    H118249   5.827   1.362   1.830
 6095TIP3    H218250   5.869   1.466   1.932
 6096TIP3   OH218251   2.239   0.559   1.972
 6096TIP3    H118252   2.190   0.606   2.038
 6096TIP3    H218253   2.172   0.517   1.917
 6097TIP3   OH218254   0.743   6.345   3.695
 6097TIP3    H118255   0.778   6.430   3.669
 6097TIP3    H218256   0.786   6.283   3.637
 6098TIP3   OH218257   3.534   0.787   3.337
 6098TIP3    H118258   3.619   0.760   3.372
 6098TIP3    H218259   3.478   0.710   3.346
 6099TIP3   OH218260   1.920   4.725   0.578
 6099TIP3    H118261   1.909   4.798   0.639
 6099TIP3    H218262   1.952   4.766   0.498
 6100TIP3   OH218263   1.285   5.575   2.309
 6100TIP3    H118264   1.379   5.572   2.290
 6100TIP3    H218265   1.248   5.506   2.255
 6101TIP3   OH218266   2.926   2.420   1.636
 6101TIP3    H118267   2.857   2.462   1.687
 6101TIP3    H218268   2.883   2.345   1.595
 6102TIP3   OH218269   3.033   4.919   3.976
 6102TIP3    H118270   2.999   4.830   3.977
 6102TIP3    H218271   3.109   4.917   4.034
 6103TIP3   OH218272   0.330   3.124   2.072
 6103TIP3    H118273   0.363   3.211   2.094
 6103TIP3    H218274   0.235   3.131   2.081
 6104TIP3   OH218275   5.677   0.373   2.519
 6104TIP3    H118276   5.755   0.390   2.465
 6104TIP3    H218277   5.604   0.401   2.465
 6105TIP3   OH218278   5.097   0.028   3.413
 6105TIP3    H118279   5.149   0.065   3.341
 6105TIP3    H218280   5.158  -0.026   3.462
 6106TIP3   OH218281   1.331   3.378   2.448
 6106TIP3    H118282   1.283   3.417   2.375
 6106TIP3    H218283   1.399   3.325   2.407
 6107TIP3   OH218284   5.463   4.726   3.661
 6107TIP3    H118285   5.523   4.794   3.631
 6107TIP3    H218286   5.377   4.769   3.663
 6108TIP3   OH218287   4.559   5.768   4.859
 6108TIP3    H118288   4.615   5.774   4.782
 6108TIP3    H218289   4.479   5.814   4.834
 6109TIP3   OH218290   1.923   4.144   3.163
 6109TIP3    H118291   2.010   4.104   3.167
 6109TIP3    H218292   1.938   4.229   3.123
 6110TIP3   OH218293   1.926   4.863   3.237
 6110TIP3    H118294   1.876   4.783   3.226
 6110TIP3    H218295   1.937   4.872   3.332
 6111TIP3   OH218296   4.113   0.148   1.385
 6111TIP3    H118297   4.105   0.162   1.290
 6111TIP3    H218298   4.089   0.232   1.423
 6112TIP3   OH218299   4.427   4.236   0.727
 6112TIP3    H118300   4.392   4.206   0.643
 6112TIP3    H218301   4.403   4.328   0.731
 6113TIP3   OH218302   1.527   6.240   0.120
 6113TIP3    H118303   1.602   6.223   0.177
 6113TIP3    H218304   1.476   6.159   0.123
 6114TIP3   OH218305   0.923   4.149   0.743
 6114TIP3    H118306   0.857   4.190   0.799
 6114TIP3    H218307   0.999   4.137   0.801
 6115TIP3   OH218308   4.848   5.550   5.749
 6115TIP3    H118309   4.921   5.610   5.760
 6115TIP3    H218310   4.887   5.470   5.714
 6116TIP3   OH218311   6.805   3.319   5.140
 6116TIP3    H118312   6.889   3.310   5.184
 6116TIP3    H218313   6.796   3.240   5.087
 6117TIP3   OH218314   2.981   0.894   0.231
 6117TIP3    H118315   2.951   0.803   0.225
 6117TIP3    H218316   3.072   0.891   0.201
 6118TIP3   OH218317   1.473   2.357   4.787
 6118TIP3    H118318   1.498   2.306   4.709
 6118TIP3    H218319   1.505   2.305   4.861
 6119TIP3   OH218320   1.811   3.274   2.908
 6119TIP3    H118321   1.875   3.305   2.972
 6119TIP3    H218322   1.863   3.249   2.832
 6120TIP3   OH218323   5.740   5.050   4.425
 6120TIP3    H118324   5.804   5.011   4.484
 6120TIP3    H218325   5.779   5.042   4.338
 6121TIP3   OH218326   5.891   2.017   3.616
 6121TIP3    H118327   5.881   1.925   3.591
 6121TIP3    H218328   5.958   2.051   3.556
 6122TIP3   OH218329   4.483   3.235   5.041
 6122TIP3    H118330   4.555   3.180   5.072
 6122TIP3    H218331   4.451   3.191   4.962
 6123TIP3   OH218332   2.948   0.092   1.847
 6123TIP3    H118333   2.955   0.161   1.913
 6123TIP3    H218334   2.902   0.133   1.774
 6124TIP3   OH218335   2.664   3.383   2.080
 6124TIP3    H118336   2.719   3.458   2.101
 6124TIP3    H218337   2.585   3.421   2.043
 6125TIP3   OH218338   1.334   0.507   2.213
 6125TIP3    H118339   1.276   0.548   2.149
 6125TIP3    H218340   1.410   0.565   2.217
 6126TIP3   OH218341   5.247   3.329   0.594
 6126TIP3    H118342   5.271   3.420   0.610
 6126TIP3    H218343   5.171   3.334   0.537
 6127TIP3   OH218344   3.442   0.857   2.762
 6127TIP3    H118345   3.518   0.844   2.706
 6127TIP3    H218346   3.419   0.949   2.749
 6128TIP3   OH218347   5.277   1.407   3.771
 6128TIP3    H118348   5.304   1.337   3.830
 6128TIP3    H218349   5.296   1.487   3.819
 6129TIP3   OH218350   6.042   5.606   3.594
 6129TIP3    H118351   6.097   5.569   3.663
 6129TIP3    H218352   6.077   5.695   3.581
 6130TIP3   OH218353   6.251   1.604   4.740
 6130TIP3    H118354   6.297   1.544   4.799
 6130TIP3    H218355   6.184   1.645   4.794
 6131TIP3   OH218356   6.242   1.079   5.304
 6131TIP3    H118357   6.257   0.997   5.258
 6131TIP3    H218358   6.157   1.068   5.346
 6132TIP3   OH218359   4.903   6.003   4.856
 6132TIP3    H118360   4.994   5.978   4.839
 6132TIP3    H218361   4.852   5.952   4.794
 6133TIP3   OH218362   6.099   2.864   5.302
 6133TIP3    H118363   6.117   2.825   5.387
 6133TIP3    H218364   6.185   2.888   5.268
 6134TIP3   OH218365   0.669   1.241   2.508
 6134TIP3    H118366   0.652   1.334   2.518
 6134TIP3    H218367   0.725   1.219   2.583
 6135TIP3   OH218368   6.867   1.840   1.018
 6135TIP3    H118369   6.924   1.763   1.022
 6135TIP3    H218370   6.848   1.851   0.925
 6136TIP3   OH218371   5.844   5.424   3.089
 6136TIP3    H118372   5.871   5.443   3.179
 6136TIP3    H218373   5.894   5.484   3.035
 6137TIP3   OH218374   4.537   1.590   0.309
 6137TIP3    H118375   4.555   1.679   0.339
 6137TIP3    H218376   4.583   1.534   0.372
 6138TIP3   OH218377   0.803   2.240   2.320
 6138TIP3    H118378   0.784   2.228   2.227
 6138TIP3    H218379   0.722   2.216   2.365
 6139TIP3   OH218380   3.522   5.737   4.781
 6139TIP3    H118381   3.520   5.822   4.825
 6139TIP3    H218382   3.613   5.725   4.756
 6140TIP3   OH218383   5.107   2.709   1.529
 6140TIP3    H118384   5.076   2.758   1.605
 6140TIP3    H218385   5.202   2.721   1.530
 6141TIP3   OH218386   2.279   6.069   0.174
 6141TIP3    H118387   2.293   6.039   0.084
 6141TIP3    H218388   2.365   6.068   0.214
 6142TIP3   OH218389   3.832   6.050   5.530
 6142TIP3    H118390   3.785   6.126   5.495
 6142TIP3    H218391   3.852   5.996   5.453
 6143TIP3   OH218392   4.324   3.389   2.804
 6143TIP3    H118393   4.396   3.355   2.857
 6143TIP3    H218394   4.255   3.408   2.867
 6144TIP3   OH218395  -0.022   0.585   5.739
 6144TIP3    H118396   0.066   0.594   5.702
 6144TIP3    H218397  -0.020   0.639   5.818
 6145TIP3   OH218398   0.494   6.563   3.856
 6145TIP3    H118399   0.479   6.472   3.832
 6145TIP3    H218400   0.435   6.613   3.800
 6146TIP3   OH218401   6.469   6.529   5.613
 6146TIP3    H118402   6.515   6.593   5.560
 6146TIP3    H218403   6.474   6.447   5.564
 6147TIP3   OH218404   3.902   0.057   4.490
 6147TIP3    H118405   3.884  -0.037   4.480
 6147TIP3    H218406   3.821   0.100   4.462
 6148TIP3   OH218407   1.345   4.566   0.684
 6148TIP3    H118408   1.261   4.539   0.722
 6148TIP3    H218409   1.364   4.650   0.725
 6149TIP3   OH218410   4.230   4.360   1.449
 6149TIP3    H118411   4.157   4.317   1.493
 6149TIP3    H218412   4.300   4.295   1.449
 6150TIP3   OH218413   4.911   3.395   4.123
 6150TIP3    H118414   4.994   3.386   4.170
 6150TIP3    H218415   4.918   3.333   4.050
 6151TIP3   OH218416   4.031   0.577   0.134
 6151TIP3    H118417   4.126   0.582   0.143
 6151TIP3    H218418   4.013   0.622   0.051
 6152TIP3   OH218419   1.676   0.821   0.775
 6152TIP3    H118420   1.737   0.834   0.702
 6152TIP3    H218421   1.650   0.909   0.801
 6153TIP3   OH218422   0.761   6.705   2.491
 6153TIP3    H118423   0.677   6.747   2.511
 6153TIP3    H218424   0.822   6.778   2.482
 6154TIP3   OH218425   1.437   1.481   2.960
 6154TIP3    H118426   1.470   1.544   2.895
 6154TIP3    H218427   1.508   1.473   3.024
 6155TIP3   OH218428   6.808   0.702   4.236
 6155TIP3    H118429   6.886   0.693   4.291
 6155TIP3    H218430   6.737   0.719   4.298
 6156TIP3   OH218431   4.224   3.172   5.222
 6156TIP3    H118432   4.276   3.092   5.219
 6156TIP3    H218433   4.239   3.207   5.310
 6157TIP3   OH218434   6.354   5.682   4.014
 6157TIP3    H118435   6.396   5.705   3.932
 6157TIP3    H218436   6.409   5.721   4.082
 6158TIP3   OH218437   2.500   6.192   1.568
 6158TIP3    H118438   2.445   6.129   1.523
 6158TIP3    H218439   2.546   6.142   1.635
 6159TIP3   OH218440   2.857   3.975   3.940
 6159TIP3    H118441   2.854   3.893   3.892
 6159TIP3    H218442   2.775   3.978   3.989
 6160TIP3   OH218443   6.263   6.250   4.811
 6160TIP3    H118444   6.251   6.289   4.898
 6160TIP3    H218445   6.300   6.163   4.829
 6161TIP3   OH218446   4.126   5.910   4.176
 6161TIP3    H118447   4.178   5.878   4.250
 6161TIP3    H218448   4.191   5.943   4.115
 6162TIP3   OH218449   6.581   4.235   1.085
 6162TIP3    H118450   6.673   4.248   1.111
 6162TIP3    H218451   6.541   4.191   1.159
 6163TIP3   OH218452   4.400   6.604   0.666
 6163TIP3    H118453   4.379   6.639   0.579
 6163TIP3    H218454   4.488   6.567   0.656
 6164TIP3   OH218455   6.236   1.226   5.079
 6164TIP3    H118456   6.146   1.231   5.048
 6164TIP3    H218457   6.231   1.181   5.163
 6165TIP3   OH218458   2.077   4.124   4.417
 6165TIP3    H118459   2.145   4.056   4.422
 6165TIP3    H218460   2.124   4.205   4.398
 6166TIP3   OH218461   6.672   5.609   1.479
 6166TIP3    H118462   6.610   5.681   1.487
 6166TIP3    H218463   6.619   5.533   1.456
 6167TIP3   OH218464   6.056   3.281   0.087
 6167TIP3    H118465   6.148   3.255   0.089
 6167TIP3    H218466   6.052   3.360   0.140
 6168TIP3   OH218467   3.854   4.220   3.055
 6168TIP3    H118468   3.919   4.180   3.112
 6168TIP3    H218469   3.816   4.147   3.006
 6169TIP3   OH218470   5.851   4.704   0.773
 6169TIP3    H118471   5.779   4.659   0.728
 6169TIP3    H218472   5.823   4.795   0.776
 6170TIP3   OH218473   5.429   3.327   5.018
 6170TIP3    H118474   5.487   3.334   5.094
 6170TIP3    H218475   5.488   3.330   4.943
 6171TIP3   OH218476   0.832   0.060   2.943
 6171TIP3    H118477   0.815   0.063   3.037
 6171TIP3    H218478   0.863   0.148   2.921
 6172TIP3   OH218479   0.709   1.251   1.080
 6172TIP3    H118480   0.750   1.167   1.062
 6172TIP3    H218481   0.623   1.244   1.038
 6173TIP3   OH218482   0.219   4.328   4.623
 6173TIP3    H118483   0.270   4.249   4.606
 6173TIP3    H218484   0.278   4.400   4.600
 6174TIP3   OH218485   3.534   5.920   3.859
 6174TIP3    H118486   3.569   5.845   3.810
 6174TIP3    H218487   3.450   5.938   3.818
 6175TIP3   OH218488   1.610   6.147   2.293
 6175TIP3    H118489   1.687   6.091   2.282
 6175TIP3    H218490   1.542   6.089   2.326
 6176TIP3   OH218491   3.711   1.050   3.002
 6176TIP3    H118492   3.728   1.032   3.094
 6176TIP3    H218493   3.618   1.074   2.998
 6177TIP3   OH218494   0.112   3.590   3.725
 6177TIP3    H118495   0.076   3.514   3.682
 6177TIP3    H218496   0.205   3.570   3.737
 6178TIP3   OH218497   4.628   3.579   4.677
 6178TIP3    H118498   4.569   3.534   4.617
 6178TIP3    H218499   4.636   3.520   4.752
 6179TIP3   OH218500   1.671   0.907   5.318
 6179TIP3    H118501   1.605   0.971   5.343
 6179TIP3    H218502   1.696   0.931   5.229
 6180TIP3   OH218503   4.350   0.917   5.322
 6180TIP3    H118504   4.288   0.959   5.262
 6180TIP3    H218505   4.417   0.880   5.265
 6181TIP3   OH218506   0.329   0.990   5.424
 6181TIP3    H118507   0.380   1.028   5.352
 6181TIP3    H218508   0.360   0.900   5.430
 6182TIP3   OH218509   4.690   1.705   5.752
 6182TIP3    H118510   4.754   1.777   5.753
 6182TIP3    H218511   4.738   1.630   5.718
 6183TIP3   OH218512   4.160   2.214   2.305
 6183TIP3    H118513   4.073   2.253   2.308
 6183TIP3    H218514   4.154   2.147   2.237
 6184TIP3   OH218515   1.781   4.227   3.749
 6184TIP3    H118516   1.837   4.252   3.676
 6184TIP3    H218517   1.727   4.156   3.714
 6185TIP3   OH218518   0.704   5.889   0.651
 6185TIP3    H118519   0.694   5.869   0.744
 6185TIP3    H218520   0.687   5.806   0.606
 6186TIP3   OH218521   6.884   2.500   4.401
 6186TIP3    H118522   6.842   2.416   4.421
 6186TIP3    H218523   6.811   2.559   4.381
 6187TIP3   OH218524   2.586   6.223   2.510
 6187TIP3    H118525   2.615   6.135   2.535
 6187TIP3    H218526   2.522   6.209   2.440
 6188TIP3   OH218527   7.103   5.054   3.132
 6188TIP3    H118528   7.167   5.110   3.175
 6188TIP3    H218529   7.080   5.100   3.051
 6189TIP3   OH218530   5.746   4.731   3.295
 6189TIP3    H118531   5.817   4.794   3.304
 6189TIP3    H218532   5.671   4.783   3.265
 6190TIP3   OH218533   5.836   4.289   1.298
 6190TIP3    H118534   5.748   4.324   1.314
 6190TIP3    H218535   5.848   4.221   1.364
 6191TIP3   OH218536   0.237   6.672   4.713
 6191TIP3    H118537   0.277   6.603   4.662
 6191TIP3    H218538   0.257   6.753   4.666
 6192TIP3   OH218539   6.348   6.071   4.284
 6192TIP3    H118540   6.326   5.978   4.287
 6192TIP3    H218541   6.338   6.101   4.375
 6193TIP3   OH218542   5.331   4.200   1.805
 6193TIP3    H118543   5.290   4.152   1.877
 6193TIP3    H218544   5.259   4.225   1.747
 6194TIP3   OH218545   0.866   0.373   0.065
 6194TIP3    H118546   0.845   0.457   0.106
 6194TIP3    H218547   0.788   0.351   0.014
 6195TIP3   OH218548   3.029   6.740   4.001
 6195TIP3    H118549   3.094   6.670   4.011
 6195TIP3    H218550   2.951   6.696   3.969
 6196TIP3   OH218551   3.791   5.996   1.523
 6196TIP3    H118552   3.784   6.089   1.545
 6196TIP3    H218553   3.770   5.991   1.430
 6197TIP3   OH218554   3.628   3.846   3.345
 6197TIP3    H118555   3.721   3.853   3.363
 6197TIP3    H218556   3.590   3.923   3.387
 6198TIP3   OH218557   4.962   3.194   1.581
 6198TIP3    H118558   4.996   3.236   1.501
 6198TIP3    H218559   5.022   3.122   1.597
 6199TIP3   OH218560   1.120   6.695   0.002
 6199TIP3    H118561   1.210   6.726  -0.005
 6199TIP3    H218562   1.079   6.755   0.065
 6200TIP3   OH218563   4.083   2.061   1.344
 6200TIP3    H118564   4.086   2.125   1.415
 6200TIP3    H218565   4.038   1.985   1.382
 6201TIP3   OH218566   5.487   3.154   3.018
 6201TIP3    H118567   5.554   3.222   3.028
 6201TIP3    H218568   5.443   3.176   2.936
 6202TIP3   OH218569   1.724   5.601   0.625
 6202TIP3    H118570   1.754   5.673   0.570
 6202TIP3    H218571   1.667   5.642   0.690
 6203TIP3   OH218572   5.331   0.973   0.154
 6203TIP3    H118573   5.348   0.940   0.066
 6203TIP3    H218574   5.312   0.895   0.206
 6204TIP3   OH218575   4.590   6.087   3.400
 6204TIP3    H118576   4.622   6.062   3.313
 6204TIP3    H218577   4.604   6.009   3.454
 6205TIP3   OH218578   3.065   2.826   3.072
 6205TIP3    H118579   3.013   2.750   3.045
 6205TIP3    H218580   3.068   2.820   3.167
 6206TIP3   OH218581   6.393   6.716   1.511
 6206TIP3    H118582   6.417   6.807   1.492
 6206TIP3    H218583   6.318   6.699   1.455
 6207TIP3   OH218584   2.665   3.531   4.826
 6207TIP3    H118585   2.634   3.451   4.867
 6207TIP3    H218586   2.652   3.599   4.892
 6208TIP3   OH218587   5.798   4.630   4.301
 6208TIP3    H118588   5.830   4.643   4.212
 6208TIP3    H218589   5.730   4.562   4.292
 6209TIP3   OH218590   7.055   5.378   4.935
 6209TIP3    H118591   7.027   5.426   4.857
 6209TIP3    H218592   6.978   5.326   4.960
 6210TIP3   OH218593   1.201   3.477   2.235
 6210TIP3    H118594   1.124   3.517   2.276
 6210TIP3    H218595   1.237   3.546   2.179
 6211TIP3   OH218596   6.410   1.221   5.528
 6211TIP3    H118597   6.353   1.190   5.457
 6211TIP3    H218598   6.406   1.151   5.593
 6212TIP3   OH218599   3.844   0.120   1.427
 6212TIP3    H118600   3.852   0.117   1.523
 6212TIP3    H218601   3.933   0.106   1.395
 6213TIP3   OH218602   0.321   6.018   0.659
 6213TIP3    H118603   0.250   6.064   0.615
 6213TIP3    H218604   0.378   5.987   0.589
 6214TIP3   OH218605   1.502   2.947   2.238
 6214TIP3    H118606   1.576   2.980   2.289
 6214TIP3    H218607   1.454   2.891   2.298
 6215TIP3   OH218608   2.017   2.060   1.716
 6215TIP3    H118609   1.963   1.983   1.698
 6215TIP3    H218610   1.997   2.120   1.644
 6216TIP3   OH218611   1.886   4.603   2.893
 6216TIP3    H118612   1.960   4.652   2.858
 6216TIP3    H218613   1.814   4.621   2.831
 6217TIP3   OH218614   2.176   1.140   0.585
 6217TIP3    H118615   2.215   1.136   0.497
 6217TIP3    H218616   2.188   1.231   0.612
 6218TIP3   OH218617   5.077   3.634   5.380
 6218TIP3    H118618   5.134   3.594   5.315
 6218TIP3    H218619   5.117   3.719   5.398
 6219TIP3   OH218620   0.553   6.250   5.366
 6219TIP3    H118621   0.642   6.222   5.384
 6219TIP3    H218622   0.561   6.308   5.290
 6220TIP3   OH218623   4.375   5.902   3.582
 6220TIP3    H118624   4.407   5.813   3.565
 6220TIP3    H218625   4.372   5.908   3.677
 6221TIP3   OH218626   0.218   5.121   2.621
 6221TIP3    H118627   0.142   5.064   2.634
 6221TIP3    H218628   0.282   5.089   2.685
 6222TIP3   OH218629   3.288   0.142   2.416
 6222TIP3    H118630   3.219   0.208   2.413
 6222TIP3    H218631   3.350   0.175   2.481
 6223TIP3   OH218632   2.098   3.133   0.662
 6223TIP3    H118633   2.180   3.117   0.616
 6223TIP3    H218634   2.096   3.228   0.676
 6224TIP3   OH218635   0.398   1.583   2.700
 6224TIP3    H118636   0.358   1.528   2.767
 6224TIP3    H218637   0.452   1.522   2.648
 6225TIP3   OH218638   5.730   4.841   2.081
 6225TIP3    H118639   5.780   4.782   2.025
 6225TIP3    H218640   5.795   4.906   2.110
 6226TIP3   OH218641   3.396   0.082   0.145
 6226TIP3    H118642   3.307   0.110   0.168
 6226TIP3    H218643   3.450   0.160   0.161
 6227TIP3   OH218644   2.321   0.303   3.391
 6227TIP3    H118645   2.260   0.323   3.321
 6227TIP3    H218646   2.270   0.313   3.471
 6228TIP3   OH218647   3.926   1.102   3.492
 6228TIP3    H118648   3.960   1.080   3.579
 6228TIP3    H218649   3.997   1.147   3.448
 6229TIP3   OH218650   3.851   6.684   2.731
 6229TIP3    H118651   3.795   6.669   2.807
 6229TIP3    H218652   3.847   6.779   2.717
 6230TIP3   OH218653   1.082   5.587   0.255
 6230TIP3    H118654   1.151   5.541   0.302
 6230TIP3    H218655   1.021   5.615   0.324
 6231TIP3   OH218656   2.203   4.357   4.315
 6231TIP3    H118657   2.182   4.447   4.341
 6231TIP3    H218658   2.296   4.359   4.294
 6232TIP3   OH218659   5.551   4.366   1.337
 6232TIP3    H118660   5.524   4.457   1.346
 6232TIP3    H218661   5.481   4.325   1.286
 6233TIP3   OH218662   0.399   2.163   5.030
 6233TIP3    H118663   0.453   2.228   4.985
 6233TIP3    H218664   0.363   2.109   4.960
 6234TIP3   OH218665   0.579   5.328   0.356
 6234TIP3    H118666   0.671   5.303   0.365
 6234TIP3    H218667   0.566   5.396   0.423
 6235TIP3   OH218668   0.150   1.672   4.690
 6235TIP3    H118669   0.119   1.582   4.680
 6235TIP3    H218670   0.075   1.727   4.667
 6236TIP3   OH218671   2.722   2.936   2.251
 6236TIP3    H118672   2.741   2.990   2.175
 6236TIP3    H218673   2.797   2.878   2.259
 6237TIP3   OH218674   1.276   5.361   0.295
 6237TIP3    H118675   1.341   5.315   0.242
 6237TIP3    H218676   1.313   5.362   0.383
 6238TIP3   OH218677   4.526   1.189   4.261
 6238TIP3    H118678   4.530   1.225   4.172
 6238TIP3    H218679   4.484   1.104   4.250
 6239TIP3   OH218680   1.047   3.729   4.150
 6239TIP3    H118681   1.034   3.823   4.163
 6239TIP3    H218682   0.971   3.688   4.191
 6240TIP3   OH218683   6.816   6.070   1.773
 6240TIP3    H118684   6.832   6.106   1.686
 6240TIP3    H218685   6.899   6.030   1.799
 6241TIP3   OH218686   6.744   3.679   5.628
 6241TIP3    H118687   6.751   3.630   5.709
 6241TIP3    H218688   6.715   3.615   5.563
 6242TIP3   OH218689   5.815   6.081   5.251
 6242TIP3    H118690   5.789   6.095   5.160
 6242TIP3    H218691   5.771   6.001   5.277
 6243TIP3   OH218692   5.484   3.881   2.426
 6243TIP3    H118693   5.418   3.850   2.488
 6243TIP3    H218694   5.475   3.824   2.350
 6244TIP3   OH218695   3.997   1.849   3.534
 6244TIP3    H118696   3.945   1.929   3.547
 6244TIP3    H218697   4.068   1.876   3.475
 6245TIP3   OH218698   1.965   5.776   5.406
 6245TIP3    H118699   1.907   5.794   5.480
 6245TIP3    H218700   1.959   5.855   5.351
 6246TIP3   OH218701   1.688   2.980   3.514
 6246TIP3    H118702   1.729   3.046   3.458
 6246TIP3    H218703   1.678   3.024   3.599
 6247TIP3   OH218704   3.242   4.323   1.122
 6247TIP3    H118705   3.185   4.270   1.066
 6247TIP3    H218706   3.184   4.354   1.192
 6248TIP3   OH218707   3.243   1.154   4.457
 6248TIP3    H118708   3.168   1.161   4.398
 6248TIP3    H218709   3.316   1.190   4.407
 6249TIP3   OH218710   3.285   0.431  -0.010
 6249TIP3    H118711   3.319   0.496  -0.071
 6249TIP3    H218712   3.219   0.478   0.042
 6250TIP3   OH218713   0.526   3.147   5.134
 6250TIP3    H118714   0.533   3.054   5.116
 6250TIP3    H218715   0.433   3.161   5.152
 6251TIP3   OH218716   0.172   3.621   0.602
 6251TIP3    H118717   0.187   3.707   0.641
 6251TIP3    H218718   0.241   3.612   0.536
 6252TIP3   OH218719   6.406   5.952   3.293
 6252TIP3    H118720   6.347   6.011   3.246
 6252TIP3    H218721   6.461   6.010   3.345
 6253TIP3   OH218722   2.404   4.458   3.325
 6253TIP3    H118723   2.399   4.465   3.421
 6253TIP3    H218724   2.451   4.377   3.309
 6254TIP3   OH218725   4.395   4.276   5.415
 6254TIP3    H118726   4.357   4.360   5.442
 6254TIP3    H218727   4.408   4.229   5.498
 6255TIP3   OH218728   5.821   5.595   1.774
 6255TIP3    H118729   5.855   5.632   1.693
 6255TIP3    H218730   5.731   5.570   1.754
 6256TIP3   OH218731   3.310   4.987   3.471
 6256TIP3    H118732   3.223   4.947   3.469
 6256TIP3    H218733   3.303   5.065   3.417
 6257TIP3   OH218734   6.825   0.250   0.781
 6257TIP3    H118735   6.869   0.165   0.774
 6257TIP3    H218736   6.882   0.301   0.838
 6258TIP3   OH218737   5.399   6.568   1.562
 6258TIP3    H118738   5.480   6.616   1.579
 6258TIP3    H218739   5.343   6.631   1.516
 6259TIP3   OH218740   5.434   0.849   4.824
 6259TIP3    H118741   5.391   0.821   4.743
 6259TIP3    H218742   5.393   0.933   4.845
 6260TIP3   OH218743   0.418   2.287   4.475
 6260TIP3    H118744   0.499   2.237   4.487
 6260TIP3    H218745   0.444   2.359   4.416
 6261TIP3   OH218746   2.650   0.881   0.742
 6261TIP3    H118747   2.578   0.942   0.723
 6261TIP3    H218748   2.683   0.908   0.827
 6262TIP3   OH218749   6.170   5.184   5.326
 6262TIP3    H118750   6.250   5.236   5.316
 6262TIP3    H218751   6.175   5.119   5.256
 6263TIP3   OH218752   5.542   1.236   0.561
 6263TIP3    H118753   5.599   1.241   0.484
 6263TIP3    H218754   5.495   1.153   0.550
 6264TIP3   OH218755   1.163   2.250   2.593
 6264TIP3    H118756   1.225   2.315   2.627
 6264TIP3    H218757   1.218   2.178   2.564
 6265TIP3   OH218758   0.648   6.315   0.441
 6265TIP3    H118759   0.691   6.270   0.513
 6265TIP3    H218760   0.665   6.408   0.457
 6266TIP3   OH218761   3.083   6.624   5.379
 6266TIP3    H118762   3.110   6.653   5.292
 6266TIP3    H218763   3.088   6.702   5.434
 6267TIP3   OH218764   6.571   0.256   5.115
 6267TIP3    H118765   6.550   0.247   5.022
 6267TIP3    H218766   6.617   0.175   5.137
 6268TIP3   OH218767   0.916   5.687   0.479
 6268TIP3    H118768   0.834   5.648   0.508
 6268TIP3    H218769   0.977   5.670   0.550
 6269TIP3   OH218770   1.273   0.091   2.145
 6269TIP3    H118771   1.231   0.165   2.101
 6269TIP3    H218772   1.290   0.122   2.234
 6270TIP3   OH218773   5.120   1.016   4.405
 6270TIP3    H118774   5.092   0.987   4.492
 6270TIP3    H218775   5.039   1.040   4.361
 6271TIP3   OH218776   3.470   0.669   0.222
 6271TIP3    H118777   3.463   0.753   0.177
 6271TIP3    H218778   3.540   0.623   0.175
 6272TIP3   OH218779   1.605   6.639   3.942
 6272TIP3    H118780   1.572   6.612   4.028
 6272TIP3    H218781   1.568   6.727   3.929
 6273TIP3   OH218782   7.219   0.251   4.325
 6273TIP3    H118783   7.125   0.239   4.339
 6273TIP3    H218784   7.236   0.341   4.353
 6274TIP3   OH218785   1.378   3.801   1.577
 6274TIP3    H118786   1.403   3.817   1.486
 6274TIP3    H218787   1.290   3.765   1.572
 6275TIP3   OH218788   6.514   2.823   4.247
 6275TIP3    H118789   6.568   2.865   4.181
 6275TIP3    H218790   6.457   2.764   4.198
 6276TIP3   OH218791   6.279   0.180   0.345
 6276TIP3    H118792   6.363   0.143   0.318
 6276TIP3    H218793   6.303   0.251   0.406
 6277TIP3   OH218794   3.956   4.150   0.122
 6277TIP3    H118795   3.997   4.236   0.121
 6277TIP3    H218796   3.998   4.102   0.051
 6278TIP3   OH218797   6.309   3.129   2.787
 6278TIP3    H118798   6.362   3.064   2.740
 6278TIP3    H218799   6.219   3.109   2.761
 6279TIP3   OH218800   2.855   5.504   3.546
 6279TIP3    H118801   2.839   5.596   3.524
 6279TIP3    H218802   2.768   5.464   3.545
 6280TIP3   OH218803   3.751   5.001   4.624
 6280TIP3    H118804   3.723   4.942   4.553
 6280TIP3    H218805   3.748   4.946   4.703
 6281TIP3   OH218806   5.525   0.342   3.642
 6281TIP3    H118807   5.458   0.401   3.607
 6281TIP3    H218808   5.538   0.277   3.573
 6282TIP3   OH218809   5.723   5.945   2.121
 6282TIP3    H118810   5.659   5.923   2.053
 6282TIP3    H218811   5.800   5.975   2.074
 6283TIP3   OH218812   1.643   1.780   0.594
 6283TIP3    H118813   1.617   1.689   0.606
 6283TIP3    H218814   1.647   1.816   0.683
 6284TIP3   OH218815   1.087   4.351   0.610
 6284TIP3    H118816   1.100   4.258   0.626
 6284TIP3    H218817   1.123   4.394   0.687
 6285TIP3   OH218818   4.361   0.118   4.139
 6285TIP3    H118819   4.450   0.151   4.131
 6285TIP3    H218820   4.325   0.166   4.214
 6286TIP3   OH218821   5.221   4.367   1.501
 6286TIP3    H118822   5.154   4.401   1.441
 6286TIP3    H218823   5.224   4.274   1.482
 6287TIP3   OH218824   7.115   1.262   1.051
 6287TIP3    H118825   7.113   1.177   1.007
 6287TIP3    H218826   7.179   1.313   1.002
 6288TIP3   OH218827   2.734   0.433   3.660
 6288TIP3    H118828   2.695   0.455   3.744
 6288TIP3    H218829   2.752   0.518   3.619
 6289TIP3   OH218830   0.340   6.591   5.730
 6289TIP3    H118831   0.381   6.637   5.804
 6289TIP3    H218832   0.413   6.568   5.673
 6290TIP3   OH218833   3.434   3.269   5.256
 6290TIP3    H118834   3.455   3.358   5.284
 6290TIP3    H218835   3.346   3.253   5.290
 6291TIP3   OH218836   5.026   4.789   5.009
 6291TIP3    H118837   4.983   4.854   5.064
 6291TIP3    H218838   5.085   4.742   5.068
 6292TIP3   OH218839   6.546   5.444   2.938
 6292TIP3    H118840   6.492   5.477   3.010
 6292TIP3    H218841   6.635   5.471   2.959
 6293TIP3   OH218842   1.841   0.414   1.498
 6293TIP3    H118843   1.810   0.428   1.588
 6293TIP3    H218844   1.866   0.502   1.468
 6294TIP3   OH218845   1.938   3.792   3.209
 6294TIP3    H118846   1.944   3.731   3.281
 6294TIP3    H218847   2.004   3.859   3.227
 6295TIP3   OH218848   6.672   0.431   5.515
 6295TIP3    H118849   6.759   0.422   5.555
 6295TIP3    H218850   6.686   0.495   5.444
 6296TIP3   OH218851   0.825   5.882   1.609
 6296TIP3    H118852   0.743   5.928   1.626
 6296TIP3    H218853   0.857   5.856   1.695
 6297TIP3   OH218854   4.007   4.771   3.203
 6297TIP3    H118855   4.081   4.822   3.234
 6297TIP3    H218856   4.030   4.750   3.112
 6298TIP3   OH218857   4.904   3.974   3.517
 6298TIP3    H118858   4.811   3.954   3.502
 6298TIP3    H218859   4.916   3.961   3.611
 6299TIP3   OH218860   1.106   0.694   0.545
 6299TIP3    H118861   1.043   0.624   0.561
 6299TIP3    H218862   1.179   0.674   0.604
 6300TIP3   OH218863   3.965   1.584   2.158
 6300TIP3    H118864   3.972   1.537   2.075
 6300TIP3    H218865   3.873   1.611   2.163
 6301TIP3   OH218866   5.426   5.045   3.078
 6301TIP3    H118867   5.336   5.055   3.110
 6301TIP3    H218868   5.416   5.032   2.984
 6302TIP3   OH218869   4.543   3.970   5.496
 6302TIP3    H118870   4.515   3.984   5.587
 6302TIP3    H218871   4.465   3.986   5.444
 6303TIP3   OH218872   2.672   0.315   0.634
 6303TIP3    H118873   2.596   0.258   0.628
 6303TIP3    H218874   2.675   0.341   0.726
 6304TIP3   OH218875   2.181   0.986   5.515
 6304TIP3    H118876   2.120   1.024   5.578
 6304TIP3    H218877   2.259   1.041   5.521
 6305TIP3   OH218878   5.819   6.467   4.983
 6305TIP3    H118879   5.741   6.414   4.999
 6305TIP3    H218880   5.831   6.466   4.888
 6306TIP3   OH218881   2.825   4.674   0.435
 6306TIP3    H118882   2.799   4.746   0.376
 6306TIP3    H218883   2.774   4.600   0.404
 6307TIP3   OH218884   0.218   4.090   2.431
 6307TIP3    H118885   0.298   4.042   2.453
 6307TIP3    H218886   0.170   4.096   2.514
 6308TIP3   OH218887   2.874   0.623   2.338
 6308TIP3    H118888   2.925   0.621   2.420
 6308TIP3    H218889   2.937   0.652   2.272
 6309TIP3   OH218890   3.603   2.287   5.271
 6309TIP3    H118891   3.620   2.211   5.326
 6309TIP3    H218892   3.674   2.286   5.206
 6310TIP3   OH218893   5.867   5.269   4.645
 6310TIP3    H118894   5.774   5.291   4.637
 6310TIP3    H218895   5.881   5.199   4.582
 6311TIP3   OH218896   4.751   6.362   5.412
 6311TIP3    H118897   4.707   6.341   5.494
 6311TIP3    H218898   4.836   6.396   5.438
 6312TIP3   OH218899   1.143   0.323   2.950
 6312TIP3    H118900   1.176   0.377   2.878
 6312TIP3    H218901   1.051   0.348   2.959
 6313TIP3   OH218902   3.221   1.978   3.998
 6313TIP3    H118903   3.308   1.975   3.957
 6313TIP3    H218904   3.172   2.041   3.945
 6314TIP3   OH218905   0.094   1.293   4.329
 6314TIP3    H118906   0.056   1.206   4.321
 6314TIP3    H218907   0.155   1.300   4.256
 6315TIP3   OH218908   5.379   1.091   4.525
 6315TIP3    H118909   5.307   1.055   4.474
 6315TIP3    H218910   5.341   1.165   4.571
 6316TIP3   OH218911   4.166   4.088   3.468
 6316TIP3    H118912   4.238   4.150   3.482
 6316TIP3    H218913   4.125   4.079   3.554
 6317TIP3   OH218914   0.763   0.704   1.047
 6317TIP3    H118915   0.835   0.751   1.004
 6317TIP3    H218916   0.802   0.664   1.124
 6318TIP3   OH218917   1.750   3.363   1.861
 6318TIP3    H118918   1.819   3.400   1.805
 6318TIP3    H218919   1.767   3.268   1.859
 6319TIP3   OH218920   6.198   5.889   3.964
 6319TIP3    H118921   6.268   5.832   3.996
 6319TIP3    H218922   6.121   5.834   3.960
 6320TIP3   OH218923   5.339   5.831   2.896
 6320TIP3    H118924   5.268   5.791   2.945
 6320TIP3    H218925   5.371   5.901   2.952
 6321TIP3   OH218926   4.915   3.079   4.255
 6321TIP3    H118927   4.927   3.107   4.346
 6321TIP3    H218928   5.004   3.074   4.220
 6322TIP3   OH218929   3.492   1.787   4.480
 6322TIP3    H118930   3.525   1.708   4.438
 6322TIP3    H218931   3.434   1.755   4.549
 6323TIP3   OH218932   2.713   2.874   0.301
 6323TIP3    H118933   2.723   2.969   0.287
 6323TIP3    H218934   2.718   2.863   0.395
 6324TIP3   OH218935   3.502   0.157   4.860
 6324TIP3    H118936   3.480   0.250   4.872
 6324TIP3    H218937   3.488   0.141   4.766
 6325TIP3   OH218938   5.145   1.349   1.564
 6325TIP3    H118939   5.106   1.262   1.560
 6325TIP3    H218940   5.203   1.353   1.488
 6326TIP3   OH218941   2.662   2.976   1.540
 6326TIP3    H118942   2.709   2.940   1.616
 6326TIP3    H218943   2.681   2.914   1.469
 6327TIP3   OH218944   6.473   4.285   5.609
 6327TIP3    H118945   6.506   4.245   5.690
 6327TIP3    H218946   6.467   4.378   5.629
 6328TIP3   OH218947   5.852   2.130   0.211
 6328TIP3    H118948   5.913   2.200   0.234
 6328TIP3    H218949   5.809   2.107   0.294
 6329TIP3   OH218950   6.480   5.730   3.781
 6329TIP3    H118951   6.442   5.748   3.695
 6329TIP3    H218952   6.517   5.642   3.772
 6330TIP3   OH218953   5.661   6.278   3.851
 6330TIP3    H118954   5.595   6.243   3.792
 6330TIP3    H218955   5.645   6.373   3.852
 6331TIP3   OH218956   4.011   5.431   3.944
 6331TIP3    H118957   4.078   5.424   4.012
 6331TIP3    H218958   3.976   5.519   3.953
 6332TIP3   OH218959   3.686   5.020   3.636
 6332TIP3    H118960   3.667   4.932   3.667
 6332TIP3    H218961   3.600   5.062   3.630
 6333TIP3   OH218962   6.770   6.584   4.637
 6333TIP3    H118963   6.706   6.519   4.666
 6333TIP3    H218964   6.731   6.668   4.659
 6334TIP3   OH218965   6.190   2.968   3.162
 6334TIP3    H118966   6.174   2.947   3.070
 6334TIP3    H218967   6.129   2.912   3.211
 6335TIP3   OH218968   2.996   3.963   5.094
 6335TIP3    H118969   3.040   4.042   5.125
 6335TIP3    H218970   3.067   3.899   5.081
 6336TIP3   OH218971   0.363   0.889   1.871
 6336TIP3    H118972   0.361   0.895   1.966
 6336TIP3    H218973   0.414   0.810   1.853
 6337TIP3   OH218974   3.818   3.568   0.526
 6337TIP3    H118975   3.739   3.532   0.487
 6337TIP3    H218976   3.890   3.531   0.475
 6338TIP3   OH218977   5.610   0.653   2.996
 6338TIP3    H118978   5.703   0.631   2.994
 6338TIP3    H218979   5.600   0.721   2.929
 6339TIP3   OH218980   3.406   5.002   5.243
 6339TIP3    H118981   3.486   4.951   5.257
 6339TIP3    H218982   3.428   5.090   5.271
 6340TIP3   OH218983   3.609   3.030   1.347
 6340TIP3    H118984   3.648   3.115   1.368
 6340TIP3    H218985   3.522   3.051   1.312
 6341TIP3   OH218986   1.960   6.022   1.295
 6341TIP3    H118987   1.886   5.991   1.347
 6341TIP3    H218988   1.993   6.098   1.344
 6342TIP3   OH218989   5.005   3.925   4.624
 6342TIP3    H118990   4.931   3.882   4.668
 6342TIP3    H218991   5.074   3.926   4.690
 6343TIP3   OH218992   6.053   3.348   4.846
 6343TIP3    H118993   6.076   3.256   4.855
 6343TIP3    H218994   6.068   3.385   4.933
 6344TIP3   OH218995   6.113   4.980   3.638
 6344TIP3    H118996   6.068   5.064   3.636
 6344TIP3    H218997   6.045   4.916   3.618
 6345TIP3   OH218998   4.187   2.345   3.344
 6345TIP3    H118999   4.137   2.392   3.412
 6345TIP3    H219000   4.172   2.396   3.265
 6346TIP3   OH219001   2.782   3.491   2.492
 6346TIP3    H119002   2.769   3.409   2.444
 6346TIP3    H219003   2.731   3.556   2.443
 6347TIP3   OH219004   7.161   1.603   2.418
 6347TIP3    H119005   7.179   1.665   2.348
 6347TIP3    H219006   7.103   1.650   2.478
 6348TIP3   OH219007   3.803   1.923   1.432
 6348TIP3    H119008   3.736   1.991   1.428
 6348TIP3    H219009   3.768   1.851   1.379
 6349TIP3   OH219010   3.471   5.435   4.684
 6349TIP3    H119011   3.479   5.520   4.727
 6349TIP3    H219012   3.397   5.444   4.625
 6350TIP3   OH219013   5.891   1.600   1.012
 6350TIP3    H119014   5.954   1.583   0.942
 6350TIP3    H219015   5.805   1.591   0.970
 6351TIP3   OH219016   0.292   6.320   1.460
 6351TIP3    H119017   0.235   6.349   1.389
 6351TIP3    H219018   0.266   6.373   1.535
 6352TIP3   OH219019   1.441   6.774   0.694
 6352TIP3    H119020   1.398   6.720   0.628
 6352TIP3    H219021   1.533   6.751   0.689
 6353TIP3   OH219022   1.882   3.123   1.928
 6353TIP3    H119023   1.917   3.146   2.014
 6353TIP3    H219024   1.853   3.032   1.937
 6354TIP3   OH219025   4.667   1.632   1.095
 6354TIP3    H119026   4.741   1.581   1.064
 6354TIP3    H219027   4.686   1.648   1.187
 6355TIP3   OH219028   4.569   0.958   5.504
 6355TIP3    H119029   4.480   0.991   5.504
 6355TIP3    H219030   4.587   0.937   5.595
 6356TIP3   OH219031   5.205   0.786   4.636
 6356TIP3    H119032   5.178   0.747   4.554
 6356TIP3    H219033   5.140   0.855   4.653
 6357TIP3   OH219034   5.165   2.173   5.076
 6357TIP3    H119035   5.098   2.109   5.100
 6357TIP3    H219036   5.238   2.155   5.134
 6358TIP3   OH219037   4.372   5.419   3.649
 6358TIP3    H119038   4.367   5.464   3.733
 6358TIP3    H219039   4.465   5.400   3.637
 6359TIP3   OH219040   4.950   1.403   2.074
 6359TIP3    H119041   4.939   1.311   2.100
 6359TIP3    H219042   4.932   1.403   1.980
 6360TIP3   OH219043   5.791   0.401   2.869
 6360TIP3    H119044   5.830   0.466   2.927
 6360TIP3    H219045   5.826   0.420   2.783
 6361TIP3   OH219046   3.119   4.068   3.788
 6361TIP3    H119047   3.026   4.085   3.773
 6361TIP3    H219048   3.157   4.155   3.804
 6362TIP3   OH219049   0.357   0.265   5.253
 6362TIP3    H119050   0.403   0.338   5.212
 6362TIP3    H219051   0.267   0.296   5.265
 6363TIP3   OH219052   3.402   1.302   4.879
 6363TIP3    H119053   3.387   1.220   4.926
 6363TIP3    H219054   3.322   1.316   4.828
 6364TIP3   OH219055   2.289   3.880   4.194
 6364TIP3    H119056   2.327   3.795   4.171
 6364TIP3    H219057   2.267   3.872   4.287
 6365TIP3   OH219058   0.399   3.593   3.770
 6365TIP3    H119059   0.439   3.628   3.690
 6365TIP3    H219060   0.421   3.500   3.768
 6366TIP3   OH219061   0.760   4.656   4.660
 6366TIP3    H119062   0.829   4.721   4.669
 6366TIP3    H219063   0.755   4.639   4.566
 6367TIP3   OH219064   6.343   0.843   4.180
 6367TIP3    H119065   6.357   0.754   4.213
 6367TIP3    H219066   6.323   0.830   4.087
 6368TIP3   OH219067   4.399   6.337   5.089
 6368TIP3    H119068   4.379   6.420   5.046
 6368TIP3    H219069   4.453   6.289   5.025
 6369TIP3   OH219070   6.500   1.920   3.926
 6369TIP3    H119071   6.557   1.991   3.898
 6369TIP3    H219072   6.559   1.849   3.949
 6370TIP3   OH219073   3.109   0.098   2.207
 6370TIP3    H119074   3.188   0.097   2.261
 6370TIP3    H219075   3.140   0.116   2.119
 6371TIP3   OH219076   6.261   3.472   4.736
 6371TIP3    H119077   6.191   3.408   4.723
 6371TIP3    H219078   6.291   3.457   4.825
 6372TIP3   OH219079   6.306   2.948   4.361
 6372TIP3    H119080   6.310   2.885   4.433
 6372TIP3    H219081   6.353   2.906   4.289
 6373TIP3   OH219082   4.035   5.278   0.791
 6373TIP3    H119083   4.030   5.320   0.876
 6373TIP3    H219084   3.979   5.330   0.734
 6374TIP3   OH219085   3.053   0.716   2.109
 6374TIP3    H119086   3.139   0.752   2.088
 6374TIP3    H219087   2.999   0.739   2.033
 6375TIP3   OH219088   2.570   5.043   1.082
 6375TIP3    H119089   2.624   5.029   1.003
 6375TIP3    H219090   2.550   4.954   1.112
 6376TIP3   OH219091   2.660   6.423   3.392
 6376TIP3    H119092   2.582   6.467   3.357
 6376TIP3    H219093   2.697   6.487   3.453
 6377TIP3   OH219094   0.704   6.612   4.153
 6377TIP3    H119095   0.673   6.533   4.109
 6377TIP3    H219096   0.625   6.660   4.176
 6378TIP3   OH219097   4.997   1.455   3.638
 6378TIP3    H119098   5.070   1.417   3.589
 6378TIP3    H219099   5.012   1.429   3.729
 6379TIP3   OH219100   4.403   0.689   2.098
 6379TIP3    H119101   4.403   0.607   2.047
 6379TIP3    H219102   4.495   0.714   2.104
 6380TIP3   OH219103   6.575   4.790   0.074
 6380TIP3    H119104   6.613   4.817   0.157
 6380TIP3    H219105   6.615   4.849   0.009
 6381TIP3   OH219106   3.535   5.631   3.369
 6381TIP3    H119107   3.499   5.543   3.363
 6381TIP3    H219108   3.612   5.630   3.312
 6382TIP3   OH219109   6.369   3.715   4.764
 6382TIP3    H119110   6.357   3.622   4.747
 6382TIP3    H219111   6.460   3.732   4.742
 6383TIP3   OH219112   5.541   5.283   2.170
 6383TIP3    H119113   5.485   5.360   2.160
 6383TIP3    H219114   5.613   5.314   2.225
 6384TIP3   OH219115   3.315   3.794   5.440
 6384TIP3    H119116   3.246   3.836   5.491
 6384TIP3    H219117   3.334   3.857   5.370
 6385TIP3   OH219118   4.075   5.251   5.065
 6385TIP3    H119119   4.063   5.288   4.978
 6385TIP3    H219120   4.155   5.293   5.098
 6386TIP3   OH219121   0.769   1.935   2.118
 6386TIP3    H119122   0.840   1.885   2.159
 6386TIP3    H219123   0.813   2.009   2.076
 6387TIP3   OH219124   0.377   4.385   5.766
 6387TIP3    H119125   0.433   4.462   5.752
 6387TIP3    H219126   0.387   4.334   5.685
 6388TIP3   OH219127   7.123   1.132   4.567
 6388TIP3    H119128   7.051   1.138   4.630
 6388TIP3    H219129   7.081   1.101   4.487
 6389TIP3   OH219130   3.353   4.757   3.735
 6389TIP3    H119131   3.406   4.768   3.656
 6389TIP3    H219132   3.298   4.681   3.716
 6390TIP3   OH219133   6.923   3.689   2.868
 6390TIP3    H119134   6.895   3.778   2.889
 6390TIP3    H219135   6.885   3.671   2.782
 6391TIP3   OH219136   0.162   0.930   5.068
 6391TIP3    H119137   0.216   0.943   4.991
 6391TIP3    H219138   0.158   1.015   5.110
 6392TIP3   OH219139   1.007   4.410   1.884
 6392TIP3    H119140   0.921   4.447   1.902
 6392TIP3    H219141   1.011   4.402   1.789
 6393TIP3   OH219142   5.510   5.118   2.585
 6393TIP3    H119143   5.585   5.066   2.615
 6393TIP3    H219144   5.510   5.108   2.490
 6394TIP3   OH219145   4.181   5.136   5.865
 6394TIP3    H119146   4.246   5.181   5.919
 6394TIP3    H219147   4.116   5.204   5.845
 6395TIP3   OH219148   0.890   5.263   2.943
 6395TIP3    H119149   0.966   5.296   2.897
 6395TIP3    H219150   0.905   5.285   3.035
 6396TIP3   OH219151   2.266   2.667   3.831
 6396TIP3    H119152   2.304   2.581   3.813
 6396TIP3    H219153   2.172   2.650   3.839
 6397TIP3   OH219154   1.955   3.037   5.660
 6397TIP3    H119155   1.885   3.022   5.723
 6397TIP3    H219156   1.909   3.056   5.578
 6398TIP3   OH219157   0.297   0.564   1.141
 6398TIP3    H119158   0.355   0.512   1.085
 6398TIP3    H219159   0.264   0.502   1.205
 6399TIP3   OH219160   6.422   0.325   0.866
 6399TIP3    H119161   6.436   0.419   0.859
 6399TIP3    H219162   6.388   0.312   0.955
 6400TIP3   OH219163   3.296   1.512   0.551
 6400TIP3    H119164   3.357   1.541   0.619
 6400TIP3    H219165   3.348   1.512   0.471
 6401TIP3   OH219166   5.453   5.083   2.331
 6401TIP3    H119167   5.415   5.025   2.266
 6401TIP3    H219168   5.494   5.153   2.279
 6402TIP3   OH219169   5.380   4.666   3.052
 6402TIP3    H119170   5.398   4.660   2.959
 6402TIP3    H219171   5.284   4.667   3.058
 6403TIP3   OH219172   1.571   4.740   4.844
 6403TIP3    H119173   1.530   4.826   4.829
 6403TIP3    H219174   1.586   4.705   4.756
 6404TIP3   OH219175   3.937   4.655   4.634
 6404TIP3    H119176   3.989   4.587   4.677
 6404TIP3    H219177   3.848   4.641   4.665
 6405TIP3   OH219178   0.051   3.966   5.318
 6405TIP3    H119179  -0.013   3.994   5.253
 6405TIP3    H219180   0.000   3.912   5.379
 6406TIP3   OH219181   6.410   1.409   2.091
 6406TIP3    H119182   6.485   1.467   2.080
 6406TIP3    H219183   6.358   1.422   2.012
 6407TIP3   OH219184   3.151   6.269   1.972
 6407TIP3    H119185   3.064   6.309   1.968
 6407TIP3    H219186   3.136   6.178   1.948
 6408TIP3   OH219187   0.961   6.676   4.098
 6408TIP3    H119188   0.986   6.590   4.065
 6408TIP3    H219189   0.871   6.664   4.130
 6409TIP3   OH219190   3.644   1.234   0.727
 6409TIP3    H119191   3.678   1.321   0.706
 6409TIP3    H219192   3.551   1.238   0.707
 6410TIP3   OH219193   2.936   0.557   4.180
 6410TIP3    H119194   2.945   0.487   4.244
 6410TIP3    H219195   2.935   0.513   4.095
 6411TIP3   OH219196   6.408   4.700   1.021
 6411TIP3    H119197   6.349   4.773   1.042
 6411TIP3    H219198   6.367   4.657   0.945
 6412TIP3   OH219199   4.684   2.896   2.019
 6412TIP3    H119200   4.722   2.951   1.950
 6412TIP3    H219201   4.590   2.915   2.016
 6413TIP3   OH219202   6.975   6.256   2.519
 6413TIP3    H119203   7.059   6.267   2.475
 6413TIP3    H219204   6.972   6.327   2.582
 6414TIP3   OH219205   3.970   3.203   2.576
 6414TIP3    H119206   4.048   3.192   2.631
 6414TIP3    H219207   3.897   3.185   2.635
 6415TIP3   OH219208   0.771   5.727   2.071
 6415TIP3    H119209   0.804   5.697   2.155
 6415TIP3    H219210   0.695   5.671   2.053
 6416TIP3   OH219211   5.452   4.634   2.525
 6416TIP3    H119212   5.502   4.715   2.535
 6416TIP3    H219213   5.499   4.585   2.457
 6417TIP3   OH219214   4.271   0.190   4.641
 6417TIP3    H119215   4.219   0.270   4.635
 6417TIP3    H219216   4.245   0.139   4.565
 6418TIP3   OH219217   3.041   2.395   2.460
 6418TIP3    H119218   3.058   2.375   2.552
 6418TIP3    H219219   3.123   2.432   2.428
 6419TIP3   OH219220   6.616   0.467   2.232
 6419TIP3    H119221   6.685   0.526   2.203
 6419TIP3    H219222   6.661   0.386   2.255
 6420TIP3   OH219223   6.943   6.731   0.491
 6420TIP3    H119224   6.966   6.653   0.540
 6420TIP3    H219225   7.022   6.752   0.440
 6421TIP3   OH219226   4.741   3.955   2.407
 6421TIP3    H119227   4.784   4.039   2.396
 6421TIP3    H219228   4.802   3.903   2.460
 6422TIP3   OH219229   7.150   2.320   0.395
 6422TIP3    H119230   7.073   2.288   0.348
 6422TIP3    H219231   7.220   2.260   0.370
 6423TIP3   OH219232   5.149   3.842   0.752
 6423TIP3    H119233   5.121   3.854   0.843
 6423TIP3    H219234   5.208   3.916   0.735
 6424TIP3   OH219235   1.311   1.436   1.787
 6424TIP3    H119236   1.366   1.513   1.779
 6424TIP3    H219237   1.226   1.462   1.752
 6425TIP3   OH219238   6.991   4.357   0.809
 6425TIP3    H119239   7.072   4.402   0.831
 6425TIP3    H219240   6.923   4.401   0.860
 6426TIP3   OH219241   3.038   2.069   1.596
 6426TIP3    H119242   2.946   2.094   1.596
 6426TIP3    H219243   3.083   2.142   1.637
 6427TIP3   OH219244   5.531   5.003   5.431
 6427TIP3    H119245   5.570   5.021   5.517
 6427TIP3    H219246   5.490   4.917   5.441
 6428TIP3   OH219247   0.452   6.389   4.795
 6428TIP3    H119248   0.448   6.459   4.860
 6428TIP3    H219249   0.361   6.367   4.777
 6429TIP3   OH219250   5.756   6.334   2.812
 6429TIP3    H119251   5.768   6.421   2.850
 6429TIP3    H219252   5.666   6.333   2.779
 6430TIP3   OH219253   0.297   5.143   5.793
 6430TIP3    H119254   0.209   5.114   5.817
 6430TIP3    H219255   0.356   5.079   5.832
 6431TIP3   OH219256   5.430   5.645   4.185
 6431TIP3    H119257   5.382   5.572   4.225
 6431TIP3    H219258   5.465   5.694   4.259
 6432TIP3   OH219259   4.421   2.425   0.359
 6432TIP3    H119260   4.515   2.423   0.374
 6432TIP3    H219261   4.383   2.438   0.446
 6433TIP3   OH219262   3.181   5.643   0.745
 6433TIP3    H119263   3.196   5.606   0.658
 6433TIP3    H219264   3.129   5.722   0.729
 6434TIP3   OH219265   0.098   3.174   1.256
 6434TIP3    H119266   0.036   3.225   1.204
 6434TIP3    H219267   0.184   3.200   1.224
 6435TIP3   OH219268   0.462   6.337   5.626
 6435TIP3    H119269   0.482   6.306   5.538
 6435TIP3    H219270   0.516   6.416   5.637
 6436TIP3   OH219271   4.192   4.060   2.048
 6436TIP3    H119272   4.220   4.144   2.011
 6436TIP3    H219273   4.195   4.073   2.143
 6437TIP3   OH219274   4.138   2.066   3.420
 6437TIP3    H119275   4.212   2.034   3.471
 6437TIP3    H219276   4.158   2.158   3.404
 6438TIP3   OH219277   0.624   6.568   5.631
 6438TIP3    H119278   0.636   6.628   5.704
 6438TIP3    H219279   0.713   6.536   5.613
 6439TIP3   OH219280   3.832   0.327   2.769
 6439TIP3    H119281   3.839   0.346   2.675
 6439TIP3    H219282   3.747   0.285   2.779
 6440TIP3   OH219283   7.233   1.345   2.523
 6440TIP3    H119284   7.227   1.439   2.506
 6440TIP3    H219285   7.168   1.306   2.464
 6441TIP3   OH219286   2.016   1.566   3.901
 6441TIP3    H119287   2.105   1.532   3.911
 6441TIP3    H219288   1.973   1.502   3.844
 6442TIP3   OH219289   3.147   5.497   2.661
 6442TIP3    H119290   3.237   5.517   2.635
 6442TIP3    H219291   3.096   5.571   2.628
 6443TIP3   OH219292   3.018   0.830   2.852
 6443TIP3    H119293   3.070   0.886   2.910
 6443TIP3    H219294   2.941   0.882   2.830
 6444TIP3   OH219295   2.057  -0.018   1.160
 6444TIP3    H119296   2.094  -0.101   1.191
 6444TIP3    H219297   2.108   0.004   1.083
 6445TIP3   OH219298   0.921   5.517   2.277
 6445TIP3    H119299   0.908   5.446   2.214
 6445TIP3    H219300   0.868   5.492   2.352
 6446TIP3   OH219301   5.560   6.118   0.065
 6446TIP3    H119302   5.515   6.201   0.084
 6446TIP3    H219303   5.637   6.120   0.122
 6447TIP3   OH219304   6.097   6.388   3.223
 6447TIP3    H119305   6.065   6.405   3.312
 6447TIP3    H219306   6.020   6.353   3.177
 6448TIP3   OH219307   6.607   1.517   4.532
 6448TIP3    H119308   6.591   1.611   4.542
 6448TIP3    H219309   6.688   1.511   4.482
 6449TIP3   OH219310   2.196   6.448   0.961
 6449TIP3    H119311   2.124   6.392   0.932
 6449TIP3    H219312   2.161   6.498   1.034
 6450TIP3   OH219313   4.102   4.797   2.923
 6450TIP3    H119314   4.135   4.876   2.881
 6450TIP3    H219315   4.179   4.742   2.934
 6451TIP3   OH219316   1.879   5.411   0.536
 6451TIP3    H119317   1.821   5.473   0.580
 6451TIP3    H219318   1.829   5.329   0.535
 6452TIP3   OH219319   2.742   1.562   1.268
 6452TIP3    H119320   2.750   1.527   1.179
 6452TIP3    H219321   2.766   1.654   1.259
 6453TIP3   OH219322   1.806   0.001   0.981
 6453TIP3    H119323   1.810  -0.090   0.950
 6453TIP3    H219324   1.874   0.005   1.050
 6454TIP3   OH219325   1.543   4.365   1.129
 6454TIP3    H119326   1.551   4.382   1.223
 6454TIP3    H219327   1.633   4.368   1.096
 6455TIP3   OH219328   3.266   2.474   1.303
 6455TIP3    H119329   3.340   2.535   1.309
 6455TIP3    H219330   3.287   2.406   1.368
 6456TIP3   OH219331   0.034   4.614   2.643
 6456TIP3    H119332  -0.019   4.638   2.719
 6456TIP3    H219333   0.109   4.673   2.646
 6457TIP3   OH219334   3.312   3.996   0.808
 6457TIP3    H119335   3.405   4.001   0.787
 6457TIP3    H219336   3.292   4.079   0.852
 6458TIP3   OH219337   4.580   1.236   5.167
 6458TIP3    H119338   4.498   1.215   5.123
 6458TIP3    H219339   4.632   1.282   5.101
 6459TIP3   OH219340   6.034   3.927   2.839
 6459TIP3    H119341   6.002   3.999   2.894
 6459TIP3    H219342   5.978   3.930   2.761
 6460TIP3   OH219343   4.727   1.802   4.692
 6460TIP3    H119344   4.693   1.742   4.626
 6460TIP3    H219345   4.725   1.752   4.773
 6461TIP3   OH219346   6.970   1.114   3.342
 6461TIP3    H119347   6.999   1.147   3.427
 6461TIP3    H219348   7.035   1.048   3.318
 6462TIP3   OH219349   0.228   4.336   0.795
 6462TIP3    H119350   0.282   4.263   0.824
 6462TIP3    H219351   0.167   4.298   0.732
 6463TIP3   OH219352   0.278   1.920   0.148
 6463TIP3    H119353   0.281   1.922   0.244
 6463TIP3    H219354   0.218   1.849   0.128
 6464TIP3   OH219355   3.423   1.611   0.791
 6464TIP3    H119356   3.344   1.564   0.817
 6464TIP3    H219357   3.433   1.681   0.856
 6465TIP3   OH219358   0.247   6.276   2.541
 6465TIP3    H119359   0.325   6.319   2.576
 6465TIP3    H219360   0.270   6.183   2.537
 6466TIP3   OH219361   3.896   6.609   1.865
 6466TIP3    H119362   3.872   6.648   1.781
 6466TIP3    H219363   3.894   6.515   1.849
 6467TIP3   OH219364   2.894   5.745   4.165
 6467TIP3    H119365   2.949   5.703   4.232
 6467TIP3    H219366   2.887   5.680   4.095
 6468TIP3   OH219367   1.073   0.653   1.090
 6468TIP3    H119368   1.099   0.613   1.007
 6468TIP3    H219369   1.109   0.593   1.157
 6469TIP3   OH219370   0.793   4.885   0.867
 6469TIP3    H119371   0.703   4.858   0.850
 6469TIP3    H219372   0.801   4.969   0.822
 6470TIP3   OH219373   2.207   0.571   4.218
 6470TIP3    H119374   2.254   0.653   4.228
 6470TIP3    H219375   2.275   0.504   4.224
 6471TIP3   OH219376   5.094   0.966   1.128
 6471TIP3    H119377   5.170   1.000   1.176
 6471TIP3    H219378   5.023   0.966   1.192
 6472TIP3   OH219379   3.954   5.690   3.099
 6472TIP3    H119380   3.962   5.617   3.159
 6472TIP3    H219381   3.887   5.662   3.036
 6473TIP3   OH219382   6.838   4.996   2.057
 6473TIP3    H119383   6.894   5.012   2.133
 6473TIP3    H219384   6.890   5.030   1.983
 6474TIP3   OH219385   3.747   3.135   0.123
 6474TIP3    H119386   3.772   3.056   0.170
 6474TIP3    H219387   3.817   3.148   0.059
 6475TIP3   OH219388   0.892   4.977   3.292
 6475TIP3    H119389   0.915   4.884   3.293
 6475TIP3    H219390   0.821   4.985   3.356
 6476TIP3   OH219391   4.490   3.385   1.635
 6476TIP3    H119392   4.544   3.387   1.556
 6476TIP3    H219393   4.545   3.345   1.701
 6477TIP3   OH219394   6.998   3.856   1.869
 6477TIP3    H119395   6.941   3.889   1.938
 6477TIP3    H219396   6.943   3.798   1.817
 6478TIP3   OH219397   0.706   5.582   0.081
 6478TIP3    H119398   0.791   5.614   0.110
 6478TIP3    H219399   0.645   5.654   0.099
 6479TIP3   OH219400   3.958   5.548   0.068
 6479TIP3    H119401   4.042   5.550   0.113
 6479TIP3    H219402   3.919   5.464   0.092
 6480TIP3   OH219403   7.027   4.099   4.183
 6480TIP3    H119404   6.981   4.020   4.155
 6480TIP3    H219405   7.063   4.077   4.268
 6481TIP3   OH219406   3.265   1.081   1.961
 6481TIP3    H119407   3.275   1.106   1.869
 6481TIP3    H219408   3.192   1.135   1.993
 6482TIP3   OH219409   5.975   2.428   5.021
 6482TIP3    H119410   5.973   2.445   4.927
 6482TIP3    H219411   6.036   2.493   5.056
 6483TIP3   OH219412   5.266   6.250   4.607
 6483TIP3    H119413   5.300   6.162   4.591
 6483TIP3    H219414   5.290   6.300   4.529
 6484TIP3   OH219415   5.809   0.816   3.324
 6484TIP3    H119416   5.901   0.793   3.338
 6484TIP3    H219417   5.766   0.795   3.407
 6485TIP3   OH219418   3.171   5.739   2.311
 6485TIP3    H119419   3.091   5.700   2.346
 6485TIP3    H219420   3.242   5.686   2.347
 6486TIP3   OH219421   6.016   3.580   3.322
 6486TIP3    H119422   6.102   3.541   3.307
 6486TIP3    H219423   6.020   3.614   3.412
 6487TIP3   OH219424   2.809   0.753   5.155
 6487TIP3    H119425   2.844   0.758   5.244
 6487TIP3    H219426   2.844   0.671   5.121
 6488TIP3   OH219427   2.338   3.987   4.852
 6488TIP3    H119428   2.255   3.945   4.872
 6488TIP3    H219429   2.405   3.929   4.889
 6489TIP3   OH219430   0.299   1.167   2.013
 6489TIP3    H119431   0.234   1.189   1.946
 6489TIP3    H219432   0.345   1.090   1.978
 6490TIP3   OH219433   4.861   4.714   1.220
 6490TIP3    H119434   4.884   4.628   1.184
 6490TIP3    H219435   4.842   4.768   1.143
 6491TIP3   OH219436   4.426   3.699   2.063
 6491TIP3    H119437   4.431   3.609   2.030
 6491TIP3    H219438   4.332   3.715   2.073
 6492TIP3   OH219439   5.245   3.440   3.353
 6492TIP3    H119440   5.217   3.413   3.440
 6492TIP3    H219441   5.271   3.359   3.309
 6493TIP3   OH219442   6.338   0.341   3.874
 6493TIP3    H119443   6.245   0.320   3.868
 6493TIP3    H219444   6.343   0.406   3.944
 6494TIP3   OH219445   3.913   0.447   4.955
 6494TIP3    H119446   3.900   0.361   4.996
 6494TIP3    H219447   3.836   0.459   4.900
 6495TIP3   OH219448   3.574   4.507  -0.029
 6495TIP3    H119449   3.604   4.432   0.022
 6495TIP3    H219450   3.595   4.583   0.025
 6496TIP3   OH219451   5.734   0.487   5.120
 6496TIP3    H119452   5.660   0.439   5.158
 6496TIP3    H219453   5.801   0.485   5.189
 6497TIP3   OH219454   3.830   2.645   3.118
 6497TIP3    H119455   3.821   2.739   3.103
 6497TIP3    H219456   3.748   2.608   3.087
 6498TIP3   OH219457   6.854   1.571   4.430
 6498TIP3    H119458   6.949   1.570   4.426
 6498TIP3    H219459   6.827   1.637   4.366
 6499TIP3   OH219460   0.799   0.102   5.148
 6499TIP3    H119461   0.718   0.070   5.186
 6499TIP3    H219462   0.806   0.193   5.178
 6500TIP3   OH219463   6.162   4.570   5.200
 6500TIP3    H119464   6.123   4.652   5.170
 6500TIP3    H219465   6.194   4.528   5.120
 6501TIP3   OH219466   2.944   4.370   2.506
 6501TIP3    H119467   2.896   4.336   2.582
 6501TIP3    H219468   2.876   4.401   2.447
 6502TIP3   OH219469   0.877   5.879   0.271
 6502TIP3    H119470   0.902   5.967   0.297
 6502TIP3    H219471   0.871   5.830   0.353
 6503TIP3   OH219472   3.991   1.935   3.946
 6503TIP3    H119473   4.058   1.867   3.949
 6503TIP3    H219474   4.030   2.006   3.896
 6504TIP3   OH219475   6.476   3.886   5.715
 6504TIP3    H119476   6.498   3.820   5.781
 6504TIP3    H219477   6.490   3.842   5.631
 6505TIP3   OH219478   1.473   4.022   4.691
 6505TIP3    H119479   1.444   4.109   4.720
 6505TIP3    H219480   1.476   3.970   4.771
 6506TIP3   OH219481   0.998   1.785   2.174
 6506TIP3    H119482   0.992   1.697   2.136
 6506TIP3    H219483   1.039   1.771   2.259
 6507TIP3   OH219484   5.482   1.830   1.686
 6507TIP3    H119485   5.522   1.911   1.718
 6507TIP3    H219486   5.555   1.770   1.675
 6508TIP3   OH219487   4.786   5.794   4.705
 6508TIP3    H119488   4.735   5.834   4.635
 6508TIP3    H219489   4.870   5.771   4.664
 6509TIP3   OH219490   5.246   0.162   2.622
 6509TIP3    H119491   5.308   0.175   2.694
 6509TIP3    H219492   5.265   0.075   2.589
 6510TIP3   OH219493   4.233   2.697   1.689
 6510TIP3    H119494   4.155   2.753   1.687
 6510TIP3    H219495   4.292   2.735   1.624
 6511TIP3   OH219496   4.991   5.053   3.718
 6511TIP3    H119497   5.002   5.137   3.673
 6511TIP3    H219498   4.954   5.076   3.803
 6512TIP3   OH219499   6.391   5.546   5.747
 6512TIP3    H119500   6.385   5.620   5.807
 6512TIP3    H219501   6.442   5.480   5.795
 6513TIP3   OH219502   6.885   2.209   4.208
 6513TIP3    H119503   6.897   2.131   4.155
 6513TIP3    H219504   6.792   2.210   4.230
 6514TIP3   OH219505   1.360   6.718   5.006
 6514TIP3    H119506   1.268   6.731   5.030
 6514TIP3    H219507   1.386   6.638   5.052
 6515TIP3   OH219508   0.504   6.436   3.569
 6515TIP3    H119509   0.565   6.388   3.626
 6515TIP3    H219510   0.560   6.494   3.518
 6516TIP3   OH219511   2.982   2.160   1.262
 6516TIP3    H119512   2.904   2.196   1.220
 6516TIP3    H219513   2.953   2.135   1.349
 6517TIP3   OH219514   4.292   6.253   1.458
 6517TIP3    H119515   4.233   6.190   1.500
 6517TIP3    H219516   4.253   6.267   1.372
 6518TIP3   OH219517   1.955   3.452   0.509
 6518TIP3    H119518   1.933   3.519   0.574
 6518TIP3    H219519   1.875   3.443   0.457
 6519TIP3   OH219520   4.447   0.221   1.624
 6519TIP3    H119521   4.460   0.278   1.701
 6519TIP3    H219522   4.424   0.136   1.661
 6520TIP3   OH219523   4.910   6.562   4.183
 6520TIP3    H119524   4.824   6.562   4.225
 6520TIP3    H219525   4.935   6.655   4.180
 6521TIP3   OH219526   4.758   1.918   3.217
 6521TIP3    H119527   4.802   1.834   3.202
 6521TIP3    H219528   4.759   1.928   3.312
 6522TIP3   OH219529   3.785   1.081   0.928
 6522TIP3    H119530   3.729   1.108   0.856
 6522TIP3    H219531   3.810   1.163   0.971
 6523TIP3   OH219532   6.228   2.342   4.060
 6523TIP3    H119533   6.156   2.353   3.999
 6523TIP3    H219534   6.305   2.329   4.004
 6524TIP3   OH219535   3.950   6.270   3.722
 6524TIP3    H119536   3.973   6.362   3.715
 6524TIP3    H219537   3.861   6.270   3.757
 6525TIP3   OH219538   0.531   4.729   4.799
 6525TIP3    H119539   0.491   4.649   4.834
 6525TIP3    H219540   0.623   4.705   4.786
 6526TIP3   OH219541   2.555   6.477   1.524
 6526TIP3    H119542   2.608   6.507   1.598
 6526TIP3    H219543   2.542   6.384   1.539
 6527TIP3   OH219544   3.839   4.962   5.427
 6527TIP3    H119545   3.847   4.925   5.515
 6527TIP3    H219546   3.928   4.985   5.402
 6528TIP3   OH219547   1.776   3.795   3.863
 6528TIP3    H119548   1.855   3.813   3.914
 6528TIP3    H219549   1.723   3.738   3.918
 6529TIP3   OH219550   7.070   4.159   3.914
 6529TIP3    H119551   7.010   4.184   3.985
 6529TIP3    H219552   7.024   4.090   3.867
 6530TIP3   OH219553   3.130   4.184   5.191
 6530TIP3    H119554   3.091   4.271   5.194
 6530TIP3    H219555   3.193   4.183   5.263
 6531TIP3   OH219556   6.320   0.201   2.219
 6531TIP3    H119557   6.295   0.171   2.132
 6531TIP3    H219558   6.393   0.143   2.244
 6532TIP3   OH219559   6.725   5.547   0.276
 6532TIP3    H119560   6.640   5.586   0.256
 6532TIP3    H219561   6.708   5.486   0.348
 6533TIP3   OH219562   4.172   1.715   3.874
 6533TIP3    H119563   4.191   1.692   3.965
 6533TIP3    H219564   4.247   1.769   3.847
 6534TIP3   OH219565   6.101   0.904   2.907
 6534TIP3    H119566   6.094   0.857   2.990
 6534TIP3    H219567   6.060   0.989   2.924
 6535TIP3   OH219568   0.607   5.317   1.992
 6535TIP3    H119569   0.516   5.338   1.968
 6535TIP3    H219570   0.635   5.254   1.925
 6536TIP3   OH219571   5.618   1.235   1.475
 6536TIP3    H119572   5.665   1.299   1.422
 6536TIP3    H219573   5.605   1.161   1.417
 6537TIP3   OH219574   5.217   4.080   3.118
 6537TIP3    H119575   5.203   4.092   3.212
 6537TIP3    H219576   5.212   4.168   3.082
 6538TIP3   OH219577   1.031   3.388   4.971
 6538TIP3    H119578   0.956   3.342   5.008
 6538TIP3    H219579   1.043   3.349   4.884
 6539TIP3   OH219580   0.265   5.132   0.919
 6539TIP3    H119581   0.248   5.054   0.972
 6539TIP3    H219582   0.208   5.122   0.843
 6540TIP3   OH219583   5.603   2.919   2.510
 6540TIP3    H119584   5.535   2.876   2.562
 6540TIP3    H219585   5.684   2.874   2.535
 6541TIP3   OH219586   0.419   3.184   4.091
 6541TIP3    H119587   0.367   3.244   4.037
 6541TIP3    H219588   0.372   3.100   4.085
 6542TIP3   OH219589   1.972   1.112   3.268
 6542TIP3    H119590   1.959   1.184   3.206
 6542TIP3    H219591   1.984   1.035   3.213
 6543TIP3   OH219592   5.995   5.507   0.668
 6543TIP3    H119593   6.036   5.581   0.623
 6543TIP3    H219594   5.901   5.520   0.655
 6544TIP3   OH219595   3.260   2.772   4.125
 6544TIP3    H119596   3.307   2.689   4.120
 6544TIP3    H219597   3.325   2.836   4.153
 6545TIP3   OH219598   7.236   1.683   0.935
 6545TIP3    H119599   7.291   1.683   1.014
 6545TIP3    H219600   7.170   1.615   0.953
 6546TIP3   OH219601   6.699   3.412   3.855
 6546TIP3    H119602   6.760   3.476   3.891
 6546TIP3    H219603   6.749   3.368   3.786
 6547TIP3   OH219604   1.248   4.719   4.786
 6547TIP3    H119605   1.241   4.757   4.699
 6547TIP3    H219606   1.317   4.770   4.828
 6548TIP3   OH219607   5.747   0.747   5.036
 6548TIP3    H119608   5.746   0.654   5.059
 6548TIP3    H219609   5.836   0.762   5.003
 6549TIP3   OH219610   3.903   3.998   0.353
 6549TIP3    H119611   3.830   3.944   0.323
 6549TIP3    H219612   3.940   4.035   0.273
 6550TIP3   OH219613   3.557   0.106   5.291
 6550TIP3    H119614   3.511   0.067   5.217
 6550TIP3    H219615   3.641   0.060   5.295
 6551TIP3   OH219616   6.690   1.716   2.855
 6551TIP3    H119617   6.716   1.786   2.795
 6551TIP3    H219618   6.597   1.731   2.871
 6552TIP3   OH219619   6.588   0.999   3.350
 6552TIP3    H119620   6.605   0.986   3.443
 6552TIP3    H219621   6.638   1.078   3.327
 6553TIP3   OH219622   2.366   4.214   2.991
 6553TIP3    H119623   2.445   4.243   3.036
 6553TIP3    H219624   2.360   4.271   2.914
 6554TIP3   OH219625   4.657   4.420   5.860
 6554TIP3    H119626   4.676   4.370   5.781
 6554TIP3    H219627   4.600   4.363   5.912
 6555TIP3   OH219628   1.059   5.720   2.400
 6555TIP3    H119629   1.152   5.695   2.397
 6555TIP3    H219630   1.016   5.657   2.343
 6556TIP3   OH219631   2.264   2.663   1.046
 6556TIP3    H119632   2.226   2.703   1.124
 6556TIP3    H219633   2.356   2.689   1.048
 6557TIP3   OH219634   2.193   3.459   2.579
 6557TIP3    H119635   2.274   3.484   2.534
 6557TIP3    H219636   2.194   3.364   2.580
 6558TIP3   OH219637   1.671   2.518   0.893
 6558TIP3    H119638   1.621   2.437   0.881
 6558TIP3    H219639   1.749   2.506   0.839
 6559TIP3   OH219640   5.238   4.125   3.808
 6559TIP3    H119641   5.315   4.077   3.779
 6559TIP3    H219642   5.272   4.197   3.860
 6560TIP3   OH219643   0.704   2.356   0.934
 6560TIP3    H119644   0.707   2.332   1.026
 6560TIP3    H219645   0.653   2.287   0.892
 6561TIP3   OH219646   1.720   4.285   0.677
 6561TIP3    H119647   1.715   4.247   0.764
 6561TIP3    H219648   1.807   4.324   0.673
 6562TIP3   OH219649   7.111   2.200   2.619
 6562TIP3    H119650   7.149   2.279   2.580
 6562TIP3    H219651   7.049   2.168   2.553
 6563TIP3   OH219652   0.110   2.647   4.384
 6563TIP3    H119653   0.046   2.612   4.446
 6563TIP3    H219654   0.090   2.740   4.377
 6564TIP3   OH219655   1.794   4.530   2.239
 6564TIP3    H119656   1.793   4.439   2.269
 6564TIP3    H219657   1.788   4.582   2.320
 6565TIP3   OH219658   3.628   0.510   2.181
 6565TIP3    H119659   3.717   0.513   2.215
 6565TIP3    H219660   3.575   0.546   2.252
 6566TIP3   OH219661   4.395   4.099   0.056
 6566TIP3    H119662   4.419   4.168  -0.005
 6566TIP3    H219663   4.349   4.034   0.002
 6567TIP3   OH219664   0.445   3.956   2.493
 6567TIP3    H119665   0.500   3.903   2.436
 6567TIP3    H219666   0.488   3.952   2.579
 6568TIP3   OH219667   0.435   5.949   3.896
 6568TIP3    H119668   0.340   5.951   3.897
 6568TIP3    H219669   0.461   5.960   3.987
 6569TIP3   OH219670   5.382   5.013   1.019
 6569TIP3    H119671   5.345   5.036   1.104
 6569TIP3    H219672   5.423   4.928   1.033
 6570TIP3   OH219673   3.237   3.604   4.316
 6570TIP3    H119674   3.282   3.527   4.282
 6570TIP3    H219675   3.166   3.620   4.254
 6571TIP3   OH219676   5.313   1.042   5.270
 6571TIP3    H119677   5.384   0.983   5.246
 6571TIP3    H219678   5.265   0.995   5.338
 6572TIP3   OH219679   3.215   2.442   5.876
 6572TIP3    H119680   3.270   2.466   5.801
 6572TIP3    H219681   3.184   2.526   5.911
 6573TIP3   OH219682   2.832   3.744   3.758
 6573TIP3    H119683   2.802   3.675   3.699
 6573TIP3    H219684   2.910   3.708   3.800
 6574TIP3   OH219685   4.083   6.037   4.984
 6574TIP3    H119686   4.046   6.122   4.959
 6574TIP3    H219687   4.141   6.056   5.057
 6575TIP3   OH219688   4.989   2.026   5.531
 6575TIP3    H119689   5.016   1.934   5.523
 6575TIP3    H219690   4.993   2.044   5.625
 6576TIP3   OH219691   2.074   0.229   1.903
 6576TIP3    H119692   2.168   0.225   1.889
 6576TIP3    H219693   2.036   0.200   1.819
 6577TIP3   OH219694   1.837   1.704   4.055
 6577TIP3    H119695   1.863   1.795   4.045
 6577TIP3    H219696   1.899   1.655   4.001
 6578TIP3   OH219697   4.062   3.812   0.960
 6578TIP3    H119698   4.155   3.807   0.939
 6578TIP3    H219699   4.054   3.891   1.014
 6579TIP3   OH219700   2.971   3.232   2.241
 6579TIP3    H119701   3.033   3.200   2.175
 6579TIP3    H219702   2.886   3.224   2.199
 6580TIP3   OH219703   5.594   3.385   5.633
 6580TIP3    H119704   5.501   3.365   5.620
 6580TIP3    H219705   5.594   3.461   5.692
 6581TIP3   OH219706   2.859   6.732   2.486
 6581TIP3    H119707   2.942   6.700   2.452
 6581TIP3    H219708   2.845   6.681   2.566
 6582TIP3   OH219709   4.494   3.565   4.121
 6582TIP3    H119710   4.576   3.557   4.074
 6582TIP3    H219711   4.483   3.481   4.165
 6583TIP3   OH219712   2.279   1.814   5.464
 6583TIP3    H119713   2.289   1.885   5.400
 6583TIP3    H219714   2.359   1.763   5.455
 6584TIP3   OH219715   3.515   2.184   2.538
 6584TIP3    H119716   3.589   2.245   2.539
 6584TIP3    H219717   3.440   2.238   2.515
 6585TIP3   OH219718   3.777   4.209   4.761
 6585TIP3    H119719   3.693   4.167   4.776
 6585TIP3    H219720   3.795   4.257   4.842
 6586TIP3   OH219721   6.915   3.679   1.491
 6586TIP3    H119722   6.832   3.721   1.515
 6586TIP3    H219723   6.960   3.744   1.437
 6587TIP3   OH219724   0.418   3.993   4.656
 6587TIP3    H119725   0.393   4.039   4.735
 6587TIP3    H219726   0.357   3.919   4.651
 6588TIP3   OH219727   2.009   2.247   4.950
 6588TIP3    H119728   1.988   2.325   5.002
 6588TIP3    H219729   2.056   2.281   4.873
 6589TIP3   OH219730   0.563   4.736   0.716
 6589TIP3    H119731   0.472   4.747   0.743
 6589TIP3    H219732   0.559   4.727   0.621
 6590TIP3   OH219733   1.088   5.431   1.521
 6590TIP3    H119734   1.141   5.457   1.445
 6590TIP3    H219735   0.999   5.456   1.498
 6591TIP3   OH219736   2.054   3.932   3.687
 6591TIP3    H119737   2.053   3.909   3.780
 6591TIP3    H219738   1.971   3.976   3.673
 6592TIP3   OH219739   0.676   5.374   4.190
 6592TIP3    H119740   0.733   5.407   4.120
 6592TIP3    H219741   0.659   5.283   4.165
 6593TIP3   OH219742   0.534   3.643   0.819
 6593TIP3    H119743   0.629   3.655   0.814
 6593TIP3    H219744   0.513   3.653   0.912
 6594TIP3   OH219745   1.269   2.238   2.198
 6594TIP3    H119746   1.350   2.238   2.148
 6594TIP3    H219747   1.236   2.148   2.189
 6595TIP3   OH219748   6.183   1.097   3.941
 6595TIP3    H119749   6.203   1.006   3.962
 6595TIP3    H219750   6.226   1.112   3.857
 6596TIP3   OH219751   6.739   6.256   0.845
 6596TIP3    H119752   6.759   6.301   0.763
 6596TIP3    H219753   6.720   6.166   0.818
 6597TIP3   OH219754   5.244   3.601   0.645
 6597TIP3    H119755   5.199   3.671   0.692
 6597TIP3    H219756   5.315   3.645   0.598
 6598TIP3   OH219757   6.411   6.103   0.031
 6598TIP3    H119758   6.335   6.113   0.088
 6598TIP3    H219759   6.379   6.124  -0.056
 6599TIP3   OH219760   1.667   1.772   1.406
 6599TIP3    H119761   1.604   1.741   1.471
 6599TIP3    H219762   1.727   1.828   1.455
 6600TIP3   OH219763   4.860   4.740   2.840
 6600TIP3    H119764   4.771   4.771   2.826
 6600TIP3    H219765   4.855   4.645   2.828
 6601TIP3   OH219766   2.763   5.458   1.672
 6601TIP3    H119767   2.756   5.439   1.578
 6601TIP3    H219768   2.672   5.464   1.702
 6602TIP3   OH219769   3.396   5.123   1.361
 6602TIP3    H119770   3.417   5.195   1.301
 6602TIP3    H219771   3.310   5.145   1.396
 6603TIP3   OH219772   1.094   0.324   2.216
 6603TIP3    H119773   1.182   0.338   2.250
 6603TIP3    H219774   1.041   0.394   2.256
 6604TIP3   OH219775   7.012   4.665   3.425
 6604TIP3    H119776   6.929   4.636   3.388
 6604TIP3    H219777   7.077   4.647   3.357
 6605TIP3   OH219778   5.371   1.311   5.339
 6605TIP3    H119779   5.288   1.358   5.339
 6605TIP3    H219780   5.349   1.223   5.310
 6606TIP3   OH219781   4.197   4.799   5.196
 6606TIP3    H119782   4.269   4.760   5.246
 6606TIP3    H219783   4.122   4.742   5.214
 6607TIP3   OH219784   4.180   2.000   4.221
 6607TIP3    H119785   4.156   1.936   4.155
 6607TIP3    H219786   4.261   1.965   4.259
 6608TIP3   OH219787   5.250   2.968   3.900
 6608TIP3    H119788   5.203   3.006   3.825
 6608TIP3    H219789   5.213   2.880   3.910
 6609TIP3   OH219790   5.391   5.807   5.044
 6609TIP3    H119791   5.357   5.892   5.072
 6609TIP3    H219792   5.485   5.822   5.030
 6610TIP3   OH219793   1.139   3.864   0.530
 6610TIP3    H119794   1.181   3.784   0.562
 6610TIP3    H219795   1.061   3.874   0.585
 6611TIP3   OH219796   1.239   6.582   0.337
 6611TIP3    H119797   1.302   6.554   0.271
 6611TIP3    H219798   1.277   6.555   0.420
 6612TIP3   OH219799   4.457   3.447   4.483
 6612TIP3    H119800   4.535   3.448   4.427
 6612TIP3    H219801   4.473   3.376   4.545
 6613TIP3   OH219802   6.818   1.993   4.512
 6613TIP3    H119803   6.836   2.084   4.487
 6613TIP3    H219804   6.873   1.941   4.454
 6614TIP3   OH219805   4.200   0.297   3.898
 6614TIP3    H119806   4.244   0.294   3.813
 6614TIP3    H219807   4.233   0.220   3.945
 6615TIP3   OH219808   4.956   3.920   1.607
 6615TIP3    H119809   4.965   3.826   1.592
 6615TIP3    H219810   4.867   3.940   1.580
 6616TIP3   OH219811   7.108   2.905   0.058
 6616TIP3    H119812   7.080   2.996   0.058
 6616TIP3    H219813   7.030   2.855   0.082
 6617TIP3   OH219814   2.367   4.445   0.140
 6617TIP3    H119815   2.343   4.385   0.211
 6617TIP3    H219816   2.387   4.388   0.066
 6618TIP3   OH219817   6.949   2.685   3.509
 6618TIP3    H119818   7.026   2.698   3.454
 6618TIP3    H219819   6.875   2.707   3.452
 6619TIP3   OH219820   1.851   0.381   4.526
 6619TIP3    H119821   1.799   0.429   4.591
 6619TIP3    H219822   1.938   0.420   4.532
 6620TIP3   OH219823   0.808   3.640   1.285
 6620TIP3    H119824   0.750   3.567   1.262
 6620TIP3    H219825   0.757   3.718   1.264
 6621TIP3   OH219826   0.554   5.897   3.626
 6621TIP3    H119827   0.532   5.989   3.609
 6621TIP3    H219828   0.520   5.880   3.714
 6622TIP3   OH219829   4.456   2.192   4.684
 6622TIP3    H119830   4.533   2.234   4.724
 6622TIP3    H219831   4.393   2.263   4.674
 6623TIP3   OH219832   2.783   4.221   0.916
 6623TIP3    H119833   2.802   4.220   0.822
 6623TIP3    H219834   2.710   4.161   0.927
 6624TIP3   OH219835   0.505   3.776   3.565
 6624TIP3    H119836   0.557   3.781   3.485
 6624TIP3    H219837   0.414   3.778   3.536
 6625TIP3   OH219838   5.532   6.349   0.215
 6625TIP3    H119839   5.577   6.432   0.194
 6625TIP3    H219840   5.440   6.374   0.224
 6626TIP3   OH219841   1.654   1.902   5.132
 6626TIP3    H119842   1.697   1.976   5.175
 6626TIP3    H219843   1.621   1.848   5.203
 6627TIP3   OH219844   0.145   4.249   2.993
 6627TIP3    H119845   0.075   4.191   2.963
 6627TIP3    H219846   0.109   4.290   3.072
 6628TIP3   OH219847   6.681   6.469   4.054
 6628TIP3    H119848   6.614   6.403   4.042
 6628TIP3    H219849   6.638   6.551   4.030
 6629TIP3   OH219850   1.621   5.093   5.546
 6629TIP3    H119851   1.571   5.173   5.534
 6629TIP3    H219852   1.579   5.030   5.486
 6630TIP3   OH219853   2.558   6.694   5.422
 6630TIP3    H119854   2.581   6.738   5.504
 6630TIP3    H219855   2.636   6.642   5.400
 6631TIP3   OH219856   0.557   5.812   0.142
 6631TIP3    H119857   0.638   5.835   0.188
 6631TIP3    H219858   0.501   5.890   0.152
 6632TIP3   OH219859   7.026   1.960   0.199
 6632TIP3    H119860   7.118   1.961   0.224
 6632TIP3    H219861   7.027   1.958   0.103
 6633TIP3   OH219862   5.177   4.159   0.556
 6633TIP3    H119863   5.184   4.255   0.555
 6633TIP3    H219864   5.240   4.130   0.621
 6634TIP3   OH219865   4.616   3.654   1.682
 6634TIP3    H119866   4.629   3.624   1.592
 6634TIP3    H219867   4.621   3.574   1.735
 6635TIP3   OH219868   5.684   1.368  -0.001
 6635TIP3    H119869   5.740   1.382   0.076
 6635TIP3    H219870   5.733   1.408  -0.073
 6636TIP3   OH219871   6.163   5.893   3.007
 6636TIP3    H119872   6.221   5.948   3.059
 6636TIP3    H219873   6.182   5.918   2.916
 6637TIP3   OH219874   6.142   4.050   0.732
 6637TIP3    H119875   6.057   4.088   0.709
 6637TIP3    H219876   6.169   4.004   0.652
 6638TIP3   OH219877   0.386   3.362   4.846
 6638TIP3    H119878   0.442   3.407   4.783
 6638TIP3    H219879   0.389   3.417   4.924
 6639TIP3   OH219880   1.661   0.078   3.786
 6639TIP3    H119881   1.642   0.069   3.693
 6639TIP3    H219882   1.618   0.160   3.811
 6640TIP3   OH219883   4.594   6.274   5.636
 6640TIP3    H119884   4.603   6.317   5.721
 6640TIP3    H219885   4.500   6.267   5.622
 6641TIP3   OH219886   5.806   4.531   5.722
 6641TIP3    H119887   5.874   4.536   5.790
 6641TIP3    H219888   5.847   4.568   5.644
 6642TIP3   OH219889   1.968   6.529   3.108
 6642TIP3    H119890   1.908   6.479   3.052
 6642TIP3    H219891   2.014   6.463   3.159
 6643TIP3   OH219892   6.005   4.461   1.741
 6643TIP3    H119893   5.938   4.425   1.798
 6643TIP3    H219894   5.991   4.418   1.657
 6644TIP3   OH219895   6.353   5.585   4.598
 6644TIP3    H119896   6.272   5.636   4.596
 6644TIP3    H219897   6.340   5.517   4.532
 6645TIP3   OH219898   2.897   5.157   4.188
 6645TIP3    H119899   2.809   5.160   4.149
 6645TIP3    H219900   2.934   5.074   4.157
 6646TIP3   OH219901   2.713   2.790   3.239
 6646TIP3    H119902   2.652   2.780   3.312
 6646TIP3    H219903   2.767   2.711   3.242
 6647TIP3   OH219904   6.162   5.649   5.626
 6647TIP3    H119905   6.159   5.738   5.591
 6647TIP3    H219906   6.254   5.635   5.649
 6648TIP3   OH219907   5.814   6.186   4.398
 6648TIP3    H119908   5.757   6.208   4.325
 6648TIP3    H219909   5.902   6.192   4.362
 6649TIP3   OH219910   6.741   2.504  -0.004
 6649TIP3    H119911   6.717   2.457   0.076
 6649TIP3    H219912   6.787   2.439  -0.057
 6650TIP3   OH219913   7.116   1.409   3.512
 6650TIP3    H119914   7.178   1.463   3.560
 6650TIP3    H219915   7.070   1.470   3.454
 6651TIP3   OH219916   2.230   6.207   4.883
 6651TIP3    H119917   2.213   6.123   4.926
 6651TIP3    H219918   2.167   6.267   4.924
 6652TIP3   OH219919   5.819   3.235   3.080
 6652TIP3    H119920   5.834   3.330   3.074
 6652TIP3    H219921   5.876   3.206   3.150
 6653TIP3   OH219922   6.417   2.265   0.594
 6653TIP3    H119923   6.391   2.357   0.583
 6653TIP3    H219924   6.391   2.223   0.512
 6654TIP3   OH219925   3.791   2.217   2.680
 6654TIP3    H119926   3.744   2.143   2.720
 6654TIP3    H219927   3.780   2.289   2.743
 6655TIP3   OH219928   1.559   0.994   1.084
 6655TIP3    H119929   1.480   1.010   1.033
 6655TIP3    H219930   1.612   1.073   1.071
 6656TIP3   OH219931   2.776   2.787   5.568
 6656TIP3    H119932   2.803   2.851   5.502
 6656TIP3    H219933   2.857   2.742   5.592
 6657TIP3   OH219934   1.712   2.344   1.716
 6657TIP3    H119935   1.746   2.298   1.638
 6657TIP3    H219936   1.662   2.417   1.680
 6658TIP3   OH219937   2.395   2.081   1.347
 6658TIP3    H119938   2.416   1.999   1.302
 6658TIP3    H219939   2.369   2.054   1.435
 6659TIP3   OH219940   4.384   2.062   3.576
 6659TIP3    H119941   4.446   2.130   3.604
 6659TIP3    H219942   4.439   1.989   3.548
 6660TIP3   OH219943   7.093   5.793   1.735
 6660TIP3    H119944   7.168   5.734   1.743
 6660TIP3    H219945   7.016   5.735   1.740
 6661TIP3   OH219946   3.621   6.602   5.842
 6661TIP3    H119947   3.652   6.689   5.819
 6661TIP3    H219948   3.566   6.576   5.768
 6662TIP3   OH219949   0.746   2.739   3.907
 6662TIP3    H119950   0.841   2.740   3.918
 6662TIP3    H219951   0.713   2.794   3.979
 6663TIP3   OH219952   6.636   2.492   4.096
 6663TIP3    H119953   6.555   2.544   4.093
 6663TIP3    H219954   6.617   2.422   4.158
 6664TIP3   OH219955   1.070   3.271   1.973
 6664TIP3    H119956   0.998   3.213   1.998
 6664TIP3    H219957   1.149   3.217   1.985
 6665TIP3   OH219958   7.002   2.957   1.466
 6665TIP3    H119959   7.014   2.957   1.371
 6665TIP3    H219960   7.081   3.000   1.500
 6666TIP3   OH219961   6.934   5.720   0.350
 6666TIP3    H119962   6.864   5.668   0.312
 6666TIP3    H219963   7.002   5.723   0.282
 6667TIP3   OH219964   2.261   0.597   4.864
 6667TIP3    H119965   2.299   0.656   4.799
 6667TIP3    H219966   2.236   0.655   4.937
 6668TIP3   OH219967   7.024   2.021   1.182
 6668TIP3    H119968   7.095   2.033   1.119
 6668TIP3    H219969   6.952   1.986   1.130
 6669TIP3   OH219970   3.976   1.892   4.941
 6669TIP3    H119971   4.030   1.930   4.871
 6669TIP3    H219972   3.979   1.798   4.924
 6670TIP3   OH219973   0.987   3.311   1.601
 6670TIP3    H119974   1.069   3.326   1.648
 6670TIP3    H219975   1.014   3.269   1.519
 6671TIP3   OH219976   3.850   6.495   3.900
 6671TIP3    H119977   3.795   6.573   3.902
 6671TIP3    H219978   3.789   6.422   3.907
 6672TIP3   OH219979   4.461   4.886   1.948
 6672TIP3    H119980   4.411   4.967   1.954
 6672TIP3    H219981   4.492   4.884   1.858
 6673TIP3   OH219982   2.240   4.446   1.955
 6673TIP3    H119983   2.191   4.392   1.892
 6673TIP3    H219984   2.295   4.384   2.002
 6674TIP3   OH219985   1.123   1.339   1.125
 6674TIP3    H119986   1.076   1.364   1.046
 6674TIP3    H219987   1.152   1.422   1.163
 6675TIP3   OH219988   1.281   3.656   2.047
 6675TIP3    H119989   1.375   3.668   2.064
 6675TIP3    H219990   1.246   3.745   2.045
 6676TIP3   OH219991   3.764   2.937   4.227
 6676TIP3    H119992   3.802   2.924   4.140
 6676TIP3    H219993   3.828   2.990   4.274
 6677TIP3   OH219994   5.218   6.708   4.969
 6677TIP3    H119995   5.175   6.702   4.884
 6677TIP3    H219996   5.145   6.706   5.032
 6678TIP3   OH219997   3.402   4.860   1.995
 6678TIP3    H119998   3.386   4.767   1.984
 6678TIP3    H219999   3.340   4.903   1.936
 6679TIP3   OH220000   7.147   4.246   1.228
 6679TIP3    H120001   7.242   4.236   1.238
 6679TIP3    H220002   7.111   4.210   1.309
 6680TIP3   OH220003   1.259   2.190   3.737
 6680TIP3    H120004   1.279   2.107   3.780
 6680TIP3    H220005   1.297   2.256   3.794
 6681TIP3   OH220006   0.977   1.984   2.964
 6681TIP3    H120007   0.882   1.973   2.953
 6681TIP3    H220008   1.012   1.895   2.966
 6682TIP3   OH220009   3.802   6.792   5.377
 6682TIP3    H120010   3.833   6.835   5.457
 6682TIP3    H220011   3.729   6.738   5.406
 6683TIP3   OH220012   6.181   6.508   4.209
 6683TIP3    H120013   6.202   6.545   4.123
 6683TIP3    H220014   6.266   6.484   4.246
 6684TIP3   OH220015   1.782   5.971   4.207
 6684TIP3    H120016   1.855   5.967   4.268
 6684TIP3    H220017   1.799   6.050   4.154
 6685TIP3   OH220018   0.086   2.046   4.634
 6685TIP3    H120019   0.047   2.131   4.614
 6685TIP3    H220020   0.012   1.986   4.638
 6686TIP3   OH220021   1.555   0.543   5.764
 6686TIP3    H120022   1.608   0.622   5.760
 6686TIP3    H220023   1.584   0.490   5.690
 6687TIP3   OH220024   2.698   5.381   3.274
 6687TIP3    H120025   2.603   5.390   3.280
 6687TIP3    H220026   2.729   5.467   3.245
 6688TIP3   OH220027   4.831   1.237   3.266
 6688TIP3    H120028   4.919   1.207   3.243
 6688TIP3    H220029   4.796   1.167   3.321
 6689TIP3   OH220030   3.149   3.000   0.326
 6689TIP3    H120031   3.094   2.974   0.252
 6689TIP3    H220032   3.234   2.960   0.310
 6690TIP3   OH220033   3.520   6.843   0.570
 6690TIP3    H120034   3.579   6.856   0.643
 6690TIP3    H220035   3.535   6.753   0.543
 6691TIP3   OH220036   2.628   3.167   5.275
 6691TIP3    H120037   2.689   3.096   5.296
 6691TIP3    H220038   2.542   3.125   5.270
 6692TIP3   OH220039   3.276   2.626   2.229
 6692TIP3    H120040   3.254   2.599   2.140
 6692TIP3    H220041   3.301   2.718   2.221
 6693TIP3   OH220042   3.007   0.565   1.460
 6693TIP3    H120043   3.075   0.548   1.394
 6693TIP3    H220044   2.994   0.660   1.457
 6694TIP3   OH220045   3.636   1.480   1.063
 6694TIP3    H120046   3.720   1.444   1.035
 6694TIP3    H220047   3.643   1.574   1.046
 6695TIP3   OH220048   6.507   3.033   1.707
 6695TIP3    H120049   6.493   3.050   1.800
 6695TIP3    H220050   6.566   3.102   1.677
 6696TIP3   OH220051   4.480   5.457   1.788
 6696TIP3    H120052   4.428   5.473   1.867
 6696TIP3    H220053   4.567   5.432   1.821
 6697TIP3   OH220054   0.314   0.421   3.741
 6697TIP3    H120055   0.339   0.504   3.780
 6697TIP3    H220056   0.232   0.441   3.695
 6698TIP3   OH220057   4.256   1.458   4.194
 6698TIP3    H120058   4.242   1.367   4.170
 6698TIP3    H220059   4.202   1.471   4.272
 6699TIP3   OH220060   2.326   1.616   1.359
 6699TIP3    H120061   2.316   1.555   1.286
 6699TIP3    H220062   2.292   1.568   1.435
 6700TIP3   OH220063   0.777   3.034   4.499
 6700TIP3    H120064   0.725   2.955   4.487
 6700TIP3    H220065   0.751   3.068   4.585
 6701TIP3   OH220066   3.362   0.773   1.561
 6701TIP3    H120067   3.391   0.791   1.471
 6701TIP3    H220068   3.433   0.723   1.600
 6702TIP3   OH220069   1.154   6.173   0.663
 6702TIP3    H120070   1.107   6.253   0.683
 6702TIP3    H220071   1.091   6.103   0.678
 6703TIP3   OH220072   5.243   2.666   3.651
 6703TIP3    H120073   5.221   2.675   3.744
 6703TIP3    H220074   5.179   2.721   3.605
 6704TIP3   OH220075   3.182   0.312   1.457
 6704TIP3    H120076   3.222   0.344   1.538
 6704TIP3    H220077   3.185   0.216   1.466
 6705TIP3   OH220078   7.166   6.763   3.754
 6705TIP3    H120079   7.123   6.847   3.772
 6705TIP3    H220080   7.139   6.707   3.827
 6706TIP3   OH220081   5.825   2.410   3.745
 6706TIP3    H120082   5.813   2.405   3.650
 6706TIP3    H220083   5.740   2.388   3.781
 6707TIP3   OH220084   6.658   6.772   5.739
 6707TIP3    H120085   6.670   6.722   5.659
 6707TIP3    H220086   6.740   6.818   5.752
 6708TIP3   OH220087   0.306   6.383   2.266
 6708TIP3    H120088   0.269   6.371   2.354
 6708TIP3    H220089   0.401   6.377   2.279
 6709TIP3   OH220090   6.283   3.838   2.825
 6709TIP3    H120091   6.297   3.773   2.894
 6709TIP3    H220092   6.189   3.853   2.824
 6710TIP3   OH220093   3.086   3.604   2.357
 6710TIP3    H120094   3.052   3.556   2.432
 6710TIP3    H220095   3.170   3.638   2.386
 6711TIP3   OH220096   0.494   3.734   1.461
 6711TIP3    H120097   0.565   3.680   1.494
 6711TIP3    H220098   0.536   3.795   1.400
 6712TIP3   OH220099   6.093   2.665   4.101
 6712TIP3    H120100   6.078   2.756   4.128
 6712TIP3    H220101   6.021   2.645   4.041
 6713TIP3   OH220102   1.161   5.485   2.578
 6713TIP3    H120103   1.252   5.455   2.572
 6713TIP3    H220104   1.152   5.548   2.507
 6714TIP3   OH220105   3.555   2.962   2.825
 6714TIP3    H120106   3.481   3.011   2.858
 6714TIP3    H220107   3.588   3.015   2.752
 6715TIP3   OH220108   5.099   3.434   1.009
 6715TIP3    H120109   5.152   3.359   0.981
 6715TIP3    H220110   5.011   3.400   1.017
 6716TIP3   OH220111   5.729   0.758   5.627
 6716TIP3    H120112   5.676   0.703   5.568
 6716TIP3    H220113   5.688   0.845   5.621
 6717TIP3   OH220114   3.174   6.011   5.028
 6717TIP3    H120115   3.121   6.052   4.960
 6717TIP3    H220116   3.237   6.079   5.053
 6718TIP3   OH220117   1.396   1.198   2.216
 6718TIP3    H120118   1.415   1.105   2.230
 6718TIP3    H220119   1.347   1.201   2.134
 6719TIP3   OH220120   2.525   0.910   5.658
 6719TIP3    H120121   2.531   0.949   5.745
 6719TIP3    H220122   2.613   0.921   5.621
 6720TIP3   OH220123   5.204   6.065   0.426
 6720TIP3    H120124   5.183   6.110   0.345
 6720TIP3    H220125   5.275   6.117   0.465
 6721TIP3   OH220126   0.657   1.355   2.211
 6721TIP3    H120127   0.605   1.317   2.139
 6721TIP3    H220128   0.668   1.283   2.273
 6722TIP3   OH220129   1.926   2.717   5.241
 6722TIP3    H120130   1.973   2.679   5.315
 6722TIP3    H220131   1.834   2.717   5.268
 6723TIP3   OH220132   1.443   6.308   4.335
 6723TIP3    H120133   1.434   6.329   4.428
 6723TIP3    H220134   1.384   6.369   4.291
 6724TIP3   OH220135   5.304   2.924   2.620
 6724TIP3    H120136   5.215   2.901   2.593
 6724TIP3    H220137   5.331   2.992   2.559
 6725TIP3   OH220138   2.322   1.423   1.801
 6725TIP3    H120139   2.366   1.418   1.885
 6725TIP3    H220140   2.347   1.509   1.765
 6726TIP3   OH220141   3.902   5.285   0.148
 6726TIP3    H120142   3.859   5.345   0.208
 6726TIP3    H220143   3.980   5.255   0.195
 6727TIP3   OH220144   2.904   0.355   0.263
 6727TIP3    H120145   2.929   0.342   0.172
 6727TIP3    H220146   2.988   0.360   0.310
 6728TIP3   OH220147   3.753   6.336   4.809
 6728TIP3    H120148   3.735   6.343   4.715
 6728TIP3    H220149   3.847   6.319   4.815
 6729TIP3   OH220150   6.258   0.793   3.657
 6729TIP3    H120151   6.319   0.735   3.612
 6729TIP3    H220152   6.289   0.881   3.635
 6730TIP3   OH220153   6.723   2.219   0.474
 6730TIP3    H120154   6.674   2.283   0.421
 6730TIP3    H220155   6.696   2.134   0.439
 6731TIP3   OH220156   1.595   0.164   0.924
 6731TIP3    H120157   1.659   0.099   0.953
 6731TIP3    H220158   1.562   0.131   0.841
 6732TIP3   OH220159   4.072   6.661   5.020
 6732TIP3    H120160   4.016   6.613   5.081
 6732TIP3    H220161   4.020   6.738   4.996
 6733TIP3   OH220162   1.701   3.015   0.902
 6733TIP3    H120163   1.751   3.034   0.823
 6733TIP3    H220164   1.712   2.920   0.915
 6734TIP3   OH220165   6.866   2.519   1.464
 6734TIP3    H120166   6.933   2.586   1.477
 6734TIP3    H220167   6.910   2.449   1.416
 6735TIP3   OH220168   3.539   6.743   1.382
 6735TIP3    H120169   3.468   6.681   1.364
 6735TIP3    H220170   3.602   6.727   1.312
 6736TIP3   OH220171   0.792   5.571   4.948
 6736TIP3    H120172   0.763   5.495   4.898
 6736TIP3    H220173   0.837   5.534   5.024
 6737TIP3   OH220174   1.377   6.249   3.686
 6737TIP3    H120175   1.351   6.303   3.760
 6737TIP3    H220176   1.425   6.176   3.725
 6738TIP3   OH220177   2.038   4.708   5.129
 6738TIP3    H120178   2.099   4.751   5.068
 6738TIP3    H220179   1.952   4.721   5.089
 6739TIP3   OH220180   5.629   4.171   3.012
 6739TIP3    H120181   5.621   4.160   3.107
 6739TIP3    H220182   5.569   4.243   2.991
 6740TIP3   OH220183   3.929   2.145   2.446
 6740TIP3    H120184   3.873   2.169   2.371
 6740TIP3    H220185   3.875   2.164   2.523
 6741TIP3   OH220186   5.524   2.563   5.789
 6741TIP3    H120187   5.464   2.573   5.863
 6741TIP3    H220188   5.493   2.628   5.725
 6742TIP3   OH220189   2.281   2.280   3.305
 6742TIP3    H120190   2.358   2.247   3.351
 6742TIP3    H220191   2.259   2.212   3.242
 6743TIP3   OH220192   5.056   4.396   4.938
 6743TIP3    H120193   5.104   4.404   4.856
 6743TIP3    H220194   5.122   4.366   5.001
 6744TIP3   OH220195   2.055   1.958   2.531
 6744TIP3    H120196   2.080   1.996   2.615
 6744TIP3    H220197   2.049   2.034   2.471
 6745TIP3   OH220198   2.489   6.760   0.241
 6745TIP3    H120199   2.457   6.783   0.154
 6745TIP3    H220200   2.476   6.839   0.293
 6746TIP3   OH220201   3.749   3.010   5.630
 6746TIP3    H120202   3.731   3.001   5.537
 6746TIP3    H220203   3.747   3.105   5.646
 6747TIP3   OH220204   0.004   2.365   3.440
 6747TIP3    H120205  -0.037   2.298   3.495
 6747TIP3    H220206   0.085   2.325   3.409
 6748TIP3   OH220207   6.901   0.324   4.323
 6748TIP3    H120208   6.824   0.330   4.380
 6748TIP3    H220209   6.905   0.232   4.298
 6749TIP3   OH220210   1.150   2.175   4.908
 6749TIP3    H120211   1.182   2.166   4.819
 6749TIP3    H220212   1.153   2.087   4.944
 6750TIP3   OH220213   5.838   0.184   1.248
 6750TIP3    H120214   5.745   0.201   1.236
 6750TIP3    H220215   5.842   0.099   1.293
 6751TIP3   OH220216   5.505   4.916   4.529
 6751TIP3    H120217   5.573   4.920   4.597
 6751TIP3    H220218   5.544   4.959   4.453
 6752TIP3   OH220219   3.204   0.202   3.938
 6752TIP3    H120220   3.228   0.293   3.956
 6752TIP3    H220221   3.116   0.208   3.900
 6753TIP3   OH220222   6.484   4.713   2.142
 6753TIP3    H120223   6.527   4.652   2.083
 6753TIP3    H220224   6.532   4.796   2.130
 6754TIP3   OH220225   5.607   5.735   4.009
 6754TIP3    H120226   5.551   5.704   4.079
 6754TIP3    H220227   5.552   5.731   3.930
 6755TIP3   OH220228   6.697   6.441   3.000
 6755TIP3    H120229   6.613   6.409   2.967
 6755TIP3    H220230   6.751   6.362   3.008
 6756TIP3   OH220231   5.262   3.634   5.010
 6756TIP3    H120232   5.226   3.568   4.951
 6756TIP3    H220233   5.189   3.692   5.029
 6757TIP3   OH220234   4.355   3.091   3.159
 6757TIP3    H120235   4.374   3.185   3.157
 6757TIP3    H220236   4.334   3.073   3.251
 6758TIP3   OH220237   2.483   4.493   2.347
 6758TIP3    H120238   2.446   4.500   2.260
 6758TIP3    H220239   2.422   4.437   2.395
 6759TIP3   OH220240   5.956   6.463   4.689
 6759TIP3    H120241   6.048   6.473   4.666
 6759TIP3    H220242   5.909   6.472   4.607
 6760TIP3   OH220243   0.451   6.500   5.067
 6760TIP3    H120244   0.450   6.583   5.020
 6760TIP3    H220245   0.374   6.502   5.123
 6761TIP3   OH220246   6.978   6.650   4.359
 6761TIP3    H120247   6.943   6.562   4.372
 6761TIP3    H220248   6.944   6.678   4.274
 6762TIP3   OH220249   4.005   3.005   0.504
 6762TIP3    H120250   3.909   3.011   0.501
 6762TIP3    H220251   4.032   2.999   0.413
 6763TIP3   OH220252   1.681   2.886   2.013
 6763TIP3    H120253   1.598   2.895   1.965
 6763TIP3    H220254   1.658   2.908   2.103
 6764TIP3   OH220255   6.290   2.845   4.855
 6764TIP3    H120256   6.295   2.783   4.928
 6764TIP3    H220257   6.321   2.928   4.892
 6765TIP3   OH220258   5.240   1.579   0.065
 6765TIP3    H120259   5.325   1.580   0.021
 6765TIP3    H220260   5.206   1.491   0.050
 6766TIP3   OH220261   7.105   5.537   1.846
 6766TIP3    H120262   7.099   5.510   1.937
 6766TIP3    H220263   7.015   5.550   1.818
 6767TIP3   OH220264   2.004   3.450   5.205
 6767TIP3    H120265   2.090   3.438   5.244
 6767TIP3    H220266   2.021   3.478   5.115
 6768TIP3   OH220267   3.866   2.360   3.325
 6768TIP3    H120268   3.917   2.441   3.317
 6768TIP3    H220269   3.892   2.308   3.249
 6769TIP3   OH220270   5.377   1.348   2.181
 6769TIP3    H120271   5.458   1.395   2.161
 6769TIP3    H220272   5.406   1.266   2.222
 6770TIP3   OH220273   5.773   3.947   1.108
 6770TIP3    H120274   5.699   4.008   1.111
 6770TIP3    H220275   5.824   3.975   1.032
 6771TIP3   OH220276   2.679   2.319   2.064
 6771TIP3    H120277   2.765   2.293   2.032
 6771TIP3    H220278   2.697   2.363   2.147
 6772TIP3   OH220279   2.229   5.141   1.912
 6772TIP3    H120280   2.319   5.171   1.919
 6772TIP3    H220281   2.212   5.137   1.818
 6773TIP3   OH220282   1.624   2.728   4.451
 6773TIP3    H120283   1.643   2.797   4.515
 6773TIP3    H220284   1.650   2.765   4.367
 6774TIP3   OH220285   5.784   2.382   5.641
 6774TIP3    H120286   5.762   2.476   5.636
 6774TIP3    H220287   5.708   2.342   5.683
 6775TIP3   OH220288   6.642   1.600   2.015
 6775TIP3    H120289   6.636   1.674   1.955
 6775TIP3    H220290   6.655   1.639   2.101
 6776TIP3   OH220291   6.518   5.187   0.032
 6776TIP3    H120292   6.508   5.168   0.125
 6776TIP3    H220293   6.502   5.103  -0.012
 6777TIP3   OH220294   1.912   4.483   1.452
 6777TIP3    H120295   2.004   4.505   1.437
 6777TIP3    H220296   1.894   4.515   1.540
 6778TIP3   OH220297   3.459   5.419   5.633
 6778TIP3    H120298   3.550   5.426   5.606
 6778TIP3    H220299   3.450   5.483   5.704
 6779TIP3   OH220300   3.674   3.387   5.876
 6779TIP3    H120301   3.678   3.483   5.880
 6779TIP3    H220302   3.655   3.368   5.784
 6780TIP3   OH220303   0.383   1.827   4.601
 6780TIP3    H120304   0.360   1.891   4.535
 6780TIP3    H220305   0.300   1.790   4.630
 6781TIP3   OH220306   5.179   3.022   4.184
 6781TIP3    H120307   5.220   2.978   4.109
 6781TIP3    H220308   5.250   3.029   4.248
 6782TIP3   OH220309   5.597   3.489   0.357
 6782TIP3    H120310   5.646   3.559   0.400
 6782TIP3    H220311   5.623   3.410   0.403
 6783TIP3   OH220312   1.004   6.019   2.805
 6783TIP3    H120313   0.988   6.094   2.747
 6783TIP3    H220314   1.068   6.052   2.869
 6784TIP3   OH220315   6.362   4.592   3.381
 6784TIP3    H120316   6.345   4.666   3.439
 6784TIP3    H220317   6.429   4.541   3.427
 6785TIP3   OH220318   4.193   3.336   1.097
 6785TIP3    H120319   4.153   3.277   1.032
 6785TIP3    H220320   4.125   3.400   1.116
 6786TIP3   OH220321   3.158   3.448   1.588
 6786TIP3    H120322   3.142   3.542   1.597
 6786TIP3    H220323   3.082   3.406   1.630
 6787TIP3   OH220324   5.150   2.167   4.081
 6787TIP3    H120325   5.175   2.212   4.001
 6787TIP3    H220326   5.181   2.224   4.152
 6788TIP3   OH220327   6.990   5.130   4.541
 6788TIP3    H120328   7.041   5.211   4.547
 6788TIP3    H220329   7.041   5.066   4.592
 6789TIP3   OH220330   3.723   3.252   0.894
 6789TIP3    H120331   3.744   3.340   0.863
 6789TIP3    H220332   3.632   3.258   0.922
 6790TIP3   OH220333   4.827   0.357   4.203
 6790TIP3    H120334   4.893   0.426   4.209
 6790TIP3    H220335   4.810   0.333   4.294
 6791TIP3   OH220336   5.777   1.977   5.054
 6791TIP3    H120337   5.804   2.024   5.132
 6791TIP3    H220338   5.754   1.889   5.085
 6792TIP3   OH220339   6.299   5.336   3.755
 6792TIP3    H120340   6.260   5.285   3.827
 6792TIP3    H220341   6.253   5.420   3.758
 6793TIP3   OH220342   3.908   6.488   1.082
 6793TIP3    H120343   3.990   6.534   1.101
 6793TIP3    H220344   3.890   6.509   0.990
 6794TIP3   OH220345   6.207   4.278   0.155
 6794TIP3    H120346   6.199   4.363   0.197
 6794TIP3    H220347   6.278   4.235   0.202
 6795TIP3   OH220348   3.448   0.077   3.899
 6795TIP3    H120349   3.360   0.111   3.913
 6795TIP3    H220350   3.456   0.003   3.958
 6796TIP3   OH220351   5.894   1.399   0.531
 6796TIP3    H120352   5.978   1.438   0.509
 6796TIP3    H220353   5.910   1.305   0.533
 6797TIP3   OH220354   0.264   5.159   5.487
 6797TIP3    H120355   0.216   5.077   5.485
 6797TIP3    H220356   0.303   5.161   5.575
 6798TIP3   OH220357   5.719   4.048   2.182
 6798TIP3    H120358   5.754   4.037   2.271
 6798TIP3    H220359   5.785   4.010   2.125
 6799TIP3   OH220360   1.208   2.935   5.087
 6799TIP3    H120361   1.124   2.950   5.132
 6799TIP3    H220362   1.248   2.863   5.136
 6800TIP3   OH220363   6.219   4.341   4.689
 6800TIP3    H120364   6.184   4.430   4.701
 6800TIP3    H220365   6.312   4.354   4.671
 6801TIP3   OH220366   2.038   6.761   2.107
 6801TIP3    H120367   2.078   6.674   2.099
 6801TIP3    H220368   2.028   6.774   2.202
 6802TIP3   OH220369   1.137   5.367   3.855
 6802TIP3    H120370   1.215   5.322   3.823
 6802TIP3    H220371   1.074   5.362   3.783
 6803TIP3   OH220372   0.549   2.203   5.894
 6803TIP3    H120373   0.483   2.268   5.869
 6803TIP3    H220374   0.500   2.122   5.906
 6804TIP3   OH220375   2.247   2.968   1.025
 6804TIP3    H120376   2.250   2.923   1.109
 6804TIP3    H220377   2.154   2.969   1.001
 6805TIP3   OH220378   6.786   6.443   5.865
 6805TIP3    H120379   6.787   6.369   5.926
 6805TIP3    H220380   6.757   6.405   5.782
 6806TIP3   OH220381   1.484   3.905   2.965
 6806TIP3    H120382   1.568   3.894   3.009
 6806TIP3    H220383   1.420   3.910   3.036
 6807TIP3   OH220384   4.811   2.993   1.763
 6807TIP3    H120385   4.732   3.024   1.718
 6807TIP3    H220386   4.867   3.070   1.770
 6808TIP3   OH220387   2.748   1.904   0.052
 6808TIP3    H120388   2.708   1.912  -0.035
 6808TIP3    H220389   2.795   1.986   0.065
 6809TIP3   OH220390   7.089   4.068   4.817
 6809TIP3    H120391   7.011   4.090   4.868
 6809TIP3    H220392   7.103   4.145   4.761
 6810TIP3   OH220393   6.034   2.072   1.979
 6810TIP3    H120394   5.988   1.988   1.985
 6810TIP3    H220395   6.051   2.097   2.070
 6811TIP3   OH220396   5.267   5.595   2.038
 6811TIP3    H120397   5.303   5.543   2.110
 6811TIP3    H220398   5.204   5.653   2.080
 6812TIP3   OH220399   6.054   1.738   4.361
 6812TIP3    H120400   6.023   1.780   4.442
 6812TIP3    H220401   6.030   1.800   4.292
 6813TIP3   OH220402   5.325   6.567   5.928
 6813TIP3    H120403   5.264   6.571   5.855
 6813TIP3    H220404   5.348   6.475   5.934
 6814TIP3   OH220405   5.352   3.091   0.424
 6814TIP3    H120406   5.270   3.137   0.402
 6814TIP3    H220407   5.399   3.088   0.341
 6815TIP3   OH220408   1.869   3.750   4.871
 6815TIP3    H120409   1.862   3.668   4.920
 6815TIP3    H220410   1.786   3.757   4.824
 6816TIP3   OH220411   3.747   2.846   3.954
 6816TIP3    H120412   3.814   2.864   3.888
 6816TIP3    H220413   3.736   2.751   3.952
 6817TIP3   OH220414   1.279   2.667   3.045
 6817TIP3    H120415   1.239   2.651   3.131
 6817TIP3    H220416   1.371   2.687   3.065
 6818TIP3   OH220417   2.214   0.212   0.420
 6818TIP3    H120418   2.129   0.181   0.449
 6818TIP3    H220419   2.238   0.154   0.348
 6819TIP3   OH220420   0.234   2.637   0.351
 6819TIP3    H120421   0.196   2.713   0.306
 6819TIP3    H220422   0.302   2.606   0.291
 6820TIP3   OH220423   0.450   4.274   5.188
 6820TIP3    H120424   0.477   4.209   5.123
 6820TIP3    H220425   0.385   4.229   5.241
 6821TIP3   OH220426   0.015   5.826   3.356
 6821TIP3    H120427   0.108   5.825   3.335
 6821TIP3    H220428  -0.005   5.736   3.381
 6822TIP3   OH220429   6.664   5.585   0.730
 6822TIP3    H120430   6.724   5.576   0.656
 6822TIP3    H220431   6.704   5.534   0.800
 6823TIP3   OH220432   0.622   1.324   0.131
 6823TIP3    H120433   0.579   1.408   0.109
 6823TIP3    H220434   0.679   1.345   0.204
 6824TIP3   OH220435   0.459   6.326   0.243
 6824TIP3    H120436   0.486   6.399   0.187
 6824TIP3    H220437   0.525   6.321   0.311
 6825TIP3   OH220438   2.738   1.416   2.308
 6825TIP3    H120439   2.703   1.327   2.311
 6825TIP3    H220440   2.747   1.435   2.214
 6826TIP3   OH220441   4.885   4.015   3.241
 6826TIP3    H120442   4.976   3.993   3.222
 6826TIP3    H220443   4.878   4.012   3.337
 6827TIP3   OH220444   2.521   1.006   0.008
 6827TIP3    H120445   2.428   1.026   0.009
 6827TIP3    H220446   2.561   1.073   0.064
 6828TIP3   OH220447   5.264   0.388   0.735
 6828TIP3    H120448   5.270   0.472   0.781
 6828TIP3    H220449   5.177   0.389   0.695
 6829TIP3   OH220450   2.419   2.753   5.254
 6829TIP3    H120451   2.447   2.844   5.253
 6829TIP3    H220452   2.408   2.732   5.347
 6830TIP3   OH220453   5.661   4.716   4.056
 6830TIP3    H120454   5.644   4.799   4.100
 6830TIP3    H220455   5.630   4.649   4.117
 6831TIP3   OH220456   0.961   6.426   4.494
 6831TIP3    H120457   1.001   6.503   4.454
 6831TIP3    H220458   0.946   6.451   4.585
 6832TIP3   OH220459   6.739   6.489   1.974
 6832TIP3    H120460   6.646   6.506   1.981
 6832TIP3    H220461   6.775   6.564   1.926
 6833TIP3   OH220462   4.990   0.516   1.110
 6833TIP3    H120463   5.048   0.522   1.034
 6833TIP3    H220464   4.983   0.422   1.127
 6834TIP3   OH220465   2.277   4.830   4.984
 6834TIP3    H120466   2.247   4.913   4.949
 6834TIP3    H220467   2.366   4.848   5.015
 6835TIP3   OH220468   0.737   6.128   4.142
 6835TIP3    H120469   0.717   6.176   4.222
 6835TIP3    H220470   0.663   6.067   4.132
 6836TIP3   OH220471   3.041   2.126   4.545
 6836TIP3    H120472   2.982   2.099   4.475
 6836TIP3    H220473   2.987   2.127   4.624
 6837TIP3   OH220474   2.055   1.940   0.657
 6837TIP3    H120475   1.971   1.974   0.627
 6837TIP3    H220476   2.060   1.965   0.749
 6838TIP3   OH220477   1.962   0.872   3.461
 6838TIP3    H120478   1.971   0.967   3.451
 6838TIP3    H220479   1.979   0.836   3.374
 6839TIP3   OH220480   6.645   1.206   0.119
 6839TIP3    H120481   6.605   1.288   0.146
 6839TIP3    H220482   6.723   1.232   0.070
 6840TIP3   OH220483   3.801   5.057   3.069
 6840TIP3    H120484   3.776   5.064   3.161
 6840TIP3    H220485   3.882   5.107   3.062
 6841TIP3   OH220486   6.455   1.506   1.225
 6841TIP3    H120487   6.442   1.575   1.290
 6841TIP3    H220488   6.404   1.432   1.259
 6842TIP3   OH220489   0.099   2.394   3.769
 6842TIP3    H120490   0.024   2.449   3.745
 6842TIP3    H220491   0.174   2.453   3.762
 6843TIP3   OH220492   4.166   0.856   4.454
 6843TIP3    H120493   4.085   0.868   4.404
 6843TIP3    H220494   4.136   0.849   4.545
 6844TIP3   OH220495   5.758   5.628   2.616
 6844TIP3    H120496   5.723   5.539   2.609
 6844TIP3    H220497   5.743   5.653   2.708
 6845TIP3   OH220498   6.289   6.172   4.007
 6845TIP3    H120499   6.236   6.096   3.984
 6845TIP3    H220500   6.346   6.142   4.077
 6846TIP3   OH220501   1.007   0.499   2.401
 6846TIP3    H120502   1.046   0.568   2.455
 6846TIP3    H220503   0.966   0.439   2.464
 6847TIP3   OH220504   4.902   1.294   5.313
 6847TIP3    H120505   4.920   1.212   5.268
 6847TIP3    H220506   4.856   1.268   5.393
 6848TIP3   OH220507   6.177   2.974   1.826
 6848TIP3    H120508   6.229   3.035   1.879
 6848TIP3    H220509   6.240   2.912   1.791
 6849TIP3   OH220510   0.717   0.702   2.438
 6849TIP3    H120511   0.708   0.778   2.496
 6849TIP3    H220512   0.628   0.667   2.430
 6850TIP3   OH220513   1.577   0.559   2.104
 6850TIP3    H120514   1.606   0.645   2.073
 6850TIP3    H220515   1.657   0.515   2.134
 6851TIP3   OH220516   7.100   4.827   3.974
 6851TIP3    H120517   7.025   4.778   4.008
 6851TIP3    H220518   7.062   4.888   3.911
 6852TIP3   OH220519   5.914   5.592   0.358
 6852TIP3    H120520   5.984   5.593   0.293
 6852TIP3    H220521   5.850   5.656   0.326
 6853TIP3   OH220522   5.379   2.099   3.778
 6853TIP3    H120523   5.354   2.045   3.703
 6853TIP3    H220524   5.345   2.187   3.757
 6854TIP3   OH220525   4.293   0.878   3.156
 6854TIP3    H120526   4.306   0.784   3.158
 6854TIP3    H220527   4.205   0.891   3.191
 6855TIP3   OH220528   3.976   0.450   0.994
 6855TIP3    H120529   3.915   0.377   1.008
 6855TIP3    H220530   4.010   0.437   0.906
 6856TIP3   OH220531   0.667   5.359   5.762
 6856TIP3    H120532   0.658   5.348   5.857
 6856TIP3    H220533   0.577   5.360   5.729
 6857TIP3   OH220534   6.499   1.062   4.162
 6857TIP3    H120535   6.567   1.056   4.228
 6857TIP3    H220536   6.450   0.980   4.171
 6858TIP3   OH220537   3.187   1.873   2.320
 6858TIP3    H120538   3.142   1.832   2.394
 6858TIP3    H220539   3.182   1.967   2.337
 6859TIP3   OH220540   4.423   3.905   5.768
 6859TIP3    H120541   4.441   3.811   5.767
 6859TIP3    H220542   4.358   3.915   5.838
 6860TIP3   OH220543   5.914   4.874   5.665
 6860TIP3    H120544   5.996   4.857   5.711
 6860TIP3    H220545   5.939   4.878   5.573
 6861TIP3   OH220546   3.624   5.923   3.177
 6861TIP3    H120547   3.661   5.911   3.264
 6861TIP3    H220548   3.645   5.842   3.131
 6862TIP3   OH220549   2.576   4.803   3.327
 6862TIP3    H120550   2.535   4.731   3.375
 6862TIP3    H220551   2.646   4.834   3.384
 6863TIP3   OH220552   2.538   6.387   4.098
 6863TIP3    H120553   2.501   6.469   4.066
 6863TIP3    H220554   2.549   6.401   4.192
 6864TIP3   OH220555   0.679   6.545   1.286
 6864TIP3    H120556   0.679   6.513   1.195
 6864TIP3    H220557   0.758   6.599   1.292
 6865TIP3   OH220558   1.051   4.819   0.721
 6865TIP3    H120559   0.967   4.855   0.751
 6865TIP3    H220560   1.099   4.800   0.802
 6866TIP3   OH220561   1.858   2.754   0.244
 6866TIP3    H120562   1.900   2.818   0.187
 6866TIP3    H220563   1.919   2.743   0.317
 6867TIP3   OH220564   0.695   2.869   2.648
 6867TIP3    H120565   0.692   2.950   2.698
 6867TIP3    H220566   0.785   2.837   2.660
 6868TIP3   OH220567   1.079   5.100   1.528
 6868TIP3    H120568   1.151   5.123   1.469
 6868TIP3    H220569   1.039   5.184   1.551
 6869TIP3   OH220570   6.693   4.725   1.077
 6869TIP3    H120571   6.598   4.734   1.075
 6869TIP3    H220572   6.717   4.744   1.168
 6870TIP3   OH220573   2.209   5.247   1.193
 6870TIP3    H120574   2.252   5.288   1.118
 6870TIP3    H220575   2.139   5.308   1.217
 6871TIP3   OH220576   1.719   6.651   5.030
 6871TIP3    H120577   1.697   6.739   5.062
 6871TIP3    H220578   1.791   6.666   4.969
 6872TIP3   OH220579   5.434   3.031   1.775
 6872TIP3    H120580   5.488   2.971   1.828
 6872TIP3    H220581   5.496   3.097   1.745
 6873TIP3   OH220582   6.992   5.990   1.163
 6873TIP3    H120583   7.000   5.901   1.199
 6873TIP3    H220584   7.065   5.998   1.103
 6874TIP3   OH220585   3.086   2.014   2.762
 6874TIP3    H120586   3.079   1.955   2.837
 6874TIP3    H220587   3.180   2.029   2.751
 6875TIP3   OH220588   5.945   2.606   0.613
 6875TIP3    H120589   5.921   2.606   0.521
 6875TIP3    H220590   5.991   2.689   0.627
 6876TIP3   OH220591   6.236   3.186   2.175
 6876TIP3    H120592   6.291   3.204   2.251
 6876TIP3    H220593   6.294   3.194   2.100
 6877TIP3   OH220594   3.880   3.606   1.413
 6877TIP3    H120595   3.791   3.584   1.386
 6877TIP3    H220596   3.926   3.622   1.331
 6878TIP3   OH220597   2.397   3.351   2.374
 6878TIP3    H120598   2.488   3.339   2.347
 6878TIP3    H220599   2.378   3.274   2.429
 6879TIP3   OH220600   4.120   5.011   0.880
 6879TIP3    H120601   4.124   5.056   0.964
 6879TIP3    H220602   4.090   5.077   0.818
 6880TIP3   OH220603   3.221   4.448   4.176
 6880TIP3    H120604   3.271   4.516   4.130
 6880TIP3    H220605   3.247   4.456   4.267
 6881TIP3   OH220606   2.067   5.301   4.704
 6881TIP3    H120607   1.984   5.291   4.750
 6881TIP3    H220608   2.046   5.357   4.629
 6882TIP3   OH220609   2.799   5.129   3.357
 6882TIP3    H120610   2.747   5.096   3.430
 6882TIP3    H220611   2.752   5.208   3.329
 6883TIP3   OH220612   2.579   1.475   3.010
 6883TIP3    H120613   2.598   1.547   3.070
 6883TIP3    H220614   2.491   1.445   3.034
 6884TIP3   OH220615   5.946   2.883   1.498
 6884TIP3    H120616   5.965   2.951   1.434
 6884TIP3    H220617   5.944   2.802   1.447
 6885TIP3   OH220618   1.179   3.876   0.025
 6885TIP3    H120619   1.220   3.793   0.047
 6885TIP3    H220620   1.246   3.942   0.041
 6886TIP3   OH220621   6.547   0.755   3.217
 6886TIP3    H120622   6.510   0.817   3.154
 6886TIP3    H220623   6.583   0.810   3.287
 6887TIP3   OH220624   3.175   1.280   4.029
 6887TIP3    H120625   3.257   1.265   3.980
 6887TIP3    H220626   3.152   1.371   4.008
 6888TIP3   OH220627   3.413   0.092   3.570
 6888TIP3    H120628   3.413   0.042   3.651
 6888TIP3    H220629   3.320   0.105   3.550
 6889TIP3   OH220630   4.354   5.052   2.309
 6889TIP3    H120631   4.295   4.979   2.290
 6889TIP3    H220632   4.376   5.088   2.223
 6890TIP3   OH220633   5.202   1.402   3.442
 6890TIP3    H120634   5.246   1.330   3.486
 6890TIP3    H220635   5.243   1.406   3.356
 6891TIP3   OH220636   0.565   5.498   4.425
 6891TIP3    H120637   0.615   5.459   4.354
 6891TIP3    H220638   0.619   5.571   4.456
 6892TIP3   OH220639   0.612   6.342   0.907
 6892TIP3    H120640   0.643   6.271   0.851
 6892TIP3    H220641   0.538   6.305   0.954
 6893TIP3   OH220642   1.164   2.414   3.005
 6893TIP3    H120643   1.219   2.493   3.008
 6893TIP3    H220644   1.115   2.416   3.087
 6894TIP3   OH220645   6.581   3.652   5.022
 6894TIP3    H120646   6.581   3.709   5.099
 6894TIP3    H220647   6.599   3.711   4.948
 6895TIP3   OH220648   5.708   6.001   0.735
 6895TIP3    H120649   5.741   6.009   0.825
 6895TIP3    H220650   5.753   5.924   0.700
 6896TIP3   OH220651   2.424   4.903   5.342
 6896TIP3    H120652   2.451   4.812   5.355
 6896TIP3    H220653   2.445   4.921   5.250
 6897TIP3   OH220654   4.186   1.133   5.874
 6897TIP3    H120655   4.159   1.218   5.909
 6897TIP3    H220656   4.281   1.133   5.882
 6898TIP3   OH220657   4.050   5.409   2.689
 6898TIP3    H120658   3.981   5.364   2.640
 6898TIP3    H220659   4.048   5.499   2.655
 6899TIP3   OH220660   2.505   6.012   3.274
 6899TIP3    H120661   2.448   6.085   3.250
 6899TIP3    H220662   2.570   6.051   3.333
 6900TIP3   OH220663   4.676   2.859   5.223
 6900TIP3    H120664   4.668   2.792   5.291
 6900TIP3    H220665   4.649   2.814   5.142
 6901TIP3   OH220666   2.104   2.689   0.825
 6901TIP3    H120667   2.152   2.691   0.908
 6901TIP3    H220668   2.134   2.768   0.778
 6902TIP3   OH220669   7.056   4.477   3.917
 6902TIP3    H120670   7.141   4.517   3.935
 6902TIP3    H220671   7.027   4.443   4.002
 6903TIP3   OH220672   4.830   2.991   1.089
 6903TIP3    H120673   4.906   2.934   1.099
 6903TIP3    H220674   4.760   2.933   1.058
 6904TIP3   OH220675   5.415   5.774   0.884
 6904TIP3    H120676   5.348   5.833   0.850
 6904TIP3    H220677   5.415   5.700   0.822
 6905TIP3   OH220678   6.109   2.530   0.820
 6905TIP3    H120679   6.035   2.551   0.763
 6905TIP3    H220680   6.157   2.612   0.829
 6906TIP3   OH220681   0.245   5.371   0.604
 6906TIP3    H120682   0.242   5.456   0.648
 6906TIP3    H220683   0.236   5.392   0.511
 6907TIP3   OH220684   5.328   1.768   3.299
 6907TIP3    H120685   5.233   1.770   3.293
 6907TIP3    H220686   5.352   1.679   3.272
 6908TIP3   OH220687   5.809   4.440   4.738
 6908TIP3    H120688   5.870   4.424   4.665
 6908TIP3    H220689   5.810   4.358   4.787
 6909TIP3   OH220690   2.244   5.392   2.648
 6909TIP3    H120691   2.189   5.470   2.647
 6909TIP3    H220692   2.280   5.389   2.736
 6910TIP3   OH220693   6.601   4.060   5.098
 6910TIP3    H120694   6.655   4.005   5.156
 6910TIP3    H220695   6.584   4.139   5.149
 6911TIP3   OH220696   0.774   1.299   1.353
 6911TIP3    H120697   0.746   1.269   1.267
 6911TIP3    H220698   0.726   1.381   1.367
 6912TIP3   OH220699   4.477   4.223   1.210
 6912TIP3    H120700   4.484   4.186   1.298
 6912TIP3    H220701   4.564   4.214   1.173
 6913TIP3   OH220702   5.996   4.303   2.092
 6913TIP3    H120703   6.051   4.231   2.062
 6913TIP3    H220704   5.909   4.283   2.058
 6914TIP3   OH220705   6.933   5.047   0.653
 6914TIP3    H120706   6.946   5.008   0.566
 6914TIP3    H220707   6.947   5.141   0.639
 6915TIP3   OH220708   2.402   4.268   5.144
 6915TIP3    H120709   2.429   4.333   5.209
 6915TIP3    H220710   2.421   4.309   5.060
 6916TIP3   OH220711   2.277   3.755   2.491
 6916TIP3    H120712   2.289   3.837   2.444
 6916TIP3    H220713   2.252   3.692   2.423
 6917TIP3   OH220714   4.577   0.501   5.317
 6917TIP3    H120715   4.562   0.470   5.407
 6917TIP3    H220716   4.494   0.542   5.291
 6918TIP3   OH220717   6.144   0.697   5.894
 6918TIP3    H120718   6.084   0.713   5.821
 6918TIP3    H220719   6.122   0.766   5.958
 6919TIP3   OH220720   5.657   3.250   0.901
 6919TIP3    H120721   5.696   3.265   0.987
 6919TIP3    H220722   5.563   3.241   0.919
 6920TIP3   OH220723   2.758   2.018   3.521
 6920TIP3    H120724   2.811   2.096   3.538
 6920TIP3    H220725   2.675   2.036   3.565
 6921TIP3   OH220726   6.376   1.466   5.188
 6921TIP3    H120727   6.358   1.378   5.157
 6921TIP3    H220728   6.308   1.482   5.255
 6922TIP3   OH220729   3.617   1.281   4.586
 6922TIP3    H120730   3.701   1.325   4.587
 6922TIP3    H220731   3.554   1.345   4.619
 6923TIP3   OH220732   4.842   0.970   0.490
 6923TIP3    H120733   4.825   0.901   0.425
 6923TIP3    H220734   4.923   0.943   0.533
 6924TIP3   OH220735   6.281   0.388   1.490
 6924TIP3    H120736   6.328   0.374   1.572
 6924TIP3    H220737   6.237   0.305   1.473
 6925TIP3   OH220738   5.283   0.607   1.843
 6925TIP3    H120739   5.368   0.637   1.812
 6925TIP3    H220740   5.268   0.525   1.794
 6926TIP3   OH220741   6.117   3.684   5.616
 6926TIP3    H120742   6.180   3.613   5.619
 6926TIP3    H220743   6.166   3.759   5.581
 6927TIP3   OH220744   3.387   4.115   4.637
 6927TIP3    H120745   3.345   4.180   4.694
 6927TIP3    H220746   3.337   4.118   4.556
 6928TIP3   OH220747   0.694   4.446   0.029
 6928TIP3    H120748   0.741   4.437   0.112
 6928TIP3    H220749   0.646   4.364   0.020
 6929TIP3   OH220750   1.712   2.401   3.917
 6929TIP3    H120751   1.662   2.468   3.964
 6929TIP3    H220752   1.718   2.328   3.978
 6930TIP3   OH220753   1.656   5.330   0.837
 6930TIP3    H120754   1.629   5.238   0.839
 6930TIP3    H220755   1.590   5.376   0.888
 6931TIP3   OH220756   5.033   2.506   3.686
 6931TIP3    H120757   5.026   2.424   3.636
 6931TIP3    H220758   5.113   2.547   3.654
 6932TIP3   OH220759   6.147   5.538   3.853
 6932TIP3    H120760   6.175   5.512   3.941
 6932TIP3    H220761   6.072   5.596   3.869
 6933TIP3   OH220762   4.041   0.172   4.144
 6933TIP3    H120763   4.032   0.090   4.094
 6933TIP3    H220764   3.968   0.227   4.115
 6934TIP3   OH220765   4.018   5.337   4.792
 6934TIP3    H120766   4.113   5.334   4.790
 6934TIP3    H220767   3.990   5.293   4.712
 6935TIP3   OH220768   5.856   6.091   2.390
 6935TIP3    H120769   5.886   6.021   2.333
 6935TIP3    H220770   5.819   6.047   2.466
 6936TIP3   OH220771   6.462   5.620   0.385
 6936TIP3    H120772   6.488   5.686   0.449
 6936TIP3    H220773   6.429   5.547   0.438
 6937TIP3   OH220774   6.096   5.068   4.801
 6937TIP3    H120775   6.125   5.157   4.825
 6937TIP3    H220776   6.162   5.011   4.840
 6938TIP3   OH220777   0.698   4.875   0.273
 6938TIP3    H120778   0.663   4.897   0.187
 6938TIP3    H220779   0.747   4.794   0.259
 6939TIP3   OH220780   1.401   4.030   1.939
 6939TIP3    H120781   1.313   4.002   1.963
 6939TIP3    H220782   1.388   4.079   1.857
 6940TIP3   OH220783   0.398   4.328   0.557
 6940TIP3    H120784   0.348   4.370   0.627
 6940TIP3    H220785   0.416   4.239   0.589
 6941TIP3   OH220786   2.586   1.163   3.302
 6941TIP3    H120787   2.510   1.105   3.308
 6941TIP3    H220788   2.569   1.232   3.367
 6942TIP3   OH220789   1.337   0.113   3.658
 6942TIP3    H120790   1.352   0.180   3.725
 6942TIP3    H220791   1.255   0.071   3.683
 6943TIP3   OH220792   5.549   2.270   4.721
 6943TIP3    H120793   5.494   2.193   4.737
 6943TIP3    H220794   5.630   2.251   4.769
 6944TIP3   OH220795   0.112   1.142   5.249
 6944TIP3    H120796   0.043   1.208   5.247
 6944TIP3    H220797   0.189   1.189   5.282
 6945TIP3   OH220798   3.835   2.066   3.538
 6945TIP3    H120799   3.920   2.111   3.534
 6945TIP3    H220800   3.793   2.102   3.617
 6946TIP3   OH220801   1.150   1.626   1.192
 6946TIP3    H120802   1.127   1.609   1.101
 6946TIP3    H220803   1.103   1.706   1.214
 6947TIP3   OH220804   3.625   2.924   2.078
 6947TIP3    H120805   3.595   3.009   2.045
 6947TIP3    H220806   3.687   2.946   2.148
 6948TIP3   OH220807   7.044   0.159   5.771
 6948TIP3    H120808   6.985   0.124   5.837
 6948TIP3    H220809   6.988   0.209   5.711
 6949TIP3   OH220810   4.528   3.195   1.036
 6949TIP3    H120811   4.479   3.119   1.003
 6949TIP3    H220812   4.494   3.269   0.985
 6950TIP3   OH220813   4.181   2.746   3.822
 6950TIP3    H120814   4.268   2.784   3.824
 6950TIP3    H220815   4.143   2.776   3.739
 6951TIP3   OH220816   3.423   1.598   0.055
 6951TIP3    H120817   3.430   1.554  -0.029
 6951TIP3    H220818   3.477   1.677   0.046
 6952TIP3   OH220819   4.398   3.448   0.681
 6952TIP3    H120820   4.483   3.491   0.673
 6952TIP3    H220821   4.406   3.368   0.629
 6953TIP3   OH220822   7.276   4.964   0.767
 6953TIP3    H120823   7.188   4.939   0.796
 6953TIP3    H220824   7.268   5.057   0.744
 6954TIP3   OH220825   2.917   5.762   2.744
 6954TIP3    H120826   2.974   5.813   2.802
 6954TIP3    H220827   2.856   5.717   2.802
 6955TIP3   OH220828   1.524   2.470   4.518
 6955TIP3    H120829   1.560   2.549   4.479
 6955TIP3    H220830   1.555   2.472   4.609
 6956TIP3   OH220831   5.520   5.771   2.502
 6956TIP3    H120832   5.486   5.797   2.588
 6956TIP3    H220833   5.598   5.719   2.523
 6957TIP3   OH220834   4.865   0.704   1.773
 6957TIP3    H120835   4.862   0.614   1.741
 6957TIP3    H220836   4.950   0.712   1.816
 6958TIP3   OH220837   4.262   4.504   5.551
 6958TIP3    H120838   4.304   4.559   5.486
 6958TIP3    H220839   4.257   4.559   5.630
 6959TIP3   OH220840   6.727   1.739   5.521
 6959TIP3    H120841   6.691   1.656   5.490
 6959TIP3    H220842   6.819   1.719   5.541
 6960TIP3   OH220843   1.803   4.426   4.886
 6960TIP3    H120844   1.848   4.509   4.872
 6960TIP3    H220845   1.739   4.420   4.815
 6961TIP3   OH220846   4.588   2.995   2.967
 6961TIP3    H120847   4.660   3.058   2.965
 6961TIP3    H220848   4.521   3.038   3.020
 6962TIP3   OH220849   3.406   4.257   1.740
 6962TIP3    H120850   3.501   4.270   1.743
 6962TIP3    H220851   3.370   4.344   1.758
 6963TIP3   OH220852   4.249   5.873   4.410
 6963TIP3    H120853   4.336   5.911   4.405
 6963TIP3    H220854   4.263   5.779   4.417
 6964TIP3   OH220855   4.633   2.726   4.742
 6964TIP3    H120856   4.729   2.723   4.733
 6964TIP3    H220857   4.605   2.784   4.671
 6965TIP3   OH220858   0.060   0.677   1.126
 6965TIP3    H120859   0.075   0.720   1.211
 6965TIP3    H220860   0.140   0.629   1.110
 6966TIP3   OH220861   0.588   2.724   0.763
 6966TIP3    H120862   0.628   2.799   0.718
 6966TIP3    H220863   0.573   2.660   0.693
 6967TIP3   OH220864   2.178   2.675   4.477
 6967TIP3    H120865   2.165   2.601   4.418
 6967TIP3    H220866   2.198   2.635   4.562
 6968TIP3   OH220867   6.978   2.346   3.244
 6968TIP3    H120868   7.003   2.266   3.290
 6968TIP3    H220869   7.048   2.361   3.181
 6969TIP3   OH220870   5.440   0.003   0.915
 6969TIP3    H120871   5.438   0.097   0.934
 6969TIP3    H220872   5.371  -0.033   0.971
 6970TIP3   OH220873   7.173   5.310   1.023
 6970TIP3    H120874   7.251   5.281   1.070
 6970TIP3    H220875   7.155   5.398   1.056
 6971TIP3   OH220876   3.772   6.722   1.604
 6971TIP3    H120877   3.682   6.692   1.617
 6971TIP3    H220878   3.768   6.773   1.523
 6972TIP3   OH220879   3.147   6.392   3.387
 6972TIP3    H120880   3.218   6.343   3.428
 6972TIP3    H220881   3.191   6.462   3.339
 6973TIP3   OH220882   4.182   0.231   3.176
 6973TIP3    H120883   4.220   0.220   3.089
 6973TIP3    H220884   4.196   0.146   3.218
 6974TIP3   OH220885   3.994   5.080   0.449
 6974TIP3    H120886   3.919   5.111   0.500
 6974TIP3    H220887   4.010   5.149   0.385
 6975TIP3   OH220888   0.355   3.005   3.784
 6975TIP3    H120889   0.359   3.002   3.688
 6975TIP3    H220890   0.414   2.936   3.813
 6976TIP3   OH220891   3.362   1.643   3.137
 6976TIP3    H120892   3.354   1.554   3.102
 6976TIP3    H220893   3.277   1.660   3.177
 6977TIP3   OH220894   0.683   0.010   1.723
 6977TIP3    H120895   0.703  -0.026   1.809
 6977TIP3    H220896   0.758   0.066   1.702
 6978TIP3   OH220897   6.313   2.408   5.714
 6978TIP3    H120898   6.377   2.452   5.658
 6978TIP3    H220899   6.231   2.457   5.701
 6979TIP3   OH220900   1.659   4.489   1.355
 6979TIP3    H120901   1.749   4.460   1.367
 6979TIP3    H220902   1.651   4.567   1.410
 6980TIP3   OH220903   3.089   6.553   0.803
 6980TIP3    H120904   3.069   6.646   0.817
 6980TIP3    H220905   3.058   6.535   0.715
 6981TIP3   OH220906   4.377   5.056   5.632
 6981TIP3    H120907   4.302   5.040   5.691
 6981TIP3    H220908   4.445   5.091   5.689
 6982TIP3   OH220909   4.359   1.042   1.349
 6982TIP3    H120910   4.324   1.126   1.377
 6982TIP3    H220911   4.297   1.010   1.284
 6983TIP3   OH220912   2.112   5.909   3.363
 6983TIP3    H120913   2.067   5.877   3.441
 6983TIP3    H220914   2.160   5.986   3.393
 6984TIP3   OH220915   5.277   1.538   4.987
 6984TIP3    H120916   5.188   1.504   4.981
 6984TIP3    H220917   5.271   1.627   4.952
 6985TIP3   OH220918   1.122   3.903   3.698
 6985TIP3    H120919   1.176   3.981   3.704
 6985TIP3    H220920   1.146   3.851   3.775
 6986TIP3   OH220921   3.099   4.534   2.149
 6986TIP3    H120922   3.101   4.620   2.191
 6986TIP3    H220923   3.051   4.548   2.068
 6987TIP3   OH220924   2.368   1.317   4.245
 6987TIP3    H120925   2.431   1.246   4.233
 6987TIP3    H220926   2.411   1.377   4.306
 6988TIP3   OH220927   1.539   3.005   0.459
 6988TIP3    H120928   1.567   2.918   0.431
 6988TIP3    H220929   1.601   3.065   0.417
 6989TIP3   OH220930   4.409   1.611   1.043
 6989TIP3    H120931   4.502   1.620   1.059
 6989TIP3    H220932   4.370   1.598   1.129
 6990TIP3   OH220933   4.762   4.701   0.841
 6990TIP3    H120934   4.671   4.725   0.857
 6990TIP3    H220935   4.813   4.773   0.879
 6991TIP3   OH220936   4.772   5.281   1.623
 6991TIP3    H120937   4.867   5.273   1.612
 6991TIP3    H220938   4.757   5.268   1.716
 6992TIP3   OH220939   0.879   2.909   5.625
 6992TIP3    H120940   0.922   2.851   5.563
 6992TIP3    H220941   0.809   2.857   5.662
 6993TIP3   OH220942   2.252   6.202   0.659
 6993TIP3    H120943   2.168   6.163   0.684
 6993TIP3    H220944   2.266   6.272   0.722
 6994TIP3   OH220945   2.202   6.637   1.770
 6994TIP3    H120946   2.250   6.648   1.688
 6994TIP3    H220947   2.158   6.553   1.761
 6995TIP3   OH220948   2.388   4.262   3.989
 6995TIP3    H120949   2.438   4.282   4.068
 6995TIP3    H220950   2.426   4.319   3.922
 6996TIP3   OH220951   5.728   0.257   0.874
 6996TIP3    H120952   5.813   0.214   0.881
 6996TIP3    H220953   5.684   0.210   0.803
 6997TIP3   OH220954   3.592   2.425   3.380
 6997TIP3    H120955   3.589   2.509   3.426
 6997TIP3    H220956   3.679   2.390   3.400
 6998TIP3   OH220957   2.706   4.854   1.424
 6998TIP3    H120958   2.707   4.911   1.502
 6998TIP3    H220959   2.666   4.773   1.455
 6999TIP3   OH220960   2.986   6.326   3.169
 6999TIP3    H120961   3.069   6.304   3.127
 6999TIP3    H220962   3.011   6.356   3.257
 7000TIP3   OH220963   2.235   3.596   3.675
 7000TIP3    H120964   2.297   3.549   3.619
 7000TIP3    H220965   2.180   3.526   3.713
 7001TIP3   OH220966   0.342   4.236   2.052
 7001TIP3    H120967   0.395   4.232   1.973
 7001TIP3    H220968   0.405   4.229   2.124
 7002TIP3   OH220969   4.049   5.753   1.410
 7002TIP3    H120970   3.993   5.749   1.487
 7002TIP3    H220971   4.133   5.716   1.439
 7003TIP3   OH220972   0.728   3.774   4.617
 7003TIP3    H120973   0.808   3.724   4.631
 7003TIP3    H220974   0.685   3.775   4.703
 7004TIP3   OH220975   3.289   1.269   0.188
 7004TIP3    H120976   3.250   1.343   0.141
 7004TIP3    H220977   3.354   1.309   0.246
 7005TIP3   OH220978   4.779   0.137   0.430
 7005TIP3    H120979   4.830   0.086   0.493
 7005TIP3    H220980   4.695   0.151   0.473
 7006TIP3   OH220981   0.648   5.422   3.324
 7006TIP3    H120982   0.559   5.417   3.360
 7006TIP3    H220983   0.648   5.358   3.253
 7007TIP3   OH220984   0.549   2.485   1.663
 7007TIP3    H120985   0.491   2.409   1.670
 7007TIP3    H220986   0.637   2.448   1.671
 7008TIP3   OH220987   5.644   1.187   4.643
 7008TIP3    H120988   5.681   1.107   4.605
 7008TIP3    H220989   5.552   1.187   4.615
 7009TIP3   OH220990   2.959   0.225   3.798
 7009TIP3    H120991   2.890   0.184   3.850
 7009TIP3    H220992   2.918   0.245   3.714
 7010TIP3   OH220993   3.360   1.163   5.826
 7010TIP3    H120994   3.276   1.170   5.780
 7010TIP3    H220995   3.348   1.215   5.905
 7011TIP3   OH220996   1.159   5.342   4.994
 7011TIP3    H120997   1.069   5.361   5.021
 7011TIP3    H220998   1.209   5.338   5.076
 7012TIP3   OH220999   0.209   2.241   3.342
 7012TIP3    H121000   0.264   2.164   3.359
 7012TIP3    H221001   0.193   2.239   3.248
 7013TIP3   OH221002   3.922   3.401   2.892
 7013TIP3    H121003   3.968   3.380   2.810
 7013TIP3    H221004   3.837   3.359   2.883
 7014TIP3   OH221005   5.140   3.480   3.887
 7014TIP3    H121006   5.158   3.510   3.976
 7014TIP3    H221007   5.100   3.393   3.898
 7015TIP3   OH221008   2.214   6.559   2.108
 7015TIP3    H121009   2.225   6.605   2.025
 7015TIP3    H221010   2.303   6.550   2.142
 7016TIP3   OH221011   4.949   2.704   5.345
 7016TIP3    H121012   4.859   2.673   5.348
 7016TIP3    H221013   4.969   2.729   5.435
 7017TIP3   OH221014   4.744   3.406   4.885
 7017TIP3    H121015   4.744   3.319   4.925
 7017TIP3    H221016   4.734   3.466   4.958
 7018TIP3   OH221017   4.254   0.751   1.886
 7018TIP3    H121018   4.244   0.846   1.883
 7018TIP3    H221019   4.322   0.736   1.951
 7019TIP3   OH221020   5.342   1.950   3.544
 7019TIP3    H121021   5.407   1.883   3.521
 7019TIP3    H221022   5.261   1.920   3.502
 7020TIP3   OH221023   2.330   0.034   1.983
 7020TIP3    H121024   2.409   0.019   1.931
 7020TIP3    H221025   2.344  -0.017   2.063
 7021TIP3   OH221026   4.858   0.395   0.423
 7021TIP3    H121027   4.821   0.308   0.407
 7021TIP3    H221028   4.783   0.454   0.416
 7022TIP3   OH221029   5.301   4.081   0.795
 7022TIP3    H121030   5.305   4.091   0.890
 7022TIP3    H221031   5.393   4.084   0.767
 7023TIP3   OH221032   2.547   1.731   3.645
 7023TIP3    H121033   2.562   1.781   3.725
 7023TIP3    H221034   2.630   1.687   3.628
 7024TIP3   OH221035   6.386   1.778   1.996
 7024TIP3    H121036   6.296   1.750   2.011
 7024TIP3    H221037   6.422   1.792   2.083
 7025TIP3   OH221038   2.869   0.273   2.045
 7025TIP3    H121039   2.953   0.312   2.068
 7025TIP3    H221040   2.803   0.333   2.080
 7026TIP3   OH221041   1.000   1.490   2.079
 7026TIP3    H121042   0.941   1.486   2.155
 7026TIP3    H221043   0.945   1.463   2.005
 7027TIP3   OH221044   2.699   6.226   3.945
 7027TIP3    H121045   2.751   6.172   4.005
 7027TIP3    H221046   2.639   6.274   4.002
 7028TIP3   OH221047   1.135   5.921   0.384
 7028TIP3    H121048   1.178   5.892   0.304
 7028TIP3    H221049   1.099   6.007   0.362
 7029TIP3   OH221050   0.282   0.997   0.394
 7029TIP3    H121051   0.335   1.067   0.434
 7029TIP3    H221052   0.239   0.955   0.468
 7030TIP3   OH221053   6.008   5.958   2.138
 7030TIP3    H121054   6.083   5.932   2.085
 7030TIP3    H221055   5.979   6.041   2.099
 7031TIP3   OH221056   3.191   0.702   2.684
 7031TIP3    H121057   3.133   0.744   2.748
 7031TIP3    H221058   3.279   0.727   2.712
 7032TIP3   OH221059   6.540   3.507   0.853
 7032TIP3    H121060   6.524   3.589   0.899
 7032TIP3    H221061   6.635   3.494   0.858
 7033TIP3   OH221062   4.672   0.120   2.832
 7033TIP3    H121063   4.764   0.142   2.843
 7033TIP3    H221064   4.631   0.147   2.914
 7034TIP3   OH221065   6.919   0.348   0.283
 7034TIP3    H121066   6.862   0.322   0.211
 7034TIP3    H221067   6.948   0.437   0.260
 7035TIP3   OH221068   4.566   0.331   5.620
 7035TIP3    H121069   4.529   0.390   5.686
 7035TIP3    H221070   4.653   0.309   5.654
 7036TIP3   OH221071   1.874   0.842   0.570
 7036TIP3    H121072   1.834   0.906   0.512
 7036TIP3    H221073   1.948   0.889   0.610
 7037TIP3   OH221074   1.542   1.384   4.822
 7037TIP3    H121075   1.567   1.325   4.751
 7037TIP3    H221076   1.613   1.375   4.886
 7038TIP3   OH221077   4.321   1.104   0.999
 7038TIP3    H121078   4.363   1.018   0.989
 7038TIP3    H221079   4.236   1.085   1.038
 7039TIP3   OH221080   1.051   0.821   5.335
 7039TIP3    H121081   1.004   0.897   5.369
 7039TIP3    H221082   1.138   0.853   5.314
 7040TIP3   OH221083   5.680   0.729   0.256
 7040TIP3    H121084   5.761   0.711   0.208
 7040TIP3    H221085   5.659   0.820   0.236
 7041TIP3   OH221086   3.294   0.205   2.004
 7041TIP3    H121087   3.255   0.290   2.023
 7041TIP3    H221088   3.385   0.225   1.980
 7042TIP3   OH221089   2.912   4.410   1.094
 7042TIP3    H121090   2.936   4.486   1.040
 7042TIP3    H221091   2.868   4.351   1.033
 7043TIP3   OH221092   6.090   1.549   3.437
 7043TIP3    H121093   6.035   1.472   3.440
 7043TIP3    H221094   6.177   1.516   3.414
 7044TIP3   OH221095   6.032   3.981   0.098
 7044TIP3    H121096   6.010   4.007   0.187
 7044TIP3    H221097   6.066   4.061   0.058
 7045TIP3   OH221098   6.617   4.773   2.934
 7045TIP3    H121099   6.564   4.729   3.001
 7045TIP3    H221100   6.588   4.864   2.937
 7046TIP3   OH221101   5.842   6.256   3.115
 7046TIP3    H121102   5.830   6.221   3.027
 7046TIP3    H221103   5.776   6.210   3.168
 7047TIP3   OH221104   3.363   2.551   3.218
 7047TIP3    H121105   3.399   2.492   3.285
 7047TIP3    H221106   3.351   2.634   3.264
 7048TIP3   OH221107   4.013   1.575   5.070
 7048TIP3    H121108   4.099   1.618   5.070
 7048TIP3    H221109   3.950   1.648   5.076
 7049TIP3   OH221110   5.547   4.147   2.504
 7049TIP3    H121111   5.480   4.206   2.469
 7049TIP3    H221112   5.530   4.063   2.461
 7050TIP3   OH221113   4.002   1.701   0.569
 7050TIP3    H121114   4.047   1.679   0.651
 7050TIP3    H221115   4.072   1.717   0.506
 7051TIP3   OH221116   5.350   6.408   0.679
 7051TIP3    H121117   5.401   6.378   0.604
 7051TIP3    H221118   5.409   6.398   0.754
 7052TIP3   OH221119   0.972   4.251   3.273
 7052TIP3    H121120   0.879   4.260   3.296
 7052TIP3    H221121   0.979   4.164   3.234
 7053TIP3   OH221122   1.453   2.880   4.158
 7053TIP3    H121123   1.416   2.869   4.245
 7053TIP3    H221124   1.455   2.792   4.121
 7054TIP3   OH221125   0.149   6.172   3.199
 7054TIP3    H121126   0.127   6.156   3.107
 7054TIP3    H221127   0.086   6.120   3.249
 7055TIP3   OH221128   6.248   0.506   4.084
 7055TIP3    H121129   6.324   0.540   4.131
 7055TIP3    H221130   6.218   0.432   4.137
 7056TIP3   OH221131   3.858   0.116   1.696
 7056TIP3    H121132   3.817   0.068   1.768
 7056TIP3    H221133   3.926   0.168   1.737
 7057TIP3   OH221134   2.013   0.677   2.570
 7057TIP3    H121135   2.023   0.746   2.504
 7057TIP3    H221136   1.920   0.681   2.594
 7058TIP3   OH221137   2.376   3.521   5.347
 7058TIP3    H121138   2.448   3.459   5.359
 7058TIP3    H221139   2.376   3.574   5.427
 7059TIP3   OH221140   4.011   4.188   4.380
 7059TIP3    H121141   3.931   4.216   4.425
 7059TIP3    H221142   4.075   4.255   4.401
 7060TIP3   OH221143   4.572   5.883   2.623
 7060TIP3    H121144   4.549   5.871   2.531
 7060TIP3    H221145   4.582   5.794   2.657
 7061TIP3   OH221146   7.096   5.703   2.124
 7061TIP3    H121147   7.189   5.693   2.104
 7061TIP3    H221148   7.060   5.615   2.113
 7062TIP3   OH221149   6.991   1.494   1.321
 7062TIP3    H121150   7.019   1.488   1.412
 7062TIP3    H221151   7.052   1.435   1.274
 7063TIP3   OH221152   3.091   2.811   3.376
 7063TIP3    H121153   3.184   2.791   3.388
 7063TIP3    H221154   3.087   2.907   3.377
 7064TIP3   OH221155   4.267   4.676   5.758
 7064TIP3    H121156   4.196   4.732   5.789
 7064TIP3    H221157   4.345   4.731   5.761
 7065TIP3   OH221158   3.236   1.056   2.316
 7065TIP3    H121159   3.323   1.060   2.276
 7065TIP3    H221160   3.226   0.965   2.341
 7066TIP3   OH221161   6.581   0.827   4.415
 7066TIP3    H121162   6.525   0.899   4.445
 7066TIP3    H221163   6.561   0.755   4.474
 7067TIP3   OH221164   5.786   0.263   3.288
 7067TIP3    H121165   5.860   0.322   3.302
 7067TIP3    H221166   5.823   0.189   3.240
 7068TIP3   OH221167   6.092   4.932   0.792
 7068TIP3    H121168   6.042   4.867   0.840
 7068TIP3    H221169   6.044   4.943   0.710
 7069TIP3   OH221170   7.071   4.210   3.039
 7069TIP3    H121171   7.048   4.303   3.037
 7069TIP3    H221172   7.017   4.170   2.971
 7070TIP3   OH221173   1.312   0.631   4.872
 7070TIP3    H121174   1.326   0.588   4.956
 7070TIP3    H221175   1.248   0.576   4.828
 7071TIP3   OH221176   1.596   1.118   2.519
 7071TIP3    H121177   1.679   1.129   2.473
 7071TIP3    H221178   1.533   1.093   2.451
 7072TIP3   OH221179   2.441   6.012   4.546
 7072TIP3    H121180   2.523   5.981   4.585
 7072TIP3    H221181   2.402   6.066   4.614
 7073TIP3   OH221182   4.770   4.644   2.273
 7073TIP3    H121183   4.757   4.580   2.343
 7073TIP3    H221184   4.690   4.697   2.274
 7074TIP3   OH221185   3.734   2.004   5.387
 7074TIP3    H121186   3.735   2.058   5.466
 7074TIP3    H221187   3.818   2.022   5.345
 7075TIP3   OH221188   2.304   4.402   5.496
 7075TIP3    H121189   2.315   4.308   5.512
 7075TIP3    H221190   2.213   4.410   5.466
 7076TIP3   OH221191   5.264   5.813   0.079
 7076TIP3    H121192   5.265   5.719   0.095
 7076TIP3    H221193   5.268   5.822  -0.016
 7077TIP3   OH221194   5.603   1.657   0.167
 7077TIP3    H121195   5.563   1.617   0.089
 7077TIP3    H221196   5.574   1.748   0.165
 7078TIP3   OH221197   3.064   4.851   5.559
 7078TIP3    H121198   3.025   4.933   5.590
 7078TIP3    H221199   3.157   4.870   5.552
 7079TIP3   OH221200   3.798   3.084   1.136
 7079TIP3    H121201   3.800   3.171   1.176
 7079TIP3    H221202   3.785   3.102   1.043
 7080TIP3   OH221203   5.525   6.879   5.855
 7080TIP3    H121204   5.544   6.790   5.886
 7080TIP3    H221205   5.481   6.921   5.928
 7081TIP3   OH221206   7.155   0.062   2.966
 7081TIP3    H121207   7.122  -0.026   2.984
 7081TIP3    H221208   7.082   0.108   2.925
 7082TIP3   OH221209   2.943   0.805   1.879
 7082TIP3    H121210   2.859   0.760   1.880
 7082TIP3    H221211   2.929   0.882   1.825
 7083TIP3   OH221212   3.958   1.381   0.453
 7083TIP3    H121213   3.995   1.447   0.394
 7083TIP3    H221214   4.025   1.313   0.458
 7084TIP3   OH221215   2.483   2.441   3.908
 7084TIP3    H121216   2.513   2.400   3.990
 7084TIP3    H221217   2.533   2.522   3.902
 7085TIP3   OH221218   1.323   5.784   4.577
 7085TIP3    H121219   1.391   5.793   4.510
 7085TIP3    H221220   1.262   5.855   4.559
 7086TIP3   OH221221   6.130   5.401   0.913
 7086TIP3    H121222   6.126   5.457   0.835
 7086TIP3    H221223   6.223   5.380   0.922
 7087TIP3   OH221224   0.971   3.965   3.269
 7087TIP3    H121225   0.978   3.900   3.339
 7087TIP3    H221226   1.032   3.935   3.202
 7088TIP3   OH221227   1.268   5.998   3.096
 7088TIP3    H121228   1.284   5.907   3.073
 7088TIP3    H221229   1.247   5.995   3.189
 7089TIP3   OH221230   5.701   0.487   2.253
 7089TIP3    H121231   5.723   0.566   2.301
 7089TIP3    H221232   5.622   0.510   2.204
 7090TIP3   OH221233   5.613   5.982   4.528
 7090TIP3    H121234   5.670   6.028   4.466
 7090TIP3    H221235   5.612   6.037   4.606
 7091TIP3   OH221236   1.131   1.750   2.407
 7091TIP3    H121237   1.081   1.707   2.478
 7091TIP3    H221238   1.182   1.817   2.451
 7092TIP3   OH221239   3.495   5.801   0.613
 7092TIP3    H121240   3.425   5.750   0.574
 7092TIP3    H221241   3.450   5.869   0.663
 7093TIP3   OH221242   5.764   1.980   1.710
 7093TIP3    H121243   5.775   1.886   1.697
 7093TIP3    H221244   5.824   2.020   1.647
 7094TIP3   OH221245   2.087   0.854   4.459
 7094TIP3    H121246   2.004   0.884   4.495
 7094TIP3    H221247   2.090   0.889   4.370
 7095TIP3   OH221248   3.911   6.689   5.884
 7095TIP3    H121249   3.842   6.634   5.923
 7095TIP3    H221250   3.877   6.778   5.890
 7096TIP3   OH221251   2.770   4.856   5.724
 7096TIP3    H121252   2.782   4.887   5.634
 7096TIP3    H221253   2.736   4.767   5.714
 7097TIP3   OH221254   3.071   0.128   0.490
 7097TIP3    H121255   2.983   0.147   0.458
 7097TIP3    H221256   3.059   0.052   0.547
 7098TIP3   OH221257   1.897   1.041   4.671
 7098TIP3    H121258   1.834   1.106   4.700
 7098TIP3    H221259   1.973   1.052   4.728
 7099TIP3   OH221260   2.826   4.924   0.292
 7099TIP3    H121261   2.753   4.981   0.270
 7099TIP3    H221262   2.880   4.922   0.213
 7100TIP3   OH221263   1.002   6.198   1.819
 7100TIP3    H121264   0.987   6.118   1.869
 7100TIP3    H221265   0.917   6.242   1.818
 7101TIP3   OH221266   4.399   4.525   4.619
 7101TIP3    H121267   4.356   4.581   4.684
 7101TIP3    H221268   4.490   4.555   4.618
 7102TIP3   OH221269   0.158   3.958   5.737
 7102TIP3    H121270   0.210   3.884   5.706
 7102TIP3    H221271   0.222   4.022   5.768
 7103TIP3   OH221272   4.313   3.899   5.341
 7103TIP3    H121273   4.259   3.825   5.368
 7103TIP3    H221274   4.341   3.877   5.252
 7104TIP3   OH221275   4.646   4.217   0.871
 7104TIP3    H121276   4.669   4.308   0.892
 7104TIP3    H221277   4.571   4.225   0.812
 7105TIP3   OH221278   5.785   2.661   2.340
 7105TIP3    H121279   5.699   2.624   2.358
 7105TIP3    H221280   5.820   2.607   2.269
 7106TIP3   OH221281   4.142   6.474   0.665
 7106TIP3    H121282   4.230   6.492   0.700
 7106TIP3    H221283   4.152   6.391   0.618
 7107TIP3   OH221284   1.459   1.156   5.477
 7107TIP3    H121285   1.421   1.081   5.523
 7107TIP3    H221286   1.536   1.179   5.530
 7108TIP3   OH221287   3.923   5.918   4.372
 7108TIP3    H121288   3.966   5.909   4.457
 7108TIP3    H221289   3.991   5.898   4.308
 7109TIP3   OH221290   5.928   2.098   1.522
 7109TIP3    H121291   5.938   2.192   1.510
 7109TIP3    H221292   5.996   2.075   1.586
 7110TIP3   OH221293   0.187   5.920   1.837
 7110TIP3    H121294   0.219   5.960   1.918
 7110TIP3    H221295   0.156   5.994   1.784
 7111TIP3   OH221296   2.794   4.065   5.661
 7111TIP3    H121297   2.786   4.149   5.617
 7111TIP3    H221298   2.749   4.077   5.745
 7112TIP3   OH221299   4.823   6.125   5.092
 7112TIP3    H121300   4.846   6.072   5.016
 7112TIP3    H221301   4.750   6.179   5.062
 7113TIP3   OH221302   1.434   3.206   2.128
 7113TIP3    H121303   1.453   3.115   2.150
 7113TIP3    H221304   1.506   3.256   2.166
 7114TIP3   OH221305   6.843   4.815   5.205
 7114TIP3    H121306   6.848   4.902   5.244
 7114TIP3    H221307   6.817   4.831   5.114
 7115TIP3   OH221308   0.714   1.344   3.633
 7115TIP3    H121309   0.781   1.343   3.701
 7115TIP3    H221310   0.673   1.430   3.640
 7116TIP3   OH221311   5.471   3.975   0.322
 7116TIP3    H121312   5.487   3.892   0.275
 7116TIP3    H221313   5.388   4.006   0.288
 7117TIP3   OH221314   5.470   1.767   4.159
 7117TIP3    H121315   5.561   1.793   4.142
 7117TIP3    H221316   5.417   1.828   4.108
 7118TIP3   OH221317   3.955   4.606   0.559
 7118TIP3    H121318   3.942   4.626   0.652
 7118TIP3    H221319   3.948   4.511   0.554
 7119TIP3   OH221320   2.020   0.288   2.167
 7119TIP3    H121321   1.992   0.259   2.080
 7119TIP3    H221322   2.116   0.280   2.165
 7120TIP3   OH221323   4.913   5.097   1.792
 7120TIP3    H121324   4.848   5.072   1.857
 7120TIP3    H221325   4.966   5.164   1.835
 7121TIP3   OH221326   5.076   5.800   2.111
 7121TIP3    H121327   5.111   5.799   2.200
 7121TIP3    H221328   4.982   5.787   2.121
 7122TIP3   OH221329   3.190   4.519   3.655
 7122TIP3    H121330   3.182   4.570   3.575
 7122TIP3    H221331   3.100   4.507   3.686
 7123TIP3   OH221332   1.091   4.809   0.983
 7123TIP3    H121333   1.051   4.864   1.050
 7123TIP3    H221334   1.060   4.721   1.002
 7124TIP3   OH221335   1.376   2.934   5.648
 7124TIP3    H121336   1.371   2.952   5.554
 7124TIP3    H221337   1.318   2.859   5.662
 7125TIP3   OH221338   6.930   5.464   4.708
 7125TIP3    H121339   6.915   5.522   4.634
 7125TIP3    H221340   6.851   5.472   4.762
 7126TIP3   OH221341   1.677   5.488   5.655
 7126TIP3    H121342   1.600   5.461   5.605
 7126TIP3    H221343   1.750   5.479   5.594
 7127TIP3   OH221344   3.861   4.588   2.472
 7127TIP3    H121345   3.924   4.661   2.475
 7127TIP3    H221346   3.901   4.520   2.527
 7128TIP3   OH221347   1.811   0.891   2.970
 7128TIP3    H121348   1.832   0.871   2.879
 7128TIP3    H221349   1.726   0.934   2.966
 7129TIP3   OH221350   2.535   3.634   2.310
 7129TIP3    H121351   2.478   3.615   2.236
 7129TIP3    H221352   2.590   3.706   2.280
 7130TIP3   OH221353   4.486   2.661   3.944
 7130TIP3    H121354   4.475   2.750   3.910
 7130TIP3    H221355   4.397   2.631   3.961
 7131TIP3   OH221356   4.064   5.610   2.041
 7131TIP3    H121357   4.025   5.537   2.089
 7131TIP3    H221358   4.063   5.683   2.103
 7132TIP3   OH221359   1.962   5.649   4.917
 7132TIP3    H121360   2.042   5.645   4.969
 7132TIP3    H221361   1.891   5.645   4.981
 7133TIP3   OH221362   0.194   4.258   5.027
 7133TIP3    H121363   0.265   4.195   5.023
 7133TIP3    H221364   0.115   4.209   5.004
 7134TIP3   OH221365   4.736   3.069   5.844
 7134TIP3    H121366   4.670   3.123   5.888
 7134TIP3    H221367   4.819   3.096   5.881
 7135TIP3   OH221368   0.483   6.042   5.808
 7135TIP3    H121369   0.489   6.088   5.725
 7135TIP3    H221370   0.396   6.064   5.842
 7136TIP3   OH221371   4.637   4.962   3.008
 7136TIP3    H121372   4.591   4.924   3.083
 7136TIP3    H221373   4.623   5.056   3.017
 7137TIP3   OH221374   5.834   2.358   5.263
 7137TIP3    H121375   5.762   2.295   5.263
 7137TIP3    H221376   5.869   2.355   5.174
 7138TIP3   OH221377   6.410   5.383   0.955
 7138TIP3    H121378   6.457   5.348   0.879
 7138TIP3    H221379   6.477   5.402   1.019
 7139TIP3   OH221380   1.033   5.752   5.133
 7139TIP3    H121381   0.973   5.691   5.090
 7139TIP3    H221382   1.046   5.822   5.069
 7140TIP3   OH221383   2.546   0.059   5.665
 7140TIP3    H121384   2.521  -0.001   5.594
 7140TIP3    H221385   2.563   0.002   5.740
 7141TIP3   OH221386   5.261   2.646   4.518
 7141TIP3    H121387   5.312   2.574   4.555
 7141TIP3    H221388   5.207   2.677   4.590
 7142TIP3   OH221389   4.009   3.627   3.632
 7142TIP3    H121390   3.925   3.660   3.666
 7142TIP3    H221391   3.987   3.596   3.544
 7143TIP3   OH221392   4.716   5.166   5.103
 7143TIP3    H121393   4.798   5.211   5.082
 7143TIP3    H221394   4.648   5.231   5.087
 7144TIP3   OH221395   6.540   6.011   0.754
 7144TIP3    H121396   6.560   5.954   0.827
 7144TIP3    H221397   6.444   6.012   0.749
 7145TIP3   OH221398   6.612   4.059   0.489
 7145TIP3    H121399   6.622   4.002   0.566
 7145TIP3    H221400   6.555   4.010   0.430
 7146TIP3   OH221401   4.001   0.390   3.729
 7146TIP3    H121402   3.983   0.482   3.709
 7146TIP3    H221403   4.060   0.392   3.804
 7147TIP3   OH221404   3.498   4.359   2.789
 7147TIP3    H121405   3.540   4.387   2.708
 7147TIP3    H221406   3.425   4.420   2.801
 7148TIP3   OH221407   3.990   5.896   0.581
 7148TIP3    H121408   4.068   5.879   0.528
 7148TIP3    H221409   3.918   5.891   0.519
 7149TIP3   OH221410   2.396   3.761   4.661
 7149TIP3    H121411   2.336   3.759   4.736
 7149TIP3    H221412   2.401   3.670   4.631
 7150TIP3   OH221413   7.166   5.345   4.628
 7150TIP3    H121414   7.229   5.338   4.699
 7150TIP3    H221415   7.097   5.401   4.662
 7151TIP3   OH221416   1.575   6.417   4.880
 7151TIP3    H121417   1.659   6.424   4.926
 7151TIP3    H221418   1.561   6.504   4.842
 7152TIP3   OH221419   1.104   5.629   0.673
 7152TIP3    H121420   1.148   5.546   0.690
 7152TIP3    H221421   1.172   5.687   0.641
 7153TIP3   OH221422   3.424   2.351   0.266
 7153TIP3    H121423   3.423   2.445   0.245
 7153TIP3    H221424   3.497   2.316   0.214
 7154TIP3   OH221425   6.028   1.168   2.906
 7154TIP3    H121426   5.983   1.234   2.958
 7154TIP3    H221427   6.099   1.215   2.862
 7155TIP3   OH221428   0.560   1.053   0.118
 7155TIP3    H121429   0.602   1.023   0.199
 7155TIP3    H221430   0.577   1.147   0.115
 7156TIP3   OH221431   0.983   3.534   2.041
 7156TIP3    H121432   1.075   3.519   2.062
 7156TIP3    H221433   0.962   3.467   1.975
 7157TIP3   OH221434   0.206   3.779   0.342
 7157TIP3    H121435   0.245   3.867   0.338
 7157TIP3    H221436   0.200   3.752   0.250
 7158TIP3   OH221437   6.690   5.128   3.112
 7158TIP3    H121438   6.614   5.094   3.063
 7158TIP3    H221439   6.740   5.178   3.047
 7159TIP3   OH221440   4.299   6.476   5.691
 7159TIP3    H121441   4.220   6.531   5.689
 7159TIP3    H221442   4.372   6.538   5.686
 7160TIP3   OH221443   5.991   1.690   0.284
 7160TIP3    H121444   5.921   1.625   0.287
 7160TIP3    H221445   5.981   1.732   0.198
 7161TIP3   OH221446   0.937   2.466   5.804
 7161TIP3    H121447   0.994   2.421   5.743
 7161TIP3    H221448   0.897   2.396   5.856
 7162TIP3   OH221449   0.732   1.179   5.301
 7162TIP3    H121450   0.808   1.146   5.350
 7162TIP3    H221451   0.698   1.249   5.356
 7163TIP3   OH221452   1.458   3.839   4.459
 7163TIP3    H121453   1.462   3.893   4.538
 7163TIP3    H221454   1.549   3.833   4.430
 7164TIP3   OH221455   5.943   6.237   4.851
 7164TIP3    H121456   5.946   6.306   4.784
 7164TIP3    H221457   5.955   6.284   4.934
 7165TIP3   OH221458   6.027   0.876   1.676
 7165TIP3    H121459   5.969   0.898   1.603
 7165TIP3    H221460   6.060   0.789   1.656
 7166TIP3   OH221461   3.709   2.981   5.339
 7166TIP3    H121462   3.764   2.945   5.270
 7166TIP3    H221463   3.622   2.946   5.322
 7167TIP3   OH221464   3.306   1.996   3.636
 7167TIP3    H121465   3.279   1.945   3.560
 7167TIP3    H221466   3.235   1.983   3.699
 7168TIP3   OH221467   1.594   1.273   3.429
 7168TIP3    H121468   1.648   1.351   3.437
 7168TIP3    H221469   1.635   1.209   3.487
 7169TIP3   OH221470   6.763   5.949   3.191
 7169TIP3    H121471   6.784   5.972   3.281
 7169TIP3    H221472   6.684   5.894   3.198
 7170TIP3   OH221473   2.809   0.529   2.748
 7170TIP3    H121474   2.835   0.451   2.797
 7170TIP3    H221475   2.879   0.543   2.685
 7171TIP3   OH221476   6.774   2.891   0.089
 7171TIP3    H121477   6.732   2.812   0.054
 7171TIP3    H221478   6.782   2.873   0.183
 7172TIP3   OH221479   4.838   0.446   4.981
 7172TIP3    H121480   4.775   0.399   5.035
 7172TIP3    H221481   4.923   0.420   5.016
 7173TIP3   OH221482   4.897   0.419   1.745
 7173TIP3    H121483   4.919   0.330   1.717
 7173TIP3    H221484   4.893   0.414   1.840
 7174TIP3   OH221485   5.892   3.094   4.288
 7174TIP3    H121486   5.809   3.066   4.326
 7174TIP3    H221487   5.906   3.182   4.323
 7175TIP3   OH221488   0.814   5.240   5.323
 7175TIP3    H121489   0.747   5.307   5.338
 7175TIP3    H221490   0.860   5.233   5.407
 7176TIP3   OH221491   1.849   2.377   5.552
 7176TIP3    H121492   1.890   2.320   5.617
 7176TIP3    H221493   1.907   2.373   5.476
 7177TIP3   OH221494   6.857   0.572   5.650
 7177TIP3    H121495   6.791   0.631   5.616
 7177TIP3    H221496   6.936   0.592   5.599
 7178TIP3   OH221497   5.342   4.530   2.215
 7178TIP3    H121498   5.376   4.592   2.150
 7178TIP3    H221499   5.260   4.568   2.244
 7179TIP3   OH221500   5.876   3.859   3.275
 7179TIP3    H121501   5.915   3.787   3.324
 7179TIP3    H221502   5.876   3.829   3.184
 7180TIP3   OH221503   1.144   0.073   1.594
 7180TIP3    H121504   1.174  -0.005   1.547
 7180TIP3    H221505   1.223   0.110   1.632
 7181TIP3   OH221506   4.207   1.950   0.815
 7181TIP3    H121507   4.165   1.936   0.900
 7181TIP3    H221508   4.184   1.872   0.765
 7182TIP3   OH221509   6.328   2.283   5.401
 7182TIP3    H121510   6.244   2.319   5.374
 7182TIP3    H221511   6.386   2.360   5.408
 7183TIP3   OH221512   5.204   3.249   5.406
 7183TIP3    H121513   5.193   3.159   5.375
 7183TIP3    H221514   5.226   3.299   5.328
 7184TIP3   OH221515   2.346   4.251   0.910
 7184TIP3    H121516   2.378   4.265   0.820
 7184TIP3    H221517   2.277   4.185   0.900
 7185TIP3   OH221518   0.183   2.940   4.828
 7185TIP3    H121519   0.143   2.917   4.744
 7185TIP3    H221520   0.112   2.931   4.892
 7186TIP3   OH221521   2.354   4.103   3.411
 7186TIP3    H121522   2.437   4.055   3.412
 7186TIP3    H221523   2.339   4.127   3.502
 7187TIP3   OH221524   1.543   6.566   4.207
 7187TIP3    H121525   1.526   6.580   4.300
 7187TIP3    H221526   1.489   6.490   4.185
 7188TIP3   OH221527   1.559   3.264   4.868
 7188TIP3    H121528   1.594   3.316   4.940
 7188TIP3    H221529   1.521   3.187   4.910
 7189TIP3   OH221530   2.551   5.905   5.350
 7189TIP3    H121531   2.631   5.956   5.340
 7189TIP3    H221532   2.552   5.876   5.441
 7190TIP3   OH221533   6.896   5.479   2.581
 7190TIP3    H121534   6.849   5.556   2.611
 7190TIP3    H221535   6.867   5.468   2.490
 7191TIP3   OH221536   1.080   5.812   5.393
 7191TIP3    H121537   1.068   5.794   5.300
 7191TIP3    H221538   0.992   5.830   5.426
 7192TIP3   OH221539   3.567   4.184   2.278
 7192TIP3    H121540   3.602   4.123   2.212
 7192TIP3    H221541   3.519   4.128   2.339
 7193TIP3   OH221542   5.867   0.897   5.241
 7193TIP3    H121543   5.821   0.948   5.308
 7193TIP3    H221544   5.798   0.844   5.201
 7194TIP3   OH221545   0.683   3.201   3.890
 7194TIP3    H121546   0.756   3.255   3.920
 7194TIP3    H221547   0.621   3.202   3.962
 7195TIP3   OH221548   6.640   3.904   3.284
 7195TIP3    H121549   6.610   3.842   3.218
 7195TIP3    H221550   6.566   3.965   3.295
 7196TIP3   OH221551   4.509   6.597   1.135
 7196TIP3    H121552   4.558   6.557   1.064
 7196TIP3    H221553   4.445   6.653   1.092
 7197TIP3   OH221554   5.293   3.126   1.298
 7197TIP3    H121555   5.318   3.201   1.352
 7197TIP3    H221556   5.199   3.138   1.284
 7198TIP3   OH221557   0.015   0.296   5.281
 7198TIP3    H121558   0.023   0.325   5.372
 7198TIP3    H221559   0.043   0.371   5.229
 7199TIP3   OH221560   6.265   4.172   4.383
 7199TIP3    H121561   6.274   4.105   4.316
 7199TIP3    H221562   6.316   4.246   4.351
 7200TIP3   OH221563   6.806   3.095   3.948
 7200TIP3    H121564   6.718   3.121   3.974
 7200TIP3    H221565   6.808   3.107   3.854
 7201TIP3   OH221566   0.454   5.088   3.850
 7201TIP3    H121567   0.364   5.109   3.825
 7201TIP3    H221568   0.509   5.136   3.788
 7202TIP3   OH221569   2.714   6.084   1.717
 7202TIP3    H121570   2.781   6.149   1.737
 7202TIP3    H221571   2.734   6.010   1.774
 7203TIP3   OH221572   3.433   4.055   2.462
 7203TIP3    H121573   3.480   3.975   2.438
 7203TIP3    H221574   3.376   4.028   2.534
 7204TIP3   OH221575   3.172   0.652   3.957
 7204TIP3    H121576   3.085   0.648   3.918
 7204TIP3    H221577   3.219   0.718   3.905
 7205TIP3   OH221578   3.713   4.922   0.765
 7205TIP3    H121579   3.625   4.939   0.731
 7205TIP3    H221580   3.771   4.970   0.707
 7206TIP3   OH221581   3.489   1.418   2.752
 7206TIP3    H121582   3.470   1.470   2.830
 7206TIP3    H221583   3.580   1.388   2.764
 7207TIP3   OH221584   7.123   1.812   1.464
 7207TIP3    H121585   7.031   1.816   1.438
 7207TIP3    H221586   7.146   1.719   1.458
 7208TIP3   OH221587   2.850   3.779   2.313
 7208TIP3    H121588   2.928   3.834   2.322
 7208TIP3    H221589   2.781   3.839   2.284
 7209TIP3   OH221590   5.164   5.857   4.370
 7209TIP3    H121591   5.155   5.916   4.295
 7209TIP3    H221592   5.130   5.773   4.338
 7210TIP3   OH221593   6.476   2.137   2.191
 7210TIP3    H121594   6.426   2.156   2.112
 7210TIP3    H221595   6.439   2.054   2.223
 7211TIP3   OH221596   2.237   6.715   4.664
 7211TIP3    H121597   2.163   6.672   4.621
 7211TIP3    H221598   2.209   6.806   4.673
 7212TIP3   OH221599   1.726   5.724   4.106
 7212TIP3    H121600   1.792   5.679   4.053
 7212TIP3    H221601   1.773   5.798   4.145
 7213TIP3   OH221602   0.833   2.376   1.482
 7213TIP3    H121603   0.752   2.328   1.468
 7213TIP3    H221604   0.844   2.378   1.577
 7214TIP3   OH221605   5.495   6.491   2.989
 7214TIP3    H121606   5.472   6.486   2.896
 7214TIP3    H221607   5.579   6.536   2.992
 7215TIP3   OH221608   6.443   1.033   1.072
 7215TIP3    H121609   6.449   0.945   1.034
 7215TIP3    H221610   6.453   1.092   0.997
 7216TIP3   OH221611   4.503   2.578   0.743
 7216TIP3    H121612   4.588   2.537   0.760
 7216TIP3    H221613   4.446   2.505   0.717
 7217TIP3   OH221614   2.844   1.128   2.118
 7217TIP3    H121615   2.928   1.169   2.138
 7217TIP3    H221616   2.830   1.066   2.189
 7218TIP3   OH221617   5.741   2.166   1.995
 7218TIP3    H121618   5.786   2.104   1.937
 7218TIP3    H221619   5.790   2.161   2.078
 7219TIP3   OH221620   1.795   0.100   0.707
 7219TIP3    H121621   1.797   0.068   0.798
 7219TIP3    H221622   1.702   0.096   0.683
 7220TIP3   OH221623   6.146   5.824   0.384
 7220TIP3    H121624   6.142   5.788   0.473
 7220TIP3    H221625   6.121   5.916   0.395
 7221TIP3   OH221626   2.351   4.630   4.362
 7221TIP3    H121627   2.361   4.629   4.458
 7221TIP3    H221628   2.256   4.635   4.349
 7222TIP3   OH221629   0.447   5.601   1.170
 7222TIP3    H121630   0.392   5.670   1.208
 7222TIP3    H221631   0.402   5.576   1.090
 7223TIP3   OH221632   5.631   2.786   4.591
 7223TIP3    H121633   5.616   2.747   4.505
 7223TIP3    H221634   5.672   2.717   4.642
 7224TIP3   OH221635   6.724   1.018   1.357
 7224TIP3    H121636   6.649   1.074   1.336
 7224TIP3    H221637   6.739   0.968   1.277
 7225TIP3   OH221638   5.750   1.793   3.225
 7225TIP3    H121639   5.829   1.841   3.200
 7225TIP3    H221640   5.678   1.854   3.210
 7226TIP3   OH221641   0.818   5.017   4.855
 7226TIP3    H121642   0.862   5.021   4.940
 7226TIP3    H221643   0.737   5.068   4.867
 7227TIP3   OH221644   5.149   3.077   4.733
 7227TIP3    H121645   5.109   3.041   4.813
 7227TIP3    H221646   5.230   3.026   4.722
 7228TIP3   OH221647   4.995   1.713   3.555
 7228TIP3    H121648   4.959   1.625   3.550
 7228TIP3    H221649   5.090   1.700   3.555
 7229TIP3   OH221650   6.777   0.635   0.462
 7229TIP3    H121651   6.787   0.668   0.373
 7229TIP3    H221652   6.795   0.541   0.455
 7230TIP3   OH221653   2.944   6.482   0.575
 7230TIP3    H121654   3.025   6.500   0.527
 7230TIP3    H221655   2.881   6.546   0.541
 7231TIP3   OH221656   0.913   0.515   0.574
 7231TIP3    H121657   0.925   0.447   0.640
 7231TIP3    H221658   0.818   0.522   0.565
 7232TIP3   OH221659   0.411   4.547   4.004
 7232TIP3    H121660   0.472   4.482   3.968
 7232TIP3    H221661   0.452   4.631   3.983
 7233TIP3   OH221662   3.204   5.467   3.833
 7233TIP3    H121663   3.191   5.380   3.870
 7233TIP3    H221664   3.295   5.467   3.803
 7234TIP3   OH221665   0.901   0.249   3.595
 7234TIP3    H121666   0.976   0.305   3.612
 7234TIP3    H221667   0.878   0.213   3.680
 7235TIP3   OH221668   4.223   1.418  -0.023
 7235TIP3    H121669   4.215   1.370   0.060
 7235TIP3    H221670   4.284   1.489  -0.004
 7236TIP3   OH221671   5.275   4.875   2.193
 7236TIP3    H121672   5.297   4.800   2.138
 7236TIP3    H221673   5.181   4.887   2.181
 7237TIP3   OH221674   0.574   5.106   5.039
 7237TIP3    H121675   0.626   5.183   5.061
 7237TIP3    H221676   0.519   5.091   5.116
 7238TIP3   OH221677   2.989   3.966   2.885
 7238TIP3    H121678   2.944   3.947   2.802
 7238TIP3    H221679   3.079   3.986   2.859
 7239TIP3   OH221680   4.766   3.804   4.749
 7239TIP3    H121681   4.701   3.842   4.808
 7239TIP3    H221682   4.727   3.722   4.719
 7240TIP3   OH221683   4.547   0.158   3.076
 7240TIP3    H121684   4.483   0.118   3.018
 7240TIP3    H221685   4.504   0.160   3.162
 7241TIP3   OH221686   5.755   5.374   2.772
 7241TIP3    H121687   5.840   5.394   2.810
 7241TIP3    H221688   5.692   5.409   2.834
 7242TIP3   OH221689   5.909   4.185   0.648
 7242TIP3    H121690   5.858   4.105   0.637
 7242TIP3    H221691   5.870   4.228   0.724
 7243TIP3   OH221692   3.593   2.902   4.797
 7243TIP3    H121693   3.669   2.846   4.814
 7243TIP3    H221694   3.534   2.886   4.870
 7244TIP3   OH221695   3.415   0.121   0.791
 7244TIP3    H121696   3.378   0.128   0.879
 7244TIP3    H221697   3.506   0.147   0.801
 7245TIP3   OH221698   5.816   5.324   4.012
 7245TIP3    H121699   5.779   5.253   4.064
 7245TIP3    H221700   5.867   5.376   4.074
 7246TIP3   OH221701   5.116   0.418   3.205
 7246TIP3    H121702   5.179   0.475   3.249
 7246TIP3    H221703   5.156   0.331   3.209
 7247TIP3   OH221704   0.006   3.767   1.658
 7247TIP3    H121705  -0.071   3.711   1.665
 7247TIP3    H221706   0.022   3.798   1.747
 7248TIP3   OH221707   2.030   6.542   1.437
 7248TIP3    H121708   1.951   6.593   1.455
 7248TIP3    H221709   2.101   6.597   1.470
 7249TIP3   OH221710   5.319   1.038   0.799
 7249TIP3    H121711   5.224   1.027   0.794
 7249TIP3    H221712   5.349   1.035   0.708
 7250TIP3   OH221713   2.591   1.815   2.508
 7250TIP3    H121714   2.583   1.725   2.478
 7250TIP3    H221715   2.512   1.830   2.561
 7251TIP3   OH221716   0.776   5.518   1.503
 7251TIP3    H121717   0.691   5.520   1.458
 7251TIP3    H221718   0.756   5.484   1.590
 7252TIP3   OH221719   6.279   3.228   4.294
 7252TIP3    H121720   6.256   3.294   4.360
 7252TIP3    H221721   6.276   3.145   4.341
 7253TIP3   OH221722   0.458   4.402   4.488
 7253TIP3    H121723   0.432   4.460   4.417
 7253TIP3    H221724   0.554   4.404   4.486
 7254TIP3   OH221725   5.640   5.898   1.387
 7254TIP3    H121726   5.735   5.892   1.385
 7254TIP3    H221727   5.611   5.847   1.311
 7255TIP3   OH221728   0.226   5.540   2.957
 7255TIP3    H121729   0.230   5.499   3.043
 7255TIP3    H221730   0.144   5.588   2.957
 7256TIP3   OH221731   4.821   0.385   4.682
 7256TIP3    H121732   4.893   0.367   4.743
 7256TIP3    H221733   4.763   0.444   4.731
 7257TIP3   OH221734   0.668   0.406   3.138
 7257TIP3    H121735   0.650   0.323   3.181
 7257TIP3    H221736   0.590   0.425   3.086
 7258TIP3   OH221737   5.933   6.501   4.097
 7258TIP3    H121738   5.995   6.506   4.170
 7258TIP3    H221739   5.863   6.444   4.129
 7259TIP3   OH221740   4.764   5.960   0.451
 7259TIP3    H121741   4.826   6.002   0.511
 7259TIP3    H221742   4.679   5.969   0.495
 7260TIP3   OH221743   5.317   2.137   4.501
 7260TIP3    H121744   5.287   2.075   4.435
 7260TIP3    H221745   5.345   2.214   4.451
 7261TIP3   OH221746   5.056   0.095   0.748
 7261TIP3    H121747   4.991   0.038   0.709
 7261TIP3    H221748   5.033   0.183   0.717
 7262TIP3   OH221749   4.680   6.528   0.311
 7262TIP3    H121750   4.679   6.492   0.222
 7262TIP3    H221751   4.662   6.453   0.367
 7263TIP3   OH221752   4.591   1.587   4.530
 7263TIP3    H121753   4.528   1.601   4.459
 7263TIP3    H221754   4.546   1.528   4.590
 7264TIP3   OH221755   1.768   4.766   3.863
 7264TIP3    H121756   1.784   4.679   3.828
 7264TIP3    H221757   1.682   4.791   3.829
 7265TIP3   OH221758   6.643   3.873   5.461
 7265TIP3    H121759   6.690   3.956   5.466
 7265TIP3    H221760   6.698   3.811   5.509
 7266TIP3   OH221761   4.454   2.371   1.516
 7266TIP3    H121762   4.368   2.393   1.550
 7266TIP3    H221763   4.470   2.436   1.447
 7267TIP3   OH221764   4.414   6.012   4.715
 7267TIP3    H121765   4.342   5.974   4.764
 7267TIP3    H221766   4.424   5.955   4.639
 7268TIP3   OH221767   1.030   0.411   5.789
 7268TIP3    H121768   1.093   0.476   5.823
 7268TIP3    H221769   1.020   0.349   5.861
 7269TIP3   OH221770   2.557   3.318   0.423
 7269TIP3    H121771   2.509   3.323   0.505
 7269TIP3    H221772   2.489   3.310   0.356
 7270TIP3   OH221773   5.620   1.065   3.541
 7270TIP3    H121774   5.661   0.979   3.535
 7270TIP3    H221775   5.683   1.119   3.589
 7271TIP3   OH221776   4.506   1.301   0.996
 7271TIP3    H121777   4.453   1.221   1.000
 7271TIP3    H221778   4.461   1.362   1.055
 7272TIP3   OH221779   6.443   2.326   1.665
 7272TIP3    H121780   6.428   2.420   1.674
 7272TIP3    H221781   6.504   2.319   1.592
 7273TIP3   OH221782   0.533   6.101   0.051
 7273TIP3    H121783   0.480   6.164   0.001
 7273TIP3    H221784   0.608   6.152   0.082
 7274TIP3   OH221785   0.556   0.230   1.328
 7274TIP3    H121786   0.496   0.160   1.354
 7274TIP3    H221787   0.543   0.240   1.233
 7275TIP3   OH221788   6.723   5.540   4.524
 7275TIP3    H121789   6.692   5.603   4.589
 7275TIP3    H221790   6.720   5.587   4.441
 7276TIP3   OH221791   2.460   6.287   0.015
 7276TIP3    H121792   2.394   6.338  -0.031
 7276TIP3    H221793   2.463   6.326   0.102
 7277TIP3   OH221794   5.355   2.181   0.258
 7277TIP3    H121795   5.324   2.157   0.171
 7277TIP3    H221796   5.300   2.131   0.318
 7278TIP3   OH221797   2.908   0.484   5.670
 7278TIP3    H121798   2.824   0.529   5.661
 7278TIP3    H221799   2.888   0.404   5.717
 7279TIP3   OH221800   0.039   6.608   2.453
 7279TIP3    H121801   0.038   6.619   2.548
 7279TIP3    H221802   0.129   6.627   2.428
 7280TIP3   OH221803   1.641   0.303   2.406
 7280TIP3    H121804   1.699   0.237   2.369
 7280TIP3    H221805   1.632   0.277   2.498
 7281TIP3   OH221806   3.078   1.709   2.532
 7281TIP3    H121807   3.061   1.615   2.536
 7281TIP3    H221808   3.125   1.729   2.613
 7282TIP3   OH221809   4.664   4.478   0.956
 7282TIP3    H121810   4.588   4.500   1.010
 7282TIP3    H221811   4.698   4.562   0.927
 7283TIP3   OH221812   0.634   2.935   2.365
 7283TIP3    H121813   0.547   2.975   2.363
 7283TIP3    H221814   0.641   2.899   2.453
 7284TIP3   OH221815   0.112   1.113   5.569
 7284TIP3    H121816   0.179   1.047   5.552
 7284TIP3    H221817   0.029   1.069   5.548
 7285TIP3   OH221818   6.963   3.956   2.895
 7285TIP3    H121819   7.025   3.893   2.931
 7285TIP3    H221820   7.008   3.994   2.820
 7286TIP3   OH221821   6.167   4.964   2.016
 7286TIP3    H121822   6.161   4.880   1.971
 7286TIP3    H221823   6.144   4.943   2.107
 7287TIP3   OH221824   0.017   5.317   1.728
 7287TIP3    H121825   0.007   5.295   1.820
 7287TIP3    H221826  -0.022   5.404   1.720
 7288TIP3   OH221827   6.671  -0.023   4.446
 7288TIP3    H121828   6.599   0.037   4.466
 7288TIP3    H221829   6.716   0.018   4.371
 7289TIP3   OH221830   7.100   1.409   5.652
 7289TIP3    H121831   7.057   1.422   5.737
 7289TIP3    H221832   7.091   1.315   5.635
 7290TIP3   OH221833   5.460   5.381   2.474
 7290TIP3    H121834   5.551   5.368   2.448
 7290TIP3    H221835   5.433   5.296   2.509
 7291TIP3   OH221836   1.337   3.977   0.363
 7291TIP3    H121837   1.259   3.926   0.384
 7291TIP3    H221838   1.341   4.044   0.431
 7292TIP3   OH221839   0.355   4.526   0.177
 7292TIP3    H121840   0.409   4.448   0.191
 7292TIP3    H221841   0.405   4.579   0.115
 7293TIP3   OH221842   5.034   3.813   2.791
 7293TIP3    H121843   5.093   3.883   2.817
 7293TIP3    H221844   5.059   3.739   2.846
 7294TIP3   OH221845   0.117   1.457   3.064
 7294TIP3    H121846   0.112   1.551   3.053
 7294TIP3    H221847   0.147   1.444   3.155
 7295TIP3   OH221848   3.712   6.441   4.547
 7295TIP3    H121849   3.695   6.436   4.453
 7295TIP3    H221850   3.771   6.515   4.556
 7296TIP3   OH221851   5.519   5.942   1.612
 7296TIP3    H121852   5.569   5.916   1.534
 7296TIP3    H221853   5.527   6.038   1.615
 7297TIP3   OH221854   3.983   2.399   1.365
 7297TIP3    H121855   4.030   2.362   1.290
 7297TIP3    H221856   3.891   2.387   1.344
 7298TIP3   OH221857   0.275   0.324   2.995
 7298TIP3    H121858   0.194   0.323   2.944
 7298TIP3    H221859   0.274   0.407   3.042
 7299TIP3   OH221860   0.765   2.761   1.416
 7299TIP3    H121861   0.693   2.793   1.471
 7299TIP3    H221862   0.831   2.731   1.479
 7300TIP3   OH221863   2.570   1.220   0.469
 7300TIP3    H121864   2.616   1.188   0.546
 7300TIP3    H221865   2.483   1.180   0.474
 7301TIP3   OH221866   0.457   3.541   4.351
 7301TIP3    H121867   0.374   3.588   4.350
 7301TIP3    H221868   0.506   3.577   4.277
 7302TIP3   OH221869   6.880   0.423   0.989
 7302TIP3    H121870   6.952   0.428   1.052
 7302TIP3    H221871   6.801   0.428   1.043
 7303TIP3   OH221872   6.136   5.461   1.944
 7303TIP3    H121873   6.196   5.513   1.998
 7303TIP3    H221874   6.176   5.375   1.940
 7304TIP3   OH221875   5.460   2.076   0.753
 7304TIP3    H121876   5.417   2.153   0.789
 7304TIP3    H221877   5.395   2.007   0.757
 7305TIP3   OH221878   2.517   5.076   0.711
 7305TIP3    H121879   2.454   5.145   0.689
 7305TIP3    H221880   2.588   5.123   0.755
 7306TIP3   OH221881   6.304   4.009   3.715
 7306TIP3    H121882   6.321   4.043   3.802
 7306TIP3    H221883   6.211   3.984   3.716
 7307TIP3   OH221884   6.427   1.876   2.349
 7307TIP3    H121885   6.367   1.903   2.419
 7307TIP3    H221886   6.420   1.781   2.345
 7308TIP3   OH221887   2.334   2.806   0.316
 7308TIP3    H121888   2.272   2.781   0.248
 7308TIP3    H221889   2.338   2.902   0.310
 7309TIP3   OH221890   4.030   1.796   5.425
 7309TIP3    H121891   4.126   1.804   5.417
 7309TIP3    H221892   3.998   1.805   5.335
 7310TIP3   OH221893   3.545   0.063   1.627
 7310TIP3    H121894   3.479   0.084   1.693
 7310TIP3    H221895   3.608   0.007   1.673
 7311TIP3   OH221896   6.604   2.553   0.868
 7311TIP3    H121897   6.563   2.612   0.931
 7311TIP3    H221898   6.585   2.591   0.782
 7312TIP3   OH221899   7.098   5.746   5.034
 7312TIP3    H121900   7.110   5.781   4.945
 7312TIP3    H221901   7.187   5.734   5.067
 7313TIP3   OH221902   2.945   1.396   1.396
 7313TIP3    H121903   3.028   1.443   1.388
 7313TIP3    H221904   2.881   1.450   1.349
 7314TIP3   OH221905   6.916   6.643   5.335
 7314TIP3    H121906   6.968   6.567   5.360
 7314TIP3    H221907   6.952   6.670   5.251
 7315TIP3   OH221908   1.920   4.602   3.452
 7315TIP3    H121909   1.860   4.537   3.488
 7315TIP3    H221910   1.971   4.554   3.386
 7316TIP3   OH221911   4.746   1.031   3.440
 7316TIP3    H121912   4.729   0.970   3.513
 7316TIP3    H221913   4.681   1.006   3.374
 7317TIP3   OH221914   3.013   3.200   2.529
 7317TIP3    H121915   2.933   3.212   2.581
 7317TIP3    H221916   2.985   3.215   2.438
 7318TIP3   OH221917   2.228   1.810   0.506
 7318TIP3    H121918   2.251   1.740   0.567
 7318TIP3    H221919   2.174   1.870   0.558
 7319TIP3   OH221920   0.675   6.552   5.210
 7319TIP3    H121921   0.610   6.519   5.148
 7319TIP3    H221922   0.622   6.584   5.284
 7320TIP3   OH221923   4.841   0.114   3.434
 7320TIP3    H121924   4.827   0.159   3.351
 7320TIP3    H221925   4.925   0.068   3.422
 7321TIP3   OH221926   4.098   1.802   1.538
 7321TIP3    H121927   4.069   1.778   1.626
 7321TIP3    H221928   4.062   1.734   1.481
 7322TIP3   OH221929   2.727   1.498   3.671
 7322TIP3    H121930   2.809   1.493   3.623
 7322TIP3    H221931   2.747   1.554   3.746
 7323TIP3   OH221932  -0.015   4.617   3.223
 7323TIP3    H121933   0.017   4.671   3.151
 7323TIP3    H221934  -0.012   4.528   3.189
 7324TIP3   OH221935   2.552   1.250   2.407
 7324TIP3    H121936   2.516   1.283   2.489
 7324TIP3    H221937   2.475   1.228   2.354
 7325TIP3   OH221938   1.797   5.838   0.416
 7325TIP3    H121939   1.755   5.794   0.342
 7325TIP3    H221940   1.884   5.862   0.384
 7326TIP3   OH221941   0.716   3.492   2.128
 7326TIP3    H121942   0.737   3.399   2.134
 7326TIP3    H221943   0.802   3.534   2.116
 7327TIP3   OH221944   5.913   0.481   0.416
 7327TIP3    H121945   5.958   0.397   0.403
 7327TIP3    H221946   5.834   0.474   0.362
 7328TIP3   OH221947   3.538   1.818   5.262
 7328TIP3    H121948   3.540   1.907   5.297
 7328TIP3    H221949   3.554   1.762   5.338
 7329TIP3   OH221950   2.021   2.338   1.263
 7329TIP3    H121951   2.081   2.375   1.198
 7329TIP3    H221952   1.963   2.281   1.213
 7330TIP3   OH221953   3.562   6.226   5.523
 7330TIP3    H121954   3.549   6.154   5.585
 7330TIP3    H221955   3.523   6.194   5.442
 7331TIP3   OH221956   6.511   5.330   5.311
 7331TIP3    H121957   6.511   5.245   5.268
 7331TIP3    H221958   6.462   5.387   5.252
 7332TIP3   OH221959   4.069   2.870   2.587
 7332TIP3    H121960   3.977   2.889   2.603
 7332TIP3    H221961   4.079   2.879   2.492
 7333TIP3   OH221962   2.816   3.357   4.491
 7333TIP3    H121963   2.823   3.386   4.400
 7333TIP3    H221964   2.867   3.276   4.494
 7334TIP3   OH221965   4.193   5.927   2.083
 7334TIP3    H121966   4.174   5.906   2.175
 7334TIP3    H221967   4.284   5.957   2.083
 7335TIP3   OH221968   1.699   1.511   1.301
 7335TIP3    H121969   1.651   1.592   1.321
 7335TIP3    H221970   1.753   1.534   1.225
 7336TIP3   OH221971   3.716   4.822   3.255
 7336TIP3    H121972   3.805   4.801   3.225
 7336TIP3    H221973   3.666   4.830   3.174
 7337TIP3   OH221974   4.207   4.011   3.038
 7337TIP3    H121975   4.196   3.998   3.132
 7337TIP3    H221976   4.224   4.104   3.027
 7338TIP3   OH221977   5.556   0.834   2.789
 7338TIP3    H121978   5.602   0.916   2.804
 7338TIP3    H221979   5.466   0.861   2.769
 7339TIP3   OH221980   5.751   3.008   4.071
 7339TIP3    H121981   5.803   3.006   3.991
 7339TIP3    H221982   5.808   3.050   4.136
 7340TIP3   OH221983   6.835   5.855   4.972
 7340TIP3    H121984   6.917   5.806   4.971
 7340TIP3    H221985   6.860   5.945   4.951
 7341TIP3   OH221986   5.462   5.918   0.589
 7341TIP3    H121987   5.477   5.923   0.495
 7341TIP3    H221988   5.545   5.945   0.628
 7342TIP3   OH221989   2.464   5.804   1.842
 7342TIP3    H121990   2.516   5.765   1.771
 7342TIP3    H221991   2.505   5.770   1.922
 7343TIP3   OH221992   5.549   5.228   1.035
 7343TIP3    H121993   5.503   5.308   1.010
 7343TIP3    H221994   5.480   5.161   1.037
 7344TIP3   OH221995   1.413   5.684   0.367
 7344TIP3    H121996   1.425   5.700   0.274
 7344TIP3    H221997   1.396   5.770   0.405
 7345TIP3   OH221998   6.735   1.092   4.007
 7345TIP3    H121999   6.786   1.017   3.977
 7345TIP3    H222000   6.654   1.054   4.040
 7346TIP3   OH222001   1.907   4.745   4.463
 7346TIP3    H122002   1.987   4.794   4.441
 7346TIP3    H222003   1.836   4.795   4.423
 7347TIP3   OH222004   5.554   2.775   0.569
 7347TIP3    H122005   5.572   2.864   0.539
 7347TIP3    H222006   5.588   2.773   0.659
 7348TIP3   OH222007   2.501   4.606   4.601
 7348TIP3    H122008   2.518   4.513   4.590
 7348TIP3    H222009   2.480   4.617   4.693
 7349TIP3   OH222010   1.841   4.135   4.589
 7349TIP3    H122011   1.810   4.226   4.586
 7349TIP3    H222012   1.920   4.136   4.535
 7350TIP3   OH222013   0.227   4.172   5.314
 7350TIP3    H122014   0.183   4.088   5.323
 7350TIP3    H222015   0.161   4.230   5.276
 7351TIP3   OH222016   1.894   6.686   4.078
 7351TIP3    H122017   1.903   6.775   4.111
 7351TIP3    H222018   1.845   6.695   3.996
 7352TIP3   OH222019   1.915   2.473   2.728
 7352TIP3    H122020   1.991   2.503   2.779
 7352TIP3    H222021   1.843   2.472   2.791
 7353TIP3   OH222022   1.082   1.191   5.050
 7353TIP3    H122023   1.133   1.272   5.042
 7353TIP3    H222024   1.129   1.128   4.995
 7354TIP3   OH222025   4.116   5.344   2.951
 7354TIP3    H122026   4.064   5.328   2.873
 7354TIP3    H222027   4.156   5.430   2.937
 7355TIP3   OH222028   1.666   3.823   1.099
 7355TIP3    H122029   1.636   3.850   1.012
 7355TIP3    H222030   1.752   3.783   1.083
 7356TIP3   OH222031   0.527   3.478   4.638
 7356TIP3    H122032   0.533   3.489   4.543
 7356TIP3    H222033   0.612   3.442   4.663
 7357TIP3   OH222034   3.119   5.692   4.728
 7357TIP3    H122035   3.152   5.659   4.811
 7357TIP3    H222036   3.035   5.732   4.750
 7358TIP3   OH222037   5.113   5.709   2.980
 7358TIP3    H122038   5.052   5.636   2.988
 7358TIP3    H222039   5.057   5.786   2.973
 7359TIP3   OH222040   4.465   2.657   2.918
 7359TIP3    H122041   4.478   2.571   2.957
 7359TIP3    H222042   4.520   2.656   2.840
 7360TIP3   OH222043   2.968   5.313   0.756
 7360TIP3    H122044   2.990   5.344   0.668
 7360TIP3    H222045   3.042   5.339   0.810
 7361TIP3   OH222046   6.462   4.319   2.167
 7361TIP3    H122047   6.376   4.351   2.196
 7361TIP3    H222048   6.524   4.384   2.202
 7362TIP3   OH222049   3.663   0.059   0.898
 7362TIP3    H122050   3.642  -0.004   0.968
 7362TIP3    H222051   3.722   0.011   0.840
 7363TIP3   OH222052   1.957   3.224   2.669
 7363TIP3    H122053   1.938   3.134   2.694
 7363TIP3    H222054   2.045   3.221   2.632
 7364TIP3   OH222055   2.261   1.685   4.705
 7364TIP3    H122056   2.262   1.725   4.793
 7364TIP3    H222057   2.179   1.636   4.703
 7365TIP3   OH222058   6.587   1.457   3.816
 7365TIP3    H122059   6.564   1.546   3.845
 7365TIP3    H222060   6.665   1.469   3.762
 7366TIP3   OH222061   3.633   3.915   5.737
 7366TIP3    H122062   3.564   3.849   5.728
 7366TIP3    H222063   3.707   3.867   5.773
 7367TIP3   OH222064   1.231   4.045   1.267
 7367TIP3    H122065   1.219   4.130   1.310
 7367TIP3    H222066   1.146   4.028   1.227
 7368TIP3   OH222067   6.025   6.540   1.001
 7368TIP3    H122068   5.994   6.631   1.001
 7368TIP3    H222069   6.112   6.545   0.961
 7369TIP3   OH222070   2.699   4.410   4.890
 7369TIP3    H122071   2.693   4.369   4.977
 7369TIP3    H222072   2.609   4.421   4.863
 7370TIP3   OH222073   4.735   5.532   5.309
 7370TIP3    H122074   4.825   5.518   5.337
 7370TIP3    H222075   4.740   5.606   5.249
 7371TIP3   OH222076   4.528   4.696   0.066
 7371TIP3    H122077   4.538   4.661   0.155
 7371TIP3    H222078   4.559   4.625   0.010
 7372TIP3   OH222079   4.993   1.251   4.710
 7372TIP3    H122080   5.074   1.293   4.682
 7372TIP3    H222081   4.986   1.272   4.803
 7373TIP3   OH222082   2.816   4.430   1.384
 7373TIP3    H122083   2.841   4.452   1.294
 7373TIP3    H222084   2.721   4.421   1.381
 7374TIP3   OH222085   4.919   1.952   1.832
 7374TIP3    H122086   4.982   1.912   1.773
 7374TIP3    H222087   4.956   2.038   1.851
 7375TIP3   OH222088   6.390   3.809   1.791
 7375TIP3    H122089   6.382   3.865   1.868
 7375TIP3    H222090   6.301   3.804   1.755
 7376TIP3   OH222091   7.164   1.858   3.208
 7376TIP3    H122092   7.083   1.873   3.160
 7376TIP3    H222093   7.145   1.892   3.296
 7377TIP3   OH222094   1.523   4.856   5.416
 7377TIP3    H122095   1.594   4.853   5.352
 7377TIP3    H222096   1.517   4.766   5.449
 7378TIP3   OH222097   4.087   0.120   5.848
 7378TIP3    H122098   4.095   0.205   5.804
 7378TIP3    H222099   4.027   0.070   5.793
 7379TIP3   OH222100   0.347   4.151   1.332
 7379TIP3    H122101   0.328   4.241   1.305
 7379TIP3    H222102   0.322   4.148   1.424
 7380TIP3   OH222103   4.023   0.353   4.645
 7380TIP3    H122104   3.942   0.387   4.607
 7380TIP3    H222105   3.997   0.275   4.694
 7381TIP3   OH222106   5.681   3.761   2.615
 7381TIP3    H122107   5.660   3.711   2.694
 7381TIP3    H222108   5.599   3.765   2.566
 7382TIP3   OH222109   5.646   1.416   0.730
 7382TIP3    H122110   5.736   1.428   0.697
 7382TIP3    H222111   5.611   1.345   0.676
 7383TIP3   OH222112   5.529   0.171   4.817
 7383TIP3    H122113   5.598   0.144   4.878
 7383TIP3    H222114   5.484   0.243   4.862
 7384TIP3   OH222115   1.408   1.723   1.171
 7384TIP3    H122116   1.322   1.682   1.175
 7384TIP3    H222117   1.435   1.732   1.262
 7385TIP3   OH222118   6.582   6.299   1.276
 7385TIP3    H122119   6.538   6.320   1.193
 7385TIP3    H222120   6.675   6.302   1.256
 7386TIP3   OH222121   4.775   0.341   5.807
 7386TIP3    H122122   4.698   0.315   5.858
 7386TIP3    H222123   4.845   0.285   5.838
 7387TIP3   OH222124   5.086   3.532   3.599
 7387TIP3    H122125   4.992   3.527   3.616
 7387TIP3    H222126   5.124   3.545   3.686
 7388TIP3   OH222127   1.422   6.502   5.159
 7388TIP3    H122128   1.506   6.476   5.197
 7388TIP3    H222129   1.382   6.421   5.129
 7389TIP3   OH222130   1.039   2.962   5.287
 7389TIP3    H122131   0.960   2.929   5.244
 7389TIP3    H222132   1.013   3.048   5.320
 7390TIP3   OH222133   1.254   3.642   0.281
 7390TIP3    H122134   1.170   3.618   0.243
 7390TIP3    H222135   1.249   3.612   0.372
 7391TIP3   OH222136   1.009   1.877   1.829
 7391TIP3    H122137   0.925   1.843   1.799
 7391TIP3    H222138   1.008   1.969   1.803
 7392TIP3   OH222139   4.748   2.356   4.022
 7392TIP3    H122140   4.718   2.308   4.100
 7392TIP3    H222141   4.698   2.319   3.950
 7393TIP3   OH222142   1.780   4.865   0.972
 7393TIP3    H122143   1.736   4.781   0.978
 7393TIP3    H222144   1.801   4.888   1.062
 7394TIP3   OH222145   0.930   0.447   3.220
 7394TIP3    H122146   0.973   0.524   3.181
 7394TIP3    H222147   0.843   0.446   3.179
 7395TIP3   OH222148   3.721   5.999   2.189
 7395TIP3    H122149   3.680   6.043   2.263
 7395TIP3    H222150   3.806   6.041   2.180
 7396TIP3   OH222151   4.244   5.000   0.556
 7396TIP3    H122152   4.300   5.056   0.501
 7396TIP3    H222153   4.155   5.017   0.524
 7397TIP3   OH222154   0.146   5.034   4.850
 7397TIP3    H122155   0.231   4.989   4.844
 7397TIP3    H222156   0.165   5.125   4.831
 7398TIP3   OH222157   3.158   5.138   2.123
 7398TIP3    H122158   3.147   5.105   2.033
 7398TIP3    H222159   3.119   5.226   2.120
 7399TIP3   OH222160   2.377   2.513   3.454
 7399TIP3    H122161   2.392   2.448   3.385
 7399TIP3    H222162   2.365   2.461   3.533
 7400TIP3   OH222163   1.036   0.184   3.224
 7400TIP3    H122164   1.030   0.097   3.184
 7400TIP3    H222165   0.947   0.218   3.221
 7401TIP3   OH222166   2.577   0.870   1.906
 7401TIP3    H122167   2.612   0.804   1.846
 7401TIP3    H222168   2.484   0.873   1.887
 7402TIP3   OH222169   5.414   0.481   4.529
 7402TIP3    H122170   5.369   0.489   4.613
 7402TIP3    H222171   5.467   0.402   4.537
 7403TIP3   OH222172   1.776   6.640   4.616
 7403TIP3    H122173   1.828   6.685   4.683
 7403TIP3    H222174   1.686   6.648   4.647
 7404TIP3   OH222175   3.180   6.011   2.406
 7404TIP3    H122176   3.173   5.915   2.407
 7404TIP3    H222177   3.243   6.029   2.336
 7405TIP3   OH222178   3.502   1.064   2.249
 7405TIP3    H122179   3.579   1.118   2.265
 7405TIP3    H222180   3.468   1.095   2.165
 7406TIP3   OH222181   1.228   4.243   2.521
 7406TIP3    H122182   1.295   4.293   2.568
 7406TIP3    H222183   1.200   4.300   2.450
 7407TIP3   OH222184   4.526   0.843   4.920
 7407TIP3    H122185   4.613   0.816   4.890
 7407TIP3    H222186   4.541   0.877   5.008
 7408TIP3   OH222187   0.431   0.193   2.144
 7408TIP3    H122188   0.411   0.152   2.060
 7408TIP3    H222189   0.435   0.120   2.206
 7409TIP3   OH222190   2.198   2.787   2.756
 7409TIP3    H122191   2.119   2.812   2.708
 7409TIP3    H222192   2.245   2.869   2.768
 7410TIP3   OH222193   3.884   1.718   0.089
 7410TIP3    H122194   3.804   1.744   0.044
 7410TIP3    H222195   3.884   1.622   0.084
 7411TIP3   OH222196   2.471   6.456   1.257
 7411TIP3    H122197   2.494   6.372   1.217
 7411TIP3    H222198   2.468   6.438   1.351
 7412TIP3   OH222199   3.315   3.620   2.031
 7412TIP3    H122200   3.249   3.654   2.090
 7412TIP3    H222201   3.336   3.694   1.974
 7413TIP3   OH222202   0.404   5.792   5.350
 7413TIP3    H122203   0.384   5.885   5.341
 7413TIP3    H222204   0.445   5.768   5.266
 7414TIP3   OH222205   7.059   3.625   4.738
 7414TIP3    H122206   7.053   3.542   4.786
 7414TIP3    H222207   7.033   3.603   4.649
 7415TIP3   OH222208   3.034   3.227   4.903
 7415TIP3    H122209   3.096   3.167   4.861
 7415TIP3    H222210   3.087   3.300   4.934
 7416TIP3   OH222211   3.389   2.246   3.551
 7416TIP3    H122212   3.474   2.224   3.513
 7416TIP3    H222213   3.343   2.161   3.557
 7417TIP3   OH222214   0.267   5.739   1.391
 7417TIP3    H122215   0.199   5.749   1.324
 7417TIP3    H222216   0.262   5.819   1.442
 7418TIP3   OH222217   1.204   3.405   1.793
 7418TIP3    H122218   1.251   3.481   1.827
 7418TIP3    H222219   1.172   3.359   1.870
 7419TIP3   OH222220   2.235   3.631   5.141
 7419TIP3    H122221   2.281   3.594   5.216
 7419TIP3    H222222   2.234   3.725   5.158
 7420TIP3   OH222223   7.095   6.572   0.757
 7420TIP3    H122224   7.181   6.580   0.799
 7420TIP3    H222225   7.033   6.566   0.829
 7421TIP3   OH222226   2.674   3.644   1.667
 7421TIP3    H122227   2.726   3.712   1.709
 7421TIP3    H222228   2.723   3.621   1.588
 7422TIP3   OH222229   4.968   1.251   2.763
 7422TIP3    H122230   5.010   1.323   2.810
 7422TIP3    H222231   5.024   1.175   2.779
 7423TIP3   OH222232   1.598   0.909   2.160
 7423TIP3    H122233   1.540   0.844   2.121
 7423TIP3    H222234   1.559   0.929   2.245
 7424TIP3   OH222235   1.326   5.889   3.887
 7424TIP3    H122236   1.415   5.884   3.921
 7424TIP3    H222237   1.282   5.812   3.924
 7425TIP3   OH222238   5.581   1.071   4.324
 7425TIP3    H122239   5.657   1.058   4.382
 7425TIP3    H222240   5.509   1.092   4.384
 7426TIP3   OH222241   0.414   2.264   1.662
 7426TIP3    H122242   0.366   2.190   1.699
 7426TIP3    H222243   0.396   2.260   1.568
 7427TIP3   OH222244   3.284   0.061   3.190
 7427TIP3    H122245   3.372   0.094   3.175
 7427TIP3    H222246   3.293   0.000   3.263
 7428TIP3   OH222247   1.875   5.301   4.161
 7428TIP3    H122248   1.813   5.355   4.210
 7428TIP3    H222249   1.841   5.300   4.071
 7429TIP3   OH222250   3.266   6.694   1.932
 7429TIP3    H122251   3.357   6.713   1.954
 7429TIP3    H222252   3.225   6.669   2.014
 7430TIP3   OH222253   2.052   0.078   3.206
 7430TIP3    H122254   2.053  -0.013   3.178
 7430TIP3    H222255   1.961   0.095   3.230
 7431TIP3   OH222256   5.701   6.268   2.208
 7431TIP3    H122257   5.628   6.235   2.155
 7431TIP3    H222258   5.724   6.195   2.265
 7432TIP3   OH222259   3.576   0.659   1.932
 7432TIP3    H122260   3.574   0.610   2.014
 7432TIP3    H222261   3.597   0.749   1.957
 7433TIP3   OH222262   2.639   1.559   1.585
 7433TIP3    H122263   2.653   1.559   1.490
 7433TIP3    H222264   2.560   1.611   1.598
 7434TIP3   OH222265   3.712   2.874   3.027
 7434TIP3    H122266   3.775   2.945   3.041
 7434TIP3    H222267   3.659   2.903   2.952
 7435TIP3   OH222268   3.504   2.704   5.477
 7435TIP3    H122269   3.476   2.616   5.451
 7435TIP3    H222270   3.478   2.759   5.403
 7436TIP3   OH222271   4.467   4.777   1.450
 7436TIP3    H122272   4.531   4.718   1.411
 7436TIP3    H222273   4.401   4.720   1.488
 7437TIP3   OH222274   5.082   2.616   1.248
 7437TIP3    H122275   5.163   2.569   1.265
 7437TIP3    H222276   5.065   2.664   1.329
 7438TIP3   OH222277   2.726   2.465   4.431
 7438TIP3    H122278   2.679   2.516   4.496
 7438TIP3    H222279   2.732   2.523   4.355
 7439TIP3   OH222280   1.882   4.347   5.207
 7439TIP3    H122281   1.837   4.263   5.219
 7439TIP3    H222282   1.938   4.333   5.131
 7440TIP3   OH222283   5.751   5.800   0.257
 7440TIP3    H122284   5.744   5.761   0.170
 7440TIP3    H222285   5.661   5.820   0.281
 7441TIP3   OH222286   3.934   3.568   3.340
 7441TIP3    H122287   3.849   3.558   3.298
 7441TIP3    H222288   3.974   3.482   3.333
 7442TIP3   OH222289   0.604   1.506   1.399
 7442TIP3    H122290   0.654   1.582   1.368
 7442TIP3    H222291   0.527   1.503   1.343
 7443TIP3   OH222292   4.815   4.611   0.217
 7443TIP3    H122293   4.736   4.566   0.247
 7443TIP3    H222294   4.867   4.543   0.176
 7444TIP3   OH222295   6.742   6.085   4.065
 7444TIP3    H122296   6.773   5.996   4.047
 7444TIP3    H222297   6.732   6.124   3.978
 7445TIP3   OH222298   1.966   1.412   4.155
 7445TIP3    H122299   2.044   1.434   4.103
 7445TIP3    H222300   1.995   1.423   4.246
 7446TIP3   OH222301   5.289   1.868   0.311
 7446TIP3    H122302   5.251   1.889   0.226
 7446TIP3    H222303   5.221   1.890   0.374
 7447TIP3   OH222304   0.440   6.162   3.524
 7447TIP3    H122305   0.430   6.255   3.503
 7447TIP3    H222306   0.444   6.118   3.439
 7448TIP3   OH222307   5.265   6.720   4.124
 7448TIP3    H122308   5.231   6.704   4.212
 7448TIP3    H222309   5.293   6.811   4.126
 7449TIP3   OH222310   1.014   1.707   3.543
 7449TIP3    H122311   1.007   1.613   3.530
 7449TIP3    H222312   1.072   1.737   3.473
 7450TIP3   OH222313   5.347   5.978   3.171
 7450TIP3    H122314   5.294   5.899   3.173
 7450TIP3    H222315   5.394   5.977   3.254
 7451TIP3   OH222316   4.664   4.119   0.097
 7451TIP3    H122317   4.696   4.045   0.046
 7451TIP3    H222318   4.569   4.112   0.093
 7452TIP3   OH222319   6.132   2.528   3.497
 7452TIP3    H122320   6.055   2.474   3.477
 7452TIP3    H222321   6.205   2.483   3.456
 7453TIP3   OH222322   3.756   0.633   3.435
 7453TIP3    H122323   3.715   0.549   3.417
 7453TIP3    H222324   3.850   0.615   3.431
 7454TIP3   OH222325   0.334   6.710   3.387
 7454TIP3    H122326   0.298   6.783   3.338
 7454TIP3    H222327   0.283   6.634   3.358
 7455TIP3   OH222328   0.213   0.656   5.637
 7455TIP3    H122329   0.285   0.682   5.580
 7455TIP3    H222330   0.220   0.712   5.714
 7456TIP3   OH222331   4.640   0.129   3.823
 7456TIP3    H122332   4.595   0.048   3.848
 7456TIP3    H222333   4.574   0.180   3.776
 7457TIP3   OH222334   2.840   3.431   4.221
 7457TIP3    H122335   2.899   3.504   4.205
 7457TIP3    H222336   2.822   3.395   4.135
 7458TIP3   OH222337   0.045   1.616   3.610
 7458TIP3    H122338  -0.038   1.658   3.633
 7458TIP3    H222339   0.093   1.611   3.693
 7459TIP3   OH222340   1.429   1.026   4.068
 7459TIP3    H122341   1.494   1.041   4.136
 7459TIP3    H222342   1.367   1.099   4.077
 7460TIP3   OH222343   6.227   2.852   3.507
 7460TIP3    H122344   6.221   2.839   3.602
 7460TIP3    H222345   6.270   2.773   3.475
 7461TIP3   OH222346   3.746   3.140   0.451
 7461TIP3    H122347   3.662   3.169   0.485
 7461TIP3    H222348   3.729   3.118   0.359
 7462TIP3   OH222349   4.300   6.123   0.732
 7462TIP3    H122350   4.212   6.133   0.697
 7462TIP3    H222351   4.297   6.042   0.782
 7463TIP3   OH222352   0.879   4.092   4.675
 7463TIP3    H122353   0.897   4.003   4.647
 7463TIP3    H222354   0.840   4.134   4.598
 7464TIP3   OH222355   6.062   2.309   1.166
 7464TIP3    H122356   6.037   2.217   1.180
 7464TIP3    H222357   6.062   2.347   1.253
 7465TIP3   OH222358   4.365   0.726   5.531
 7465TIP3    H122359   4.276   0.752   5.556
 7465TIP3    H222360   4.384   0.779   5.453
 7466TIP3   OH222361   6.490   5.080   0.904
 7466TIP3    H122362   6.460   5.103   0.992
 7466TIP3    H222363   6.571   5.031   0.918
 7467TIP3   OH222364   4.333   1.459   1.260
 7467TIP3    H122365   4.357   1.546   1.292
 7467TIP3    H222366   4.333   1.404   1.339
 7468TIP3   OH222367   6.763   4.565   2.641
 7468TIP3    H122368   6.696   4.505   2.608
 7468TIP3    H222369   6.779   4.624   2.567
 7469TIP3   OH222370   1.445   6.518   0.179
 7469TIP3    H122371   1.467   6.432   0.143
 7469TIP3    H222372   1.435   6.574   0.102
 7470TIP3   OH222373   6.189   0.218   4.499
 7470TIP3    H122374   6.159   0.224   4.408
 7470TIP3    H222375   6.109   0.229   4.551
 7471TIP3   OH222376   2.475   5.370   1.734
 7471TIP3    H122377   2.393   5.342   1.694
 7471TIP3    H222378   2.485   5.312   1.810
 7472TIP3   OH222379   1.271   6.679   1.845
 7472TIP3    H122380   1.360   6.645   1.850
 7472TIP3    H222381   1.215   6.602   1.843
 7473TIP3   OH222382   3.305   4.500   4.471
 7473TIP3    H122383   3.378   4.447   4.437
 7473TIP3    H222384   3.348   4.576   4.511
 7474TIP3   OH222385   2.255   3.761   3.924
 7474TIP3    H122386   2.165   3.775   3.953
 7474TIP3    H222387   2.246   3.712   3.842
 7475TIP3   OH222388   4.662   0.925   2.266
 7475TIP3    H122389   4.609   0.943   2.188
 7475TIP3    H222390   4.651   0.831   2.280
 7476TIP3   OH222391   1.577   4.880   0.060
 7476TIP3    H122392   1.636   4.804   0.069
 7476TIP3    H222393   1.499   4.855   0.109
 7477TIP3   OH222394   5.918   2.483   3.136
 7477TIP3    H122395   5.884   2.543   3.202
 7477TIP3    H222396   5.847   2.419   3.123
 7478TIP3   OH222397   0.837   6.406   1.080
 7478TIP3    H122398   0.783   6.378   1.007
 7478TIP3    H222399   0.808   6.354   1.154
 7479TIP3   OH222400   1.579   5.831   2.681
 7479TIP3    H122401   1.551   5.909   2.729
 7479TIP3    H222402   1.573   5.855   2.589
 7480TIP3   OH222403   5.111   6.580   1.465
 7480TIP3    H122404   5.096   6.541   1.379
 7480TIP3    H222405   5.168   6.518   1.510
 7481TIP3   OH222406   0.019   0.186   1.729
 7481TIP3    H122407  -0.017   0.159   1.814
 7481TIP3    H222408  -0.058   0.207   1.676
 7482TIP3   OH222409   1.515   3.079   3.289
 7482TIP3    H122410   1.523   3.058   3.382
 7482TIP3    H222411   1.603   3.072   3.255
 7483TIP3   OH222412   3.384   3.339   2.350
 7483TIP3    H122413   3.461   3.388   2.321
 7483TIP3    H222414   3.323   3.344   2.276
 7484TIP3   OH222415   1.260   3.006   3.029
 7484TIP3    H122416   1.347   3.000   2.989
 7484TIP3    H222417   1.278   3.020   3.122
 7485TIP3   OH222418   6.704   6.054   5.883
 7485TIP3    H122419   6.786   6.092   5.914
 7485TIP3    H222420   6.682   6.105   5.805
 7486TIP3   OH222421   4.868   4.906   1.031
 7486TIP3    H122422   4.943   4.910   0.971
 7486TIP3    H222423   4.878   4.984   1.086
 7487TIP3   OH222424   5.424   2.464   3.216
 7487TIP3    H122425   5.514   2.471   3.186
 7487TIP3    H222426   5.427   2.492   3.307
 7488TIP3   OH222427   0.375   5.680   1.928
 7488TIP3    H122428   0.431   5.688   1.851
 7488TIP3    H222429   0.435   5.693   2.002
 7489TIP3   OH222430   5.656   2.815   5.655
 7489TIP3    H122431   5.670   2.890   5.597
 7489TIP3    H222432   5.696   2.741   5.609
 7490TIP3   OH222433   3.693   2.180   5.585
 7490TIP3    H122434   3.769   2.237   5.590
 7490TIP3    H222435   3.666   2.167   5.676
 7491TIP3   OH222436   3.695   0.355   5.235
 7491TIP3    H122437   3.759   0.315   5.176
 7491TIP3    H222438   3.612   0.313   5.212
 7492TIP3   OH222439   6.415   6.563   0.616
 7492TIP3    H122440   6.342   6.593   0.561
 7492TIP3    H222441   6.424   6.470   0.595
 7493TIP3   OH222442   3.475   0.371   1.874
 7493TIP3    H122443   3.537   0.415   1.933
 7493TIP3    H222444   3.523   0.363   1.792
 7494TIP3   OH222445   0.232   6.475   5.227
 7494TIP3    H122446   0.157   6.420   5.204
 7494TIP3    H222447   0.256   6.447   5.316
 7495TIP3   OH222448   2.324   1.253   0.927
 7495TIP3    H122449   2.292   1.305   0.853
 7495TIP3    H222450   2.267   1.176   0.928
 7496TIP3   OH222451   1.328   4.082   0.833
 7496TIP3    H122452   1.235   4.096   0.845
 7496TIP3    H222453   1.366   4.094   0.921
 7497TIP3   OH222454   3.924   5.813   5.014
 7497TIP3    H122455   3.966   5.899   5.015
 7497TIP3    H222456   3.876   5.809   5.096
 7498TIP3   OH222457   5.167   5.280   0.083
 7498TIP3    H122458   5.240   5.342   0.081
 7498TIP3    H222459   5.204   5.198   0.051
 7499TIP3   OH222460   6.678   6.563   3.382
 7499TIP3    H122461   6.636   6.627   3.324
 7499TIP3    H222462   6.614   6.550   3.452
 7500TIP3   OH222463   6.814   2.751   4.821
 7500TIP3    H122464   6.735   2.805   4.817
 7500TIP3    H222465   6.869   2.784   4.750
 7501TIP3   OH222466   3.292   1.761   5.452
 7501TIP3    H122467   3.327   1.676   5.480
 7501TIP3    H222468   3.361   1.824   5.474
 7502TIP3   OH222469   0.896   2.533   0.836
 7502TIP3    H122470   0.826   2.470   0.856
 7502TIP3    H222471   0.873   2.567   0.750
 7503TIP3   OH222472   2.620   3.657   0.094
 7503TIP3    H122473   2.604   3.661  -0.001
 7503TIP3    H222474   2.594   3.568   0.119
 7504TIP3   OH222475   2.964   6.192   0.413
 7504TIP3    H122476   2.904   6.215   0.485
 7504TIP3    H222477   2.915   6.129   0.360
 7505TIP3   OH222478   6.612   3.440   1.308
 7505TIP3    H122479   6.607   3.346   1.328
 7505TIP3    H222480   6.542   3.480   1.359
 7506TIP3   OH222481   5.904   4.452   0.226
 7506TIP3    H122482   5.949   4.487   0.149
 7506TIP3    H222483   5.972   4.405   0.273
 7507TIP3   OH222484   5.680   6.688   4.989
 7507TIP3    H122485   5.681   6.699   5.084
 7507TIP3    H222486   5.754   6.630   4.970
 7508TIP3   OH222487   6.520   1.518   1.702
 7508TIP3    H122488   6.573   1.443   1.675
 7508TIP3    H222489   6.454   1.480   1.761
 7509TIP3   OH222490   6.269   0.802   0.786
 7509TIP3    H122491   6.262   0.889   0.747
 7509TIP3    H222492   6.179   0.779   0.810
 7510TIP3   OH222493   2.616   6.229   5.444
 7510TIP3    H122494   2.535   6.278   5.461
 7510TIP3    H222495   2.646   6.201   5.530
 7511TIP3   OH222496   0.450   3.399   2.070
 7511TIP3    H122497   0.529   3.445   2.097
 7511TIP3    H222498   0.389   3.468   2.044
 7512TIP3   OH222499   4.524   1.810   0.478
 7512TIP3    H122500   4.456   1.750   0.509
 7512TIP3    H222501   4.480   1.896   0.474
 7513TIP3   OH222502   4.865   0.521   0.144
 7513TIP3    H122503   4.828   0.438   0.173
 7513TIP3    H222504   4.919   0.498   0.068
 7514TIP3   OH222505   2.077   0.255   2.731
 7514TIP3    H122506   2.085   0.168   2.693
 7514TIP3    H222507   2.059   0.312   2.657
 7515TIP3   OH222508   5.792   1.030   5.501
 7515TIP3    H122509   5.877   1.031   5.544
 7515TIP3    H222510   5.771   1.122   5.487
 7516TIP3   OH222511   2.375   4.514   5.748
 7516TIP3    H122512   2.370   4.452   5.820
 7516TIP3    H222513   2.359   4.460   5.670
 7517TIP3   OH222514   4.970   1.886   4.691
 7517TIP3    H122515   5.024   1.828   4.745
 7517TIP3    H222516   4.892   1.834   4.670
 7518TIP3   OH222517   1.195   1.576   1.529
 7518TIP3    H122518   1.238   1.626   1.459
 7518TIP3    H222519   1.104   1.572   1.502
 7519TIP3   OH222520   1.239   4.964   0.520
 7519TIP3    H122521   1.167   4.910   0.551
 7519TIP3    H222522   1.201   5.018   0.450
 7520TIP3   OH222523   7.086   2.252   1.696
 7520TIP3    H122524   7.143   2.181   1.665
 7520TIP3    H222525   7.017   2.207   1.744
 7521TIP3   OH222526   5.174   4.076   0.289
 7521TIP3    H122527   5.185   4.107   0.379
 7521TIP3    H222528   5.184   4.154   0.235
 7522TIP3   OH222529   6.774   3.480   5.813
 7522TIP3    H122530   6.806   3.429   5.888
 7522TIP3    H222531   6.746   3.414   5.750
 7523TIP3   OH222532   1.499   1.392   1.103
 7523TIP3    H122533   1.545   1.359   1.180
 7523TIP3    H222534   1.490   1.315   1.046
 7524TIP3   OH222535   0.765   4.497   4.132
 7524TIP3    H122536   0.711   4.454   4.065
 7524TIP3    H222537   0.847   4.516   4.087
 7525TIP3   OH222538   7.156   0.325   3.070
 7525TIP3    H122539   7.173   0.417   3.051
 7525TIP3    H222540   7.193   0.277   2.996
 7526TIP3   OH222541   2.109   3.851   2.163
 7526TIP3    H122542   2.142   3.918   2.224
 7526TIP3    H222543   2.043   3.804   2.213
 7527TIP3   OH222544   1.198   0.830   0.788
 7527TIP3    H122545   1.280   0.783   0.804
 7527TIP3    H222546   1.133   0.761   0.772
 7528TIP3   OH222547   1.959   3.349   1.151
 7528TIP3    H122548   1.881   3.295   1.164
 7528TIP3    H222549   2.026   3.287   1.122
 7529TIP3   OH222550   7.002   2.257   1.401
 7529TIP3    H122551   6.987   2.253   1.495
 7529TIP3    H222552   7.054   2.179   1.381
 7530TIP3   OH222553   6.416   1.413   0.676
 7530TIP3    H122554   6.510   1.401   0.669
 7530TIP3    H222555   6.404   1.460   0.758
 7531TIP3   OH222556   1.321   3.338   2.953
 7531TIP3    H122557   1.387   3.271   2.939
 7531TIP3    H222558   1.371   3.416   2.979
 7532TIP3   OH222559   1.450   0.962   4.538
 7532TIP3    H122560   1.447   0.915   4.621
 7532TIP3    H222561   1.388   0.916   4.482
 7533TIP3   OH222562   4.339   0.844   2.737
 7533TIP3    H122563   4.408   0.887   2.687
 7533TIP3    H222564   4.297   0.915   2.787
 7534TIP3   OH222565   2.285   6.479   3.696
 7534TIP3    H122566   2.316   6.390   3.715
 7534TIP3    H222567   2.229   6.501   3.770
 7535TIP3   OH222568   0.924   3.840   3.531
 7535TIP3    H122569   0.859   3.790   3.579
 7535TIP3    H222570   0.996   3.852   3.592
 7536TIP3   OH222571   6.857   5.390   0.108
 7536TIP3    H122572   6.921   5.361   0.173
 7536TIP3    H222573   6.803   5.454   0.153
 7537TIP3   OH222574   1.607   0.175   4.588
 7537TIP3    H122575   1.622   0.226   4.668
 7537TIP3    H222576   1.512   0.174   4.578
 7538TIP3   OH222577   1.459   0.306   5.860
 7538TIP3    H122578   1.486   0.389   5.823
 7538TIP3    H222579   1.421   0.258   5.787
 7539TIP3   OH222580   1.932   4.964   0.714
 7539TIP3    H122581   1.888   4.944   0.796
 7539TIP3    H222582   2.023   4.979   0.738
 7540TIP3   OH222583   6.408   2.533   4.372
 7540TIP3    H122584   6.355   2.553   4.294
 7540TIP3    H222585   6.360   2.462   4.415
 7541TIP3   OH222586   6.141   3.543   2.808
 7541TIP3    H122587   6.113   3.559   2.718
 7541TIP3    H222588   6.110   3.455   2.828
 7542TIP3   OH222589   3.600   4.914   1.488
 7542TIP3    H122590   3.529   4.971   1.459
 7542TIP3    H222591   3.650   4.895   1.408
 7543TIP3   OH222592   2.777   5.837   1.578
 7543TIP3    H122593   2.748   5.919   1.616
 7543TIP3    H222594   2.699   5.781   1.579
 7544TIP3   OH222595   2.977   6.234   2.830
 7544TIP3    H122596   3.006   6.260   2.917
 7544TIP3    H222597   3.051   6.184   2.794
 7545TIP3   OH222598   2.923   5.651   5.755
 7545TIP3    H122599   3.002   5.628   5.705
 7545TIP3    H222600   2.955   5.673   5.842
 7546TIP3   OH222601   2.649   3.445   0.984
 7546TIP3    H122602   2.569   3.415   1.027
 7546TIP3    H222603   2.720   3.421   1.044
 7547TIP3   OH222604   5.313   2.833   4.960
 7547TIP3    H122605   5.369   2.877   5.025
 7547TIP3    H222606   5.227   2.828   5.002
 7548TIP3   OH222607   4.315   3.840   0.572
 7548TIP3    H122608   4.256   3.765   0.579
 7548TIP3    H222609   4.261   3.916   0.595
 7549TIP3   OH222610   0.176   2.128   1.755
 7549TIP3    H122611   0.111   2.099   1.691
 7549TIP3    H222612   0.173   2.062   1.824
 7550TIP3   OH222613   0.330   3.086   5.828
 7550TIP3    H122614   0.379   3.032   5.889
 7550TIP3    H222615   0.238   3.064   5.845
 7551TIP3   OH222616   0.312   4.018   3.325
 7551TIP3    H122617   0.313   3.933   3.368
 7551TIP3    H222618   0.289   4.000   3.234
 7552TIP3   OH222619   1.772   3.260   5.895
 7552TIP3    H122620   1.861   3.276   5.864
 7552TIP3    H222621   1.716   3.304   5.831
 7553TIP3   OH222622   6.305   4.801   4.299
 7553TIP3    H122623   6.296   4.833   4.210
 7553TIP3    H222624   6.258   4.865   4.353
 7554TIP3   OH222625   3.513   0.419   4.519
 7554TIP3    H122626   3.441   0.472   4.484
 7554TIP3    H222627   3.494   0.412   4.613
 7555TIP3   OH222628   6.105   6.619   3.601
 7555TIP3    H122629   6.153   6.702   3.613
 7555TIP3    H222630   6.069   6.599   3.687
 7556TIP3   OH222631   1.717   3.001   5.799
 7556TIP3    H122632   1.718   2.926   5.858
 7556TIP3    H222633   1.649   3.059   5.835
 7557TIP3   OH222634   6.300   2.094   0.752
 7557TIP3    H122635   6.333   2.175   0.714
 7557TIP3    H222636   6.207   2.112   0.770
 7558TIP3   OH222637   6.454   2.568   5.563
 7558TIP3    H122638   6.531   2.562   5.506
 7558TIP3    H222639   6.414   2.652   5.540
 7559TIP3   OH222640   3.993   5.304   5.780
 7559TIP3    H122641   4.019   5.311   5.689
 7559TIP3    H222642   3.924   5.370   5.790
 7560TIP3   OH222643   6.369   2.513   1.196
 7560TIP3    H122644   6.317   2.481   1.270
 7560TIP3    H222645   6.338   2.462   1.121
 7561TIP3   OH222646   6.138   1.313   4.128
 7561TIP3    H122647   6.110   1.405   4.124
 7561TIP3    H222648   6.159   1.291   4.038
 7562TIP3   OH222649   1.107   0.686   2.910
 7562TIP3    H122650   1.015   0.711   2.919
 7562TIP3    H222651   1.130   0.650   2.996
 7563TIP3   OH222652   4.707   0.775   1.497
 7563TIP3    H122653   4.682   0.762   1.405
 7563TIP3    H222654   4.727   0.686   1.528
 7564TIP3   OH222655   3.537   2.112   1.843
 7564TIP3    H122656   3.446   2.096   1.869
 7564TIP3    H222657   3.589   2.059   1.903
 7565TIP3   OH222658   4.999   2.082   0.256
 7565TIP3    H122659   5.023   2.061   0.346
 7565TIP3    H222660   4.908   2.052   0.249
 7566TIP3   OH222661   5.863   4.889   5.301
 7566TIP3    H122662   5.785   4.922   5.255
 7566TIP3    H222663   5.882   4.956   5.367
 7567TIP3   OH222664   5.858   5.018   3.413
 7567TIP3    H122665   5.855   5.050   3.323
 7567TIP3    H222666   5.888   5.093   3.464
 7568TIP3   OH222667   3.817   5.078   4.358
 7568TIP3    H122668   3.752   5.065   4.288
 7568TIP3    H222669   3.873   5.001   4.353
 7569TIP3   OH222670   2.451   2.069   4.958
 7569TIP3    H122671   2.468   2.135   5.026
 7569TIP3    H222672   2.493   1.990   4.992
 7570TIP3   OH222673   2.663   3.637   3.551
 7570TIP3    H122674   2.694   3.688   3.476
 7570TIP3    H222675   2.590   3.689   3.586
 7571TIP3   OH222676   4.545   6.273   4.293
 7571TIP3    H122677   4.475   6.304   4.235
 7571TIP3    H222678   4.526   6.314   4.377
 7572TIP3   OH222679   3.734   5.975   0.445
 7572TIP3    H122680   3.638   5.971   0.454
 7572TIP3    H222681   3.757   6.061   0.479
 7573TIP3   OH222682   4.239   0.389   4.373
 7573TIP3    H122683   4.187   0.314   4.401
 7573TIP3    H222684   4.193   0.423   4.296
 7574TIP3   OH222685   3.944   1.682   4.653
 7574TIP3    H122686   3.854   1.714   4.659
 7574TIP3    H222687   3.998   1.756   4.680
 7575TIP3   OH222688   5.325   0.589   3.332
 7575TIP3    H122689   5.403   0.638   3.303
 7575TIP3    H222690   5.342   0.570   3.424
 7576TIP3   OH222691   6.065   5.403   4.384
 7576TIP3    H122692   6.093   5.362   4.465
 7576TIP3    H222693   5.969   5.404   4.389
 7577TIP3   OH222694   6.907   0.402   0.553
 7577TIP3    H122695   6.865   0.337   0.609
 7577TIP3    H222696   6.906   0.363   0.466
 7578TIP3   OH222697   1.599   6.454   2.343
 7578TIP3    H122698   1.588   6.361   2.326
 7578TIP3    H222699   1.510   6.488   2.352
 7579TIP3   OH222700   2.428   3.400   1.602
 7579TIP3    H122701   2.445   3.328   1.663
 7579TIP3    H222702   2.514   3.419   1.563
 7580TIP3   OH222703   0.688   2.944   0.617
 7580TIP3    H122704   0.612   2.999   0.598
 7580TIP3    H222705   0.756   3.006   0.644
 7581TIP3   OH222706   4.476   0.531   1.671
 7581TIP3    H122707   4.516   0.502   1.589
 7581TIP3    H222708   4.530   0.605   1.699
 7582TIP3   OH222709   5.911   4.133   2.985
 7582TIP3    H122710   5.938   4.152   3.075
 7582TIP3    H222711   5.820   4.164   2.980
 7583TIP3   OH222712   5.530   5.276   5.026
 7583TIP3    H122713   5.550   5.359   5.070
 7583TIP3    H222714   5.548   5.294   4.934
 7584TIP3   OH222715   3.377   5.480   2.181
 7584TIP3    H122716   3.433   5.426   2.125
 7584TIP3    H222717   3.291   5.475   2.141
 7585TIP3   OH222718   3.949   3.533   2.512
 7585TIP3    H122719   3.872   3.588   2.505
 7585TIP3    H222720   4.000   3.571   2.584
 7586TIP3   OH222721   4.275   2.449   0.622
 7586TIP3    H122722   4.236   2.365   0.645
 7586TIP3    H222723   4.199   2.506   0.605
 7587TIP3   OH222724   5.012   4.099   1.113
 7587TIP3    H122725   5.106   4.100   1.099
 7587TIP3    H222726   4.978   4.038   1.048
 7588TIP3   OH222727   3.185   3.827   4.986
 7588TIP3    H122728   3.231   3.851   4.906
 7588TIP3    H222729   3.164   3.734   4.974
 7589TIP3   OH222730   4.956   1.926   0.740
 7589TIP3    H122731   4.906   1.844   0.746
 7589TIP3    H222732   4.896   1.986   0.696
 7590TIP3   OH222733   5.543   5.230   5.766
 7590TIP3    H122734   5.492   5.150   5.761
 7590TIP3    H222735   5.482   5.299   5.739
 7591TIP3   OH222736   4.278   3.595   3.916
 7591TIP3    H122737   4.343   3.567   3.980
 7591TIP3    H222738   4.242   3.514   3.881
 7592TIP3   OH222739   2.145   3.964   3.295
 7592TIP3    H122740   2.200   4.036   3.327
 7592TIP3    H222741   2.129   3.910   3.372
 7593TIP3   OH222742   5.899   6.537   0.431
 7593TIP3    H122743   5.933   6.566   0.346
 7593TIP3    H222744   5.804   6.543   0.423
 7594TIP3   OH222745   4.689   2.388   4.493
 7594TIP3    H122746   4.625   2.402   4.423
 7594TIP3    H222747   4.731   2.305   4.471
 7595TIP3   OH222748   4.928   3.774   3.810
 7595TIP3    H122749   4.995   3.779   3.878
 7595TIP3    H222750   4.876   3.853   3.822
 7596TIP3   OH222751   0.333   6.815   0.764
 7596TIP3    H122752   0.305   6.893   0.716
 7596TIP3    H222753   0.406   6.845   0.818
 7597TIP3   OH222754   6.336   5.769   3.537
 7597TIP3    H122755   6.360   5.827   3.465
 7597TIP3    H222756   6.263   5.813   3.580
 7598TIP3   OH222757   3.442   0.209   1.300
 7598TIP3    H122758   3.381   0.149   1.343
 7598TIP3    H222759   3.402   0.295   1.312
 7599TIP3   OH222760   5.309   5.415   3.084
 7599TIP3    H122761   5.323   5.340   3.027
 7599TIP3    H222762   5.397   5.450   3.099
 7600TIP3   OH222763   1.830   3.863   1.954
 7600TIP3    H122764   1.804   3.852   2.046
 7600TIP3    H222765   1.878   3.783   1.933
 7601TIP3   OH222766   0.384   1.076   4.331
 7601TIP3    H122767   0.331   1.104   4.406
 7601TIP3    H222768   0.326   1.019   4.281
 7602TIP3   OH222769   6.337   1.079   2.644
 7602TIP3    H122770   6.347   1.110   2.734
 7602TIP3    H222771   6.302   0.990   2.653
 7603TIP3   OH222772   1.845   4.036   1.160
 7603TIP3    H122773   1.757   4.004   1.140
 7603TIP3    H222774   1.893   3.958   1.188
 7604TIP3   OH222775   3.846   2.589   1.828
 7604TIP3    H122776   3.781   2.521   1.810
 7604TIP3    H222777   3.929   2.550   1.801
 7605TIP3   OH222778   0.072   2.512   5.444
 7605TIP3    H122779   0.076   2.531   5.538
 7605TIP3    H222780   0.058   2.417   5.439
 7606TIP3   OH222781   0.155   6.305   2.063
 7606TIP3    H122782   0.196   6.297   1.977
 7606TIP3    H222783   0.228   6.317   2.123
 7607TIP3   OH222784   4.638   5.391   3.660
 7607TIP3    H122785   4.687   5.464   3.698
 7607TIP3    H222786   4.661   5.393   3.567
 7608TIP3   OH222787   7.026   1.762   2.812
 7608TIP3    H122788   7.073   1.823   2.755
 7608TIP3    H222789   7.090   1.694   2.832
 7609TIP3   OH222790   6.290   0.583   5.110
 7609TIP3    H122791   6.300   0.530   5.190
 7609TIP3    H222792   6.222   0.647   5.133
 7610TIP3   OH222793   7.131   1.462   4.883
 7610TIP3    H122794   7.037   1.463   4.902
 7610TIP3    H222795   7.137   1.444   4.789
 7611TIP3   OH222796   4.883   0.219   2.516
 7611TIP3    H122797   4.906   0.167   2.592
 7611TIP3    H222798   4.896   0.310   2.544
 7612TIP3   OH222799   2.657   2.940   0.954
 7612TIP3    H122800   2.727   2.980   0.903
 7612TIP3    H222801   2.662   2.983   1.040
 7613TIP3   OH222802   0.115   1.227   0.511
 7613TIP3    H122803   0.048   1.295   0.496
 7613TIP3    H222804   0.077   1.171   0.578
 7614TIP3   OH222805   1.731   5.351   3.670
 7614TIP3    H122806   1.799   5.374   3.607
 7614TIP3    H222807   1.649   5.377   3.628
 7615TIP3   OH222808   5.004   0.561   3.512
 7615TIP3    H122809   5.054   0.597   3.438
 7615TIP3    H222810   4.914   0.590   3.497
 7616TIP3   OH222811   2.905   6.343   1.873
 7616TIP3    H122812   2.865   6.388   1.947
 7616TIP3    H222813   2.872   6.389   1.796
 7617TIP3   OH222814   0.945   5.008   3.003
 7617TIP3    H122815   0.925   5.099   2.979
 7617TIP3    H222816   0.916   5.001   3.094
 7618TIP3   OH222817   1.513   6.020   4.265
 7618TIP3    H122818   1.605   6.040   4.246
 7618TIP3    H222819   1.475   6.106   4.286
 7619TIP3   OH222820   6.351   2.637   4.118
 7619TIP3    H122821   6.257   2.620   4.120
 7619TIP3    H222822   6.370   2.652   4.025
 7620TIP3   OH222823   5.351   0.277   0.308
 7620TIP3    H122824   5.263   0.315   0.312
 7620TIP3    H222825   5.400   0.327   0.374
 7621TIP3   OH222826   3.568   4.961   2.416
 7621TIP3    H122827   3.567   5.050   2.381
 7621TIP3    H222828   3.619   4.911   2.353
 7622TIP3   OH222829   0.823   0.604   5.414
 7622TIP3    H122830   0.786   0.674   5.467
 7622TIP3    H222831   0.904   0.641   5.378
 7623TIP3   OH222832   1.821   1.290   0.596
 7623TIP3    H122833   1.727   1.273   0.604
 7623TIP3    H222834   1.852   1.297   0.686
 7624TIP3   OH222835   6.765   3.913   3.527
 7624TIP3    H122836   6.684   3.938   3.572
 7624TIP3    H222837   6.746   3.929   3.434
 7625TIP3   OH222838   5.262   5.421   4.998
 7625TIP3    H122839   5.344   5.373   5.008
 7625TIP3    H222840   5.219   5.413   5.083
 7626TIP3   OH222841   6.438   0.859   2.292
 7626TIP3    H122842   6.458   0.952   2.281
 7626TIP3    H222843   6.511   0.826   2.345
 7627TIP3   OH222844   3.363   2.906   3.880
 7627TIP3    H122845   3.331   2.897   3.970
 7627TIP3    H222846   3.438   2.964   3.887
 7628TIP3   OH222847   2.620   4.154   0.007
 7628TIP3    H122848   2.646   4.062   0.002
 7628TIP3    H222849   2.554   4.157   0.076
 7629TIP3   OH222850   0.648   2.811   2.129
 7629TIP3    H122851   0.711   2.739   2.140
 7629TIP3    H222852   0.644   2.853   2.214
 7630TIP3   OH222853   1.636   2.561   5.602
 7630TIP3    H122854   1.695   2.487   5.617
 7630TIP3    H222855   1.567   2.525   5.546
 7631TIP3   OH222856   3.668   6.409   2.889
 7631TIP3    H122857   3.715   6.341   2.938
 7631TIP3    H222858   3.718   6.420   2.808
 7632TIP3   OH222859   2.289   2.019   1.607
 7632TIP3    H122860   2.301   1.972   1.689
 7632TIP3    H222861   2.197   2.043   1.606
 7633TIP3   OH222862   3.317   1.815   4.202
 7633TIP3    H122863   3.288   1.877   4.135
 7633TIP3    H222864   3.266   1.839   4.280
 7634TIP3   OH222865   3.129   4.392   0.381
 7634TIP3    H122866   3.189   4.332   0.338
 7634TIP3    H222867   3.161   4.399   0.471
 7635TIP3   OH222868   0.188   6.472   3.033
 7635TIP3    H122869   0.201   6.539   2.965
 7635TIP3    H222870   0.133   6.406   2.992
 7636TIP3   OH222871   0.745   1.874   4.027
 7636TIP3    H122872   0.709   1.889   4.114
 7636TIP3    H222873   0.719   1.951   3.976
 7637TIP3   OH222874   4.213   5.536   4.510
 7637TIP3    H122875   4.294   5.542   4.458
 7637TIP3    H222876   4.195   5.442   4.516
 7638TIP3   OH222877   6.255   6.363   1.957
 7638TIP3    H122878   6.343   6.366   1.996
 7638TIP3    H222879   6.263   6.413   1.876
 7639TIP3   OH222880   0.497   4.172   3.464
 7639TIP3    H122881   0.516   4.124   3.545
 7639TIP3    H222882   0.437   4.114   3.416
 7640TIP3   OH222883   3.308   6.637   4.419
 7640TIP3    H122884   3.312   6.587   4.500
 7640TIP3    H222885   3.216   6.660   4.408
 7641TIP3   OH222886   3.746   6.084   2.787
 7641TIP3    H122887   3.801   6.128   2.851
 7641TIP3    H222888   3.736   5.995   2.822
 7642TIP3   OH222889   5.009   0.623   5.634
 7642TIP3    H122890   4.995   0.550   5.573
 7642TIP3    H222891   5.040   0.695   5.578
 7643TIP3   OH222892   1.263   0.320   0.785
 7643TIP3    H122893   1.285   0.304   0.693
 7643TIP3    H222894   1.340   0.364   0.821
 7644TIP3   OH222895   2.591   5.904   0.543
 7644TIP3    H122896   2.663   5.844   0.562
 7644TIP3    H222897   2.584   5.904   0.448
 7645TIP3   OH222898   2.075   3.460   2.089
 7645TIP3    H122899   2.066   3.545   2.046
 7645TIP3    H222900   1.990   3.445   2.130
 7646TIP3   OH222901   6.518   3.819   5.224
 7646TIP3    H122902   6.551   3.812   5.314
 7646TIP3    H222903   6.454   3.890   5.228
 7647TIP3   OH222904   4.018   4.215   1.513
 7647TIP3    H122905   3.926   4.240   1.507
 7647TIP3    H222906   4.017   4.125   1.544
 7648TIP3   OH222907   0.336   5.125   0.008
 7648TIP3    H122908   0.333   5.163   0.095
 7648TIP3    H222909   0.398   5.180  -0.040
 7649TIP3   OH222910   3.737   4.761   0.175
 7649TIP3    H122911   3.682   4.693   0.214
 7649TIP3    H222912   3.810   4.771   0.235
 7650TIP3   OH222913   6.744   0.343   0.087
 7650TIP3    H122914   6.759   0.320  -0.005
 7650TIP3    H222915   6.652   0.321   0.102
 7651TIP3   OH222916   4.524   6.622   5.765
 7651TIP3    H122917   4.558   6.689   5.705
 7651TIP3    H222918   4.597   6.562   5.778
 7652TIP3   OH222919   0.801   2.349   5.479
 7652TIP3    H122920   0.868   2.281   5.479
 7652TIP3    H222921   0.839   2.421   5.430
 7653TIP3   OH222922   2.990   4.423   4.872
 7653TIP3    H122923   2.899   4.403   4.849
 7653TIP3    H222924   3.036   4.340   4.857
 7654TIP3   OH222925   1.679   1.044   1.556
 7654TIP3    H122926   1.634   1.049   1.640
 7654TIP3    H222927   1.624   1.094   1.496
 7655TIP3   OH222928   4.555   2.247   0.650
 7655TIP3    H122929   4.531   2.183   0.718
 7655TIP3    H222930   4.474   2.263   0.602
 7656TIP3   OH222931   2.611   6.583   4.324
 7656TIP3    H122932   2.564   6.646   4.378
 7656TIP3    H222933   2.616   6.504   4.377
 7657TIP3   OH222934   6.792   6.692   3.812
 7657TIP3    H122935   6.713   6.672   3.862
 7657TIP3    H222936   6.827   6.607   3.786
 7658TIP3   OH222937   4.308   6.235   3.822
 7658TIP3    H122938   4.315   6.241   3.726
 7658TIP3    H222939   4.372   6.169   3.847
 7659TIP3   OH222940   1.442   1.691   5.450
 7659TIP3    H122941   1.428   1.650   5.365
 7659TIP3    H222942   1.517   1.749   5.438
 7660TIP3   OH222943   1.683   6.484   5.413
 7660TIP3    H122944   1.645   6.403   5.447
 7660TIP3    H222945   1.718   6.461   5.327
 7661TIP3   OH222946   5.082   4.292   3.300
 7661TIP3    H122947   5.031   4.211   3.305
 7661TIP3    H222948   5.068   4.336   3.384
 7662TIP3   OH222949   4.350   1.981   1.256
 7662TIP3    H122950   4.420   2.008   1.316
 7662TIP3    H222951   4.270   1.994   1.307
 7663TIP3   OH222952   4.849   6.302   1.744
 7663TIP3    H122953   4.810   6.380   1.706
 7663TIP3    H222954   4.918   6.277   1.682
 7664TIP3   OH222955   6.766   4.088   1.684
 7664TIP3    H122956   6.779   3.999   1.652
 7664TIP3    H222957   6.714   4.078   1.763
 7665TIP3   OH222958   2.597   2.058   2.643
 7665TIP3    H122959   2.583   2.020   2.556
 7665TIP3    H222960   2.517   2.106   2.662
 7666TIP3   OH222961   5.981   0.457   3.357
 7666TIP3    H122962   6.069   0.458   3.396
 7666TIP3    H222963   5.923   0.482   3.429
 7667TIP3   OH222964   5.233   2.950   5.253
 7667TIP3    H122965   5.145   2.918   5.275
 7667TIP3    H222966   5.291   2.882   5.286
 7668TIP3   OH222967   3.821   2.646   1.517
 7668TIP3    H122968   3.883   2.586   1.476
 7668TIP3    H222969   3.810   2.716   1.453
 7669TIP3   OH222970   0.421   4.881   2.379
 7669TIP3    H122971   0.455   4.968   2.400
 7669TIP3    H222972   0.456   4.863   2.292
 7670TIP3   OH222973   0.573   1.499   2.499
 7670TIP3    H122974   0.634   1.572   2.510
 7670TIP3    H222975   0.500   1.537   2.450
 7671TIP3   OH222976   3.748   4.298   1.443
 7671TIP3    H122977   3.684   4.236   1.410
 7671TIP3    H222978   3.697   4.374   1.471
 7672TIP3   OH222979   6.807   4.564   2.896
 7672TIP3    H122980   6.752   4.640   2.916
 7672TIP3    H222981   6.790   4.546   2.803
 7673TIP3   OH222982   0.324   2.055   4.796
 7673TIP3    H122983   0.369   1.993   4.739
 7673TIP3    H222984   0.237   2.066   4.757
 7674TIP3   OH222985   4.319   1.639   3.344
 7674TIP3    H122986   4.366   1.722   3.335
 7674TIP3    H222987   4.372   1.576   3.295
 7675TIP3   OH222988   2.593   1.393   0.822
 7675TIP3    H122989   2.641   1.407   0.904
 7675TIP3    H222990   2.648   1.333   0.772
 7676TIP3   OH222991   6.395   1.742   0.835
 7676TIP3    H122992   6.441   1.741   0.751
 7676TIP3    H222993   6.391   1.650   0.861
 7677TIP3   OH222994   0.770   2.341   3.576
 7677TIP3    H122995   0.764   2.358   3.670
 7677TIP3    H222996   0.857   2.305   3.563
 7678TIP3   OH222997   2.883   0.461   0.851
 7678TIP3    H122998   2.898   0.471   0.945
 7678TIP3    H222999   2.816   0.393   0.845
 7679TIP3   OH223000   7.154   2.167   2.125
 7679TIP3    H123001   7.223   2.198   2.184
 7679TIP3    H223002   7.194   2.092   2.080
 7680TIP3   OH223003   5.288   4.818   4.865
 7680TIP3    H123004   5.336   4.894   4.899
 7680TIP3    H223005   5.236   4.853   4.792
 7681TIP3   OH223006   5.966   6.245   0.860
 7681TIP3    H123007   5.897   6.289   0.910
 7681TIP3    H223008   5.998   6.312   0.799
 7682TIP3   OH223009   0.547   4.093   3.729
 7682TIP3    H123010   0.611   4.023   3.744
 7682TIP3    H223011   0.502   4.102   3.813
 7683TIP3   OH223012   3.386   0.393   0.519
 7683TIP3    H123013   3.335   0.468   0.549
 7683TIP3    H223014   3.439   0.368   0.595
 7684TIP3   OH223015   4.077   2.541   3.163
 7684TIP3    H123016   4.136   2.577   3.097
 7684TIP3    H223017   3.992   2.538   3.120
 7685TIP3   OH223018   3.147   3.573   4.869
 7685TIP3    H123019   3.069   3.549   4.819
 7685TIP3    H223020   3.220   3.551   4.812
 7686TIP3   OH223021   2.088   3.747   3.503
 7686TIP3    H123022   2.066   3.832   3.541
 7686TIP3    H223023   2.154   3.711   3.562
 7687TIP3   OH223024   2.557   2.489   1.816
 7687TIP3    H123025   2.630   2.530   1.770
 7687TIP3    H223026   2.594   2.458   1.898
 7688TIP3   OH223027   2.353   0.970   1.421
 7688TIP3    H123028   2.360   1.065   1.412
 7688TIP3    H223029   2.439   0.937   1.394
 7689TIP3   OH223030   6.986   4.583   4.565
 7689TIP3    H123031   6.946   4.498   4.551
 7689TIP3    H223032   6.955   4.637   4.493
 7690TIP3   OH223033   4.060   0.843   1.052
 7690TIP3    H123034   4.088   0.856   0.962
 7690TIP3    H223035   3.975   0.800   1.045
 7691TIP3   OH223036   4.297   0.715   5.033
 7691TIP3    H123037   4.369   0.740   4.975
 7691TIP3    H223038   4.246   0.651   4.984
 7692TIP3   OH223039   5.308   4.533   4.906
 7692TIP3    H123040   5.273   4.620   4.889
 7692TIP3    H223041   5.395   4.532   4.865
 7693TIP3   OH223042   3.671   4.434   3.987
 7693TIP3    H123043   3.679   4.473   3.899
 7693TIP3    H223044   3.680   4.508   4.047
 7694TIP3   OH223045   4.690   5.359   1.232
 7694TIP3    H123046   4.674   5.425   1.300
 7694TIP3    H223047   4.604   5.339   1.197
 7695TIP3   OH223048   3.255   4.512   2.767
 7695TIP3    H123049   3.162   4.530   2.780
 7695TIP3    H223050   3.296   4.598   2.764
 7696TIP3   OH223051   0.619   0.427   1.693
 7696TIP3    H123052   0.712   0.407   1.703
 7696TIP3    H223053   0.606   0.436   1.599
 7697TIP3   OH223054   1.774   5.899   1.420
 7697TIP3    H123055   1.726   5.895   1.337
 7697TIP3    H223056   1.713   5.861   1.484
 7698TIP3   OH223057   1.979   1.310   5.530
 7698TIP3    H123058   1.970   1.390   5.582
 7698TIP3    H223059   1.984   1.240   5.595
 7699TIP3   OH223060   1.541   1.607   3.428
 7699TIP3    H123061   1.475   1.588   3.362
 7699TIP3    H223062   1.602   1.667   3.384
 7700TIP3   OH223063   5.394   2.354   5.548
 7700TIP3    H123064   5.444   2.419   5.597
 7700TIP3    H223065   5.337   2.406   5.491
 7701TIP3   OH223066   5.458   4.417   1.678
 7701TIP3    H123067   5.433   4.359   1.750
 7701TIP3    H223068   5.375   4.440   1.635
 7702TIP3   OH223069   6.012   1.537   0.773
 7702TIP3    H123070   5.976   1.466   0.720
 7702TIP3    H223071   6.002   1.615   0.718
 7703TIP3   OH223072   5.147   4.395   1.974
 7703TIP3    H123073   5.120   4.340   1.901
 7703TIP3    H223074   5.085   4.468   1.975
 7704TIP3   OH223075   2.599   5.512   2.315
 7704TIP3    H123076   2.625   5.601   2.340
 7704TIP3    H223077   2.610   5.461   2.395
 7705TIP3   OH223078   4.544   5.179   4.081
 7705TIP3    H123079   4.545   5.107   4.018
 7705TIP3    H223080   4.536   5.135   4.166
 7706TIP3   OH223081   5.088   5.980   5.853
 7706TIP3    H123082   5.040   5.990   5.936
 7706TIP3    H223083   5.173   5.946   5.880
 7707TIP3   OH223084   0.035   3.666   3.126
 7707TIP3    H123085  -0.006   3.611   3.059
 7707TIP3    H223086   0.017   3.756   3.097
 7708TIP3   OH223087   5.703   2.953   5.227
 7708TIP3    H123088   5.618   2.967   5.186
 7708TIP3    H223089   5.693   2.990   5.315
 7709TIP3   OH223090   5.737   4.847   5.052
 7709TIP3    H123091   5.762   4.857   4.960
 7709TIP3    H223092   5.719   4.936   5.081
 7710TIP3   OH223093   1.542   4.232   4.888
 7710TIP3    H123094   1.539   4.140   4.911
 7710TIP3    H223095   1.635   4.250   4.876
 7711TIP3   OH223096   3.485   4.144   5.689
 7711TIP3    H123097   3.504   4.053   5.713
 7711TIP3    H223098   3.397   4.142   5.653
 7712TIP3   OH223099   2.352   0.664   1.341
 7712TIP3    H123100   2.301   0.624   1.270
 7712TIP3    H223101   2.357   0.756   1.317
 7713TIP3   OH223102   4.739   5.897   5.691
 7713TIP3    H123103   4.685   5.828   5.652
 7713TIP3    H223104   4.707   5.905   5.780
 7714TIP3   OH223105   6.562   4.031   1.314
 7714TIP3    H123106   6.514   4.020   1.396
 7714TIP3    H223107   6.648   4.065   1.341
 7715TIP3   OH223108   1.559   5.056   3.664
 7715TIP3    H123109   1.508   5.103   3.598
 7715TIP3    H223110   1.641   5.034   3.619
 7716TIP3   OH223111   4.867   1.475   0.152
 7716TIP3    H123112   4.852   1.505   0.241
 7716TIP3    H223113   4.933   1.406   0.160
 7717TIP3   OH223114   5.359   6.112   2.529
 7717TIP3    H123115   5.443   6.112   2.483
 7717TIP3    H223116   5.371   6.174   2.601
 7718TIP3   OH223117   1.556   4.237   4.447
 7718TIP3    H123118   1.641   4.276   4.466
 7718TIP3    H223119   1.544   4.171   4.514
 7719TIP3   OH223120   7.135   4.285   4.666
 7719TIP3    H123121   7.067   4.315   4.605
 7719TIP3    H223122   7.217   4.316   4.628
 7720TIP3   OH223123   5.146   6.333   5.109
 7720TIP3    H123124   5.154   6.375   5.194
 7720TIP3    H223125   5.224   6.359   5.061
 7721TIP3   OH223126   6.015   0.726   0.328
 7721TIP3    H123127   5.989   0.634   0.335
 7721TIP3    H223128   6.106   0.723   0.297
 7722TIP3   OH223129   2.583   2.080   5.289
 7722TIP3    H123130   2.498   2.036   5.279
 7722TIP3    H223131   2.585   2.145   5.219
 7723TIP3   OH223132   0.942   5.847   4.350
 7723TIP3    H123133   0.999   5.899   4.406
 7723TIP3    H223134   1.000   5.812   4.282
 7724TIP3   OH223135   0.087   3.997   1.220
 7724TIP3    H123136   0.075   3.968   1.311
 7724TIP3    H223137   0.172   3.963   1.195
 7725TIP3   OH223138   2.978   3.684   0.607
 7725TIP3    H123139   2.909   3.749   0.624
 7725TIP3    H223140   2.935   3.617   0.554
 7726TIP3   OH223141   2.699   3.382   3.449
 7726TIP3    H123142   2.751   3.422   3.518
 7726TIP3    H223143   2.747   3.401   3.369
 7727TIP3   OH223144   1.006   5.129   4.381
 7727TIP3    H123145   0.982   5.038   4.395
 7727TIP3    H223146   0.968   5.151   4.295
 7728TIP3   OH223147   7.031   5.857   3.916
 7728TIP3    H123148   7.081   5.886   3.840
 7728TIP3    H223149   7.049   5.922   3.984
 7729TIP3   OH223150   4.340   6.218   4.569
 7729TIP3    H123151   4.356   6.135   4.613
 7729TIP3    H223152   4.353   6.285   4.636
 7730TIP3   OH223153   2.085   6.780   0.197
 7730TIP3    H123154   2.131   6.774   0.281
 7730TIP3    H223155   2.058   6.690   0.178
 7731TIP3   OH223156   7.042   1.658   0.709
 7731TIP3    H123157   7.092   1.715   0.650
 7731TIP3    H223158   7.077   1.676   0.796
 7732TIP3   OH223159   2.533   1.316   4.698
 7732TIP3    H123160   2.445   1.320   4.736
 7732TIP3    H223161   2.526   1.253   4.627
 7733TIP3   OH223162   3.452   1.269   3.399
 7733TIP3    H123163   3.445   1.173   3.397
 7733TIP3    H223164   3.519   1.287   3.465
 7734TIP3   OH223165   7.219   6.192   0.019
 7734TIP3    H123166   7.196   6.284   0.013
 7734TIP3    H223167   7.275   6.185   0.096
 7735TIP3   OH223168   1.304   6.415   0.838
 7735TIP3    H123169   1.367   6.453   0.898
 7735TIP3    H223170   1.242   6.369   0.894
 7736TIP3   OH223171   6.551   4.779   5.038
 7736TIP3    H123172   6.540   4.873   5.050
 7736TIP3    H223173   6.521   4.763   4.948
 7737TIP3   OH223174   2.771   4.712   4.895
 7737TIP3    H123175   2.749   4.622   4.920
 7737TIP3    H223176   2.864   4.721   4.914
 7738TIP3   OH223177   2.302   5.649   0.733
 7738TIP3    H123178   2.221   5.699   0.725
 7738TIP3    H223179   2.324   5.626   0.643
 7739TIP3   OH223180   6.100   6.398   0.104
 7739TIP3    H123181   6.035   6.465   0.081
 7739TIP3    H223182   6.082   6.325   0.045
 7740TIP3   OH223183   2.656   4.616   1.851
 7740TIP3    H123184   2.699   4.645   1.931
 7740TIP3    H223185   2.612   4.694   1.817
 7741TIP3   OH223186   0.913   1.114   4.442
 7741TIP3    H123187   0.986   1.131   4.383
 7741TIP3    H223188   0.838   1.099   4.384
 7742TIP3   OH223189   7.186   5.784   0.438
 7742TIP3    H123190   7.184   5.697   0.399
 7742TIP3    H223191   7.094   5.810   0.445
 7743TIP3   OH223192   1.117   6.220   4.512
 7743TIP3    H123193   1.040   6.276   4.499
 7743TIP3    H223194   1.163   6.258   4.587
 7744TIP3   OH223195   2.100   5.758   1.578
 7744TIP3    H123196   2.071   5.694   1.643
 7744TIP3    H223197   2.055   5.732   1.498
 7745TIP3   OH223198   1.075   2.511   1.354
 7745TIP3    H123199   1.000   2.474   1.401
 7745TIP3    H223200   1.040   2.532   1.267
 7746TIP3   OH223201   3.988   3.951   1.655
 7746TIP3    H123202   4.069   3.906   1.681
 7746TIP3    H223203   3.967   4.007   1.730
 7747TIP3   OH223204   1.442   1.317   4.250
 7747TIP3    H123205   1.388   1.305   4.172
 7747TIP3    H223206   1.500   1.390   4.228
 7748TIP3   OH223207   0.299   4.706   3.251
 7748TIP3    H123208   0.250   4.670   3.325
 7748TIP3    H223209   0.361   4.637   3.228
 7749TIP3   OH223210   2.079   0.897   5.791
 7749TIP3    H123211   2.034   0.975   5.758
 7749TIP3    H223212   2.096   0.844   5.713
 7750TIP3   OH223213   0.010   1.048   3.005
 7750TIP3    H123214   0.089   1.044   2.950
 7750TIP3    H223215   0.044   1.052   3.095
 7751TIP3   OH223216   2.762   3.264   3.034
 7751TIP3    H123217   2.695   3.225   3.090
 7751TIP3    H223218   2.806   3.188   2.994
 7752TIP3   OH223219   2.698   1.011   0.330
 7752TIP3    H123220   2.642   1.088   0.343
 7752TIP3    H223221   2.786   1.041   0.354
 7753TIP3   OH223222   7.235   5.317   3.052
 7753TIP3    H123223   7.263   5.335   3.142
 7753TIP3    H223224   7.172   5.386   3.032
 7754TIP3   OH223225   5.209   5.998   5.213
 7754TIP3    H123226   5.214   6.061   5.141
 7754TIP3    H223227   5.204   6.052   5.292
 7755TIP3   OH223228   4.081   6.162   1.821
 7755TIP3    H123229   4.082   6.127   1.732
 7755TIP3    H223230   4.149   6.113   1.867
 7756TIP3   OH223231   3.407   5.611   1.405
 7756TIP3    H123232   3.391   5.684   1.346
 7756TIP3    H223233   3.502   5.598   1.401
 7757TIP3   OH223234   3.801   0.689   0.297
 7757TIP3    H123235   3.811   0.780   0.268
 7757TIP3    H223236   3.762   0.644   0.222
 7758TIP3   OH223237   1.916   6.729   4.846
 7758TIP3    H123238   1.982   6.700   4.909
 7758TIP3    H223239   1.960   6.796   4.794
 7759TIP3   OH223240   5.095   2.289   3.056
 7759TIP3    H123241   5.040   2.323   3.127
 7759TIP3    H223242   5.073   2.196   3.051
 7760TIP3   OH223243   3.761   1.095   5.597
 7760TIP3    H123244   3.839   1.151   5.595
 7760TIP3    H223245   3.775   1.036   5.671
 7761TIP3   OH223246   4.470   3.275   4.136
 7761TIP3    H123247   4.444   3.247   4.048
 7761TIP3    H223248   4.545   3.219   4.157
 7762TIP3   OH223249   0.599   1.204   1.548
 7762TIP3    H123250   0.584   1.227   1.456
 7762TIP3    H223251   0.521   1.154   1.574
 7763TIP3   OH223252   4.259   4.807   1.173
 7763TIP3    H123253   4.289   4.828   1.262
 7763TIP3    H223254   4.171   4.844   1.169
 7764TIP3   OH223255   5.092   2.318   4.531
 7764TIP3    H123256   5.014   2.264   4.520
 7764TIP3    H223257   5.149   2.266   4.589
 7765TIP3   OH223258   1.449   2.261   1.802
 7765TIP3    H123259   1.423   2.243   1.711
 7765TIP3    H223260   1.504   2.339   1.796
 7766TIP3   OH223261   7.091   6.066   5.362
 7766TIP3    H123262   7.082   5.978   5.326
 7766TIP3    H223263   7.027   6.118   5.315
 7767TIP3   OH223264   3.821   1.778   3.067
 7767TIP3    H123265   3.880   1.717   3.112
 7767TIP3    H223266   3.815   1.853   3.126
 7768TIP3   OH223267   6.005   3.046   2.197
 7768TIP3    H123268   6.003   2.970   2.139
 7768TIP3    H223269   6.089   3.088   2.179
 7769TIP3   OH223270   0.206   1.100   1.068
 7769TIP3    H123271   0.196   1.010   1.037
 7769TIP3    H223272   0.249   1.092   1.153
 7770TIP3   OH223273   0.858   3.343   0.908
 7770TIP3    H123274   0.805   3.380   0.979
 7770TIP3    H223275   0.912   3.277   0.950
 7771TIP3   OH223276   0.444   5.897   2.194
 7771TIP3    H123277   0.488   5.901   2.109
 7771TIP3    H223278   0.355   5.928   2.177
 7772TIP3   OH223279   0.460   3.608   0.560
 7772TIP3    H123280   0.548   3.627   0.527
 7772TIP3    H223281   0.466   3.625   0.654
 7773TIP3   OH223282   1.047   6.423   4.018
 7773TIP3    H123283   0.965   6.376   4.024
 7773TIP3    H223284   1.104   6.366   3.966
 7774TIP3   OH223285   4.327   5.601   3.296
 7774TIP3    H123286   4.403   5.561   3.255
 7774TIP3    H223287   4.260   5.533   3.294
 7775TIP3   OH223288   5.327   1.957   4.022
 7775TIP3    H123289   5.341   1.973   3.928
 7775TIP3    H223290   5.258   2.019   4.046
 7776TIP3   OH223291   5.413   0.715   5.645
 7776TIP3    H123292   5.479   0.780   5.622
 7776TIP3    H223293   5.368   0.753   5.721
 7777TIP3   OH223294   0.082   0.359   2.801
 7777TIP3    H123295   0.166   0.399   2.778
 7777TIP3    H223296   0.052   0.316   2.721
 7778TIP3   OH223297   0.330   5.165   0.286
 7778TIP3    H123298   0.416   5.166   0.329
 7778TIP3    H223299   0.279   5.103   0.338
 7779TIP3   OH223300   1.245   2.109   4.158
 7779TIP3    H123301   1.175   2.104   4.223
 7779TIP3    H223302   1.213   2.057   4.085
 7780TIP3   OH223303   1.464   6.274   1.865
 7780TIP3    H123304   1.531   6.246   1.801
 7780TIP3    H223305   1.503   6.349   1.909
 7781TIP3   OH223306   0.772   6.363   3.998
 7781TIP3    H123307   0.749   6.283   4.044
 7781TIP3    H223308   0.779   6.337   3.906
 7782TIP3   OH223309   4.650   0.238   2.368
 7782TIP3    H123310   4.733   0.208   2.404
 7782TIP3    H223311   4.600   0.266   2.445
 7783TIP3   OH223312   6.033   0.654   3.987
 7783TIP3    H123313   6.119   0.611   3.985
 7783TIP3    H223314   6.031   0.699   4.071
 7784TIP3   OH223315   4.993   2.529   2.189
 7784TIP3    H123316   4.920   2.553   2.133
 7784TIP3    H223317   4.980   2.436   2.207
 7785TIP3   OH223318   1.820   6.121   3.918
 7785TIP3    H123319   1.912   6.134   3.939
 7785TIP3    H223320   1.777   6.202   3.943
 7786TIP3   OH223321   2.839   3.988   3.616
 7786TIP3    H123322   2.848   3.907   3.666
 7786TIP3    H223323   2.777   4.041   3.667
 7787TIP3   OH223324   6.905   0.876   4.006
 7787TIP3    H123325   6.859   0.810   4.059
 7787TIP3    H223326   6.934   0.941   4.070
 7788TIP3   OH223327   3.653   3.386   4.526
 7788TIP3    H123328   3.661   3.419   4.436
 7788TIP3    H223329   3.640   3.292   4.515
 7789TIP3   OH223330   5.737   1.083   3.217
 7789TIP3    H123331   5.742   0.990   3.236
 7789TIP3    H223332   5.751   1.126   3.301
 7790TIP3   OH223333   2.377   1.407   5.848
 7790TIP3    H123334   2.367   1.322   5.806
 7790TIP3    H223335   2.302   1.414   5.907
 7791TIP3   OH223336   0.052   2.530   4.818
 7791TIP3    H123337   0.004   2.593   4.764
 7791TIP3    H223338   0.121   2.497   4.761
 7792TIP3   OH223339   2.533   5.733   0.916
 7792TIP3    H123340   2.450   5.695   0.889
 7792TIP3    H223341   2.518   5.828   0.912
 7793TIP3   OH223342   2.779   4.335   2.011
 7793TIP3    H123343   2.859   4.351   1.960
 7793TIP3    H223344   2.749   4.249   1.982
 7794TIP3   OH223345   0.867   5.351   5.587
 7794TIP3    H123346   0.784   5.365   5.632
 7794TIP3    H223347   0.918   5.429   5.608
 7795TIP3   OH223348   6.669   6.701   4.998
 7795TIP3    H123349   6.757   6.678   5.028
 7795TIP3    H223350   6.612   6.679   5.072
 7796TIP3   OH223351   6.839   0.120   1.095
 7796TIP3    H123352   6.840   0.209   1.131
 7796TIP3    H223353   6.823   0.133   1.001
 7797TIP3   OH223354   5.962   2.391   1.476
 7797TIP3    H123355   5.973   2.473   1.428
 7797TIP3    H223356   5.877   2.401   1.520
 7798TIP3   OH223357   0.659   5.530   5.318
 7798TIP3    H123358   0.640   5.556   5.409
 7798TIP3    H223359   0.729   5.589   5.290
 7799TIP3   OH223360   1.042   4.588   0.034
 7799TIP3    H123361   0.994   4.671   0.034
 7799TIP3    H223362   1.093   4.589   0.114
 7800TIP3   OH223363   4.273   6.727   4.026
 7800TIP3    H123364   4.352   6.685   4.061
 7800TIP3    H223365   4.211   6.655   4.015
 7801TIP3   OH223366   6.781   1.198   2.380
 7801TIP3    H123367   6.832   1.266   2.424
 7801TIP3    H223368   6.802   1.209   2.287
 7802TIP3   OH223369   6.635   4.752   5.602
 7802TIP3    H123370   6.636   4.773   5.696
 7802TIP3    H223371   6.594   4.828   5.561
 7803TIP3   OH223372   5.902   3.689   4.902
 7803TIP3    H123373   5.993   3.714   4.916
 7803TIP3    H223374   5.894   3.604   4.945
 7804TIP3   OH223375   5.815   1.190   3.724
 7804TIP3    H123376   5.898   1.192   3.677
 7804TIP3    H223377   5.840   1.183   3.816
 7805TIP3   OH223378   4.281   5.730   1.563
 7805TIP3    H123379   4.357   5.783   1.538
 7805TIP3    H223380   4.268   5.748   1.656
 7806TIP3   OH223381   3.518   5.323   1.986
 7806TIP3    H123382   3.475   5.312   1.901
 7806TIP3    H223383   3.598   5.271   1.980
 7807TIP3   OH223384   5.827   3.631   4.312
 7807TIP3    H123385   5.752   3.613   4.255
 7807TIP3    H223386   5.790   3.631   4.401
 7808TIP3   OH223387   6.044   5.887   5.646
 7808TIP3    H123388   5.968   5.829   5.635
 7808TIP3    H223389   6.034   5.952   5.577
 7809TIP3   OH223390   1.118   2.438   0.743
 7809TIP3    H123391   1.048   2.494   0.778
 7809TIP3    H223392   1.090   2.349   0.764
 7810TIP3   OH223393   2.916   2.604   2.989
 7810TIP3    H123394   2.913   2.564   2.902
 7810TIP3    H223395   2.962   2.540   3.044
 7811TIP3   OH223396   6.722   4.260   3.574
 7811TIP3    H123397   6.761   4.294   3.494
 7811TIP3    H223398   6.682   4.177   3.547
 7812TIP3   OH223399   2.106   5.625   2.610
 7812TIP3    H123400   2.109   5.643   2.516
 7812TIP3    H223401   2.025   5.665   2.640
 7813TIP3   OH223402   5.267   5.240   4.579
 7813TIP3    H123403   5.216   5.274   4.653
 7813TIP3    H223404   5.357   5.237   4.611
 7814TIP3   OH223405   5.992   2.897   0.629
 7814TIP3    H123406   5.930   2.943   0.686
 7814TIP3    H223407   5.996   2.950   0.550
 7815TIP3   OH223408   6.013   6.099   1.778
 7815TIP3    H123409   6.081   6.039   1.808
 7815TIP3    H223410   5.963   6.120   1.857
 7816TIP3   OH223411   1.196   6.130   1.044
 7816TIP3    H123412   1.153   6.092   0.967
 7816TIP3    H223413   1.177   6.068   1.115
 7817TIP3   OH223414   4.394   4.513   0.517
 7817TIP3    H123415   4.320   4.522   0.577
 7817TIP3    H223416   4.369   4.440   0.459
 7818TIP3   OH223417   1.113   5.961   1.285
 7818TIP3    H123418   1.158   5.880   1.309
 7818TIP3    H223419   1.128   6.020   1.359
 7819TIP3   OH223420   1.500   3.622   1.771
 7819TIP3    H123421   1.498   3.690   1.704
 7819TIP3    H223422   1.538   3.546   1.727
 7820TIP3   OH223423   6.295   5.997   1.361
 7820TIP3    H123424   6.330   5.908   1.364
 7820TIP3    H223425   6.372   6.053   1.372
 7821TIP3   OH223426   1.795   4.412   4.372
 7821TIP3    H123427   1.846   4.455   4.303
 7821TIP3    H223428   1.720   4.375   4.326
 7822TIP3   OH223429   1.952   0.319   1.240
 7822TIP3    H123430   1.951   0.412   1.218
 7822TIP3    H223431   1.898   0.312   1.318
 7823TIP3   OH223432   4.366   4.555   1.586
 7823TIP3    H123433   4.288   4.514   1.549
 7823TIP3    H223434   4.379   4.510   1.669
 7824TIP3   OH223435   1.441   2.234   3.924
 7824TIP3    H123436   1.417   2.167   3.987
 7824TIP3    H223437   1.443   2.315   3.974
 7825TIP3   OH223438   1.714   3.541   2.845
 7825TIP3    H123439   1.640   3.530   2.904
 7825TIP3    H223440   1.788   3.502   2.890
 7826TIP3   OH223441   0.368   1.792   3.390
 7826TIP3    H123442   0.441   1.735   3.412
 7826TIP3    H223443   0.324   1.808   3.474
 7827TIP3   OH223444   5.776   4.311   5.581
 7827TIP3    H123445   5.765   4.395   5.627
 7827TIP3    H223446   5.864   4.282   5.607
 7828TIP3   OH223447   4.488   5.007   1.639
 7828TIP3    H123448   4.427   4.962   1.581
 7828TIP3    H223449   4.479   5.100   1.618
 7829TIP3   OH223450   1.330   2.567   3.472
 7829TIP3    H123451   1.376   2.483   3.471
 7829TIP3    H223452   1.289   2.573   3.386
 7830TIP3   OH223453   1.891   3.723   2.601
 7830TIP3    H123454   1.813   3.776   2.623
 7830TIP3    H223455   1.957   3.751   2.665
 7831TIP3   OH223456   6.519   4.447   2.760
 7831TIP3    H123457   6.466   4.446   2.839
 7831TIP3    H223458   6.507   4.535   2.724
 7832TIP3   OH223459   5.686   1.816   4.394
 7832TIP3    H123460   5.660   1.857   4.477
 7832TIP3    H223461   5.668   1.723   4.408
 7833TIP3   OH223462   5.879   5.683   3.941
 7833TIP3    H123463   5.790   5.698   3.971
 7833TIP3    H223464   5.913   5.617   4.001
 7834TIP3   OH223465   4.657   1.442   0.502
 7834TIP3    H123466   4.653   1.403   0.589
 7834TIP3    H223467   4.751   1.445   0.481
 7835TIP3   OH223468   1.362   2.830   4.415
 7835TIP3    H123469   1.340   2.883   4.492
 7835TIP3    H223470   1.444   2.787   4.439
 7836TIP3   OH223471   6.686   6.581   4.369
 7836TIP3    H123472   6.727   6.564   4.454
 7836TIP3    H223473   6.703   6.674   4.353
 7837TIP3   OH223474   5.776   3.689   2.212
 7837TIP3    H123475   5.793   3.767   2.264
 7837TIP3    H223476   5.763   3.721   2.123
 7838TIP3   OH223477   5.346   1.650   3.927
 7838TIP3    H123478   5.357   1.713   3.999
 7838TIP3    H223479   5.405   1.579   3.949
 7839TIP3   OH223480   3.269   3.970   2.640
 7839TIP3    H123481   3.203   3.992   2.574
 7839TIP3    H223482   3.265   4.044   2.702
 7840TIP3   OH223483   3.614   1.037   0.318
 7840TIP3    H123484   3.696   1.059   0.363
 7840TIP3    H223485   3.562   0.992   0.383
 7841TIP3   OH223486   4.655   6.096   1.873
 7841TIP3    H123487   4.730   6.093   1.813
 7841TIP3    H223488   4.670   6.173   1.927
 7842TIP3   OH223489   6.261   0.372   2.417
 7842TIP3    H123490   6.345   0.408   2.445
 7842TIP3    H223491   6.281   0.321   2.339
 7843TIP3   OH223492   6.745   0.044   5.163
 7843TIP3    H123493   6.818   0.070   5.218
 7843TIP3    H223494   6.673   0.029   5.225
 7844TIP3   OH223495   2.280   3.937   2.729
 7844TIP3    H123496   2.361   3.920   2.777
 7844TIP3    H223497   2.249   3.851   2.702
 7845TIP3   OH223498   0.680   4.248   1.614
 7845TIP3    H123499   0.692   4.233   1.708
 7845TIP3    H223500   0.750   4.197   1.573
 7846TIP3   OH223501   1.544   6.590   1.777
 7846TIP3    H123502   1.603   6.665   1.767
 7846TIP3    H223503   1.574   6.547   1.857
 7847TIP3   OH223504   6.967   2.828   3.768
 7847TIP3    H123505   6.981   2.742   3.729
 7847TIP3    H223506   6.930   2.810   3.854
 7848TIP3   OH223507   1.908   5.992   2.502
 7848TIP3    H123508   1.859   5.995   2.584
 7848TIP3    H223509   1.993   5.955   2.526
 7849TIP3   OH223510   6.329   2.754   1.799
 7849TIP3    H123511   6.391   2.694   1.757
 7849TIP3    H223512   6.244   2.712   1.787
 7850TIP3   OH223513   2.026   3.718   4.241
 7850TIP3    H123514   2.012   3.729   4.335
 7850TIP3    H223515   2.083   3.641   4.235
 7851TIP3   OH223516   2.733   0.634   1.819
 7851TIP3    H123517   2.699   0.671   1.738
 7851TIP3    H223518   2.792   0.564   1.791
 7852TIP3   OH223519   4.636   0.481   2.732
 7852TIP3    H123520   4.718   0.473   2.682
 7852TIP3    H223521   4.646   0.562   2.781
 7853TIP3   OH223522   5.107   4.554   3.965
 7853TIP3    H123523   5.021   4.577   3.998
 7853TIP3    H223524   5.126   4.620   3.899
 7854TIP3   OH223525   3.599   2.218   0.889
 7854TIP3    H123526   3.585   2.279   0.817
 7854TIP3    H223527   3.545   2.252   0.960
 7855TIP3   OH223528   1.007   3.502   0.186
 7855TIP3    H123529   1.047   3.417   0.200
 7855TIP3    H223530   0.935   3.485   0.126
 7856TIP3   OH223531   3.781   4.306   3.342
 7856TIP3    H123532   3.769   4.267   3.256
 7856TIP3    H223533   3.839   4.381   3.326
 7857TIP3   OH223534  -0.005   3.261   4.635
 7857TIP3    H123535  -0.030   3.318   4.562
 7857TIP3    H223536   0.077   3.221   4.607
 7858TIP3   OH223537   5.397   0.289   5.233
 7858TIP3    H123538   5.355   0.273   5.148
 7858TIP3    H223539   5.382   0.208   5.282
 7859TIP3   OH223540   1.142   5.572   4.574
 7859TIP3    H123541   1.176   5.661   4.560
 7859TIP3    H223542   1.125   5.539   4.487
 7860TIP3   OH223543   4.153   3.850   2.470
 7860TIP3    H123544   4.243   3.820   2.469
 7860TIP3    H223545   4.118   3.821   2.554
 7861TIP3   OH223546   5.397   5.840   5.352
 7861TIP3    H123547   5.363   5.886   5.428
 7861TIP3    H223548   5.349   5.878   5.278
 7862TIP3   OH223549   0.966   3.800   5.162
 7862TIP3    H123550   1.028   3.740   5.122
 7862TIP3    H223551   0.898   3.812   5.096
 7863TIP3   OH223552   2.316   3.601   4.343
 7863TIP3    H123553   2.377   3.560   4.403
 7863TIP3    H223554   2.255   3.531   4.318
 7864TIP3   OH223555   3.325   5.324   1.782
 7864TIP3    H123556   3.285   5.403   1.818
 7864TIP3    H223557   3.251   5.265   1.765
 7865TIP3   OH223558   5.515   3.921   2.035
 7865TIP3    H123559   5.554   3.995   2.081
 7865TIP3    H223560   5.421   3.939   2.034
 7866TIP3   OH223561   0.537   1.348   5.489
 7866TIP3    H123562   0.514   1.267   5.536
 7866TIP3    H223563   0.618   1.377   5.530
 7867TIP3   OH223564   5.554   0.693   1.881
 7867TIP3    H123565   5.581   0.746   1.956
 7867TIP3    H223566   5.634   0.681   1.830
 7868TIP3   OH223567   1.140   3.539   5.443
 7868TIP3    H123568   1.158   3.522   5.351
 7868TIP3    H223569   1.225   3.561   5.481
 7869TIP3   OH223570   6.200   3.159   5.584
 7869TIP3    H123571   6.280   3.173   5.533
 7869TIP3    H223572   6.135   3.215   5.543
 7870TIP3   OH223573   6.971   0.961   0.526
 7870TIP3    H123574   6.998   0.888   0.471
 7870TIP3    H223575   7.001   1.039   0.479
 7871TIP3   OH223576   4.776   2.069   2.285
 7871TIP3    H123577   4.865   2.104   2.284
 7871TIP3    H223578   4.756   2.053   2.192
 7872TIP3   OH223579   6.756   2.146   2.044
 7872TIP3    H123580   6.717   2.181   2.124
 7872TIP3    H223581   6.778   2.224   1.992
 7873TIP3   OH223582   6.021   1.090   3.223
 7873TIP3    H123583   5.957   1.128   3.162
 7873TIP3    H223584   6.060   1.017   3.174
 7874TIP3   OH223585   1.649   3.968   5.616
 7874TIP3    H123586   1.603   3.951   5.698
 7874TIP3    H223587   1.614   3.902   5.555
 7875TIP3   OH223588   5.119   2.051   2.638
 7875TIP3    H123589   5.095   1.972   2.590
 7875TIP3    H223590   5.036   2.085   2.671
 7876TIP3   OH223591   6.473   6.621   1.900
 7876TIP3    H123592   6.539   6.685   1.927
 7876TIP3    H223593   6.424   6.602   1.980
 7877TIP3   OH223594   1.634   3.776   4.742
 7877TIP3    H123595   1.640   3.690   4.700
 7877TIP3    H223596   1.559   3.818   4.701
 7878TIP3   OH223597   6.284   5.070   0.422
 7878TIP3    H123598   6.238   5.093   0.502
 7878TIP3    H223599   6.244   4.987   0.394
 7879TIP3   OH223600   6.960   5.431   3.178
 7879TIP3    H123601   6.929   5.344   3.203
 7879TIP3    H223602   6.911   5.452   3.098
 7880TIP3   OH223603   0.376   1.818   5.490
 7880TIP3    H123604   0.379   1.735   5.537
 7880TIP3    H223605   0.288   1.852   5.506
 7881TIP3   OH223606   1.631   1.941   2.535
 7881TIP3    H123607   1.682   1.930   2.615
 7881TIP3    H223608   1.604   1.852   2.511
 7882TIP3   OH223609   6.474   4.371   3.520
 7882TIP3    H123610   6.561   4.335   3.539
 7882TIP3    H223611   6.413   4.307   3.557
 7883TIP3   OH223612   2.867   3.443   0.487
 7883TIP3    H123613   2.782   3.448   0.443
 7883TIP3    H223614   2.846   3.410   0.575
 7884TIP3   OH223615   5.521   1.264   5.756
 7884TIP3    H123616   5.555   1.330   5.816
 7884TIP3    H223617   5.528   1.182   5.804
 7885TIP3   OH223618   5.719   2.001   2.647
 7885TIP3    H123619   5.742   2.019   2.739
 7885TIP3    H223620   5.633   1.958   2.652
 7886TIP3   OH223621   2.060   0.671   2.150
 7886TIP3    H123622   2.025   0.760   2.142
 7886TIP3    H223623   2.136   0.680   2.208
 7887TIP3   OH223624   0.542   2.494   4.634
 7887TIP3    H123625   0.469   2.538   4.678
 7887TIP3    H223626   0.503   2.453   4.557
 7888TIP3   OH223627   2.052   6.069   5.394
 7888TIP3    H123628   2.138   6.029   5.410
 7888TIP3    H223629   2.064   6.122   5.316
 7889TIP3   OH223630   6.249   3.424   3.371
 7889TIP3    H123631   6.258   3.382   3.457
 7889TIP3    H223632   6.339   3.444   3.345
 7890TIP3   OH223633   3.254   2.155   4.327
 7890TIP3    H123634   3.226   2.143   4.418
 7890TIP3    H223635   3.342   2.117   4.324
 7891TIP3   OH223636   1.916   4.012   5.635
 7891TIP3    H123637   1.955   4.037   5.551
 7891TIP3    H223638   1.822   4.004   5.616
 7892TIP3   OH223639   1.831   3.096   0.695
 7892TIP3    H123640   1.795   3.168   0.643
 7892TIP3    H223641   1.924   3.095   0.673
 7893TIP3   OH223642   2.058   1.064   1.225
 7893TIP3    H123643   2.151   1.046   1.241
 7893TIP3    H223644   2.050   1.061   1.129
 7894TIP3   OH223645   3.594   2.563   2.399
 7894TIP3    H123646   3.574   2.652   2.426
 7894TIP3    H223647   3.662   2.534   2.461
 7895TIP3   OH223648   3.774   2.713   4.881
 7895TIP3    H123649   3.841   2.645   4.877
 7895TIP3    H223650   3.821   2.793   4.902
 7896TIP3   OH223651   3.922   4.325   0.727
 7896TIP3    H123652   3.949   4.272   0.651
 7896TIP3    H223653   3.990   4.308   0.793
 7897TIP3   OH223654   3.923   4.832   5.666
 7897TIP3    H123655   4.010   4.837   5.705
 7897TIP3    H223656   3.865   4.811   5.739
 7898TIP3   OH223657   3.716   6.362   5.725
 7898TIP3    H123658   3.640   6.327   5.679
 7898TIP3    H223659   3.680   6.427   5.786
 7899TIP3   OH223660   5.430   0.124   0.098
 7899TIP3    H123661   5.377   0.160   0.169
 7899TIP3    H223662   5.408   0.179   0.022
 7900TIP3   OH223663   5.245   5.104   0.616
 7900TIP3    H123664   5.220   5.127   0.527
 7900TIP3    H223665   5.167   5.062   0.653
 7901TIP3   OH223666   2.787   1.387   1.769
 7901TIP3    H123667   2.733   1.319   1.727
 7901TIP3    H223668   2.768   1.467   1.720
 7902TIP3   OH223669   2.522   1.644   4.636
 7902TIP3    H123670   2.434   1.675   4.656
 7902TIP3    H223671   2.550   1.598   4.716
 7903TIP3   OH223672   5.483   6.717   4.428
 7903TIP3    H123673   5.524   6.664   4.497
 7903TIP3    H223674   5.453   6.795   4.474
 7904TIP3   OH223675   4.647   3.854   2.086
 7904TIP3    H123676   4.563   3.810   2.098
 7904TIP3    H223677   4.709   3.801   2.137
 7905TIP3   OH223678   0.924   1.402   0.952
 7905TIP3    H123679   0.901   1.309   0.939
 7905TIP3    H223680   0.911   1.441   0.865
 7906TIP3   OH223681   0.700   3.491   4.035
 7906TIP3    H123682   0.769   3.468   3.973
 7906TIP3    H223683   0.740   3.481   4.121
 7907TIP3   OH223684   2.346   3.983   2.385
 7907TIP3    H123685   2.397   4.037   2.446
 7907TIP3    H223686   2.406   3.966   2.312
 7908TIP3   OH223687   0.756   5.159   0.759
 7908TIP3    H123688   0.794   5.216   0.826
 7908TIP3    H223689   0.726   5.219   0.691
 7909TIP3   OH223690   6.364   2.922   5.250
 7909TIP3    H123691   6.397   2.997   5.300
 7909TIP3    H223692   6.368   2.950   5.159
 7910TIP3   OH223693   5.771   2.546   4.668
 7910TIP3    H123694   5.858   2.509   4.681
 7910TIP3    H223695   5.748   2.584   4.752
 7911TIP3   OH223696   1.217   1.967   5.774
 7911TIP3    H123697   1.195   1.875   5.784
 7911TIP3    H223698   1.300   1.967   5.727
 7912TIP3   OH223699   6.253   2.502   2.209
 7912TIP3    H123700   6.161   2.498   2.234
 7912TIP3    H223701   6.267   2.593   2.184
 7913TIP3   OH223702   1.957   1.150   2.647
 7913TIP3    H123703   2.025   1.216   2.633
 7913TIP3    H223704   1.924   1.130   2.560
 7914TIP3   OH223705   5.831   6.495   2.275
 7914TIP3    H123706   5.778   6.416   2.262
 7914TIP3    H223707   5.905   6.484   2.214
 7915TIP3   OH223708   2.887   0.074   3.536
 7915TIP3    H123709   2.858  -0.007   3.493
 7915TIP3    H223710   2.810   0.131   3.535
 7916TIP3   OH223711   5.309   6.288   1.268
 7916TIP3    H123712   5.240   6.230   1.236
 7916TIP3    H223713   5.367   6.299   1.193
 7917TIP3   OH223714   0.542   0.055   2.843
 7917TIP3    H123715   0.636   0.066   2.828
 7917TIP3    H223716   0.517  -0.016   2.784
 7918TIP3   OH223717   1.818   5.248   1.261
 7918TIP3    H123718   1.889   5.261   1.324
 7918TIP3    H223719   1.818   5.154   1.243
 7919TIP3   OH223720   4.351   0.310   1.118
 7919TIP3    H123721   4.365   0.339   1.208
 7919TIP3    H223722   4.257   0.291   1.114
 7920TIP3   OH223723   7.148   1.869   3.781
 7920TIP3    H123724   7.190   1.900   3.861
 7920TIP3    H223725   7.060   1.906   3.784
 7921TIP3   OH223726   6.074   0.720   1.177
 7921TIP3    H123727   6.001   0.764   1.133
 7921TIP3    H223728   6.141   0.788   1.186
 7922TIP3   OH223729   2.111   3.992   0.398
 7922TIP3    H123730   2.045   4.060   0.382
 7922TIP3    H223731   2.150   3.974   0.313
 7923TIP3   OH223732   5.254   1.331   0.367
 7923TIP3    H123733   5.227   1.423   0.370
 7923TIP3    H223734   5.347   1.334   0.346
 7924TIP3   OH223735   1.770   2.178   2.546
 7924TIP3    H123736   1.795   2.178   2.639
 7924TIP3    H223737   1.717   2.099   2.536
 7925TIP3   OH223738   7.023   0.987   2.604
 7925TIP3    H123739   6.930   1.007   2.605
 7925TIP3    H223740   7.063   1.052   2.662
 7926TIP3   OH223741   6.880   1.074   1.106
 7926TIP3    H123742   6.891   1.055   1.013
 7926TIP3    H223743   6.811   1.140   1.110
 7927TIP3   OH223744   2.499   1.097   0.743
 7927TIP3    H123745   2.405   1.082   0.733
 7927TIP3    H223746   2.506   1.170   0.805
 7928TIP3   OH223747   7.076   6.475   5.795
 7928TIP3    H123748   7.060   6.557   5.749
 7928TIP3    H223749   7.010   6.473   5.864
 7929TIP3   OH223750   6.320   5.502   0.633
 7929TIP3    H123751   6.358   5.423   0.670
 7929TIP3    H223752   6.297   5.478   0.543
 7930TIP3   OH223753   6.151   4.390   3.131
 7930TIP3    H123754   6.076   4.446   3.114
 7930TIP3    H223755   6.168   4.398   3.225
 7931TIP3   OH223756   3.897   3.914   3.661
 7931TIP3    H123757   3.862   3.942   3.746
 7931TIP3    H223758   3.833   3.946   3.598
 7932TIP3   OH223759   0.296   0.093   1.092
 7932TIP3    H123760   0.270   0.005   1.065
 7932TIP3    H223761   0.322   0.083   1.183
 7933TIP3   OH223762   4.840   5.599   0.337
 7933TIP3    H123763   4.889   5.537   0.391
 7933TIP3    H223764   4.766   5.549   0.303
 7934TIP3   OH223765   2.415   0.821   0.558
 7934TIP3    H123766   2.443   0.798   0.469
 7934TIP3    H223767   2.493   0.808   0.612
 7935TIP3   OH223768   0.484   4.872   3.389
 7935TIP3    H123769   0.426   4.948   3.389
 7935TIP3    H223770   0.430   4.801   3.352
 7936TIP3   OH223771   2.402   4.117   5.820
 7936TIP3    H123772   2.359   4.133   5.736
 7936TIP3    H223773   2.332   4.129   5.885
 7937TIP3   OH223774   4.783   3.139   2.459
 7937TIP3    H123775   4.751   3.086   2.533
 7937TIP3    H223776   4.787   3.077   2.386
 7938TIP3   OH223777   2.657   5.273   2.981
 7938TIP3    H123778   2.723   5.328   3.024
 7938TIP3    H223779   2.580   5.329   2.973
 7939TIP3   OH223780   1.123   5.086   4.654
 7939TIP3    H123781   1.104   5.150   4.586
 7939TIP3    H223782   1.194   5.125   4.705
 7940TIP3   OH223783   1.073   3.225   1.265
 7940TIP3    H123784   1.065   3.155   1.330
 7940TIP3    H223785   1.024   3.193   1.189
 7941TIP3   OH223786   4.542   3.803   1.279
 7941TIP3    H123787   4.544   3.788   1.185
 7941TIP3    H223788   4.459   3.848   1.295
 7942TIP3   OH223789   3.503   2.638   1.326
 7942TIP3    H123790   3.534   2.595   1.406
 7942TIP3    H223791   3.582   2.652   1.274
 7943TIP3   OH223792   2.182   2.871   0.648
 7943TIP3    H123793   2.126   2.949   0.647
 7943TIP3    H223794   2.270   2.905   0.634
 7944TIP3   OH223795   2.641   0.652   0.147
 7944TIP3    H123796   2.647   0.707   0.069
 7944TIP3    H223797   2.725   0.664   0.191
 7945TIP3   OH223798   6.887   2.472   0.284
 7945TIP3    H123799   6.798   2.463   0.317
 7945TIP3    H223800   6.909   2.386   0.249
 7946TIP3   OH223801   6.811   5.500   3.634
 7946TIP3    H123802   6.865   5.421   3.640
 7946TIP3    H223803   6.737   5.483   3.693
 7947TIP3   OH223804   6.887   2.332   3.726
 7947TIP3    H123805   6.809   2.386   3.712
 7947TIP3    H223806   6.891   2.322   3.821
 7948TIP3   OH223807   0.876   2.175   4.345
 7948TIP3    H123808   0.967   2.156   4.368
 7948TIP3    H223809   0.835   2.200   4.427
 7949TIP3   OH223810   0.924   0.114   4.823
 7949TIP3    H123811   0.913   0.040   4.882
 7949TIP3    H223812   0.972   0.179   4.875
 7950TIP3   OH223813   0.036   4.052   3.543
 7950TIP3    H123814  -0.033   4.065   3.478
 7950TIP3    H223815   0.111   4.101   3.508
 7951TIP3   OH223816   2.779   0.203   4.248
 7951TIP3    H123817   2.848   0.182   4.185
 7951TIP3    H223818   2.704   0.151   4.219
 7952TIP3   OH223819   3.845   0.361   5.803
 7952TIP3    H123820   3.927   0.338   5.760
 7952TIP3    H223821   3.856   0.452   5.830
 7953TIP3   OH223822   3.606   1.136   0.066
 7953TIP3    H123823   3.581   1.107   0.154
 7953TIP3    H223824   3.683   1.190   0.079
 7954TIP3   OH223825   6.561   5.760   0.918
 7954TIP3    H123826   6.466   5.751   0.919
 7954TIP3    H223827   6.590   5.709   0.843
 7955TIP3   OH223828   6.041   1.286   1.744
 7955TIP3    H123829   5.954   1.259   1.716
 7955TIP3    H223830   6.085   1.204   1.767
 7956TIP3   OH223831   1.061   4.676   0.475
 7956TIP3    H123832   0.982   4.624   0.493
 7956TIP3    H223833   1.062   4.743   0.543
 7957TIP3   OH223834   3.122   5.719   1.186
 7957TIP3    H123835   3.207   5.760   1.169
 7957TIP3    H223836   3.062   5.793   1.202
 7958TIP3   OH223837   4.248   4.525   2.361
 7958TIP3    H123838   4.341   4.507   2.369
 7958TIP3    H223839   4.222   4.554   2.449
 7959TIP3   OH223840   3.620   1.977   2.355
 7959TIP3    H123841   3.555   2.015   2.414
 7959TIP3    H223842   3.640   1.892   2.393
 7960TIP3   OH223843   5.049   6.536   3.201
 7960TIP3    H123844   5.103   6.530   3.123
 7960TIP3    H223845   5.073   6.459   3.253
 7961TIP3   OH223846   2.610   4.818   3.943
 7961TIP3    H123847   2.532   4.820   3.888
 7961TIP3    H223848   2.580   4.783   4.027
 7962TIP3   OH223849   3.141   1.508   0.076
 7962TIP3    H123850   3.124   1.544   0.162
 7962TIP3    H223851   3.233   1.529   0.058
 7963TIP3   OH223852   2.675   0.550   3.918
 7963TIP3    H123853   2.619   0.612   3.871
 7963TIP3    H223854   2.661   0.570   4.011
 7964TIP3   OH223855   0.265   3.932   2.163
 7964TIP3    H123856   0.295   4.000   2.223
 7964TIP3    H223857   0.328   3.935   2.091
 7965TIP3   OH223858   4.083   6.008   1.580
 7965TIP3    H123859   3.996   5.971   1.564
 7965TIP3    H223860   4.143   5.942   1.547
 7966TIP3   OH223861   5.220   0.878   2.349
 7966TIP3    H123862   5.187   0.804   2.400
 7966TIP3    H223863   5.188   0.955   2.394
 7967TIP3   OH223864   6.879   3.408   3.200
 7967TIP3    H123865   6.872   3.484   3.256
 7967TIP3    H223866   6.894   3.335   3.260
 7968TIP3   OH223867   0.878   0.926   3.359
 7968TIP3    H123868   0.819   0.865   3.315
 7968TIP3    H223869   0.965   0.888   3.346
 7969TIP3   OH223870   0.937   4.336   4.787
 7969TIP3    H123871   0.922   4.259   4.732
 7969TIP3    H223872   0.849   4.367   4.808
 7970TIP3   OH223873   4.830   3.311   1.837
 7970TIP3    H123874   4.842   3.280   1.748
 7970TIP3    H223875   4.915   3.299   1.879
 7971TIP3   OH223876   0.183   4.405   4.110
 7971TIP3    H123877   0.210   4.436   4.196
 7971TIP3    H223878   0.239   4.452   4.049
 7972TIP3   OH223879   2.206   0.544   3.939
 7972TIP3    H123880   2.209   0.556   4.034
 7972TIP3    H223881   2.156   0.619   3.907
 7973TIP3   OH223882   2.126   2.329   3.529
 7973TIP3    H123883   2.134   2.246   3.574
 7973TIP3    H223884   2.151   2.311   3.438
 7974TIP3   OH223885   5.137   0.417   2.911
 7974TIP3    H123886   5.143   0.395   3.004
 7974TIP3    H223887   5.227   0.423   2.881
 7975TIP3   OH223888   3.919   2.343   4.773
 7975TIP3    H123889   3.877   2.269   4.729
 7975TIP3    H223890   3.902   2.417   4.715
 7976TIP3   OH223891   4.298   0.631   1.434
 7976TIP3    H123892   4.232   0.645   1.367
 7976TIP3    H223893   4.287   0.704   1.495
 7977TIP3   OH223894   0.856   5.146   0.015
 7977TIP3    H123895   0.856   5.240   0.030
 7977TIP3    H223896   0.845   5.108   0.103
 7978TIP3   OH223897   1.844   5.435   5.445
 7978TIP3    H123898   1.844   5.339   5.436
 7978TIP3    H223899   1.933   5.461   5.420
 7979TIP3   OH223900   3.304   5.798   4.069
 7979TIP3    H123901   3.263   5.853   4.003
 7979TIP3    H223902   3.300   5.850   4.150
 7980TIP3   OH223903   0.010   0.459   1.750
 7980TIP3    H123904   0.040   0.370   1.736
 7980TIP3    H223905   0.083   0.514   1.720
 7981TIP3   OH223906   1.431   6.527   5.704
 7981TIP3    H123907   1.486   6.601   5.727
 7981TIP3    H223908   1.476   6.451   5.741
 7982TIP3   OH223909   2.086   5.751   3.141
 7982TIP3    H123910   2.147   5.677   3.139
 7982TIP3    H223911   2.128   5.815   3.198
 7983TIP3   OH223912   1.323   6.472   5.456
 7983TIP3    H123913   1.343   6.495   5.547
 7983TIP3    H223914   1.364   6.387   5.443
 7984TIP3   OH223915   1.015   6.070   4.045
 7984TIP3    H123916   0.920   6.082   4.049
 7984TIP3    H223917   1.047   6.104   4.128
 7985TIP3   OH223918   4.838   1.180   0.316
 7985TIP3    H123919   4.928   1.179   0.282
 7985TIP3    H223920   4.838   1.114   0.386
 7986TIP3   OH223921   0.356   4.492   4.832
 7986TIP3    H123922   0.308   4.419   4.793
 7986TIP3    H223923   0.319   4.500   4.920
 7987TIP3   OH223924   5.554   4.530   4.767
 7987TIP3    H123925   5.645   4.499   4.772
 7987TIP3    H223926   5.554   4.590   4.693
 7988TIP3   OH223927   5.941   4.440   4.508
 7988TIP3    H123928   5.860   4.461   4.463
 7988TIP3    H223929   6.010   4.469   4.448
 7989TIP3   OH223930   3.903   1.601   4.158
 7989TIP3    H123931   3.867   1.591   4.070
 7989TIP3    H223932   3.893   1.514   4.197
 7990TIP3   OH223933   6.611   2.390   1.477
 7990TIP3    H123934   6.691   2.443   1.477
 7990TIP3    H223935   6.562   2.422   1.401
 7991TIP3   OH223936   0.971   6.611   3.314
 7991TIP3    H123937   0.880   6.588   3.335
 7991TIP3    H223938   1.023   6.571   3.384
 7992TIP3   OH223939   4.728   5.952   3.721
 7992TIP3    H123940   4.729   5.914   3.633
 7992TIP3    H223941   4.722   5.877   3.780
 7993TIP3   OH223942   1.264   4.014   2.682
 7993TIP3    H123943   1.188   3.996   2.736
 7993TIP3    H223944   1.236   4.084   2.623
 7994TIP3   OH223945   2.233   1.797   2.979
 7994TIP3    H123946   2.304   1.760   3.031
 7994TIP3    H223947   2.220   1.885   3.016
 7995TIP3   OH223948   6.209   1.778   3.296
 7995TIP3    H123949   6.173   1.709   3.351
 7995TIP3    H223950   6.298   1.749   3.275
 7996TIP3   OH223951   3.664   5.336   5.472
 7996TIP3    H123952   3.718   5.306   5.399
 7996TIP3    H223953   3.650   5.258   5.525
 7997TIP3   OH223954   6.835   2.336   1.173
 7997TIP3    H123955   6.929   2.326   1.189
 7997TIP3    H223956   6.793   2.286   1.242
 7998TIP3   OH223957   2.248   4.098   5.573
 7998TIP3    H123958   2.184   4.137   5.513
 7998TIP3    H223959   2.235   4.004   5.563
 7999TIP3   OH223960   2.707   1.256   0.103
 7999TIP3    H123961   2.692   1.350   0.105
 7999TIP3    H223962   2.802   1.247   0.096
 8000TIP3   OH223963   4.707   2.924   4.372
 8000TIP3    H123964   4.785   2.977   4.355
 8000TIP3    H223965   4.715   2.849   4.312
 8001TIP3   OH223966   0.319   4.852   0.146
 8001TIP3    H123967   0.242   4.796   0.133
 8001TIP3    H223968   0.301   4.930   0.094
 8002TIP3   OH223969   1.092   6.654   4.761
 8002TIP3    H123970   1.116   6.654   4.853
 8002TIP3    H223971   1.004   6.616   4.758
 8003TIP3   OH223972   1.827   2.771   4.077
 8003TIP3    H123973   1.835   2.763   4.173
 8003TIP3    H223974   1.880   2.847   4.055
 8004TIP3   OH223975   5.360   0.975   1.711
 8004TIP3    H123976   5.329   0.962   1.801
 8004TIP3    H223977   5.285   1.014   1.665
 8005TIP3   OH223978   5.009   3.851   5.763
 8005TIP3    H123979   4.997   3.946   5.762
 8005TIP3    H223980   4.992   3.824   5.672
 8006TIP3   OH223981   1.156   0.848   2.260
 8006TIP3    H123982   1.176   0.894   2.178
 8006TIP3    H223983   1.069   0.881   2.285
 8007TIP3   OH223984   1.010   2.165   1.992
 8007TIP3    H123985   0.948   2.229   2.026
 8007TIP3    H223986   1.071   2.217   1.939
 8008TIP3   OH223987   4.951   4.122   4.149
 8008TIP3    H123988   4.949   4.055   4.218
 8008TIP3    H223989   5.018   4.184   4.177
 8009TIP3   OH223990   2.236   2.607   4.736
 8009TIP3    H123991   2.316   2.659   4.734
 8009TIP3    H223992   2.170   2.667   4.772
 8010TIP3   OH223993   2.894   0.303   1.418
 8010TIP3    H123994   2.988   0.303   1.432
 8010TIP3    H223995   2.867   0.394   1.434
 8011TIP3   OH223996   1.232   6.755   1.348
 8011TIP3    H123997   1.314   6.803   1.357
 8011TIP3    H223998   1.179   6.784   1.422
 8012TIP3   OH223999   3.813   1.539   2.821
 8012TIP3    H124000   3.837   1.519   2.731
 8012TIP3    H224001   3.780   1.629   2.818
 8013TIP3   OH224002   1.923   2.488   1.476
 8013TIP3    H124003   1.953   2.465   1.388
 8013TIP3    H224004   1.892   2.406   1.513
 8014TIP3   OH224005   4.620   1.299   2.370
 8014TIP3    H124006   4.580   1.341   2.294
 8014TIP3    H224007   4.554   1.237   2.401
 8015TIP3   OH224008   5.710   2.431   1.591
 8015TIP3    H124009   5.622   2.447   1.556
 8015TIP3    H224010   5.697   2.427   1.686
 8016TIP3   OH224011   5.002   0.865   0.058
 8016TIP3    H124012   4.919   0.892   0.017
 8016TIP3    H224013   5.067   0.924   0.020
 8017TIP3   OH224014   4.846   1.794   2.062
 8017TIP3    H124015   4.907   1.728   2.030
 8017TIP3    H224016   4.847   1.862   1.994
 8018TIP3   OH224017   5.176   1.273   2.399
 8018TIP3    H124018   5.242   1.328   2.441
 8018TIP3    H224019   5.095   1.323   2.407
 8019TIP3   OH224020   4.495   1.660   3.598
 8019TIP3    H124021   4.447   1.684   3.518
 8019TIP3    H224022   4.587   1.673   3.574
 8020TIP3   OH224023   5.804   5.616  -0.013
 8020TIP3    H124024   5.883   5.666  -0.029
 8020TIP3    H224025   5.733   5.678  -0.026
 8021TIP3   OH224026   5.552   1.956   4.568
 8021TIP3    H124027   5.543   1.938   4.661
 8021TIP3    H224028   5.469   1.928   4.529
 8022TIP3   OH224029   1.506   4.800   5.750
 8022TIP3    H124030   1.593   4.831   5.723
 8022TIP3    H224031   1.471   4.755   5.673
 8023TIP3   OH224032   5.654   1.447   2.780
 8023TIP3    H124033   5.744   1.472   2.804
 8023TIP3    H224034   5.666   1.379   2.714
 8024TIP3   OH224035   5.741   3.179   0.069
 8024TIP3    H124036   5.719   3.104   0.014
 8024TIP3    H224037   5.835   3.193   0.055
 8025TIP3   OH224038   6.279   4.591   0.806
 8025TIP3    H124039   6.329   4.666   0.775
 8025TIP3    H224040   6.257   4.542   0.726
 8026TIP3   OH224041   0.665   3.415   2.973
 8026TIP3    H124042   0.590   3.375   3.016
 8026TIP3    H224043   0.718   3.340   2.944
 8027TIP3   OH224044   2.441   3.965   3.915
 8027TIP3    H124045   2.364   3.909   3.927
 8027TIP3    H224046   2.478   3.973   4.003
 8028TIP3   OH224047   0.828   3.168   2.024
 8028TIP3    H124048   0.839   3.236   1.958
 8028TIP3    H224049   0.746   3.124   1.999
 8029TIP3   OH224050   4.738   2.791   5.621
 8029TIP3    H124051   4.799   2.846   5.574
 8029TIP3    H224052   4.778   2.776   5.706
 8030TIP3   OH224053   6.165   4.497   2.689
 8030TIP3    H124054   6.201   4.555   2.622
 8030TIP3    H224055   6.144   4.557   2.762
 8031TIP3   OH224056   1.205   2.647   4.246
 8031TIP3    H124057   1.188   2.619   4.336
 8031TIP3    H224058   1.240   2.736   4.255
 8032TIP3   OH224059   1.112   6.528   5.278
 8032TIP3    H124060   1.075   6.583   5.348
 8032TIP3    H224061   1.181   6.478   5.322
 8033TIP3   OH224062   6.100   2.251   4.284
 8033TIP3    H124063   6.164   2.267   4.214
 8033TIP3    H224064   6.076   2.338   4.315
 8034TIP3   OH224065   1.720   3.797   4.371
 8034TIP3    H124066   1.769   3.867   4.329
 8034TIP3    H224067   1.703   3.734   4.300
 8035TIP3   OH224068   1.261   4.095   5.808
 8035TIP3    H124069   1.192   4.077   5.744
 8035TIP3    H224070   1.333   4.130   5.757
 8036TIP3   OH224071   1.190   3.541   5.827
 8036TIP3    H124072   1.244   3.475   5.869
 8036TIP3    H224073   1.164   3.600   5.898
 8037TIP3   OH224074   6.450   6.181   3.490
 8037TIP3    H124075   6.522   6.215   3.436
 8037TIP3    H224076   6.390   6.254   3.499
 8038TIP3   OH224077   4.745   1.344   4.993
 8038TIP3    H124078   4.828   1.375   5.029
 8038TIP3    H224079   4.768   1.298   4.912
 8039TIP3   OH224080   4.440   3.334   3.478
 8039TIP3    H124081   4.442   3.429   3.460
 8039TIP3    H224082   4.526   3.316   3.516
 8040TIP3   OH224083   4.128   5.325   1.419
 8040TIP3    H124084   4.084   5.373   1.489
 8040TIP3    H224085   4.103   5.234   1.433
 8041TIP3   OH224086   3.031   3.776   1.678
 8041TIP3    H124087   3.015   3.794   1.771
 8041TIP3    H224088   3.124   3.753   1.674
 8042TIP3   OH224089   5.895   3.442   0.461
 8042TIP3    H124090   5.855   3.467   0.544
 8042TIP3    H224091   5.848   3.363   0.434
 8043TIP3   OH224092   3.354   3.080   5.087
 8043TIP3    H124093   3.260   3.093   5.101
 8043TIP3    H224094   3.395   3.156   5.129
 8044TIP3   OH224095   7.051   3.465   1.980
 8044TIP3    H124096   7.071   3.412   1.903
 8044TIP3    H224097   7.090   3.417   2.053
 8045TIP3   OH224098   1.941   4.991   0.140
 8045TIP3    H124099   1.908   4.959   0.056
 8045TIP3    H224100   2.007   4.927   0.165
 8046TIP3   OH224101   5.766   1.592   5.493
 8046TIP3    H124102   5.744   1.595   5.586
 8046TIP3    H224103   5.722   1.668   5.455
 8047TIP3   OH224104   3.738   1.029   3.281
 8047TIP3    H124105   3.668   0.988   3.332
 8047TIP3    H224106   3.800   1.061   3.347
 8048TIP3   OH224107   1.787   3.119   5.432
 8048TIP3    H124108   1.738   3.199   5.449
 8048TIP3    H224109   1.779   3.105   5.338
 8049TIP3   OH224110   6.600   3.314   2.033
 8049TIP3    H124111   6.681   3.292   1.987
 8049TIP3    H224112   6.614   3.282   2.122
 8050TIP3   OH224113   5.956   1.588   2.520
 8050TIP3    H124114   5.889   1.570   2.586
 8050TIP3    H224115   6.039   1.565   2.562
 8051TIP3   OH224116   1.153   3.864   1.798
 8051TIP3    H124117   1.236   3.837   1.757
 8051TIP3    H224118   1.089   3.861   1.727
 8052TIP3   OH224119   5.086   0.311   3.618
 8052TIP3    H124120   5.060   0.248   3.550
 8052TIP3    H224121   5.041   0.392   3.594
 8053TIP3   OH224122   4.984   0.224   4.036
 8053TIP3    H124123   4.942   0.289   4.092
 8053TIP3    H224124   4.970   0.141   4.081
 8054TIP3   OH224125   3.950   5.206   4.577
 8054TIP3    H124126   4.019   5.151   4.539
 8054TIP3    H224127   3.873   5.149   4.581
 8055TIP3   OH224128   1.614   5.700   3.730
 8055TIP3    H124129   1.611   5.626   3.791
 8055TIP3    H224130   1.667   5.766   3.776
 8056TIP3   OH224131   3.397   4.689   4.737
 8056TIP3    H124132   3.427   4.752   4.803
 8056TIP3    H224133   3.304   4.709   4.726
 8057TIP3   OH224134   4.014   6.603   1.512
 8057TIP3    H124135   3.983   6.567   1.430
 8057TIP3    H224136   3.935   6.631   1.558
 8058TIP3   OH224137   1.796   1.646   4.613
 8058TIP3    H124138   1.867   1.606   4.562
 8058TIP3    H224139   1.831   1.730   4.641
 8059TIP3   OH224140   5.300   6.600   3.371
 8059TIP3    H124141   5.356   6.676   3.357
 8059TIP3    H224142   5.338   6.556   3.447
 8060TIP3   OH224143   6.896   4.717   5.572
 8060TIP3    H124144   6.885   4.646   5.635
 8060TIP3    H224145   6.808   4.753   5.559
 8061TIP3   OH224146   2.034   1.029   4.896
 8061TIP3    H124147   2.060   1.109   4.940
 8061TIP3    H224148   1.975   0.985   4.958
 8062TIP3   OH224149   2.041   0.120   5.454
 8062TIP3    H124150   2.103   0.180   5.412
 8062TIP3    H224151   2.076   0.033   5.437
 8063TIP3   OH224152   5.704   2.311   3.070
 8063TIP3    H124153   5.638   2.284   3.006
 8063TIP3    H224154   5.705   2.239   3.134
 8064TIP3   OH224155   6.954   2.453   0.874
 8064TIP3    H124156   7.045   2.451   0.903
 8064TIP3    H224157   6.951   2.396   0.798
 8065TIP3   OH224158   4.976   2.964   4.909
 8065TIP3    H124159   4.984   2.887   4.966
 8065TIP3    H224160   4.933   2.931   4.830
 8066TIP3   OH224161   4.321   5.785   1.822
 8066TIP3    H124162   4.281   5.748   1.901
 8066TIP3    H224163   4.414   5.766   1.832
 8067TIP3   OH224164   5.160   2.281   3.618
 8067TIP3    H124165   5.167   2.208   3.557
 8067TIP3    H224166   5.228   2.342   3.590
 8068TIP3   OH224167   2.996   6.743   2.779
 8068TIP3    H124168   3.045   6.667   2.811
 8068TIP3    H224169   3.056   6.816   2.789
 8069TIP3   OH224170   5.669   2.310   1.341
 8069TIP3    H124171   5.738   2.299   1.407
 8069TIP3    H224172   5.686   2.397   1.304
 8070TIP3   OH224173   0.911   2.596   0.306
 8070TIP3    H124174   0.890   2.688   0.324
 8070TIP3    H224175   1.003   2.597   0.281
 8071TIP3   OH224176   2.742   0.313   1.806
 8071TIP3    H124177   2.784   0.333   1.890
 8071TIP3    H224178   2.795   0.361   1.742
 8072TIP3   OH224179   2.889   6.625   4.273
 8072TIP3    H124180   2.893   6.713   4.310
 8072TIP3    H224181   2.797   6.600   4.281
 8073TIP3   OH224182   4.676   3.962   4.364
 8073TIP3    H124183   4.724   3.972   4.282
 8073TIP3    H224184   4.588   3.934   4.337
 8074TIP3   OH224185   6.187   1.000   1.169
 8074TIP3    H124186   6.151   1.047   1.093
 8074TIP3    H224187   6.282   1.007   1.158
 8075TIP3   OH224188   6.980   0.217   2.817
 8075TIP3    H124189   7.004   0.308   2.802
 8075TIP3    H224190   6.918   0.198   2.746
 8076TIP3   OH224191   1.798   4.323   1.864
 8076TIP3    H124192   1.728   4.388   1.871
 8076TIP3    H224193   1.771   4.252   1.922
 8077TIP3   OH224194   0.023   0.501   4.425
 8077TIP3    H124195   0.006   0.532   4.514
 8077TIP3    H224196   0.110   0.535   4.404
 8078TIP3   OH224197   1.071   2.901   4.296
 8078TIP3    H124198   0.996   2.957   4.275
 8078TIP3    H224199   1.079   2.907   4.391
 8079TIP3   OH224200   2.153   4.877   1.913
 8079TIP3    H124201   2.154   4.971   1.932
 8079TIP3    H224202   2.107   4.838   1.987
 8080TIP3   OH224203   1.798   0.303   4.160
 8080TIP3    H124204   1.846   0.385   4.164
 8080TIP3    H224205   1.856   0.244   4.111
 8081TIP3   OH224206   3.618   3.906   2.135
 8081TIP3    H124207   3.574   3.880   2.217
 8081TIP3    H224208   3.711   3.901   2.155
 8082TIP3   OH224209   3.256   5.589   1.929
 8082TIP3    H124210   3.350   5.585   1.912
 8082TIP3    H224211   3.241   5.679   1.959
 8083TIP3   OH224212   4.593   6.155   3.872
 8083TIP3    H124213   4.589   6.244   3.837
 8083TIP3    H224214   4.659   6.112   3.818
 8084TIP3   OH224215   4.049   4.824   3.630
 8084TIP3    H124216   4.046   4.737   3.670
 8084TIP3    H224217   3.958   4.841   3.605
 8085TIP3   OH224218   0.579   3.104   0.215
 8085TIP3    H124219   0.652   3.047   0.191
 8085TIP3    H224220   0.615   3.192   0.212
 8086TIP3   OH224221   1.627   6.549   1.328
 8086TIP3    H124222   1.617   6.474   1.388
 8086TIP3    H224223   1.631   6.625   1.386
 8087TIP3   OH224224   5.563   1.648   3.715
 8087TIP3    H124225   5.532   1.570   3.761
 8087TIP3    H224226   5.639   1.677   3.765
 8088TIP3   OH224227   2.667   2.639   4.214
 8088TIP3    H124228   2.637   2.723   4.180
 8088TIP3    H224229   2.737   2.613   4.155
 8089TIP3   OH224230   2.239   0.576   1.105
 8089TIP3    H124231   2.254   0.605   1.016
 8089TIP3    H224232   2.143   0.567   1.112
 8090TIP3   OH224233   2.590   3.809   0.358
 8090TIP3    H124234   2.504   3.793   0.397
 8090TIP3    H224235   2.592   3.752   0.281
 8091TIP3   OH224236   6.049   1.112   4.323
 8091TIP3    H124237   6.083   1.159   4.247
 8091TIP3    H224238   6.112   1.130   4.392
 8092TIP3   OH224239   5.787   6.390   5.334
 8092TIP3    H124240   5.842   6.317   5.305
 8092TIP3    H224241   5.715   6.348   5.382
 8093TIP3   OH224242   4.586   5.916   1.480
 8093TIP3    H124243   4.601   6.003   1.517
 8093TIP3    H224244   4.585   5.858   1.556
 8094TIP3   OH224245   2.695   3.293   2.340
 8094TIP3    H124246   2.678   3.199   2.340
 8094TIP3    H224247   2.671   3.322   2.252
 8095TIP3   OH224248   5.847   6.752   1.960
 8095TIP3    H124249   5.894   6.833   1.982
 8095TIP3    H224250   5.905   6.682   1.989
 8096TIP3   OH224251   6.989   0.759   1.662
 8096TIP3    H124252   6.932   0.834   1.644
 8096TIP3    H224253   7.030   0.779   1.746
 8097TIP3   OH224254   3.958   1.642   3.736
 8097TIP3    H124255   4.035   1.618   3.787
 8097TIP3    H224256   3.991   1.704   3.670
 8098TIP3   OH224257   5.033   0.536   4.160
 8098TIP3    H124258   5.103   0.530   4.226
 8098TIP3    H224259   5.046   0.623   4.121
 8099TIP3   OH224260   6.873   5.765   2.751
 8099TIP3    H124261   6.910   5.837   2.700
 8099TIP3    H224262   6.795   5.738   2.702
 8100TIP3   OH224263   0.740   6.044   0.983
 8100TIP3    H124264   0.710   6.101   1.054
 8100TIP3    H224265   0.678   6.061   0.911
 8101TIP3   OH224266   4.640   4.519   4.865
 8101TIP3    H124267   4.569   4.479   4.915
 8101TIP3    H224268   4.712   4.527   4.927
 8102TIP3   OH224269   1.757   0.281   3.302
 8102TIP3    H124270   1.809   0.359   3.286
 8102TIP3    H224271   1.678   0.293   3.249
 8103TIP3   OH224272   2.771   5.869   5.775
 8103TIP3    H124273   2.692   5.870   5.722
 8103TIP3    H224274   2.818   5.790   5.747
 8104TIP3   OH224275   4.907   2.261   1.790
 8104TIP3    H124276   4.954   2.233   1.712
 8104TIP3    H224277   4.817   2.276   1.760
 8105TIP3   OH224278   6.879   6.530   0.962
 8105TIP3    H124279   6.795   6.560   0.927
 8105TIP3    H224280   6.873   6.435   0.959
 8106TIP3   OH224281   3.687   4.453   0.779
 8106TIP3    H124282   3.694   4.460   0.874
 8106TIP3    H224283   3.773   4.421   0.751
 8107TIP3   OH224284   2.151   5.362   3.547
 8107TIP3    H124285   2.224   5.364   3.610
 8107TIP3    H224286   2.141   5.269   3.526
 8108TIP3   OH224287   7.184   6.452   3.374
 8108TIP3    H124288   7.209   6.525   3.430
 8108TIP3    H224289   7.178   6.489   3.286
 8109TIP3   OH224290   5.335   0.116   5.805
 8109TIP3    H124291   5.383   0.141   5.884
 8109TIP3    H224292   5.388   0.048   5.765
 8110TIP3   OH224293   1.734   4.075   5.141
 8110TIP3    H124294   1.723   4.080   5.046
 8110TIP3    H224295   1.663   4.019   5.171
 8111TIP3   OH224296   1.498   0.705   2.456
 8111TIP3    H124297   1.573   0.660   2.417
 8111TIP3    H224298   1.534   0.748   2.534
 8112TIP3   OH224299   1.790   4.064   2.357
 8112TIP3    H124300   1.870   4.076   2.408
 8112TIP3    H224301   1.775   4.149   2.315
 8113TIP3   OH224302   6.932   1.177   5.406
 8113TIP3    H124303   6.974   1.240   5.347
 8113TIP3    H224304   6.843   1.170   5.372
 8114TIP3   OH224305   5.023   4.528   5.650
 8114TIP3    H124306   5.018   4.498   5.740
 8114TIP3    H224307   5.115   4.547   5.635
 8115TIP3   OH224308   4.278   3.237   4.366
 8115TIP3    H124309   4.348   3.303   4.371
 8115TIP3    H224310   4.207   3.280   4.319
 8116TIP3   OH224311   6.530   1.119   2.303
 8116TIP3    H124312   6.473   1.162   2.367
 8116TIP3    H224313   6.617   1.122   2.343
 8117TIP3   OH224314   4.489   4.254   4.637
 8117TIP3    H124315   4.460   4.345   4.632
 8117TIP3    H224316   4.429   4.213   4.700
 8118TIP3   OH224317   3.663   0.069   4.230
 8118TIP3    H124318   3.740   0.122   4.209
 8118TIP3    H224319   3.589   0.117   4.193
 8119TIP3   OH224320   5.383   3.117   2.292
 8119TIP3    H124321   5.343   3.160   2.368
 8119TIP3    H224322   5.461   3.169   2.274
 8120TIP3   OH224323   2.675   1.728   0.772
 8120TIP3    H124324   2.582   1.741   0.794
 8120TIP3    H224325   2.678   1.738   0.677
 8121TIP3   OH224326   2.357   3.073   0.541
 8121TIP3    H124327   2.443   3.065   0.584
 8121TIP3    H224328   2.371   3.039   0.453
 8122TIP3   OH224329   4.707   5.756   2.352
 8122TIP3    H124330   4.797   5.753   2.386
 8122TIP3    H224331   4.712   5.709   2.268
 8123TIP3   OH224332   0.054   2.535   3.197
 8123TIP3    H124333   0.093   2.486   3.124
 8123TIP3    H224334   0.045   2.469   3.267
 8124TIP3   OH224335   1.080   2.227  -0.061
 8124TIP3    H124336   1.035   2.308  -0.033
 8124TIP3    H224337   1.130   2.200   0.016
 8125TIP3   OH224338   2.033   2.041   0.919
 8125TIP3    H124339   2.079   2.046   1.003
 8125TIP3    H224340   2.016   2.133   0.896
 8126TIP3   OH224341   4.520   3.819   0.765
 8126TIP3    H124342   4.442   3.830   0.711
 8126TIP3    H224343   4.593   3.835   0.705
 8127TIP3   OH224344   4.187   2.990   1.363
 8127TIP3    H124345   4.244   2.916   1.343
 8127TIP3    H224346   4.233   3.066   1.327
 8128TIP3   OH224347   0.101   4.626   5.664
 8128TIP3    H124348   0.038   4.558   5.645
 8128TIP3    H224349   0.180   4.600   5.617
 8129TIP3   OH224350   0.258   5.321   3.738
 8129TIP3    H124351   0.324   5.298   3.672
 8129TIP3    H224352   0.304   5.376   3.801
 8130TIP3   OH224353   1.804   5.341   2.516
 8130TIP3    H124354   1.839   5.405   2.454
 8130TIP3    H224355   1.853   5.356   2.596
 8131TIP3   OH224356   3.731   3.804   0.272
 8131TIP3    H124357   3.756   3.717   0.301
 8131TIP3    H224358   3.729   3.798   0.177
 8132TIP3   OH224359   1.696   2.921   3.099
 8132TIP3    H124360   1.768   2.879   3.050
 8132TIP3    H224361   1.739   2.956   3.177
 8133TIP3   OH224362   5.830   5.750   3.249
 8133TIP3    H124363   5.848   5.772   3.158
 8133TIP3    H224364   5.828   5.834   3.294
 8134TIP3   OH224365   1.308   6.061   2.480
 8134TIP3    H124366   1.351   5.983   2.445
 8134TIP3    H224367   1.230   6.028   2.524
 8135TIP3   OH224368   5.882   4.093   0.339
 8135TIP3    H124369   5.802   4.073   0.388
 8135TIP3    H224370   5.921   4.166   0.388
 8136TIP3   OH224371   3.745   3.508   5.439
 8136TIP3    H124372   3.712   3.552   5.362
 8136TIP3    H224373   3.730   3.415   5.422
 8137TIP3   OH224374   2.136   4.550   3.799
 8137TIP3    H124375   2.075   4.602   3.747
 8137TIP3    H224376   2.112   4.569   3.890
 8138TIP3   OH224377   2.106   1.262   3.745
 8138TIP3    H124378   2.142   1.198   3.684
 8138TIP3    H224379   2.144   1.345   3.718
 8139TIP3   OH224380   1.922   2.492   0.752
 8139TIP3    H124381   1.920   2.521   0.661
 8139TIP3    H224382   1.984   2.552   0.795
 8140TIP3   OH224383   3.302   2.220   0.062
 8140TIP3    H124384   3.364   2.243   0.132
 8140TIP3    H224385   3.354   2.170  -0.001
 8141TIP3   OH224386   4.574   1.809   4.229
 8141TIP3    H124387   4.664   1.791   4.257
 8141TIP3    H224388   4.538   1.723   4.206
 8142TIP3   OH224389   2.511   4.737   0.899
 8142TIP3    H124390   2.516   4.830   0.878
 8142TIP3    H224391   2.538   4.692   0.818
 8143TIP3   OH224392   4.754   4.930   1.629
 8143TIP3    H124393   4.787   5.000   1.685
 8143TIP3    H224394   4.670   4.963   1.597
 8144TIP3   OH224395   5.783   0.406   1.566
 8144TIP3    H124396   5.836   0.435   1.492
 8144TIP3    H224397   5.711   0.470   1.571
 8145TIP3   OH224398   4.483   1.494   1.764
 8145TIP3    H124399   4.545   1.443   1.815
 8145TIP3    H224400   4.448   1.433   1.699
 8146TIP3   OH224401   0.605   2.927   4.106
 8146TIP3    H124402   0.596   2.989   4.034
 8146TIP3    H224403   0.543   2.959   4.172
 8147TIP3   OH224404   3.675   0.606   2.816
 8147TIP3    H124405   3.621   0.613   2.738
 8147TIP3    H224406   3.668   0.514   2.842
 8148TIP3   OH224407   1.459   5.339   5.549
 8148TIP3    H124408   1.415   5.405   5.495
 8148TIP3    H224409   1.387   5.293   5.593
 8149TIP3   OH224410   5.765   5.981   3.370
 8149TIP3    H124411   5.717   5.941   3.443
 8149TIP3    H224412   5.707   6.050   3.338
 8150TIP3   OH224413   4.042   2.997   1.849
 8150TIP3    H124414   4.045   2.988   1.754
 8150TIP3    H224415   4.130   2.974   1.879
 8151TIP3   OH224416   3.172   5.546   3.505
 8151TIP3    H124417   3.081   5.518   3.488
 8151TIP3    H224418   3.215   5.468   3.538
 8152TIP3   OH224419   4.477   6.705   0.068
 8152TIP3    H124420   4.462   6.758  -0.011
 8152TIP3    H224421   4.537   6.757   0.121
 8153TIP3   OH224422   5.848   3.516   3.087
 8153TIP3    H124423   5.850   3.604   3.049
 8153TIP3    H224424   5.918   3.516   3.152
 8154TIP3   OH224425   2.416   0.619   0.857
 8154TIP3    H124426   2.433   0.532   0.894
 8154TIP3    H224427   2.458   0.617   0.771
 8155TIP3   OH224428   1.705   4.408   3.440
 8155TIP3    H124429   1.761   4.334   3.420
 8155TIP3    H224430   1.637   4.406   3.373
 8156TIP3   OH224431   0.365   4.501   3.659
 8156TIP3    H124432   0.361   4.497   3.563
 8156TIP3    H224433   0.338   4.591   3.680
 8157TIP3   OH224434   1.072   5.384   3.497
 8157TIP3    H124435   1.076   5.306   3.442
 8157TIP3    H224436   1.136   5.444   3.458
 8158TIP3   OH224437   6.485   2.194   4.520
 8158TIP3    H124438   6.402   2.168   4.481
 8158TIP3    H224439   6.464   2.213   4.612
 8159TIP3   OH224440   0.377   4.398   3.390
 8159TIP3    H124441   0.343   4.367   3.306
 8159TIP3    H224442   0.438   4.330   3.417
 8160TIP3   OH224443   2.550   5.252   3.910
 8160TIP3    H124444   2.500   5.293   3.980
 8160TIP3    H224445   2.588   5.174   3.951
 8161TIP3   OH224446   4.045   1.279   4.991
 8161TIP3    H124447   4.024   1.370   5.014
 8161TIP3    H224448   4.077   1.284   4.901
 8162TIP3   OH224449   5.730   6.455   3.271
 8162TIP3    H124450   5.795   6.464   3.340
 8162TIP3    H224451   5.781   6.442   3.191
 8163TIP3   OH224452   0.419   6.820   2.160
 8163TIP3    H124453   0.428   6.913   2.138
 8163TIP3    H224454   0.498   6.779   2.125
 8164TIP3   OH224455   6.086   4.790   3.187
 8164TIP3    H124456   6.164   4.798   3.131
 8164TIP3    H224457   6.065   4.880   3.211
 8165TIP3   OH224458   6.978   4.210   5.664
 8165TIP3    H124459   7.066   4.175   5.649
 8165TIP3    H224460   6.958   4.186   5.755
 8166TIP3   OH224461   4.185   4.834   2.283
 8166TIP3    H124462   4.213   4.742   2.284
 8166TIP3    H224463   4.094   4.831   2.255
 8167TIP3   OH224464   5.495   6.730   3.648
 8167TIP3    H124465   5.511   6.790   3.575
 8167TIP3    H224466   5.484   6.787   3.724
 8168TIP3   OH224467   6.228   0.498   3.450
 8168TIP3    H124468   6.280   0.493   3.530
 8168TIP3    H224469   6.289   0.525   3.382
 8169TIP3   OH224470   3.484   4.425   4.911
 8169TIP3    H124471   3.480   4.336   4.944
 8169TIP3    H224472   3.411   4.431   4.848
 8170TIP3   OH224473   4.889   2.138   4.447
 8170TIP3    H124474   4.807   2.089   4.440
 8170TIP3    H224475   4.956   2.077   4.416
 8171TIP3   OH224476   2.415   2.228   2.879
 8171TIP3    H124477   2.341   2.212   2.938
 8171TIP3    H224478   2.374   2.247   2.794
 8172TIP3   OH224479   3.354   0.081   0.512
 8172TIP3    H124480   3.388   0.106   0.598
 8172TIP3    H224481   3.261   0.104   0.515
 8173TIP3   OH224482   4.687   4.347   3.206
 8173TIP3    H124483   4.678   4.284   3.278
 8173TIP3    H224484   4.766   4.396   3.226
 8174TIP3   OH224485   0.546   2.867   1.529
 8174TIP3    H124486   0.483   2.871   1.457
 8174TIP3    H224487   0.528   2.945   1.582
 8175TIP3   OH224488   3.304   4.281   5.413
 8175TIP3    H124489   3.377   4.330   5.450
 8175TIP3    H224490   3.239   4.278   5.484
 8176TIP3   OH224491   6.570   6.400   4.685
 8176TIP3    H124492   6.541   6.310   4.701
 8176TIP3    H224493   6.518   6.429   4.610
 8177TIP3   OH224494   1.438   4.614   3.637
 8177TIP3    H124495   1.488   4.645   3.561
 8177TIP3    H224496   1.481   4.656   3.712
 8178TIP3   OH224497   2.856   6.295   5.030
 8178TIP3    H124498   2.907   6.227   4.986
 8178TIP3    H224499   2.765   6.271   5.015
 8179TIP3   OH224500   4.107   5.168   2.241
 8179TIP3    H124501   4.027   5.121   2.267
 8179TIP3    H224502   4.170   5.148   2.310
 8180TIP3   OH224503   5.407   2.067   2.393
 8180TIP3    H124504   5.462   2.107   2.326
 8180TIP3    H224505   5.334   2.127   2.404
 8181TIP3   OH224506   4.807   4.464   4.487
 8181TIP3    H124507   4.783   4.402   4.556
 8181TIP3    H224508   4.902   4.473   4.496
 8182TIP3   OH224509   2.530   0.458   2.649
 8182TIP3    H124510   2.624   0.478   2.647
 8182TIP3    H224511   2.493   0.512   2.580
 8183TIP3   OH224512   5.201   0.332   5.625
 8183TIP3    H124513   5.276   0.389   5.606
 8183TIP3    H224514   5.240   0.257   5.669
 8184TIP3   OH224515   1.241   4.323   2.970
 8184TIP3    H124516   1.277   4.243   3.007
 8184TIP3    H224517   1.257   4.390   3.036
 8185TIP3   OH224518   4.914   6.328   5.904
 8185TIP3    H124519   4.987   6.281   5.863
 8185TIP3    H224520   4.846   6.261   5.914
 8186TIP3   OH224521   1.534   1.610   4.471
 8186TIP3    H124522   1.623   1.636   4.495
 8186TIP3    H224523   1.526   1.520   4.504
 8187TIP3   OH224524   5.289   4.686   1.485
 8187TIP3    H124525   5.236   4.609   1.463
 8187TIP3    H224526   5.240   4.760   1.449
 8188TIP3   OH224527   3.417   4.526   3.311
 8188TIP3    H124528   3.415   4.545   3.217
 8188TIP3    H224529   3.356   4.589   3.349
 8189TIP3   OH224530   4.241   5.606   2.951
 8189TIP3    H124531   4.159   5.620   2.999
 8189TIP3    H224532   4.310   5.622   3.015
 8190TIP3   OH224533   4.563   2.421   3.075
 8190TIP3    H124534   4.505   2.372   3.133
 8190TIP3    H224535   4.590   2.358   3.009
 8191TIP3   OH224536   6.904   0.668   3.112
 8191TIP3    H124537   6.830   0.640   3.059
 8191TIP3    H224538   6.965   0.707   3.049
 8192TIP3   OH224539   2.821   0.148   4.955
 8192TIP3    H124540   2.846   0.197   5.033
 8192TIP3    H224541   2.891   0.164   4.892
 8193TIP3   OH224542   6.040   2.832   2.951
 8193TIP3    H124543   6.006   2.768   2.888
 8193TIP3    H224544   5.965   2.853   3.006
 8194TIP3   OH224545   3.266   1.551   4.273
 8194TIP3    H124546   3.275   1.561   4.368
 8194TIP3    H224547   3.253   1.640   4.241
 8195TIP3   OH224548   1.720   1.477   2.760
 8195TIP3    H124549   1.800   1.511   2.799
 8195TIP3    H224550   1.708   1.391   2.802
 8196TIP3   OH224551   0.435   3.453   1.650
 8196TIP3    H124552   0.417   3.483   1.739
 8196TIP3    H224553   0.352   3.464   1.603
 8197TIP3   OH224554   0.479   2.619   1.983
 8197TIP3    H124555   0.551   2.646   2.041
 8197TIP3    H224556   0.493   2.525   1.970
 8198TIP3   OH224557   2.017   4.323   4.127
 8198TIP3    H124558   2.084   4.289   4.068
 8198TIP3    H224559   2.063   4.338   4.209
 8199TIP3   OH224560   0.241   0.355   2.409
 8199TIP3    H124561   0.232   0.261   2.394
 8199TIP3    H224562   0.245   0.393   2.322
 8200TIP3   OH224563   3.607   4.849   5.323
 8200TIP3    H124564   3.680   4.858   5.384
 8200TIP3    H224565   3.635   4.779   5.264
 8201TIP3   OH224566   2.500   4.078   4.430
 8201TIP3    H124567   2.423   4.117   4.473
 8201TIP3    H224568   2.530   4.011   4.490
 8202TIP3   OH224569   0.316   0.828   3.233
 8202TIP3    H124570   0.374   0.879   3.176
 8202TIP3    H224571   0.339   0.856   3.322
 8203TIP3   OH224572   6.223   2.142   4.503
 8203TIP3    H124573   6.140   2.124   4.547
 8203TIP3    H224574   6.199   2.185   4.422
 8204TIP3   OH224575   7.205   2.296   4.591
 8204TIP3    H124576   7.285   2.350   4.588
 8204TIP3    H224577   7.164   2.311   4.506
 8205TIP3   OH224578   3.957   1.446   1.940
 8205TIP3    H124579   3.869   1.409   1.939
 8205TIP3    H224580   3.997   1.415   1.858
 8206TIP3   OH224581   1.618   5.019   2.645
 8206TIP3    H124582   1.609   5.107   2.681
 8206TIP3    H224583   1.545   5.011   2.584
 8207TIP3   OH224584   5.581   4.954   4.201
 8207TIP3    H124585   5.545   5.010   4.270
 8207TIP3    H224586   5.661   4.999   4.174
 8208TIP3   OH224587   0.057   1.004   3.338
 8208TIP3    H124588   0.143   0.966   3.358
 8208TIP3    H224589   0.065   1.096   3.364
 8209TIP3   OH224590   5.499   2.383   0.390
 8209TIP3    H124591   5.553   2.339   0.455
 8209TIP3    H224592   5.449   2.313   0.348
 8210TIP3   OH224593   4.438   5.013   3.888
 8210TIP3    H124594   4.510   5.019   3.826
 8210TIP3    H224595   4.362   5.044   3.839
 8211TIP3   OH224596   5.694   5.145   0.212
 8211TIP3    H124597   5.692   5.073   0.150
 8211TIP3    H224598   5.727   5.219   0.161
 8212TIP3   OH224599   0.247   3.832   4.250
 8212TIP3    H124600   0.196   3.869   4.177
 8212TIP3    H224601   0.258   3.905   4.311
 8213TIP3   OH224602   7.058   3.371   0.542
 8213TIP3    H124603   7.030   3.287   0.504
 8213TIP3    H224604   6.978   3.406   0.582
 8214TIP3   OH224605   5.158   5.924   4.808
 8214TIP3    H124606   5.203   5.843   4.834
 8214TIP3    H224607   5.133   5.910   4.717
 8215TIP3   OH224608   7.088   0.068   2.449
 8215TIP3    H124609   7.032   0.058   2.372
 8215TIP3    H224610   7.138  -0.013   2.453
 8216TIP3   OH224611   0.244   0.405   2.097
 8216TIP3    H124612   0.301   0.331   2.117
 8216TIP3    H224613   0.304   0.475   2.069
 8217TIP3   OH224614   0.866   1.271   2.719
 8217TIP3    H124615   0.851   1.366   2.719
 8217TIP3    H224616   0.953   1.261   2.759
 8218TIP3   OH224617   1.075   2.355   5.353
 8218TIP3    H124618   1.059   2.265   5.325
 8218TIP3    H224619   1.094   2.403   5.272
 8219TIP3   OH224620   3.256   4.410   0.628
 8219TIP3    H124621   3.253   4.409   0.723
 8219TIP3    H224622   3.320   4.479   0.606
 8220TIP3   OH224623   6.766   5.823   3.966
 8220TIP3    H124624   6.858   5.820   3.940
 8220TIP3    H224625   6.723   5.870   3.895
 8221TIP3   OH224626   4.658   0.398   1.287
 8221TIP3    H124627   4.564   0.379   1.291
 8221TIP3    H224628   4.686   0.361   1.203
 8222TIP3   OH224629   3.964   6.829   4.434
 8222TIP3    H124630   3.964   6.784   4.518
 8222TIP3    H224631   3.908   6.905   4.447
 8223TIP3   OH224632   5.770   0.137   2.935
 8223TIP3    H124633   5.794   0.228   2.915
 8223TIP3    H224634   5.681   0.128   2.901
 8224TIP3   OH224635   2.383   0.447   0.361
 8224TIP3    H124636   2.346   0.359   0.351
 8224TIP3    H224637   2.355   0.495   0.283
 8225TIP3   OH224638   7.086   2.641   4.595
 8225TIP3    H124639   7.036   2.720   4.574
 8225TIP3    H224640   7.029   2.569   4.569
 8226TIP3   OH224641   3.932  -0.008   5.668
 8226TIP3    H124642   3.847   0.026   5.639
 8226TIP3    H224643   3.983  -0.015   5.588
 8227TIP3   OH224644   4.339   4.671   2.877
 8227TIP3    H124645   4.422   4.712   2.852
 8227TIP3    H224646   4.364   4.601   2.937
 8228TIP3   OH224647   2.782   5.104   2.800
 8228TIP3    H124648   2.746   5.136   2.883
 8228TIP3    H224649   2.708   5.059   2.758
 8229TIP3   OH224650   3.669   5.022   1.768
 8229TIP3    H124651   3.644   4.930   1.763
 8229TIP3    H224652   3.650   5.057   1.682
 8230TIP3   OH224653   3.349   3.608   0.050
 8230TIP3    H124654   3.324   3.617   0.142
 8230TIP3    H224655   3.275   3.563   0.009
 8231TIP3   OH224656   2.929   3.986   0.998
 8231TIP3    H124657   2.856   4.034   0.958
 8231TIP3    H224658   2.886   3.925   1.059
 8232TIP3   OH224659   4.175   3.325   5.006
 8232TIP3    H124660   4.190   3.272   5.084
 8232TIP3    H224661   4.251   3.382   5.000
 8233TIP3   OH224662   2.028   6.122   3.064
 8233TIP3    H124663   1.949   6.071   3.051
 8233TIP3    H224664   2.096   6.074   3.018
 8234TIP3   OH224665   1.277   2.336   0.182
 8234TIP3    H124666   1.347   2.278   0.153
 8234TIP3    H224667   1.294   2.350   0.275
 8235TIP3   OH224668   3.335   4.176   4.970
 8235TIP3    H124669   3.268   4.169   5.038
 8235TIP3    H224670   3.289   4.154   4.889
 8236TIP3   OH224671   7.008   6.284   1.885
 8236TIP3    H124672   7.044   6.205   1.845
 8236TIP3    H224673   7.043   6.285   1.974
 8237TIP3   OH224674   5.955   4.246   5.148
 8237TIP3    H124675   6.030   4.223   5.202
 8237TIP3    H224676   5.879   4.226   5.202
 8238TIP3   OH224677   3.262   0.802   4.873
 8238TIP3    H124678   3.300   0.853   4.802
 8238TIP3    H224679   3.250   0.865   4.944
 8239TIP3   OH224680   2.988   4.662   2.499
 8239TIP3    H124681   2.967   4.573   2.471
 8239TIP3    H224682   3.076   4.678   2.465
 8240TIP3   OH224683   3.473   0.823   5.396
 8240TIP3    H124684   3.504   0.747   5.445
 8240TIP3    H224685   3.532   0.830   5.322
 8241TIP3   OH224686   3.434   5.080   2.187
 8241TIP3    H124687   3.420   5.013   2.120
 8241TIP3    H224688   3.359   5.139   2.178
 8242TIP3   OH224689   1.573   3.408   5.743
 8242TIP3    H124690   1.514   3.357   5.687
 8242TIP3    H224691   1.515   3.448   5.808
 8243TIP3   OH224692   4.417   3.355   3.109
 8243TIP3    H124693   4.382   3.443   3.100
 8243TIP3    H224694   4.506   3.367   3.143
 8244TIP3   OH224695   5.166   0.424   2.578
 8244TIP3    H124696   5.205   0.342   2.606
 8244TIP3    H224697   5.140   0.408   2.487
 8245TIP3   OH224698   0.024   4.221   0.641
 8245TIP3    H124699  -0.045   4.181   0.694
 8245TIP3    H224700   0.007   4.189   0.552
 8246TIP3   OH224701   6.615   1.681   4.055
 8246TIP3    H124702   6.691   1.624   4.060
 8246TIP3    H224703   6.542   1.627   4.085
 8247TIP3   OH224704   1.015   4.029   4.214
 8247TIP3    H124705   0.929   4.054   4.249
 8247TIP3    H224706   1.015   4.064   4.124
 8248TIP3   OH224707   2.088   5.415   2.960
 8248TIP3    H124708   2.183   5.406   2.952
 8248TIP3    H224709   2.068   5.383   3.048
 8249TIP3   OH224710   5.152   0.837   0.409
 8249TIP3    H124711   5.073   0.795   0.375
 8249TIP3    H224712   5.222   0.809   0.349
 8250TIP3   OH224713   3.174   2.305   1.678
 8250TIP3    H124714   3.102   2.367   1.667
 8250TIP3    H224715   3.232   2.324   1.604
 8251TIP3   OH224716   2.969   4.558   1.898
 8251TIP3    H124717   2.904   4.543   1.829
 8251TIP3    H224718   2.983   4.653   1.897
 8252TIP3   OH224719   4.523   2.022   0.801
 8252TIP3    H124720   4.434   1.987   0.804
 8252TIP3    H224721   4.547   2.035   0.893
 8253TIP3   OH224722   0.685   4.206   0.913
 8253TIP3    H124723   0.688   4.292   0.872
 8253TIP3    H224724   0.610   4.211   0.973
 8254TIP3   OH224725   3.341   4.542   1.775
 8254TIP3    H124726   3.363   4.559   1.866
 8254TIP3    H224727   3.358   4.625   1.730
 8255TIP3   OH224728   1.586   6.092   3.771
 8255TIP3    H124729   1.670   6.136   3.774
 8255TIP3    H224730   1.587   6.034   3.848
 8256TIP3   OH224731   4.485   1.283   2.128
 8256TIP3    H124732   4.541   1.310   2.055
 8256TIP3    H224733   4.397   1.313   2.103
 8257TIP3   OH224734   2.261   3.818   5.626
 8257TIP3    H124735   2.200   3.748   5.647
 8257TIP3    H224736   2.326   3.817   5.696
 8258TIP3   OH224737   4.204   5.841   0.407
 8258TIP3    H124738   4.147   5.886   0.345
 8258TIP3    H224739   4.213   5.752   0.372
 8259TIP3   OH224740   5.963   0.435   2.683
 8259TIP3    H124741   6.036   0.428   2.744
 8259TIP3    H224742   5.981   0.515   2.634
 8260TIP3   OH224743   1.933   0.944   1.453
 8260TIP3    H124744   1.849   0.988   1.470
 8260TIP3    H224745   1.956   0.972   1.364
 8261TIP3   OH224746   3.113   1.087   3.250
 8261TIP3    H124747   3.088   0.999   3.277
 8261TIP3    H224748   3.124   1.081   3.155
 8262TIP3   OH224749   1.866   1.150   4.056
 8262TIP3    H124750   1.778   1.172   4.026
 8262TIP3    H224751   1.895   1.228   4.103
 8263TIP3   OH224752   5.483   2.960   4.132
 8263TIP3    H124753   5.473   3.036   4.190
 8263TIP3    H224754   5.577   2.950   4.121
 8264TIP3   OH224755   3.948   3.171   4.651
 8264TIP3    H124756   3.854   3.154   4.642
 8264TIP3    H224757   3.952   3.258   4.691
 8265TIP3   OH224758   4.905   2.203   0.793
 8265TIP3    H124759   4.994   2.168   0.788
 8265TIP3    H224760   4.877   2.184   0.883
 8266TIP3   OH224761   4.300   6.371   0.878
 8266TIP3    H124762   4.321   6.297   0.821
 8266TIP3    H224763   4.384   6.398   0.915
 8267TIP3   OH224764   0.852   3.708   1.575
 8267TIP3    H124765   0.798   3.675   1.647
 8267TIP3    H224766   0.842   3.643   1.505
 8268TIP3   OH224767   0.641   3.095   2.858
 8268TIP3    H124768   0.573   3.037   2.894
 8268TIP3    H224769   0.715   3.085   2.918
 8269TIP3   OH224770   2.774   1.682   3.874
 8269TIP3    H124771   2.796   1.773   3.891
 8269TIP3    H224772   2.756   1.645   3.961
 8270TIP3   OH224773   3.857   1.879   2.225
 8270TIP3    H124774   3.778   1.921   2.259
 8270TIP3    H224775   3.831   1.789   2.207
 8271TIP3   OH224776   1.531   2.825   2.825
 8271TIP3    H124777   1.538   2.781   2.910
 8271TIP3    H224778   1.538   2.754   2.761
 8272TIP3   OH224779   6.421   4.133   0.243
 8272TIP3    H124780   6.451   4.048   0.276
 8272TIP3    H224781   6.502   4.180   0.221
 8273TIP3   OH224782   5.578   4.497   4.192
 8273TIP3    H124783   5.621   4.412   4.195
 8273TIP3    H224784   5.484   4.477   4.191
 8274TIP3   OH224785   1.616   4.091  -0.031
 8274TIP3    H124786   1.525   4.118  -0.044
 8274TIP3    H224787   1.638   4.041  -0.110
 8275TIP3   OH224788   0.176   5.968   2.135
 8275TIP3    H124789   0.112   6.036   2.115
 8275TIP3    H224790   0.126   5.887   2.136
 8276TIP3   OH224791   6.241   2.404   1.440
 8276TIP3    H124792   6.158   2.397   1.487
 8276TIP3    H224793   6.270   2.314   1.428
 8277TIP3   OH224794   5.438   4.481   1.030
 8277TIP3    H124795   5.508   4.496   1.093
 8277TIP3    H224796   5.383   4.559   1.035
 8278TIP3   OH224797   1.221   6.007   3.372
 8278TIP3    H124798   1.286   5.953   3.417
 8278TIP3    H224799   1.240   6.096   3.399
 8279TIP3   OH224800   1.522   5.192   1.545
 8279TIP3    H124801   1.562   5.113   1.510
 8279TIP3    H224802   1.505   5.171   1.637
 8280TIP3   OH224803   0.996   6.607   0.477
 8280TIP3    H124804   0.999   6.693   0.519
 8280TIP3    H224805   1.075   6.604   0.422
 8281TIP3   OH224806   5.412   1.504   1.067
 8281TIP3    H124807   5.426   1.418   1.027
 8281TIP3    H224808   5.413   1.487   1.161
 8282TIP3   OH224809   4.332   1.940   2.485
 8282TIP3    H124810   4.358   1.849   2.495
 8282TIP3    H224811   4.390   1.988   2.544
 8283TIP3   OH224812   1.907   1.649   5.371
 8283TIP3    H124813   1.997   1.618   5.378
 8283TIP3    H224814   1.856   1.584   5.419
 8284TIP3   OH224815   3.584   5.177   2.917
 8284TIP3    H124816   3.642   5.128   2.976
 8284TIP3    H224817   3.498   5.172   2.960
 8285TIP3   OH224818   6.230   6.312   1.162
 8285TIP3    H124819   6.243   6.307   1.257
 8285TIP3    H224820   6.239   6.221   1.132
 8286TIP3   OH224821   5.612   2.259   5.386
 8286TIP3    H124822   5.537   2.245   5.443
 8286TIP3    H224823   5.674   2.310   5.439
 8287TIP3   OH224824   0.694   0.139   3.487
 8287TIP3    H124825   0.777   0.162   3.528
 8287TIP3    H224826   0.704   0.169   3.396
 8288TIP3   OH224827   5.182   4.939   4.224
 8288TIP3    H124828   5.140   4.924   4.140
 8288TIP3    H224829   5.122   4.900   4.288
 8289TIP3   OH224830   0.371   0.723   1.374
 8289TIP3    H124831   0.398   0.711   1.283
 8289TIP3    H224832   0.275   0.718   1.372
 8290TIP3   OH224833   6.097   1.139   2.120
 8290TIP3    H124834   6.093   1.080   2.044
 8290TIP3    H224835   6.125   1.082   2.192
 8291TIP3   OH224836   6.859   4.050   4.472
 8291TIP3    H124837   6.834   3.990   4.542
 8291TIP3    H224838   6.945   4.020   4.443
 8292TIP3   OH224839   1.457   5.431   1.957
 8292TIP3    H124840   1.415   5.387   1.884
 8292TIP3    H224841   1.399   5.415   2.031
 8293TIP3   OH224842   3.206   3.190   0.066
 8293TIP3    H124843   3.112   3.172   0.060
 8293TIP3    H224844   3.219   3.219   0.157
 8294TIP3   OH224845   1.475   3.984   5.221
 8294TIP3    H124846   1.469   3.933   5.302
 8294TIP3    H224847   1.384   3.998   5.195
 8295TIP3   OH224848   4.316   1.184   5.490
 8295TIP3    H124849   4.327   1.279   5.492
 8295TIP3    H224850   4.309   1.162   5.397
 8296TIP3   OH224851   4.710   4.191   4.495
 8296TIP3    H124852   4.705   4.111   4.444
 8296TIP3    H224853   4.630   4.191   4.547
 8297TIP3   OH224854   0.303   2.825   3.284
 8297TIP3    H124855   0.210   2.805   3.271
 8297TIP3    H224856   0.342   2.740   3.306
 8298TIP3   OH224857   4.339   6.288   2.295
 8298TIP3    H124858   4.252   6.323   2.276
 8298TIP3    H224859   4.394   6.366   2.304
 8299TIP3   OH224860   2.825   1.620   0.389
 8299TIP3    H124861   2.918   1.609   0.406
 8299TIP3    H224862   2.816   1.605   0.294
 8300TIP3   OH224863   5.915   2.150   5.551
 8300TIP3    H124864   5.835   2.131   5.600
 8300TIP3    H224865   5.904   2.239   5.519
 8301TIP3   OH224866   4.372   0.201   5.486
 8301TIP3    H124867   4.340   0.125   5.534
 8301TIP3    H224868   4.454   0.224   5.529
 8302TIP3   OH224869   3.202   6.008   0.959
 8302TIP3    H124870   3.114   5.991   0.993
 8302TIP3    H224871   3.229   6.090   1.001
 8303TIP3   OH224872   1.850   6.452   5.191
 8303TIP3    H124873   1.802   6.526   5.155
 8303TIP3    H224874   1.831   6.380   5.130
 8304TIP3   OH224875   0.516   1.699   0.551
 8304TIP3    H124876   0.554   1.657   0.628
 8304TIP3    H224877   0.423   1.706   0.570
 8305TIP3   OH224878   4.424   1.222   4.763
 8305TIP3    H124879   4.384   1.214   4.849
 8305TIP3    H224880   4.518   1.227   4.779
 8306TIP3   OH224881   1.829   5.410   2.158
 8306TIP3    H124882   1.900   5.367   2.110
 8306TIP3    H224883   1.874   5.465   2.223
 8307TIP3   OH224884   6.326   1.914   2.699
 8307TIP3    H124885   6.316   1.825   2.665
 8307TIP3    H224886   6.250   1.926   2.756
 8308TIP3   OH224887   2.921   5.570   3.826
 8308TIP3    H124888   2.903   5.568   3.732
 8308TIP3    H224889   3.016   5.563   3.833
 8309TIP3   OH224890   5.323   2.583   0.208
 8309TIP3    H124891   5.280   2.536   0.136
 8309TIP3    H224892   5.362   2.513   0.261
 8310TIP3   OH224893   1.071   4.113   0.970
 8310TIP3    H124894   1.088   4.202   1.001
 8310TIP3    H224895   1.002   4.081   1.028
 8311TIP3   OH224896   0.494   0.219   3.733
 8311TIP3    H124897   0.519   0.181   3.648
 8311TIP3    H224898   0.421   0.277   3.713
 8312TIP3   OH224899   3.897   5.897   0.848
 8312TIP3    H124900   3.950   5.874   0.772
 8312TIP3    H224901   3.865   5.813   0.881
 8313TIP3   OH224902   5.750   6.659   3.938
 8313TIP3    H124903   5.692   6.707   3.997
 8313TIP3    H224904   5.810   6.613   3.997
 8314TIP3   OH224905   6.593   2.124   1.801
 8314TIP3    H124906   6.539   2.203   1.799
 8314TIP3    H224907   6.640   2.129   1.884
 8315TIP3   OH224908   2.839   4.124   3.043
 8315TIP3    H124909   2.772   4.057   3.059
 8315TIP3    H224910   2.914   4.074   3.011
 8316TIP3   OH224911   5.118   1.981   0.505
 8316TIP3    H124912   5.094   1.928   0.581
 8316TIP3    H224913   5.141   2.066   0.542
 8317TIP3   OH224914   5.751   1.130   4.909
 8317TIP3    H124915   5.671   1.106   4.955
 8317TIP3    H224916   5.721   1.171   4.828
 8318TIP3   OH224917   4.266   6.483   1.637
 8318TIP3    H124918   4.262   6.402   1.586
 8318TIP3    H224919   4.190   6.533   1.608
 8319TIP3   OH224920   5.575   1.664   0.872
 8319TIP3    H124921   5.571   1.618   0.788
 8319TIP3    H224922   5.533   1.605   0.934
 8320TIP3   OH224923   2.527   1.192   3.873
 8320TIP3    H124924   2.442   1.162   3.904
 8320TIP3    H224925   2.553   1.127   3.808
 8321TIP3   OH224926   1.533   3.164   2.956
 8321TIP3    H124927   1.620   3.194   2.928
 8321TIP3    H224928   1.548   3.114   3.036
 8322TIP3   OH224929   1.129   5.765   0.968
 8322TIP3    H124930   1.092   5.853   0.965
 8322TIP3    H224931   1.091   5.720   0.893
 8323TIP3   OH224932   2.944   6.218   5.753
 8323TIP3    H124933   2.850   6.207   5.769
 8323TIP3    H224934   2.957   6.312   5.754
 8324TIP3   OH224935   3.296   6.101   4.239
 8324TIP3    H124936   3.346   6.029   4.277
 8324TIP3    H224937   3.206   6.087   4.269
 8325TIP3   OH224938   6.453   0.528   0.287
 8325TIP3    H124939   6.446   0.484   0.371
 8325TIP3    H224940   6.501   0.609   0.306
 8326TIP3   OH224941   3.992   4.966   1.668
 8326TIP3    H124942   3.998   4.969   1.764
 8326TIP3    H224943   3.995   4.873   1.646
 8327TIP3   OH224944   4.286   3.267   0.121
 8327TIP3    H124945   4.345   3.197   0.096
 8327TIP3    H224946   4.283   3.325   0.045
 8328TIP3   OH224947   1.387   2.726   3.702
 8328TIP3    H124948   1.388   2.679   3.619
 8328TIP3    H224949   1.478   2.728   3.729
 8329TIP3   OH224950   2.838   4.051   4.332
 8329TIP3    H124951   2.880   3.965   4.343
 8329TIP3    H224952   2.748   4.030   4.308
 8330TIP3   OH224953   1.552   6.399   3.357
 8330TIP3    H124954   1.572   6.435   3.443
 8330TIP3    H224955   1.626   6.342   3.336
 8331TIP3   OH224956   1.270   4.319   1.992
 8331TIP3    H124957   1.197   4.375   1.964
 8331TIP3    H224958   1.284   4.260   1.918
 8332TIP3   OH224959   3.035   5.839   1.639
 8332TIP3    H124960   3.038   5.754   1.682
 8332TIP3    H224961   2.945   5.847   1.607
 8333TIP3   OH224962   7.068   0.682   1.413
 8333TIP3    H124963   7.061   0.710   1.504
 8333TIP3    H224964   6.982   0.645   1.392
 8334TIP3   OH224965   4.159   3.547   2.312
 8334TIP3    H124966   4.080   3.542   2.365
 8334TIP3    H224967   4.229   3.563   2.375
 8335TIP3   OH224968   6.089   0.757   5.175
 8335TIP3    H124969   6.047   0.744   5.090
 8335TIP3    H224970   6.044   0.832   5.213
 8336TIP3   OH224971   5.178   0.827   5.131
 8336TIP3    H124972   5.151   0.736   5.138
 8336TIP3    H224973   5.274   0.825   5.131
 8337TIP3   OH224974   3.247   3.351   2.100
 8337TIP3    H124975   3.202   3.435   2.099
 8337TIP3    H224976   3.301   3.352   2.020
 8338TIP3   OH224977   0.414   0.312   4.769
 8338TIP3    H124978   0.458   0.281   4.848
 8338TIP3    H224979   0.344   0.368   4.801
 8339TIP3   OH224980   3.417   1.960   0.333
 8339TIP3    H124981   3.472   2.034   0.309
 8339TIP3    H224982   3.409   1.908   0.253
 8340TIP3   OH224983   4.459   6.666   3.430
 8340TIP3    H124984   4.547   6.663   3.466
 8340TIP3    H224985   4.471   6.657   3.335
 8341TIP3   OH224986   2.723   5.678   3.140
 8341TIP3    H124987   2.703   5.649   3.051
 8341TIP3    H224988   2.783   5.752   3.128
 8342TIP3   OH224989   1.212   1.240   0.441
 8342TIP3    H124990   1.305   1.251   0.459
 8342TIP3    H224991   1.192   1.151   0.469
 8343TIP3   OH224992   3.111   5.028   2.374
 8343TIP3    H124993   3.122   5.067   2.287
 8343TIP3    H224994   3.097   5.104   2.432
 8344TIP3   OH224995   2.741   0.252   5.407
 8344TIP3    H124996   2.762   0.187   5.474
 8344TIP3    H224997   2.822   0.303   5.398
 8345TIP3   OH224998   7.022   2.749   0.342
 8345TIP3    H124999   7.000   2.657   0.327
 8345TIP3    H225000   7.114   2.746   0.370
 8346TIP3   OH225001   0.953   1.159   2.189
 8346TIP3    H125002   0.891   1.218   2.232
 8346TIP3    H225003   1.005   1.124   2.261
 8347TIP3   OH225004   3.412   4.228   1.452
 8347TIP3    H125005   3.402   4.216   1.547
 8347TIP3    H225006   3.371   4.313   1.434
 8348TIP3   OH225007   6.435   3.747   0.938
 8348TIP3    H125008   6.355   3.799   0.928
 8348TIP3    H225009   6.442   3.732   1.032
 8349TIP3   OH225010   7.000   0.686   4.980
 8349TIP3    H125011   7.023   0.721   4.894
 8349TIP3    H225012   6.921   0.634   4.965
 8350TIP3   OH225013   5.329   6.368   2.145
 8350TIP3    H125014   5.343   6.274   2.135
 8350TIP3    H225015   5.373   6.390   2.227
 8351TIP3   OH225016   3.860   3.798   4.381
 8351TIP3    H125017   3.947   3.822   4.414
 8351TIP3    H225018   3.860   3.703   4.382
 8352TIP3   OH225019   5.878   3.357   5.594
 8352TIP3    H125020   5.783   3.348   5.590
 8352TIP3    H225021   5.897   3.369   5.687
 8353TIP3   OH225022   5.671   5.000   4.758
 8353TIP3    H125023   5.624   5.081   4.739
 8353TIP3    H225024   5.751   5.005   4.705
 8354TIP3   OH225025   6.255   6.162   5.232
 8354TIP3    H125026   6.202   6.149   5.310
 8354TIP3    H225027   6.210   6.112   5.164
 8355TIP3   OH225028   7.098   4.623   1.420
 8355TIP3    H125029   7.055   4.564   1.483
 8355TIP3    H225030   7.039   4.698   1.413
 8356TIP3   OH225031   7.235   4.676   4.216
 8356TIP3    H125032   7.143   4.649   4.221
 8356TIP3    H225033   7.263   4.680   4.308
 8357TIP3   OH225034   3.252   2.005   1.804
 8357TIP3    H125035   3.172   1.966   1.770
 8357TIP3    H225036   3.225   2.050   1.884
 8358TIP3   OH225037   3.578   1.528   4.347
 8358TIP3    H125038   3.535   1.446   4.326
 8358TIP3    H225039   3.671   1.506   4.354
 8359TIP3   OH225040   3.318   6.452   0.945
 8359TIP3    H125041   3.252   6.499   0.893
 8359TIP3    H225042   3.279   6.445   1.032
 8360TIP3   OH225043   5.730   6.045   2.794
 8360TIP3    H125044   5.736   5.979   2.725
 8360TIP3    H225045   5.717   6.127   2.747
 8361TIP3   OH225046   0.433   1.284   4.971
 8361TIP3    H125047   0.358   1.317   4.922
 8361TIP3    H225048   0.471   1.363   5.011
 8362TIP3   OH225049   6.078   3.730   4.254
 8362TIP3    H125050   6.002   3.678   4.282
 8362TIP3    H225051   6.091   3.794   4.324
 8363TIP3   OH225052   6.500   4.347   4.749
 8363TIP3    H125053   6.546   4.322   4.829
 8363TIP3    H225054   6.564   4.400   4.701
 8364TIP3   OH225055   6.990   5.701   3.563
 8364TIP3    H125056   7.016   5.643   3.492
 8364TIP3    H225057   6.921   5.654   3.609
 8365TIP3   OH225058   5.262   0.509   4.758
 8365TIP3    H125059   5.229   0.597   4.740
 8365TIP3    H225060   5.187   0.462   4.792
 8366TIP3   OH225061   4.500   0.541   2.438
 8366TIP3    H125062   4.559   0.607   2.474
 8366TIP3    H225063   4.500   0.558   2.344
 8367TIP3   OH225064   4.686   6.166   2.347
 8367TIP3    H125065   4.764   6.204   2.307
 8367TIP3    H225066   4.622   6.162   2.276
 8368TIP3   OH225067   3.458   0.127   2.653
 8368TIP3    H125068   3.411   0.046   2.672
 8368TIP3    H225069   3.531   0.128   2.716
 8369TIP3   OH225070   0.855   1.944   5.767
 8369TIP3    H125071   0.944   1.919   5.792
 8369TIP3    H225072   0.799   1.889   5.822
 8370TIP3   OH225073   1.061   5.479   4.320
 8370TIP3    H125074   0.991   5.445   4.264
 8370TIP3    H225075   1.078   5.567   4.288
 8371TIP3   OH225076   1.021   5.983   4.986
 8371TIP3    H125077   1.115   5.993   4.973
 8371TIP3    H225078   0.986   5.964   4.898
 8372TIP3   OH225079   2.338   5.472   4.608
 8372TIP3    H125080   2.335   5.481   4.512
 8372TIP3    H225081   2.406   5.407   4.624
 8373TIP3   OH225082   1.782   5.076   3.484
 8373TIP3    H125083   1.877   5.080   3.481
 8373TIP3    H225084   1.753   5.155   3.438
 8374TIP3   OH225085   3.275   2.811   1.222
 8374TIP3    H125086   3.318   2.766   1.294
 8374TIP3    H225087   3.185   2.779   1.222
 8375TIP3   OH225088   6.012   2.434   4.750
 8375TIP3    H125089   6.025   2.357   4.694
 8375TIP3    H225090   6.092   2.485   4.738
 8376TIP3   OH225091   7.249   0.657   2.254
 8376TIP3    H125092   7.212   0.633   2.169
 8376TIP3    H225093   7.290   0.743   2.239
 8377TIP3   OH225094   6.141   1.854   3.590
 8377TIP3    H125095   6.101   1.836   3.674
 8377TIP3    H225096   6.212   1.790   3.583
 8378TIP3   OH225097   6.180   0.117   1.423
 8378TIP3    H125098   6.152   0.086   1.337
 8378TIP3    H225099   6.099   0.148   1.465
 8379TIP3   OH225100   5.631   2.222   0.605
 8379TIP3    H125101   5.559   2.190   0.660
 8379TIP3    H225102   5.639   2.315   0.628
 8380TIP3   OH225103   5.013   0.333   5.161
 8380TIP3    H125104   5.096   0.296   5.130
 8380TIP3    H225105   4.972   0.262   5.210
 8381TIP3   OH225106   1.675   1.424   1.727
 8381TIP3    H125107   1.596   1.371   1.713
 8381TIP3    H225108   1.642   1.514   1.734
 8382TIP3   OH225109   6.415   0.855   5.223
 8382TIP3    H125110   6.392   0.872   5.132
 8382TIP3    H225111   6.507   0.880   5.230
 8383TIP3   OH225112   6.752   3.006   5.384
 8383TIP3    H125113   6.729   2.982   5.474
 8383TIP3    H225114   6.691   3.077   5.362
 8384TIP3   OH225115   2.273   4.261   1.303
 8384TIP3    H125116   2.309   4.175   1.324
 8384TIP3    H225117   2.189   4.265   1.350
 8385TIP3   OH225118   3.844   2.455   0.419
 8385TIP3    H125119   3.805   2.468   0.333
 8385TIP3    H225120   3.873   2.543   0.446
 8386TIP3   OH225121   4.343   4.276   2.113
 8386TIP3    H125122   4.299   4.252   2.195
 8386TIP3    H225123   4.421   4.220   2.112
 8387TIP3   OH225124   3.097   3.397   5.797
 8387TIP3    H125125   3.090   3.386   5.892
 8387TIP3    H225126   3.035   3.334   5.760
 8388TIP3   OH225127   2.399   4.065   0.177
 8388TIP3    H125128   2.316   4.030   0.144
 8388TIP3    H225129   2.374   4.124   0.248
 8389TIP3   OH225130   2.150   5.447   5.752
 8389TIP3    H125131   2.225   5.502   5.771
 8389TIP3    H225132   2.163   5.417   5.662
 8390TIP3   OH225133   1.220   2.641   0.234
 8390TIP3    H125134   1.216   2.596   0.150
 8390TIP3    H225135   1.311   2.630   0.263
 8391TIP3   OH225136   0.145   0.122   4.805
 8391TIP3    H125137   0.073   0.178   4.834
 8391TIP3    H225138   0.210   0.182   4.771
 8392TIP3   OH225139   0.267   3.514   5.878
 8392TIP3    H125140   0.317   3.434   5.861
 8392TIP3    H225141   0.331   3.574   5.917
 8393TIP3   OH225142   3.373   3.889   5.164
 8393TIP3    H125143   3.437   3.825   5.131
 8393TIP3    H225144   3.298   3.879   5.107
 8394TIP3   OH225145   3.749   6.128   0.769
 8394TIP3    H125146   3.804   6.194   0.727
 8394TIP3    H225147   3.802   6.048   0.766
 8395TIP3   OH225148   2.532   0.713   4.438
 8395TIP3    H125149   2.589   0.715   4.515
 8395TIP3    H225150   2.445   0.694   4.474
 8396TIP3   OH225151   2.139  -0.021   2.943
 8396TIP3    H125152   2.125  -0.100   2.995
 8396TIP3    H225153   2.077   0.043   2.978
 8397TIP3   OH225154   7.121   2.818   2.279
 8397TIP3    H125155   7.154   2.898   2.319
 8397TIP3    H225156   7.193   2.786   2.224
 8398TIP3   OH225157   3.178   1.902   4.462
 8398TIP3    H125158   3.236   1.882   4.536
 8398TIP3    H225159   3.109   1.957   4.500
 8399TIP3   OH225160   5.655   6.076   1.095
 8399TIP3    H125161   5.659   5.981   1.091
 8399TIP3    H225162   5.739   6.102   1.134
 8400TIP3   OH225163   2.320   1.623   0.333
 8400TIP3    H125164   2.331   1.672   0.415
 8400TIP3    H225165   2.398   1.567   0.329
 8401TIP3   OH225166   0.440   3.157   1.712
 8401TIP3    H125167   0.492   3.171   1.791
 8401TIP3    H225168   0.421   3.245   1.680
 8402TIP3   OH225169   3.576   6.276   0.939
 8402TIP3    H125170   3.552   6.240   0.854
 8402TIP3    H225171   3.624   6.356   0.919
 8403TIP3   OH225172   6.885   6.211   5.296
 8403TIP3    H125173   6.869   6.228   5.203
 8403TIP3    H225174   6.799   6.215   5.337
 8404TIP3   OH225175   0.857   0.742   0.360
 8404TIP3    H125176   0.898   0.663   0.395
 8404TIP3    H225177   0.839   0.721   0.268
 8405TIP3   OH225178   1.145   2.339   1.817
 8405TIP3    H125179   1.186   2.424   1.800
 8405TIP3    H225180   1.203   2.276   1.776
 8406TIP3   OH225181   2.218   2.052   3.618
 8406TIP3    H125182   2.165   1.999   3.558
 8406TIP3    H225183   2.159   2.073   3.691
 8407TIP3   OH225184   5.502   6.241   1.973
 8407TIP3    H125185   5.468   6.154   1.953
 8407TIP3    H225186   5.485   6.292   1.894
 8408TIP3   OH225187   6.789   2.561   2.297
 8408TIP3    H125188   6.721   2.628   2.303
 8408TIP3    H225189   6.742   2.478   2.307
 8409TIP3   OH225190   1.089   3.812   1.531
 8409TIP3    H125191   1.099   3.812   1.436
 8409TIP3    H225192   1.011   3.760   1.547
 8410TIP3   OH225193   2.959   2.848   3.972
 8410TIP3    H125194   3.034   2.826   3.917
 8410TIP3    H225195   2.891   2.873   3.910
 8411TIP3   OH225196   1.132   3.257   0.235
 8411TIP3    H125197   1.144   3.237   0.142
 8411TIP3    H225198   1.200   3.207   0.279
 8412TIP3   OH225199   2.446   3.768   5.840
 8412TIP3    H125200   2.452   3.733   5.929
 8412TIP3    H225201   2.501   3.847   5.842
 8413TIP3   OH225202   3.481   5.044   0.682
 8413TIP3    H125203   3.511   5.128   0.646
 8413TIP3    H225204   3.495   5.053   0.776
 8414TIP3   OH225205   0.425   2.557   5.833
 8414TIP3    H125206   0.498   2.550   5.771
 8414TIP3    H225207   0.371   2.628   5.797
 8415TIP3   OH225208   5.450   0.437   5.640
 8415TIP3    H125209   5.442   0.532   5.637
 8415TIP3    H225210   5.517   0.417   5.574
 8416TIP3   OH225211   6.950   3.093   2.430
 8416TIP3    H125212   6.868   3.088   2.480
 8416TIP3    H225213   6.957   3.184   2.404
 8417TIP3   OH225214   3.113   4.652   0.425
 8417TIP3    H125215   3.027   4.670   0.464
 8417TIP3    H225216   3.105   4.564   0.388
 8418TIP3   OH225217   4.945   0.786   4.309
 8418TIP3    H125218   4.885   0.720   4.342
 8418TIP3    H225219   4.909   0.869   4.340
 8419TIP3   OH225220   1.446   4.692   1.129
 8419TIP3    H125221   1.390   4.615   1.127
 8419TIP3    H225222   1.510   4.677   1.059
 8420TIP3   OH225223   5.246   1.245   5.839
 8420TIP3    H125224   5.329   1.246   5.791
 8420TIP3    H225225   5.197   1.319   5.804
 8421TIP3   OH225226   3.838   0.598   0.704
 8421TIP3    H125227   3.915   0.542   0.711
 8421TIP3    H225228   3.799   0.576   0.618
 8422TIP3   OH225229   4.573   3.102   5.373
 8422TIP3    H125230   4.517   3.036   5.331
 8422TIP3    H225231   4.513   3.170   5.403
 8423TIP3   OH225232   4.826   4.978   2.446
 8423TIP3    H125233   4.831   4.970   2.351
 8423TIP3    H225234   4.878   4.905   2.479
 8424TIP3   OH225235   0.944   6.580   3.727
 8424TIP3    H125236   0.999   6.580   3.805
 8424TIP3    H225237   0.859   6.612   3.757
 8425TIP3   OH225238   4.508   0.782   1.316
 8425TIP3    H125239   4.440   0.848   1.328
 8425TIP3    H225240   4.467   0.700   1.344
 8426TIP3   OH225241   3.963   1.416   3.552
 8426TIP3    H125242   3.881   1.382   3.516
 8426TIP3    H225243   3.936   1.483   3.615
 8427TIP3   OH225244   2.371   0.113   3.017
 8427TIP3    H125245   2.305   0.053   2.983
 8427TIP3    H225246   2.381   0.179   2.948
 8428TIP3   OH225247   5.630   3.336   4.831
 8428TIP3    H125248   5.668   3.382   4.906
 8428TIP3    H225249   5.701   3.329   4.768
 8429TIP3   OH225250   6.414   0.317   4.602
 8429TIP3    H125251   6.400   0.388   4.539
 8429TIP3    H225252   6.338   0.259   4.589
 8430TIP3   OH225253   2.180   4.850   2.491
 8430TIP3    H125254   2.099   4.808   2.518
 8430TIP3    H225255   2.247   4.782   2.501
 8431TIP3   OH225256   2.598   4.631   1.568
 8431TIP3    H125257   2.576   4.552   1.519
 8431TIP3    H225258   2.657   4.601   1.638
 8432TIP3   OH225259   6.732   2.743   1.386
 8432TIP3    H125260   6.643   2.757   1.415
 8432TIP3    H225261   6.758   2.660   1.427
 8433TIP3   OH225262   2.398   4.768   1.701
 8433TIP3    H125263   2.315   4.789   1.658
 8433TIP3    H225264   2.454   4.737   1.630
 8434TIP3   OH225265   2.930   5.182   4.462
 8434TIP3    H125266   2.893   5.270   4.471
 8434TIP3    H225267   2.913   5.158   4.371
 8435TIP3   OH225268   0.103   3.535   2.652
 8435TIP3    H125269   0.077   3.444   2.663
 8435TIP3    H225270   0.151   3.536   2.569
 8436TIP3   OH225271   6.817   6.410   2.198
 8436TIP3    H125272   6.900   6.362   2.199
 8436TIP3    H225273   6.791   6.411   2.105
 8437TIP3   OH225274   4.871   0.643   3.948
 8437TIP3    H125275   4.780   0.637   3.975
 8437TIP3    H225276   4.921   0.618   4.026
 8438TIP3   OH225277   4.673  -0.016   5.467
 8438TIP3    H125278   4.754  -0.063   5.447
 8438TIP3    H225279   4.673  -0.007   5.562
 8439TIP3   OH225280   3.208   4.984   1.860
 8439TIP3    H125281   3.153   4.909   1.838
 8439TIP3    H225282   3.190   5.048   1.791
 8440TIP3   OH225283   1.747   0.156   5.392
 8440TIP3    H125284   1.720   0.237   5.349
 8440TIP3    H225285   1.842   0.158   5.390
 8441TIP3   OH225286   7.103   0.912   5.771
 8441TIP3    H125287   7.051   0.981   5.731
 8441TIP3    H225288   7.038   0.851   5.807
 8442TIP3   OH225289   3.075   0.203   4.474
 8442TIP3    H125290   3.088   0.108   4.464
 8442TIP3    H225291   3.086   0.238   4.386
 8443TIP3   OH225292   3.179   6.044   2.760
 8443TIP3    H125293   3.215   6.061   2.673
 8443TIP3    H225294   3.207   5.955   2.781
 8444TIP3   OH225295   5.858   1.840   2.073
 8444TIP3    H125296   5.765   1.857   2.055
 8444TIP3    H225297   5.861   1.821   2.167
 8445TIP3   OH225298   3.220   2.230   3.041
 8445TIP3    H125299   3.287   2.241   3.108
 8445TIP3    H225300   3.269   2.204   2.962
 8446TIP3   OH225301   1.606   4.660   1.627
 8446TIP3    H125302   1.693   4.638   1.661
 8446TIP3    H225303   1.554   4.679   1.705
 8447TIP3   OH225304   6.970   1.588   1.037
 8447TIP3    H125305   6.988   1.583   1.131
 8447TIP3    H225306   6.891   1.536   1.025
 8448TIP3   OH225307   6.461   0.512   5.639
 8448TIP3    H125308   6.540   0.471   5.606
 8448TIP3    H225309   6.416   0.544   5.560
 8449TIP3   OH225310   1.778   3.793   0.486
 8449TIP3    H125311   1.699   3.741   0.469
 8449TIP3    H225312   1.830   3.782   0.406
 8450TIP3   OH225313   0.242   6.052   1.223
 8450TIP3    H125314   0.207   6.104   1.295
 8450TIP3    H225315   0.325   6.017   1.255
 8451TIP3   OH225316   6.281   5.373   0.392
 8451TIP3    H125317   6.206   5.391   0.336
 8451TIP3    H225318   6.275   5.279   0.412
 8452TIP3   OH225319   3.247   2.565   0.640
 8452TIP3    H125320   3.275   2.490   0.588
 8452TIP3    H225321   3.213   2.527   0.721
 8453TIP3   OH225322   3.683   6.742   4.745
 8453TIP3    H125323   3.660   6.649   4.736
 8453TIP3    H225324   3.775   6.747   4.722
 8454TIP3   OH225325   2.283   3.891   1.733
 8454TIP3    H125326   2.279   3.804   1.693
 8454TIP3    H225327   2.214   3.941   1.690
 8455TIP3   OH225328   6.450   4.426   5.177
 8455TIP3    H125329   6.488   4.362   5.237
 8455TIP3    H225330   6.479   4.511   5.211
 8456TIP3   OH225331   3.486   6.164   3.182
 8456TIP3    H125332   3.537   6.089   3.150
 8456TIP3    H225333   3.545   6.210   3.242
 8457TIP3   OH225334   6.120   1.977   5.669
 8457TIP3    H125335   6.077   2.024   5.597
 8457TIP3    H225336   6.213   1.985   5.651
 8458TIP3   OH225337   3.974   2.615   2.640
 8458TIP3    H125338   4.030   2.693   2.635
 8458TIP3    H225339   3.969   2.584   2.550
 8459TIP3   OH225340   4.559   4.735   0.468
 8459TIP3    H125341   4.487   4.685   0.429
 8459TIP3    H225342   4.576   4.692   0.551
 8460TIP3   OH225343   1.862   5.288   1.822
 8460TIP3    H125344   1.939   5.284   1.879
 8460TIP3    H225345   1.815   5.206   1.838
 8461TIP3   OH225346   1.194   0.844   4.395
 8461TIP3    H125347   1.188   0.915   4.331
 8461TIP3    H225348   1.137   0.872   4.467
 8462TIP3   OH225349   6.452   1.191   0.829
 8462TIP3    H125350   6.505   1.227   0.758
 8462TIP3    H225351   6.370   1.164   0.787
 8463TIP3   OH225352   0.060   5.224   5.281
 8463TIP3    H125353   0.000   5.298   5.276
 8463TIP3    H225354   0.084   5.219   5.374
 8464TIP3   OH225355   0.710   6.198   1.240
 8464TIP3    H125356   0.642   6.223   1.303
 8464TIP3    H225357   0.775   6.151   1.293
 8465TIP3   OH225358   4.698   4.965   4.890
 8465TIP3    H125359   4.650   4.883   4.906
 8465TIP3    H225360   4.690   5.014   4.971
 8466TIP3   OH225361   6.382   4.926   1.808
 8466TIP3    H125362   6.393   5.020   1.790
 8466TIP3    H225363   6.445   4.907   1.878
 8467TIP3   OH225364   4.634   6.132   3.014
 8467TIP3    H125365   4.679   6.078   3.079
 8467TIP3    H225366   4.646   6.084   2.931
 8468TIP3   OH225367   7.126   5.913   3.678
 8468TIP3    H125368   7.213   5.893   3.642
 8468TIP3    H225369   7.069   5.845   3.642
 8469TIP3   OH225370   4.682   4.274   5.234
 8469TIP3    H125371   4.738   4.240   5.164
 8469TIP3    H225372   4.628   4.198   5.260
 8470TIP3   OH225373   3.494   3.774   4.416
 8470TIP3    H125374   3.525   3.696   4.369
 8470TIP3    H225375   3.481   3.840   4.348
 8471TIP3   OH225376   0.594   4.304   1.354
 8471TIP3    H125377   0.585   4.338   1.443
 8471TIP3    H225378   0.551   4.219   1.356
 8472TIP3   OH225379   1.751   5.779   5.596
 8472TIP3    H125380   1.682   5.831   5.636
 8472TIP3    H225381   1.752   5.697   5.646
 8473TIP3   OH225382   6.026   4.996   2.958
 8473TIP3    H125383   6.095   4.930   2.966
 8473TIP3    H225384   6.032   5.027   2.868
 8474TIP3   OH225385   3.818   2.832   4.547
 8474TIP3    H125386   3.730   2.847   4.581
 8474TIP3    H225387   3.866   2.911   4.570
 8475TIP3   OH225388   5.682   3.029   5.508
 8475TIP3    H125389   5.776   3.041   5.511
 8475TIP3    H225390   5.646   3.117   5.514
 8476TIP3   OH225391   2.980   5.186   5.276
 8476TIP3    H125392   3.004   5.127   5.204
 8476TIP3    H225393   3.043   5.257   5.271
 8477TIP3   OH225394   5.003   2.286   0.471
 8477TIP3    H125395   5.023   2.353   0.405
 8477TIP3    H225396   5.053   2.311   0.548
 8478TIP3   OH225397   2.354   2.940   3.766
 8478TIP3    H125398   2.333   2.854   3.804
 8478TIP3    H225399   2.296   2.945   3.689
 8479TIP3   OH225400   3.835   5.547   5.565
 8479TIP3    H125401   3.764   5.497   5.525
 8479TIP3    H225402   3.913   5.524   5.514
 8480TIP3   OH225403   4.183   3.036   4.580
 8480TIP3    H125404   4.247   3.094   4.540
 8480TIP3    H225405   4.138   3.090   4.645
 8481TIP3   OH225406   6.996   0.861   5.234
 8481TIP3    H125407   7.025   0.785   5.183
 8481TIP3    H225408   7.072   0.884   5.288
 8482TIP3   OH225409   5.989   1.025   5.748
 8482TIP3    H125410   6.072   1.041   5.793
 8482TIP3    H225411   5.931   1.095   5.779
 8483TIP3   OH225412   3.835   6.138   5.793
 8483TIP3    H125413   3.832   6.104   5.704
 8483TIP3    H225414   3.790   6.222   5.788
 8484TIP3   OH225415   6.433   3.114   3.177
 8484TIP3    H125416   6.401   3.052   3.112
 8484TIP3    H225417   6.497   3.065   3.228
 8485TIP3   OH225418   5.532   4.559   5.737
 8485TIP3    H125419   5.504   4.467   5.735
 8485TIP3    H225420   5.627   4.554   5.744
 8486TIP3   OH225421   2.637   5.780   4.260
 8486TIP3    H125422   2.713   5.786   4.203
 8486TIP3    H225423   2.562   5.800   4.203
 8487TIP3   OH225424   7.207   1.857   0.601
 8487TIP3    H125425   7.239   1.818   0.520
 8487TIP3    H225426   7.268   1.928   0.620
 8488TIP3   OH225427   1.066   1.517   0.687
 8488TIP3    H125428   0.995   1.455   0.704
 8488TIP3    H225429   1.062   1.532   0.592
 8489TIP3   OH225430   5.094   5.743   1.828
 8489TIP3    H125431   5.075   5.822   1.777
 8489TIP3    H225432   5.137   5.775   1.907
 8490TIP3   OH225433   4.114   1.410   1.736
 8490TIP3    H125434   4.174   1.336   1.725
 8490TIP3    H225435   4.151   1.480   1.682
 8491TIP3   OH225436   4.872   5.223   3.922
 8491TIP3    H125437   4.954   5.242   3.966
 8491TIP3    H225438   4.808   5.281   3.964
 8492TIP3   OH225439   0.013   0.594   3.117
 8492TIP3    H125440   0.109   0.591   3.120
 8492TIP3    H225441  -0.008   0.661   3.053
 8493TIP3   OH225442   4.248   2.796   4.900
 8493TIP3    H125443   4.188   2.841   4.960
 8493TIP3    H225444   4.247   2.705   4.930
 8494TIP3   OH225445   3.844   0.856   2.300
 8494TIP3    H125446   3.904   0.914   2.348
 8494TIP3    H225447   3.893   0.830   2.222
 8495TIP3   OH225448   5.749   2.889   2.186
 8495TIP3    H125449   5.823   2.949   2.193
 8495TIP3    H225450   5.765   2.823   2.252
 8496TIP3   OH225451   2.333   4.772   5.838
 8496TIP3    H125452   2.383   4.692   5.825
 8496TIP3    H225453   2.326   4.812   5.751
 8497TIP3   OH225454   3.909   6.401   0.264
 8497TIP3    H125455   3.904   6.461   0.339
 8497TIP3    H225456   4.002   6.390   0.248
 8498TIP3   OH225457   4.893   3.418   4.606
 8498TIP3    H125458   4.820   3.442   4.550
 8498TIP3    H225459   4.866   3.444   4.694
 8499TIP3   OH225460   2.145   5.929   2.661
 8499TIP3    H125461   2.199   5.864   2.705
 8499TIP3    H225462   2.202   6.007   2.656
 8500TIP3   OH225463   1.920   1.386   4.779
 8500TIP3    H125464   1.856   1.422   4.719
 8500TIP3    H225465   1.958   1.462   4.824
 8501TIP3   OH225466   3.238   6.634   3.139
 8501TIP3    H125467   3.316   6.580   3.142
 8501TIP3    H225468   3.263   6.715   3.184
 8502TIP3   OH225469   0.144   0.770   2.692
 8502TIP3    H125470   0.066   0.720   2.716
 8502TIP3    H225471   0.171   0.735   2.608
 8503TIP3   OH225472   5.096   2.340   0.121
 8503TIP3    H125473   5.062   2.417   0.167
 8503TIP3    H225474   5.051   2.266   0.163
 8504TIP3   OH225475   6.270   5.223   1.977
 8504TIP3    H125476   6.222   5.144   2.000
 8504TIP3    H225477   6.354   5.190   1.943
 8505TIP3   OH225478   0.852   3.079   0.105
 8505TIP3    H125479   0.923   3.038   0.055
 8505TIP3    H225480   0.883   3.078   0.195
 8506TIP3   OH225481   2.479   0.783   5.419
 8506TIP3    H125482   2.572   0.791   5.398
 8506TIP3    H225483   2.467   0.838   5.496
 8507TIP3   OH225484   2.947   1.780   0.818
 8507TIP3    H125485   2.987   1.720   0.755
 8507TIP3    H225486   2.853   1.767   0.807
 8508TIP3   OH225487   5.974   5.049   2.388
 8508TIP3    H125488   5.960   5.103   2.466
 8508TIP3    H225489   6.018   5.107   2.327
 8509TIP3   OH225490   3.585   5.254   2.607
 8509TIP3    H125491   3.497   5.261   2.570
 8509TIP3    H225492   3.578   5.186   2.674
 8510TIP3   OH225493   1.151   5.110   2.663
 8510TIP3    H125494   1.164   5.178   2.729
 8510TIP3    H225495   1.200   5.035   2.695
 8511TIP3   OH225496   6.586   0.588   1.486
 8511TIP3    H125497   6.566   0.578   1.580
 8511TIP3    H225498   6.508   0.630   1.449
 8512TIP3   OH225499   5.986   5.345   1.766
 8512TIP3    H125500   6.023   5.412   1.823
 8512TIP3    H225501   6.007   5.374   1.678
 8513TIP3   OH225502   3.961   4.536   3.340
 8513TIP3    H125503   3.955   4.627   3.312
 8513TIP3    H225504   4.053   4.513   3.330
 8514TIP3   OH225505   5.159   3.902   5.439
 8514TIP3    H125506   5.167   3.949   5.522
 8514TIP3    H225507   5.210   3.954   5.377
 8515TIP3   OH225508   5.360   2.730   5.374
 8515TIP3    H125509   5.412   2.669   5.322
 8515TIP3    H225510   5.288   2.677   5.408
 8516TIP3   OH225511   0.163   5.962   4.601
 8516TIP3    H125512   0.146   5.920   4.517
 8516TIP3    H225513   0.146   6.055   4.586
 8517TIP3   OH225514   1.479   1.868   0.182
 8517TIP3    H125515   1.507   1.831   0.099
 8517TIP3    H225516   1.383   1.869   0.177
 8518TIP3   OH225517   1.990   6.682   2.870
 8518TIP3    H125518   1.994   6.632   2.952
 8518TIP3    H225519   2.057   6.642   2.815
 8519TIP3   OH225520   5.170   5.670   3.491
 8519TIP3    H125521   5.179   5.669   3.396
 8519TIP3    H225522   5.173   5.763   3.514
 8520TIP3   OH225523   6.698   3.800   1.832
 8520TIP3    H125524   6.665   3.871   1.887
 8520TIP3    H225525   6.667   3.720   1.874
 8521TIP3   OH225526   2.340   3.262   5.146
 8521TIP3    H125527   2.394   3.286   5.070
 8521TIP3    H225528   2.374   3.315   5.218
 8522TIP3   OH225529   4.452   5.556   3.878
 8522TIP3    H125530   4.517   5.546   3.948
 8522TIP3    H225531   4.499   5.601   3.808
 8523TIP3   OH225532   5.492   1.804   0.465
 8523TIP3    H125533   5.422   1.825   0.403
 8523TIP3    H225534   5.510   1.711   0.451
 8524TIP3   OH225535   4.687   4.648   4.327
 8524TIP3    H125536   4.727   4.572   4.369
 8524TIP3    H225537   4.705   4.721   4.386
 8525TIP3   OH225538   4.525   2.435   4.276
 8525TIP3    H125539   4.464   2.366   4.302
 8525TIP3    H225540   4.477   2.517   4.289
 8526TIP3   OH225541   3.679   3.963   0.543
 8526TIP3    H125542   3.661   3.870   0.529
 8526TIP3    H225543   3.761   3.979   0.496
 8527TIP3   OH225544   2.729   0.646   4.643
 8527TIP3    H125545   2.789   0.694   4.699
 8527TIP3    H225546   2.706   0.568   4.694
 8528TIP3   OH225547   3.758   3.302   1.370
 8528TIP3    H125548   3.809   3.337   1.297
 8528TIP3    H225549   3.705   3.375   1.400
 8529TIP3   OH225550   0.802   6.651   0.118
 8529TIP3    H125551   0.892   6.620   0.130
 8529TIP3    H225552   0.807   6.746   0.129
 8530TIP3   OH225553   3.589   5.774   4.133
 8530TIP3    H125554   3.635   5.748   4.053
 8530TIP3    H225555   3.498   5.785   4.105
 8531TIP3   OH225556   4.505   5.837   0.811
 8531TIP3    H125557   4.572   5.849   0.878
 8531TIP3    H225558   4.537   5.889   0.736
 8532TIP3   OH225559   2.537   3.948   5.252
 8532TIP3    H125560   2.496   4.033   5.232
 8532TIP3    H225561   2.628   3.958   5.224
 8533TIP3   OH225562   2.918   1.893   1.072
 8533TIP3    H125563   2.987   1.936   1.122
 8533TIP3    H225564   2.949   1.894   0.982
 8534TIP3   OH225565   7.111   4.907   2.399
 8534TIP3    H125566   7.155   4.836   2.354
 8534TIP3    H225567   7.107   4.978   2.335
 8535TIP3   OH225568   6.300   4.089   2.691
 8535TIP3    H125569   6.314   4.008   2.739
 8535TIP3    H225570   6.242   4.141   2.747
 8536TIP3   OH225571   3.958   3.981   4.024
 8536TIP3    H125572   3.870   3.982   4.063
 8536TIP3    H225573   3.991   4.070   4.036
 8537TIP3   OH225574   0.520   4.376   3.109
 8537TIP3    H125575   0.462   4.342   3.041
 8537TIP3    H225576   0.523   4.471   3.092
 8538TIP3   OH225577   6.288   3.181   0.200
 8538TIP3    H125578   6.282   3.243   0.272
 8538TIP3    H225579   6.375   3.195   0.163
 8539TIP3   OH225580   0.243   3.936   2.810
 8539TIP3    H125581   0.329   3.948   2.769
 8539TIP3    H225582   0.183   3.983   2.752
 8540TIP3   OH225583   3.210   0.316   5.863
 8540TIP3    H125584   3.214   0.305   5.768
 8540TIP3    H225585   3.301   0.333   5.889
 8541TIP3   OH225586   5.718   0.443   1.090
 8541TIP3    H125587   5.682   0.375   1.146
 8541TIP3    H225588   5.743   0.398   1.009
 8542TIP3   OH225589   6.217   0.148   2.628
 8542TIP3    H125590   6.174   0.228   2.658
 8542TIP3    H225591   6.224   0.158   2.533
 8543TIP3   OH225592   1.410   6.816   0.291
 8543TIP3    H125593   1.493   6.782   0.324
 8543TIP3    H225594   1.345   6.753   0.322
 8544TIP3   OH225595   4.145   2.711   5.267
 8544TIP3    H125596   4.153   2.616   5.254
 8544TIP3    H225597   4.195   2.728   5.347
 8545TIP3   OH225598   1.183   0.813   5.652
 8545TIP3    H125599   1.217   0.902   5.663
 8545TIP3    H225600   1.232   0.778   5.578
 8546TIP3   OH225601   4.952   4.292   0.898
 8546TIP3    H125602   5.010   4.274   0.972
 8546TIP3    H225603   4.898   4.213   0.890
 8547TIP3   OH225604   5.212   3.536   0.203
 8547TIP3    H125605   5.171   3.478   0.268
 8547TIP3    H225606   5.220   3.620   0.248
 8548TIP3   OH225607   0.404   2.353   1.940
 8548TIP3    H125608   0.427   2.369   1.849
 8548TIP3    H225609   0.480   2.308   1.977
 8549TIP3   OH225610   6.938   4.848   3.051
 8549TIP3    H125611   6.867   4.911   3.040
 8549TIP3    H225612   6.997   4.890   3.114
 8550TIP3   OH225613   2.144   2.992   1.973
 8550TIP3    H125614   2.126   3.058   1.905
 8550TIP3    H225615   2.158   3.043   2.052
 8551TIP3   OH225616   2.274   4.399   3.602
 8551TIP3    H125617   2.282   4.321   3.657
 8551TIP3    H225618   2.228   4.463   3.657
 8552TIP3   OH225619   4.944   0.680   2.378
 8552TIP3    H125620   4.952   0.696   2.284
 8552TIP3    H225621   4.870   0.734   2.406
 8553TIP3   OH225622   4.356   6.339   4.088
 8553TIP3    H125623   4.344   6.309   3.998
 8553TIP3    H225624   4.283   6.300   4.136
 8554TIP3   OH225625   4.087   6.670   5.666
 8554TIP3    H125626   4.029   6.658   5.741
 8554TIP3    H225627   4.037   6.639   5.591
 8555TIP3   OH225628   0.580   5.371   3.700
 8555TIP3    H125629   0.631   5.416   3.632
 8555TIP3    H225630   0.578   5.433   3.773
 8556TIP3   OH225631   4.163   0.985   5.094
 8556TIP3    H125632   4.156   0.919   5.025
 8556TIP3    H225633   4.089   0.967   5.152
 8557TIP3   OH225634   0.388   2.543   0.144
 8557TIP3    H125635   0.478   2.528   0.114
 8557TIP3    H225636   0.334   2.532   0.066
 8558TIP3   OH225637   2.141   6.241   3.797
 8558TIP3    H125638   2.192   6.225   3.877
 8558TIP3    H225639   2.104   6.156   3.775
 8559TIP3   OH225640   3.539   6.574   0.461
 8559TIP3    H125641   3.527   6.488   0.419
 8559TIP3    H225642   3.606   6.617   0.409
 8560TIP3   OH225643   0.076   3.876   4.006
 8560TIP3    H125644   0.057   3.959   4.049
 8560TIP3    H225645   0.082   3.897   3.913
 8561TIP3   OH225646   4.265   6.166   0.257
 8561TIP3    H125647   4.338   6.108   0.234
 8561TIP3    H225648   4.187   6.117   0.231
 8562TIP3   OH225649   2.639   4.113   3.759
 8562TIP3    H125650   2.569   4.073   3.812
 8562TIP3    H225651   2.656   4.197   3.801
 8563TIP3   OH225652   6.837   2.275   4.997
 8563TIP3    H125653   6.900   2.345   4.978
 8563TIP3    H225654   6.839   2.219   4.920
 8564TIP3   OH225655   0.137   6.620   0.822
 8564TIP3    H125656   0.151   6.542   0.769
 8564TIP3    H225657   0.214   6.674   0.807
 8565TIP3   OH225658   1.846   5.860   3.814
 8565TIP3    H125659   1.810   5.931   3.867
 8565TIP3    H225660   1.904   5.812   3.874
 8566TIP3   OH225661   5.876   1.622   3.751
 8566TIP3    H125662   5.946   1.668   3.796
 8566TIP3    H225663   5.870   1.537   3.795
 8567TIP3   OH225664   6.673   2.881   5.857
 8567TIP3    H125665   6.626   2.958   5.889
 8567TIP3    H225666   6.686   2.827   5.935
 8568TIP3   OH225667   2.830   3.833   4.721
 8568TIP3    H125668   2.904   3.789   4.763
 8568TIP3    H225669   2.808   3.778   4.646
 8569TIP3   OH225670   6.628   3.513   5.452
 8569TIP3    H125671   6.670   3.480   5.373
 8569TIP3    H225672   6.580   3.438   5.487
 8570TIP3   OH225673   3.810   3.945   4.961
 8570TIP3    H125674   3.740   4.001   4.929
 8570TIP3    H225675   3.829   3.886   4.888
 8571TIP3   OH225676   6.745   4.257   2.458
 8571TIP3    H125677   6.690   4.201   2.512
 8571TIP3    H225678   6.781   4.199   2.391
 8572TIP3   OH225679   1.360   5.784   4.282
 8572TIP3    H125680   1.417   5.859   4.268
 8572TIP3    H225681   1.418   5.708   4.271
 8573TIP3   OH225682   5.544   6.524   3.804
 8573TIP3    H125683   5.603   6.583   3.850
 8573TIP3    H225684   5.507   6.577   3.733
 8574TIP3   OH225685   3.195   5.473   1.302
 8574TIP3    H125686   3.152   5.534   1.242
 8574TIP3    H225687   3.261   5.527   1.347
 8575TIP3   OH225688   1.423   0.861   3.018
 8575TIP3    H125689   1.462   0.802   3.082
 8575TIP3    H225690   1.468   0.945   3.032
 8576TIP3   OH225691   4.914   5.295   4.524
 8576TIP3    H125692   4.968   5.312   4.601
 8576TIP3    H225693   4.850   5.231   4.554
 8577TIP3   OH225694   4.520   5.051   1.328
 8577TIP3    H125695   4.493   5.110   1.398
 8577TIP3    H225696   4.526   4.965   1.369
 8578TIP3   OH225697   5.417   3.668   5.383
 8578TIP3    H125698   5.414   3.759   5.356
 8578TIP3    H225699   5.392   3.669   5.475
 8579TIP3   OH225700   1.578   1.091   3.000
 8579TIP3    H125701   1.551   1.180   3.024
 8579TIP3    H225702   1.617   1.101   2.913
 8580TIP3   OH225703   0.182   0.423   4.889
 8580TIP3    H125704   0.130   0.456   4.816
 8580TIP3    H225705   0.136   0.454   4.967
 8581TIP3   OH225706   3.091   4.980   2.851
 8581TIP3    H125707   3.182   5.006   2.833
 8581TIP3    H225708   3.043   5.063   2.853
 8582TIP3   OH225709   3.153   3.825   0.956
 8582TIP3    H125710   3.218   3.891   0.931
 8582TIP3    H225711   3.077   3.875   0.986
 8583TIP3   OH225712   1.297   6.171   5.480
 8583TIP3    H125713   1.360   6.183   5.551
 8583TIP3    H225714   1.214   6.151   5.524
 8584TIP3   OH225715   5.193   4.594   2.519
 8584TIP3    H125716   5.282   4.626   2.534
 8584TIP3    H225717   5.144   4.621   2.597
 8585TIP3   OH225718   3.385   6.235   4.001
 8585TIP3    H125719   3.366   6.190   4.083
 8585TIP3    H225720   3.474   6.268   4.012
 8586TIP3   OH225721   4.339   0.536   2.762
 8586TIP3    H125722   4.409   0.488   2.717
 8586TIP3    H225723   4.351   0.627   2.734
 8587TIP3   OH225724   2.790   3.473   2.880
 8587TIP3    H125725   2.882   3.498   2.868
 8587TIP3    H225726   2.791   3.408   2.950
 8588TIP3   OH225727   0.581   0.181   4.984
 8588TIP3    H125728   0.548   0.091   4.981
 8588TIP3    H225729   0.674   0.171   5.007
 8589TIP3   OH225730  -0.031   1.504   2.749
 8589TIP3    H125731  -0.016   1.451   2.670
 8589TIP3    H225732   0.029   1.578   2.739
 8590TIP3   OH225733   4.268   6.405   2.712
 8590TIP3    H125734   4.215   6.460   2.654
 8590TIP3    H225735   4.358   6.436   2.700
 8591TIP3   OH225736   1.989   6.796   1.844
 8591TIP3    H125737   2.037   6.723   1.804
 8591TIP3    H225738   1.995   6.780   1.938
 8592TIP3   OH225739   2.498   1.923   3.248
 8592TIP3    H125740   2.521   2.009   3.282
 8592TIP3    H225741   2.573   1.867   3.268
 8593TIP3   OH225742   1.382   0.554   0.474
 8593TIP3    H125743   1.290   0.574   0.488
 8593TIP3    H225744   1.429   0.611   0.535
 8594TIP3   OH225745   3.628   2.580   0.889
 8594TIP3    H125746   3.690   2.549   0.956
 8594TIP3    H225747   3.554   2.614   0.939
 8595TIP3   OH225748   5.607   3.262   1.786
 8595TIP3    H125749   5.553   3.341   1.790
 8595TIP3    H225750   5.642   3.253   1.874
 8596TIP3   OH225751   0.285   0.681   3.562
 8596TIP3    H125752   0.244   0.638   3.488
 8596TIP3    H225753   0.377   0.655   3.557
 8597TIP3   OH225754   1.208   0.558   3.441
 8597TIP3    H125755   1.213   0.464   3.459
 8597TIP3    H225756   1.299   0.586   3.430
 8598TIP3   OH225757   5.686   4.552   3.497
 8598TIP3    H125758   5.607   4.587   3.537
 8598TIP3    H225759   5.703   4.610   3.423
 8599TIP3   OH225760   5.067   1.110   2.215
 8599TIP3    H125761   5.129   1.178   2.241
 8599TIP3    H225762   4.989   1.128   2.267
 8600TIP3   OH225763   1.738   5.166   0.267
 8600TIP3    H125764   1.813   5.114   0.237
 8600TIP3    H225765   1.732   5.147   0.361
 8601TIP3   OH225766   4.503   3.499   0.345
 8601TIP3    H125767   4.553   3.578   0.325
 8601TIP3    H225768   4.412   3.528   0.346
 8602TIP3   OH225769   1.961   6.646   0.531
 8602TIP3    H125770   1.949   6.568   0.477
 8602TIP3    H225771   2.055   6.649   0.549
 8603TIP3   OH225772   4.605   0.627   0.994
 8603TIP3    H125773   4.521   0.586   0.973
 8603TIP3    H225774   4.658   0.614   0.915
 8604TIP3   OH225775   6.446   3.386   3.041
 8604TIP3    H125776   6.499   3.388   2.961
 8604TIP3    H225777   6.395   3.306   3.034
 8605TIP3   OH225778   2.470   1.560   5.127
 8605TIP3    H125779   2.520   1.540   5.048
 8605TIP3    H225780   2.509   1.504   5.194
 8606TIP3   OH225781   1.400   3.766   2.570
 8606TIP3    H125782   1.443   3.735   2.490
 8606TIP3    H225783   1.334   3.828   2.539
 8607TIP3   OH225784   0.147   5.567   1.170
 8607TIP3    H125785   0.110   5.655   1.172
 8607TIP3    H225786   0.130   5.531   1.257
 8608TIP3   OH225787   1.116   5.601   1.225
 8608TIP3    H125788   1.032   5.642   1.246
 8608TIP3    H225789   1.154   5.658   1.158
 8609TIP3   OH225790   2.386   6.396   5.321
 8609TIP3    H125791   2.326   6.459   5.360
 8609TIP3    H225792   2.334   6.317   5.308
 8610TIP3   OH225793   5.667   3.544   5.346
 8610TIP3    H125794   5.703   3.578   5.428
 8610TIP3    H225795   5.589   3.598   5.330
 8611TIP3   OH225796   0.408   3.312   3.696
 8611TIP3    H125797   0.406   3.217   3.684
 8611TIP3    H225798   0.361   3.326   3.778
 8612TIP3   OH225799   7.172   5.016   0.273
 8612TIP3    H125800   7.195   4.946   0.211
 8612TIP3    H225801   7.240   5.011   0.341
 8613TIP3   OH225802   4.385   3.049   0.759
 8613TIP3    H125803   4.326   3.107   0.711
 8613TIP3    H225804   4.331   2.973   0.781
 8614TIP3   OH225805   0.370   6.630   1.835
 8614TIP3    H125806   0.448   6.620   1.890
 8614TIP3    H225807   0.382   6.716   1.793
 8615TIP3   OH225808   1.847   1.177   2.406
 8615TIP3    H125809   1.848   1.272   2.391
 8615TIP3    H225810   1.894   1.141   2.331
 8616TIP3   OH225811   2.937   2.234   2.880
 8616TIP3    H125812   3.007   2.290   2.844
 8616TIP3    H225813   2.973   2.146   2.878
 8617TIP3   OH225814   0.583   0.850   1.509
 8617TIP3    H125815   0.552   0.816   1.593
 8617TIP3    H225816   0.533   0.801   1.444
 8618TIP3   OH225817   6.986   1.052   0.860
 8618TIP3    H125818   7.000   0.959   0.843
 8618TIP3    H225819   7.032   1.097   0.790
 8619TIP3   OH225820   5.480   0.965   3.839
 8619TIP3    H125821   5.527   0.989   3.760
 8619TIP3    H225822   5.418   0.897   3.811
 8620TIP3   OH225823   1.220   6.681   1.095
 8620TIP3    H125824   1.187   6.592   1.083
 8620TIP3    H225825   1.204   6.700   1.187
 8621TIP3   OH225826   1.543   5.445   5.190
 8621TIP3    H125827   1.560   5.351   5.190
 8621TIP3    H225828   1.447   5.452   5.192
 8622TIP3   OH225829   2.629   6.121   0.698
 8622TIP3    H125830   2.601   6.055   0.634
 8622TIP3    H225831   2.565   6.191   0.688
 8623TIP3   OH225832   2.108   1.703   0.010
 8623TIP3    H125833   2.079   1.648   0.083
 8623TIP3    H225834   2.200   1.719   0.027
 8624TIP3   OH225835   5.068   1.704   0.957
 8624TIP3    H125836   5.015   1.783   0.953
 8624TIP3    H225837   5.081   1.679   0.865
 8625TIP3   OH225838   1.296   1.784   3.438
 8625TIP3    H125839   1.318   1.865   3.392
 8625TIP3    H225840   1.296   1.717   3.370
 8626TIP3   OH225841   5.396   1.560   4.510
 8626TIP3    H125842   5.378   1.512   4.429
 8626TIP3    H225843   5.486   1.537   4.532
 8627TIP3   OH225844   0.269   0.906   0.672
 8627TIP3    H125845   0.308   0.890   0.758
 8627TIP3    H225846   0.218   0.827   0.653
 8628TIP3   OH225847   1.709   0.818   4.245
 8628TIP3    H125848   1.667   0.900   4.268
 8628TIP3    H225849   1.686   0.758   4.316
 8629TIP3   OH225850   6.939   2.018   2.200
 8629TIP3    H125851   7.013   2.072   2.173
 8629TIP3    H225852   6.866   2.049   2.145
 8630TIP3   OH225853   3.405   1.362   3.127
 8630TIP3    H125854   3.432   1.322   3.210
 8630TIP3    H225855   3.482   1.412   3.098
 8631TIP3   OH225856   1.376   4.440   4.400
 8631TIP3    H125857   1.433   4.363   4.405
 8631TIP3    H225858   1.432   4.510   4.367
 8632TIP3   OH225859   0.393   3.474   0.170
 8632TIP3    H125860   0.431   3.424   0.242
 8632TIP3    H225861   0.444   3.554   0.166
 8633TIP3   OH225862   5.842   3.514   1.812
 8633TIP3    H125863   5.805   3.563   1.886
 8633TIP3    H225864   5.936   3.534   1.816
 8634TIP3   OH225865   5.184   1.784   5.515
 8634TIP3    H125866   5.270   1.804   5.550
 8634TIP3    H225867   5.180   1.688   5.512
 8635TIP3   OH225868   5.711   2.838   3.519
 8635TIP3    H125869   5.682   2.856   3.609
 8635TIP3    H225870   5.632   2.848   3.466
 8636TIP3   OH225871   2.320   6.831   0.032
 8636TIP3    H125872   2.319   6.833  -0.063
 8636TIP3    H225873   2.268   6.755   0.056
 8637TIP3   OH225874   4.087   2.490   3.865
 8637TIP3    H125875   4.119   2.573   3.830
 8637TIP3    H225876   4.142   2.472   3.941
 8638TIP3   OH225877   1.078   0.989   3.064
 8638TIP3    H125878   1.092   1.082   3.045
 8638TIP3    H225879   1.121   0.975   3.149
 8639TIP3   OH225880   5.064   0.714   3.300
 8639TIP3    H125881   5.051   0.645   3.235
 8639TIP3    H225882   5.124   0.775   3.258
 8640TIP3   OH225883   5.486   2.190   2.968
 8640TIP3    H125884   5.429   2.117   2.943
 8640TIP3    H225885   5.429   2.251   3.014
 8641TIP3   OH225886   5.143   2.834   2.213
 8641TIP3    H125887   5.235   2.833   2.238
 8641TIP3    H225888   5.127   2.924   2.183
 8642TIP3   OH225889   1.613   4.719   3.468
 8642TIP3    H125890   1.612   4.801   3.419
 8642TIP3    H225891   1.678   4.665   3.423
 8643TIP3   OH225892   5.050   5.339   1.571
 8643TIP3    H125893   5.114   5.356   1.640
 8643TIP3    H225894   5.064   5.409   1.508
 8644TIP3   OH225895   3.491   5.382   3.584
 8644TIP3    H125896   3.584   5.368   3.602
 8644TIP3    H225897   3.487   5.393   3.489
 8645TIP3   OH225898   0.123   3.177   3.408
 8645TIP3    H125899   0.049   3.145   3.357
 8645TIP3    H225900   0.137   3.266   3.377
 8646TIP3   OH225901   3.430   0.683   5.064
 8646TIP3    H125902   3.486   0.750   5.103
 8646TIP3    H225903   3.366   0.731   5.012
 8647TIP3   OH225904   6.054   4.662   3.562
 8647TIP3    H125905   6.142   4.667   3.600
 8647TIP3    H225906   6.066   4.615   3.480
 8648TIP3   OH225907   7.014   6.124   4.642
 8648TIP3    H125908   7.088   6.154   4.589
 8648TIP3    H225909   6.939   6.128   4.584
 8649TIP3   OH225910   4.693   1.178   4.789
 8649TIP3    H125911   4.750   1.106   4.818
 8649TIP3    H225912   4.663   1.152   4.702
 8650TIP3   OH225913   2.515   5.161   1.908
 8650TIP3    H125914   2.527   5.068   1.888
 8650TIP3    H225915   2.602   5.190   1.938
 8651TIP3   OH225916   2.653   4.608   5.682
 8651TIP3    H125917   2.567   4.594   5.722
 8651TIP3    H225918   2.708   4.540   5.720
 8652TIP3   OH225919   0.168   0.865   3.818
 8652TIP3    H125920   0.121   0.840   3.738
 8652TIP3    H225921   0.190   0.782   3.860
 8653TIP3   OH225922   2.749   6.253   3.666
 8653TIP3    H125923   2.711   6.257   3.754
 8653TIP3    H225924   2.830   6.304   3.672
 8654TIP3   OH225925   4.263   2.088   1.759
 8654TIP3    H125926   4.311   2.037   1.694
 8654TIP3    H225927   4.183   2.115   1.713
 8655TIP3   OH225928   4.426   5.066   1.077
 8655TIP3    H125929   4.443   5.062   1.171
 8655TIP3    H225930   4.335   5.040   1.068
 8656TIP3   OH225931   2.507   3.886   2.877
 8656TIP3    H125932   2.552   3.939   2.942
 8656TIP3    H225933   2.569   3.817   2.856
 8657TIP3   OH225934   3.045   1.900   5.920
 8657TIP3    H125935   3.044   1.862   5.832
 8657TIP3    H225936   3.071   1.828   5.977
 8658TIP3   OH225937   5.066   4.405   0.389
 8658TIP3    H125938   5.146   4.406   0.336
 8658TIP3    H225939   4.998   4.375   0.329
 8659TIP3   OH225940   1.821   3.209   4.652
 8659TIP3    H125941   1.875   3.263   4.594
 8659TIP3    H225942   1.737   3.254   4.656
 8660TIP3   OH225943   4.114   6.621   1.200
 8660TIP3    H125944   4.172   6.676   1.147
 8660TIP3    H225945   4.106   6.668   1.283
 8661TIP3   OH225946   4.748   2.078   4.920
 8661TIP3    H125947   4.709   2.049   5.002
 8661TIP3    H225948   4.825   2.022   4.909
 8662TIP3   OH225949   3.552   0.087   3.317
 8662TIP3    H125950   3.631   0.045   3.352
 8662TIP3    H225951   3.487   0.077   3.387
 8663TIP3   OH225952   3.262   3.929   0.125
 8663TIP3    H125953   3.249   3.843   0.166
 8663TIP3    H225954   3.350   3.956   0.154
 8664TIP3   OH225955   4.859   1.762   3.954
 8664TIP3    H125956   4.950   1.762   3.926
 8664TIP3    H225957   4.841   1.853   3.976
 8665TIP3   OH225958   6.963   1.083   3.027
 8665TIP3    H125959   6.967   1.087   3.122
 8665TIP3    H225960   7.054   1.078   2.999
 8666TIP3   OH225961   5.770   4.173   5.346
 8666TIP3    H125962   5.766   4.202   5.437
 8666TIP3    H225963   5.680   4.172   5.316
 8667TIP3   OH225964   7.024   6.568   1.803
 8667TIP3    H125965   7.106   6.583   1.849
 8667TIP3    H225966   7.000   6.478   1.826
 8668TIP3   OH225967   0.799   1.472   5.551
 8668TIP3    H125968   0.812   1.565   5.569
 8668TIP3    H225969   0.856   1.427   5.614
 8669TIP3   OH225970   7.165   5.582   2.989
 8669TIP3    H125971   7.093   5.574   3.050
 8669TIP3    H225972   7.124   5.608   2.906
 8670TIP3   OH225973   5.872   5.788   0.600
 8670TIP3    H125974   5.819   5.713   0.625
 8670TIP3    H225975   5.926   5.757   0.528
 8671TIP3   OH225976   4.522   1.482   4.248
 8671TIP3    H125977   4.428   1.485   4.231
 8671TIP3    H225978   4.540   1.391   4.273
 8672TIP3   OH225979   1.996   3.876   3.990
 8672TIP3    H125980   2.043   3.953   4.020
 8672TIP3    H225981   1.969   3.832   4.070
 8673TIP3   OH225982   1.583   0.880   2.786
 8673TIP3    H125983   1.520   0.846   2.849
 8673TIP3    H225984   1.530   0.926   2.721
 8674TIP3   OH225985   4.205   6.723   2.868
 8674TIP3    H125986   4.146   6.695   2.798
 8674TIP3    H225987   4.267   6.651   2.878
 8675TIP3   OH225988   3.246   0.960   5.087
 8675TIP3    H125989   3.177   1.023   5.066
 8675TIP3    H225990   3.261   0.971   5.181
 8676TIP3   OH225991   1.995   3.893   4.675
 8676TIP3    H125992   1.922   3.954   4.662
 8676TIP3    H225993   1.978   3.854   4.761
 8677TIP3   OH225994   0.401   1.429   4.297
 8677TIP3    H125995   0.380   1.336   4.286
 8677TIP3    H225996   0.488   1.430   4.337
 8678TIP3   OH225997   2.163   3.396   3.361
 8678TIP3    H125998   2.245   3.441   3.382
 8678TIP3    H225999   2.101   3.429   3.426
 8679TIP3   OH226000   3.030   1.514   3.964
 8679TIP3    H126001   2.971   1.526   4.038
 8679TIP3    H226002   3.020   1.593   3.911
 8680TIP3   OH226003   4.744   4.441   1.987
 8680TIP3    H126004   4.652   4.465   1.982
 8680TIP3    H226005   4.753   4.366   1.929
 8681TIP3   OH226006   5.878   5.873   2.989
 8681TIP3    H126007   5.882   5.901   2.898
 8681TIP3    H226008   5.967   5.889   3.023
 8682TIP3   OH226009   1.427   4.692   5.073
 8682TIP3    H126010   1.400   4.600   5.072
 8682TIP3    H226011   1.491   4.699   5.001
 8683TIP3   OH226012   6.608   0.081   2.036
 8683TIP3    H126013   6.515   0.063   2.025
 8683TIP3    H226014   6.651   0.025   1.972
 8684TIP3   OH226015   1.162   3.002   0.832
 8684TIP3    H126016   1.255   3.024   0.836
 8684TIP3    H226017   1.160   2.906   0.826
 8685TIP3   OH226018   5.653   2.129   3.266
 8685TIP3    H126019   5.667   2.077   3.345
 8685TIP3    H226020   5.576   2.090   3.225
 8686TIP3   OH226021   0.738   4.580   3.256
 8686TIP3    H126022   0.786   4.498   3.245
 8686TIP3    H226023   0.740   4.621   3.170
 8687TIP3   OH226024   5.311   2.603   0.793
 8687TIP3    H126025   5.232   2.594   0.847
 8687TIP3    H226026   5.279   2.634   0.708
 8688TIP3   OH226027   0.982   0.727   5.072
 8688TIP3    H126028   1.052   0.765   5.019
 8688TIP3    H226029   0.989   0.772   5.156
 8689TIP3   OH226030   6.891   3.541   2.600
 8689TIP3    H126031   6.914   3.458   2.558
 8689TIP3    H226032   6.938   3.607   2.549
 8690TIP3   OH226033   5.063   6.670   1.821
 8690TIP3    H126034   5.109   6.588   1.841
 8690TIP3    H226035   5.075   6.723   1.900
 8691TIP3   OH226036   0.895   6.390   5.215
 8691TIP3    H126037   0.825   6.452   5.196
 8691TIP3    H226038   0.975   6.443   5.213
 8692TIP3   OH226039   2.531   4.669   0.044
 8692TIP3    H126040   2.450   4.618   0.048
 8692TIP3    H226041   2.586   4.634   0.114
 8693TIP3   OH226042   4.330   5.244   4.475
 8693TIP3    H126043   4.375   5.218   4.555
 8693TIP3    H226044   4.256   5.183   4.469
 8694TIP3   OH226045   0.756   5.484   2.506
 8694TIP3    H126046   0.666   5.473   2.475
 8694TIP3    H226047   0.767   5.414   2.572
 8695TIP3   OH226048   3.569   0.048   2.134
 8695TIP3    H126049   3.541  -0.019   2.197
 8695TIP3    H226050   3.589   0.124   2.188
 8696TIP3   OH226051   2.959   6.486   2.313
 8696TIP3    H126052   3.025   6.421   2.336
 8696TIP3    H226053   2.891   6.476   2.381
 8697TIP3   OH226054   0.103   6.306   2.816
 8697TIP3    H126055   0.150   6.277   2.738
 8697TIP3    H226056   0.038   6.238   2.832
 8698TIP3   OH226057   1.019   5.985   0.025
 8698TIP3    H126058   0.957   5.970   0.096
 8698TIP3    H226059   0.966   6.025  -0.044
 8699TIP3   OH226060   5.649   2.788   0.848
 8699TIP3    H126061   5.681   2.878   0.840
 8699TIP3    H226062   5.710   2.747   0.910
 8700TIP3   OH226063   3.218   6.039   1.287
 8700TIP3    H126064   3.279   6.107   1.256
 8700TIP3    H226065   3.133   6.066   1.253
 8701TIP3   OH226066   1.594   5.892   1.988
 8701TIP3    H126067   1.651   5.968   1.996
 8701TIP3    H226068   1.646   5.819   2.019
 8702TIP3   OH226069   7.217   2.020   1.589
 8702TIP3    H126070   7.250   2.089   1.531
 8702TIP3    H226071   7.180   1.955   1.530
 8703TIP3   OH226072   0.121   1.232   1.673
 8703TIP3    H126073   0.175   1.268   1.602
 8703TIP3    H226074   0.037   1.210   1.630
 8704TIP3   OH226075   1.917   6.721   3.501
 8704TIP3    H126076   1.964   6.756   3.425
 8704TIP3    H226077   1.938   6.782   3.572
 8705TIP3   OH226078   0.765   0.600   5.789
 8705TIP3    H126079   0.763   0.592   5.884
 8705TIP3    H226080   0.851   0.566   5.764
 8706TIP3   OH226081   0.398   2.576   4.325
 8706TIP3    H126082   0.434   2.537   4.246
 8706TIP3    H226083   0.303   2.571   4.313
 8707TIP3   OH226084   3.779   1.858   3.775
 8707TIP3    H126085   3.808   1.767   3.763
 8707TIP3    H226086   3.835   1.892   3.846
 8708TIP3   OH226087   1.397   6.381   4.025
 8708TIP3    H126088   1.341   6.304   4.011
 8708TIP3    H226089   1.388   6.432   3.945
 8709TIP3   OH226090   3.391   1.295   4.260
 8709TIP3    H126091   3.335   1.373   4.260
 8709TIP3    H226092   3.398   1.270   4.168
 8710TIP3   OH226093   2.350   4.429   2.812
 8710TIP3    H126094   2.293   4.379   2.754
 8710TIP3    H226095   2.421   4.459   2.755
 8711TIP3   OH226096   3.825   2.930   2.702
 8711TIP3    H126097   3.857   2.940   2.791
 8711TIP3    H226098   3.766   3.005   2.689
 8712TIP3   OH226099   6.775   5.869   5.271
 8712TIP3    H126100   6.800   5.859   5.180
 8712TIP3    H226101   6.856   5.851   5.320
 8713TIP3   OH226102   4.363   4.195   3.195
 8713TIP3    H126103   4.411   4.223   3.117
 8713TIP3    H226104   4.423   4.210   3.268
 8714TIP3   OH226105   3.023   2.952   4.735
 8714TIP3    H126106   2.973   2.930   4.814
 8714TIP3    H226107   2.980   2.900   4.666
 8715TIP3   OH226108   3.605   0.255   2.304
 8715TIP3    H126109   3.649   0.279   2.386
 8715TIP3    H226110   3.614   0.332   2.248
 8716TIP3   OH226111   4.775   1.224   5.554
 8716TIP3    H126112   4.702   1.286   5.549
 8716TIP3    H226113   4.738   1.146   5.596
 8717TIP3   OH226114   0.550   3.392   5.493
 8717TIP3    H126115   0.604   3.316   5.471
 8717TIP3    H226116   0.481   3.357   5.550
 8718TIP3   OH226117   0.272   5.592   5.495
 8718TIP3    H126118   0.306   5.586   5.585
 8718TIP3    H226119   0.316   5.669   5.459
 8719TIP3   OH226120   0.051   6.160   0.729
 8719TIP3    H126121  -0.014   6.199   0.670
 8719TIP3    H226122   0.032   6.066   0.727
 8720TIP3   OH226123   2.813   5.283   3.827
 8720TIP3    H126124   2.717   5.278   3.830
 8720TIP3    H226125   2.839   5.209   3.774
 8721TIP3   OH226126   4.781   1.888   5.390
 8721TIP3    H126127   4.701   1.934   5.414
 8721TIP3    H226128   4.851   1.938   5.433
 8722TIP3   OH226129   0.146   1.673   1.195
 8722TIP3    H126130   0.116   1.650   1.283
 8722TIP3    H226131   0.126   1.766   1.186
 8723TIP3   OH226132   5.390   4.348   2.431
 8723TIP3    H126133   5.322   4.398   2.475
 8723TIP3    H226134   5.412   4.401   2.354
 8724TIP3   OH226135   7.064   5.058   5.359
 8724TIP3    H126136   7.152   5.070   5.323
 8724TIP3    H226137   7.066   4.972   5.400
 8725TIP3   OH226138   7.049   3.683   3.799
 8725TIP3    H126139   7.030   3.770   3.766
 8725TIP3    H226140   7.138   3.664   3.768
 8726TIP3   OH226141   5.232   2.920   5.814
 8726TIP3    H126142   5.259   2.996   5.864
 8726TIP3    H226143   5.286   2.923   5.735
 8727TIP3   OH226144   5.035   4.701   3.475
 8727TIP3    H126145   5.124   4.676   3.451
 8727TIP3    H226146   5.032   4.796   3.461
 8728TIP3   OH226147   6.610   4.608   3.971
 8728TIP3    H126148   6.613   4.595   3.876
 8728TIP3    H226149   6.632   4.523   4.008
 8729TIP3   OH226150   0.803   1.970   3.345
 8729TIP3    H126151   0.766   1.911   3.410
 8729TIP3    H226152   0.886   1.929   3.320
 8730TIP3   OH226153   4.281   0.838   1.590
 8730TIP3    H126154   4.212   0.902   1.574
 8730TIP3    H226155   4.278   0.823   1.684
 8731TIP3   OH226156   0.494   5.339   0.702
 8731TIP3    H126157   0.522   5.420   0.659
 8731TIP3    H226158   0.399   5.337   0.688
 8732TIP3   OH226159   4.135   2.631   2.018
 8732TIP3    H126160   4.137   2.536   2.031
 8732TIP3    H226161   4.133   2.643   1.923
 8733TIP3   OH226162   7.007   3.070   5.244
 8733TIP3    H126163   7.080   3.011   5.224
 8733TIP3    H226164   6.929   3.016   5.234
 8734TIP3   OH226165   6.698   4.484   4.422
 8734TIP3    H126166   6.715   4.504   4.514
 8734TIP3    H226167   6.603   4.469   4.417
 8735TIP3   OH226168   4.390   6.708   5.470
 8735TIP3    H126169   4.391   6.629   5.416
 8735TIP3    H226170   4.478   6.712   5.508
 8736TIP3   OH226171   5.096   3.254   1.910
 8736TIP3    H126172   5.120   3.171   1.868
 8736TIP3    H226173   5.118   3.240   2.003
 8737TIP3   OH226174   6.018   1.105   1.390
 8737TIP3    H126175   5.990   1.019   1.421
 8737TIP3    H226176   6.088   1.086   1.328
 8738TIP3   OH226177   4.969   1.467   2.403
 8738TIP3    H126178   4.942   1.553   2.371
 8738TIP3    H226179   4.925   1.405   2.345
 8739TIP3   OH226180   5.778   3.925   1.835
 8739TIP3    H126181   5.732   3.938   1.918
 8739TIP3    H226182   5.855   3.873   1.857
 8740TIP3   OH226183   2.324   3.029   2.828
 8740TIP3    H126184   2.385   3.020   2.755
 8740TIP3    H226185   2.312   3.124   2.837
 8741TIP3   OH226186   0.991   5.834   3.324
 8741TIP3    H126187   0.965   5.835   3.416
 8741TIP3    H226188   1.067   5.892   3.320
 8742TIP3   OH226189   4.774   4.332   3.473
 8742TIP3    H126190   4.755   4.418   3.434
 8742TIP3    H226191   4.861   4.341   3.511
 8743TIP3   OH226192   2.758   0.387   2.285
 8743TIP3    H126193   2.776   0.328   2.359
 8743TIP3    H226194   2.813   0.463   2.301
 8744TIP3   OH226195   4.408   4.762   4.879
 8744TIP3    H126196   4.468   4.709   4.931
 8744TIP3    H226197   4.379   4.831   4.938
 8745TIP3   OH226198   2.686   4.537   3.130
 8745TIP3    H126199   2.708   4.573   3.215
 8745TIP3    H226200   2.695   4.610   3.069
 8746TIP3   OH226201   3.232   1.449   5.067
 8746TIP3    H126202   3.320   1.413   5.074
 8746TIP3    H226203   3.242   1.541   5.089
 8747TIP3   OH226204   1.408   0.870   1.279
 8747TIP3    H126205   1.341   0.939   1.277
 8747TIP3    H226206   1.465   0.888   1.205
 8748TIP3   OH226207   1.024   1.642   5.370
 8748TIP3    H126208   1.014   1.554   5.332
 8748TIP3    H226209   0.950   1.650   5.431
 8749TIP3   OH226210   3.499   4.248   0.818
 8749TIP3    H126211   3.477   4.245   0.911
 8749TIP3    H226212   3.560   4.321   0.810
 8750TIP3   OH226213   5.168   4.829   2.714
 8750TIP3    H126214   5.108   4.889   2.757
 8750TIP3    H226215   5.230   4.886   2.667
 8751TIP3   OH226216   2.532   5.664   4.899
 8751TIP3    H126217   2.446   5.645   4.862
 8751TIP3    H226218   2.548   5.755   4.877
 8752TIP3   OH226219   0.184   6.518   1.627
 8752TIP3    H126220   0.096   6.545   1.651
 8752TIP3    H226221   0.241   6.575   1.680
 8753TIP3   OH226222   6.878   1.282   1.694
 8753TIP3    H126223   6.853   1.306   1.784
 8753TIP3    H226224   6.797   1.290   1.644
 8754TIP3   OH226225   6.140   5.794   5.355
 8754TIP3    H126226   6.234   5.785   5.373
 8754TIP3    H226227   6.112   5.707   5.329
 8755TIP3   OH226228   5.882   1.336   5.567
 8755TIP3    H126229   5.815   1.396   5.535
 8755TIP3    H226230   5.934   1.314   5.490
 8756TIP3   OH226231   6.485   2.412   4.897
 8756TIP3    H126232   6.454   2.324   4.875
 8756TIP3    H226233   6.555   2.429   4.833
 8757TIP3   OH226234   0.277   6.703   2.378
 8757TIP3    H126235   0.315   6.763   2.313
 8757TIP3    H226236   0.352   6.655   2.413
 8758TIP3   OH226237   2.600   4.272   3.167
 8758TIP3    H126238   2.641   4.358   3.162
 8758TIP3    H226239   2.658   4.221   3.223
 8759TIP3   OH226240   1.149   1.595   3.040
 8759TIP3    H126241   1.191   1.665   2.990
 8759TIP3    H226242   1.126   1.529   2.975
 8760TIP3   OH226243   1.691   0.368   5.596
 8760TIP3    H126244   1.781   0.347   5.622
 8760TIP3    H226245   1.668   0.300   5.532
 8761TIP3   OH226246   1.622   3.501   0.934
 8761TIP3    H126247   1.578   3.546   0.862
 8761TIP3    H226248   1.567   3.518   1.010
 8762TIP3   OH226249   2.179   4.625   0.175
 8762TIP3    H126250   2.096   4.576   0.174
 8762TIP3    H226251   2.246   4.558   0.165
 8763TIP3   OH226252   5.994   3.443   4.135
 8763TIP3    H126253   6.073   3.458   4.082
 8763TIP3    H226254   5.949   3.528   4.134
 8764TIP3   OH226255   0.173   2.416   0.523
 8764TIP3    H126256   0.169   2.478   0.450
 8764TIP3    H226257   0.083   2.412   0.555
 8765TIP3   OH226258   6.293   0.223   5.174
 8765TIP3    H126259   6.260   0.157   5.234
 8765TIP3    H226260   6.386   0.204   5.165
 8766TIP3   OH226261   4.334   2.772   1.306
 8766TIP3    H126262   4.387   2.793   1.383
 8766TIP3    H226263   4.382   2.703   1.261
 8767TIP3   OH226264   2.955   1.833   1.818
 8767TIP3    H126265   2.948   1.829   1.914
 8767TIP3    H226266   2.881   1.886   1.791
 8768TIP3   OH226267   0.071   0.936   2.230
 8768TIP3    H126268   0.000   0.993   2.202
 8768TIP3    H226269   0.075   0.947   2.325
 8769TIP3   OH226270   5.198   1.929   1.232
 8769TIP3    H126271   5.263   1.880   1.181
 8769TIP3    H226272   5.233   1.930   1.321
 8770TIP3   OH226273   1.207   2.749   2.774
 8770TIP3    H126274   1.233   2.661   2.748
 8770TIP3    H226275   1.249   2.763   2.859
 8771TIP3   OH226276   4.401   3.699   4.410
 8771TIP3    H126277   4.454   3.719   4.333
 8771TIP3    H226278   4.418   3.607   4.428
 8772TIP3   OH226279   6.120   6.258   5.591
 8772TIP3    H126280   6.088   6.202   5.520
 8772TIP3    H226281   6.213   6.235   5.598
 8773TIP3   OH226282   5.185   2.918  -0.002
 8773TIP3    H126283   5.200   2.920  -0.096
 8773TIP3    H226284   5.089   2.919   0.006
 8774TIP3   OH226285   3.638   0.853   0.839
 8774TIP3    H126286   3.569   0.899   0.791
 8774TIP3    H226287   3.705   0.921   0.855
 8775TIP3   OH226288   0.092   2.414   1.777
 8775TIP3    H126289   0.012   2.362   1.764
 8775TIP3    H226290   0.163   2.353   1.758
 8776TIP3   OH226291   3.269   0.534   4.448
 8776TIP3    H126292   3.211   0.594   4.401
 8776TIP3    H226293   3.223   0.515   4.530
 8777TIP3   OH226294   2.005   5.494   0.313
 8777TIP3    H126295   1.943   5.454   0.374
 8777TIP3    H226296   2.082   5.515   0.367
 8778TIP3   OH226297   6.880   2.839   1.967
 8778TIP3    H126298   6.951   2.774   1.965
 8778TIP3    H226299   6.859   2.853   1.875
 8779TIP3   OH226300   2.898   2.091   5.315
 8779TIP3    H126301   2.970   2.035   5.287
 8779TIP3    H226302   2.911   2.101   5.409
 8780TIP3   OH226303   0.116   2.101   3.878
 8780TIP3    H126304   0.211   2.105   3.868
 8780TIP3    H226305   0.084   2.179   3.834
 8781TIP3   OH226306   2.232   5.078   4.858
 8781TIP3    H126307   2.171   5.144   4.825
 8781TIP3    H226308   2.310   5.128   4.883
 8782TIP3   OH226309   0.698   0.786   5.031
 8782TIP3    H126310   0.774   0.732   5.054
 8782TIP3    H226311   0.734   0.875   5.023
 8783TIP3   OH226312   2.049   6.629   2.385
 8783TIP3    H126313   2.003   6.671   2.458
 8783TIP3    H226314   1.979   6.587   2.334
 8784TIP3   OH226315   7.168   4.041   0.975
 8784TIP3    H126316   7.193   3.987   1.050
 8784TIP3    H226317   7.181   4.131   1.005
 8785TIP3   OH226318   0.677   6.086   3.210
 8785TIP3    H126319   0.663   6.012   3.151
 8785TIP3    H226320   0.591   6.106   3.246
 8786TIP3   OH226321   3.514   1.658   4.081
 8786TIP3    H126322   3.453   1.731   4.095
 8786TIP3    H226323   3.541   1.632   4.169
 8787TIP3   OH226324   1.189   2.301   0.520
 8787TIP3    H126325   1.150   2.362   0.582
 8787TIP3    H226326   1.273   2.342   0.496
 8788TIP3   OH226327   6.887   1.983   5.726
 8788TIP3    H126328   6.889   1.940   5.812
 8788TIP3    H226329   6.944   1.929   5.671
 8789TIP3   OH226330   1.882   0.569   0.532
 8789TIP3    H126331   1.975   0.557   0.512
 8789TIP3    H226332   1.869   0.664   0.528
 8790TIP3   OH226333   6.584   5.677   5.216
 8790TIP3    H126334   6.545   5.644   5.297
 8790TIP3    H226335   6.621   5.762   5.240
 8791TIP3   OH226336   7.080   1.867   5.599
 8791TIP3    H126337   7.166   1.848   5.636
 8791TIP3    H226338   7.090   1.954   5.558
 8792TIP3   OH226339   4.746   5.592   2.136
 8792TIP3    H126340   4.799   5.513   2.143
 8792TIP3    H226341   4.755   5.619   2.045
 8793TIP3   OH226342   5.417   3.973   4.569
 8793TIP3    H126343   5.362   3.993   4.645
 8793TIP3    H226344   5.412   3.878   4.560
 8794TIP3   OH226345   1.633   1.428   2.500
 8794TIP3    H126346   1.666   1.428   2.590
 8794TIP3    H226347   1.706   1.459   2.448
 8795TIP3   OH226348   0.348   3.262   1.096
 8795TIP3    H126349   0.402   3.269   1.017
 8795TIP3    H226350   0.409   3.229   1.163
 8796TIP3   OH226351   2.163   3.338   4.088
 8796TIP3    H126352   2.202   3.251   4.076
 8796TIP3    H226353   2.135   3.339   4.180
 8797TIP3   OH226354   2.479   6.775   4.489
 8797TIP3    H126355   2.417   6.843   4.464
 8797TIP3    H226356   2.429   6.718   4.548
 8798TIP3   OH226357   1.492   1.643   1.782
 8798TIP3    H126358   1.540   1.674   1.859
 8798TIP3    H226359   1.408   1.688   1.786
 8799TIP3   OH226360   3.841   1.504   2.547
 8799TIP3    H126361   3.764   1.448   2.543
 8799TIP3    H226362   3.907   1.460   2.493
 8800TIP3   OH226363   3.270   5.869   0.268
 8800TIP3    H126364   3.261   5.918   0.349
 8800TIP3    H226365   3.212   5.914   0.206
 8801TIP3   OH226366   2.492   0.462   2.906
 8801TIP3    H126367   2.524   0.496   2.823
 8801TIP3    H226368   2.397   0.461   2.897
 8802TIP3   OH226369   5.049   4.851   1.722
 8802TIP3    H126370   4.982   4.917   1.741
 8802TIP3    H226371   5.005   4.788   1.665
 8803TIP3   OH226372   1.291   4.202   1.738
 8803TIP3    H126373   1.222   4.162   1.685
 8803TIP3    H226374   1.343   4.254   1.676
 8804TIP3   OH226375   0.176   2.280   2.185
 8804TIP3    H126376   0.267   2.258   2.162
 8804TIP3    H226377   0.165   2.371   2.158
 8805TIP3   OH226378   6.190   3.901   0.518
 8805TIP3    H126379   6.196   3.877   0.426
 8805TIP3    H226380   6.230   3.827   0.564
 8806TIP3   OH226381   5.009   2.821   1.758
 8806TIP3    H126382   5.026   2.767   1.835
 8806TIP3    H226383   4.925   2.864   1.776
 8807TIP3   OH226384   6.394   0.566   0.714
 8807TIP3    H126385   6.488   0.584   0.713
 8807TIP3    H226386   6.353   0.650   0.734
 8808TIP3   OH226387   5.882   5.182   2.620
 8808TIP3    H126388   5.833   5.248   2.668
 8808TIP3    H226389   5.972   5.192   2.651
 8809TIP3   OH226390   0.624   0.008   0.181
 8809TIP3    H126391   0.607   0.096   0.216
 8809TIP3    H226392   0.710  -0.015   0.215
 8810TIP3   OH226393   6.726   0.800   3.564
 8810TIP3    H126394   6.786   0.788   3.490
 8810TIP3    H226395   6.770   0.864   3.620
 8811TIP3   OH226396   3.710   4.247   1.789
 8811TIP3    H126397   3.755   4.286   1.714
 8811TIP3    H226398   3.753   4.284   1.866
 8812TIP3   OH226399   6.755   6.620   0.258
 8812TIP3    H126400   6.767   6.704   0.214
 8812TIP3    H226401   6.706   6.641   0.338
 8813TIP3   OH226402   7.099   2.659   1.169
 8813TIP3    H126403   7.108   2.751   1.194
 8813TIP3    H226404   7.006   2.648   1.150
 8814TIP3   OH226405   0.857   0.831   1.392
 8814TIP3    H126406   0.826   0.750   1.353
 8814TIP3    H226407   0.785   0.860   1.448
 8815TIP3   OH226408   0.404   1.424   3.758
 8815TIP3    H126409   0.374   1.448   3.845
 8815TIP3    H226410   0.429   1.507   3.717
 8816TIP3   OH226411   0.280   0.309   1.542
 8816TIP3    H126412   0.306   0.236   1.598
 8816TIP3    H226413   0.251   0.378   1.602
 8817TIP3   OH226414   0.871   6.066   1.392
 8817TIP3    H126415   0.871   6.026   1.478
 8817TIP3    H226416   0.956   6.044   1.354
 8818TIP3   OH226417   0.575   0.582   3.567
 8818TIP3    H126418   0.661   0.564   3.529
 8818TIP3    H226419   0.591   0.654   3.627
 8819TIP3   OH226420   1.228   4.846   2.175
 8819TIP3    H126421   1.244   4.897   2.095
 8819TIP3    H226422   1.135   4.824   2.172
 8820TIP3   OH226423   5.435   5.036   4.931
 8820TIP3    H126424   5.502   5.024   4.863
 8820TIP3    H226425   5.445   5.128   4.958
 8821TIP3   OH226426   4.833   0.729   5.002
 8821TIP3    H126427   4.812   0.723   5.095
 8821TIP3    H226428   4.852   0.639   4.976
 8822TIP3   OH226429   5.799   5.307   5.333
 8822TIP3    H126430   5.842   5.280   5.252
 8822TIP3    H226431   5.871   5.328   5.392
 8823TIP3   OH226432   6.656   2.488   5.382
 8823TIP3    H126433   6.638   2.429   5.310
 8823TIP3    H226434   6.691   2.432   5.451
 8824TIP3   OH226435   0.321   6.210   1.000
 8824TIP3    H126436   0.390   6.145   1.016
 8824TIP3    H226437   0.246   6.177   1.049
 8825TIP3   OH226438   6.733   4.135   5.518
 8825TIP3    H126439   6.821   4.173   5.519
 8825TIP3    H226440   6.684   4.184   5.584
 8826TIP3   OH226441   6.242   6.686   5.039
 8826TIP3    H126442   6.334   6.713   5.029
 8826TIP3    H226443   6.242   6.592   5.020
 8827TIP3   OH226444   6.529   3.071   4.495
 8827TIP3    H126445   6.508   3.160   4.522
 8827TIP3    H226446   6.451   3.040   4.450
 8828TIP3   OH226447   1.599   3.345   3.439
 8828TIP3    H126448   1.632   3.380   3.356
 8828TIP3    H226449   1.504   3.354   3.433
 8829TIP3   OH226450   3.032   4.612   0.031
 8829TIP3    H126451   3.119   4.578   0.048
 8829TIP3    H226452   2.974   4.557   0.083
 8830TIP3   OH226453   5.264   2.155   1.077
 8830TIP3    H126454   5.231   2.089   1.138
 8830TIP3    H226455   5.357   2.164   1.099
 8831TIP3   OH226456   0.774   5.706   3.228
 8831TIP3    H126457   0.781   5.631   3.288
 8831TIP3    H226458   0.847   5.763   3.253
 8832TIP3   OH226459   0.608   6.611   2.124
 8832TIP3    H126460   0.689   6.645   2.161
 8832TIP3    H226461   0.606   6.519   2.151
 8833TIP3   OH226462   5.095   5.272   4.317
 8833TIP3    H126463   5.022   5.326   4.348
 8833TIP3    H226464   5.118   5.216   4.391
 8834TIP3   OH226465   7.011   6.454   0.349
 8834TIP3    H126466   6.926   6.413   0.336
 8834TIP3    H226467   6.999   6.544   0.317
 8835TIP3   OH226468   2.948   2.355   0.297
 8835TIP3    H126469   2.989   2.436   0.326
 8835TIP3    H226470   2.854   2.369   0.310
 8836TIP3   OH226471   0.462   1.183   0.930
 8836TIP3    H126472   0.416   1.254   0.885
 8836TIP3    H226473   0.392   1.121   0.953
 8837TIP3   OH226474   1.320   5.186   4.827
 8837TIP3    H126475   1.383   5.246   4.786
 8837TIP3    H226476   1.274   5.241   4.891
 8838TIP3   OH226477   6.274   3.784   3.965
 8838TIP3    H126478   6.256   3.773   4.058
 8838TIP3    H226479   6.368   3.765   3.956
 8839TIP3   OH226480   1.421   5.948   3.623
 8839TIP3    H126481   1.370   5.925   3.701
 8839TIP3    H226482   1.495   5.998   3.657
 8840TIP3   OH226483   0.644   2.751   4.728
 8840TIP3    H126484   0.637   2.657   4.712
 8840TIP3    H226485   0.613   2.792   4.647
 8841TIP3   OH226486   1.170   3.931   4.676
 8841TIP3    H126487   1.252   3.972   4.650
 8841TIP3    H226488   1.107   3.957   4.608
 8842TIP3   OH226489   5.796   4.017   3.643
 8842TIP3    H126490   5.746   3.990   3.566
 8842TIP3    H226491   5.729   4.044   3.706
 8843TIP3   OH226492   7.069   2.542   3.714
 8843TIP3    H126493   7.013   2.576   3.644
 8843TIP3    H226494   7.024   2.463   3.745
 8844TIP3   OH226495   2.214   0.724   5.391
 8844TIP3    H126496   2.309   0.719   5.383
 8844TIP3    H226497   2.196   0.818   5.394
 8845TIP3   OH226498   1.995   2.515   5.050
 8845TIP3    H126499   1.949   2.576   5.107
 8845TIP3    H226500   2.087   2.534   5.063
 8846TIP3   OH226501   2.888   1.036   1.741
 8846TIP3    H126502   2.937   1.080   1.810
 8846TIP3    H226503   2.809   1.089   1.731
 8847TIP3   OH226504   4.763   5.326   3.069
 8847TIP3    H126505   4.753   5.306   2.976
 8847TIP3    H226506   4.854   5.356   3.077
 8848TIP3   OH226507   2.265   3.556   0.178
 8848TIP3    H126508   2.199   3.489   0.194
 8848TIP3    H226509   2.346   3.507   0.161
 8849TIP3   OH226510   1.596   5.878   1.196
 8849TIP3    H126511   1.673   5.823   1.185
 8849TIP3    H226512   1.533   5.844   1.133
 8850TIP3   OH226513   5.985   3.573   4.581
 8850TIP3    H126514   6.002   3.537   4.668
 8850TIP3    H226515   6.037   3.653   4.578
 8851TIP3   OH226516   3.382   4.014   1.303
 8851TIP3    H126517   3.288   4.003   1.295
 8851TIP3    H226518   3.393   4.095   1.353
 8852TIP3   OH226519   3.448   6.452   3.151
 8852TIP3    H126520   3.540   6.466   3.176
 8852TIP3    H226521   3.441   6.358   3.138
 8853TIP3   OH226522   1.644   5.525   3.232
 8853TIP3    H126523   1.725   5.543   3.183
 8853TIP3    H226524   1.583   5.592   3.203
 8854TIP3   OH226525   3.686   0.238   3.845
 8854TIP3    H126526   3.617   0.180   3.879
 8854TIP3    H226527   3.639   0.310   3.803
 8855TIP3   OH226528   1.884   5.586   2.365
 8855TIP3    H126529   1.961   5.640   2.346
 8855TIP3    H226530   1.831   5.640   2.423
 8856TIP3   OH226531   1.345   1.609   3.204
 8856TIP3    H126532   1.273   1.602   3.142
 8856TIP3    H226533   1.423   1.618   3.150
 8857TIP3   OH226534   1.927   1.452   3.315
 8857TIP3    H126535   1.975   1.523   3.273
 8857TIP3    H226536   1.918   1.480   3.406
 8858TIP3   OH226537   5.186   6.819   1.347
 8858TIP3    H126538   5.179   6.797   1.439
 8858TIP3    H226539   5.240   6.750   1.309
 8859TIP3   OH226540   0.417   0.440   4.223
 8859TIP3    H126541   0.416   0.535   4.219
 8859TIP3    H226542   0.375   0.419   4.306
 8860TIP3   OH226543   1.742   4.720   5.089
 8860TIP3    H126544   1.724   4.636   5.132
 8860TIP3    H226545   1.689   4.717   5.009
 8861TIP3   OH226546   2.364   6.228   2.312
 8861TIP3    H126547   2.288   6.267   2.269
 8861TIP3    H226548   2.429   6.299   2.313
 8862TIP3   OH226549   1.297   3.639   4.392
 8862TIP3    H126550   1.361   3.711   4.397
 8862TIP3    H226551   1.316   3.597   4.308
 8863TIP3   OH226552   4.133   2.466   4.470
 8863TIP3    H126553   4.088   2.529   4.413
 8863TIP3    H226554   4.062   2.418   4.513
 8864TIP3   OH226555   5.199   4.396   0.715
 8864TIP3    H126556   5.157   4.340   0.780
 8864TIP3    H226557   5.133   4.461   0.691
 8865TIP3   OH226558   5.492   4.635   1.292
 8865TIP3    H126559   5.411   4.648   1.341
 8865TIP3    H226560   5.530   4.723   1.283
 8866TIP3   OH226561   7.006   3.116   4.583
 8866TIP3    H126562   7.081   3.160   4.624
 8866TIP3    H226563   6.982   3.174   4.511
 8867TIP3   OH226564   1.158   1.912   5.274
 8867TIP3    H126565   1.131   1.826   5.243
 8867TIP3    H226566   1.214   1.947   5.205
 8868TIP3   OH226567   6.819   6.029   3.473
 8868TIP3    H126568   6.848   6.099   3.532
 8868TIP3    H226569   6.807   5.953   3.530
 8869TIP3   OH226570   5.023   2.989   3.748
 8869TIP3    H126571   5.023   2.905   3.701
 8869TIP3    H226572   4.934   3.021   3.738
 8870TIP3   OH226573   1.723   5.049   4.492
 8870TIP3    H126574   1.666   5.113   4.534
 8870TIP3    H226575   1.811   5.070   4.525
 8871TIP3   OH226576   5.990   3.045   0.402
 8871TIP3    H126577   6.043   3.125   0.394
 8871TIP3    H226578   5.993   3.006   0.315
 8872TIP3   OH226579   6.406   1.306   2.483
 8872TIP3    H126580   6.374   1.259   2.560
 8872TIP3    H226581   6.328   1.317   2.428
 8873TIP3   OH226582   3.118   6.526   2.907
 8873TIP3    H126583   3.148   6.596   2.965
 8873TIP3    H226584   3.196   6.472   2.891
 8874TIP3   OH226585   3.172   5.411   3.040
 8874TIP3    H126586   3.083   5.377   3.040
 8874TIP3    H226587   3.161   5.506   3.040
 8875TIP3   OH226588   2.158   1.808   5.710
 8875TIP3    H126589   2.142   1.895   5.745
 8875TIP3    H226590   2.197   1.824   5.624
 8876TIP3   OH226591   4.040   0.618   3.456
 8876TIP3    H126592   4.101   0.548   3.433
 8876TIP3    H226593   4.064   0.690   3.398
 8877TIP3   OH226594   3.307   2.710   2.484
 8877TIP3    H126595   3.291   2.669   2.399
 8877TIP3    H226596   3.237   2.678   2.540
 8878TIP3   OH226597   1.535   0.285   3.146
 8878TIP3    H126598   1.551   0.378   3.127
 8878TIP3    H226599   1.447   0.283   3.184
 8879TIP3   OH226600   5.100   6.335   0.572
 8879TIP3    H126601   5.144   6.346   0.487
 8879TIP3    H226602   5.170   6.348   0.637
 8880TIP3   OH226603   1.426   4.145   1.081
 8880TIP3    H126604   1.373   4.127   1.159
 8880TIP3    H226605   1.471   4.227   1.101
 8881TIP3   OH226606   3.238   1.628   4.571
 8881TIP3    H126607   3.249   1.677   4.653
 8881TIP3    H226608   3.165   1.672   4.527
 8882TIP3   OH226609   2.002   0.317   0.942
 8882TIP3    H126610   1.920   0.353   0.909
 8882TIP3    H226611   1.995   0.324   1.038
 8883TIP3   OH226612   1.625   4.163   0.353
 8883TIP3    H126613   1.605   4.106   0.427
 8883TIP3    H226614   1.623   4.105   0.277
 8884TIP3   OH226615   0.536   5.667   1.453
 8884TIP3    H126616   0.449   5.692   1.421
 8884TIP3    H226617   0.597   5.703   1.389
 8885TIP3   OH226618   1.482   5.670   5.909
 8885TIP3    H126619   1.533   5.650   5.831
 8885TIP3    H226620   1.490   5.592   5.964
 8886TIP3   OH226621   2.907   4.111   0.374
 8886TIP3    H126622   2.907   4.204   0.354
 8886TIP3    H226623   3.000   4.088   0.383
 8887TIP3   OH226624   4.415   1.912   3.309
 8887TIP3    H126625   4.415   2.006   3.291
 8887TIP3    H226626   4.476   1.902   3.383
 8888TIP3   OH226627   2.946   5.633   1.811
 8888TIP3    H126628   2.888   5.571   1.767
 8888TIP3    H226629   2.985   5.583   1.883
 8889TIP3   OH226630   6.082   1.147   0.940
 8889TIP3    H126631   6.106   1.083   0.873
 8889TIP3    H226632   5.988   1.159   0.929
 8890TIP3   OH226633   3.085   1.842   5.641
 8890TIP3    H126634   3.003   1.803   5.610
 8890TIP3    H226635   3.153   1.801   5.588
 8891TIP3   OH226636   1.649   4.083   4.147
 8891TIP3    H126637   1.651   4.177   4.127
 8891TIP3    H226638   1.736   4.065   4.183
 8892TIP3   OH226639   5.536   6.421   3.513
 8892TIP3    H126640   5.593   6.378   3.450
 8892TIP3    H226641   5.584   6.498   3.541
 8893TIP3   OH226642   2.529   5.976   0.268
 8893TIP3    H126643   2.562   5.913   0.204
 8893TIP3    H226644   2.593   6.048   0.265
 8894TIP3   OH226645   2.017   3.651   1.905
 8894TIP3    H126646   1.955   3.629   1.836
 8894TIP3    H226647   2.103   3.646   1.862
 8895TIP3   OH226648   4.535   4.784   2.221
 8895TIP3    H126649   4.478   4.849   2.262
 8895TIP3    H226650   4.525   4.799   2.127
 8896TIP3   OH226651   0.897   3.180   4.826
 8896TIP3    H126652   0.835   3.153   4.758
 8896TIP3    H226653   0.846   3.181   4.907
 8897TIP3   OH226654   1.582   5.830   4.460
 8897TIP3    H126655   1.569   5.900   4.396
 8897TIP3    H226656   1.668   5.794   4.438
 8898TIP3   OH226657   1.350   6.705   2.976
 8898TIP3    H126658   1.328   6.625   2.929
 8898TIP3    H226659   1.400   6.676   3.052
 8899TIP3   OH226660   7.131   6.354   4.116
 8899TIP3    H126661   7.183   6.284   4.076
 8899TIP3    H226662   7.043   6.318   4.124
 8900TIP3   OH226663   0.577   5.164   4.703
 8900TIP3    H126664   0.524   5.125   4.773
 8900TIP3    H226665   0.631   5.091   4.671
 8901TIP3   OH226666   1.648   2.695   3.524
 8901TIP3    H126667   1.611   2.782   3.512
 8901TIP3    H226668   1.732   2.711   3.568
 8902TIP3   OH226669   5.166   1.595   0.364
 8902TIP3    H126670   5.185   1.624   0.275
 8902TIP3    H226671   5.193   1.669   0.419
 8903TIP3   OH226672   2.428   4.747   2.449
 8903TIP3    H126673   2.453   4.656   2.437
 8903TIP3    H226674   2.488   4.780   2.516
 8904TIP3   OH226675   7.056   6.054   4.090
 8904TIP3    H126676   7.003   6.047   4.170
 8904TIP3    H226677   7.145   6.068   4.121
 8905TIP3   OH226678   5.921   0.399   0.699
 8905TIP3    H126679   5.846   0.352   0.735
 8905TIP3    H226680   5.887   0.441   0.620
 8906TIP3   OH226681   2.714   1.809   5.280
 8906TIP3    H126682   2.673   1.887   5.242
 8906TIP3    H226683   2.750   1.762   5.205
 8907TIP3   OH226684   5.550   3.637   1.126
 8907TIP3    H126685   5.468   3.675   1.095
 8907TIP3    H226686   5.577   3.695   1.198
 8908TIP3   OH226687   5.614   4.878   1.670
 8908TIP3    H126688   5.639   4.797   1.625
 8908TIP3    H226689   5.522   4.865   1.693
 8909TIP3   OH226690   0.605   1.537   0.754
 8909TIP3    H126691   0.574   1.559   0.842
 8909TIP3    H226692   0.592   1.443   0.747
 8910TIP3   OH226693   0.091   6.546   4.202
 8910TIP3    H126694   0.149   6.500   4.142
 8910TIP3    H226695   0.023   6.482   4.224
 8911TIP3   OH226696   6.672   5.970   0.149
 8911TIP3    H126697   6.583   5.952   0.178
 8911TIP3    H226698   6.664   6.045   0.091
 8912TIP3   OH226699   4.015   1.231   2.180
 8912TIP3    H126700   4.097   1.255   2.137
 8912TIP3    H226701   3.954   1.215   2.108
 8913TIP3   OH226702   3.694   1.378   2.022
 8913TIP3    H126703   3.620   1.391   2.082
 8913TIP3    H226704   3.675   1.296   1.978
 8914TIP3   OH226705   0.216   4.093   0.225
 8914TIP3    H126706   0.232   4.010   0.180
 8914TIP3    H226707   0.244   4.160   0.163
 8915TIP3   OH226708   6.333   2.659   2.808
 8915TIP3    H126709   6.419   2.640   2.844
 8915TIP3    H226710   6.280   2.684   2.884
 8916TIP3   OH226711   6.728   5.984   1.266
 8916TIP3    H126712   6.805   6.008   1.215
 8916TIP3    H226713   6.706   5.896   1.237
 8917TIP3   OH226714   0.037   0.737   0.231
 8917TIP3    H126715   0.060   0.742   0.323
 8917TIP3    H226716   0.108   0.688   0.190
 8918TIP3   OH226717   0.837   0.888   2.222
 8918TIP3    H126718   0.831   0.869   2.315
 8918TIP3    H226719   0.824   0.983   2.216
 8919TIP3   OH226720   4.132   2.794   4.091
 8919TIP3    H126721   4.125   2.783   3.996
 8919TIP3    H226722   4.132   2.889   4.104
 8920TIP3   OH226723   3.962   3.092   2.085
 8920TIP3    H126724   3.903   3.154   2.044
 8920TIP3    H226725   4.032   3.080   2.021
 8921TIP3   OH226726   0.933   2.773   4.734
 8921TIP3    H126727   0.957   2.693   4.782
 8921TIP3    H226728   0.839   2.780   4.747
 8922TIP3   OH226729   0.094   2.644   0.030
 8922TIP3    H126730   0.002   2.622   0.043
 8922TIP3    H226731   0.126   2.668   0.118
 8923TIP3   OH226732   0.776   0.530   2.204
 8923TIP3    H126733   0.843   0.564   2.145
 8923TIP3    H226734   0.783   0.585   2.282
 8924TIP3   OH226735   1.148   3.256   5.747
 8924TIP3    H126736   1.104   3.229   5.827
 8924TIP3    H226737   1.162   3.350   5.758
 8925TIP3   OH226738   1.319   1.193   1.931
 8925TIP3    H126739   1.224   1.182   1.926
 8925TIP3    H226740   1.337   1.272   1.881
 8926TIP3   OH226741   3.327   6.532   1.713
 8926TIP3    H126742   3.304   6.584   1.790
 8926TIP3    H226743   3.246   6.486   1.690
 8927TIP3   OH226744   3.505   2.573   4.043
 8927TIP3    H126745   3.514   2.482   4.071
 8927TIP3    H226746   3.576   2.619   4.087
 8928TIP3   OH226747   4.163   0.114   4.409
 8928TIP3    H126748   4.091   0.071   4.454
 8928TIP3    H226749   4.132   0.128   4.320
 8929TIP3   OH226750   6.204   3.794   0.256
 8929TIP3    H126751   6.170   3.827   0.173
 8929TIP3    H226752   6.186   3.700   0.254
 8930TIP3   OH226753   4.718   5.909   0.995
 8930TIP3    H126754   4.761   5.826   0.975
 8930TIP3    H226755   4.693   5.901   1.087
 8931TIP3   OH226756   3.024   0.523   2.570
 8931TIP3    H126757   3.085   0.581   2.616
 8931TIP3    H226758   3.080   0.456   2.531
 8932TIP3   OH226759   3.416   4.635   0.883
 8932TIP3    H126760   3.481   4.701   0.910
 8932TIP3    H226761   3.394   4.659   0.793
 8933TIP3   OH226762   4.998   2.590   4.792
 8933TIP3    H126763   5.077   2.575   4.844
 8933TIP3    H226764   4.944   2.512   4.807
 8934TIP3   OH226765   4.591   3.563   1.398
 8934TIP3    H126766   4.584   3.648   1.354
 8934TIP3    H226767   4.550   3.502   1.337
 8935TIP3   OH226768   2.289   2.270   5.235
 8935TIP3    H126769   2.284   2.330   5.160
 8935TIP3    H226770   2.338   2.318   5.301
 8936TIP3   OH226771   3.117   3.784   2.153
 8936TIP3    H126772   3.131   3.866   2.200
 8936TIP3    H226773   3.089   3.722   2.220
 8937TIP3   OH226774   5.950   5.516   4.147
 8937TIP3    H126775   6.014   5.459   4.188
 8937TIP3    H226776   5.887   5.536   4.216
 8938TIP3   OH226777   2.763   3.169   0.323
 8938TIP3    H126778   2.689   3.211   0.366
 8938TIP3    H226779   2.810   3.241   0.280
 8939TIP3   OH226780   0.256   3.692   1.140
 8939TIP3    H126781   0.176   3.706   1.089
 8939TIP3    H226782   0.248   3.751   1.215
 8940TIP3   OH226783   4.413   5.269   2.449
 8940TIP3    H126784   4.387   5.187   2.406
 8940TIP3    H226785   4.504   5.281   2.423
 8941TIP3   OH226786   2.507   1.072   4.511
 8941TIP3    H126787   2.601   1.058   4.523
 8941TIP3    H226788   2.494   1.071   4.416
 8942TIP3   OH226789   0.554   1.016   3.159
 8942TIP3    H126790   0.559   1.068   3.080
 8942TIP3    H226791   0.630   0.958   3.155
 8943TIP3   OH226792   6.885   3.871   0.225
 8943TIP3    H126793   6.857   3.942   0.283
 8943TIP3    H226794   6.822   3.801   0.240
 8944TIP3   OH226795   1.746   1.238   1.162
 8944TIP3    H126796   1.696   1.230   1.243
 8944TIP3    H226797   1.818   1.297   1.184
 8945TIP3   OH226798   4.248   3.695   5.609
 8945TIP3    H126799   4.316   3.682   5.542
 8945TIP3    H226800   4.166   3.699   5.559
 8946TIP3   OH226801   6.028   0.003   0.817
 8946TIP3    H126802   5.962  -0.039   0.873
 8946TIP3    H226803   6.024   0.095   0.840
 8947TIP3   OH226804   0.580   4.802   2.167
 8947TIP3    H126805   0.568   4.757   2.084
 8947TIP3    H226806   0.666   4.843   2.160
 8948TIP3   OH226807   6.682   1.035   3.053
 8948TIP3    H126808   6.668   1.049   3.146
 8948TIP3    H226809   6.771   1.067   3.037
 8949TIP3   OH226810   6.899   3.871   4.723
 8949TIP3    H126811   6.968   3.924   4.764
 8949TIP3    H226812   6.945   3.796   4.686
 8950TIP3   OH226813   5.846   5.427   0.963
 8950TIP3    H126814   5.933   5.388   0.953
 8950TIP3    H226815   5.802   5.409   0.880
 8951TIP3   OH226816   5.001   4.779   5.476
 8951TIP3    H126817   5.005   4.771   5.571
 8951TIP3    H226818   4.909   4.799   5.457
 8952TIP3   OH226819   2.040   1.607   0.732
 8952TIP3    H126820   1.961   1.589   0.784
 8952TIP3    H226821   2.009   1.655   0.656
 8953TIP3   OH226822   3.357   5.726   3.578
 8953TIP3    H126823   3.277   5.675   3.564
 8953TIP3    H226824   3.421   5.688   3.518
 8954TIP3   OH226825   4.380   5.613   0.955
 8954TIP3    H126826   4.289   5.625   0.929
 8954TIP3    H226827   4.429   5.666   0.891
 8955TIP3   OH226828   1.587   2.553   4.944
 8955TIP3    H126829   1.560   2.506   4.865
 8955TIP3    H226830   1.624   2.635   4.912
 8956TIP3   OH226831   2.329   0.566   3.244
 8956TIP3    H126832   2.373   0.510   3.308
 8956TIP3    H226833   2.274   0.507   3.193
 8957TIP3   OH226834   2.886   1.491   4.797
 8957TIP3    H126835   2.979   1.511   4.808
 8957TIP3    H226836   2.868   1.422   4.861
 8958TIP3   OH226837   2.691   4.777   2.969
 8958TIP3    H126838   2.767   4.788   2.913
 8958TIP3    H226839   2.695   4.851   3.030
 8959TIP3   OH226840   3.690   1.663   2.212
 8959TIP3    H126841   3.675   1.670   2.307
 8959TIP3    H226842   3.633   1.591   2.185
 8960TIP3   OH226843   4.958   3.343   0.023
 8960TIP3    H126844   4.973   3.256   0.059
 8960TIP3    H226845   4.863   3.351   0.020
 8961TIP3   OH226846   7.132   5.283   5.680
 8961TIP3    H126847   7.178   5.342   5.740
 8961TIP3    H226848   7.117   5.336   5.601
 8962TIP3   OH226849   2.874   1.508   3.333
 8962TIP3    H126850   2.868   1.413   3.344
 8962TIP3    H226851   2.917   1.537   3.414
 8963TIP3   OH226852   1.672   3.818   3.131
 8963TIP3    H126853   1.610   3.806   3.203
 8963TIP3    H226854   1.752   3.848   3.174
 8964TIP3   OH226855   5.989   0.929   0.028
 8964TIP3    H126856   5.998   0.843  -0.012
 8964TIP3    H226857   6.046   0.986  -0.023
 8965TIP3   OH226858   1.102   6.174   1.568
 8965TIP3    H126859   1.034   6.183   1.635
 8965TIP3    H226860   1.162   6.109   1.603
 8966TIP3   OH226861   3.187   5.546   4.104
 8966TIP3    H126862   3.158   5.538   4.013
 8966TIP3    H226863   3.254   5.615   4.102
 8967TIP3   OH226864   0.956   4.858   4.708
 8967TIP3    H126865   0.888   4.906   4.754
 8967TIP3    H226866   1.020   4.924   4.684
 8968TIP3   OH226867   2.854   5.258   1.827
 8968TIP3    H126868   2.802   5.309   1.764
 8968TIP3    H226869   2.815   5.278   1.912
 8969TIP3   OH226870   2.287   0.590   2.263
 8969TIP3    H126871   2.373   0.600   2.222
 8969TIP3    H226872   2.254   0.507   2.229
 8970TIP3   OH226873   1.447   1.380   3.848
 8970TIP3    H126874   1.381   1.430   3.896
 8970TIP3    H226875   1.400   1.346   3.772
 8971TIP3   OH226876   5.648   3.249   2.355
 8971TIP3    H126877   5.643   3.208   2.441
 8971TIP3    H226878   5.678   3.338   2.373
 8972TIP3   OH226879   4.756   3.251   3.916
 8972TIP3    H126880   4.785   3.335   3.879
 8972TIP3    H226881   4.766   3.189   3.844
 8973TIP3   OH226882   4.630   0.744   3.700
 8973TIP3    H126883   4.572   0.678   3.737
 8973TIP3    H226884   4.652   0.711   3.613
 8974TIP3   OH226885   5.597   6.769   0.927
 8974TIP3    H126886   5.687   6.764   0.895
 8974TIP3    H226887   5.606   6.804   1.016
 8975TIP3   OH226888   2.974   3.603   1.952
 8975TIP3    H126889   2.929   3.583   2.035
 8975TIP3    H226890   2.980   3.518   1.908
 8976TIP3   OH226891   6.168   4.779   5.608
 8976TIP3    H126892   6.212   4.703   5.570
 8976TIP3    H226893   6.183   4.849   5.545
 8977TIP3   OH226894   2.823   0.911   3.955
 8977TIP3    H126895   2.902   0.965   3.951
 8977TIP3    H226896   2.822   0.863   3.872
 8978TIP3   OH226897   5.588   1.250   5.504
 8978TIP3    H126898   5.570   1.250   5.598
 8978TIP3    H226899   5.521   1.307   5.467
 8979TIP3   OH226900   4.220   4.361   1.133
 8979TIP3    H126901   4.296   4.317   1.171
 8979TIP3    H226902   4.211   4.441   1.184
 8980TIP3   OH226903   3.246   2.772   1.709
 8980TIP3    H126904   3.309   2.816   1.651
 8980TIP3    H226905   3.189   2.723   1.649
 8981TIP3   OH226906   2.037   0.522   5.435
 8981TIP3    H126907   2.092   0.588   5.392
 8981TIP3    H226908   2.023   0.556   5.523
 8982TIP3   OH226909   1.604   1.091   0.786
 8982TIP3    H126910   1.527   1.094   0.843
 8982TIP3    H226911   1.583   1.150   0.714
 8983TIP3   OH226912   2.049   4.609   4.043
 8983TIP3    H126913   2.019   4.521   4.065
 8983TIP3    H226914   1.980   4.667   4.075
 8984TIP3   OH226915   4.562   0.980   1.553
 8984TIP3    H126916   4.487   0.980   1.494
 8984TIP3    H226917   4.610   0.900   1.531
 8985TIP3   OH226918   2.175   2.815   1.240
 8985TIP3    H126919   2.085   2.784   1.236
 8985TIP3    H226920   2.172   2.889   1.301
 8986TIP3   OH226921   5.612   4.140   1.594
 8986TIP3    H126922   5.527   4.127   1.636
 8986TIP3    H226923   5.603   4.223   1.548
 8987TIP3   OH226924   4.644   6.594   5.150
 8987TIP3    H126925   4.583   6.601   5.224
 8987TIP3    H226926   4.704   6.524   5.176
 8988TIP3   OH226927   1.367   6.768   0.029
 8988TIP3    H126928   1.412   6.828  -0.030
 8988TIP3    H226929   1.385   6.803   0.116
 8989TIP3   OH226930   0.721   2.749   3.358
 8989TIP3    H126931   0.676   2.831   3.379
 8989TIP3    H226932   0.691   2.687   3.424
 8990TIP3   OH226933   2.587   1.450   3.962
 8990TIP3    H126934   2.564   1.366   3.923
 8990TIP3    H226935   2.574   1.513   3.891
 8991TIP3   OH226936   3.493   1.958   5.536
 8991TIP3    H126937   3.506   1.893   5.605
 8991TIP3    H226938   3.565   2.020   5.548
 8992TIP3   OH226939   5.573   3.278   3.349
 8992TIP3    H126940   5.574   3.291   3.254
 8992TIP3    H226941   5.657   3.314   3.378
 8993TIP3   OH226942   0.070   1.004   2.494
 8993TIP3    H126943  -0.019   0.997   2.528
 8993TIP3    H226944   0.124   0.955   2.557
 8994TIP3   OH226945   2.420   0.412   4.226
 8994TIP3    H126946   2.402   0.326   4.188
 8994TIP3    H226947   2.496   0.399   4.283
 8995TIP3   OH226948   4.325   3.089   4.844
 8995TIP3    H126949   4.248   3.116   4.893
 8995TIP3    H226950   4.316   2.994   4.835
 8996TIP3   OH226951   0.351   2.220   1.383
 8996TIP3    H126952   0.400   2.300   1.362
 8996TIP3    H226953   0.384   2.155   1.321
 8997TIP3   OH226954   1.426   5.995   0.202
 8997TIP3    H126955   1.371   6.029   0.272
 8997TIP3    H226956   1.366   5.945   0.146
 8998TIP3   OH226957   0.463   3.952   1.958
 8998TIP3    H126958   0.418   3.914   1.883
 8998TIP3    H226959   0.534   3.892   1.977
 8999TIP3   OH226960   5.023   6.343   4.821
 8999TIP3    H126961   5.046   6.324   4.912
 8999TIP3    H226962   5.085   6.293   4.769
 9000TIP3   OH226963   7.081   4.799   2.055
 9000TIP3    H126964   6.986   4.792   2.048
 9000TIP3    H226965   7.097   4.891   2.074
 9001TIP3   OH226966   2.808   4.353   4.135
 9001TIP3    H126967   2.853   4.408   4.199
 9001TIP3    H226968   2.879   4.303   4.093
 9002TIP3   OH226969   0.832   3.023   3.250
 9002TIP3    H126970   0.836   3.112   3.286
 9002TIP3    H226971   0.753   2.985   3.288
 9003TIP3   OH226972   6.653   1.853   3.140
 9003TIP3    H126973   6.571   1.815   3.171
 9003TIP3    H226974   6.694   1.890   3.218
 9004TIP3   OH226975   1.278   6.175   2.211
 9004TIP3    H126976   1.305   6.131   2.292
 9004TIP3    H226977   1.288   6.109   2.143
 9005TIP3   OH226978   6.269   6.236   2.860
 9005TIP3    H126979   6.245   6.194   2.943
 9005TIP3    H226980   6.195   6.219   2.802
 9006TIP3   OH226981   2.994   1.273   0.054
 9006TIP3    H126982   3.035   1.228  -0.020
 9006TIP3    H226983   3.036   1.359   0.057
 9007TIP3   OH226984   7.209   6.377   1.262
 9007TIP3    H126985   7.264   6.451   1.239
 9007TIP3    H226986   7.202   6.326   1.181
 9008TIP3   OH226987   6.465   5.401   1.409
 9008TIP3    H126988   6.477   5.314   1.447
 9008TIP3    H226989   6.392   5.439   1.459
 9009TIP3   OH226990   0.723   2.573   1.217
 9009TIP3    H126991   0.735   2.632   1.292
 9009TIP3    H226992   0.812   2.561   1.183
 9010TIP3   OH226993   2.051   5.463   3.791
 9010TIP3    H126994   2.070   5.401   3.722
 9010TIP3    H226995   2.117   5.447   3.858
 9011TIP3   OH226996   7.110   3.245   1.698
 9011TIP3    H126997   7.093   3.164   1.747
 9011TIP3    H226998   7.198   3.271   1.724
 9012TIP3   OH226999   6.240   4.347   5.766
 9012TIP3    H127000   6.237   4.431   5.721
 9012TIP3    H227001   6.297   4.292   5.712
 9013TIP3   OH227002   0.498   2.878   4.990
 9013TIP3    H127003   0.488   2.831   5.072
 9013TIP3    H227004   0.424   2.939   4.988
 9014TIP3   OH227005   3.504   3.142   5.848
 9014TIP3    H127006   3.497   3.211   5.783
 9014TIP3    H227007   3.445   3.074   5.817
 9015TIP3   OH227008   3.753   3.021   2.398
 9015TIP3    H127009   3.723   3.058   2.481
 9015TIP3    H227010   3.676   2.976   2.363
 9016TIP3   OH227011   6.269   1.931   0.416
 9016TIP3    H127012   6.174   1.942   0.409
 9016TIP3    H227013   6.295   1.896   0.330
 9017TIP3   OH227014   5.120   1.149   3.742
 9017TIP3    H127015   5.162   1.200   3.673
 9017TIP3    H227016   5.183   1.152   3.815
 9018TIP3   OH227017   4.638   3.991   5.246
 9018TIP3    H127018   4.601   3.969   5.332
 9018TIP3    H227019   4.716   3.936   5.239
 9019TIP3   OH227020   3.604   0.354   2.941
 9019TIP3    H127021   3.609   0.419   3.011
 9019TIP3    H227022   3.621   0.270   2.985
 9020TIP3   OH227023   0.079   1.789   2.229
 9020TIP3    H127024   0.063   1.866   2.175
 9020TIP3    H227025   0.131   1.731   2.174
 9021TIP3   OH227026   6.910   3.191   3.375
 9021TIP3    H127027   6.984   3.129   3.379
 9021TIP3    H227028   6.833   3.138   3.395
 9022TIP3   OH227029   2.156   6.303   2.904
 9022TIP3    H127030   2.113   6.246   2.968
 9022TIP3    H227031   2.236   6.333   2.947
 9023TIP3   OH227032   2.637   5.779   3.573
 9023TIP3    H127033   2.587   5.762   3.493
 9023TIP3    H227034   2.613   5.868   3.598
 9024TIP3   OH227035   6.181   1.048   0.238
 9024TIP3    H127036   6.220   0.970   0.277
 9024TIP3    H227037   6.124   1.015   0.169
 9025TIP3   OH227038   1.273   3.557   2.670
 9025TIP3    H127039   1.300   3.642   2.637
 9025TIP3    H227040   1.310   3.494   2.609
 9026TIP3   OH227041   4.451   0.733   0.004
 9026TIP3    H127042   4.415   0.818   0.030
 9026TIP3    H227043   4.509   0.708   0.075
 9027TIP3   OH227044   3.553   4.065   4.843
 9027TIP3    H127045   3.497   4.053   4.767
 9027TIP3    H227046   3.493   4.095   4.912
 9028TIP3   OH227047   0.760   2.107   3.879
 9028TIP3    H127048   0.747   2.202   3.881
 9028TIP3    H227049   0.837   2.095   3.823
 9029TIP3   OH227050   0.147   1.850   5.142
 9029TIP3    H127051   0.095   1.785   5.094
 9029TIP3    H227052   0.124   1.837   5.234
 9030TIP3   OH227053   6.044   3.719   3.853
 9030TIP3    H127054   6.124   3.754   3.890
 9030TIP3    H227055   6.039   3.629   3.886
 9031TIP3   OH227056   1.971   5.701   1.334
 9031TIP3    H127057   1.890   5.739   1.368
 9031TIP3    H227058   1.972   5.724   1.242
 9032TIP3   OH227059   7.135   4.406   2.516
 9032TIP3    H127060   7.180   4.485   2.545
 9032TIP3    H227061   7.197   4.335   2.532
 9033TIP3   OH227062   2.701   5.332   2.044
 9033TIP3    H127063   2.711   5.271   2.117
 9033TIP3    H227064   2.719   5.418   2.082
 9034TIP3   OH227065   2.333   0.591   0.101
 9034TIP3    H127066   2.425   0.607   0.080
 9034TIP3    H227067   2.311   0.510   0.055
 9035TIP3   OH227068   3.533   2.668   0.182
 9035TIP3    H127069   3.545   2.719   0.102
 9035TIP3    H227070   3.485   2.726   0.240
 9036TIP3   OH227071   5.646   4.876   5.656
 9036TIP3    H127072   5.736   4.908   5.660
 9036TIP3    H227073   5.654   4.782   5.642
 9037TIP3   OH227074   2.467   6.617   3.330
 9037TIP3    H127075   2.374   6.594   3.324
 9037TIP3    H227076   2.485   6.664   3.248
 9038TIP3   OH227077   0.270   6.380   4.073
 9038TIP3    H127078   0.346   6.386   4.131
 9038TIP3    H227079   0.301   6.329   3.999
 9039TIP3   OH227080   6.495   2.788   1.530
 9039TIP3    H127081   6.403   2.790   1.502
 9039TIP3    H227082   6.501   2.856   1.597
 9040TIP3   OH227083   1.717   2.333   2.182
 9040TIP3    H127084   1.680   2.244   2.183
 9040TIP3    H227085   1.771   2.337   2.261
 9041TIP3   OH227086   3.299   2.988   0.940
 9041TIP3    H127087   3.338   2.935   0.871
 9041TIP3    H227088   3.296   2.930   1.017
 9042TIP3   OH227089   2.139   3.301   1.536
 9042TIP3    H127090   2.165   3.244   1.464
 9042TIP3    H227091   2.200   3.375   1.532
 9043TIP3   OH227092   0.120   6.193   3.481
 9043TIP3    H127093   0.176   6.258   3.524
 9043TIP3    H227094   0.073   6.243   3.414
 9044TIP3   OH227095   5.784   2.458   0.949
 9044TIP3    H127096   5.737   2.451   0.866
 9044TIP3    H227097   5.767   2.376   0.994
 9045TIP3   OH227098   3.502   4.837   0.485
 9045TIP3    H127099   3.524   4.910   0.542
 9045TIP3    H227100   3.574   4.775   0.497
 9046TIP3   OH227101   6.282   6.193   1.689
 9046TIP3    H127102   6.373   6.175   1.661
 9046TIP3    H227103   6.282   6.175   1.783
 9047TIP3   OH227104   0.629   1.679   5.727
 9047TIP3    H127105   0.545   1.647   5.694
 9047TIP3    H227106   0.659   1.742   5.660
 9048TIP3   OH227107   7.120   4.901   5.602
 9048TIP3    H127108   7.041   4.855   5.575
 9048TIP3    H227109   7.126   4.887   5.696
 9049TIP3   OH227110   3.023   2.350   5.352
 9049TIP3    H127111   2.996   2.260   5.332
 9049TIP3    H227112   3.093   2.339   5.417
 9050TIP3   OH227113   2.534   5.750   3.310
 9050TIP3    H127114   2.510   5.843   3.303
 9050TIP3    H227115   2.616   5.743   3.261
 9051TIP3   OH227116   0.710   4.767   3.015
 9051TIP3    H127117   0.713   4.787   2.921
 9051TIP3    H227118   0.624   4.726   3.028
 9052TIP3   OH227119   0.549   3.890   4.443
 9052TIP3    H127120   0.630   3.861   4.484
 9052TIP3    H227121   0.494   3.918   4.516
 9053TIP3   OH227122   6.220   5.460   3.216
 9053TIP3    H127123   6.254   5.481   3.304
 9053TIP3    H227124   6.126   5.473   3.223
 9054TIP3   OH227125   6.702   0.962   4.943
 9054TIP3    H127126   6.788   0.977   4.981
 9054TIP3    H227127   6.676   0.876   4.976
 9055TIP3   OH227128   2.077   1.652   0.269
 9055TIP3    H127129   2.172   1.661   0.276
 9055TIP3    H227130   2.045   1.663   0.359
 9056TIP3   OH227131   5.491   2.788   0.073
 9056TIP3    H127132   5.462   2.748   0.155
 9056TIP3    H227133   5.430   2.754   0.007
 9057TIP3   OH227134   2.688   5.789   2.381
 9057TIP3    H127135   2.730   5.874   2.369
 9057TIP3    H227136   2.619   5.805   2.446
 9058TIP3   OH227137   2.439   0.364   1.817
 9058TIP3    H127138   2.462   0.407   1.899
 9058TIP3    H227139   2.353   0.400   1.793
 9059TIP3   OH227140   5.195   2.235   2.458
 9059TIP3    H127141   5.198   2.305   2.523
 9059TIP3    H227142   5.158   2.160   2.505
 9060TIP3   OH227143   4.869   5.884   2.903
 9060TIP3    H127144   4.813   5.807   2.891
 9060TIP3    H227145   4.840   5.944   2.835
 9061TIP3   OH227146   4.010   4.388   5.475
 9061TIP3    H127147   3.952   4.396   5.551
 9061TIP3    H227148   4.093   4.424   5.503
 9062TIP3   OH227149   5.916   1.178   3.972
 9062TIP3    H127150   5.998   1.130   3.974
 9062TIP3    H227151   5.856   1.126   4.025
 9063TIP3   OH227152   4.163   1.097   3.352
 9063TIP3    H127153   4.176   1.191   3.348
 9063TIP3    H227154   4.230   1.066   3.413
 9064TIP3   OH227155   4.764   0.893   5.332
 9064TIP3    H127156   4.775   0.800   5.350
 9064TIP3    H227157   4.694   0.921   5.391
 9065TIP3   OH227158   4.090   2.714   1.186
 9065TIP3    H127159   4.131   2.666   1.114
 9065TIP3    H227160   4.159   2.725   1.251
 9066TIP3   OH227161   5.855   6.570   0.720
 9066TIP3    H127162   5.891   6.551   0.807
 9066TIP3    H227163   5.900   6.509   0.662
 9067TIP3   OH227164   0.708   5.741   4.452
 9067TIP3    H127165   0.757   5.787   4.384
 9067TIP3    H227166   0.774   5.704   4.510
 9068TIP3   OH227167   3.622   0.585   1.233
 9068TIP3    H127168   3.690   0.596   1.167
 9068TIP3    H227169   3.644   0.503   1.277
 9069TIP3   OH227170   0.919   1.626   1.473
 9069TIP3    H127171   0.911   1.684   1.398
 9069TIP3    H227172   0.871   1.669   1.543
 9070TIP3   OH227173   6.164   3.762   2.134
 9070TIP3    H127174   6.111   3.682   2.143
 9070TIP3    H227175   6.244   3.743   2.182
 9071TIP3   OH227176   2.708   3.760   0.982
 9071TIP3    H127177   2.735   3.770   0.891
 9071TIP3    H227178   2.669   3.673   0.986
 9072TIP3   OH227179   4.407   2.196   1.989
 9072TIP3    H127180   4.366   2.189   1.903
 9072TIP3    H227181   4.337   2.175   2.050
 9073TIP3   OH227182   3.614   3.576   3.427
 9073TIP3    H127183   3.536   3.539   3.384
 9073TIP3    H227184   3.614   3.668   3.401
 9074TIP3   OH227185   0.733   4.719   3.832
 9074TIP3    H127186   0.721   4.708   3.738
 9074TIP3    H227187   0.745   4.813   3.844
 9075TIP3   OH227188   4.054   6.545   4.126
 9075TIP3    H127189   4.073   6.542   4.220
 9075TIP3    H227190   3.983   6.483   4.114
 9076TIP3   OH227191   5.527   3.579   5.834
 9076TIP3    H127192   5.536   3.549   5.925
 9076TIP3    H227193   5.555   3.670   5.836
 9077TIP3   OH227194   4.901   6.324   2.285
 9077TIP3    H127195   4.963   6.264   2.327
 9077TIP3    H227196   4.954   6.373   2.222
 9078TIP3   OH227197   4.439   1.978   4.860
 9078TIP3    H127198   4.433   2.065   4.820
 9078TIP3    H227199   4.533   1.958   4.859
 9079TIP3   OH227200   5.984   6.762   3.390
 9079TIP3    H127201   6.036   6.683   3.403
 9079TIP3    H227202   5.984   6.776   3.295
 9080TIP3   OH227203   6.121   2.477   0.024
 9080TIP3    H127204   6.187   2.410   0.008
 9080TIP3    H227205   6.066   2.440   0.093
 9081TIP3   OH227206   5.144   4.023   3.375
 9081TIP3    H127207   5.090   4.031   3.453
 9081TIP3    H227208   5.192   3.941   3.387
 9082TIP3   OH227209   6.522   2.717   2.019
 9082TIP3    H127210   6.437   2.716   1.976
 9082TIP3    H227211   6.555   2.806   2.006
 9083TIP3   OH227212   0.893   2.462   4.362
 9083TIP3    H127213   0.942   2.535   4.326
 9083TIP3    H227214   0.961   2.403   4.397
 9084TIP3   OH227215   5.329   1.363   0.742
 9084TIP3    H127216   5.402   1.334   0.686
 9084TIP3    H227217   5.365   1.365   0.830
 9085TIP3   OH227218   5.521   0.197   2.755
 9085TIP3    H127219   5.496   0.285   2.781
 9085TIP3    H227220   5.590   0.209   2.690
 9086TIP3   OH227221   6.490   4.273   1.553
 9086TIP3    H127222   6.461   4.193   1.596
 9086TIP3    H227223   6.410   4.314   1.521
 9087TIP3   OH227224   3.146   5.573   5.611
 9087TIP3    H127225   3.171   5.481   5.609
 9087TIP3    H227226   3.124   5.594   5.521
 9088TIP3   OH227227   5.703   3.659   0.536
 9088TIP3    H127228   5.780   3.714   0.549
 9088TIP3    H227229   5.657   3.662   0.621
 9089TIP3   OH227230   0.588   1.158   1.929
 9089TIP3    H127231   0.680   1.141   1.950
 9089TIP3    H227232   0.578   1.132   1.838
 9090TIP3   OH227233   5.116   2.727   3.936
 9090TIP3    H127234   5.155   2.732   4.023
 9090TIP3    H227235   5.040   2.669   3.946
 9091TIP3   OH227236   2.666   2.068   0.622
 9091TIP3    H127237   2.679   2.042   0.531
 9091TIP3    H227238   2.753   2.057   0.662
 9092TIP3   OH227239   1.978   5.847   1.967
 9092TIP3    H127240   1.919   5.879   2.035
 9092TIP3    H227241   1.944   5.884   1.886
 9093TIP3   OH227242   4.843   5.772   1.350
 9093TIP3    H127243   4.856   5.861   1.382
 9093TIP3    H227244   4.811   5.724   1.426
 9094TIP3   OH227245   2.964   4.875   0.053
 9094TIP3    H127246   2.993   4.921  -0.026
 9094TIP3    H227247   2.992   4.785   0.040
 9095TIP3   OH227248   4.309   1.725   4.843
 9095TIP3    H127249   4.258   1.743   4.922
 9095TIP3    H227250   4.359   1.806   4.828
 9096TIP3   OH227251   3.430   0.557   5.652
 9096TIP3    H127252   3.375   0.565   5.575
 9096TIP3    H227253   3.511   0.518   5.620
 9097TIP3   OH227254   4.250   2.642   0.993
 9097TIP3    H127255   4.276   2.672   0.905
 9097TIP3    H227256   4.244   2.547   0.984
 9098TIP3   OH227257   2.724   3.063   5.579
 9098TIP3    H127258   2.755   3.052   5.489
 9098TIP3    H227259   2.636   3.027   5.579
 9099TIP3   OH227260   6.790   5.419   1.924
 9099TIP3    H127261   6.861   5.402   1.985
 9099TIP3    H227262   6.807   5.359   1.850
 9100TIP3   OH227263   1.150   3.121   4.763
 9100TIP3    H127264   1.194   3.203   4.786
 9100TIP3    H227265   1.059   3.135   4.789
 9101TIP3   OH227266   2.582   2.369   2.369
 9101TIP3    H127267   2.599   2.283   2.408
 9101TIP3    H227268   2.668   2.401   2.343
 9102TIP3   OH227269   6.952   2.410   3.983
 9102TIP3    H127270   7.042   2.439   3.998
 9102TIP3    H227271   6.934   2.348   4.054
 9103TIP3   OH227272   6.662   6.818   2.049
 9103TIP3    H127273   6.736   6.757   2.047
 9103TIP3    H227274   6.674   6.868   2.130
 9104TIP3   OH227275   5.379   3.655   1.835
 9104TIP3    H127276   5.430   3.585   1.875
 9104TIP3    H227277   5.298   3.658   1.886
 9105TIP3   OH227278   4.603   5.351   5.700
 9105TIP3    H127279   4.631   5.443   5.705
 9105TIP3    H227280   4.674   5.302   5.741
 9106TIP3   OH227281   5.598   1.540   3.284
 9106TIP3    H127282   5.572   1.522   3.193
 9106TIP3    H227283   5.641   1.625   3.279
 9107TIP3   OH227284   3.665   3.624   4.650
 9107TIP3    H127285   3.687   3.534   4.626
 9107TIP3    H227286   3.595   3.649   4.589
 9108TIP3   OH227287   5.346   5.986   1.893
 9108TIP3    H127288   5.278   6.036   1.848
 9108TIP3    H227289   5.328   5.999   1.986
 9109TIP3   OH227290   4.356   4.234   3.615
 9109TIP3    H127291   4.429   4.200   3.668
 9109TIP3    H227292   4.280   4.226   3.672
 9110TIP3   OH227293   3.893   3.395   0.093
 9110TIP3    H127294   3.807   3.433   0.080
 9110TIP3    H227295   3.929   3.386   0.005
 9111TIP3   OH227296   1.678   6.639   0.634
 9111TIP3    H127297   1.699   6.559   0.683
 9111TIP3    H227298   1.756   6.694   0.644
 9112TIP3   OH227299   5.003   5.289   5.700
 9112TIP3    H127300   4.941   5.224   5.667
 9112TIP3    H227301   5.070   5.295   5.631
 9113TIP3   OH227302   1.750   3.885   0.791
 9113TIP3    H127303   1.846   3.888   0.796
 9113TIP3    H227304   1.731   3.898   0.698
 9114TIP3   OH227305   3.080   3.673   5.764
 9114TIP3    H127306   3.078   3.589   5.810
 9114TIP3    H227307   3.015   3.664   5.694
 9115TIP3   OH227308   4.334   2.754   4.627
 9115TIP3    H127309   4.276   2.822   4.595
 9115TIP3    H227310   4.308   2.740   4.718
 9116TIP3   OH227311   2.276   6.180   2.662
 9116TIP3    H127312   2.358   6.225   2.643
 9116TIP3    H227313   2.244   6.221   2.742
 9117TIP3   OH227314   3.711   5.088   3.339
 9117TIP3    H127315   3.695   4.996   3.320
 9117TIP3    H227316   3.699   5.096   3.434
 9118TIP3   OH227317   4.983   2.326   5.408
 9118TIP3    H127318   4.925   2.318   5.332
 9118TIP3    H227319   4.992   2.237   5.441
 9119TIP3   OH227320   2.706   2.374   3.327
 9119TIP3    H127321   2.744   2.417   3.404
 9119TIP3    H227322   2.648   2.439   3.289
 9120TIP3   OH227323   7.229   1.019   1.481
 9120TIP3    H127324   7.215   1.070   1.401
 9120TIP3    H227325   7.141   1.003   1.514
 9121TIP3   OH227326   2.104   3.008   1.433
 9121TIP3    H127327   2.031   3.003   1.495
 9121TIP3    H227328   2.181   2.981   1.484
 9122TIP3   OH227329   1.929   1.867   0.196
 9122TIP3    H127330   1.990   1.797   0.219
 9122TIP3    H227331   1.865   1.868   0.267
 9123TIP3   OH227332   5.500   2.184   2.156
 9123TIP3    H127333   5.490   2.270   2.197
 9123TIP3    H227334   5.572   2.196   2.093
 9124TIP3   OH227335   2.574   3.849   4.928
 9124TIP3    H127336   2.644   3.830   4.866
 9124TIP3    H227337   2.603   3.927   4.974
 9125TIP3   OH227338   6.710   5.535   3.356
 9125TIP3    H127339   6.759   5.505   3.433
 9125TIP3    H227340   6.773   5.530   3.284
 9126TIP3   OH227341   3.808   5.500   1.779
 9126TIP3    H127342   3.798   5.425   1.838
 9126TIP3    H227343   3.878   5.474   1.719
 9127TIP3   OH227344   7.097   1.262   2.271
 9127TIP3    H127345   7.020   1.215   2.240
 9127TIP3    H227346   7.127   1.311   2.195
 9128TIP3   OH227347   2.244   3.249   1.225
 9128TIP3    H127348   2.297   3.176   1.256
 9128TIP3    H227349   2.264   3.255   1.132
 9129TIP3   OH227350   0.075   3.428   0.368
 9129TIP3    H127351   0.116   3.514   0.365
 9129TIP3    H227352   0.019   3.430   0.445
 9130TIP3   OH227353   0.629   4.325   5.403
 9130TIP3    H127354   0.557   4.283   5.450
 9130TIP3    H227355   0.599   4.333   5.313
 9131TIP3   OH227356   2.844   2.418   5.677
 9131TIP3    H127357   2.814   2.430   5.587
 9131TIP3    H227358   2.913   2.483   5.689
 9132TIP3   OH227359   1.535   0.118   2.928
 9132TIP3    H127360   1.558   0.186   2.864
 9132TIP3    H227361   1.499   0.167   3.002
 9133TIP3   OH227362   6.655   2.478   3.811
 9133TIP3    H127363   6.667   2.472   3.906
 9133TIP3    H227364   6.564   2.506   3.801
 9134TIP3   OH227365   0.445   0.179   0.470
 9134TIP3    H127366   0.514   0.162   0.534
 9134TIP3    H227367   0.366   0.196   0.522
 9135TIP3   OH227368   0.709   6.310   4.347
 9135TIP3    H127369   0.699   6.344   4.436
 9135TIP3    H227370   0.792   6.348   4.316
 9136TIP3   OH227371   5.436   2.588   3.448
 9136TIP3    H127372   5.386   2.613   3.526
 9136TIP3    H227373   5.442   2.668   3.396
 9137TIP3   OH227374   4.399   5.311   5.510
 9137TIP3    H127375   4.467   5.334   5.573
 9137TIP3    H227376   4.353   5.237   5.551
 9138TIP3   OH227377   5.647   2.125   3.562
 9138TIP3    H127378   5.726   2.091   3.602
 9138TIP3    H227379   5.590   2.049   3.552
 9139TIP3   OH227380   2.991   4.403   0.709
 9139TIP3    H127381   2.943   4.327   0.678
 9139TIP3    H227382   3.083   4.380   0.696
 9140TIP3   OH227383   5.746   1.698   1.649
 9140TIP3    H127384   5.753   1.715   1.555
 9140TIP3    H227385   5.710   1.609   1.654
 9141TIP3   OH227386   4.865   2.803   3.098
 9141TIP3    H127387   4.957   2.778   3.095
 9141TIP3    H227388   4.818   2.726   3.065
 9142TIP3   OH227389   3.000   1.892   3.617
 9142TIP3    H127390   3.042   1.930   3.539
 9142TIP3    H227391   2.906   1.894   3.596
 9143TIP3   OH227392   5.329   3.055   4.425
 9143TIP3    H127393   5.293   3.144   4.425
 9143TIP3    H227394   5.344   3.036   4.517
 9144TIP3   OH227395   4.186   3.343   3.944
 9144TIP3    H127396   4.259   3.293   3.907
 9144TIP3    H227397   4.142   3.282   4.002
 9145TIP3   OH227398   0.536   6.333   1.372
 9145TIP3    H127399   0.453   6.324   1.419
 9145TIP3    H227400   0.549   6.427   1.362
 9146TIP3   OH227401   3.237   4.794   2.442
 9146TIP3    H127402   3.201   4.882   2.427
 9146TIP3    H227403   3.302   4.807   2.511
 9147TIP3   OH227404   6.755   1.965   0.032
 9147TIP3    H127405   6.824   1.996  -0.026
 9147TIP3    H227406   6.682   1.944  -0.027
 9148TIP3   OH227407   1.197   5.382   2.138
 9148TIP3    H127408   1.168   5.309   2.193
 9148TIP3    H227409   1.147   5.371   2.057
 9149TIP3   OH227410   0.787   4.670   1.489
 9149TIP3    H127411   0.779   4.762   1.465
 9149TIP3    H227412   0.870   4.665   1.537
 9150TIP3   OH227413   5.083   5.260   4.761
 9150TIP3    H127414   5.131   5.314   4.824
 9150TIP3    H227415   5.026   5.205   4.815
 9151TIP3   OH227416   0.477   6.655   5.401
 9151TIP3    H127417   0.409   6.719   5.417
 9151TIP3    H227418   0.520   6.644   5.486
 9152TIP3   OH227419   3.109   6.015   1.869
 9152TIP3    H127420   3.071   5.973   1.792
 9152TIP3    H227421   3.142   5.942   1.922
 9153TIP3   OH227422   7.276   4.331   3.253
 9153TIP3    H127423   7.194   4.288   3.274
 9153TIP3    H227424   7.315   4.352   3.337
 9154TIP3   OH227425   0.374   5.062   2.849
 9154TIP3    H127426   0.450   5.119   2.861
 9154TIP3    H227427   0.315   5.087   2.920
 9155TIP3   OH227428   5.979   3.191   3.320
 9155TIP3    H127429   5.931   3.121   3.364
 9155TIP3    H227430   5.936   3.271   3.349
 9156TIP3   OH227431   6.817   3.536   0.872
 9156TIP3    H127432   6.902   3.495   0.857
 9156TIP3    H227433   6.822   3.571   0.961
 9157TIP3   OH227434   1.178   6.508   5.795
 9157TIP3    H127435   1.256   6.488   5.742
 9157TIP3    H227436   1.210   6.569   5.862
 9158TIP3   OH227437   1.024   3.813   2.410
 9158TIP3    H127438   1.023   3.723   2.441
 9158TIP3    H227439   1.003   3.866   2.487
 9159TIP3   OH227440   3.098   5.661   5.373
 9159TIP3    H127441   3.106   5.747   5.332
 9159TIP3    H227442   3.004   5.651   5.388
 9160TIP3   OH227443   6.132   1.703   5.007
 9160TIP3    H127444   6.198   1.770   4.990
 9160TIP3    H227445   6.104   1.719   5.097
 9161TIP3   OH227446   4.274   4.912   2.555
 9161TIP3    H127447   4.222   4.896   2.476
 9161TIP3    H227448   4.265   5.006   2.571
 9162TIP3   OH227449   0.388   3.097   3.248
 9162TIP3    H127450   0.336   3.018   3.233
 9162TIP3    H227451   0.455   3.069   3.311
 9163TIP3   OH227452   0.648   6.684   3.151
 9163TIP3    H127453   0.713   6.692   3.081
 9163TIP3    H227454   0.572   6.732   3.118
 9164TIP3   OH227455   2.456   2.052   2.366
 9164TIP3    H127456   2.426   1.961   2.364
 9164TIP3    H227457   2.426   2.089   2.283
 9165TIP3   OH227458   4.719   0.500   1.544
 9165TIP3    H127459   4.720   0.451   1.462
 9165TIP3    H227460   4.781   0.454   1.600
 9166TIP3   OH227461   4.268   0.298   5.251
 9166TIP3    H127462   4.307   0.263   5.330
 9166TIP3    H227463   4.275   0.393   5.260
 9167TIP3   OH227464   3.551   1.088   5.420
 9167TIP3    H127465   3.514   1.000   5.413
 9167TIP3    H227466   3.640   1.074   5.451
 9168TIP3   OH227467   2.746   1.187   0.701
 9168TIP3    H127468   2.689   1.116   0.732
 9168TIP3    H227469   2.813   1.143   0.650
 9169TIP3   OH227470   3.222   5.302   5.565
 9169TIP3    H127471   3.308   5.334   5.593
 9169TIP3    H227472   3.226   5.207   5.575
 9170TIP3   OH227473   2.843   6.388   0.179
 9170TIP3    H127474   2.927   6.430   0.159
 9170TIP3    H227475   2.785   6.460   0.203
 9171TIP3   OH227476   1.459   1.219   5.093
 9171TIP3    H127477   1.497   1.226   5.006
 9171TIP3    H227478   1.517   1.271   5.149
 9172TIP3   OH227479   1.078   4.652   2.587
 9172TIP3    H127480   1.083   4.726   2.648
 9172TIP3    H227481   1.076   4.575   2.645
 9173TIP3   OH227482   6.426   1.288   3.610
 9173TIP3    H127483   6.433   1.358   3.674
 9173TIP3    H227484   6.516   1.263   3.591
 9174TIP3   OH227485   3.763   0.169   4.781
 9174TIP3    H127486   3.751   0.192   4.689
 9174TIP3    H227487   3.678   0.134   4.808
 9175TIP3   OH227488   7.040   2.133   3.598
 9175TIP3    H127489   6.993   2.215   3.612
 9175TIP3    H227490   6.999   2.071   3.657
 9176TIP3   OH227491   5.272   2.153   1.676
 9176TIP3    H127492   5.332   2.145   1.750
 9176TIP3    H227493   5.241   2.244   1.680
 9177TIP3   OH227494   2.298   0.667   2.537
 9177TIP3    H127495   2.205   0.687   2.526
 9177TIP3    H227496   2.325   0.629   2.453
 9178TIP3   OH227497   6.241   6.627   1.762
 9178TIP3    H127498   6.331   6.642   1.790
 9178TIP3    H227499   6.246   6.619   1.667
 9179TIP3   OH227500   0.475   3.064   0.472
 9179TIP3    H127501   0.506   3.030   0.389
 9179TIP3    H227502   0.480   3.159   0.463
 9180TIP3   OH227503   4.356   3.334   5.790
 9180TIP3    H127504   4.272   3.292   5.809
 9180TIP3    H227505   4.353   3.416   5.838
 9181TIP3   OH227506   2.803   1.001   2.754
 9181TIP3    H127507   2.783   0.993   2.661
 9181TIP3    H227508   2.751   1.076   2.783
 9182TIP3   OH227509   3.849   0.669   2.500
 9182TIP3    H127510   3.931   0.688   2.546
 9182TIP3    H227511   3.845   0.735   2.430
 9183TIP3   OH227512   1.757   1.847   4.876
 9183TIP3    H127513   1.701   1.865   4.951
 9183TIP3    H227514   1.826   1.790   4.910
 9184TIP3   OH227515   2.101   5.104   2.254
 9184TIP3    H127516   2.072   5.154   2.177
 9184TIP3    H227517   2.112   5.171   2.322
 9185TIP3   OH227518   4.530   4.244   2.982
 9185TIP3    H127519   4.585   4.314   3.017
 9185TIP3    H227520   4.581   4.164   2.994
 9186TIP3   OH227521   1.337   1.623   0.134
 9186TIP3    H127522   1.336   1.530   0.153
 9186TIP3    H227523   1.249   1.653   0.157
 9187TIP3   OH227524   4.950   3.045   0.564
 9187TIP3    H127525   4.875   3.103   0.576
 9187TIP3    H227526   4.948   3.022   0.471
 9188TIP3   OH227527   1.552   1.878   2.942
 9188TIP3    H127528   1.464   1.913   2.959
 9188TIP3    H227529   1.611   1.938   2.987
 9189TIP3   OH227530   6.346   2.155   1.318
 9189TIP3    H127531   6.306   2.087   1.373
 9189TIP3    H227532   6.439   2.132   1.317
 9190TIP3   OH227533   2.051   2.041   4.320
 9190TIP3    H127534   2.138   2.081   4.322
 9190TIP3    H227535   2.068   1.947   4.310
 9191TIP3   OH227536   5.547   1.211   3.005
 9191TIP3    H127537   5.629   1.162   3.011
 9191TIP3    H227538   5.574   1.302   2.990
 9192TIP3   OH227539   2.587   5.805   3.972
 9192TIP3    H127540   2.610   5.713   3.958
 9192TIP3    H227541   2.659   5.854   3.932
 9193TIP3   OH227542   4.867   3.081   5.327
 9193TIP3    H127543   4.860   3.159   5.272
 9193TIP3    H227544   4.777   3.060   5.351
 9194TIP3   OH227545   5.228   5.543   0.176
 9194TIP3    H127546   5.182   5.482   0.235
 9194TIP3    H227547   5.319   5.541   0.206
 9195TIP3   OH227548   0.705   3.663   0.459
 9195TIP3    H127549   0.646   3.682   0.386
 9195TIP3    H227550   0.789   3.702   0.434
 9196TIP3   OH227551   3.789   6.390   2.646
 9196TIP3    H127552   3.856   6.345   2.595
 9196TIP3    H227553   3.815   6.482   2.645
 9197TIP3   OH227554   7.181   0.234   0.917
 9197TIP3    H127555   7.200   0.156   0.968
 9197TIP3    H227556   7.137   0.293   0.978
 9198TIP3   OH227557   0.582   5.704   3.893
 9198TIP3    H127558   0.541   5.790   3.883
 9198TIP3    H227559   0.607   5.700   3.985
 9199TIP3   OH227560   0.696   4.001   3.188
 9199TIP3    H127561   0.791   3.998   3.205
 9199TIP3    H227562   0.671   4.090   3.208
 9200TIP3   OH227563   4.446   0.434   5.842
 9200TIP3    H127564   4.352   0.428   5.861
 9200TIP3    H227565   4.488   0.436   5.928
 9201TIP3   OH227566   1.885   0.130   2.964
 9201TIP3    H127567   1.811   0.071   2.949
 9201TIP3    H227568   1.864   0.208   2.913
 9202TIP3   OH227569   3.267   5.038   5.786
 9202TIP3    H127570   3.254   5.040   5.692
 9202TIP3    H227571   3.182   5.012   5.822
 9203TIP3   OH227572   1.550   3.641   0.382
 9203TIP3    H127573   1.495   3.617   0.457
 9203TIP3    H227574   1.492   3.691   0.324
 9204TIP3   OH227575   5.091   4.768   3.780
 9204TIP3    H127576   5.146   4.808   3.712
 9204TIP3    H227577   5.005   4.761   3.740
 9205TIP3   OH227578   0.404   5.359   1.354
 9205TIP3    H127579   0.448   5.420   1.294
 9205TIP3    H227580   0.383   5.412   1.431
 9206TIP3   OH227581   1.743   6.165   5.470
 9206TIP3    H127582   1.713   6.080   5.437
 9206TIP3    H227583   1.830   6.148   5.506
 9207TIP3   OH227584   6.453   1.658   3.315
 9207TIP3    H127585   6.410   1.575   3.299
 9207TIP3    H227586   6.430   1.680   3.405
 9208TIP3   OH227587   3.099   3.347   0.741
 9208TIP3    H127588   3.097   3.430   0.788
 9208TIP3    H227589   3.008   3.333   0.713
 9209TIP3   OH227590   2.893   2.890   4.984
 9209TIP3    H127591   2.977   2.893   5.029
 9209TIP3    H227592   2.828   2.886   5.055
 9210TIP3   OH227593   4.961   6.555   4.584
 9210TIP3    H127594   4.963   6.467   4.545
 9210TIP3    H227595   4.874   6.562   4.622
 9211TIP3   OH227596   6.248   5.045   5.561
 9211TIP3    H127597   6.212   5.084   5.481
 9211TIP3    H227598   6.221   5.106   5.630
 9212TIP3   OH227599   5.232   4.911   4.593
 9212TIP3    H127600   5.207   5.002   4.607
 9212TIP3    H227601   5.319   4.915   4.553
 9213TIP3   OH227602   6.628   0.010   1.649
 9213TIP3    H127603   6.612  -0.064   1.708
 9213TIP3    H227604   6.692  -0.022   1.587
 9214TIP3   OH227605   6.844   3.998   2.595
 9214TIP3    H127606   6.886   4.082   2.610
 9214TIP3    H227607   6.832   3.993   2.500
 9215TIP3   OH227608   6.555   4.838   1.558
 9215TIP3    H127609   6.487   4.802   1.502
 9215TIP3    H227610   6.507   4.885   1.627
 9216TIP3   OH227611   4.865   4.617   4.098
 9216TIP3    H127612   4.838   4.677   4.029
 9216TIP3    H227613   4.835   4.658   4.179
 9217TIP3   OH227614   3.880   3.815   4.710
 9217TIP3    H127615   3.936   3.839   4.636
 9217TIP3    H227616   3.791   3.830   4.678
 9218TIP3   OH227617   6.420   4.392   4.374
 9218TIP3    H127618   6.389   4.442   4.450
 9218TIP3    H227619   6.400   4.448   4.299
 9219TIP3   OH227620   1.934   1.104   5.342
 9219TIP3    H127621   1.909   1.188   5.381
 9219TIP3    H227622   2.006   1.073   5.397
 9220TIP3   OH227623   7.128   5.664   2.408
 9220TIP3    H127624   7.193   5.725   2.442
 9220TIP3    H227625   7.094   5.706   2.328
 9221TIP3   OH227626   2.890   6.130   0.754
 9221TIP3    H127627   2.876   6.055   0.813
 9221TIP3    H227628   2.810   6.134   0.702
 9222TIP3   OH227629   6.324   0.703   4.807
 9222TIP3    H127630   6.350   0.781   4.757
 9222TIP3    H227631   6.406   0.657   4.825
 9223TIP3   OH227632   6.959   0.699   2.697
 9223TIP3    H127633   6.967   0.743   2.613
 9223TIP3    H227634   6.961   0.606   2.676
 9224TIP3   OH227635   5.705   5.309   2.374
 9224TIP3    H127636   5.784   5.296   2.321
 9224TIP3    H227637   5.732   5.285   2.463
 9225TIP3   OH227638   4.853   4.844   5.730
 9225TIP3    H127639   4.900   4.890   5.800
 9225TIP3    H227640   4.786   4.793   5.776
 9226TIP3   OH227641   6.325   0.061   3.988
 9226TIP3    H127642   6.378  -0.010   3.951
 9226TIP3    H227643   6.301   0.115   3.912
 9227TIP3   OH227644   1.685   3.061   2.413
 9227TIP3    H127645   1.670   3.059   2.508
 9227TIP3    H227646   1.747   2.990   2.397
 9228TIP3   OH227647   3.174   4.545   0.944
 9228TIP3    H127648   3.265   4.575   0.934
 9228TIP3    H227649   3.180   4.469   1.002
 9229TIP3   OH227650   5.381   5.105   4.328
 9229TIP3    H127651   5.345   5.161   4.397
 9229TIP3    H227652   5.305   5.063   4.288
 9230TIP3   OH227653   1.492   2.092   4.240
 9230TIP3    H127654   1.516   2.170   4.290
 9230TIP3    H227655   1.397   2.086   4.247
 9231TIP3   OH227656   4.680   3.129   1.565
 9231TIP3    H127657   4.770   3.161   1.557
 9231TIP3    H227658   4.631   3.177   1.498
 9232TIP3   OH227659   6.148   0.060   3.368
 9232TIP3    H127660   6.173   0.127   3.304
 9232TIP3    H227661   6.061   0.086   3.398
 9233TIP3   OH227662   1.830   1.701   3.542
 9233TIP3    H127663   1.850   1.612   3.571
 9233TIP3    H227664   1.735   1.702   3.531
 9234TIP3   OH227665   3.744   4.303   5.603
 9234TIP3    H127666   3.677   4.237   5.621
 9234TIP3    H227667   3.698   4.370   5.552
 9235TIP3   OH227668   4.394   1.237   3.195
 9235TIP3    H127669   4.449   1.218   3.271
 9235TIP3    H227670   4.416   1.168   3.133
 9236TIP3   OH227671   3.867   3.356   1.123
 9236TIP3    H127672   3.922   3.434   1.110
 9236TIP3    H227673   3.860   3.317   1.036
 9237TIP3   OH227674   0.478   3.473   1.345
 9237TIP3    H127675   0.450   3.423   1.422
 9237TIP3    H227676   0.404   3.530   1.326
 9238TIP3   OH227677   6.544   2.212   5.808
 9238TIP3    H127678   6.530   2.142   5.871
 9238TIP3    H227679   6.471   2.204   5.746
 9239TIP3   OH227680   3.046   3.573   0.863
 9239TIP3    H127681   3.076   3.624   0.939
 9239TIP3    H227682   3.030   3.638   0.795
 9240TIP3   OH227683   2.760   1.058   2.358
 9240TIP3    H127684   2.724   0.995   2.421
 9240TIP3    H227685   2.693   1.126   2.352
 9241TIP3   OH227686   3.587   3.441   1.720
 9241TIP3    H127687   3.503   3.416   1.757
 9241TIP3    H227688   3.599   3.532   1.747
 9242TIP3   OH227689   1.120   5.363   2.827
 9242TIP3    H127690   1.211   5.362   2.855
 9242TIP3    H227691   1.118   5.426   2.755
 9243TIP3   OH227692   6.755   0.610   5.328
 9243TIP3    H127693   6.799   0.563   5.257
 9243TIP3    H227694   6.813   0.684   5.348
 9244TIP3   OH227695   0.681   0.270   1.004
 9244TIP3    H127696   0.691   0.213   1.081
 9244TIP3    H227697   0.671   0.209   0.931
 9245TIP3   OH227698   0.505   1.503   3.032
 9245TIP3    H127699   0.445   1.561   3.078
 9245TIP3    H227700   0.591   1.545   3.042
 9246TIP3   OH227701   5.925   5.329   2.157
 9246TIP3    H127702   5.951   5.262   2.093
 9246TIP3    H227703   5.919   5.410   2.106
 9247TIP3   OH227704   4.347   0.016   2.588
 9247TIP3    H127705   4.422   0.063   2.552
 9247TIP3    H227706   4.383  -0.032   2.663
 9248TIP3   OH227707   6.176   2.837   5.759
 9248TIP3    H127708   6.247   2.874   5.811
 9248TIP3    H227709   6.108   2.817   5.822
 9249TIP3   OH227710   3.356   5.206   2.450
 9249TIP3    H127711   3.318   5.285   2.413
 9249TIP3    H227712   3.340   5.138   2.385
 9250TIP3   OH227713   3.665   3.125   4.676
 9250TIP3    H127714   3.586   3.145   4.626
 9250TIP3    H227715   3.641   3.047   4.727
 9251TIP3   OH227716   0.152   4.539   1.636
 9251TIP3    H127717   0.091   4.564   1.567
 9251TIP3    H227718   0.222   4.605   1.631
 9252TIP3   OH227719   0.076   4.214   2.248
 9252TIP3    H127720   0.119   4.151   2.305
 9252TIP3    H227721   0.147   4.249   2.194
 9253TIP3   OH227722  -0.003   4.475   0.900
 9253TIP3    H127723  -0.008   4.488   0.995
 9253TIP3    H227724   0.073   4.419   0.888
 9254TIP3   OH227725   6.306   5.787   5.062
 9254TIP3    H127726   6.292   5.762   5.153
 9254TIP3    H227727   6.231   5.751   5.015
 9255TIP3   OH227728   4.496   6.464   5.319
 9255TIP3    H127729   4.464   6.414   5.243
 9255TIP3    H227730   4.559   6.406   5.361
 9256TIP3   OH227731   1.859   0.136   0.242
 9256TIP3    H127732   1.789   0.202   0.238
 9256TIP3    H227733   1.819   0.057   0.207
 9257TIP3   OH227734   2.183   0.818   0.336
 9257TIP3    H127735   2.130   0.788   0.262
 9257TIP3    H227736   2.273   0.809   0.305
 9258TIP3   OH227737   6.135   6.783   5.644
 9258TIP3    H127738   6.226   6.803   5.666
 9258TIP3    H227739   6.128   6.688   5.658
 9259TIP3   OH227740   4.670   1.385   1.468
 9259TIP3    H127741   4.713   1.468   1.491
 9259TIP3    H227742   4.743   1.325   1.450
 9260TIP3   OH227743   0.219   1.627   2.078
 9260TIP3    H127744   0.240   1.544   2.121
 9260TIP3    H227745   0.185   1.601   1.992
 9261TIP3   OH227746   6.535   3.676   3.969
 9261TIP3    H127747   6.557   3.733   3.896
 9261TIP3    H227748   6.540   3.588   3.933
 9262TIP3   OH227749   0.390   1.540   5.599
 9262TIP3    H127750   0.301   1.524   5.630
 9262TIP3    H227751   0.421   1.454   5.569
 9263TIP3   OH227752   6.127   2.591   1.733
 9263TIP3    H127753   6.122   2.496   1.743
 9263TIP3    H227754   6.046   2.623   1.772
 9264TIP3   OH227755   6.350   4.750   1.395
 9264TIP3    H127756   6.363   4.775   1.304
 9264TIP3    H227757   6.261   4.779   1.415
 9265TIP3   OH227758   3.409   5.327   1.173
 9265TIP3    H127759   3.345   5.393   1.200
 9265TIP3    H227760   3.479   5.376   1.131
 9266TIP3   OH227761   2.936   1.146   2.966
 9266TIP3    H127762   2.870   1.175   3.029
 9266TIP3    H227763   2.901   1.171   2.881
 9267TIP3   OH227764   3.122   1.619   3.246
 9267TIP3    H127765   3.183   1.590   3.314
 9267TIP3    H227766   3.039   1.578   3.270
 9268TIP3   OH227767   6.768   2.919   3.582
 9268TIP3    H127768   6.703   2.892   3.647
 9268TIP3    H227769   6.849   2.878   3.611
 9269TIP3   OH227770   3.669   5.798   4.401
 9269TIP3    H127771   3.754   5.842   4.397
 9269TIP3    H227772   3.665   5.745   4.322
 9270TIP3   OH227773   3.167   3.815   4.487
 9270TIP3    H127774   3.078   3.801   4.456
 9270TIP3    H227775   3.218   3.746   4.445
 9271TIP3   OH227776   0.659   4.849   5.175
 9271TIP3    H127777   0.666   4.777   5.112
 9271TIP3    H227778   0.587   4.903   5.142
 9272TIP3   OH227779   2.791   6.603   3.198
 9272TIP3    H127780   2.849   6.564   3.264
 9272TIP3    H227781   2.715   6.634   3.248
 9273TIP3   OH227782   2.745   6.126   4.381
 9273TIP3    H127783   2.713   6.080   4.303
 9273TIP3    H227784   2.809   6.065   4.419
 9274TIP3   OH227785   4.788   0.375   0.954
 9274TIP3    H127786   4.826   0.454   0.916
 9274TIP3    H227787   4.849   0.350   1.023
 9275TIP3   OH227788   6.365   5.664   3.072
 9275TIP3    H127789   6.284   5.689   3.027
 9275TIP3    H227790   6.337   5.598   3.136
 9276TIP3   OH227791   2.111   6.405   5.313
 9276TIP3    H127792   2.048   6.469   5.279
 9276TIP3    H227793   2.078   6.320   5.284
 9277TIP3   OH227794   2.523   2.168   3.379
 9277TIP3    H127795   2.563   2.255   3.379
 9277TIP3    H227796   2.520   2.143   3.471
 9278TIP3   OH227797   5.155   3.593   2.091
 9278TIP3    H127798   5.185   3.513   2.134
 9278TIP3    H227799   5.137   3.654   2.163
 9279TIP3   OH227800   5.683   5.844   5.292
 9279TIP3    H127801   5.590   5.836   5.315
 9279TIP3    H227802   5.687   5.820   5.199
 9280TIP3   OH227803   1.577   4.627   5.525
 9280TIP3    H127804   1.622   4.577   5.457
 9280TIP3    H227805   1.626   4.608   5.605
 9281TIP3   OH227806   4.597   2.522   3.483
 9281TIP3    H127807   4.520   2.579   3.477
 9281TIP3    H227808   4.655   2.551   3.413
 9282TIP3   OH227809   1.139   1.546   2.737
 9282TIP3    H127810   1.229   1.577   2.725
 9282TIP3    H227811   1.125   1.486   2.663
 9283TIP3   OH227812   5.218   5.900   0.711
 9283TIP3    H127813   5.154   5.835   0.684
 9283TIP3    H227814   5.297   5.880   0.660
 9284TIP3   OH227815   3.326   1.859   4.732
 9284TIP3    H127816   3.399   1.859   4.794
 9284TIP3    H227817   3.250   1.880   4.785
 9285TIP3   OH227818   1.386   2.203   5.531
 9285TIP3    H127819   1.452   2.202   5.601
 9285TIP3    H227820   1.361   2.112   5.520
 9286TIP3   OH227821   0.534   0.836   1.156
 9286TIP3    H127822   0.587   0.896   1.209
 9286TIP3    H227823   0.597   0.778   1.114
 9287TIP3   OH227824   2.060   2.827   2.182
 9287TIP3    H127825   2.118   2.872   2.120
 9287TIP3    H227826   2.054   2.737   2.148
 9288TIP3   OH227827   3.882   2.210   0.943
 9288TIP3    H127828   3.917   2.185   0.857
 9288TIP3    H227829   3.790   2.183   0.940
 9289TIP3   OH227830   5.729   1.025   2.917
 9289TIP3    H127831   5.778   1.031   2.835
 9289TIP3    H227832   5.782   0.967   2.972
 9290TIP3   OH227833   4.641   4.588   1.327
 9290TIP3    H127834   4.698   4.521   1.364
 9290TIP3    H227835   4.698   4.640   1.270
 9291TIP3   OH227836   1.509   4.752   3.070
 9291TIP3    H127837   1.601   4.767   3.047
 9291TIP3    H227838   1.467   4.728   2.988
 9292TIP3   OH227839   5.037   3.594   5.877
 9292TIP3    H127840   5.011   3.683   5.854
 9292TIP3    H227841   5.062   3.554   5.794
 9293TIP3   OH227842   5.722   1.247   5.231
 9293TIP3    H127843   5.673   1.273   5.310
 9293TIP3    H227844   5.655   1.222   5.168
 9294TIP3   OH227845   3.683   2.408   1.274
 9294TIP3    H127846   3.684   2.314   1.295
 9294TIP3    H227847   3.602   2.421   1.224
 9295TIP3   OH227848   4.696   2.405   0.130
 9295TIP3    H127849   4.729   2.327   0.176
 9295TIP3    H227850   4.602   2.389   0.121
 9296TIP3   OH227851   0.454   1.536   4.595
 9296TIP3    H127852   0.489   1.554   4.682
 9296TIP3    H227853   0.455   1.440   4.588
 9297TIP3   OH227854   2.530   5.718   1.202
 9297TIP3    H127855   2.507   5.725   1.110
 9297TIP3    H227856   2.623   5.695   1.203
 9298TIP3   OH227857   7.090   4.916   4.714
 9298TIP3    H127858   7.179   4.937   4.745
 9298TIP3    H227859   7.069   4.833   4.758
 9299TIP3   OH227860   6.917   5.313   0.666
 9299TIP3    H127861   6.987   5.376   0.656
 9299TIP3    H227862   6.868   5.342   0.743
 9300TIP3   OH227863   1.702   5.637   2.026
 9300TIP3    H127864   1.715   5.547   2.056
 9300TIP3    H227865   1.687   5.629   1.932
 9301TIP3   OH227866   4.091   5.461   1.671
 9301TIP3    H127867   4.133   5.377   1.686
 9301TIP3    H227868   4.124   5.517   1.741
 9302TIP3   OH227869   0.318   3.011   3.526
 9302TIP3    H127870   0.279   3.076   3.468
 9302TIP3    H227871   0.322   2.932   3.472
 9303TIP3   OH227872   4.198   2.204   2.634
 9303TIP3    H127873   4.136   2.262   2.678
 9303TIP3    H227874   4.264   2.262   2.597
 9304TIP3   OH227875   0.036   3.837   1.913
 9304TIP3    H127876   0.046   3.762   1.973
 9304TIP3    H227877  -0.057   3.859   1.918
 9305TIP3   OH227878   5.787   3.846   1.585
 9305TIP3    H127879   5.859   3.786   1.564
 9305TIP3    H227880   5.801   3.869   1.677
 9306TIP3   OH227881   6.268   4.048   2.174
 9306TIP3    H127882   6.266   3.956   2.199
 9306TIP3    H227883   6.263   4.096   2.256
 9307TIP3   OH227884   6.090   1.691   2.936
 9307TIP3    H127885   6.105   1.650   3.022
 9307TIP3    H227886   6.146   1.768   2.936
 9308TIP3   OH227887   4.160   3.491   3.028
 9308TIP3    H127888   4.070   3.466   3.010
 9308TIP3    H227889   4.179   3.452   3.114
 9309TIP3   OH227890   6.592   5.543   5.462
 9309TIP3    H127891   6.570   5.513   5.549
 9309TIP3    H227892   6.582   5.466   5.406
 9310TIP3   OH227893   0.098   1.587   1.461
 9310TIP3    H127894   0.138   1.617   1.543
 9310TIP3    H227895   0.075   1.496   1.479
 9311TIP3   OH227896   0.740   4.476   2.573
 9311TIP3    H127897   0.798   4.402   2.588
 9311TIP3    H227898   0.754   4.534   2.649
 9312TIP3   OH227899   3.739   1.265   2.825
 9312TIP3    H127900   3.759   1.205   2.897
 9312TIP3    H227901   3.789   1.344   2.844
 9313TIP3   OH227902   3.703   6.151   1.904
 9313TIP3    H127903   3.612   6.180   1.903
 9313TIP3    H227904   3.748   6.214   1.847
 9314TIP3   OH227905   2.317   6.215   3.996
 9314TIP3    H127906   2.348   6.134   3.954
 9314TIP3    H227907   2.394   6.272   3.997
 9315TIP3   OH227908   5.936   1.892   4.163
 9315TIP3    H127909   5.979   1.857   4.084
 9315TIP3    H227910   5.846   1.859   4.157
 9316TIP3   OH227911   4.557   5.561   2.497
 9316TIP3    H127912   4.634   5.596   2.541
 9316TIP3    H227913   4.492   5.550   2.567
 9317TIP3   OH227914   1.260   4.682   1.749
 9317TIP3    H127915   1.221   4.768   1.731
 9317TIP3    H227916   1.343   4.702   1.792
 9318TIP3   OH227917   0.940   2.406   3.786
 9318TIP3    H127918   1.006   2.352   3.829
 9318TIP3    H227919   0.990   2.463   3.727
 9319TIP3   OH227920   2.236   2.965   3.517
 9319TIP3    H127921   2.181   3.042   3.501
 9319TIP3    H227922   2.237   2.920   3.432
 9320TIP3   OH227923   5.509   5.531   0.145
 9320TIP3    H127924   5.505   5.451   0.093
 9320TIP3    H227925   5.520   5.601   0.080
 9321TIP3   OH227926   0.261   2.887   5.190
 9321TIP3    H127927   0.168   2.890   5.168
 9321TIP3    H227928   0.276   2.796   5.216
 9322TIP3   OH227929   4.637   1.610   3.254
 9322TIP3    H127930   4.670   1.559   3.328
 9322TIP3    H227931   4.709   1.670   3.233
 9323TIP3   OH227932   0.635   3.781   2.057
 9323TIP3    H127933   0.702   3.836   2.097
 9323TIP3    H227934   0.643   3.696   2.100
 9324TIP3   OH227935   0.970   2.919   3.629
 9324TIP3    H127936   1.014   3.003   3.616
 9324TIP3    H227937   0.909   2.913   3.555
 9325TIP3   OH227938   6.171   0.427   0.202
 9325TIP3    H127939   6.085   0.384   0.198
 9325TIP3    H227940   6.186   0.442   0.295
 9326TIP3   OH227941   5.484   0.578   0.829
 9326TIP3    H127942   5.522   0.664   0.849
 9326TIP3    H227943   5.558   0.527   0.796
 9327TIP3   OH227944   1.912   5.073   3.076
 9327TIP3    H127945   1.913   5.009   3.147
 9327TIP3    H227946   1.989   5.053   3.024
 9328TIP3   OH227947   0.799   4.421   2.843
 9328TIP3    H127948   0.744   4.499   2.853
 9328TIP3    H227949   0.745   4.360   2.793
 9329TIP3   OH227950   3.747   0.948   3.862
 9329TIP3    H127951   3.714   0.865   3.829
 9329TIP3    H227952   3.672   0.988   3.905
 9330TIP3   OH227953   0.503   0.191   4.130
 9330TIP3    H127954   0.448   0.269   4.140
 9330TIP3    H227955   0.568   0.198   4.200
 9331TIP3   OH227956   6.519   6.340   1.798
 9331TIP3    H127957   6.517   6.404   1.727
 9331TIP3    H227958   6.612   6.332   1.819
 9332TIP3   OH227959   4.463   4.995   3.529
 9332TIP3    H127960   4.398   4.982   3.598
 9332TIP3    H227961   4.493   4.907   3.507
 9333TIP3   OH227962   1.047   5.272   2.444
 9333TIP3    H127963   1.049   5.357   2.487
 9333TIP3    H227964   1.085   5.212   2.507
 9334TIP3   OH227965   3.333   4.811   1.272
 9334TIP3    H127966   3.243   4.782   1.262
 9334TIP3    H227967   3.327   4.900   1.306
 9335TIP3   OH227968   0.882   4.334   1.340
 9335TIP3    H127969   0.788   4.336   1.323
 9335TIP3    H227970   0.907   4.427   1.347
 9336TIP3   OH227971   2.995   1.823   2.932
 9336TIP3    H127972   2.981   1.803   3.025
 9336TIP3    H227973   2.908   1.812   2.892
 9337TIP3   OH227974   3.036   3.134   1.990
 9337TIP3    H127975   3.031   3.041   2.012
 9337TIP3    H227976   3.126   3.146   1.957
 9338TIP3   OH227977   5.102   3.530   5.635
 9338TIP3    H127978   5.193   3.551   5.657
 9338TIP3    H227979   5.093   3.556   5.543
 9339TIP3   OH227980   6.199   2.719   5.524
 9339TIP3    H127981   6.208   2.771   5.604
 9339TIP3    H227982   6.147   2.643   5.549
 9340TIP3   OH227983   1.875   6.192   1.555
 9340TIP3    H127984   1.877   6.118   1.615
 9340TIP3    H227985   1.782   6.209   1.540
 9341TIP3   OH227986   3.354   2.342   2.216
 9341TIP3    H127987   3.329   2.430   2.188
 9341TIP3    H227988   3.441   2.329   2.180
 9342TIP3   OH227989   1.266   0.601   5.798
 9342TIP3    H127990   1.240   0.685   5.760
 9342TIP3    H227991   1.355   0.587   5.766
 9343TIP3   OH227992   2.009   1.736   1.512
 9343TIP3    H127993   1.969   1.653   1.540
 9343TIP3    H227994   2.038   1.777   1.594
 9344TIP3   OH227995   0.261   3.639   2.132
 9344TIP3    H127996   0.223   3.726   2.121
 9344TIP3    H227997   0.325   3.649   2.203
 9345TIP3   OH227998   1.564   5.941   5.708
 9345TIP3    H127999   1.496   5.906   5.651
 9345TIP3    H228000   1.558   6.036   5.699
 9346TIP3   OH228001   6.322   0.769   3.916
 9346TIP3    H128002   6.282   0.770   3.829
 9346TIP3    H228003   6.401   0.715   3.905
 9347TIP3   OH228004   0.472   1.140   5.221
 9347TIP3    H128005   0.476   1.197   5.144
 9347TIP3    H228006   0.559   1.145   5.259
 9348TIP3   OH228007   2.577   4.963   0.131
 9348TIP3    H128008   2.612   4.937   0.046
 9348TIP3    H228009   2.482   4.963   0.118
 9349TIP3   OH228010   6.443   1.869   1.724
 9349TIP3    H128011   6.410   1.834   1.807
 9349TIP3    H228012   6.493   1.947   1.749
 9350TIP3   OH228013   1.756   0.326   2.780
 9350TIP3    H128014   1.747   0.388   2.852
 9350TIP3    H228015   1.814   0.370   2.717
 9351TIP3   OH228016   1.505   6.616   3.644
 9351TIP3    H128017   1.486   6.524   3.661
 9351TIP3    H228018   1.484   6.661   3.726
 9352TIP3   OH228019   5.714   5.564   0.614
 9352TIP3    H128020   5.705   5.552   0.520
 9352TIP3    H228021   5.637   5.520   0.651
 9353TIP3   OH228022   3.255   0.602   0.663
 9353TIP3    H128023   3.252   0.663   0.737
 9353TIP3    H228024   3.199   0.530   0.690
 9354TIP3   OH228025   5.364   0.568   5.319
 9354TIP3    H128026   5.273   0.562   5.290
 9354TIP3    H228027   5.401   0.482   5.298
 9355TIP3   OH228028   7.129   3.033   3.307
 9355TIP3    H128029   7.112   2.938   3.307
 9355TIP3    H228030   7.117   3.059   3.216
 9356TIP3   OH228031   0.312   1.400   2.876
 9356TIP3    H128032   0.237   1.404   2.936
 9356TIP3    H228033   0.385   1.436   2.926
 9357TIP3   OH228034   2.565   0.217   5.170
 9357TIP3    H128035   2.633   0.227   5.238
 9357TIP3    H228036   2.554   0.306   5.136
 9358TIP3   OH228037   0.142   1.561   3.373
 9358TIP3    H128038   0.198   1.637   3.358
 9358TIP3    H228039   0.122   1.564   3.467
 9359TIP3   OH228040   1.637   1.347   5.275
 9359TIP3    H128041   1.728   1.336   5.249
 9359TIP3    H228042   1.629   1.299   5.357
 9360TIP3   OH228043   3.237   3.320   1.026
 9360TIP3    H128044   3.332   3.323   1.014
 9360TIP3    H228045   3.202   3.329   0.937
 9361TIP3   OH228046   1.628   3.357   0.599
 9361TIP3    H128047   1.661   3.442   0.629
 9361TIP3    H228048   1.560   3.334   0.663
 9362TIP3   OH228049   5.122   6.147   4.313
 9362TIP3    H128050   5.073   6.216   4.269
 9362TIP3    H228051   5.210   6.152   4.274
 9363TIP3   OH228052   3.222   2.532   4.582
 9363TIP3    H128053   3.271   2.524   4.501
 9363TIP3    H228054   3.133   2.504   4.560
 9364TIP3   OH228055   2.856   6.540   3.932
 9364TIP3    H128056   2.841   6.485   4.009
 9364TIP3    H228057   2.770   6.576   3.911
 9365TIP3   OH228058   2.680   4.068   3.419
 9365TIP3    H128059   2.702   3.976   3.401
 9365TIP3    H228060   2.742   4.094   3.487
 9366TIP3   OH228061   1.218   3.985   5.144
 9366TIP3    H128062   1.159   4.022   5.078
 9366TIP3    H228063   1.224   3.892   5.122
 9367TIP3   OH228064   2.530   2.987   4.862
 9367TIP3    H128065   2.473   3.061   4.841
 9367TIP3    H228066   2.503   2.919   4.800
 9368TIP3   OH228067   5.675   2.945   1.930
 9368TIP3    H128068   5.749   2.957   1.871
 9368TIP3    H228069   5.715   2.916   2.012
 9369TIP3   OH228070   3.262   3.418   5.105
 9369TIP3    H128071   3.330   3.458   5.158
 9369TIP3    H228072   3.273   3.458   5.018
 9370TIP3   OH228073   6.707   0.036   3.112
 9370TIP3    H128074   6.773   0.104   3.096
 9370TIP3    H228075   6.682   0.006   3.025
 9371TIP3   OH228076   4.680   3.064   4.587
 9371TIP3    H128077   4.675   3.014   4.506
 9371TIP3    H228078   4.774   3.075   4.603
 9372TIP3   OH228079   7.252   3.093   2.375
 9372TIP3    H128080   7.256   3.156   2.302
 9372TIP3    H228081   7.166   3.107   2.414
 9373TIP3   OH228082   2.971   4.934   0.544
 9373TIP3    H128083   3.058   4.931   0.504
 9373TIP3    H228084   2.913   4.961   0.472
 9374TIP3   OH228085   4.348   2.944   0.400
 9374TIP3    H128086   4.323   2.873   0.459
 9374TIP3    H228087   4.270   2.959   0.346
 9375TIP3   OH228088   2.324   6.196   5.690
 9375TIP3    H128089   2.348   6.260   5.756
 9375TIP3    H228090   2.261   6.139   5.733
 9376TIP3   OH228091   7.113   0.450   1.122
 9376TIP3    H128092   7.154   0.535   1.134
 9376TIP3    H228093   7.122   0.406   1.207
 9377TIP3   OH228094   6.575   4.302   0.629
 9377TIP3    H128095   6.598   4.240   0.560
 9377TIP3    H228096   6.604   4.260   0.710
 9378TIP3   OH228097   0.269   3.908   3.077
 9378TIP3    H128098   0.266   3.813   3.080
 9378TIP3    H228099   0.263   3.929   2.984
 9379TIP3   OH228100   7.129   2.294   5.753
 9379TIP3    H128101   7.114   2.220   5.696
 9379TIP3    H228102   7.224   2.297   5.765
 9380TIP3   OH228103   7.061   3.077   3.035
 9380TIP3    H128104   7.024   3.157   2.998
 9380TIP3    H228105   7.112   3.039   2.964
 9381TIP3   OH228106   4.890   1.504   1.017
 9381TIP3    H128107   4.893   1.448   0.939
 9381TIP3    H228108   4.959   1.569   1.003
 9382TIP3   OH228109   6.738   1.039   0.673
 9382TIP3    H128110   6.782   0.988   0.605
 9382TIP3    H228111   6.693   0.973   0.727
 9383TIP3   OH228112   0.048   0.882   5.361
 9383TIP3    H128113   0.125   0.825   5.358
 9383TIP3    H228114   0.075   0.960   5.312
 9384TIP3   OH228115   3.076   6.403   4.501
 9384TIP3    H128116   3.088   6.367   4.413
 9384TIP3    H228117   2.986   6.380   4.524
 9385TIP3   OH228118   0.877   5.702   1.335
 9385TIP3    H128119   0.830   5.622   1.357
 9385TIP3    H228120   0.850   5.765   1.402
 9386TIP3   OH228121   7.242   4.356   0.187
 9386TIP3    H128122   7.146   4.353   0.193
 9386TIP3    H228123   7.268   4.412   0.260
 9387TIP3   OH228124   1.410   4.256   2.220
 9387TIP3    H128125   1.387   4.165   2.235
 9387TIP3    H228126   1.366   4.279   2.138
 9388TIP3   OH228127   3.736   1.704   1.286
 9388TIP3    H128128   3.647   1.701   1.322
 9388TIP3    H228129   3.723   1.724   1.193
 9389TIP3   OH228130   1.197   6.393   1.869
 9389TIP3    H128131   1.130   6.329   1.845
 9389TIP3    H228132   1.278   6.358   1.830
 9390TIP3   OH228133   6.897   2.842   5.056
 9390TIP3    H128134   6.890   2.793   5.138
 9390TIP3    H228135   6.845   2.791   4.993
 9391TIP3   OH228136   6.349   2.832   0.210
 9391TIP3    H128137   6.323   2.846   0.301
 9391TIP3    H228138   6.268   2.812   0.164
 9392TIP3   OH228139   2.181   6.791   3.455
 9392TIP3    H128140   2.274   6.815   3.464
 9392TIP3    H228141   2.182   6.695   3.453
 9393TIP3   OH228142   2.131   5.713   2.360
 9393TIP3    H128143   2.195   5.655   2.318
 9393TIP3    H228144   2.169   5.801   2.351
 9394TIP3   OH228145   6.545   1.071   2.026
 9394TIP3    H128146   6.529   1.125   2.104
 9394TIP3    H228147   6.475   1.006   2.028
 9395TIP3   OH228148   3.451   6.211   1.183
 9395TIP3    H128149   3.490   6.233   1.099
 9395TIP3    H228150   3.520   6.163   1.230
 9396TIP3   OH228151   0.640   4.005   4.828
 9396TIP3    H128152   0.589   4.006   4.747
 9396TIP3    H228153   0.723   4.046   4.805
 9397TIP3   OH228154   3.528   3.816   1.517
 9397TIP3    H128155   3.576   3.854   1.590
 9397TIP3    H228156   3.554   3.868   1.441
 9398TIP3   OH228157   0.496   2.160   0.911
 9398TIP3    H128158   0.483   2.096   0.840
 9398TIP3    H228159   0.528   2.108   0.984
 9399TIP3   OH228160   1.554   2.310   5.721
 9399TIP3    H128161   1.466   2.342   5.738
 9399TIP3    H228162   1.576   2.258   5.799
 9400TIP3   OH228163   3.029   5.866   5.229
 9400TIP3    H128164   3.035   5.912   5.145
 9400TIP3    H228165   2.961   5.912   5.277
 9401TIP3   OH228166   4.820   4.024   5.000
 9401TIP3    H128167   4.734   3.984   4.992
 9401TIP3    H228168   4.830   4.077   4.921
 9402TIP3   OH228169   2.997   2.742   0.553
 9402TIP3    H128170   2.989   2.679   0.625
 9402TIP3    H228171   2.929   2.807   0.571
 9403TIP3   OH228172   5.492   3.220   4.214
 9403TIP3    H128173   5.430   3.284   4.250
 9403TIP3    H228174   5.569   3.273   4.192
 9404TIP3   OH228175   6.897   1.787   1.781
 9404TIP3    H128176   6.831   1.778   1.712
 9404TIP3    H228177   6.856   1.747   1.858
 9405TIP3   OH228178   7.224   0.532   4.713
 9405TIP3    H128179   7.157   0.467   4.690
 9405TIP3    H228180   7.175   0.614   4.720
 9406TIP3   OH228181   3.348   6.498   5.147
 9406TIP3    H128182   3.357   6.517   5.053
 9406TIP3    H228183   3.293   6.569   5.180
 9407TIP3   OH228184   0.500   4.302   0.249
 9407TIP3    H128185   0.454   4.313   0.332
 9407TIP3    H228186   0.591   4.322   0.270
 9408TIP3   OH228187   3.710   5.436   4.828
 9408TIP3    H128188   3.759   5.356   4.846
 9408TIP3    H228189   3.657   5.416   4.751
 9409TIP3   OH228190   3.646   6.681   2.950
 9409TIP3    H128191   3.636   6.585   2.951
 9409TIP3    H228192   3.574   6.712   2.896
 9410TIP3   OH228193   3.733   1.230   1.219
 9410TIP3    H128194   3.688   1.147   1.236
 9410TIP3    H228195   3.663   1.289   1.190
 9411TIP3   OH228196   1.551   0.706   1.488
 9411TIP3    H128197   1.535   0.774   1.422
 9411TIP3    H228198   1.646   0.710   1.504
 9412TIP3   OH228199   2.285   3.779   0.840
 9412TIP3    H128200   2.272   3.843   0.770
 9412TIP3    H228201   2.301   3.831   0.918
 9413TIP3   OH228202   3.625   6.327   3.359
 9413TIP3    H128203   3.644   6.299   3.449
 9413TIP3    H228204   3.655   6.418   3.355
 9414TIP3   OH228205   3.167   2.295   1.128
 9414TIP3    H128206   3.161   2.372   1.185
 9414TIP3    H228207   3.108   2.231   1.168
 9415TIP3   OH228208   1.537   6.220   5.640
 9415TIP3    H128209   1.563   6.255   5.724
 9415TIP3    H228210   1.618   6.214   5.589
 9416TIP3   OH228211   2.838   1.424   2.049
 9416TIP3    H128212   2.934   1.433   2.052
 9416TIP3    H228213   2.820   1.400   1.958
 9417TIP3   OH228214   2.992   0.863   3.291
 9417TIP3    H128215   2.899   0.886   3.292
 9417TIP3    H228216   3.000   0.795   3.224
 9418TIP3   OH228217   1.034   3.660   2.816
 9418TIP3    H128218   1.033   3.625   2.727
 9418TIP3    H228219   1.126   3.660   2.842
 9419TIP3   OH228220   5.324   3.727   4.494
 9419TIP3    H128221   5.243   3.676   4.498
 9419TIP3    H228222   5.388   3.675   4.542
 9420TIP3   OH228223   2.264   2.462   0.548
 9420TIP3    H128224   2.214   2.384   0.571
 9420TIP3    H228225   2.296   2.496   0.631
 9421TIP3   OH228226   1.999   4.252   4.942
 9421TIP3    H128227   1.945   4.178   4.914
 9421TIP3    H228228   1.941   4.327   4.940
 9422TIP3   OH228229   6.724   0.791   1.217
 9422TIP3    H128230   6.648   0.734   1.205
 9422TIP3    H228231   6.800   0.733   1.209
 9423TIP3   OH228232   5.973   5.225   3.533
 9423TIP3    H128233   5.966   5.251   3.625
 9423TIP3    H228234   6.061   5.252   3.507
 9424TIP3   OH228235   3.790   6.123   2.505
 9424TIP3    H128236   3.755   6.134   2.594
 9424TIP3    H228237   3.869   6.176   2.504
 9425TIP3   OH228238   4.144   4.289   0.888
 9425TIP3    H128239   4.146   4.318   0.979
 9425TIP3    H228240   4.210   4.220   0.883
 9426TIP3   OH228241   6.727   2.153   3.029
 9426TIP3    H128242   6.750   2.068   3.066
 9426TIP3    H228243   6.764   2.151   2.941
 9427TIP3   OH228244   5.280   5.214   3.484
 9427TIP3    H128245   5.297   5.255   3.569
 9427TIP3    H228246   5.366   5.207   3.442
 9428TIP3   OH228247   6.041   6.293   2.144
 9428TIP3    H128248   6.062   6.279   2.236
 9428TIP3    H228249   6.126   6.287   2.099
 9429TIP3   OH228250   4.469   6.008   4.342
 9429TIP3    H128251   4.453   6.013   4.247
 9429TIP3    H228252   4.525   6.083   4.360
 9430TIP3   OH228253   0.607   6.610   2.826
 9430TIP3    H128254   0.645   6.522   2.823
 9430TIP3    H228255   0.679   6.667   2.855
 9431TIP3   OH228256   6.413   6.564   3.446
 9431TIP3    H128257   6.398   6.649   3.489
 9431TIP3    H228258   6.357   6.567   3.368
 9432TIP3   OH228259   6.003   2.363   0.276
 9432TIP3    H128260   6.044   2.317   0.349
 9432TIP3    H228261   5.950   2.432   0.317
 9433TIP3   OH228262   1.302   2.367   5.816
 9433TIP3    H128263   1.231   2.367   5.753
 9433TIP3    H228264   1.258   2.364   5.902
 9434TIP3   OH228265   0.371   5.127   4.294
 9434TIP3    H128266   0.385   5.146   4.386
 9434TIP3    H228267   0.278   5.144   4.280
 9435TIP3   OH228268   2.738   4.357   2.881
 9435TIP3    H128269   2.695   4.392   2.959
 9435TIP3    H228270   2.757   4.265   2.903
 9436TIP3   OH228271   1.047   3.448   0.490
 9436TIP3    H128272   1.134   3.416   0.512
 9436TIP3    H228273   1.002   3.456   0.574
 9437TIP3   OH228274   4.056   0.549   2.753
 9437TIP3    H128275   4.140   0.508   2.773
 9437TIP3    H228276   4.033   0.598   2.832
 9438TIP3   OH228277   6.091   2.215   0.484
 9438TIP3    H128278   6.054   2.126   0.481
 9438TIP3    H228279   6.102   2.233   0.577
 9439TIP3   OH228280   5.683   5.111   1.306
 9439TIP3    H128281   5.698   5.147   1.219
 9439TIP3    H228282   5.634   5.179   1.352
 9440TIP3   OH228283   1.963   2.367   2.454
 9440TIP3    H128284   1.905   2.292   2.471
 9440TIP3    H228285   1.948   2.426   2.528
 9441TIP3   OH228286   1.151   1.094   4.781
 9441TIP3    H128287   1.097   1.032   4.732
 9441TIP3    H228288   1.128   1.179   4.744
 9442TIP3   OH228289   3.910   6.440   3.408
 9442TIP3    H128290   3.925   6.505   3.339
 9442TIP3    H228291   3.862   6.488   3.476
 9443TIP3   OH228292   2.364   5.246   0.586
 9443TIP3    H128293   2.279   5.288   0.574
 9443TIP3    H228294   2.426   5.305   0.543
 9444TIP3   OH228295   2.351   0.927   2.432
 9444TIP3    H128296   2.375   1.019   2.444
 9444TIP3    H228297   2.379   0.885   2.513
 9445TIP3   OH228298   3.404   0.948   0.680
 9445TIP3    H128299   3.326   0.995   0.710
 9445TIP3    H228300   3.393   0.941   0.586
 9446TIP3   OH228301   0.443   1.376   1.880
 9446TIP3    H128302   0.492   1.448   1.920
 9446TIP3    H228303   0.472   1.298   1.928
 9447TIP3   OH228304   6.956   4.844   1.513
 9447TIP3    H128305   7.008   4.889   1.579
 9447TIP3    H228306   6.905   4.780   1.562
 9448TIP3   OH228307   6.396   4.000   4.606
 9448TIP3    H128308   6.423   4.021   4.696
 9448TIP3    H228309   6.361   4.082   4.572
 9449TIP3   OH228310   4.099   1.161   0.497
 9449TIP3    H128311   4.065   1.189   0.582
 9449TIP3    H228312   4.114   1.067   0.508
 9450TIP3   OH228313   6.392   6.374   5.339
 9450TIP3    H128314   6.330   6.314   5.298
 9450TIP3    H228315   6.353   6.461   5.328
 9451TIP3   OH228316   4.772   4.911   4.497
 9451TIP3    H128317   4.784   4.971   4.571
 9451TIP3    H228318   4.860   4.879   4.476
 9452TIP3   OH228319   6.681   2.244   0.737
 9452TIP3    H128320   6.736   2.249   0.659
 9452TIP3    H228321   6.593   2.225   0.703
 9453TIP3   OH228322   1.662   2.719   3.875
 9453TIP3    H128323   1.714   2.754   3.947
 9453TIP3    H228324   1.609   2.649   3.915
 9454TIP3   OH228325   4.723   6.076   5.354
 9454TIP3    H128326   4.771   6.080   5.271
 9454TIP3    H228327   4.753   6.151   5.404
 9455TIP3   OH228328   5.514   1.131   5.045
 9455TIP3    H128329   5.430   1.108   5.085
 9455TIP3    H228330   5.496   1.206   4.990
 9456TIP3   OH228331   4.647   5.066   0.097
 9456TIP3    H128332   4.654   5.153   0.059
 9456TIP3    H228333   4.595   5.016   0.034
 9457TIP3   OH228334   3.497  -0.049   5.029
 9457TIP3    H128335   3.508   0.021   4.964
 9457TIP3    H228336   3.417  -0.026   5.076
 9458TIP3   OH228337   4.782   3.277   1.078
 9458TIP3    H128338   4.698   3.276   1.032
 9458TIP3    H228339   4.799   3.185   1.099
 9459TIP3   OH228340   4.656   4.750   5.083
 9459TIP3    H128341   4.637   4.661   5.112
 9459TIP3    H228342   4.734   4.776   5.133
 9460TIP3   OH228343   6.564   3.127   3.769
 9460TIP3    H128344   6.536   3.036   3.781
 9460TIP3    H228345   6.528   3.151   3.683
 9461TIP3   OH228346   5.283   5.112   1.247
 9461TIP3    H128347   5.341   5.137   1.319
 9461TIP3    H228348   5.208   5.170   1.255
 9462TIP3   OH228349   6.979   4.373   4.172
 9462TIP3    H128350   6.989   4.278   4.170
 9462TIP3    H228351   7.028   4.401   4.249
 9463TIP3   OH228352   2.622   2.874   3.707
 9463TIP3    H128353   2.560   2.938   3.742
 9463TIP3    H228354   2.595   2.791   3.745
 9464TIP3   OH228355   2.575   2.650   2.395
 9464TIP3    H128356   2.562   2.555   2.396
 9464TIP3    H228357   2.510   2.682   2.333
 9465TIP3   OH228358   0.419   3.773   5.927
 9465TIP3    H128359   0.405   3.867   5.941
 9465TIP3    H228360   0.418   3.763   5.832
 9466TIP3   OH228361   1.068   3.833   0.890
 9466TIP3    H128362   1.144   3.792   0.933
 9466TIP3    H228363   1.072   3.925   0.917
 9467TIP3   OH228364   6.517   2.708   4.629
 9467TIP3    H128365   6.565   2.698   4.547
 9467TIP3    H228366   6.431   2.741   4.603
 9468TIP3   OH228367   6.326   1.658   2.599
 9468TIP3    H128368   6.295   1.581   2.646
 9468TIP3    H228369   6.302   1.642   2.508
 9469TIP3   OH228370   1.503   4.103   0.594
 9469TIP3    H128371   1.453   4.075   0.671
 9469TIP3    H228372   1.570   4.162   0.629
 9470TIP3   OH228373   4.029   0.636   1.768
 9470TIP3    H128374   4.090   0.694   1.814
 9470TIP3    H228375   3.997   0.576   1.835
 9471TIP3   OH228376   7.050   2.648   1.898
 9471TIP3    H128377   7.135   2.689   1.879
 9471TIP3    H228378   7.073   2.567   1.944
 9472TIP3   OH228379   1.670   2.664   5.316
 9472TIP3    H128380   1.650   2.707   5.400
 9472TIP3    H228381   1.619   2.583   5.318
 9473TIP3   OH228382   3.732   1.333   4.910
 9473TIP3    H128383   3.743   1.345   5.005
 9473TIP3    H228384   3.638   1.319   4.898
 9474TIP3   OH228385   2.818   2.267   4.715
 9474TIP3    H128386   2.751   2.335   4.708
 9474TIP3    H228387   2.771   2.191   4.750
 9475TIP3   OH228388   1.233   5.507   3.306
 9475TIP3    H128389   1.224   5.430   3.250
 9475TIP3    H228390   1.248   5.579   3.245
 9476TIP3   OH228391   3.242   4.865   4.170
 9476TIP3    H128392   3.281   4.790   4.125
 9476TIP3    H228393   3.283   4.864   4.257
 9477TIP3   OH228394   3.831   0.805   5.474
 9477TIP3    H128395   3.808   0.822   5.565
 9477TIP3    H228396   3.784   0.724   5.453
 9478TIP3   OH228397   0.080   3.005   5.547
 9478TIP3    H128398   0.039   3.027   5.630
 9478TIP3    H228399   0.024   2.937   5.510
 9479TIP3   OH228400   6.272   3.444   5.426
 9479TIP3    H128401   6.329   3.369   5.410
 9479TIP3    H228402   6.322   3.498   5.488
 9480TIP3   OH228403   2.629   5.087   4.486
 9480TIP3    H128404   2.704   5.140   4.461
 9480TIP3    H228405   2.605   5.039   4.407
 9481TIP3   OH228406   2.610   0.098   1.966
 9481TIP3    H128407   2.576   0.150   2.038
 9481TIP3    H228408   2.678   0.044   2.005
 9482TIP3   OH228409   6.551   1.218   1.282
 9482TIP3    H128410   6.456   1.218   1.273
 9482TIP3    H228411   6.583   1.204   1.193
 9483TIP3   OH228412   0.416   5.752   4.468
 9483TIP3    H128413   0.510   5.757   4.480
 9483TIP3    H228414   0.395   5.659   4.470
 9484TIP3   OH228415   3.581   3.472   0.407
 9484TIP3    H128416   3.564   3.398   0.465
 9484TIP3    H228417   3.513   3.536   0.429
 9485TIP3   OH228418   5.704   2.572   4.147
 9485TIP3    H128419   5.642   2.557   4.219
 9485TIP3    H228420   5.703   2.667   4.136
 9486TIP3   OH228421   2.023   5.298   0.888
 9486TIP3    H128422   2.087   5.365   0.912
 9486TIP3    H228423   1.948   5.314   0.945
 9487TIP3   OH228424   6.508   0.252   1.349
 9487TIP3    H128425   6.438   0.245   1.413
 9487TIP3    H228426   6.557   0.170   1.356
 9488TIP3   OH228427   4.143   0.829   0.798
 9488TIP3    H128428   4.216   0.879   0.762
 9488TIP3    H228429   4.081   0.821   0.725
 9489TIP3   OH228430   5.608   3.409   0.098
 9489TIP3    H128431   5.590   3.429   0.190
 9489TIP3    H228432   5.672   3.338   0.101
 9490TIP3   OH228433   1.814   3.914   1.686
 9490TIP3    H128434   1.814   3.918   1.781
 9490TIP3    H228435   1.735   3.961   1.659
 9491TIP3   OH228436   3.286   1.507   3.449
 9491TIP3    H128437   3.339   1.553   3.514
 9491TIP3    H228438   3.332   1.424   3.435
 9492TIP3   OH228439   5.068   4.171   1.372
 9492TIP3    H128440   5.123   4.097   1.399
 9492TIP3    H228441   5.023   4.140   1.293
 9493TIP3   OH228442   2.054   4.857   4.680
 9493TIP3    H128443   2.091   4.866   4.592
 9493TIP3    H228444   2.089   4.931   4.729
 9494TIP3   OH228445   1.624   6.224   2.698
 9494TIP3    H128446   1.690   6.268   2.645
 9494TIP3    H228447   1.543   6.231   2.646
 9495TIP3   OH228448   2.122   0.098   0.139
 9495TIP3    H128449   2.080   0.129   0.059
 9495TIP3    H228450   2.065   0.129   0.210
 9496TIP3   OH228451   4.547   0.225   2.610
 9496TIP3    H128452   4.560   0.313   2.645
 9496TIP3    H228453   4.589   0.167   2.674
 9497TIP3   OH228454   4.039   3.317   5.566
 9497TIP3    H128455   3.989   3.356   5.494
 9497TIP3    H228456   4.056   3.390   5.625
 9498TIP3   OH228457   2.286   0.159   5.686
 9498TIP3    H128458   2.250   0.210   5.614
 9498TIP3    H228459   2.381   0.165   5.674
 9499TIP3   OH228460   4.204   3.181   0.619
 9499TIP3    H128461   4.210   3.266   0.575
 9499TIP3    H228462   4.129   3.138   0.578
 9500TIP3   OH228463   3.810   0.290   4.115
 9500TIP3    H128464   3.818   0.383   4.132
 9500TIP3    H228465   3.752   0.284   4.039
 9501TIP3   OH228466   7.178   5.406   2.380
 9501TIP3    H128467   7.160   5.498   2.395
 9501TIP3    H228468   7.135   5.387   2.296
 9502TIP3   OH228469   2.645   2.043   1.110
 9502TIP3    H128470   2.611   1.962   1.148
 9502TIP3    H228471   2.695   2.014   1.034
 9503TIP3   OH228472   5.838   3.886   0.825
 9503TIP3    H128473   5.912   3.841   0.866
 9503TIP3    H228474   5.847   3.868   0.732
 9504TIP3   OH228475   1.449   0.722   1.740
 9504TIP3    H128476   1.468   0.702   1.648
 9504TIP3    H228477   1.386   0.655   1.767
 9505TIP3   OH228478   3.869   3.696   1.677
 9505TIP3    H128479   3.915   3.778   1.658
 9505TIP3    H228480   3.854   3.657   1.591
 9506TIP3   OH228481   2.295   2.504   5.090
 9506TIP3    H128482   2.357   2.519   5.019
 9506TIP3    H228483   2.310   2.576   5.151
 9507TIP3   OH228484   4.095   1.921   4.697
 9507TIP3    H128485   4.184   1.906   4.667
 9507TIP3    H228486   4.048   1.951   4.619
 9508TIP3   OH228487   5.825   3.134   4.951
 9508TIP3    H128488   5.773   3.179   5.018
 9508TIP3    H228489   5.908   3.113   4.995
 9509TIP3   OH228490   1.491   5.691   4.940
 9509TIP3    H128491   1.414   5.708   4.887
 9509TIP3    H228492   1.513   5.599   4.924
 9510TIP3   OH228493   1.659   4.887   4.281
 9510TIP3    H128494   1.674   4.958   4.344
 9510TIP3    H228495   1.580   4.913   4.234
 9511TIP3   OH228496   2.058   4.837   1.657
 9511TIP3    H128497   2.112   4.773   1.610
 9511TIP3    H228498   2.103   4.849   1.740
 9512TIP3   OH228499   0.754   5.126   2.534
 9512TIP3    H128500   0.788   5.202   2.582
 9512TIP3    H228501   0.793   5.051   2.579
 9513TIP3   OH228502   1.252   6.817   5.589
 9513TIP3    H128503   1.250   6.734   5.637
 9513TIP3    H228504   1.223   6.883   5.652
 9514TIP3   OH228505   5.087   2.829   2.507
 9514TIP3    H128506   5.112   2.854   2.418
 9514TIP3    H228507   5.002   2.786   2.498
 9515TIP3   OH228508   2.231   3.726   1.435
 9515TIP3    H128509   2.246   3.681   1.519
 9515TIP3    H228510   2.186   3.661   1.381
 9516TIP3   OH228511   3.784   4.563   4.317
 9516TIP3    H128512   3.868   4.548   4.275
 9516TIP3    H228513   3.770   4.485   4.371
 9517TIP3   OH228514   0.802   0.669   4.619
 9517TIP3    H128515   0.807   0.646   4.712
 9517TIP3    H228516   0.876   0.623   4.579
 9518TIP3   OH228517   5.670   6.590   4.265
 9518TIP3    H128518   5.596   6.620   4.318
 9518TIP3    H228519   5.700   6.669   4.220
 9519TIP3   OH228520   1.413   5.740   1.032
 9519TIP3    H128521   1.414   5.645   1.042
 9519TIP3    H228522   1.330   5.758   0.987
 9520TIP3   OH228523   4.105   5.538   5.103
 9520TIP3    H128524   4.027   5.487   5.081
 9520TIP3    H228525   4.073   5.608   5.160
 9521TIP3   OH228526   0.995   3.037   1.465
 9521TIP3    H128527   1.052   2.963   1.444
 9521TIP3    H228528   0.994   3.041   1.561
 9522TIP3   OH228529   4.737   4.176   1.879
 9522TIP3    H128530   4.751   4.172   1.784
 9522TIP3    H228531   4.690   4.095   1.899
 9523TIP3   OH228532   0.488   5.411   2.468
 9523TIP3    H128533   0.483   5.504   2.445
 9523TIP3    H228534   0.396   5.382   2.469
 9524TIP3   OH228535   2.209   1.753   0.903
 9524TIP3    H128536   2.138   1.711   0.855
 9524TIP3    H228537   2.172   1.834   0.936
 9525TIP3   OH228538   2.810   3.597   5.642
 9525TIP3    H128539   2.761   3.661   5.591
 9525TIP3    H228540   2.766   3.514   5.627
 9526TIP3   OH228541   5.042   5.852   0.384
 9526TIP3    H128542   5.103   5.925   0.391
 9526TIP3    H228543   5.055   5.801   0.464
 9527TIP3   OH228544   1.988   1.165   1.616
 9527TIP3    H128545   1.958   1.089   1.567
 9527TIP3    H228546   2.001   1.133   1.705
 9528TIP3   OH228547   0.280   0.578   3.163
 9528TIP3    H128548   0.266   0.668   3.195
 9528TIP3    H228549   0.310   0.530   3.240
 9529TIP3   OH228550   1.364   0.479   1.044
 9529TIP3    H128551   1.368   0.565   1.002
 9529TIP3    H228552   1.336   0.497   1.134
 9530TIP3   OH228553   5.410   0.268   0.973
 9530TIP3    H128554   5.319   0.258   1.001
 9530TIP3    H228555   5.410   0.347   0.918
 9531TIP3   OH228556   4.389   4.861   4.608
 9531TIP3    H128557   4.475   4.837   4.574
 9531TIP3    H228558   4.387   4.827   4.697
 9532TIP3   OH228559   4.638   1.204   1.691
 9532TIP3    H128560   4.647   1.265   1.617
 9532TIP3    H228561   4.606   1.123   1.652
 9533TIP3   OH228562   1.798   5.674   3.469
 9533TIP3    H128563   1.810   5.605   3.404
 9533TIP3    H228564   1.868   5.662   3.532
 9534TIP3   OH228565   5.003   4.612   1.924
 9534TIP3    H128566   4.913   4.641   1.937
 9534TIP3    H228567   5.007   4.586   1.832
 9535TIP3   OH228568   2.856   6.346   1.122
 9535TIP3    H128569   2.807   6.291   1.183
 9535TIP3    H228570   2.911   6.400   1.179
 9536TIP3   OH228571   4.579   6.306   0.959
 9536TIP3    H128572   4.544   6.244   1.023
 9536TIP3    H228573   4.630   6.251   0.899
 9537TIP3   OH228574   3.659   3.709   5.261
 9537TIP3    H128575   3.687   3.796   5.289
 9537TIP3    H228576   3.712   3.691   5.183
 9538TIP3   OH228577   4.750   5.171   0.871
 9538TIP3    H128578   4.756   5.077   0.889
 9538TIP3    H228579   4.797   5.183   0.789
 9539TIP3   OH228580   1.623   2.293   4.331
 9539TIP3    H128581   1.706   2.329   4.299
 9539TIP3    H228582   1.584   2.364   4.381
 9540TIP3   OH228583   5.025   2.093   5.814
 9540TIP3    H128584   5.105   2.092   5.867
 9540TIP3    H228585   4.996   2.184   5.816
 9541TIP3   OH228586   4.179   3.652   1.281
 9541TIP3    H128587   4.215   3.740   1.269
 9541TIP3    H228588   4.228   3.616   1.354
 9542TIP3   OH228589   1.217   3.718   5.108
 9542TIP3    H128590   1.249   3.704   5.019
 9542TIP3    H228591   1.208   3.630   5.144
 9543TIP3   OH228592   7.248   4.592   2.027
 9543TIP3    H128593   7.194   4.532   2.077
 9543TIP3    H228594   7.210   4.678   2.043
 9544TIP3   OH228595   5.965   2.626   1.354
 9544TIP3    H128596   5.875   2.621   1.320
 9544TIP3    H228597   6.020   2.613   1.277
 9545TIP3   OH228598   3.712   1.730   2.491
 9545TIP3    H128599   3.769   1.655   2.508
 9545TIP3    H228600   3.668   1.746   2.574
 9546TIP3   OH228601   1.096   0.788   3.490
 9546TIP3    H128602   1.106   0.693   3.484
 9546TIP3    H228603   1.029   0.801   3.557
 9547TIP3   OH228604   4.441   4.822   3.174
 9547TIP3    H128605   4.363   4.861   3.212
 9547TIP3    H228606   4.494   4.795   3.249
 9548TIP3   OH228607   5.231   3.366   4.841
 9548TIP3    H128608   5.189   3.282   4.821
 9548TIP3    H228609   5.302   3.344   4.901
 9549TIP3   OH228610   2.362   4.690   2.045
 9549TIP3    H128611   2.302   4.762   2.064
 9549TIP3    H228612   2.311   4.630   1.989
 9550TIP3   OH228613   2.618   4.071   0.401
 9550TIP3    H128614   2.708   4.083   0.368
 9550TIP3    H228615   2.588   3.990   0.359
 9551TIP3   OH228616   1.824   0.520   1.816
 9551TIP3    H128617   1.814   0.452   1.883
 9551TIP3    H228618   1.917   0.543   1.819
 9552TIP3   OH228619   4.896   0.480   2.613
 9552TIP3    H128620   4.987   0.474   2.643
 9552TIP3    H228621   4.900   0.537   2.536
 9553TIP3   OH228622   4.317   6.222   5.580
 9553TIP3    H128623   4.304   6.314   5.601
 9553TIP3    H228624   4.271   6.175   5.649
 9554TIP3   OH228625   2.462   0.966   5.199
 9554TIP3    H128626   2.386   1.020   5.222
 9554TIP3    H228627   2.447   0.884   5.246
 9555TIP3   OH228628   4.591   0.192   0.998
 9555TIP3    H128629   4.538   0.261   1.039
 9555TIP3    H228630   4.672   0.236   0.973
 9556TIP3   OH228631   0.882   6.465   4.793
 9556TIP3    H128632   0.800   6.506   4.821
 9556TIP3    H228633   0.938   6.470   4.870
 9557TIP3   OH228634   3.136   5.706   3.021
 9557TIP3    H128635   3.063   5.767   3.013
 9557TIP3    H228636   3.208   5.749   2.974
 9558TIP3   OH228637   3.124   5.236   1.427
 9558TIP3    H128638   3.159   5.319   1.394
 9558TIP3    H228639   3.097   5.188   1.349
 9559TIP3   OH228640   6.319   4.018   1.155
 9559TIP3    H128641   6.337   4.045   1.065
 9559TIP3    H228642   6.405   4.020   1.198
 9560TIP3   OH228643   0.998   6.403   0.693
 9560TIP3    H128644   0.990   6.473   0.758
 9560TIP3    H228645   1.022   6.449   0.612
 9561TIP3   OH228646   2.044   1.745   4.314
 9561TIP3    H128647   1.953   1.744   4.284
 9561TIP3    H228648   2.059   1.658   4.350
 9562TIP3   OH228649   0.714   3.815   0.014
 9562TIP3    H128650   0.728   3.901   0.054
 9562TIP3    H228651   0.695   3.835  -0.078
 9563TIP3   OH228652   3.027   4.669   0.710
 9563TIP3    H128653   2.988   4.582   0.722
 9563TIP3    H228654   3.101   4.671   0.770
 9564TIP3   OH228655   4.843   1.567   4.442
 9564TIP3    H128656   4.754   1.565   4.479
 9564TIP3    H228657   4.852   1.654   4.405
 9565TIP3   OH228658   2.915   0.817   4.217
 9565TIP3    H128659   2.902   0.819   4.122
 9565TIP3    H228660   2.951   0.730   4.235
 9566TIP3   OH228661   1.123   4.090   5.551
 9566TIP3    H128662   1.032   4.082   5.523
 9566TIP3    H228663   1.162   4.004   5.533
 9567TIP3   OH228664   6.517   0.849   2.944
 9567TIP3    H128665   6.588   0.787   2.930
 9567TIP3    H228666   6.561   0.931   2.967
 9568TIP3   OH228667   1.453   2.790   1.448
 9568TIP3    H128668   1.531   2.764   1.497
 9568TIP3    H228669   1.382   2.780   1.511
 9569TIP3   OH228670   0.177   0.822   4.708
 9569TIP3    H128671   0.150   0.744   4.757
 9569TIP3    H228672   0.242   0.864   4.764
 9570TIP3   OH228673   0.728   2.676   5.779
 9570TIP3    H128674   0.710   2.729   5.856
 9570TIP3    H228675   0.814   2.638   5.795
 9571TIP3   OH228676   3.970   1.558   5.806
 9571TIP3    H128677   3.887   1.556   5.853
 9571TIP3    H228678   3.971   1.477   5.755
 9572TIP3   OH228679   0.729   3.645   1.806
 9572TIP3    H128680   0.676   3.674   1.881
 9572TIP3    H228681   0.813   3.688   1.818
 9573TIP3   OH228682   3.215   5.487   4.539
 9573TIP3    H128683   3.202   5.400   4.500
 9573TIP3    H228684   3.154   5.488   4.613
 9574TIP3   OH228685   2.554   4.852   4.990
 9574TIP3    H128686   2.550   4.909   4.914
 9574TIP3    H228687   2.623   4.789   4.969
 9575TIP3   OH228688   4.653   1.591   4.009
 9575TIP3    H128689   4.650   1.544   4.092
 9575TIP3    H228690   4.741   1.629   4.006
 9576TIP3   OH228691   6.142   6.429   0.698
 9576TIP3    H128692   6.133   6.361   0.630
 9576TIP3    H228693   6.204   6.391   0.761
 9577TIP3   OH228694   2.687   1.406   5.225
 9577TIP3    H128695   2.692   1.343   5.297
 9577TIP3    H228696   2.768   1.455   5.231
 9578TIP3   OH228697   1.737   6.784   1.758
 9578TIP3    H128698   1.712   6.876   1.762
 9578TIP3    H228699   1.828   6.783   1.789
 9579TIP3   OH228700   3.751   2.551   5.184
 9579TIP3    H128701   3.793   2.466   5.176
 9579TIP3    H228702   3.668   2.542   5.138
 9580TIP3   OH228703   0.929   4.951   2.647
 9580TIP3    H128704   1.015   4.992   2.656
 9580TIP3    H228705   0.928   4.884   2.716
 9581TIP3   OH228706   2.831   5.722   0.571
 9581TIP3    H128707   2.912   5.751   0.613
 9581TIP3    H228708   2.859   5.660   0.504
 9582TIP3   OH228709   6.391   3.467   4.970
 9582TIP3    H128710   6.429   3.390   5.013
 9582TIP3    H228711   6.445   3.540   5.000
 9583TIP3   OH228712   3.210   2.099   5.685
 9583TIP3    H128713   3.270   2.118   5.756
 9583TIP3    H228714   3.196   2.004   5.690
 9584TIP3   OH228715   0.158   1.726   1.700
 9584TIP3    H128716   0.163   1.810   1.653
 9584TIP3    H228717   0.196   1.745   1.786
 9585TIP3   OH228718   6.740   3.587   2.319
 9585TIP3    H128719   6.705   3.655   2.377
 9585TIP3    H228720   6.817   3.627   2.279
 9586TIP3   OH228721   5.050   3.364   0.377
 9586TIP3    H128722   4.992   3.426   0.422
 9586TIP3    H228723   4.991   3.296   0.345
 9587TIP3   OH228724   1.431   2.978   0.733
 9587TIP3    H128725   1.475   2.911   0.785
 9587TIP3    H228726   1.473   2.973   0.647
 9588TIP3   OH228727   5.004   5.550   5.302
 9588TIP3    H128728   5.080   5.501   5.270
 9588TIP3    H228729   5.017   5.639   5.269
 9589TIP3   OH228730   2.493   4.320   1.136
 9589TIP3    H128731   2.473   4.285   1.050
 9589TIP3    H228732   2.415   4.302   1.188
 9590TIP3   OH228733   3.921   3.842   3.366
 9590TIP3    H128734   3.955   3.838   3.455
 9590TIP3    H228735   3.921   3.751   3.336
 9591TIP3   OH228736   0.753   1.593   4.430
 9591TIP3    H128737   0.679   1.643   4.394
 9591TIP3    H228738   0.746   1.507   4.389
 9592TIP3   OH228739   3.291   4.995   5.520
 9592TIP3    H128740   3.267   5.011   5.429
 9592TIP3    H228741   3.384   4.970   5.515
 9593TIP3   OH228742   3.159   0.262   5.562
 9593TIP3    H128743   3.246   0.258   5.523
 9593TIP3    H228744   3.106   0.306   5.496
 9594TIP3   OH228745   5.586   6.464   1.334
 9594TIP3    H128746   5.661   6.505   1.377
 9594TIP3    H228747   5.607   6.371   1.334
 9595TIP3   OH228748   2.773   5.151   0.890
 9595TIP3    H128749   2.844   5.187   0.837
 9595TIP3    H228750   2.764   5.212   0.963
 9596TIP3   OH228751   5.801   1.469   0.258
 9596TIP3    H128752   5.793   1.446   0.351
 9596TIP3    H228753   5.725   1.525   0.241
 9597TIP3   OH228754   2.716   3.910  -0.001
 9597TIP3    H128755   2.699   3.823   0.035
 9597TIP3    H228756   2.802   3.903  -0.044
 9598TIP3   OH228757   6.024   4.379   2.490
 9598TIP3    H128758   6.062   4.410   2.573
 9598TIP3    H228759   5.955   4.443   2.470
 9599TIP3   OH228760   4.290   3.542   1.502
 9599TIP3    H128761   4.255   3.526   1.590
 9599TIP3    H228762   4.383   3.557   1.516
 9600TIP3   OH228763   1.046   1.186   0.196
 9600TIP3    H128764   1.081   1.221   0.278
 9600TIP3    H228765   1.038   1.092   0.211
 9601TIP3   OH228766   0.584   4.291   2.782
 9601TIP3    H128767   0.614   4.212   2.827
 9601TIP3    H228768   0.493   4.302   2.810
 9602TIP3   OH228769   1.673   2.210   5.430
 9602TIP3    H128770   1.579   2.226   5.442
 9602TIP3    H228771   1.715   2.280   5.481
 9603TIP3   OH228772   3.648   5.673   3.059
 9603TIP3    H128773   3.645   5.583   3.027
 9603TIP3    H228774   3.682   5.724   2.986
 9604TIP3   OH228775   6.649   5.071   0.617
 9604TIP3    H128776   6.628   4.987   0.578
 9604TIP3    H228777   6.736   5.060   0.655
 9605TIP3   OH228778   2.861   1.972   3.923
 9605TIP3    H128779   2.954   1.989   3.909
 9605TIP3    H228780   2.823   2.058   3.937
 9606TIP3   OH228781   0.871   1.927   0.957
 9606TIP3    H128782   0.962   1.930   0.929
 9606TIP3    H228783   0.821   1.956   0.880
 9607TIP3   OH228784   4.423   6.573   2.046
 9607TIP3    H128785   4.441   6.648   1.989
 9607TIP3    H228786   4.475   6.502   2.008
 9608TIP3   OH228787   1.738   4.180   5.464
 9608TIP3    H128788   1.706   4.149   5.549
 9608TIP3    H228789   1.758   4.101   5.415
 9609TIP3   OH228790   4.444   1.669   0.786
 9609TIP3    H128791   4.535   1.699   0.780
 9609TIP3    H228792   4.425   1.666   0.880
 9610TIP3   OH228793   0.420   6.049   3.276
 9610TIP3    H128794   0.338   6.067   3.231
 9610TIP3    H228795   0.443   5.959   3.251
 9611TIP3   OH228796   1.285   1.856   3.024
 9611TIP3    H128797   1.289   1.833   3.117
 9611TIP3    H228798   1.257   1.948   3.024
 9612TIP3   OH228799   0.527   0.513   1.002
 9612TIP3    H128800   0.568   0.430   0.978
 9612TIP3    H228801   0.599   0.576   1.003
 9613TIP3   OH228802   6.505   0.249   2.557
 9613TIP3    H128803   6.523   0.343   2.550
 9613TIP3    H228804   6.431   0.243   2.617
 9614TIP3   OH228805   3.511   5.408   3.073
 9614TIP3    H128806   3.527   5.360   2.991
 9614TIP3    H228807   3.448   5.476   3.048
 9615TIP3   OH228808   3.918   3.853   5.627
 9615TIP3    H128809   3.851   3.874   5.562
 9615TIP3    H228810   3.953   3.768   5.598
 9616TIP3   OH228811   7.102   4.314   3.683
 9616TIP3    H128812   7.101   4.382   3.751
 9616TIP3    H228813   7.101   4.232   3.732
 9617TIP3   OH228814   2.291   0.274   2.133
 9617TIP3    H128815   2.383   0.298   2.126
 9617TIP3    H228816   2.284   0.189   2.089
 9618TIP3   OH228817   2.514   6.644   1.047
 9618TIP3    H128818   2.505   6.589   1.125
 9618TIP3    H228819   2.425   6.675   1.031
 9619TIP3   OH228820   7.122   1.201   2.751
 9619TIP3    H128821   7.216   1.191   2.735
 9619TIP3    H228822   7.117   1.242   2.838
 9620TIP3   OH228823   1.256   0.762   1.485
 9620TIP3    H128824   1.196   0.834   1.464
 9620TIP3    H228825   1.321   0.764   1.415
 9621TIP3   OH228826   0.499   1.509   3.365
 9621TIP3    H128827   0.491   1.506   3.270
 9621TIP3    H228828   0.454   1.430   3.395
 9622TIP3   OH228829   4.891   1.538   0.415
 9622TIP3    H128830   4.985   1.533   0.432
 9622TIP3    H228831   4.874   1.631   0.399
 9623TIP3   OH228832   5.052   6.599   3.481
 9623TIP3    H128833   5.019   6.511   3.465
 9623TIP3    H228834   5.145   6.593   3.462
 9624TIP3   OH228835   2.583   5.241   0.242
 9624TIP3    H128836   2.571   5.154   0.205
 9624TIP3    H228837   2.501   5.287   0.223
 9625TIP3   OH228838   5.010   5.411   0.438
 9625TIP3    H128839   5.017   5.362   0.356
 9625TIP3    H228840   5.100   5.431   0.462
 9626TIP3   OH228841   3.443   5.499   4.369
 9626TIP3    H128842   3.413   5.577   4.322
 9626TIP3    H228843   3.367   5.474   4.423
 9627TIP3   OH228844   5.446   0.404   4.913
 9627TIP3    H128845   5.379   0.417   4.847
 9627TIP3    H228846   5.506   0.478   4.902
 9628TIP3   OH228847   6.212   6.372   5.051
 9628TIP3    H128848   6.148   6.427   5.097
 9628TIP3    H228849   6.227   6.298   5.110
 9629TIP3   OH228850   6.322   6.460   5.826
 9629TIP3    H128851   6.381   6.491   5.756
 9629TIP3    H228852   6.341   6.367   5.834
 9630TIP3   OH228853   5.223   3.888   2.527
 9630TIP3    H128854   5.173   3.922   2.602
 9630TIP3    H228855   5.213   3.956   2.460
 9631TIP3   OH228856   7.044   2.959   5.761
 9631TIP3    H128857   6.998   3.026   5.709
 9631TIP3    H228858   7.000   2.877   5.739
 9632TIP3   OH228859   5.823   0.526   3.572
 9632TIP3    H128860   5.760   0.534   3.644
 9632TIP3    H228861   5.899   0.575   3.601
 9633TIP3   OH228862   4.134   0.245   0.043
 9633TIP3    H128863   4.177   0.329   0.057
 9633TIP3    H228864   4.153   0.195   0.122
 9634TIP3   OH228865   1.607   1.330   3.164
 9634TIP3    H128866   1.595   1.310   3.257
 9634TIP3    H228867   1.660   1.409   3.162
 9635TIP3   OH228868   4.546   3.395   5.618
 9635TIP3    H128869   4.496   3.361   5.692
 9635TIP3    H228870   4.621   3.336   5.610
 9636TIP3   OH228871   2.876   1.142   3.609
 9636TIP3    H128872   2.913   1.185   3.532
 9636TIP3    H228873   2.881   1.207   3.678
 9637TIP3   OH228874   2.745   5.374   5.221
 9637TIP3    H128875   2.829   5.330   5.229
 9637TIP3    H228876   2.732   5.416   5.307
 9638TIP3   OH228877   6.745   3.622   0.308
 9638TIP3    H128878   6.799   3.561   0.358
 9638TIP3    H228879   6.671   3.569   0.277
 9639TIP3   OH228880   3.486   4.121   5.294
 9639TIP3    H128881   3.454   4.055   5.232
 9639TIP3    H228882   3.413   4.182   5.304
 9640TIP3   OH228883   7.223   3.489   3.970
 9640TIP3    H128884   7.213   3.562   4.031
 9640TIP3    H228885   7.265   3.528   3.893
 9641TIP3   OH228886   2.502   2.063   3.625
 9641TIP3    H128887   2.408   2.043   3.617
 9641TIP3    H228888   2.523   2.041   3.716
 9642TIP3   OH228889   1.519   0.221   2.652
 9642TIP3    H128890   1.563   0.137   2.664
 9642TIP3    H228891   1.434   0.199   2.616
 9643TIP3   OH228892   4.456   4.809   4.157
 9643TIP3    H128893   4.375   4.758   4.157
 9643TIP3    H228894   4.525   4.745   4.137
 9644TIP3   OH228895   6.789   0.981   1.899
 9644TIP3    H128896   6.757   0.960   1.812
 9644TIP3    H228897   6.712   1.013   1.946
 9645TIP3   OH228898   4.927   1.903   1.183
 9645TIP3    H128899   5.019   1.913   1.207
 9645TIP3    H228900   4.879   1.919   1.264
 9646TIP3   OH228901   5.651   0.755   4.540
 9646TIP3    H128902   5.669   0.808   4.617
 9646TIP3    H228903   5.732   0.758   4.489
 9647TIP3   OH228904   1.572   6.377   5.872
 9647TIP3    H128905   1.663   6.402   5.890
 9647TIP3    H228906   1.540   6.339   5.954
 9648TIP3   OH228907   3.620   6.294   0.084
 9648TIP3    H128908   3.693   6.232   0.082
 9648TIP3    H228909   3.551   6.251   0.033
 9649TIP3   OH228910   7.139   2.213   5.088
 9649TIP3    H128911   7.066   2.246   5.036
 9649TIP3    H228912   7.098   2.157   5.154
 9650TIP3   OH228913   5.259   5.622   1.533
 9650TIP3    H128914   5.289   5.701   1.488
 9650TIP3    H228915   5.219   5.655   1.614
 9651TIP3   OH228916   5.214   0.576   0.909
 9651TIP3    H128917   5.180   0.665   0.921
 9651TIP3    H228918   5.309   0.585   0.912
 9652TIP3   OH228919   3.390   2.461   5.663
 9652TIP3    H128920   3.371   2.449   5.570
 9652TIP3    H228921   3.474   2.417   5.676
 9653TIP3   OH228922   2.964   4.839   2.197
 9653TIP3    H128923   2.976   4.904   2.128
 9653TIP3    H228924   3.018   4.871   2.270
 9654TIP3   OH228925   5.743   5.529   5.624
 9654TIP3    H128926   5.655   5.567   5.631
 9654TIP3    H228927   5.790   5.589   5.566
 9655TIP3   OH228928   1.906   5.935   1.703
 9655TIP3    H128929   1.815   5.919   1.678
 9655TIP3    H228930   1.957   5.875   1.649
 9656TIP3   OH228931   4.583   2.037   5.119
 9656TIP3    H128932   4.548   1.975   5.183
 9656TIP3    H228933   4.522   2.110   5.120
 9657TIP3   OH228934   0.642   3.530   5.279
 9657TIP3    H128935   0.723   3.562   5.321
 9657TIP3    H228936   0.590   3.495   5.351
 9658TIP3   OH228937   5.246   3.890   4.781
 9658TIP3    H128938   5.323   3.923   4.827
 9658TIP3    H228939   5.248   3.795   4.796
 9659TIP3   OH228940   5.863   1.422   2.247
 9659TIP3    H128941   5.906   1.439   2.331
 9659TIP3    H228942   5.932   1.437   2.182
 9660TIP3   OH228943   4.804   0.212   3.187
 9660TIP3    H128944   4.721   0.225   3.141
 9660TIP3    H228945   4.867   0.262   3.136
 9661TIP3   OH228946   3.432   5.137   3.687
 9661TIP3    H128947   3.425   5.231   3.666
 9661TIP3    H228948   3.360   5.097   3.639
 9662TIP3   OH228949   2.769   1.306   4.979
 9662TIP3    H128950   2.700   1.350   5.029
 9662TIP3    H228951   2.777   1.220   5.020
 9663TIP3   OH228952   6.493   6.278   0.529
 9663TIP3    H128953   6.487   6.273   0.433
 9663TIP3    H228954   6.444   6.202   0.560
 9664TIP3   OH228955   0.078   5.498   1.456
 9664TIP3    H128956   0.134   5.439   1.506
 9664TIP3    H228957   0.110   5.585   1.477
 9665TIP3   OH228958   3.426   4.775   1.659
 9665TIP3    H128959   3.484   4.821   1.598
 9665TIP3    H228960   3.338   4.798   1.629
 9666TIP3   OH228961   5.513   6.169   3.635
 9666TIP3    H128962   5.505   6.255   3.592
 9666TIP3    H228963   5.542   6.111   3.565
 9667TIP3   OH228964   0.461   1.101   5.618
 9667TIP3    H128965   0.408   1.075   5.542
 9667TIP3    H228966   0.404   1.084   5.693
 9668TIP3   OH228967   0.606   0.284   0.243
 9668TIP3    H128968   0.556   0.342   0.185
 9668TIP3    H228969   0.557   0.286   0.325
 9669TIP3   OH228970   0.769   6.693   4.898
 9669TIP3    H128971   0.796   6.784   4.892
 9669TIP3    H228972   0.673   6.696   4.906
 9670TIP3   OH228973   2.317   3.982   1.060
 9670TIP3    H128974   2.357   3.992   1.147
 9670TIP3    H228975   2.237   4.033   1.063
 9671TIP3   OH228976   4.089   0.078   5.169
 9671TIP3    H128977   4.088   0.042   5.258
 9671TIP3    H228978   4.130   0.164   5.179
 9672TIP3   OH228979   1.279   4.462   1.094
 9672TIP3    H128980   1.350   4.416   1.140
 9672TIP3    H228981   1.210   4.470   1.159
 9673TIP3   OH228982   3.056   1.186   2.668
 9673TIP3    H128983   3.051   1.175   2.573
 9673TIP3    H228984   2.967   1.211   2.693
 9674TIP3   OH228985   4.177   2.780   3.294
 9674TIP3    H128986   4.101   2.828   3.325
 9674TIP3    H228987   4.140   2.709   3.241
 9675TIP3   OH228988   0.423   3.513   5.089
 9675TIP3    H128989   0.500   3.480   5.135
 9675TIP3    H228990   0.349   3.487   5.143
 9676TIP3   OH228991   4.793   3.220   2.938
 9676TIP3    H128992   4.878   3.245   2.904
 9676TIP3    H228993   4.762   3.297   2.985
 9677TIP3   OH228994   1.126   5.794   2.712
 9677TIP3    H128995   1.053   5.766   2.657
 9677TIP3    H228996   1.092   5.869   2.760
 9678TIP3   OH228997   2.653   4.017   4.672
 9678TIP3    H128998   2.729   3.960   4.682
 9678TIP3    H228999   2.591   3.985   4.737
 9679TIP3   OH229000   1.334   3.155   1.891
 9679TIP3    H129001   1.378   3.208   1.824
 9679TIP3    H229002   1.367   3.189   1.974
 9680TIP3   OH229003   3.190   4.949   1.002
 9680TIP3    H129004   3.240   4.868   0.999
 9680TIP3    H229005   3.176   4.972   0.910
 9681TIP3   OH229006   5.899   3.296   1.124
 9681TIP3    H129007   5.881   3.259   1.211
 9681TIP3    H229008   5.957   3.233   1.083
 9682TIP3   OH229009   4.194   0.493   4.096
 9682TIP3    H129010   4.123   0.553   4.074
 9682TIP3    H229011   4.189   0.424   4.029
 9683TIP3   OH229012   6.648   5.351   0.442
 9683TIP3    H129013   6.610   5.270   0.406
 9683TIP3    H229014   6.688   5.324   0.524
 9684TIP3   OH229015   4.539   2.073   0.033
 9684TIP3    H129016   4.566   2.079  -0.059
 9684TIP3    H229017   4.487   2.151   0.048
 9685TIP3   OH229018   5.633   6.019   4.161
 9685TIP3    H129019   5.646   5.979   4.075
 9685TIP3    H229020   5.650   6.112   4.146
 9686TIP3   OH229021   6.108   0.607   2.254
 9686TIP3    H129022   6.073   0.521   2.234
 9686TIP3    H229023   6.198   0.605   2.220
 9687TIP3   OH229024   4.657   3.914   3.595
 9687TIP3    H129025   4.635   3.864   3.674
 9687TIP3    H229026   4.573   3.937   3.556
 9688TIP3   OH229027   2.963   3.546   3.895
 9688TIP3    H129028   3.050   3.511   3.877
 9688TIP3    H229029   2.907   3.468   3.901
 9689TIP3   OH229030   0.732   1.730   3.497
 9689TIP3    H129031   0.679   1.665   3.543
 9689TIP3    H229032   0.817   1.728   3.542
 9690TIP3   OH229033   4.765   3.929   1.359
 9690TIP3    H129034   4.676   3.892   1.354
 9690TIP3    H229035   4.821   3.861   1.321
 9691TIP3   OH229036   3.526   3.114   0.268
 9691TIP3    H129037   3.481   3.198   0.275
 9691TIP3    H229038   3.581   3.123   0.189
 9692TIP3   OH229039   3.193   1.470   0.865
 9692TIP3    H129040   3.109   1.455   0.822
 9692TIP3    H229041   3.204   1.394   0.924
 9693TIP3   OH229042   5.643   2.140   5.734
 9693TIP3    H129043   5.708   2.088   5.782
 9693TIP3    H229044   5.572   2.153   5.797
 9694TIP3   OH229045   1.302   2.153   1.588
 9694TIP3    H129046   1.256   2.126   1.508
 9694TIP3    H229047   1.378   2.095   1.593
 9695TIP3   OH229048   4.472   6.354   1.751
 9695TIP3    H129049   4.399   6.408   1.721
 9695TIP3    H229050   4.431   6.272   1.780
 9696TIP3   OH229051   6.034   1.686   5.527
 9696TIP3    H129052   5.981   1.607   5.515
 9696TIP3    H229053   5.993   1.732   5.600
 9697TIP3   OH229054   1.573   5.407   4.923
 9697TIP3    H129055   1.558   5.430   5.014
 9697TIP3    H229056   1.582   5.311   4.924
 9698TIP3   OH229057   1.181   1.142   4.335
 9698TIP3    H129058   1.212   1.148   4.245
 9698TIP3    H229059   1.219   1.219   4.378
 9699TIP3   OH229060   2.222   3.174   2.580
 9699TIP3    H129061   2.183   3.112   2.518
 9699TIP3    H229062   2.312   3.142   2.593
 9700TIP3   OH229063   2.996   0.837   1.413
 9700TIP3    H129064   3.011   0.921   1.457
 9700TIP3    H229065   2.919   0.852   1.358
 9701TIP3   OH229066   0.870   5.584   0.868
 9701TIP3    H129067   0.864   5.494   0.899
 9701TIP3    H229068   0.914   5.577   0.783
 9702TIP3   OH229069   6.151   2.591   5.174
 9702TIP3    H129070   6.126   2.677   5.208
 9702TIP3    H229071   6.228   2.608   5.120
 9703TIP3   OH229072   0.149   1.457   5.732
 9703TIP3    H129073   0.072   1.426   5.684
 9703TIP3    H229074   0.168   1.386   5.794
 9704TIP3   OH229075   3.055   3.236   4.356
 9704TIP3    H129076   3.089   3.298   4.291
 9704TIP3    H229077   3.038   3.156   4.306
 9705TIP3   OH229078   2.574   4.735   2.714
 9705TIP3    H129079   2.607   4.653   2.677
 9705TIP3    H229080   2.632   4.754   2.787
 9706TIP3   OH229081   2.100   6.527   5.851
 9706TIP3    H129082   2.020   6.575   5.873
 9706TIP3    H229083   2.081   6.436   5.877
 9707TIP3   OH229084   1.170   1.988   2.137
 9707TIP3    H129085   1.106   2.044   2.094
 9707TIP3    H229086   1.120   1.912   2.167
 9708TIP3   OH229087   6.221   5.638   1.727
 9708TIP3    H129088   6.178   5.723   1.724
 9708TIP3    H229089   6.172   5.589   1.794
 9709TIP3   OH229090   2.598   3.387   5.052
 9709TIP3    H129091   2.676   3.409   5.103
 9709TIP3    H229092   2.621   3.306   5.006
 9710TIP3   OH229093   4.243   4.334   0.308
 9710TIP3    H129094   4.148   4.345   0.305
 9710TIP3    H229095   4.272   4.340   0.217
 9711TIP3   OH229096   6.762   3.213   1.382
 9711TIP3    H129097   6.811   3.293   1.364
 9711TIP3    H229098   6.765   3.204   1.478
 9712TIP3   OH229099   0.573   6.417   3.297
 9712TIP3    H129100   0.483   6.394   3.322
 9712TIP3    H229101   0.568   6.509   3.272
 9713TIP3   OH229102   5.915   1.544   2.784
 9713TIP3    H129103   5.999   1.500   2.770
 9713TIP3    H229104   5.937   1.620   2.837
 9714TIP3   OH229105   4.636   1.138   1.175
 9714TIP3    H129106   4.636   1.217   1.122
 9714TIP3    H229107   4.556   1.145   1.228
 9715TIP3   OH229108   1.651   3.492   4.677
 9715TIP3    H129109   1.670   3.441   4.756
 9715TIP3    H229110   1.563   3.464   4.651
 9716TIP3   OH229111   0.115   4.878   1.881
 9716TIP3    H129112   0.156   4.793   1.863
 9716TIP3    H229113   0.102   4.879   1.976
 9717TIP3   OH229114   5.370   1.842   5.742
 9717TIP3    H129115   5.455   1.839   5.699
 9717TIP3    H229116   5.383   1.900   5.816
 9718TIP3   OH229117   4.217   1.167   4.428
 9718TIP3    H129118   4.215   1.181   4.333
 9718TIP3    H229119   4.216   1.072   4.438
 9719TIP3   OH229120   7.112   1.168   1.294
 9719TIP3    H129121   7.029   1.122   1.307
 9719TIP3    H229122   7.106   1.204   1.205
 9720TIP3   OH229123   6.753   3.598   1.134
 9720TIP3    H129124   6.827   3.634   1.183
 9720TIP3    H229125   6.714   3.534   1.193
 9721TIP3   OH229126   5.081   3.552   2.963
 9721TIP3    H129127   5.170   3.585   2.980
 9721TIP3    H229128   5.077   3.470   3.011
 9722TIP3   OH229129   2.828   4.575   3.523
 9722TIP3    H129130   2.818   4.670   3.528
 9722TIP3    H229131   2.738   4.541   3.522
 9723TIP3   OH229132   0.045   3.805   4.888
 9723TIP3    H129133  -0.019   3.747   4.848
 9723TIP3    H229134   0.050   3.880   4.828
 9724TIP3   OH229135   2.321   0.734   3.039
 9724TIP3    H129136   2.327   0.698   3.127
 9724TIP3    H229137   2.252   0.684   2.996
 9725TIP3   OH229138   5.516   1.537   0.451
 9725TIP3    H129139   5.487   1.483   0.378
 9725TIP3    H229140   5.553   1.475   0.514
 9726TIP3   OH229141   1.845   5.223   4.873
 9726TIP3    H129142   1.760   5.186   4.894
 9726TIP3    H229143   1.865   5.282   4.946
 9727TIP3   OH229144   0.874   5.024   5.149
 9727TIP3    H129145   0.828   4.944   5.176
 9727TIP3    H229146   0.862   5.084   5.223
 9728TIP3   OH229147   5.142   0.242   0.948
 9728TIP3    H129148   5.172   0.314   0.893
 9728TIP3    H229149   5.086   0.189   0.891
 9729TIP3   OH229150   1.240   2.666   1.024
 9729TIP3    H129151   1.280   2.587   1.061
 9729TIP3    H229152   1.305   2.735   1.038
 9730TIP3   OH229153   2.341   0.843   4.271
 9730TIP3    H129154   2.402   0.790   4.322
 9730TIP3    H229155   2.384   0.928   4.264
 9731TIP3   OH229156   0.309   2.730   3.986
 9731TIP3    H129157   0.281   2.641   3.968
 9731TIP3    H229158   0.379   2.720   4.051
 9732TIP3   OH229159   4.298   1.400   4.590
 9732TIP3    H129160   4.330   1.331   4.647
 9732TIP3    H229161   4.301   1.362   4.502
 9733TIP3   OH229162   3.174   3.268   5.346
 9733TIP3    H129163   3.169   3.360   5.371
 9733TIP3    H229164   3.159   3.220   5.427
 9734TIP3   OH229165   1.452   3.854   1.314
 9734TIP3    H129166   1.389   3.924   1.298
 9734TIP3    H229167   1.496   3.841   1.230
 9735TIP3   OH229168   7.057   5.173   2.877
 9735TIP3    H129169   7.066   5.142   2.787
 9735TIP3    H229170   7.124   5.241   2.887
 9736TIP3   OH229171   5.719   3.697   4.562
 9736TIP3    H129172   5.788   3.641   4.597
 9736TIP3    H229173   5.765   3.776   4.534
 9737TIP3   OH229174   0.427   5.364   5.672
 9737TIP3    H129175   0.364   5.294   5.654
 9737TIP3    H229176   0.390   5.441   5.629
 9738TIP3   OH229177   6.211   4.017   1.437
 9738TIP3    H129178   6.119   3.995   1.420
 9738TIP3    H229179   6.241   4.056   1.355
 9739TIP3   OH229180   0.183   1.993   0.765
 9739TIP3    H129181   0.180   1.964   0.856
 9739TIP3    H229182   0.191   2.088   0.770
 9740TIP3   OH229183   6.610   2.757   2.282
 9740TIP3    H129184   6.585   2.738   2.191
 9740TIP3    H229185   6.535   2.805   2.318
 9741TIP3   OH229186   1.995   0.138   4.907
 9741TIP3    H129187   2.077   0.110   4.865
 9741TIP3    H229188   1.946   0.057   4.920
 9742TIP3   OH229189   2.026   3.415   5.702
 9742TIP3    H129190   2.077   3.481   5.748
 9742TIP3    H229191   1.983   3.463   5.631
 9743TIP3   OH229192   1.060   4.977   3.936
 9743TIP3    H129193   0.971   4.997   3.963
 9743TIP3    H229194   1.074   5.030   3.858
 9744TIP3   OH229195   1.711   4.434   0.314
 9744TIP3    H129196   1.674   4.346   0.311
 9744TIP3    H229197   1.676   4.473   0.394
 9745TIP3   OH229198   5.850   1.362   4.427
 9745TIP3    H129199   5.844   1.267   4.439
 9745TIP3    H229200   5.936   1.377   4.389
 9746TIP3   OH229201   6.250   2.801   4.575
 9746TIP3    H129202   6.250   2.798   4.671
 9746TIP3    H229203   6.162   2.771   4.551
 9747TIP3   OH229204   6.043   4.144   4.563
 9747TIP3    H129205   6.028   4.222   4.617
 9747TIP3    H229206   6.130   4.156   4.526
 9748TIP3   OH229207   4.432   6.031   5.400
 9748TIP3    H129208   4.376   6.080   5.460
 9748TIP3    H229209   4.521   6.051   5.429
 9749TIP3   OH229210   0.902   2.470   3.211
 9749TIP3    H129211   0.818   2.513   3.228
 9749TIP3    H229212   0.878   2.381   3.183
   7.21374   6.80119   5.88999   0.00000   0.00000  -2.40459   0.00000  -2.40459  -3.40059
