Title
29212
    1ASP      N    1   5.202   3.805   3.206 -0.0087 -0.9040 -0.2083
    1ASP    HT1    2   5.282   3.865   3.177 -0.7191 -0.2357 -0.7763
    1ASP    HT2    3   5.149   3.769   3.124 -2.2438  2.2061 -0.1841
    1ASP    HT3    4   5.244   3.724   3.257 -0.3840 -0.5891  0.6160
    1ASP     CA    5   5.109   3.891   3.297  0.4346  0.1508  0.3149
    1ASP     HA    6   5.168   3.915   3.385  1.4503 -0.2320 -0.2447
    1ASP     CB    7   5.062   4.021   3.209  0.0640  0.0002  0.9961
    1ASP    HB1    8   5.001   4.078   3.283  1.1976  0.0314  1.9121
    1ASP    HB2    9   5.014   3.986   3.115  1.7070  1.2832 -0.3480
    1ASP     CG   10   5.181   4.109   3.170  0.1699 -0.1265  0.1305
    1ASP    OD1   11   5.292   4.105   3.235  0.4218 -0.1526 -0.0255
    1ASP    OD2   12   5.155   4.200   3.090 -0.8809  0.3172  0.0569
    1ASP      C   13   4.989   3.808   3.348  0.0941  0.2820 -0.4164
    1ASP      O   14   4.930   3.722   3.279  0.5810 -0.0742  0.3388
    2GLY      N   15   4.965   3.822   3.480 -0.1778  0.1161  0.1461
    2GLY     HN   16   5.031   3.866   3.540  1.2663 -0.2198 -1.1570
    2GLY     CA   17   4.867   3.742   3.552  0.0374  0.1388  0.1578
    2GLY    HA1   18   4.867   3.778   3.654  0.5775 -2.0237  0.9539
    2GLY    HA2   19   4.898   3.639   3.540  3.2385  0.7623  2.4008
    2GLY      C   20   4.720   3.739   3.508  0.4607 -0.5021 -0.1513
    2GLY      O   21   4.676   3.812   3.416 -0.0339 -0.1425 -0.2502
    3ASP      N   22   4.647   3.648   3.569 -0.0035 -0.1850  0.3742
    3ASP     HN   23   4.688   3.599   3.646 -1.0176  1.0265  1.7231
    3ASP     CA   24   4.510   3.621   3.543  0.8150  0.0070 -0.6567
    3ASP     HA   25   4.518   3.584   3.442  2.6549 -0.3710 -0.4068
    3ASP     CB   26   4.452   3.508   3.640 -0.3758 -0.1682 -0.1295
    3ASP    HB1   27   4.342   3.493   3.634 -0.4697 -0.2744  1.4653
    3ASP    HB2   28   4.475   3.541   3.744  0.3160 -0.6711 -0.1179
    3ASP     CG   29   4.526   3.377   3.608  0.7751 -0.7808 -0.3372
    3ASP    OD1   30   4.592   3.358   3.507 -0.5689  0.6154 -0.0079
    3ASP    OD2   31   4.509   3.286   3.692  0.0938 -0.1785 -0.4891
    3ASP      C   32   4.408   3.740   3.547  0.0688 -0.0423 -0.1690
    3ASP      O   33   4.411   3.822   3.637  0.2183  0.0760  0.6359
    4GLY      N   34   4.310   3.741   3.458  0.0580  0.4196 -0.2906
    4GLY     HN   35   4.291   3.656   3.410  1.5275 -0.6676  1.0070
    4GLY     CA   36   4.215   3.852   3.460  0.2992  0.7121 -0.2753
    4GLY    HA1   37   4.150   3.848   3.374  0.7258  0.3169 -0.5802
    4GLY    HA2   38   4.271   3.945   3.460  1.2206  0.1746 -1.2272
    4GLY      C   39   4.117   3.860   3.573  0.7382 -0.8514  0.4521
    4GLY      O   40   4.116   3.764   3.654 -0.1028 -0.3404  0.0572
    5PRO      N   41   4.020   3.957   3.579  0.0599 -0.2727  0.1187
    5PRO     CD   42   4.016   4.082   3.494 -0.0357 -0.4363  0.4326
    5PRO    HD1   43   3.985   4.048   3.393 -2.6569 -0.0753  1.0746
    5PRO    HD2   44   4.114   4.132   3.480 -0.5338  0.0167 -1.6052
    5PRO     CA   45   3.898   3.946   3.659 -0.4779 -0.7819 -0.2221
    5PRO     HA   46   3.937   3.967   3.758  0.4905 -1.9947 -0.3417
    5PRO     CB   47   3.808   4.063   3.606 -0.5295  0.2304 -0.1946
    5PRO    HB1   48   3.736   4.106   3.679 -0.1219 -0.0674  0.3807
    5PRO    HB2   49   3.750   4.030   3.517 -0.8731 -1.4157  0.6187
    5PRO     CG   50   3.905   4.164   3.550 -0.2400  0.0207  0.3807
    5PRO    HG1   51   3.854   4.230   3.477  1.8668  0.2749 -0.9066
    5PRO    HG2   52   3.936   4.233   3.631  1.2609  0.5944 -0.6717
    5PRO      C   53   3.832   3.812   3.661 -0.2521  0.2841  0.3155
    5PRO      O   54   3.802   3.747   3.563  0.4694 -0.6389 -0.1920
    6GLY      N   55   3.805   3.761   3.783 -0.1955  0.2818 -0.0312
    6GLY     HN   56   3.840   3.801   3.867 -0.9272  1.6751 -0.3693
    6GLY     CA   57   3.720   3.642   3.807 -1.0226 -0.4748 -0.5494
    6GLY    HA1   58   3.727   3.622   3.913  1.2224 -2.0804 -0.9839
    6GLY    HA2   59   3.739   3.557   3.743 -0.5035 -0.4082 -0.4824
    6GLY      C   60   3.579   3.673   3.778  0.3520 -0.0626 -0.2610
    6GLY      O   61   3.547   3.789   3.747  0.1184 -0.1856 -0.0288
    7ASP      N   62   3.485   3.574   3.777 -0.1239  0.8703 -0.3705
    7ASP     HN   63   3.501   3.484   3.818 -2.1644 -0.2266 -1.9410
    7ASP     CA   64   3.354   3.588   3.729  0.9016  0.5735  0.2584
    7ASP     HA   65   3.364   3.644   3.638  0.3469 -1.3639 -1.0322
    7ASP     CB   66   3.285   3.447   3.700  0.0127 -0.2465  0.2773
    7ASP    HB1   67   3.175   3.455   3.688  0.4143  0.9152 -3.1942
    7ASP    HB2   68   3.307   3.381   3.787 -0.6216  0.3503  0.8902
    7ASP     CG   69   3.336   3.392   3.571  0.7631  0.6373 -0.1508
    7ASP    OD1   70   3.377   3.474   3.480  0.2151  0.9289 -0.0642
    7ASP    OD2   71   3.320   3.271   3.540  0.0450  0.0430  0.1749
    7ASP      C   72   3.258   3.663   3.821 -0.0863 -0.3957  0.0456
    7ASP      O   73   3.284   3.681   3.944  0.1322  0.1891  0.6647
    8PRO      N   74   3.150   3.716   3.766  0.1924  0.3904 -0.4362
    8PRO     CD   75   3.130   3.735   3.623  0.8084 -0.2609  0.2338
    8PRO    HD1   76   3.110   3.632   3.584 -0.2416  0.2992 -0.7397
    8PRO    HD2   77   3.217   3.774   3.566 -1.3028  2.5479 -1.1637
    8PRO     CA   78   3.035   3.764   3.843 -0.1285  0.1171 -1.2009
    8PRO     HA   79   3.060   3.858   3.891 -0.8648  0.6552 -1.8520
    8PRO     CB   80   2.923   3.787   3.740 -1.0595 -0.4160 -0.6643
    8PRO    HB1   81   2.852   3.867   3.769  0.7965  1.1751 -0.4237
    8PRO    HB2   82   2.875   3.688   3.721 -1.1306 -0.6720  0.8004
    8PRO     CG   83   3.002   3.825   3.612  0.0192 -0.1918  0.8685
    8PRO    HG1   84   2.933   3.815   3.526  0.5068  1.5210  0.2711
    8PRO    HG2   85   3.017   3.935   3.607 -0.8158 -0.0561  1.1978
    8PRO      C   86   2.995   3.655   3.946  0.1465 -0.1403 -0.3988
    8PRO      O   87   2.994   3.541   3.909  0.3355  0.3873  0.3427
    9GLY      N   88   2.953   3.683   4.070 -0.2911 -0.1730  0.2516
    9GLY     HN   89   2.959   3.777   4.102  1.9540 -0.0965 -0.2946
    9GLY     CA   90   2.899   3.571   4.154 -0.0425  0.3492 -0.2479
    9GLY    HA1   91   2.893   3.607   4.255  1.0941  1.4990 -0.5702
    9GLY    HA2   92   2.957   3.481   4.139 -0.2512  0.2306 -0.3513
    9GLY      C   93   2.756   3.535   4.104 -0.4045 -0.3097  0.3086
    9GLY      O   94   2.686   3.615   4.035  0.1012  0.0697  0.1568
   10ASP      N   95   2.713   3.402   4.123  0.1327  0.4931 -0.1511
   10ASP     HN   96   2.764   3.337   4.179  0.0168  0.7686  0.2803
   10ASP     CA   97   2.575   3.364   4.097  0.6698  0.4319  0.0100
   10ASP     HA   98   2.548   3.387   3.995 -1.3166 -3.3149 -0.3902
   10ASP     CB   99   2.558   3.212   4.110  0.2383 -0.1269  0.2342
   10ASP    HB1  100   2.452   3.188   4.130  0.2013 -1.6545 -1.7285
   10ASP    HB2  101   2.632   3.169   4.182  1.1610  1.2837  0.1581
   10ASP     CG  102   2.608   3.140   3.984 -0.0407 -0.3529 -0.1416
   10ASP    OD1  103   2.649   3.205   3.886  0.2186 -0.7212  0.0113
   10ASP    OD2  104   2.604   3.017   3.987  0.1430  0.3572  0.0775
   10ASP      C  105   2.478   3.450   4.190  0.0507 -0.0311  0.0342
   10ASP      O  106   2.508   3.458   4.312 -0.1879 -0.3747  0.1030
   11GLY      N  107   2.378   3.518   4.129 -0.2912  0.2534  0.6452
   11GLY     HN  108   2.341   3.492   4.040  2.4022 -2.2921  0.2133
   11GLY     CA  109   2.289   3.603   4.206  0.9028  0.1607  0.0966
   11GLY    HA1  110   2.258   3.676   4.133 -0.3386 -0.4937 -0.0338
   11GLY    HA2  111   2.344   3.644   4.289  1.8371 -2.4170  0.8071
   11GLY      C  112   2.167   3.525   4.250 -0.3510  0.6711  0.0239
   11GLY    OT1  113   2.081   3.585   4.322 -0.4231  0.0794  0.3489
   11GLY    OT2  114   2.146   3.403   4.221  0.2043  0.3469 -0.2993
   12LIT    LIT  115   0.267   5.651   1.702  0.6095 -0.1889 -0.5405
   13LIT    LIT  116   1.078   2.057   2.401  0.5074  0.2214 -0.3612
   14LIT    LIT  117   0.802   6.672   3.825 -0.0637 -0.6212  0.2147
   15LIT    LIT  118   0.563   5.146   0.151 -0.1956 -1.4859 -0.8314
   16LIT    LIT  119   6.067   6.235   1.429  1.2377  0.0846  0.3143
   17LIT    LIT  120   1.083   5.226   2.018  0.8396 -0.1543  0.2656
   18LIT    LIT  121   0.296   5.491   3.931 -1.3621 -0.4990 -1.1434
   19LIT    LIT  122   2.587   6.792   2.084  0.5493 -0.3834  0.4580
   20LIT    LIT  123   0.919   6.308   5.230  0.4644  0.4185  0.9405
   21LIT    LIT  124   1.020   3.489   3.256 -0.3393  0.2720  0.7451
   22LIT    LIT  125   6.929   3.444   2.089  0.1448 -0.3513  0.2560
   23LIT    LIT  126   6.326   0.108   4.675 -0.5860 -0.7341  0.6199
   24LIT    LIT  127   4.796   5.211   3.242 -0.0741  0.4174 -0.0651
   25LIT    LIT  128   4.135   3.960   0.299  0.2951  0.1524  0.0546
   26LIT    LIT  129   4.131   3.615   2.521  0.5580 -0.2628 -0.4715
   27LIT    LIT  130   6.330   2.580   0.256  0.5001  0.0715 -0.4578
   28LIT    LIT  131   5.083   6.322   5.486  0.1091 -0.6645  0.6721
   29LIT    LIT  132   4.234   0.317   1.879  0.1588 -0.6035  0.4172
   30LIT    LIT  133   5.446   3.787   4.981  0.1552  0.4833 -0.5108
   31LIT    LIT  134   5.647   2.040   0.401 -0.8619 -0.3770  0.8591
   32LIT    LIT  135   7.089   6.068   3.282 -0.2446  0.1533 -0.4499
   33LIT    LIT  136   2.275   3.458   1.113 -0.4845  0.4968 -0.1117
   34LIT    LIT  137   3.547   3.038   4.892  0.1211 -0.2881  1.0967
   35LIT    LIT  138   1.502   3.734   4.391 -0.4744 -0.1602 -0.3970
   36LIT    LIT  139   7.069   5.313   3.573  0.1663  0.2915 -0.4274
   37LIT    LIT  140   0.693   2.218   4.833  0.6938  1.0087 -0.1517
   38LIT    LIT  141   1.272   5.471   1.525  0.1111  0.3217  0.0339
   39LIT    LIT  142   6.311   0.323   5.570  0.2375  0.9768 -0.4027
   40LIT    LIT  143   3.597   3.124   3.780  0.9991 -0.7350  0.2794
   41LIT    LIT  144   3.314   1.979   2.416 -0.1709  0.0546  0.3338
   42LIT    LIT  145   6.132   0.348   0.227  0.1344 -0.9361  0.0929
   43CLA    CLA  146   3.823   6.198   5.822 -0.4589 -0.3384  0.4602
   44CLA    CLA  147   1.607   1.034   5.646  0.0136 -0.1876 -0.2996
   45CLA    CLA  148   0.480   1.662   3.632 -0.2269  0.2230 -0.6713
   46CLA    CLA  149   7.237   5.932   2.422  0.2411  0.1721 -0.2005
   47CLA    CLA  150   6.102   6.475   2.308  0.3185  0.3203  0.1998
   48CLA    CLA  151   0.706   2.120   2.051  0.3429 -0.0910 -0.0802
   49CLA    CLA  152   1.142   6.628   0.766 -0.0713 -0.0086  0.5898
   50CLA    CLA  153   1.424   3.426   3.244 -0.0746 -0.1502  0.2982
   51CLA    CLA  154   4.367   0.857   5.814  0.1868  0.9557 -0.1651
   52CLA    CLA  155   6.825   2.949   3.126  0.0701  0.0432  0.0000
   53CLA    CLA  156   6.528   1.168   1.435  0.1313  0.0129  0.1100
   54CLA    CLA  157   6.207   2.390   0.296 -0.0964  0.4083 -0.0993
   55CLA    CLA  158   5.237   6.406   2.488 -0.2425 -0.1944  0.0772
   56CLA    CLA  159   3.027   5.834   2.548  0.5184 -0.0229 -0.0514
   57CLA    CLA  160   3.042   6.700   0.218  0.1190 -0.2190  0.0210
   58CLA    CLA  161   6.878   2.856   3.889  0.3983  0.1120  0.2433
   59CLA    CLA  162   2.662   0.725   4.759  0.0172  0.3419  0.3061
   60CLA    CLA  163   0.492   6.562   3.174  0.2164  0.3104  0.4975
   61CLA    CLA  164   5.875   2.259   0.971  0.2042  0.1108 -0.3459
   62CLA    CLA  165   6.767   0.199   4.736  0.2697 -0.1438 -0.1695
   63CLA    CLA  166   0.857   5.186   1.632  0.0146  0.1283 -0.3811
   64CLA    CLA  167   1.605   3.372   1.056  0.0240 -0.3357 -0.1803
   65CLA    CLA  168   3.354   0.602   2.845 -0.1815  0.4485 -0.1032
   66CLA    CLA  169   6.954   5.138   3.679 -0.2059 -0.4708  0.1167
   67CLA    CLA  170   3.539   3.953   2.377  0.4372  0.1629  0.4158
   68CLA    CLA  171   3.270   4.173   5.786 -0.1192  0.0265  0.0617
   69CLA    CLA  172   2.526   5.944   1.260 -0.6581 -0.0096 -0.2191
   70TIP3   OH2  173   3.879   1.375   2.854 -0.0775 -0.1398  0.1659
   70TIP3    H1  174   3.954   1.434   2.842  1.0634 -1.6559 -0.3698
   70TIP3    H2  175   3.816   1.403   2.789  0.8306 -0.0841 -0.7006
   71TIP3   OH2  176   0.853   6.346   1.798 -0.5339 -0.1063 -0.5813
   71TIP3    H1  177   0.894   6.413   1.744  0.2836 -0.8590 -0.8921
   71TIP3    H2  178   0.883   6.263   1.761 -1.1374 -0.6418  0.1154
   72TIP3   OH2  179   5.952   5.397   4.325 -0.0747 -0.3634 -0.2503
   72TIP3    H1  180   5.907   5.468   4.279  0.3779  0.2229  0.2087
   72TIP3    H2  181   6.023   5.371   4.266 -0.0802 -0.2592 -0.3035
   73TIP3   OH2  182   0.485   5.778   2.952 -0.7144  0.3287 -0.0942
   73TIP3    H1  183   0.468   5.684   2.958 -3.1828  0.6890 -1.0078
   73TIP3    H2  184   0.399   5.819   2.955  0.2968  2.5520 -0.1682
   74TIP3   OH2  185   6.895   0.461   1.552 -0.9126  1.0797  0.2333
   74TIP3    H1  186   6.847   0.503   1.624 -0.7056  0.6402  0.6257
   74TIP3    H2  187   6.947   0.393   1.593 -1.4376  0.2626 -0.4381
   75TIP3   OH2  188   2.762   0.616   2.688  0.0481 -0.1794  0.7742
   75TIP3    H1  189   2.741   0.699   2.731 -0.0586  0.7862 -1.0937
   75TIP3    H2  190   2.856   0.619   2.674 -0.3551  1.0293 -2.0428
   76TIP3   OH2  191   7.081   0.589   1.951  0.5052  0.3374 -0.1305
   76TIP3    H1  192   7.123   0.669   1.920 -0.8611  1.5547  1.1008
   76TIP3    H2  193   7.068   0.603   2.045 -2.2266 -0.1799 -0.3926
   77TIP3   OH2  194   2.253   1.767   2.773 -0.3141 -0.0939  0.1301
   77TIP3    H1  195   2.176   1.766   2.830  0.2348  1.2251  0.9115
   77TIP3    H2  196   2.266   1.859   2.750  1.2166 -0.2484  0.2736
   78TIP3   OH2  197   4.010   1.950   1.940 -0.0865 -0.2838 -0.5143
   78TIP3    H1  198   4.083   1.899   1.975 -0.4499  0.0981  0.8411
   78TIP3    H2  199   3.939   1.935   2.002 -0.4201  1.2503 -0.4948
   79TIP3   OH2  200   0.583   0.652   1.581 -0.0960  0.2690  0.1492
   79TIP3    H1  201   0.675   0.672   1.601 -0.2263  1.9357 -0.8586
   79TIP3    H2  202   0.536   0.671   1.662  0.4206 -0.4678  0.6298
   80TIP3   OH2  203   0.784   4.946   3.607 -0.3321 -0.1302  0.0754
   80TIP3    H1  204   0.784   4.950   3.511 -1.8372  1.0820  0.1048
   80TIP3    H2  205   0.792   4.853   3.628  0.9703 -0.3178 -1.2102
   81TIP3   OH2  206   3.486   1.619   3.473 -0.4365  0.3885  0.2915
   81TIP3    H1  207   3.513   1.641   3.562  0.7613  1.5861 -0.3588
   81TIP3    H2  208   3.499   1.525   3.467 -1.3587  0.1574  1.6630
   82TIP3   OH2  209   1.805   5.814   2.030  0.7343  0.0649 -0.3549
   82TIP3    H1  210   1.831   5.721   2.033  0.7083  0.0854  0.4398
   82TIP3    H2  211   1.844   5.846   1.948  3.9515  0.3027  1.2137
   83TIP3   OH2  212   4.630   1.271   3.593  0.3303  0.0035 -0.1847
   83TIP3    H1  213   4.700   1.333   3.571  1.0030 -1.2402 -1.7185
   83TIP3    H2  214   4.644   1.198   3.532 -2.0658 -0.4522 -0.2316
   84TIP3   OH2  215   0.893   0.191   3.370  0.6212  0.1752  0.0195
   84TIP3    H1  216   0.808   0.162   3.338  0.5881 -0.6046  0.7954
   84TIP3    H2  217   0.896   0.163   3.461  1.4827  0.6946  0.1677
   85TIP3   OH2  218   6.200   6.039   2.289 -0.3596 -0.1471 -0.1391
   85TIP3    H1  219   6.239   5.985   2.357  0.6251 -0.5260 -0.9817
   85TIP3    H2  220   6.107   6.040   2.309 -0.1162 -0.4613  1.0554
   86TIP3   OH2  221   6.011   6.944   2.379  0.2839 -0.1369  0.6914
   86TIP3    H1  222   5.952   6.936   2.304  0.1457 -1.2289  0.9051
   86TIP3    H2  223   6.084   6.886   2.358  1.8591  2.0926 -0.0942
   87TIP3   OH2  224   0.515   6.125   2.168  0.0524 -0.0250  0.2651
   87TIP3    H1  225   0.531   6.216   2.140 -0.0095 -0.1927 -0.3219
   87TIP3    H2  226   0.433   6.130   2.218 -2.1604 -0.3745 -3.1437
   88TIP3   OH2  227   2.765   0.087   3.485 -0.1685  1.1477 -0.3840
   88TIP3    H1  228   2.678   0.104   3.449 -0.0965  2.3609 -0.0201
   88TIP3    H2  229   2.796   0.173   3.513  0.2123  0.4103  1.5819
   89TIP3   OH2  230   3.279   1.861   0.149 -0.5501 -0.4407  0.0981
   89TIP3    H1  231   3.302   1.875   0.241 -1.9219 -0.2046  0.4150
   89TIP3    H2  232   3.215   1.929   0.130 -0.0150 -0.2680 -1.1443
   90TIP3   OH2  233   0.803   1.132   1.528 -0.3691 -0.2517  0.5301
   90TIP3    H1  234   0.760   1.198   1.583 -0.5295  0.9522 -0.9981
   90TIP3    H2  235   0.731   1.082   1.490 -0.2816 -0.6774  0.9243
   91TIP3   OH2  236   2.499   0.072   1.758 -0.0486  0.5991  0.7093
   91TIP3    H1  237   2.534   0.075   1.669 -0.6947  3.1887  0.5173
   91TIP3    H2  238   2.574   0.048   1.813  0.2491 -1.4546 -0.5551
   92TIP3   OH2  239   4.894   6.557   1.174  0.0707 -0.0391 -0.2866
   92TIP3    H1  240   4.916   6.549   1.267 -1.9770  0.2775  0.2479
   92TIP3    H2  241   4.968   6.518   1.128  0.8991 -0.6052  1.4943
   93TIP3   OH2  242   0.356   0.342   3.699  0.4221  0.9164  0.1338
   93TIP3    H1  243   0.281   0.381   3.653 -0.8889 -0.6519  0.9084
   93TIP3    H2  244   0.421   0.329   3.630 -1.1494 -0.4842 -1.1412
   94TIP3   OH2  245   1.127   1.665   4.543 -0.2238  0.4794  0.3456
   94TIP3    H1  246   1.118   1.755   4.511 -1.9457  0.2086  0.0176
   94TIP3    H2  247   1.054   1.618   4.504  0.3272 -0.9431  0.9843
   95TIP3   OH2  248   7.161   4.966   1.192 -0.3720  0.0136 -0.1688
   95TIP3    H1  249   7.202   4.880   1.201 -0.4745  0.0840  1.0116
   95TIP3    H2  250   7.131   4.968   1.101  1.8201 -0.2149 -0.9423
   96TIP3   OH2  251   0.927   1.783   3.013  0.2200  0.1465  0.2228
   96TIP3    H1  252   0.887   1.709   3.057  0.7362 -0.6821 -0.6834
   96TIP3    H2  253   0.999   1.746   2.962  1.6033  1.5071  1.1450
   97TIP3   OH2  254   3.288   1.030   3.145 -0.1738  0.4262 -0.3426
   97TIP3    H1  255   3.307   1.014   3.052  0.4499  1.4283 -0.3961
   97TIP3    H2  256   3.289   1.125   3.153 -3.7064  0.5256 -0.0379
   98TIP3   OH2  257   4.171   1.184   3.370 -0.0187  1.3977 -0.1964
   98TIP3    H1  258   4.126   1.225   3.443  0.3257 -0.7941  1.2969
   98TIP3    H2  259   4.218   1.255   3.327 -1.8992  3.0743  0.4372
   99TIP3   OH2  260   3.609   2.192   2.119  0.1351  0.8841  0.0818
   99TIP3    H1  261   3.595   2.232   2.033 -2.7235  1.8949  0.9797
   99TIP3    H2  262   3.639   2.264   2.174 -0.9254  0.8653  0.6765
  100TIP3   OH2  263   7.263   6.274   0.064  0.0780  0.1001 -0.0454
  100TIP3    H1  264   7.317   6.197   0.045 -0.8091 -1.1800  2.4394
  100TIP3    H2  265   7.212   6.249   0.141 -1.7191  2.4554 -0.4284
  101TIP3   OH2  266   1.298   0.120   1.923 -0.0561  0.5044 -0.0100
  101TIP3    H1  267   1.363   0.058   1.955  0.8616  0.2375 -2.3456
  101TIP3    H2  268   1.340   0.206   1.933  1.0290  0.2635 -2.3524
  102TIP3   OH2  269   3.498   0.619   1.966 -0.1453 -0.1818  0.4935
  102TIP3    H1  270   3.528   0.618   2.057 -1.3752 -1.9288  0.8946
  102TIP3    H2  271   3.402   0.618   1.973 -0.2287 -2.2360 -0.8242
  103TIP3   OH2  272   4.706   0.824   1.376 -0.0850 -0.0758 -0.4935
  103TIP3    H1  273   4.657   0.878   1.314 -0.7210  0.1003  0.1622
  103TIP3    H2  274   4.695   0.868   1.461 -0.2945 -1.0228 -0.0272
  104TIP3   OH2  275   3.919   0.804   1.846  0.1318 -0.4445 -0.4257
  104TIP3    H1  276   3.828   0.829   1.827  0.1288  0.8427  1.1635
  104TIP3    H2  277   3.952   0.875   1.901  1.3152 -2.1094  1.0802
  105TIP3   OH2  278   6.463   6.670   4.904  0.2779  0.7538 -0.2110
  105TIP3    H1  279   6.556   6.670   4.881 -0.1196  1.1088 -1.8648
  105TIP3    H2  280   6.439   6.762   4.910  0.1727  0.6706  0.8691
  106TIP3   OH2  281   6.901   5.593   1.091 -0.1682 -0.3920  0.9486
  106TIP3    H1  282   6.926   5.643   1.168  0.2540  0.5955  0.1819
  106TIP3    H2  283   6.862   5.657   1.032  1.2744 -0.7757 -0.4424
  107TIP3   OH2  284   1.950   0.554   1.257 -0.1709  0.5310  0.0888
  107TIP3    H1  285   2.004   0.632   1.244 -0.2686  0.5160 -0.4359
  107TIP3    H2  286   2.005   0.482   1.226  0.7635  0.1200  2.6014
  108TIP3   OH2  287   0.033   4.931   1.978  0.0563 -0.1752 -0.3641
  108TIP3    H1  288   0.124   4.909   1.957  0.1739 -0.7953  0.7466
  108TIP3    H2  289   0.039   4.987   2.055 -0.6074 -1.9630  1.0031
  109TIP3   OH2  290   2.783   1.819   2.579  0.0410 -0.8049 -0.3205
  109TIP3    H1  291   2.721   1.759   2.621 -1.1837  1.5640  1.3326
  109TIP3    H2  292   2.867   1.801   2.621 -0.2112 -1.6576 -0.1700
  110TIP3   OH2  293   7.090   6.765   2.843 -0.2853  0.1684 -0.1207
  110TIP3    H1  294   7.155   6.699   2.865 -1.3515 -0.6866  0.4793
  110TIP3    H2  295   7.141   6.845   2.827  1.1057 -1.0254 -1.8742
  111TIP3   OH2  296   0.502   0.400   2.365  0.2916  0.0027 -0.0524
  111TIP3    H1  297   0.552   0.467   2.319 -0.1721  1.1700  1.0977
  111TIP3    H2  298   0.565   0.360   2.425 -0.3133  2.0791  2.0344
  112TIP3   OH2  299   1.514   1.138   5.113  0.0374  0.4951  0.3370
  112TIP3    H1  300   1.555   1.052   5.102 -2.1774 -0.5494 -0.1663
  112TIP3    H2  301   1.528   1.160   5.205 -0.1409 -0.8271  0.6897
  113TIP3   OH2  302   0.815   0.652   2.864  0.0617 -0.7943 -0.4939
  113TIP3    H1  303   0.823   0.597   2.786 -0.7555  0.4596 -1.4868
  113TIP3    H2  304   0.777   0.595   2.930  1.6230 -2.1331 -0.7142
  114TIP3   OH2  305   5.593   1.699   0.668  0.4159  0.2953 -0.0356
  114TIP3    H1  306   5.588   1.673   0.760 -2.0357  3.0639  0.6649
  114TIP3    H2  307   5.643   1.629   0.626 -0.7337 -2.3589  2.8815
  115TIP3   OH2  308   3.778   3.142   5.367  0.1201 -0.5435 -0.4472
  115TIP3    H1  309   3.793   3.199   5.292  0.4337  0.9010  0.6973
  115TIP3    H2  310   3.720   3.074   5.335 -0.3095  0.4592 -1.8095
  116TIP3   OH2  311   1.635   0.758   4.119 -0.0565  0.0937 -0.3685
  116TIP3    H1  312   1.640   0.783   4.211 -0.1423  0.7524 -0.5404
  116TIP3    H2  313   1.616   0.840   4.073 -2.0353 -0.5621 -0.7644
  117TIP3   OH2  314   5.379   6.697   2.746  0.6280 -0.2363 -0.0107
  117TIP3    H1  315   5.390   6.609   2.783 -0.2422  0.0101  0.8738
  117TIP3    H2  316   5.286   6.717   2.761  1.1723  1.4581  1.2532
  118TIP3   OH2  317   4.208   3.264   5.634  0.3741  0.8091 -0.1457
  118TIP3    H1  318   4.140   3.205   5.602  0.7404  0.8037 -0.9320
  118TIP3    H2  319   4.164   3.319   5.699 -0.6265  1.5285 -1.4222
  119TIP3   OH2  320   6.214   2.876   2.413  0.0239 -0.2320  0.3966
  119TIP3    H1  321   6.231   2.910   2.325 -0.5265 -0.9388  0.0101
  119TIP3    H2  322   6.132   2.917   2.439 -0.7842 -1.4590 -0.1819
  120TIP3   OH2  323   2.898   6.852   1.664 -0.2811 -0.6127 -0.2728
  120TIP3    H1  324   2.859   6.773   1.700 -0.5005  0.6171  2.2670
  120TIP3    H2  325   2.990   6.847   1.688  0.1498 -1.1397 -2.0021
  121TIP3   OH2  326   7.074   3.751   5.485  0.0566 -0.4416  0.3484
  121TIP3    H1  327   7.085   3.657   5.503 -0.5587 -0.4797  0.5415
  121TIP3    H2  328   7.052   3.788   5.571  1.0353 -0.0013  0.4180
  122TIP3   OH2  329   3.417   0.621   1.700  0.8881  0.5272  0.5938
  122TIP3    H1  330   3.467   0.638   1.779 -1.1458 -1.3490  2.3384
  122TIP3    H2  331   3.455   0.542   1.662 -0.9316 -1.1559  2.1584
  123TIP3   OH2  332   2.985   1.512   3.233 -0.0381  0.3234 -0.2607
  123TIP3    H1  333   2.945   1.474   3.155 -1.1286  2.1683 -0.6366
  123TIP3    H2  334   2.911   1.536   3.288  0.6149  1.8824 -0.0388
  124TIP3   OH2  335   3.558   1.031   0.763  0.8502 -0.2370 -0.0397
  124TIP3    H1  336   3.626   1.009   0.827  0.3985 -0.0181  0.5211
  124TIP3    H2  337   3.504   0.953   0.757  1.4000 -0.5650 -0.8133
  125TIP3   OH2  338   6.501   0.019   1.316  0.1627  0.4797  0.3708
  125TIP3    H1  339   6.458  -0.025   1.389  0.3315  1.7218  1.2375
  125TIP3    H2  340   6.579   0.059   1.354  1.5481 -0.8481 -0.9730
  126TIP3   OH2  341   4.590   3.047   1.329 -0.4247  0.6229  0.2661
  126TIP3    H1  342   4.678   3.070   1.359  0.2073  0.2188 -1.2272
  126TIP3    H2  343   4.557   2.987   1.395  1.0437 -0.4641  0.0231
  127TIP3   OH2  344   3.040   6.821   1.118 -0.1675  0.3408 -0.4037
  127TIP3    H1  345   3.018   6.728   1.115  1.3841 -0.0810  0.6614
  127TIP3    H2  346   2.993   6.854   1.195 -0.9112  0.5110 -0.9191
  128TIP3   OH2  347   1.973   6.313   1.881  0.2905 -0.1913 -0.0432
  128TIP3    H1  348   1.964   6.366   1.960 -1.1059 -0.0799 -0.2609
  128TIP3    H2  349   2.045   6.354   1.833  0.6768  0.1697  0.8277
  129TIP3   OH2  350   2.006   5.927   4.361 -0.3431 -0.0596  0.3419
  129TIP3    H1  351   1.933   5.917   4.300 -0.0341 -0.0532 -0.0251
  129TIP3    H2  352   2.023   5.839   4.394 -0.9473  0.0345  0.9275
  130TIP3   OH2  353   2.523   5.872   1.555  0.3240 -0.0882  0.2300
  130TIP3    H1  354   2.610   5.893   1.587  0.6380 -2.3338  0.9291
  130TIP3    H2  355   2.533   5.868   1.460  0.5045  1.6646  0.1593
  131TIP3   OH2  356   2.925   6.788   2.948 -0.1785  0.5850 -0.8690
  131TIP3    H1  357   2.966   6.805   3.033 -1.2976  1.0225 -0.4167
  131TIP3    H2  358   2.973   6.845   2.887 -0.8858  1.9874 -0.1378
  132TIP3   OH2  359   2.446   6.412   1.106 -0.1337 -0.6769 -0.2867
  132TIP3    H1  360   2.358   6.428   1.071  0.1712  2.4316  0.1632
  132TIP3    H2  361   2.504   6.456   1.044  1.0016 -1.6872  0.0565
  133TIP3   OH2  362   6.104   6.880   1.383  0.4807 -0.1013  0.2243
  133TIP3    H1  363   6.062   6.838   1.457  1.1908  2.2689  2.0358
  133TIP3    H2  364   6.194   6.846   1.383  0.8746  0.9141  1.3016
  134TIP3   OH2  365   3.467   1.806   2.039  0.4061  0.1068  0.0553
  134TIP3    H1  366   3.386   1.846   2.068 -0.0600 -0.7044 -0.0976
  134TIP3    H2  367   3.445   1.766   1.955  1.3001  0.9909 -0.6017
  135TIP3   OH2  368   3.379   0.766   1.407  0.0903  0.3206  0.7857
  135TIP3    H1  369   3.402   0.858   1.394  0.0624  0.1986 -0.2092
  135TIP3    H2  370   3.287   0.768   1.435 -0.2385  0.5560 -0.2732
  136TIP3   OH2  371   2.688   1.311   2.231  0.1971  0.2181 -0.0316
  136TIP3    H1  372   2.684   1.231   2.178  0.6695  1.2009 -1.5555
  136TIP3    H2  373   2.757   1.293   2.295  0.0024 -0.7644 -0.0901
  137TIP3   OH2  374   3.494   0.034   1.159 -0.4679  0.0208 -0.5659
  137TIP3    H1  375   3.578  -0.012   1.166 -0.8036 -0.3593  1.4734
  137TIP3    H2  376   3.453  -0.000   1.080 -0.5440 -2.9644  0.7088
  138TIP3   OH2  377   6.629   0.768   1.533  0.1664  0.1921 -0.6514
  138TIP3    H1  378   6.598   0.832   1.597 -1.0073 -1.4076  0.4227
  138TIP3    H2  379   6.576   0.691   1.549  0.1683 -0.4122 -3.2587
  139TIP3   OH2  380   3.141   0.302   3.464  0.5420  0.5204 -0.6019
  139TIP3    H1  381   3.159   0.232   3.401 -2.2592 -1.3115  0.5078
  139TIP3    H2  382   3.100   0.371   3.412  0.2263 -0.0882 -1.1757
  140TIP3   OH2  383   4.995   2.179   1.436  0.5912 -0.3169 -0.3429
  140TIP3    H1  384   5.025   2.214   1.519 -1.0778  1.0306 -0.2981
  140TIP3    H2  385   5.001   2.252   1.375  0.5701 -0.9424 -1.1074
  141TIP3   OH2  386   5.592   1.256   1.489 -1.1918 -0.0540  0.1543
  141TIP3    H1  387   5.536   1.306   1.548 -2.2003 -0.7486 -0.1773
  141TIP3    H2  388   5.531   1.217   1.426 -0.2112  0.0665 -0.8946
  142TIP3   OH2  389   3.884   2.901   4.404  0.0540  0.2913 -0.3566
  142TIP3    H1  390   3.835   2.950   4.337 -1.2460  1.1122  1.1651
  142TIP3    H2  391   3.919   2.826   4.357 -1.5558  0.3986 -1.7920
  143TIP3   OH2  392   0.146   6.427   2.783  0.1773 -0.0979 -0.0992
  143TIP3    H1  393   0.199   6.387   2.714  1.4409 -0.4503  1.0373
  143TIP3    H2  394   0.126   6.355   2.842 -0.5935  0.2648  0.0822
  144TIP3   OH2  395   4.864   1.433   1.481 -0.0634  0.2999 -0.2269
  144TIP3    H1  396   4.779   1.409   1.443  0.3926  0.6418 -1.4919
  144TIP3    H2  397   4.844   1.501   1.544 -1.0817 -1.6288  1.6005
  145TIP3   OH2  398   0.948   4.720   1.517  0.2556  0.0645 -0.0571
  145TIP3    H1  399   0.899   4.652   1.472 -0.5911  0.6775 -0.0780
  145TIP3    H2  400   1.040   4.702   1.497  0.0545 -1.2196  0.1559
  146TIP3   OH2  401   4.606   0.425   2.503  0.8877  0.1363  0.1412
  146TIP3    H1  402   4.558   0.411   2.422 -0.2883  0.9835  0.6760
  146TIP3    H2  403   4.539   0.422   2.571  1.8103 -0.1953  1.0418
  147TIP3   OH2  404   4.503   4.948   0.686  0.3502 -0.1527 -0.5496
  147TIP3    H1  405   4.474   5.024   0.736  0.0199 -1.6722  1.6242
  147TIP3    H2  406   4.455   4.954   0.604 -1.3415  0.8032  0.4744
  148TIP3   OH2  407   6.252   0.516   1.281  0.0084  0.8166  0.2954
  148TIP3    H1  408   6.207   0.435   1.258  0.3360  0.7700 -0.1755
  148TIP3    H2  409   6.258   0.514   1.377  0.8440 -0.1468  0.2172
  149TIP3   OH2  410   5.395   1.781   2.305  0.3491 -0.2914 -0.0029
  149TIP3    H1  411   5.351   1.841   2.245 -0.1981 -0.2498  0.4324
  149TIP3    H2  412   5.461   1.737   2.252 -0.9476 -1.1411 -0.9227
  150TIP3   OH2  413   4.424   1.597   4.072  0.1427 -0.0881 -0.3694
  150TIP3    H1  414   4.470   1.522   4.108 -0.9318 -0.6711 -0.2042
  150TIP3    H2  415   4.351   1.560   4.023  0.1072  0.8134 -1.0212
  151TIP3   OH2  416   3.002   1.677   0.108  0.1443 -0.1017 -0.3775
  151TIP3    H1  417   3.046   1.627   0.039 -1.2435  1.0609 -2.1478
  151TIP3    H2  418   2.909   1.658   0.097 -0.2120  1.1267  0.3423
  152TIP3   OH2  419   2.850   0.368   3.645  0.2609 -0.1635 -0.3458
  152TIP3    H1  420   2.943   0.386   3.629  0.1855  0.4348 -0.1149
  152TIP3    H2  421   2.804   0.435   3.595 -0.0209  0.3906  0.6409
  153TIP3   OH2  422   4.080   0.378   0.161  0.0385 -0.1027 -0.6065
  153TIP3    H1  423   4.176   0.376   0.166  0.1482  1.1108 -1.9179
  153TIP3    H2  424   4.061   0.388   0.068 -1.3337  1.1805 -0.2177
  154TIP3   OH2  425   0.113   5.436   3.394 -0.4302  0.1148 -0.4453
  154TIP3    H1  426   0.188   5.456   3.337  0.5096 -0.1981  0.6668
  154TIP3    H2  427   0.106   5.341   3.392 -2.1768  0.2544 -2.2694
  155TIP3   OH2  428   1.639   1.324   2.570  0.1131 -0.0576  0.0694
  155TIP3    H1  429   1.580   1.249   2.571  0.1177 -0.0888 -1.2106
  155TIP3    H2  430   1.726   1.286   2.554  0.2347  0.1507  0.2234
  156TIP3   OH2  431   1.294   0.301   2.847 -0.1057  0.0666  0.6579
  156TIP3    H1  432   1.357   0.369   2.872 -0.8004  0.7125  0.6794
  156TIP3    H2  433   1.215   0.322   2.897 -1.1206  0.6701 -1.1477
  157TIP3   OH2  434   4.200   0.218   1.719 -0.2604 -0.8947  0.4844
  157TIP3    H1  435   4.154   0.261   1.647  0.5427 -0.1903  0.3860
  157TIP3    H2  436   4.239   0.140   1.679  0.0648 -0.5797  0.1860
  158TIP3   OH2  437   5.457   2.028   1.519  0.4482  0.1499 -0.1233
  158TIP3    H1  438   5.397   1.982   1.461 -0.2519  1.8562 -0.8028
  158TIP3    H2  439   5.539   2.033   1.470 -0.2810  2.0152 -1.2348
  159TIP3   OH2  440   3.814   0.905   2.579  0.1095  0.1405  0.1804
  159TIP3    H1  441   3.900   0.902   2.536  0.4841 -1.4580  1.0063
  159TIP3    H2  442   3.828   0.961   2.655  1.0924 -2.0466  1.6748
  160TIP3   OH2  443   3.278   2.021   1.720 -0.4356  0.4097  0.0593
  160TIP3    H1  444   3.246   2.053   1.636 -0.9300  0.1423  0.1383
  160TIP3    H2  445   3.226   2.068   1.785 -1.2461 -0.6160  0.1730
  161TIP3   OH2  446   0.764   5.354   5.780 -0.8356 -0.1809  0.1317
  161TIP3    H1  447   0.803   5.342   5.693 -1.2158 -0.9712  0.0650
  161TIP3    H2  448   0.748   5.265   5.811 -0.6023  0.1025  1.0584
  162TIP3   OH2  449   2.819   1.042   1.118  0.0553 -0.4951  0.1563
  162TIP3    H1  450   2.889   1.084   1.168  0.0070  0.1070 -0.2829
  162TIP3    H2  451   2.823   0.950   1.144  0.0263 -0.1796  1.2662
  163TIP3   OH2  452   3.302   1.083   2.249  0.2128 -0.5587  0.0333
  163TIP3    H1  453   3.253   1.160   2.277 -0.4323 -0.6118 -0.9425
  163TIP3    H2  454   3.287   1.019   2.319 -0.7547 -0.4290 -0.0429
  164TIP3   OH2  455   4.803   1.689   1.599 -0.4270  0.5779  0.2187
  164TIP3    H1  456   4.731   1.736   1.641  1.0943  1.3694  1.9796
  164TIP3    H2  457   4.807   1.725   1.511 -1.5006  1.2625  0.4395
  165TIP3   OH2  458   2.752   0.947   3.123 -0.1899  0.3419  0.1589
  165TIP3    H1  459   2.845   0.926   3.109 -0.3643 -0.5873  0.3778
  165TIP3    H2  460   2.747   1.041   3.108  0.5286  0.1710 -1.2987
  166TIP3   OH2  461   4.595   0.126   1.235  0.5406 -0.3673  0.4223
  166TIP3    H1  462   4.520   0.185   1.237  2.2027  1.8633 -1.5000
  166TIP3    H2  463   4.659   0.166   1.295  0.4669 -1.9544  1.6091
  167TIP3   OH2  464   4.367   1.414   1.946  0.0854  0.1758  0.2494
  167TIP3    H1  465   4.419   1.495   1.940  0.8433 -0.4017 -1.3416
  167TIP3    H2  466   4.427   1.350   1.984 -0.1520  0.0567  0.4239
  168TIP3   OH2  467   4.806   0.358   1.941 -0.3629  0.1877 -0.1873
  168TIP3    H1  468   4.870   0.328   1.876 -0.9487 -0.5272 -0.4369
  168TIP3    H2  469   4.851   0.428   1.988  0.6816 -0.4433 -0.2247
  169TIP3   OH2  470   2.781   6.474   3.374  0.3701  0.1079  0.5582
  169TIP3    H1  471   2.821   6.485   3.461  1.8345 -2.2162  0.2080
  169TIP3    H2  472   2.793   6.559   3.332  0.1284  1.0952  2.4230
  170TIP3   OH2  473   3.814   0.950   3.110 -0.0366  0.7416  0.4125
  170TIP3    H1  474   3.794   0.856   3.106 -0.8711  0.9653 -1.2767
  170TIP3    H2  475   3.906   0.954   3.133  0.3785 -0.5307 -0.9658
  171TIP3   OH2  476   3.545   1.286   3.671 -0.3346 -0.5024 -0.7070
  171TIP3    H1  477   3.492   1.238   3.735 -0.2875 -2.0820 -1.8463
  171TIP3    H2  478   3.490   1.291   3.593  0.4099 -0.3569 -1.2298
  172TIP3   OH2  479   0.887   0.882   1.903  0.4104 -0.5772 -0.0728
  172TIP3    H1  480   0.843   0.967   1.903 -0.5237 -1.0272  1.4525
  172TIP3    H2  481   0.962   0.894   1.962  0.3263 -0.7763  0.0768
  173TIP3   OH2  482   2.043   5.849   1.161 -0.5737  0.3419 -0.2690
  173TIP3    H1  483   1.983   5.820   1.230 -0.1066  0.0771  0.0293
  173TIP3    H2  484   2.130   5.823   1.192 -0.2872  0.8595 -0.6230
  174TIP3   OH2  485   0.371   5.479   5.580  0.1254 -0.6577 -0.3334
  174TIP3    H1  486   0.425   5.528   5.642  0.5542  0.0345 -1.2381
  174TIP3    H2  487   0.318   5.546   5.537 -0.3326 -1.1614 -0.5530
  175TIP3   OH2  488   2.894   1.210   2.371 -0.0161 -0.3459 -0.3792
  175TIP3    H1  489   2.879   1.116   2.382  1.7048 -0.5151  0.5912
  175TIP3    H2  490   2.985   1.217   2.344  1.1069  1.2483  3.4937
  176TIP3   OH2  491   6.222   0.742   1.091  0.4351  0.3881  0.4473
  176TIP3    H1  492   6.304   0.791   1.084  1.1358 -0.6873  0.9524
  176TIP3    H2  493   6.223   0.707   1.180  0.6542 -1.7645 -0.3848
  177TIP3   OH2  494   3.425   0.601   3.356  0.1869  0.4268 -0.1562
  177TIP3    H1  495   3.391   0.568   3.439  1.8790 -0.4865  0.1940
  177TIP3    H2  496   3.490   0.667   3.381 -0.2031  1.0573 -0.7871
  178TIP3   OH2  497   1.889   4.481   2.605  0.1296  0.1237 -0.5985
  178TIP3    H1  498   1.869   4.532   2.527 -0.8995  1.2386  0.3762
  178TIP3    H2  499   1.958   4.531   2.648  1.3536 -0.9814 -1.2701
  179TIP3   OH2  500   0.817   5.519   1.548 -0.3540  0.4273  0.7554
  179TIP3    H1  501   0.743   5.460   1.563 -0.5349  0.7121  0.9864
  179TIP3    H2  502   0.869   5.514   1.629 -0.7537  1.1320  1.0640
  180TIP3   OH2  503   4.396   5.445   2.260 -0.1666  0.0557 -0.2796
  180TIP3    H1  504   4.344   5.377   2.218  1.2684 -1.3610  0.1644
  180TIP3    H2  505   4.472   5.456   2.203  1.0836 -0.8526  1.1816
  181TIP3   OH2  506   3.756   0.314   1.065  0.5323  0.2506  0.4911
  181TIP3    H1  507   3.812   0.290   1.139  0.7150 -1.2787 -0.1399
  181TIP3    H2  508   3.778   0.251   0.997 -2.2039 -0.6123  0.3570
  182TIP3   OH2  509   4.392   2.544   2.559 -0.3025  0.4854  0.3965
  182TIP3    H1  510   4.301   2.513   2.548  0.1377 -0.3255 -1.1409
  182TIP3    H2  511   4.445   2.467   2.538  0.7416  0.9828  1.2442
  183TIP3   OH2  512   5.656   0.341   2.005  0.3635  0.7378 -0.2451
  183TIP3    H1  513   5.587   0.388   2.052  0.9217  1.1479  0.1674
  183TIP3    H2  514   5.707   0.298   2.073  1.0141  1.1111 -0.4929
  184TIP3   OH2  515   1.023   3.112   5.488  0.3255 -0.0637 -0.3105
  184TIP3    H1  516   1.103   3.065   5.466 -0.5729 -2.3281  1.0451
  184TIP3    H2  517   1.045   3.162   5.567  0.3652 -0.9015  0.2241
  185TIP3   OH2  518   7.112   5.351   2.936  0.2948  0.8193  0.3339
  185TIP3    H1  519   7.050   5.355   2.863  0.4054  2.3212  0.2993
  185TIP3    H2  520   7.152   5.264   2.929  1.9383  1.7333 -2.7838
  186TIP3   OH2  521   6.201   4.258   5.151 -0.7355 -0.1001 -0.1738
  186TIP3    H1  522   6.129   4.321   5.161  0.2581  0.9059  0.7119
  186TIP3    H2  523   6.190   4.197   5.224 -1.9386 -1.2224 -1.2634
  187TIP3   OH2  524   0.311   6.113   1.682  0.1981 -0.0691  0.6261
  187TIP3    H1  525   0.327   6.078   1.769 -0.4286  0.0680  0.7967
  187TIP3    H2  526   0.260   6.193   1.697  0.3939  0.1487  0.1548
  188TIP3   OH2  527   3.345   3.041   3.121 -0.0014 -0.1826  0.5341
  188TIP3    H1  528   3.409   3.074   3.059  0.2883 -0.7481  0.5297
  188TIP3    H2  529   3.320   3.118   3.173  1.6308 -0.1969  1.3786
  189TIP3   OH2  530   4.831   1.014   1.815  0.3515  0.0338  0.3783
  189TIP3    H1  531   4.915   1.038   1.777  0.8407  0.3967  1.6617
  189TIP3    H2  532   4.784   1.096   1.826 -0.4160 -0.2240 -0.8760
  190TIP3   OH2  533   4.994   0.584   2.808  0.3802 -0.0547  0.1516
  190TIP3    H1  534   5.080   0.626   2.807 -0.1066  0.9436 -1.1818
  190TIP3    H2  535   4.942   0.635   2.747 -0.9665 -1.0814  0.4225
  191TIP3   OH2  536   5.390   0.603   0.765 -0.5286  0.5502  0.3009
  191TIP3    H1  537   5.309   0.649   0.784 -0.6211  1.6940 -2.7384
  191TIP3    H2  538   5.459   0.668   0.780 -0.0951 -0.4686  3.0587
  192TIP3   OH2  539   3.348   6.425   0.812  0.2676 -0.2346  0.1830
  192TIP3    H1  540   3.352   6.473   0.895  0.8013 -1.4342  0.8568
  192TIP3    H2  541   3.343   6.333   0.837  1.4169 -0.6734 -1.1210
  193TIP3   OH2  542   2.825   0.988   1.802 -0.1312  0.1265  0.2865
  193TIP3    H1  543   2.915   0.973   1.832 -0.4292 -0.1194  1.0448
  193TIP3    H2  544   2.805   0.912   1.748  0.1401  0.2218  0.0441
  194TIP3   OH2  545   3.234   2.690   2.527 -0.1914 -0.3383  0.2257
  194TIP3    H1  546   3.222   2.642   2.609 -3.2791 -0.8072 -0.4287
  194TIP3    H2  547   3.285   2.631   2.472  2.3424  0.1716  1.8921
  195TIP3   OH2  548   6.914   0.795   0.528  0.2319  0.1837 -0.2702
  195TIP3    H1  549   6.915   0.864   0.594  0.1588 -0.2285  0.1632
  195TIP3    H2  550   7.007   0.776   0.513  0.2143 -1.2548  1.3301
  196TIP3   OH2  551   4.113   1.153   1.607  0.2665  0.4425  0.5799
  196TIP3    H1  552   4.139   1.171   1.697 -1.0577  0.3418  0.9929
  196TIP3    H2  553   4.028   1.196   1.598  0.6741  0.9850 -0.8151
  197TIP3   OH2  554   5.988   6.596   0.528  0.2124  0.1328  0.1180
  197TIP3    H1  555   6.047   6.581   0.454  1.0746  0.1448  0.7861
  197TIP3    H2  556   5.934   6.670   0.501 -0.3175 -0.6469 -0.9869
  198TIP3   OH2  557   4.747   1.506   2.247 -0.8913 -0.4508 -0.5647
  198TIP3    H1  558   4.759   1.470   2.335 -0.1434 -2.1119 -1.3114
  198TIP3    H2  559   4.654   1.530   2.243 -1.4042 -2.2317  0.0171
  199TIP3   OH2  560   3.307   6.766   0.995  0.0458  0.3929  0.3105
  199TIP3    H1  561   3.329   6.857   0.976  0.6076 -0.6177 -4.6786
  199TIP3    H2  562   3.213   6.768   1.015  0.4304  2.2476  2.1331
  200TIP3   OH2  563   4.045   1.680   3.031 -0.0104  0.0866  0.1756
  200TIP3    H1  564   4.027   1.592   3.066 -0.6794  0.3936  0.6067
  200TIP3    H2  565   4.134   1.674   2.996 -0.9673 -1.4956 -2.0826
  201TIP3   OH2  566   3.188   4.383   2.019 -0.5667  0.1885 -0.7844
  201TIP3    H1  567   3.170   4.309   1.960 -0.4104 -0.0467 -0.5428
  201TIP3    H2  568   3.244   4.345   2.087 -0.2855  0.5920 -0.7926
  202TIP3   OH2  569   3.472   1.307   1.206  0.1683  0.3106 -0.4501
  202TIP3    H1  570   3.400   1.347   1.157  0.6219  1.3141 -0.2973
  202TIP3    H2  571   3.453   1.327   1.297 -0.2951 -0.9552 -0.2498
  203TIP3   OH2  572   2.743   1.357   1.502  0.6264 -0.6770  0.2334
  203TIP3    H1  573   2.655   1.393   1.488  0.7209 -0.4125  0.3238
  203TIP3    H2  574   2.737   1.309   1.584  1.0460  0.8789  1.1935
  204TIP3   OH2  575   5.832   1.598   1.336  0.3882 -0.0575 -0.5585
  204TIP3    H1  576   5.873   1.572   1.254  1.1240  0.3782 -0.3388
  204TIP3    H2  577   5.854   1.691   1.346 -0.1298  0.0210 -0.1315
  205TIP3   OH2  578   5.212   0.785   1.742  0.0821 -0.2113  0.4560
  205TIP3    H1  579   5.296   0.798   1.698 -0.3265 -1.4609 -0.7333
  205TIP3    H2  580   5.236   0.756   1.830  0.9023  0.3268  0.4204
  206TIP3   OH2  581   1.672   0.284   0.720 -0.1079 -0.7937  0.3180
  206TIP3    H1  582   1.696   0.376   0.721  1.5489 -1.1327 -2.2824
  206TIP3    H2  583   1.643   0.268   0.630  0.4241 -2.9648  0.4987
  207TIP3   OH2  584   2.176   2.653   0.888  0.2909 -0.1918  0.0360
  207TIP3    H1  585   2.207   2.725   0.944  1.1347 -2.1732  2.1816
  207TIP3    H2  586   2.081   2.658   0.894  0.3086  1.2037 -0.4669
  208TIP3   OH2  587   2.113   2.015   1.951 -0.4135 -0.8131  0.7185
  208TIP3    H1  588   2.135   2.096   1.905 -0.6660 -1.6203 -0.8628
  208TIP3    H2  589   2.018   2.017   1.959 -0.4219 -0.9577  0.6620
  209TIP3   OH2  590   4.355   1.395   3.263 -0.1555 -0.8466 -0.1873
  209TIP3    H1  591   4.348   1.489   3.246  1.2750 -1.1531 -2.7485
  209TIP3    H2  592   4.449   1.380   3.273 -0.3051 -2.1296 -0.6075
  210TIP3   OH2  593   3.552   6.084   3.088  0.2673 -0.3143  0.5548
  210TIP3    H1  594   3.628   6.071   3.031  0.8134  1.9415  0.7398
  210TIP3    H2  595   3.483   6.114   3.029  0.6198  1.2991  0.9395
  211TIP3   OH2  596   4.992   0.533   2.117  0.1092 -0.1156 -0.0930
  211TIP3    H1  597   4.947   0.610   2.082 -0.6837 -0.4658  0.1712
  211TIP3    H2  598   4.976   0.537   2.211 -0.1599 -0.7652 -0.1136
  212TIP3   OH2  599   5.279   1.132   2.316  0.0942  0.1804  0.0043
  212TIP3    H1  600   5.237   1.188   2.381 -0.9854  0.5826 -1.0341
  212TIP3    H2  601   5.319   1.193   2.254 -0.1068 -0.1982 -0.4965
  213TIP3   OH2  602   5.967   1.895   1.370  0.5528  0.2494  0.1169
  213TIP3    H1  603   5.956   1.990   1.364 -0.2589  0.2224  0.9987
  213TIP3    H2  604   6.044   1.876   1.317  0.0607  1.2664 -0.9829
  214TIP3   OH2  605   5.443   0.594   2.569  0.0990  0.7802 -0.1267
  214TIP3    H1  606   5.471   0.607   2.478  1.7991  0.7791  0.3755
  214TIP3    H2  607   5.525   0.586   2.618 -0.7991  2.0679  1.6076
  215TIP3   OH2  608   0.113   1.280   1.983  0.4487  0.1211 -0.1566
  215TIP3    H1  609   0.049   1.292   1.913  0.2950 -2.1433 -0.4516
  215TIP3    H2  610   0.080   1.333   2.055  0.1568  1.8075 -1.4963
  216TIP3   OH2  611   4.279   2.951   2.538 -0.2052 -0.0014  0.1807
  216TIP3    H1  612   4.187   2.954   2.562 -0.3973 -2.1872 -0.1434
  216TIP3    H2  613   4.322   2.911   2.613 -0.0981 -2.3322 -1.0445
  217TIP3   OH2  614   5.260   0.488   4.220  0.0180 -0.4597 -0.6634
  217TIP3    H1  615   5.263   0.545   4.297 -0.7597  0.2769 -1.1665
  217TIP3    H2  616   5.229   0.404   4.253 -0.2039 -0.1763 -0.1481
  218TIP3   OH2  617   0.154   5.483   5.865 -0.0790  0.0010  0.2455
  218TIP3    H1  618   0.193   5.559   5.822 -1.6742 -0.1081 -1.4372
  218TIP3    H2  619   0.224   5.417   5.863  1.0891  1.1745  1.1234
  219TIP3   OH2  620   1.094   6.771   2.535 -0.2431  0.5449  0.1098
  219TIP3    H1  621   1.009   6.756   2.494 -0.6711  1.0722  0.7938
  219TIP3    H2  622   1.132   6.684   2.543  0.6098  0.5824 -3.0016
  220TIP3   OH2  623   4.245   6.157   0.726 -0.8999  0.2778 -0.2315
  220TIP3    H1  624   4.329   6.111   0.739 -0.0321  1.8424 -0.2049
  220TIP3    H2  625   4.209   6.165   0.814 -1.2324 -0.6880 -0.2786
  221TIP3   OH2  626   1.563   0.646   0.742 -0.3442  0.0409  0.7812
  221TIP3    H1  627   1.562   0.598   0.825 -1.3775  0.5824  1.0938
  221TIP3    H2  628   1.494   0.712   0.752  0.8600  1.4041  0.2566
  222TIP3   OH2  629   6.008   2.501   0.494  0.0162 -0.0395  0.0416
  222TIP3    H1  630   6.074   2.479   0.429  1.5261  2.4051  0.6606
  222TIP3    H2  631   5.934   2.533   0.443  0.5433  0.2588 -0.5489
  223TIP3   OH2  632   4.016   6.335   1.964 -0.2270 -0.2262 -0.0287
  223TIP3    H1  633   4.037   6.271   1.896  0.5850 -0.1282  0.1226
  223TIP3    H2  634   3.988   6.283   2.039  0.3252 -0.4055  0.0562
  224TIP3   OH2  635   5.576   1.120   0.158  0.4700 -0.5933  0.3275
  224TIP3    H1  636   5.509   1.161   0.103  0.0596  1.5463  2.3372
  224TIP3    H2  637   5.574   1.028   0.133 -2.3593 -0.3531 -0.5640
  225TIP3   OH2  638   6.581   1.982   0.294  0.2769  0.3999 -0.0415
  225TIP3    H1  639   6.516   1.912   0.289  1.3351 -0.7726  2.0779
  225TIP3    H2  640   6.539   2.057   0.251 -1.6571 -0.9293 -0.5215
  226TIP3   OH2  641   0.948   6.627   1.722 -0.1043  0.0036 -0.4063
  226TIP3    H1  642   0.934   6.653   1.813 -1.0452 -0.1074 -0.5188
  226TIP3    H2  643   1.033   6.583   1.722  0.7723  1.6550  0.0812
  227TIP3   OH2  644   2.714   1.996   5.082  0.4190  0.1098  0.4117
  227TIP3    H1  645   2.734   1.994   5.175  2.1915 -0.1556  0.0494
  227TIP3    H2  646   2.772   1.929   5.044 -1.2003 -0.6815 -0.7073
  228TIP3   OH2  647   6.681   4.245   3.604 -0.2428 -0.0969  0.5431
  228TIP3    H1  648   6.700   4.285   3.519 -0.0674 -0.6764  0.3019
  228TIP3    H2  649   6.668   4.318   3.664  0.6041  0.3091  0.2278
  229TIP3   OH2  650   1.231   3.191   3.751 -0.2427  0.1395 -0.6754
  229TIP3    H1  651   1.243   3.281   3.722  0.2755  1.2499  2.7499
  229TIP3    H2  652   1.319   3.155   3.756 -0.3430 -0.1166 -0.7670
  230TIP3   OH2  653   1.349   2.381   2.507  0.5936  0.3617 -0.1348
  230TIP3    H1  654   1.370   2.396   2.415 -0.3283 -1.8634 -0.7336
  230TIP3    H2  655   1.432   2.354   2.546  1.0802  1.7113 -0.1987
  231TIP3   OH2  656   6.915   3.190   3.871 -0.2280  0.2993  0.2301
  231TIP3    H1  657   6.956   3.208   3.956 -1.0053  0.9313  0.4809
  231TIP3    H2  658   6.961   3.114   3.838  0.8366  0.7179  0.7179
  232TIP3   OH2  659   1.205   1.460   2.506 -0.0654  0.2368  1.0571
  232TIP3    H1  660   1.212   1.375   2.461 -0.7436 -0.1173  1.5980
  232TIP3    H2  661   1.295   1.486   2.524  0.2078  0.2492 -0.2514
  233TIP3   OH2  662   7.182   1.668   3.599  0.1975  0.1425  0.0913
  233TIP3    H1  663   7.266   1.673   3.645 -0.0151 -0.1386  0.5090
  233TIP3    H2  664   7.188   1.736   3.532  2.2734 -2.3811 -2.3975
  234TIP3   OH2  665   0.824   2.515   2.844 -0.0266 -0.2474  0.2025
  234TIP3    H1  666   0.751   2.475   2.892  0.8363  0.9664  2.5684
  234TIP3    H2  667   0.902   2.469   2.875  0.3394 -1.1531 -1.9133
  235TIP3   OH2  668   1.157   3.431   0.185  0.2199  0.3961 -0.4117
  235TIP3    H1  669   1.117   3.501   0.236  0.8514  1.5854 -1.5136
  235TIP3    H2  670   1.249   3.457   0.176  1.1970 -2.0732  1.7012
  236TIP3   OH2  671   0.448   3.848   2.888 -0.0820  0.4624 -0.6269
  236TIP3    H1  672   0.500   3.902   2.949 -1.4394  1.5905 -0.4485
  236TIP3    H2  673   0.359   3.851   2.923 -0.4878 -0.5317 -1.5616
  237TIP3   OH2  674   1.620   1.263   1.746  0.1771  0.4095 -0.1209
  237TIP3    H1  675   1.687   1.331   1.746  1.3457 -0.6891 -1.7775
  237TIP3    H2  676   1.548   1.299   1.695  0.9938  0.2437 -1.4169
  238TIP3   OH2  677   0.296   4.036   2.039 -0.2493  0.1242  0.4033
  238TIP3    H1  678   0.326   4.054   2.128  0.4944 -0.9322  0.3838
  238TIP3    H2  679   0.214   4.083   2.030  0.9490  2.3459  0.7785
  239TIP3   OH2  680   0.497   2.928   1.245  0.0712  0.2440  0.2346
  239TIP3    H1  681   0.511   2.836   1.268  2.7037  0.7710  0.8968
  239TIP3    H2  682   0.512   2.931   1.150  2.9426  0.4443  0.6335
  240TIP3   OH2  683   1.921   1.364   2.442  0.3787  0.3464 -0.4127
  240TIP3    H1  684   1.998   1.409   2.476  0.8738 -1.2056  0.5876
  240TIP3    H2  685   1.893   1.416   2.367  2.3074  0.9993 -0.6840
  241TIP3   OH2  686   1.834   1.123   2.524 -0.1531 -0.3089  0.2844
  241TIP3    H1  687   1.889   1.199   2.504  0.2106 -0.4621  0.7018
  241TIP3    H2  688   1.866   1.092   2.608 -1.4474  0.1064  0.9367
  242TIP3   OH2  689   2.935   0.147   1.978  0.3149 -0.0440 -0.0823
  242TIP3    H1  690   2.876   0.203   1.928 -0.2726 -1.0048 -0.4865
  242TIP3    H2  691   2.903   0.154   2.068 -0.3507 -0.4717 -0.2807
  243TIP3   OH2  692   1.515   1.588   1.550  0.0844  0.1309  0.5461
  243TIP3    H1  693   1.582   1.656   1.537 -2.2438  2.0232 -2.1735
  243TIP3    H2  694   1.511   1.542   1.466 -2.3723  0.4045  0.4734
  244TIP3   OH2  695   0.932   2.799   2.081 -0.6220 -0.1661 -0.5349
  244TIP3    H1  696   0.898   2.770   2.165 -0.5904  0.2269 -0.3830
  244TIP3    H2  697   1.025   2.776   2.083 -0.8292 -1.0585 -0.8690
  245TIP3   OH2  698   1.663   1.603   3.531  0.1492  0.1688 -0.0555
  245TIP3    H1  699   1.747   1.556   3.531 -0.5783 -1.1536  0.1272
  245TIP3    H2  700   1.687   1.693   3.551  1.5970 -0.0751 -0.5763
  246TIP3   OH2  701   2.885   2.206   3.130 -0.5150  0.1111 -0.2550
  246TIP3    H1  702   2.801   2.232   3.094  0.5315  2.2172 -1.2803
  246TIP3    H2  703   2.889   2.247   3.216 -0.3588  0.3756 -0.3873
  247TIP3   OH2  704   5.549   5.864   1.111  0.0640 -0.2983  0.3331
  247TIP3    H1  705   5.489   5.926   1.070  1.3875  0.8102  0.0265
  247TIP3    H2  706   5.554   5.891   1.202 -0.2431 -0.6604  0.4574
  248TIP3   OH2  707   1.071   3.702   4.188 -0.0851  0.1907  0.7953
  248TIP3    H1  708   1.060   3.630   4.127 -1.6105  0.4549  0.7346
  248TIP3    H2  709   0.998   3.692   4.250  0.7338  0.6300  1.8427
  249TIP3   OH2  710   1.917   0.713   4.600 -0.2220  0.4688 -0.6064
  249TIP3    H1  711   1.869   0.796   4.608 -1.2495 -0.0649 -1.1575
  249TIP3    H2  712   1.941   0.690   4.689  0.5371  1.6264 -0.4947
  250TIP3   OH2  713   7.120   0.818   0.304  0.0280  0.0253  0.3068
  250TIP3    H1  714   7.163   0.849   0.383 -1.3971 -0.9043  1.4801
  250TIP3    H2  715   7.163   0.734   0.285  2.3951  1.6044 -1.6313
  251TIP3   OH2  716   1.235   2.432   0.771  0.2922  0.4428  0.5264
  251TIP3    H1  717   1.240   2.439   0.676 -0.1987  0.8332  0.5250
  251TIP3    H2  718   1.212   2.341   0.788  0.7081  0.2938  0.2838
  252TIP3   OH2  719   0.729   3.619   0.918  0.1976 -0.2091 -0.6596
  252TIP3    H1  720   0.692   3.665   0.992  1.7648 -1.3445  0.8670
  252TIP3    H2  721   0.670   3.545   0.903  1.2841 -1.4573  1.1321
  253TIP3   OH2  722   3.637   2.405   1.922 -0.1503  0.1949  0.3150
  253TIP3    H1  723   3.652   2.407   1.828 -1.6456  1.1387  0.0769
  253TIP3    H2  724   3.711   2.453   1.959  0.6279 -0.4836 -0.3503
  254TIP3   OH2  725   0.996   1.824   0.607 -0.4203 -0.7487 -0.4874
  254TIP3    H1  726   0.931   1.884   0.570 -1.2219 -0.6427  1.0479
  254TIP3    H2  727   1.069   1.827   0.545 -0.7697  1.2095 -0.8478
  255TIP3   OH2  728   3.518   3.574   2.413 -0.6479  0.2271  0.4024
  255TIP3    H1  729   3.567   3.615   2.485 -0.0062 -0.1123  0.1562
  255TIP3    H2  730   3.564   3.492   2.396 -0.4399  0.5938 -0.8105
  256TIP3   OH2  731   3.071   1.670   0.852  0.2626  0.2273 -0.0780
  256TIP3    H1  732   3.076   1.766   0.848  0.6045  0.1912 -0.6964
  256TIP3    H2  733   3.037   1.645   0.766  0.3763 -0.2181  0.0072
  257TIP3   OH2  734   0.556   1.625   2.861 -0.4479  0.0348  0.6766
  257TIP3    H1  735   0.470   1.613   2.900 -0.3108 -1.4924  0.5605
  257TIP3    H2  736   0.618   1.600   2.930 -0.0490  2.1932  1.1285
  258TIP3   OH2  737   4.911   3.421   2.318  0.3810 -0.0816 -0.2231
  258TIP3    H1  738   4.940   3.331   2.306  0.3128 -0.2564  0.8815
  258TIP3    H2  739   4.961   3.453   2.393  1.2577  1.1818 -1.3185
  259TIP3   OH2  740   3.085   3.234   2.910  0.4447 -0.4734  0.5115
  259TIP3    H1  741   3.162   3.260   2.961 -0.1488  2.9194 -0.2157
  259TIP3    H2  742   3.015   3.291   2.942 -1.3447 -2.2996 -0.0844
  260TIP3   OH2  743   4.480   2.600   0.160 -0.6918 -0.4246 -0.3172
  260TIP3    H1  744   4.531   2.520   0.144  1.9740  0.8940  1.2538
  260TIP3    H2  745   4.530   2.669   0.116 -1.3364  0.8268  0.8919
  261TIP3   OH2  746   0.806   6.989   1.354  0.3745  0.3493  0.5994
  261TIP3    H1  747   0.831   6.925   1.422  0.5133  0.4788  0.6725
  261TIP3    H2  748   0.874   6.980   1.288  1.0806  1.2859  1.1851
  262TIP3   OH2  749   4.300   2.888   3.159  0.1017  0.4579 -0.1214
  262TIP3    H1  750   4.393   2.911   3.161 -0.1571  1.4520  1.1551
  262TIP3    H2  751   4.254   2.972   3.156 -0.7762 -0.0142 -0.1736
  263TIP3   OH2  752   3.730   2.476   1.663  0.2666 -0.2663  0.5173
  263TIP3    H1  753   3.715   2.522   1.580 -0.7785 -0.5856  0.5321
  263TIP3    H2  754   3.765   2.391   1.636 -0.6777 -0.6145  0.3724
  264TIP3   OH2  755   2.351   2.498   0.057  0.5179  0.3266 -0.3574
  264TIP3    H1  756   2.411   2.541   0.118  0.8887  0.3356 -0.7226
  264TIP3    H2  757   2.279   2.560   0.046  1.3418  1.1412 -1.3537
  265TIP3   OH2  758   2.622   2.744   2.866  0.0832  0.0640 -0.7260
  265TIP3    H1  759   2.594   2.653   2.853  1.1789 -0.6047  1.3316
  265TIP3    H2  760   2.541   2.795   2.862 -0.5492 -1.0094 -1.7789
  266TIP3   OH2  761   4.003   5.097   4.883  0.5084 -0.4599 -0.5177
  266TIP3    H1  762   4.047   5.160   4.826 -0.1107 -0.2776 -0.8095
  266TIP3    H2  763   3.911   5.101   4.856  0.3901 -1.1740 -0.2423
  267TIP3   OH2  764   3.384   0.707   2.522 -0.3784  0.1572 -0.6774
  267TIP3    H1  765   3.444   0.756   2.466  0.9165 -0.4564  0.1490
  267TIP3    H2  766   3.399   0.741   2.610 -1.8267  0.5500 -0.5597
  268TIP3   OH2  767   0.294   3.143   4.099  0.0043  0.3425  0.0698
  268TIP3    H1  768   0.258   3.073   4.045  0.3507  0.9823 -1.0252
  268TIP3    H2  769   0.283   3.114   4.189 -0.4600 -0.8122 -0.3621
  269TIP3   OH2  770   6.735   0.150   1.369 -0.2712 -0.2157 -0.0465
  269TIP3    H1  771   6.811   0.122   1.419 -1.6699  1.6583  3.2846
  269TIP3    H2  772   6.770   0.207   1.301  1.4028 -0.1432  0.8484
  270TIP3   OH2  773   1.533   1.781   1.030 -0.5024  0.7535 -0.2499
  270TIP3    H1  774   1.530   1.807   0.938  2.6983  1.5103 -0.1982
  270TIP3    H2  775   1.592   1.706   1.033  0.2194  1.3429  1.2775
  271TIP3   OH2  776   0.963   2.570   0.743  0.3934 -0.1722 -0.1750
  271TIP3    H1  777   1.058   2.559   0.734  0.7574  2.4207  0.1093
  271TIP3    H2  778   0.934   2.492   0.790  2.3525 -1.0906 -0.4455
  272TIP3   OH2  779   2.633   2.669   1.719  0.1681 -0.3231 -0.0934
  272TIP3    H1  780   2.559   2.718   1.680 -1.0808 -1.1916  1.1505
  272TIP3    H2  781   2.643   2.593   1.662 -1.4749 -1.4428  1.0494
  273TIP3   OH2  782   0.950   3.801   2.514 -0.1581 -0.9688 -0.3213
  273TIP3    H1  783   0.985   3.719   2.550 -0.0618 -0.3272  1.0972
  273TIP3    H2  784   0.902   3.840   2.588  1.8206  1.4243 -0.2485
  274TIP3   OH2  785   2.946   1.300   2.695  0.6223 -0.1165 -0.0456
  274TIP3    H1  786   3.001   1.347   2.633  0.4905  0.5433  0.3273
  274TIP3    H2  787   2.880   1.256   2.641  0.3724  0.6328 -0.3565
  275TIP3   OH2  788   6.008   5.369   5.162 -0.1980 -0.6911  0.2910
  275TIP3    H1  789   6.053   5.369   5.077 -1.2176  0.2576 -0.2546
  275TIP3    H2  790   6.019   5.279   5.194 -0.0737 -1.1475 -0.9817
  276TIP3   OH2  791   2.108   2.688   0.440 -0.1870 -0.8169  0.5784
  276TIP3    H1  792   2.038   2.665   0.501 -1.4591  1.4394  0.0110
  276TIP3    H2  793   2.073   2.759   0.388  2.9480  1.2736  1.1301
  277TIP3   OH2  794   0.717   1.136   2.095  0.0139  0.5218 -0.1408
  277TIP3    H1  795   0.664   1.154   2.172 -1.6342 -0.5545 -0.9816
  277TIP3    H2  796   0.753   1.221   2.069 -0.2694  1.0551  1.1766
  278TIP3   OH2  797   5.727   6.349   5.745 -0.6390  0.2305  0.1222
  278TIP3    H1  798   5.655   6.402   5.779  0.0676  2.3066 -1.5349
  278TIP3    H2  799   5.805   6.386   5.785 -0.2210 -0.2366 -0.2523
  279TIP3   OH2  800   1.801   3.616   0.969 -0.3822  0.6755 -0.3195
  279TIP3    H1  801   1.760   3.670   1.036  0.0442 -0.0078  0.5049
  279TIP3    H2  802   1.765   3.528   0.984  0.4424  0.3283 -0.3836
  280TIP3   OH2  803   4.138   4.507   5.535 -0.6051  0.1748  0.2230
  280TIP3    H1  804   4.081   4.436   5.565  0.1236 -1.0154 -1.2101
  280TIP3    H2  805   4.148   4.563   5.613 -3.1086  0.0128  0.7083
  281TIP3   OH2  806   3.594   2.815   2.894  0.0828  0.5129  0.2017
  281TIP3    H1  807   3.662   2.831   2.960 -0.8017 -2.2290  1.8558
  281TIP3    H2  808   3.529   2.884   2.909  0.5156  0.6792  1.3407
  282TIP3   OH2  809   3.696   3.787   0.235 -0.3853  0.3587 -0.1306
  282TIP3    H1  810   3.600   3.796   0.237 -0.3580  0.6200  0.1441
  282TIP3    H2  811   3.714   3.733   0.159 -0.6659  1.3743 -0.9241
  283TIP3   OH2  812   0.481   3.790   2.221 -0.0517  1.1786 -0.0404
  283TIP3    H1  813   0.428   3.864   2.252 -0.8786  0.3265  0.6290
  283TIP3    H2  814   0.563   3.797   2.268 -0.0449  1.7985 -0.1449
  284TIP3   OH2  815   2.978   2.112   2.615 -0.2059  0.5554  0.5053
  284TIP3    H1  816   2.994   2.206   2.619 -1.1798  0.7188  0.7225
  284TIP3    H2  817   2.945   2.090   2.702 -1.7044  0.3453 -0.1046
  285TIP3   OH2  818   3.766   0.740   1.099 -0.0345 -0.2310  0.3639
  285TIP3    H1  819   3.692   0.680   1.093  2.7852 -3.8845  0.5231
  285TIP3    H2  820   3.779   0.754   1.192  0.0097 -0.1900  0.3518
  286TIP3   OH2  821   5.696   6.848   3.031 -0.3974  0.4179  0.1737
  286TIP3    H1  822   5.737   6.843   2.945  0.7515 -0.1230  0.7358
  286TIP3    H2  823   5.718   6.936   3.062  0.0146  0.2715  0.3066
  287TIP3   OH2  824   2.717   2.229   2.773 -0.3484  0.3241 -0.3204
  287TIP3    H1  825   2.679   2.245   2.687  1.2587 -2.5243 -1.6713
  287TIP3    H2  826   2.795   2.284   2.775 -0.6958  0.8233 -0.4534
  288TIP3   OH2  827   1.980   1.359   1.264  1.2175  0.2326 -0.6457
  288TIP3    H1  828   2.001   1.271   1.235  2.1668  0.2919 -0.1586
  288TIP3    H2  829   1.893   1.352   1.302  0.7129 -0.2088 -1.8559
  289TIP3   OH2  830   1.732   2.319   2.394  0.1544  0.1391 -0.1559
  289TIP3    H1  831   1.813   2.362   2.368  1.3939 -1.4948  0.9457
  289TIP3    H2  832   1.665   2.359   2.338  1.8278  0.9404 -1.6258
  290TIP3   OH2  833   1.990   1.054   3.323 -0.0986  0.1459 -0.4767
  290TIP3    H1  834   2.002   1.148   3.315 -1.3971  0.3096 -0.5986
  290TIP3    H2  835   2.077   1.020   3.345  0.2030  1.4563  0.3565
  291TIP3   OH2  836   3.744   3.768   2.524 -0.5676  0.3562  0.5001
  291TIP3    H1  837   3.682   3.769   2.598 -1.1862  2.1918 -0.0112
  291TIP3    H2  838   3.714   3.839   2.467  2.1103  1.3922  0.3065
  292TIP3   OH2  839   3.989   1.609   0.989  0.8402 -0.1307 -0.5890
  292TIP3    H1  840   4.006   1.574   0.901  1.3300 -1.3235 -0.0267
  292TIP3    H2  841   4.000   1.534   1.047  0.5779  0.6705  0.5055
  293TIP3   OH2  842   0.885   3.095   2.032  0.2252  0.0305  0.5137
  293TIP3    H1  843   0.794   3.091   2.003 -0.3879 -0.1048  2.3752
  293TIP3    H2  844   0.911   3.003   2.042 -0.0225  0.0682  1.6657
  294TIP3   OH2  845   1.960   3.005   0.876 -0.1431 -0.4081  0.1976
  294TIP3    H1  846   1.911   3.004   0.794 -0.4102 -1.9992  0.3595
  294TIP3    H2  847   2.051   3.015   0.850  0.0277 -3.2529 -0.4601
  295TIP3   OH2  848   2.314   2.162   0.646  0.0829 -0.2724  0.4690
  295TIP3    H1  849   2.228   2.121   0.647 -0.6930  1.3142 -0.1395
  295TIP3    H2  850   2.300   2.251   0.678  1.0931  0.7092 -1.6921
  296TIP3   OH2  851   1.177   6.305   1.456 -0.1429  0.0805 -0.3832
  296TIP3    H1  852   1.235   6.380   1.460 -0.9276  0.6178  2.0603
  296TIP3    H2  853   1.103   6.334   1.403  0.4004  0.4147 -0.9558
  297TIP3   OH2  854   3.665   4.732   4.739  0.4580  0.6239 -0.1744
  297TIP3    H1  855   3.699   4.642   4.737 -1.9173 -0.3187  0.7014
  297TIP3    H2  856   3.704   4.769   4.818  0.3941 -0.0615  0.1874
  298TIP3   OH2  857   1.789   3.048   1.193  0.1061  1.0265  0.7817
  298TIP3    H1  858   1.862   3.031   1.253 -1.0485 -1.2547  1.5949
  298TIP3    H2  859   1.742   3.121   1.233  0.8406  1.2284  1.2881
  299TIP3   OH2  860   1.700   2.497   1.652 -0.2812  0.0897 -0.0803
  299TIP3    H1  861   1.622   2.490   1.706  0.1786 -0.2573  0.5384
  299TIP3    H2  862   1.670   2.477   1.563 -0.7083 -1.0008  0.3021
  300TIP3   OH2  863   0.526   2.624   3.685 -0.3684 -0.0371 -0.1399
  300TIP3    H1  864   0.604   2.657   3.730  0.0930 -0.8101 -0.3679
  300TIP3    H2  865   0.465   2.603   3.755  0.1503 -0.7392  0.1107
  301TIP3   OH2  866   1.197   1.719   2.094  0.3807  0.2369  0.1547
  301TIP3    H1  867   1.258   1.646   2.090  1.0337  0.8838 -2.0507
  301TIP3    H2  868   1.246   1.793   2.058 -1.2290  1.0884 -0.3156
  302TIP3   OH2  869   3.666   0.740   0.744 -0.0506  0.0994 -0.4912
  302TIP3    H1  870   3.581   0.724   0.704  0.4184  0.6848 -1.7605
  302TIP3    H2  871   3.696   0.653   0.772  0.1631 -0.5443 -2.5760
  303TIP3   OH2  872   1.596   2.134   0.450  0.6101  0.6419 -0.1384
  303TIP3    H1  873   1.612   2.201   0.517  1.9826 -0.6857  0.8765
  303TIP3    H2  874   1.668   2.072   0.459 -0.9306 -1.2993 -0.7016
  304TIP3   OH2  875   1.107   4.715   2.415  0.4192  0.1407  0.2016
  304TIP3    H1  876   1.047   4.651   2.454 -0.4703 -0.3976 -1.9803
  304TIP3    H2  877   1.051   4.769   2.359  1.7545  0.4655 -0.8377
  305TIP3   OH2  878   2.932   2.604   0.862 -0.2369  0.3756 -0.3712
  305TIP3    H1  879   2.909   2.696   0.877 -0.4088  0.4938 -1.3732
  305TIP3    H2  880   2.853   2.564   0.827 -0.5969 -0.4926  1.3689
  306TIP3   OH2  881   1.889   6.861   1.817  0.8644  0.1613 -0.1597
  306TIP3    H1  882   1.903   6.910   1.736  0.6646 -0.1013 -0.3528
  306TIP3    H2  883   1.978   6.842   1.849  0.9545 -0.3681 -0.7029
  307TIP3   OH2  884   3.497   1.164   0.528 -0.1928 -0.3981 -0.0786
  307TIP3    H1  885   3.446   1.234   0.568 -0.2431 -0.6787  0.3502
  307TIP3    H2  886   3.508   1.099   0.598  0.5162 -0.4617 -0.2471
  308TIP3   OH2  887   0.972   1.005   4.278 -0.0982  0.1632 -0.3119
  308TIP3    H1  888   0.964   1.042   4.191 -1.4874  0.4467 -0.0669
  308TIP3    H2  889   0.883   0.978   4.302  0.4118 -0.7161  0.6576
  309TIP3   OH2  890   2.128   4.876   1.347 -0.2188 -0.4574 -0.0749
  309TIP3    H1  891   2.088   4.962   1.362  0.5206  0.1219 -1.3860
  309TIP3    H2  892   2.053   4.817   1.337 -0.7426  0.3566 -1.0510
  310TIP3   OH2  893   0.148   2.112   2.829 -0.2623 -0.0699 -0.0925
  310TIP3    H1  894   0.072   2.147   2.782 -0.9926 -1.1294  0.2610
  310TIP3    H2  895   0.166   2.177   2.897 -1.1376 -0.0134  0.0966
  311TIP3   OH2  896   3.739   4.276   5.774 -0.2931  0.0863  0.2576
  311TIP3    H1  897   3.690   4.215   5.719  0.1588 -1.3393  1.4193
  311TIP3    H2  898   3.712   4.255   5.863  1.2092  0.3874  0.7947
  312TIP3   OH2  899   1.000   3.082   1.560  0.5810 -0.8710  0.1615
  312TIP3    H1  900   0.921   3.048   1.519  0.2049 -1.5457  1.4305
  312TIP3    H2  901   0.969   3.133   1.635  1.3016 -0.3253  0.1015
  313TIP3   OH2  902   2.164   6.736   1.930 -0.4816  0.4336  0.6697
  313TIP3    H1  903   2.162   6.647   1.896  1.1353 -0.1215  1.9928
  313TIP3    H2  904   2.119   6.730   2.015 -0.0763  0.8112  0.9115
  314TIP3   OH2  905   2.615   3.049   1.726  0.0831  0.1681 -0.3155
  314TIP3    H1  906   2.569   3.101   1.792 -1.7271  0.6537 -1.9126
  314TIP3    H2  907   2.682   3.002   1.775 -0.1197  1.8072  1.6044
  315TIP3   OH2  908   3.894   2.917   0.041 -0.5198  0.0158  0.0552
  315TIP3    H1  909   3.933   2.938  -0.044 -1.5423 -1.0110 -0.6797
  315TIP3    H2  910   3.803   2.895   0.021 -0.3971 -1.6362  1.2188
  316TIP3   OH2  911   1.791   3.747   1.419  0.1783 -0.0622  0.3959
  316TIP3    H1  912   1.838   3.665   1.409 -0.9754 -0.7757  0.7763
  316TIP3    H2  913   1.739   3.737   1.499 -1.7700  0.1262 -0.8032
  317TIP3   OH2  914   1.833   3.051   1.469 -0.7658 -0.2342  0.1094
  317TIP3    H1  915   1.739   3.069   1.475 -0.9252 -1.2508  0.6740
  317TIP3    H2  916   1.849   2.980   1.531  0.7640  1.3465  1.5602
  318TIP3   OH2  917   1.198   4.366   0.435  0.0767 -0.3531  0.1794
  318TIP3    H1  918   1.173   4.322   0.353 -0.4067  2.0580 -1.0216
  318TIP3    H2  919   1.291   4.384   0.425  0.0409 -0.1599  0.1773
  319TIP3   OH2  920   5.582   6.839   2.643 -0.0796 -0.1878 -0.2491
  319TIP3    H1  921   5.662   6.844   2.694  0.3502 -1.4964 -0.7656
  319TIP3    H2  922   5.526   6.779   2.692 -0.3083 -0.1513 -0.4653
  320TIP3   OH2  923   1.618   2.237   0.216 -0.1932 -0.1104 -0.3630
  320TIP3    H1  924   1.612   2.214   0.309 -0.3058 -2.7136 -0.9970
  320TIP3    H2  925   1.533   2.275   0.195 -0.2185  0.3511  0.5349
  321TIP3   OH2  926   1.222   3.113   0.969  0.0579  0.9337  0.6199
  321TIP3    H1  927   1.273   3.178   1.016 -1.4416  2.2173  0.5114
  321TIP3    H2  928   1.188   3.055   1.037  1.7650 -0.0061  0.6752
  322TIP3   OH2  929   0.175   2.221   4.144  0.0322  0.2279  0.5008
  322TIP3    H1  930   0.147   2.263   4.226 -0.8196 -0.2902  0.4842
  322TIP3    H2  931   0.095   2.187   4.106  0.4940  0.0452 -0.3228
  323TIP3   OH2  932   2.131   1.590   1.379 -0.1067  0.3546 -0.3461
  323TIP3    H1  933   2.076   1.525   1.336  0.3622  0.2176 -0.7483
  323TIP3    H2  934   2.190   1.621   1.310  1.1658 -0.4129  0.3559
  324TIP3   OH2  935   6.573   1.658   0.191 -0.2579  0.6836 -0.3789
  324TIP3    H1  936   6.510   1.695   0.252  0.3978  0.0417  0.6898
  324TIP3    H2  937   6.601   1.576   0.230  0.1368  0.2337 -1.5607
  325TIP3   OH2  938   3.992   5.315   4.607  0.0960  0.2402 -0.2380
  325TIP3    H1  939   4.032   5.247   4.552  0.3132 -0.5832  0.9279
  325TIP3    H2  940   3.905   5.327   4.569  0.6434  0.4876 -1.4496
  326TIP3   OH2  941   2.493   1.663   2.318 -0.2184  0.2189 -0.2824
  326TIP3    H1  942   2.455   1.637   2.402  0.0989 -1.5176 -0.6385
  326TIP3    H2  943   2.426   1.641   2.254  0.7070 -1.3547 -0.7569
  327TIP3   OH2  944   6.895   6.016   2.795 -0.4516  0.3053  0.0484
  327TIP3    H1  945   6.989   6.012   2.773 -0.6343  1.8804 -1.0941
  327TIP3    H2  946   6.868   6.103   2.766 -2.6914 -0.8007 -1.2904
  328TIP3   OH2  947   3.578   0.911   1.920 -0.1725  0.0337  0.0257
  328TIP3    H1  948   3.516   0.983   1.928 -0.8559 -0.7709  2.2630
  328TIP3    H2  949   3.535   0.837   1.963  2.0800 -0.7156  1.0521
  329TIP3   OH2  950   2.826   2.499   2.837  0.2799  0.1889 -0.5665
  329TIP3    H1  951   2.746   2.546   2.813 -1.6943 -1.6614  2.1982
  329TIP3    H2  952   2.881   2.566   2.879 -0.4881  1.0885 -0.9806
  330TIP3   OH2  953   7.314   3.269   1.315  0.4061  0.2212 -0.0067
  330TIP3    H1  954   7.392   3.281   1.261  1.0174 -1.6586  0.4133
  330TIP3    H2  955   7.258   3.209   1.264  1.1412 -1.8444  1.5344
  331TIP3   OH2  956   3.536   3.064   2.603  0.3795  0.5713  0.3529
  331TIP3    H1  957   3.503   3.024   2.522 -1.6942  0.9848  0.9593
  331TIP3    H2  958   3.529   2.995   2.669 -1.1814  1.2519  0.9224
  332TIP3   OH2  959   6.260   6.393   1.664  0.3888  0.4717  0.1562
  332TIP3    H1  960   6.342   6.366   1.622  0.1780 -1.2152  0.8025
  332TIP3    H2  961   6.280   6.395   1.757 -0.4719 -0.6223  0.3776
  333TIP3   OH2  962   1.427   2.263   1.674 -0.5735 -0.4818 -0.1978
  333TIP3    H1  963   1.447   2.293   1.586 -1.9301 -0.4388 -0.5121
  333TIP3    H2  964   1.363   2.192   1.661 -1.3682  0.0389  0.7717
  334TIP3   OH2  965   1.757   1.659   1.265  0.0977  0.3023 -0.3888
  334TIP3    H1  966   1.677   1.608   1.252 -0.8247  2.1171 -2.1668
  334TIP3    H2  967   1.808   1.644   1.186  1.1858 -0.2762  0.4250
  335TIP3   OH2  968   1.196   0.727   3.722  0.7395 -0.2863 -0.1050
  335TIP3    H1  969   1.256   0.782   3.772 -2.5421  1.2638  2.3300
  335TIP3    H2  970   1.184   0.649   3.777 -0.5812  0.0731  0.1241
  336TIP3   OH2  971   6.361   6.340   1.920  0.1806 -0.0144  0.1152
  336TIP3    H1  972   6.441   6.307   1.963  0.5878  0.5212 -0.2263
  336TIP3    H2  973   6.297   6.270   1.933  0.7393 -0.5026  0.2953
  337TIP3   OH2  974   4.345   3.683   1.519 -0.3262  0.1019 -0.2669
  337TIP3    H1  975   4.307   3.596   1.505 -0.0123 -0.1301  0.3190
  337TIP3    H2  976   4.325   3.730   1.438  1.4836 -1.2336 -1.5517
  338TIP3   OH2  977   6.139   5.795   5.734  0.3390  0.4203  0.5783
  338TIP3    H1  978   6.083   5.728   5.696  1.3095 -0.3553  0.5111
  338TIP3    H2  979   6.100   5.812   5.820  0.7198 -1.0288  1.0542
  339TIP3   OH2  980   4.587   2.868   0.857 -0.2359 -0.0968 -0.3598
  339TIP3    H1  981   4.620   2.788   0.898 -2.0254 -0.6991 -0.0722
  339TIP3    H2  982   4.542   2.914   0.927 -0.7781  0.2945 -0.9635
  340TIP3   OH2  983   2.890   1.943   1.747  0.0847 -0.5432 -0.3370
  340TIP3    H1  984   2.918   1.950   1.839 -2.2049 -0.7453  0.4019
  340TIP3    H2  985   2.847   2.027   1.729 -1.6810 -1.4363 -0.4171
  341TIP3   OH2  986   2.552   6.823   0.843  0.0873  0.6142 -0.8097
  341TIP3    H1  987   2.623   6.887   0.845  0.7318 -0.1249 -0.2264
  341TIP3    H2  988   2.532   6.813   0.750 -0.8747  2.6042 -0.8588
  342TIP3   OH2  989   2.982   1.606   0.578  0.4117 -0.0028  0.2817
  342TIP3    H1  990   2.920   1.540   0.546  0.7191 -0.2110  0.1134
  342TIP3    H2  991   3.009   1.653   0.499  1.1852 -0.5286  0.2321
  343TIP3   OH2  992   2.032   1.282   1.753  0.1603 -0.1674 -0.0047
  343TIP3    H1  993   1.968   1.350   1.775  1.0246  1.3393 -2.0394
  343TIP3    H2  994   1.980   1.201   1.749 -1.3882  0.8255 -0.3762
  344TIP3   OH2  995   3.781   0.509   0.813 -0.5902  0.0774 -0.4961
  344TIP3    H1  996   3.806   0.430   0.765  1.8447  1.2033 -1.1610
  344TIP3    H2  997   3.761   0.478   0.902  0.5724 -1.2817 -0.6835
  345TIP3   OH2  998   0.754   4.391   2.073  0.5229 -0.7168  0.3582
  345TIP3    H1  999   0.786   4.412   1.986  1.3602  0.0464  0.8460
  345TIP3    H2 1000   0.673   4.442   2.082  1.1548  0.2549  0.5377
  346TIP3   OH2 1001   1.862   1.943   1.185 -0.4275  0.0208  0.9281
  346TIP3    H1 1002   1.900   1.860   1.216 -2.3336 -0.7304  1.3741
  346TIP3    H2 1003   1.767   1.930   1.195 -0.8440  1.5492 -0.8297
  347TIP3   OH2 1004   2.503   3.309   1.431  0.1663  0.7502  0.0168
  347TIP3    H1 1005   2.443   3.377   1.461  0.2726  0.2486  1.3664
  347TIP3    H2 1006   2.468   3.227   1.465 -0.9508 -0.1463 -3.0778
  348TIP3   OH2 1007   4.442   2.164   1.077  0.0653 -0.0042 -0.4122
  348TIP3    H1 1008   4.459   2.070   1.070 -2.3434 -0.5136  0.0561
  348TIP3    H2 1009   4.347   2.171   1.084 -0.1961  2.7555 -4.7121
  349TIP3   OH2 1010   5.511   0.038   5.775  0.3903 -0.1186 -0.2327
  349TIP3    H1 1011   5.598   0.064   5.804  0.4973 -0.1093 -0.5498
  349TIP3    H2 1012   5.450   0.087   5.830  0.5890  0.8975 -0.9042
  350TIP3   OH2 1013   3.085   0.468   1.281  0.5252  0.0272  0.0992
  350TIP3    H1 1014   3.104   0.539   1.220  0.5247 -0.0188  0.0456
  350TIP3    H2 1015   3.136   0.489   1.359  1.2514 -0.3964 -0.2554
  351TIP3   OH2 1016   1.972   2.507   2.472  0.5114 -0.2999 -0.1722
  351TIP3    H1 1017   1.899   2.569   2.469  1.6820  1.0468 -2.7807
  351TIP3    H2 1018   1.956   2.455   2.550 -2.9800  0.2728 -0.4168
  352TIP3   OH2 1019   0.223   0.704   4.917 -0.3894 -0.2351  0.0341
  352TIP3    H1 1020   0.300   0.732   4.868  0.2025 -1.3535  0.3100
  352TIP3    H2 1021   0.257   0.684   5.005 -1.4288  1.7470  0.9227
  353TIP3   OH2 1022   1.199   2.291   1.075 -0.8761  0.0554 -0.0398
  353TIP3    H1 1023   1.197   2.255   1.163 -3.3656 -1.3704 -0.6309
  353TIP3    H2 1024   1.221   2.217   1.019 -1.3982  0.4819 -0.8261
  354TIP3   OH2 1025   3.026   2.537   1.700 -0.1857 -0.6714  0.0937
  354TIP3    H1 1026   2.990   2.624   1.680  1.6215  0.1952  0.4343
  354TIP3    H2 1027   2.971   2.503   1.770 -0.6384  0.3973  0.2662
  355TIP3   OH2 1028   4.504   5.967   5.664 -0.6157  0.2966 -0.3389
  355TIP3    H1 1029   4.585   5.984   5.616 -0.2426 -0.7409 -0.0852
  355TIP3    H2 1030   4.532   5.924   5.745 -1.4794 -0.8969 -0.6594
  356TIP3   OH2 1031   0.063   4.326   1.630 -0.4428 -0.5515  0.0306
  356TIP3    H1 1032   0.139   4.277   1.660 -0.8261 -0.4628  1.1900
  356TIP3    H2 1033  -0.000   4.259   1.603 -1.4561 -0.7929  2.8074
  357TIP3   OH2 1034   7.397   5.424   2.967 -0.1329  0.1999 -0.6755
  357TIP3    H1 1035   7.335   5.398   2.899  2.1010  0.1671 -2.7653
  357TIP3    H2 1036   7.421   5.341   3.009 -1.0639  0.1551 -0.2085
  358TIP3   OH2 1037   1.155   4.403   2.229  0.2661  0.2094 -0.0483
  358TIP3    H1 1038   1.111   4.485   2.211 -0.1792 -0.1172 -0.4497
  358TIP3    H2 1039   1.154   4.396   2.325 -0.5752  0.1915 -0.0550
  359TIP3   OH2 1040   6.254   1.899   0.951  0.1371 -0.1824 -0.6286
  359TIP3    H1 1041   6.166   1.917   0.917  0.4221 -0.6754 -1.6524
  359TIP3    H2 1042   6.246   1.816   0.997 -0.4937  1.0026  1.4851
  360TIP3   OH2 1043   2.905   4.101   1.109 -0.1233 -0.1812  0.2974
  360TIP3    H1 1044   2.896   4.144   1.024  1.9559 -0.8097 -0.2770
  360TIP3    H2 1045   2.854   4.156   1.169 -1.5436  0.3113 -1.3211
  361TIP3   OH2 1046   4.097   0.289   2.009  0.1388  0.0773  0.6790
  361TIP3    H1 1047   4.019   0.266   1.958  0.3126  0.3043  0.3088
  361TIP3    H2 1048   4.075   0.263   2.099  0.4631 -1.8316  0.2315
  362TIP3   OH2 1049   6.676   6.377   6.028 -0.2261  0.2567 -0.3284
  362TIP3    H1 1050   6.682   6.432   6.106  1.5174 -0.6772  0.2235
  362TIP3    H2 1051   6.593   6.402   5.987 -0.9111  1.1048  1.5420
  363TIP3   OH2 1052   2.183   3.937   2.685 -0.1123  0.1161  0.4893
  363TIP3    H1 1053   2.136   4.014   2.654  0.0551 -0.1568 -0.4679
  363TIP3    H2 1054   2.274   3.965   2.691  0.3352 -0.6016 -2.0444
  364TIP3   OH2 1055   2.767   2.207   0.923  0.0607 -0.3539  0.4004
  364TIP3    H1 1056   2.862   2.200   0.916  0.1740  1.2278  0.1755
  364TIP3    H2 1057   2.745   2.157   1.001  1.2095  0.1802  1.0857
  365TIP3   OH2 1058   1.497   1.902   0.792  0.3415  0.0531  0.1024
  365TIP3    H1 1059   1.580   1.880   0.750 -0.2964 -0.0383 -1.1349
  365TIP3    H2 1060   1.475   1.989   0.759 -0.2059 -0.0539  0.1702
  366TIP3   OH2 1061   0.488   6.477   2.710  0.0322  0.2566 -0.2930
  366TIP3    H1 1062   0.509   6.429   2.790 -0.1077 -0.3879 -0.6418
  366TIP3    H2 1063   0.570   6.521   2.686  0.0799  0.4414  0.1886
  367TIP3   OH2 1064   1.404   1.338   1.605 -0.1351  0.4408  0.9285
  367TIP3    H1 1065   1.324   1.320   1.554  0.5250 -1.8313  0.6117
  367TIP3    H2 1066   1.426   1.428   1.585  0.0835 -0.3694 -2.8671
  368TIP3   OH2 1067   3.158   2.065   1.212  0.1579  0.0350  0.0072
  368TIP3    H1 1068   3.243   2.026   1.190  0.6041  1.2617 -0.5256
  368TIP3    H2 1069   3.099   1.991   1.223  1.4876 -0.8791  1.1669
  369TIP3   OH2 1070   1.759   1.452   5.675  0.0048 -0.0978 -0.7005
  369TIP3    H1 1071   1.700   1.419   5.743 -0.9508  2.2899 -0.3068
  369TIP3    H2 1072   1.843   1.410   5.692 -0.2121  0.5138  1.9889
  370TIP3   OH2 1073   4.478   2.695   1.308 -0.2500  0.0003  0.0995
  370TIP3    H1 1074   4.392   2.716   1.269 -0.8660 -1.8196  0.4302
  370TIP3    H2 1075   4.464   2.706   1.402 -0.1655 -0.4415  0.1633
  371TIP3   OH2 1076   3.897   1.464   0.486 -0.4567  0.4057  0.7304
  371TIP3    H1 1077   3.824   1.412   0.519 -0.3960 -0.5182 -0.5809
  371TIP3    H2 1078   3.926   1.516   0.562 -1.9237  0.1633  1.4588
  372TIP3   OH2 1079   5.324   4.283   2.931  0.4833 -0.0969  0.7552
  372TIP3    H1 1080   5.285   4.370   2.919 -0.6699 -0.7117  0.0025
  372TIP3    H2 1081   5.270   4.242   2.998  1.3486 -0.0581  1.4956
  373TIP3   OH2 1082   2.719   1.860   1.563  0.7187 -0.5336  0.5976
  373TIP3    H1 1083   2.676   1.780   1.593  0.1534 -0.8750 -1.0690
  373TIP3    H2 1084   2.794   1.870   1.621 -0.0254 -1.4632  1.7511
  374TIP3   OH2 1085   7.283   6.059   3.980 -0.2761  0.1899 -0.4905
  374TIP3    H1 1086   7.321   6.023   4.060 -1.6737 -1.4735 -0.5331
  374TIP3    H2 1087   7.224   6.128   4.010  0.5910  0.8271 -0.2294
  375TIP3   OH2 1088   2.020   1.123   4.483  0.1643  0.5303 -1.0144
  375TIP3    H1 1089   2.013   1.034   4.449  2.5940 -0.5712  1.2075
  375TIP3    H2 1090   1.936   1.139   4.527  0.2099 -1.1581 -0.2975
  376TIP3   OH2 1091   1.045   2.338   4.111 -0.0117  0.1077 -0.2976
  376TIP3    H1 1092   1.003   2.294   4.037 -0.2784 -1.4583  0.7533
  376TIP3    H2 1093   1.138   2.318   4.102  0.1629  1.2246 -1.0627
  377TIP3   OH2 1094   1.604   1.444   0.570  0.1355  0.2026  0.0835
  377TIP3    H1 1095   1.564   1.455   0.656  0.3152 -2.4106  0.5335
  377TIP3    H2 1096   1.561   1.510   0.515 -1.0604  0.8890  1.7868
  378TIP3   OH2 1097   3.350   2.904   1.022  0.0322  0.2710 -0.0820
  378TIP3    H1 1098   3.263   2.941   1.030  0.8253  2.6896 -2.1038
  378TIP3    H2 1099   3.360   2.886   0.929  1.0501 -1.6587  0.3662
  379TIP3   OH2 1100   5.277   3.052   2.043  0.3379  0.5409  0.0516
  379TIP3    H1 1101   5.265   3.043   2.137 -3.3900 -1.2898 -0.5233
  379TIP3    H2 1102   5.218   3.123   2.017  1.7741  1.4381 -0.8372
  380TIP3   OH2 1103   7.378   0.031   0.133  0.6403 -0.0088  0.1490
  380TIP3    H1 1104   7.455   0.015   0.078 -0.0834 -0.9655 -0.6069
  380TIP3    H2 1105   7.313  -0.032   0.101  0.6853 -1.6066  3.0611
  381TIP3   OH2 1106   0.788   4.489   4.480 -0.7690  0.3743  0.2450
  381TIP3    H1 1107   0.859   4.430   4.454  1.3659  1.4460  3.3626
  381TIP3    H2 1108   0.744   4.443   4.551 -2.1495  0.4687 -0.5320
  382TIP3   OH2 1109   0.759   6.169   1.993  0.3008 -0.0532  0.3468
  382TIP3    H1 1110   0.756   6.235   1.924  0.7621  0.6435  0.9754
  382TIP3    H2 1111   0.677   6.180   2.042 -0.0927 -0.6453 -0.1776
  383TIP3   OH2 1112   6.105   3.618   0.455 -0.0154  0.4160 -0.4785
  383TIP3    H1 1113   6.042   3.558   0.495  0.7984  0.9856  1.7972
  383TIP3    H2 1114   6.053   3.693   0.427 -0.6158  0.0286 -0.4132
  384TIP3   OH2 1115   5.289   3.192   1.298  0.9623 -0.0011 -0.2435
  384TIP3    H1 1116   5.383   3.176   1.291  0.9052  0.6637 -3.5864
  384TIP3    H2 1117   5.265   3.229   1.213 -2.6670 -1.9409 -0.1830
  385TIP3   OH2 1118   1.843   0.093   1.553 -0.0537 -0.1793 -0.1910
  385TIP3    H1 1119   1.781   0.068   1.622 -0.5243 -0.4358 -0.7076
  385TIP3    H2 1120   1.886   0.171   1.588 -0.6236 -0.0292  0.1992
  386TIP3   OH2 1121   4.856   2.168   1.803 -0.2839  0.7187  0.4371
  386TIP3    H1 1122   4.830   2.231   1.736  0.9645  0.0015 -0.7718
  386TIP3    H2 1123   4.948   2.188   1.820  1.1671 -2.8206 -2.4530
  387TIP3   OH2 1124   2.858   1.429   3.011 -0.4917  0.1735 -0.1788
  387TIP3    H1 1125   2.790   1.369   3.040 -1.8679  2.1966  0.8554
  387TIP3    H2 1126   2.886   1.394   2.926 -1.2227 -1.9432  0.4421
  388TIP3   OH2 1127   5.105   2.401   1.302  0.2175 -0.6905  0.0909
  388TIP3    H1 1128   5.101   2.484   1.351  0.6079 -1.3448  1.2635
  388TIP3    H2 1129   5.199   2.385   1.292  0.1442 -1.1491  0.1527
  389TIP3   OH2 1130   3.502   3.282   2.140  0.2406  0.0148 -0.0057
  389TIP3    H1 1131   3.565   3.323   2.200  0.5162  1.4018 -1.2062
  389TIP3    H2 1132   3.536   3.302   2.052  0.3095 -2.7076 -0.6435
  390TIP3   OH2 1133   4.986   0.706   1.556  0.0138 -0.4965 -0.2036
  390TIP3    H1 1134   5.041   0.693   1.633  0.4215  0.2105 -0.3675
  390TIP3    H2 1135   5.046   0.738   1.489 -0.5889  0.2483 -0.4005
  391TIP3   OH2 1136   4.819   1.156   0.816 -0.1893 -0.1037  0.1500
  391TIP3    H1 1137   4.795   1.162   0.909 -0.5860  0.7907 -0.0038
  391TIP3    H2 1138   4.854   1.242   0.795 -0.8479 -0.0495 -0.7381
  392TIP3   OH2 1139   0.905   6.546   2.115 -0.5650  0.2394  0.7736
  392TIP3    H1 1140   0.811   6.560   2.116 -0.4435  1.0449  1.0917
  392TIP3    H2 1141   0.943   6.634   2.119  0.1966 -0.0893  0.9590
  393TIP3   OH2 1142   3.287   1.401   2.933 -0.2270 -0.1903 -0.2706
  393TIP3    H1 1143   3.300   1.491   2.904 -0.8831  0.2960  0.9376
  393TIP3    H2 1144   3.307   1.348   2.855  1.3634  0.9186 -0.6501
  394TIP3   OH2 1145   3.434   2.957   1.275  0.0669  0.1745  0.2462
  394TIP3    H1 1146   3.502   2.935   1.211 -1.5101 -0.3751 -1.3058
  394TIP3    H2 1147   3.359   2.904   1.248 -1.6295  2.3056  0.6476
  395TIP3   OH2 1148   4.536   3.055   0.428  0.1879 -0.4028  0.3514
  395TIP3    H1 1149   4.443   3.078   0.438  0.4694  0.8374  0.1696
  395TIP3    H2 1150   4.535   2.978   0.370 -0.6121  1.0507 -1.6460
  396TIP3   OH2 1151   5.788   1.204   0.897 -0.1160 -0.7761 -0.3526
  396TIP3    H1 1152   5.845   1.280   0.883 -0.9766 -0.2010 -0.7688
  396TIP3    H2 1153   5.808   1.145   0.825  0.6912 -1.0315  0.0761
  397TIP3   OH2 1154   2.291   4.285   0.706 -0.2343 -0.5925  0.1810
  397TIP3    H1 1155   2.236   4.256   0.778 -1.0182 -1.2622 -0.6721
  397TIP3    H2 1156   2.304   4.379   0.722 -2.6244 -0.1495 -0.2261
  398TIP3   OH2 1157   2.816   0.433   5.458 -0.4562 -0.1874  0.5300
  398TIP3    H1 1158   2.828   0.360   5.520 -0.6106 -0.1580  0.5951
  398TIP3    H2 1159   2.883   0.418   5.391 -1.4676 -1.2309 -0.2548
  399TIP3   OH2 1160   6.640   6.168   5.071  0.0604 -0.0597  0.2669
  399TIP3    H1 1161   6.630   6.132   5.159  2.1914  0.4622  0.7420
  399TIP3    H2 1162   6.653   6.262   5.084  0.7856 -0.0313 -0.5721
  400TIP3   OH2 1163   4.435   1.237   1.076  0.2931 -0.2467 -0.1921
  400TIP3    H1 1164   4.482   1.316   1.103 -0.4963 -0.1977  1.0473
  400TIP3    H2 1165   4.387   1.263   0.997  0.1125  0.4814  0.1549
  401TIP3   OH2 1166   6.860   6.877   5.429  0.0323 -0.1119 -0.4690
  401TIP3    H1 1167   6.912   6.817   5.483  0.0957  0.7500  0.4421
  401TIP3    H2 1168   6.834   6.825   5.353 -0.1073 -1.3648  0.4261
  402TIP3   OH2 1169   5.339   2.702   3.695  0.2237 -0.1042 -0.2353
  402TIP3    H1 1170   5.274   2.669   3.633 -1.1445  0.3770  0.9265
  402TIP3    H2 1171   5.373   2.624   3.739 -2.8557 -0.0575  2.3675
  403TIP3   OH2 1172   4.113   5.666   0.367  0.1613 -0.8801  0.3422
  403TIP3    H1 1173   4.040   5.717   0.404 -0.2388 -1.7684  0.7874
  403TIP3    H2 1174   4.071   5.592   0.323  0.6089  0.2876 -2.1312
  404TIP3   OH2 1175   6.228   3.146   2.927  0.2422  0.5606  0.3978
  404TIP3    H1 1176   6.285   3.083   2.971  0.3213 -0.2073 -0.7566
  404TIP3    H2 1177   6.148   3.096   2.908  0.2298  0.8557 -0.3627
  405TIP3   OH2 1178   1.013   5.003   3.745  0.1925  0.0190 -0.1966
  405TIP3    H1 1179   0.924   4.971   3.730  0.7053 -1.2277 -0.5896
  405TIP3    H2 1180   1.004   5.099   3.744 -0.8219 -0.0755 -2.2833
  406TIP3   OH2 1181   5.161   1.475   0.464  0.2217  0.1222 -0.0607
  406TIP3    H1 1182   5.191   1.437   0.382  0.6591  2.7120 -1.1356
  406TIP3    H2 1183   5.218   1.551   0.478 -0.5463  0.3511  2.0831
  407TIP3   OH2 1184   1.880   6.996   2.144 -0.1651 -0.6529  0.6911
  407TIP3    H1 1185   1.962   6.948   2.158 -0.1283 -0.8714 -0.2715
  407TIP3    H2 1186   1.812   6.936   2.177 -0.1338 -1.4566 -0.6886
  408TIP3   OH2 1187   5.032   2.502   0.430 -0.1453 -0.4227  0.2266
  408TIP3    H1 1188   5.029   2.539   0.342 -0.7867 -0.4531  0.2353
  408TIP3    H2 1189   5.009   2.574   0.488 -1.4370 -0.8392  0.2394
  409TIP3   OH2 1190   5.689   4.225   2.573 -0.1637 -0.0161 -0.3019
  409TIP3    H1 1191   5.666   4.161   2.641  2.2153 -1.6191 -0.9310
  409TIP3    H2 1192   5.611   4.229   2.517  0.0080 -3.2404 -0.8639
  410TIP3   OH2 1193   3.706   2.787   0.603  0.1489  0.0748 -0.0170
  410TIP3    H1 1194   3.680   2.721   0.666 -0.3375  1.0814  0.8389
  410TIP3    H2 1195   3.802   2.788   0.607  0.0960  0.7072  1.3054
  411TIP3   OH2 1196   4.149   4.687   1.494 -0.3353 -0.5226 -0.1640
  411TIP3    H1 1197   4.078   4.751   1.485 -0.4469 -0.8624 -1.9142
  411TIP3    H2 1198   4.172   4.665   1.404  0.9354 -1.5938  0.4150
  412TIP3   OH2 1199   6.104   6.339   5.713  0.1369 -0.1014 -0.0166
  412TIP3    H1 1200   6.126   6.380   5.629 -1.4709  1.0286  0.0819
  412TIP3    H2 1201   6.131   6.247   5.703  1.4207  0.3906 -1.1735
  413TIP3   OH2 1202   4.937   3.022   1.905 -0.6790 -0.5942  0.0348
  413TIP3    H1 1203   4.998   3.090   1.933  1.1069 -1.6530 -1.1801
  413TIP3    H2 1204   4.898   2.989   1.986  2.3306 -1.7034  1.0724
  414TIP3   OH2 1205   0.792   0.139   0.492 -0.0652  0.3002  0.2151
  414TIP3    H1 1206   0.778   0.103   0.580  1.0857  0.3319  0.4204
  414TIP3    H2 1207   0.887   0.135   0.479 -0.3378 -0.9531 -1.5792
  415TIP3   OH2 1208   0.556   2.450   1.375  0.0927  0.6793  0.3602
  415TIP3    H1 1209   0.530   2.469   1.465  1.1119 -0.3480  0.8762
  415TIP3    H2 1210   0.601   2.366   1.380 -1.4897 -0.3033 -1.4057
  416TIP3   OH2 1211   2.624   1.742   0.366 -0.0523  0.7444  0.2501
  416TIP3    H1 1212   2.557   1.775   0.427 -0.3456 -1.1380  0.9658
  416TIP3    H2 1213   2.580   1.738   0.282 -0.8351 -0.3866  0.7006
  417TIP3   OH2 1214   5.471   3.129   1.010 -0.2896 -0.3333 -0.3461
  417TIP3    H1 1215   5.532   3.146   0.937 -0.7556 -0.4405 -0.7644
  417TIP3    H2 1216   5.394   3.181   0.989  0.7777  2.2052  1.7185
  418TIP3   OH2 1217   4.676   1.342   0.618 -0.2845 -0.0252 -0.2920
  418TIP3    H1 1218   4.673   1.299   0.533  0.8498  0.3425 -0.5312
  418TIP3    H2 1219   4.732   1.286   0.672 -0.9800 -0.2442  0.2095
  419TIP3   OH2 1220   4.008   2.999   1.472 -0.0470  0.1096  0.3845
  419TIP3    H1 1221   4.055   2.969   1.550  0.0150  0.1236  0.3530
  419TIP3    H2 1222   3.947   2.929   1.452  1.4439 -0.8567 -0.8375
  420TIP3   OH2 1223   1.075   1.409   5.414  0.1045 -0.1310 -0.1667
  420TIP3    H1 1224   1.146   1.429   5.352  0.0549 -2.2149 -0.9345
  420TIP3    H2 1225   1.120   1.379   5.493  0.1001  0.0643 -0.0883
  421TIP3   OH2 1226   0.945   6.690   5.871 -0.5873 -0.0014 -0.6562
  421TIP3    H1 1227   0.917   6.769   5.825  0.9233  1.2629  0.5084
  421TIP3    H2 1228   1.041   6.689   5.860 -0.1453  0.5232  2.6972
  422TIP3   OH2 1229   4.589   2.362   0.554 -0.1019 -0.0485 -0.4553
  422TIP3    H1 1230   4.635   2.334   0.476 -0.0925  0.1211 -0.5105
  422TIP3    H2 1231   4.620   2.451   0.570  0.0206 -0.1415 -0.1656
  423TIP3   OH2 1232   4.986   0.937   0.966 -0.0035  0.6124  0.5260
  423TIP3    H1 1233   4.897   0.909   0.988  0.4374 -0.0058  1.5732
  423TIP3    H2 1234   4.996   1.022   1.008  0.9795 -0.7544  3.1469
  424TIP3   OH2 1235   0.495   5.080   5.670 -0.2726 -0.2518  0.2249
  424TIP3    H1 1236   0.501   4.993   5.709  0.3713 -0.5507 -0.5535
  424TIP3    H2 1237   0.585   5.104   5.648 -0.4752  0.4974  0.1807
  425TIP3   OH2 1238   5.100   2.658   1.431 -0.1060  0.6685 -0.1616
  425TIP3    H1 1239   5.185   2.695   1.410 -0.3994  0.9467 -0.8626
  425TIP3    H2 1240   5.038   2.705   1.375 -0.4472 -1.1421 -1.3490
  426TIP3   OH2 1241   2.531   1.923   2.251  0.4338 -0.1480  0.2288
  426TIP3    H1 1242   2.553   1.901   2.161  1.8520 -0.0069  0.5253
  426TIP3    H2 1243   2.519   1.838   2.295 -0.6656 -0.2134 -0.1688
  427TIP3   OH2 1244   4.046   3.991   2.247 -0.1917 -0.2222 -0.0512
  427TIP3    H1 1245   4.095   4.059   2.294  2.1156 -2.4990  0.9961
  427TIP3    H2 1246   4.051   4.017   2.155 -0.2523  1.5675  0.4340
  428TIP3   OH2 1247   7.320   5.873   3.757 -0.5005  0.3382 -0.4568
  428TIP3    H1 1248   7.290   5.943   3.700 -0.1815  1.2719  0.5149
  428TIP3    H2 1249   7.330   5.914   3.843  2.0335 -0.2899 -0.3966
  429TIP3   OH2 1250   3.070   1.756   0.356 -0.3740 -0.0009  0.4720
  429TIP3    H1 1251   3.019   1.832   0.383 -0.2150  0.7723 -1.3047
  429TIP3    H2 1252   3.044   1.741   0.265  0.7222 -1.1367  0.3262
  430TIP3   OH2 1253   5.335   2.020   1.277  0.7758 -0.6371 -0.6814
  430TIP3    H1 1254   5.390   2.064   1.213  0.7457 -0.6747 -0.7333
  430TIP3    H2 1255   5.294   2.091   1.327  0.5454 -0.6010 -0.9181
  431TIP3   OH2 1256   5.738   3.779   3.005 -0.3290 -0.0979 -0.7570
  431TIP3    H1 1257   5.715   3.781   3.098 -0.7147  1.4169 -0.8648
  431TIP3    H2 1258   5.833   3.786   3.003 -0.1727 -1.7957 -0.4443
  432TIP3   OH2 1259   5.573   4.286   0.251 -0.1140  0.3924  0.3617
  432TIP3    H1 1260   5.649   4.260   0.304  0.3547  1.9767  0.5032
  432TIP3    H2 1261   5.501   4.294   0.314  0.2801  1.6008  0.6767
  433TIP3   OH2 1262   3.589   1.217   2.262  0.2223 -0.3861  0.2160
  433TIP3    H1 1263   3.654   1.183   2.201 -2.0898  0.5935 -2.9851
  433TIP3    H2 1264   3.526   1.146   2.273  0.3085 -0.3463  1.0112
  434TIP3   OH2 1265   5.088   5.395   4.880 -0.1339 -0.2545 -0.4803
  434TIP3    H1 1266   5.055   5.483   4.894  1.5941  0.4054 -0.4502
  434TIP3    H2 1267   5.034   5.361   4.808  0.0572  1.3276 -1.4124
  435TIP3   OH2 1268   1.727   1.865   3.109  0.0077  0.1072 -0.6094
  435TIP3    H1 1269   1.808   1.911   3.088  0.3532 -1.2166 -2.2653
  435TIP3    H2 1270   1.658   1.925   3.082  0.3589  1.7643  1.9188
  436TIP3   OH2 1271   2.027   2.341   2.103 -0.4390  0.7558  0.1119
  436TIP3    H1 1272   2.080   2.366   2.179  0.2937  0.3794 -0.2729
  436TIP3    H2 1273   2.027   2.419   2.047  0.7689  0.3276 -0.4840
  437TIP3   OH2 1274   3.010   1.839   1.172  0.2397  0.0575 -0.4396
  437TIP3    H1 1275   2.949   1.811   1.104 -0.7801 -0.2087  0.5729
  437TIP3    H2 1276   3.083   1.778   1.165  1.4030  1.6826 -3.0575
  438TIP3   OH2 1277   4.148   2.134   1.062  0.7847  0.1199  0.2440
  438TIP3    H1 1278   4.092   2.057   1.056 -1.7300  1.8327  0.8383
  438TIP3    H2 1279   4.174   2.152   0.972 -0.5383 -0.0511 -0.1778
  439TIP3   OH2 1280   4.799   1.453   3.087 -0.2498 -0.0986 -0.0586
  439TIP3    H1 1281   4.891   1.475   3.098 -0.5070  0.1266  1.8981
  439TIP3    H2 1282   4.773   1.494   3.005  0.6861  2.1557  0.7559
  440TIP3   OH2 1283   3.093   1.937   0.900 -0.0128  0.4038 -0.7280
  440TIP3    H1 1284   3.013   1.944   0.952 -0.0505  1.2477 -0.8780
  440TIP3    H2 1285   3.159   1.906   0.962 -0.6179 -1.0126 -0.7832
  441TIP3   OH2 1286   5.946   0.671   1.608 -0.0625 -0.0625 -0.2845
  441TIP3    H1 1287   5.968   0.757   1.574 -0.0172  0.3020  0.6481
  441TIP3    H2 1288   5.896   0.688   1.688 -1.7888 -0.8940 -1.1461
  442TIP3   OH2 1289   7.131   5.956   5.224 -0.0566  0.4229  0.0902
  442TIP3    H1 1290   7.137   5.948   5.320  1.0120  1.4557  0.1163
  442TIP3    H2 1291   7.222   5.969   5.196 -0.0782 -2.0987 -1.2821
  443TIP3   OH2 1292   4.913   2.954   0.079 -0.0612 -0.1772 -0.5879
  443TIP3    H1 1293   4.822   2.976   0.103 -0.9337 -2.0605 -2.0199
  443TIP3    H2 1294   4.963   3.033   0.102 -2.2148  1.3050 -0.7554
  444TIP3   OH2 1295   3.444   1.035   1.232  0.3502  0.4515  0.1722
  444TIP3    H1 1296   3.468   1.119   1.193  1.1771  0.3758  0.5057
  444TIP3    H2 1297   3.510   1.021   1.301 -0.3935  0.0260  0.7987
  445TIP3   OH2 1298   3.079   6.512   0.676 -0.5175 -0.2525  0.3401
  445TIP3    H1 1299   3.171   6.512   0.699 -0.8729  0.2696  1.7781
  445TIP3    H2 1300   3.078   6.532   0.582  0.7513  1.2631  0.6254
  446TIP3   OH2 1301   1.485   6.889   2.247 -0.5072 -0.1168 -0.4547
  446TIP3    H1 1302   1.467   6.845   2.164 -0.2534 -1.7563  0.3414
  446TIP3    H2 1303   1.406   6.941   2.264 -1.3973 -1.3476 -0.7321
  447TIP3   OH2 1304   3.581   3.686   1.340 -0.1614 -0.4954 -0.6597
  447TIP3    H1 1305   3.662   3.704   1.293 -0.9828 -1.8462 -2.6429
  447TIP3    H2 1306   3.610   3.669   1.430  1.4589  1.6824 -0.7207
  448TIP3   OH2 1307   4.024   2.059   2.373 -0.0021 -0.3767  0.2623
  448TIP3    H1 1308   4.018   1.965   2.354 -0.1901 -0.1351 -0.9096
  448TIP3    H2 1309   3.933   2.087   2.382 -0.0693  0.1881 -1.9327
  449TIP3   OH2 1310   5.549   1.687   1.297 -0.4499  0.1131 -0.3247
  449TIP3    H1 1311   5.597   1.740   1.234  0.8235 -0.6374  0.0086
  449TIP3    H2 1312   5.612   1.623   1.329 -1.1787  0.2091  1.4010
  450TIP3   OH2 1313   2.151   6.008   0.188  0.6258  0.2165 -0.4144
  450TIP3    H1 1314   2.200   6.051   0.258  0.0429 -2.4580  1.7299
  450TIP3    H2 1315   2.218   5.970   0.132  1.0755  1.0592 -0.4577
  451TIP3   OH2 1316   5.594   3.536   0.414  0.7687  0.3464  0.2514
  451TIP3    H1 1317   5.513   3.490   0.435  1.1077 -0.4798 -0.2050
  451TIP3    H2 1318   5.663   3.474   0.435  1.2501  0.7618 -0.0914
  452TIP3   OH2 1319   6.958   6.312   6.031  0.2552  0.3785  0.4518
  452TIP3    H1 1320   6.863   6.319   6.024  0.3022  0.5295 -0.0998
  452TIP3    H2 1321   6.981   6.240   5.972  0.3243 -0.7505  1.8436
  453TIP3   OH2 1322   3.715   1.738   1.013  0.3735  0.3030 -0.3242
  453TIP3    H1 1323   3.770   1.664   1.039  1.2152  1.3832  1.0251
  453TIP3    H2 1324   3.642   1.698   0.965  2.8206 -1.0869 -3.0656
  454TIP3   OH2 1325   6.392   5.602   4.468  0.0611  0.4046 -0.7234
  454TIP3    H1 1326   6.349   5.659   4.531  0.3309  1.2780 -1.3314
  454TIP3    H2 1327   6.436   5.536   4.522  0.5857  1.3516  0.0162
  455TIP3   OH2 1328   0.912   1.925   2.762 -0.6320 -0.2482 -0.5802
  455TIP3    H1 1329   0.958   2.004   2.791 -3.0920  1.3327 -0.8251
  455TIP3    H2 1330   0.896   1.876   2.842  0.4122 -0.2459 -0.3582
  456TIP3   OH2 1331   3.690   2.873   1.126  0.5642 -0.0155 -0.1817
  456TIP3    H1 1332   3.751   2.801   1.107  0.9492  0.5341 -1.0956
  456TIP3    H2 1333   3.723   2.946   1.073  0.4513  0.9666  1.0989
  457TIP3   OH2 1334   3.375   4.249   0.364 -0.0439 -0.5266 -0.6916
  457TIP3    H1 1335   3.466   4.239   0.338  0.6935  1.2311  1.1102
  457TIP3    H2 1336   3.373   4.329   0.416 -2.5632 -0.6983 -0.4483
  458TIP3   OH2 1337   1.964   3.345   5.708  0.3058 -0.1001 -0.6943
  458TIP3    H1 1338   2.057   3.339   5.687  0.3103 -0.4936 -0.5648
  458TIP3    H2 1339   1.922   3.365   5.625  0.4609 -0.3594 -0.8342
  459TIP3   OH2 1340   2.259   0.162   5.568 -0.4618  0.7844  0.3395
  459TIP3    H1 1341   2.289   0.099   5.634 -1.2774 -0.6557 -0.6395
  459TIP3    H2 1342   2.339   0.207   5.540 -0.0879  1.3412  2.1997
  460TIP3   OH2 1343   5.113   0.461   0.082  0.6658 -0.4746 -0.1098
  460TIP3    H1 1344   5.160   0.445   0.000  0.7847  1.4976 -0.4344
  460TIP3    H2 1345   5.059   0.538   0.065  0.9747  0.1962  1.7804
  461TIP3   OH2 1346   7.161   5.982   5.507 -0.1906  0.3149  0.2175
  461TIP3    H1 1347   7.217   6.001   5.582 -1.0589  1.7311  0.5147
  461TIP3    H2 1348   7.072   5.994   5.540 -0.5800  0.8295 -1.0141
  462TIP3   OH2 1349   4.260   3.004   0.660 -0.3957  0.5144 -0.4667
  462TIP3    H1 1350   4.262   2.911   0.681 -1.4856  0.1042 -2.0812
  462TIP3    H2 1351   4.258   3.048   0.745 -1.1021 -0.9788  0.3085
  463TIP3   OH2 1352   5.675   5.036   5.518 -0.9987 -0.2334 -0.0088
  463TIP3    H1 1353   5.729   5.081   5.584  1.2275 -3.1541  0.2561
  463TIP3    H2 1354   5.674   5.096   5.443 -0.7382  1.6284  1.4214
  464TIP3   OH2 1355   2.601   6.593   0.985  0.1935 -0.2835  0.0766
  464TIP3    H1 1356   2.588   6.673   0.934 -1.7845 -0.5880  0.0642
  464TIP3    H2 1357   2.675   6.549   0.942  1.0957  1.3702 -0.0928
  465TIP3   OH2 1358   5.525   2.165   0.847  0.2133  0.3729  0.3648
  465TIP3    H1 1359   5.483   2.251   0.858  0.6676  0.9969 -2.4070
  465TIP3    H2 1360   5.619   2.184   0.846  0.3236 -0.1935 -0.0677
  466TIP3   OH2 1361   6.224   6.941   4.160  0.0217 -0.4791  0.0740
  466TIP3    H1 1362   6.307   6.903   4.186 -0.2377 -1.8867 -1.0922
  466TIP3    H2 1363   6.164   6.920   4.231  0.0364 -1.7102 -0.2767
  467TIP3   OH2 1364   1.450   6.797   5.405 -0.5893 -0.4463 -0.1036
  467TIP3    H1 1365   1.466   6.871   5.465 -0.4220  0.0486 -0.7520
  467TIP3    H2 1366   1.477   6.720   5.455  1.5255  0.1436 -0.2703
  468TIP3   OH2 1367   4.578   3.336   0.415 -0.6046  0.6910  0.1921
  468TIP3    H1 1368   4.622   3.317   0.498 -0.8237 -0.7149  0.0052
  468TIP3    H2 1369   4.563   3.249   0.376 -0.4591  1.3389 -1.3377
  469TIP3   OH2 1370   0.538   5.235   4.792  0.0631 -0.2578 -0.2488
  469TIP3    H1 1371   0.585   5.317   4.806 -0.4867  0.0353 -0.1213
  469TIP3    H2 1372   0.566   5.180   4.866 -1.7484  0.8091  1.2978
  470TIP3   OH2 1373   1.262   5.824   3.018 -0.3909 -0.0269  0.5716
  470TIP3    H1 1374   1.305   5.752   2.971  1.7029  2.5352 -1.5403
  470TIP3    H2 1375   1.191   5.851   2.960 -1.5170 -0.6940  1.6115
  471TIP3   OH2 1376   0.983   4.224   5.414  0.1921  0.0812  0.0969
  471TIP3    H1 1377   1.070   4.199   5.444 -1.0249 -3.3991  0.9230
  471TIP3    H2 1378   0.989   4.223   5.319  1.2795  0.8033  0.1461
  472TIP3   OH2 1379   1.940   1.185   5.220  0.2208 -0.3828 -0.1504
  472TIP3    H1 1380   1.890   1.157   5.297  0.8442 -0.4172  0.2418
  472TIP3    H2 1381   2.017   1.228   5.255  0.2272  0.1167 -0.7607
  473TIP3   OH2 1382   4.147   3.103   1.942  0.2735  0.1448 -0.1815
  473TIP3    H1 1383   4.055   3.112   1.969  1.0216  1.6784  2.0002
  473TIP3    H2 1384   4.167   3.185   1.897  0.2807 -0.6296 -1.6061
  474TIP3   OH2 1385   6.626   4.290   5.913  0.4135  0.0148  0.5308
  474TIP3    H1 1386   6.671   4.209   5.890 -0.2756 -0.3132  0.3302
  474TIP3    H2 1387   6.571   4.310   5.837  1.9461  1.6615 -0.1938
  475TIP3   OH2 1388   2.387   1.477   5.295  0.0539 -0.5897  0.0041
  475TIP3    H1 1389   2.368   1.475   5.201 -0.5917 -1.3985  0.1460
  475TIP3    H2 1390   2.455   1.410   5.306  2.1678  1.4270 -0.3093
  476TIP3   OH2 1391   2.419   6.315   2.954 -0.1755 -0.4880 -0.1664
  476TIP3    H1 1392   2.367   6.238   2.930 -0.2960 -0.8565  1.2256
  476TIP3    H2 1393   2.495   6.279   3.000  0.6127  0.1300 -0.9677
  477TIP3   OH2 1394   5.365   3.373   0.483 -0.1844  0.5771 -0.3300
  477TIP3    H1 1395   5.407   3.294   0.447 -2.3471 -0.1816 -1.2739
  477TIP3    H2 1396   5.310   3.340   0.553  1.2460  1.6419  1.3180
  478TIP3   OH2 1397   4.602   2.819   1.709  0.8927  0.1987 -0.4196
  478TIP3    H1 1398   4.618   2.731   1.676 -2.3168  0.1692 -2.0525
  478TIP3    H2 1399   4.670   2.872   1.667  0.3592 -0.8383 -2.6828
  479TIP3   OH2 1400   1.034   4.824   4.906  0.1765  0.3208 -0.0456
  479TIP3    H1 1401   1.001   4.751   4.854  0.1953  0.5873 -0.4405
  479TIP3    H2 1402   1.024   4.900   4.848 -1.8308  0.9942  1.1248
  480TIP3   OH2 1403   3.567   1.834   1.239  0.1230 -0.4524  0.4084
  480TIP3    H1 1404   3.605   1.908   1.286 -0.1506 -0.1402  0.1383
  480TIP3    H2 1405   3.625   1.822   1.163 -0.7375  0.4923 -0.4002
  481TIP3   OH2 1406  -0.015   5.136   5.786  0.3259  0.4165 -0.0209
  481TIP3    H1 1407   0.011   5.150   5.695 -0.8466  2.1879 -0.1055
  481TIP3    H2 1408   0.026   5.207   5.834 -0.2865  0.3459  0.6106
  482TIP3   OH2 1409   7.150   4.832   5.752 -0.0722  0.6580  0.0036
  482TIP3    H1 1410   7.222   4.872   5.703  0.1457  1.3875  0.9122
  482TIP3    H2 1411   7.110   4.771   5.690  1.4805  0.0739 -0.4364
  483TIP3   OH2 1412   5.292   1.778   0.785 -0.7581 -0.5803  0.7132
  483TIP3    H1 1413   5.355   1.803   0.852  1.8389  1.0394 -2.1888
  483TIP3    H2 1414   5.276   1.858   0.736 -3.9295 -1.3433  0.4298
  484TIP3   OH2 1415   6.745   5.367   5.179  0.3680  0.2569 -0.5671
  484TIP3    H1 1416   6.713   5.457   5.180  0.0234  0.1310  0.8664
  484TIP3    H2 1417   6.839   5.375   5.198  0.2811  0.2878 -0.1584
  485TIP3   OH2 1418   7.216   4.389   4.514  0.6306 -0.2375 -0.1115
  485TIP3    H1 1419   7.246   4.320   4.454  0.2243 -0.6077  0.1045
  485TIP3    H2 1420   7.125   4.364   4.535  0.5951  0.1818  0.2336
  486TIP3   OH2 1421   3.350   1.644   4.709  0.3913 -0.1498  1.0115
  486TIP3    H1 1422   3.387   1.567   4.752  0.7312 -0.0589  0.8766
  486TIP3    H2 1423   3.425   1.695   4.681  0.1641  0.2779  1.1804
  487TIP3   OH2 1424   1.120   0.428   1.648 -0.0974  0.1114  0.1144
  487TIP3    H1 1425   1.185   0.484   1.691 -0.6203  1.0783 -0.3242
  487TIP3    H2 1426   1.123   0.456   1.556  0.0980 -1.0437 -0.2321
  488TIP3   OH2 1427   4.139   4.288   0.642  0.2975 -0.2807 -0.1973
  488TIP3    H1 1428   4.152   4.328   0.728  0.8272 -1.2660  0.1923
  488TIP3    H2 1429   4.075   4.219   0.657  1.9339 -1.8293 -0.1583
  489TIP3   OH2 1430   3.716   1.665   3.328 -0.1222 -0.1218 -0.1640
  489TIP3    H1 1431   3.750   1.730   3.389  0.8685 -1.3624  0.6019
  489TIP3    H2 1432   3.638   1.630   3.371 -0.0672 -0.1861 -0.1167
  490TIP3   OH2 1433   5.340   2.979   3.547 -0.5552 -0.1772  0.1240
  490TIP3    H1 1434   5.431   3.006   3.558 -0.6691  0.2399  0.0557
  490TIP3    H2 1435   5.332   2.897   3.596 -0.1603 -0.1786  0.1805
  491TIP3   OH2 1436   5.308   3.862   4.179  0.1676 -0.0569 -0.1856
  491TIP3    H1 1437   5.319   3.797   4.249  0.0361 -0.6138 -0.6832
  491TIP3    H2 1438   5.392   3.909   4.177 -0.6039  1.5363  1.9225
  492TIP3   OH2 1439   3.948   3.081   0.767 -0.3507 -0.1445  0.4053
  492TIP3    H1 1440   3.991   3.135   0.700  1.5902  1.7856  3.0986
  492TIP3    H2 1441   3.953   2.992   0.733 -2.5310  1.1385 -3.5935
  493TIP3   OH2 1442   6.315   5.178   5.313  0.2685  0.3159 -0.0223
  493TIP3    H1 1443   6.410   5.193   5.310  0.4678 -0.4892  1.4838
  493TIP3    H2 1444   6.279   5.262   5.339  0.7064  0.2974  0.6900
  494TIP3   OH2 1445   3.068   2.592   3.274 -0.1738  0.7942  0.3335
  494TIP3    H1 1446   2.997   2.613   3.335 -0.8412  1.7358 -0.7395
  494TIP3    H2 1447   3.024   2.574   3.191  0.6344 -1.7196  0.4161
  495TIP3   OH2 1448   4.232   2.360   1.399  0.3466  0.2960  0.0541
  495TIP3    H1 1449   4.185   2.283   1.430  1.5498 -0.4875 -0.0123
  495TIP3    H2 1450   4.325   2.338   1.411  0.6870  2.6182  2.1599
  496TIP3   OH2 1451   1.569   0.118   5.658  0.0357 -0.0759  0.4758
  496TIP3    H1 1452   1.478   0.148   5.665  0.5433  1.1288  2.2449
  496TIP3    H2 1453   1.620   0.198   5.647  1.1916 -0.4618  2.7656
  497TIP3   OH2 1454   5.474   5.303   5.218 -0.4008  0.0569 -0.1607
  497TIP3    H1 1455   5.474   5.351   5.300 -1.9362 -1.4263  0.7235
  497TIP3    H2 1456   5.524   5.223   5.236 -1.2666 -0.5668 -0.4860
  498TIP3   OH2 1457   4.706   3.473   4.125  0.2351  0.2635 -0.6887
  498TIP3    H1 1458   4.664   3.439   4.204  0.9766  0.7484 -0.0798
  498TIP3    H2 1459   4.634   3.501   4.069 -0.3486 -1.5331 -0.8443
  499TIP3   OH2 1460   1.610   1.311   3.921 -0.0071 -0.1871 -0.1937
  499TIP3    H1 1461   1.573   1.396   3.898 -1.3964 -1.0803 -1.3818
  499TIP3    H2 1462   1.534   1.253   3.930  1.0501 -2.0834 -2.6838
  500TIP3   OH2 1463   0.070   6.229   5.330  0.6555 -0.3513 -0.4076
  500TIP3    H1 1464   0.056   6.135   5.338 -1.2572 -0.0916 -0.4402
  500TIP3    H2 1465   0.116   6.240   5.247  0.2563 -1.2044 -0.7463
  501TIP3   OH2 1466   5.849   6.809   5.598 -0.1798  0.5630  0.0473
  501TIP3    H1 1467   5.798   6.890   5.601 -2.7584 -0.8713 -2.6386
  501TIP3    H2 1468   5.843   6.774   5.687 -3.6927  0.6277 -0.0851
  502TIP3   OH2 1469   6.540   3.289   5.907 -0.2265  0.0598 -0.5662
  502TIP3    H1 1470   6.599   3.315   5.836 -0.1281 -0.9430 -0.8685
  502TIP3    H2 1471   6.531   3.194   5.896 -0.1534 -0.1123  0.8001
  503TIP3   OH2 1472   4.133   0.688   2.669 -0.3218  0.0364 -0.1319
  503TIP3    H1 1473   4.144   0.768   2.617  1.5064 -0.7039 -0.9514
  503TIP3    H2 1474   4.220   0.671   2.704 -0.8025 -1.3410  0.4171
  504TIP3   OH2 1475   6.743   5.547   4.811  0.1008 -0.0907  0.1553
  504TIP3    H1 1476   6.662   5.595   4.829 -0.5283 -1.2007  0.3637
  504TIP3    H2 1477   6.806   5.580   4.875 -0.1804  0.8126 -0.0372
  505TIP3   OH2 1478   1.545   3.230   2.418 -0.1989 -0.0514 -0.3475
  505TIP3    H1 1479   1.519   3.275   2.497  1.1769 -0.7466  0.5277
  505TIP3    H2 1480   1.535   3.137   2.439  1.7859 -0.2981 -0.3792
  506TIP3   OH2 1481   4.220   2.158   0.030  0.4025  0.2229 -0.4542
  506TIP3    H1 1482   4.219   2.063   0.015 -0.9441  0.0300  0.7307
  506TIP3    H2 1483   4.274   2.168   0.109 -0.5746  0.2924  0.2200
  507TIP3   OH2 1484   4.166   4.035   0.980 -0.0676  0.3493  0.3091
  507TIP3    H1 1485   4.128   3.947   0.989 -0.1856  0.4260  0.5517
  507TIP3    H2 1486   4.173   4.048   0.886  0.6042 -0.2082  0.2796
  508TIP3   OH2 1487   5.730   0.056   0.385 -0.3230 -0.1900 -0.0361
  508TIP3    H1 1488   5.644   0.097   0.393 -0.7846 -0.9515 -0.9518
  508TIP3    H2 1489   5.786   0.106   0.444 -1.2033  0.8361 -0.0491
  509TIP3   OH2 1490   5.347   2.346   3.428  0.2631 -0.0728  0.1180
  509TIP3    H1 1491   5.328   2.309   3.514 -0.4780  0.2820  0.1116
  509TIP3    H2 1492   5.352   2.270   3.370 -1.3374 -0.1734  0.0892
  510TIP3   OH2 1493   2.646   1.972   3.592 -0.3593  0.3804  0.0443
  510TIP3    H1 1494   2.567   2.014   3.557 -0.4693  0.6934  0.6574
  510TIP3    H2 1495   2.645   1.992   3.686 -0.4183 -1.0049  0.3603
  511TIP3   OH2 1496   0.352   6.493   1.374 -0.1640 -0.1272 -0.0733
  511TIP3    H1 1497   0.289   6.426   1.344 -1.7607  1.0499  0.5607
  511TIP3    H2 1498   0.297   6.564   1.406  1.5017 -0.3151  3.3684
  512TIP3   OH2 1499   4.331   0.325   3.680  0.0399  0.2083  0.5057
  512TIP3    H1 1500   4.291   0.241   3.657  1.8406 -0.9094  1.2852
  512TIP3    H2 1501   4.415   0.324   3.635  0.7531  0.8930  1.8035
  513TIP3   OH2 1502   4.328   4.453   0.269 -0.4900 -0.0425 -0.8021
  513TIP3    H1 1503   4.330   4.401   0.350 -0.1147  0.6109 -0.3809
  513TIP3    H2 1504   4.293   4.394   0.203 -0.3889 -0.7243 -0.2536
  514TIP3   OH2 1505   2.597   1.684   2.993  0.6549 -0.2478 -0.4833
  514TIP3    H1 1506   2.601   1.778   2.976  0.7868 -0.2519 -0.4820
  514TIP3    H2 1507   2.616   1.675   3.086  0.0932 -0.2374 -0.3675
  515TIP3   OH2 1508   2.060   0.359   2.183 -0.1932  0.5240 -0.0688
  515TIP3    H1 1509   2.101   0.445   2.181  0.9683 -0.0267 -2.0750
  515TIP3    H2 1510   2.125   0.301   2.142 -0.8843 -1.3281  1.3940
  516TIP3   OH2 1511   2.850   1.547   1.760 -0.5542  0.3237  0.0277
  516TIP3    H1 1512   2.761   1.558   1.726 -1.0137 -0.1252  1.0367
  516TIP3    H2 1513   2.852   1.603   1.838 -0.1121 -0.0432  0.2767
  517TIP3   OH2 1514   4.019   2.464   2.590  0.2595 -0.1455  0.0250
  517TIP3    H1 1515   4.018   2.457   2.685  1.8066 -0.6968  0.0161
  517TIP3    H2 1516   4.077   2.394   2.561  0.9791  0.9414 -1.2305
  518TIP3   OH2 1517   4.257   2.474   0.260 -0.6941  0.1150  0.2301
  518TIP3    H1 1518   4.172   2.491   0.219 -0.3841 -0.9739 -0.8963
  518TIP3    H2 1519   4.316   2.537   0.219 -0.8339  0.4700  0.5756
  519TIP3   OH2 1520   6.573   5.858   5.979 -0.2606  0.1419 -0.1930
  519TIP3    H1 1521   6.634   5.795   6.018  0.6922  0.8885 -0.4365
  519TIP3    H2 1522   6.549   5.915   6.052 -2.8971 -1.8359  0.5388
  520TIP3   OH2 1523   6.677   6.088   5.324 -0.3664 -0.0261 -0.5792
  520TIP3    H1 1524   6.604   6.046   5.369 -1.0136  2.1826  0.5023
  520TIP3    H2 1525   6.705   6.157   5.384  3.2736 -1.4545 -0.5285
  521TIP3   OH2 1526   4.133   3.053   1.244 -0.0999  0.1940  0.3322
  521TIP3    H1 1527   4.110   3.048   1.336 -1.8147 -1.2300 -0.1517
  521TIP3    H2 1528   4.059   3.097   1.202  0.6262  0.7592 -0.3979
  522TIP3   OH2 1529   0.651   5.481   6.020 -0.0657  0.2364 -0.7898
  522TIP3    H1 1530   0.649   5.577   6.011  1.2527  0.5017  1.3620
  522TIP3    H2 1531   0.673   5.449   5.933  1.7697  2.0244 -1.0150
  523TIP3   OH2 1532   6.086   2.505   1.579  0.1350  0.1480 -0.1315
  523TIP3    H1 1533   6.081   2.410   1.591  3.6497 -0.2218 -1.1301
  523TIP3    H2 1534   6.116   2.539   1.663  1.2340  0.1231 -0.5158
  524TIP3   OH2 1535   4.434   2.881   2.764  0.1725  0.1399  0.3849
  524TIP3    H1 1536   4.457   2.969   2.793 -0.3784  0.1673  0.7478
  524TIP3    H2 1537   4.385   2.844   2.838 -1.3386  0.2507 -0.5265
  525TIP3   OH2 1538   6.767   5.404   5.528  0.3544  0.1836  0.6657
  525TIP3    H1 1539   6.797   5.324   5.570 -1.1604  0.7916  2.9538
  525TIP3    H2 1540   6.675   5.389   5.510 -0.1641  1.7134  1.9075
  526TIP3   OH2 1541   2.880   0.887   3.925  0.5232 -0.0792 -0.3559
  526TIP3    H1 1542   2.813   0.828   3.890  1.3068  0.3827 -2.7041
  526TIP3    H2 1543   2.869   0.969   3.876  1.3630  0.7589  0.7992
  527TIP3   OH2 1544   7.073   4.868   4.943  0.1727 -0.2001  0.1372
  527TIP3    H1 1545   7.010   4.930   4.907 -0.6571 -0.9746  0.2480
  527TIP3    H2 1546   7.117   4.917   5.012 -0.6829  0.1898  0.4203
  528TIP3   OH2 1547   5.556   5.221   5.695 -0.1824 -0.4869  0.2633
  528TIP3    H1 1548   5.594   5.232   5.782  2.6054  0.1124 -0.9657
  528TIP3    H2 1549   5.581   5.132   5.669 -1.2149 -0.7570  0.1631
  529TIP3   OH2 1550   4.594   0.676   0.151 -0.6667 -1.1567 -0.5702
  529TIP3    H1 1551   4.638   0.609   0.098 -0.6218 -1.4712 -0.1385
  529TIP3    H2 1552   4.622   0.657   0.240  1.6384  1.1947 -0.7643
  530TIP3   OH2 1553   1.699   5.304   3.646  0.1257 -0.7474 -0.3341
  530TIP3    H1 1554   1.614   5.265   3.662  0.2992 -0.4618  1.3325
  530TIP3    H2 1555   1.696   5.331   3.554 -0.8603 -2.4666 -0.8254
  531TIP3   OH2 1556   2.299   2.506   1.770  0.2242  0.1579  0.4826
  531TIP3    H1 1557   2.357   2.454   1.714  0.1563  0.0880  0.4787
  531TIP3    H2 1558   2.235   2.444   1.804 -1.4370  0.7230 -1.5847
  532TIP3   OH2 1559   5.186   0.339   2.099  0.2205 -0.5435  0.0668
  532TIP3    H1 1560   5.106   0.392   2.094 -0.4546 -1.6628 -1.3206
  532TIP3    H2 1561   5.155   0.249   2.112  1.2171 -1.0916 -1.2023
  533TIP3   OH2 1562   5.504   2.863   1.155 -0.4329 -0.2135 -0.3694
  533TIP3    H1 1563   5.577   2.848   1.096  0.5691 -1.1683  1.0819
  533TIP3    H2 1564   5.491   2.958   1.154  0.4734 -0.0950 -1.0402
  534TIP3   OH2 1565   2.620   5.743   5.660 -0.2290 -0.2540 -0.0592
  534TIP3    H1 1566   2.659   5.830   5.658 -0.6225 -0.0621  0.5110
  534TIP3    H2 1567   2.613   5.722   5.753 -0.9239 -0.5368 -0.1741
  535TIP3   OH2 1568   1.492   6.936   5.866 -0.2272  0.2225 -0.4133
  535TIP3    H1 1569   1.473   6.954   5.774 -0.2861  0.6975 -0.3092
  535TIP3    H2 1570   1.578   6.977   5.881  0.2438 -0.7122 -0.5141
  536TIP3   OH2 1571   6.699   6.412   5.196 -0.0520  0.1541 -0.3630
  536TIP3    H1 1572   6.624   6.469   5.213 -1.2957 -0.9671 -1.9927
  536TIP3    H2 1573   6.755   6.462   5.136 -0.0208  0.5538 -0.0015
  537TIP3   OH2 1574   4.398   0.652   0.541  0.0848  0.6851  0.5582
  537TIP3    H1 1575   4.320   0.707   0.541 -0.8608 -0.6042  1.8022
  537TIP3    H2 1576   4.431   0.657   0.631 -0.0835 -0.8220  0.7262
  538TIP3   OH2 1577   5.602   1.644   2.822 -0.2446 -0.0397 -0.2648
  538TIP3    H1 1578   5.542   1.612   2.890  0.8446 -1.5419  0.0230
  538TIP3    H2 1579   5.638   1.725   2.858 -0.6308 -0.1657  0.4194
  539TIP3   OH2 1580   7.012   1.977   2.062  0.0950 -0.1123 -0.0916
  539TIP3    H1 1581   6.959   2.020   2.129 -0.4849  0.5078 -0.9319
  539TIP3    H2 1582   7.020   2.042   1.992  0.3678 -0.8773 -0.7889
  540TIP3   OH2 1583   5.663   1.132   0.403 -0.4906  0.2137 -0.3371
  540TIP3    H1 1584   5.620   1.151   0.320  0.0998  0.4314 -0.5941
  540TIP3    H2 1585   5.756   1.147   0.386 -0.5414  1.9757  0.8582
  541TIP3   OH2 1586   3.198   1.872   2.020  0.0554  0.5504  0.1832
  541TIP3    H1 1587   3.114   1.890   2.061 -0.3904 -0.9242 -0.0596
  541TIP3    H2 1588   3.194   1.919   1.937 -1.1021 -0.6013 -0.4453
  542TIP3   OH2 1589   4.510   1.195   2.434 -0.3056 -0.1788  0.8140
  542TIP3    H1 1590   4.580   1.260   2.433 -1.0022  0.5709  0.4451
  542TIP3    H2 1591   4.549   1.118   2.392 -0.5257  1.1066 -1.8617
  543TIP3   OH2 1592   6.578   3.183  -0.010 -0.3568  0.1745  0.0791
  543TIP3    H1 1593   6.560   3.237   0.066 -1.3764 -0.5622  0.3695
  543TIP3    H2 1594   6.669   3.158  -0.001  0.3488  2.4288 -0.4342
  544TIP3   OH2 1595   2.849   0.856   0.524 -0.1921 -0.1843 -0.1285
  544TIP3    H1 1596   2.889   0.911   0.591  1.3898 -0.8426 -0.4946
  544TIP3    H2 1597   2.886   0.888   0.441 -2.6221  1.0410 -0.7630
  545TIP3   OH2 1598   2.807   2.474   1.857 -0.3163  0.1718 -0.8146
  545TIP3    H1 1599   2.813   2.492   1.951  1.0166 -0.0654 -0.8320
  545TIP3    H2 1600   2.716   2.490   1.834 -0.6805  0.0827  0.5532
  546TIP3   OH2 1601   4.103   1.119   0.243 -0.0211  0.6146  0.0703
  546TIP3    H1 1602   4.067   1.168   0.169 -1.0395  1.9303  1.4190
  546TIP3    H2 1603   4.108   1.029   0.212  1.6663  1.4929 -2.3730
  547TIP3   OH2 1604   1.307   2.166   0.423 -0.8387 -0.1296 -0.0830
  547TIP3    H1 1605   1.399   2.167   0.448 -0.6186  1.0213 -0.8655
  547TIP3    H2 1606   1.308   2.154   0.328 -1.5702 -2.0307  0.1363
  548TIP3   OH2 1607   0.610   3.731   1.679 -0.2677  0.3612  0.2963
  548TIP3    H1 1608   0.563   3.794   1.734  1.4713  0.3634  1.8385
  548TIP3    H2 1609   0.557   3.723   1.599 -2.4280  0.9502  1.6504
  549TIP3   OH2 1610   6.168   0.492   0.374 -0.5336  0.4094  0.0024
  549TIP3    H1 1611   6.111   0.560   0.411 -1.1916 -0.2896  0.2798
  549TIP3    H2 1612   6.241   0.486   0.436 -0.4718  0.8567 -0.0236
  550TIP3   OH2 1613   5.202   2.394   2.683  0.2391 -0.0733 -0.2798
  550TIP3    H1 1614   5.224   2.482   2.652 -0.3135 -0.5543 -2.1344
  550TIP3    H2 1615   5.286   2.348   2.683  0.5569  0.4857  0.8507
  551TIP3   OH2 1616   3.995   1.926   0.689 -0.1927  0.0812 -0.1143
  551TIP3    H1 1617   3.900   1.934   0.683 -0.0578  0.4628 -1.8099
  551TIP3    H2 1618   4.022   1.882   0.609  1.0414 -0.3353  0.4983
  552TIP3   OH2 1619   3.764   2.689   2.045  0.2488  0.1793  0.1330
  552TIP3    H1 1620   3.712   2.680   2.125 -0.6687 -1.7890 -0.6645
  552TIP3    H2 1621   3.712   2.749   1.990  0.0534  0.1944  0.3331
  553TIP3   OH2 1622   5.049   0.466   1.335 -0.3046  0.2911 -0.0974
  553TIP3    H1 1623   5.035   0.550   1.291 -0.1838  0.6687  0.5712
  553TIP3    H2 1624   5.048   0.488   1.428 -0.3569 -0.4666  0.0808
  554TIP3   OH2 1625   6.333   6.680   5.471  0.3086  0.1529 -0.0048
  554TIP3    H1 1626   6.404   6.703   5.530 -0.1487  0.5842  0.3815
  554TIP3    H2 1627   6.376   6.639   5.396  1.0111  0.9140 -0.0262
  555TIP3   OH2 1628   5.819   6.109   5.680 -0.3548 -0.7066 -0.4846
  555TIP3    H1 1629   5.785   6.198   5.692  0.8428 -0.4323  1.0274
  555TIP3    H2 1630   5.785   6.060   5.755 -1.7155 -1.7565 -1.7673
  556TIP3   OH2 1631   4.869   1.814   1.342 -0.1620 -0.1107  0.1201
  556TIP3    H1 1632   4.808   1.869   1.291  1.3572  1.6037  0.1005
  556TIP3    H2 1633   4.955   1.836   1.306  0.6138 -1.3092  1.2477
  557TIP3   OH2 1634   1.306   0.172   5.628  0.4710  0.1406 -0.0563
  557TIP3    H1 1635   1.249   0.221   5.687  1.2804  1.9741 -0.7626
  557TIP3    H2 1636   1.291   0.080   5.651  0.0727  0.7655  2.3642
  558TIP3   OH2 1637   5.911   1.072   0.681 -0.2096  0.1258  0.4742
  558TIP3    H1 1638   5.999   1.054   0.650 -0.0420 -0.0477  1.0623
  558TIP3    H2 1639   5.898   1.165   0.663  0.0134  0.1065  0.2053
  559TIP3   OH2 1640   4.739   2.686   1.325  0.0663 -0.2528 -0.1724
  559TIP3    H1 1641   4.762   2.750   1.257  0.8687 -0.5001 -0.1463
  559TIP3    H2 1642   4.644   2.683   1.324  0.0347  0.5670 -0.5295
  560TIP3   OH2 1643   3.598   1.786   0.467  0.3346  0.0773  0.1614
  560TIP3    H1 1644   3.620   1.704   0.510  0.5683  0.1086  0.1000
  560TIP3    H2 1645   3.667   1.799   0.401  0.1972  0.2278  0.0451
  561TIP3   OH2 1646   5.967   0.849   0.432  0.0135  0.1390 -0.4908
  561TIP3    H1 1647   5.881   0.835   0.472  0.2378 -1.1517 -0.4400
  561TIP3    H2 1648   6.030   0.821   0.498  0.4442 -0.0204 -0.9578
  562TIP3   OH2 1649   5.025   2.217   0.495  0.5327  0.1712 -0.2948
  562TIP3    H1 1650   5.104   2.202   0.443  0.3668  2.2217 -1.2133
  562TIP3    H2 1651   5.019   2.313   0.501 -0.0004  0.0109  2.6605
  563TIP3   OH2 1652   1.899   2.315   1.598 -0.3246 -0.2297 -0.4918
  563TIP3    H1 1653   1.845   2.259   1.655 -0.4768 -1.2144 -1.5956
  563TIP3    H2 1654   1.874   2.404   1.623  0.3614 -0.6128  1.7064
  564TIP3   OH2 1655   6.546   6.514   5.551  0.1056 -0.9821  0.0123
  564TIP3    H1 1656   6.492   6.441   5.583  0.1149 -0.4168  1.3456
  564TIP3    H2 1657   6.581   6.554   5.630  1.7441 -0.7647 -0.7899
  565TIP3   OH2 1658   3.014   2.558   2.145  1.1403 -0.4052 -0.0972
  565TIP3    H1 1659   3.012   2.591   2.234  0.5557  0.0503 -0.2779
  565TIP3    H2 1660   2.926   2.525   2.129  0.9698  0.3748 -0.8202
  566TIP3   OH2 1661   7.287   5.594   4.742 -0.3121 -0.5417 -0.1433
  566TIP3    H1 1662   7.321   5.665   4.798  1.1943  0.5296 -2.3721
  566TIP3    H2 1663   7.192   5.608   4.742  0.0751  2.5542 -1.8733
  567TIP3   OH2 1664   4.145   0.671   2.138  0.0852  0.6320  0.6199
  567TIP3    H1 1665   4.143   0.745   2.199  2.1167 -0.0891  1.6102
  567TIP3    H2 1666   4.200   0.701   2.065 -0.5828  0.7366  0.1562
  568TIP3   OH2 1667   3.902   2.276   3.437 -0.3637  0.5142 -0.2569
  568TIP3    H1 1668   3.974   2.339   3.448 -1.0619  1.1549  0.7034
  568TIP3    H2 1669   3.872   2.258   3.526  0.4557 -1.9391 -0.4293
  569TIP3   OH2 1670   3.814   2.462   0.954 -0.0746 -0.1105 -0.9366
  569TIP3    H1 1671   3.835   2.448   1.047  0.0567  0.9616 -0.7968
  569TIP3    H2 1672   3.893   2.438   0.907 -0.2486 -0.9728 -0.7988
  570TIP3   OH2 1673   4.125   1.402   0.336  0.0888 -0.2988 -0.0415
  570TIP3    H1 1674   4.120   1.309   0.314  1.6236 -0.8677  1.9463
  570TIP3    H2 1675   4.045   1.419   0.385  0.8192 -1.0914  1.4484
  571TIP3   OH2 1676   3.495   0.001   0.219  0.3289  0.0284  0.4112
  571TIP3    H1 1677   3.543   0.018   0.138 -1.9675  1.3093 -0.7206
  571TIP3    H2 1678   3.517   0.074   0.276  0.6481 -0.0204  0.3564
  572TIP3   OH2 1679   0.029   5.093   4.926  0.5105  0.1993 -0.0073
  572TIP3    H1 1680   0.113   5.138   4.919  1.4560 -1.6873 -1.2237
  572TIP3    H2 1681   0.040   5.035   5.002  0.7658 -0.9637 -0.9244
  573TIP3   OH2 1682   7.248   4.238   4.840 -0.0359  0.3047 -0.5886
  573TIP3    H1 1683   7.222   4.330   4.843  1.4336  0.7217  0.3084
  573TIP3    H2 1684   7.306   4.228   4.916  0.4401 -1.1676 -1.1370
  574TIP3   OH2 1685   7.023   1.178   1.430  0.0614  0.3391  0.6302
  574TIP3    H1 1686   6.937   1.139   1.444 -0.4876  1.6492  1.0233
  574TIP3    H2 1687   7.062   1.127   1.359 -0.9709 -0.3523  0.5488
  575TIP3   OH2 1688   6.394   2.562   0.072  0.0982  0.2855 -0.2594
  575TIP3    H1 1689   6.338   2.616   0.017  0.7875 -1.0084 -2.3168
  575TIP3    H2 1690   6.446   2.511   0.010  1.6107 -0.5194  1.6096
  576TIP3   OH2 1691   4.921   3.724   0.508  0.3599  0.0144  0.3769
  576TIP3    H1 1692   4.991   3.669   0.474  0.2820  0.4338 -0.4685
  576TIP3    H2 1693   4.845   3.704   0.453  0.3648  1.0425 -0.0217
  577TIP3   OH2 1694   4.843   1.940   3.335 -0.2133  0.3156 -0.2447
  577TIP3    H1 1695   4.806   1.915   3.419 -0.8379  1.0229 -0.3125
  577TIP3    H2 1696   4.768   1.950   3.277  0.1729  0.4794 -0.7226
  578TIP3   OH2 1697   5.538   1.391   0.302  0.3026  0.0391  0.2767
  578TIP3    H1 1698   5.446   1.416   0.292  0.3264  0.0207  0.0134
  578TIP3    H2 1699   5.561   1.350   0.219  0.2002 -1.0625  0.7921
  579TIP3   OH2 1700   5.272   0.512   6.003  0.0696  0.0945  0.4563
  579TIP3    H1 1701   5.190   0.466   5.984  1.8111 -1.9220 -2.5635
  579TIP3    H2 1702   5.255   0.603   5.977 -1.5530 -0.0706  0.9132
  580TIP3   OH2 1703   0.720   4.152   5.779  0.2184  0.4492 -0.4417
  580TIP3    H1 1704   0.641   4.160   5.725  1.4113  1.4175 -2.0720
  580TIP3    H2 1705   0.687   4.124   5.865 -1.9328  1.2033 -0.9901
  581TIP3   OH2 1706   5.795   0.515   0.983 -0.0905 -0.0592 -0.3564
  581TIP3    H1 1707   5.731   0.566   0.933  0.6339 -0.2229 -1.4729
  581TIP3    H2 1708   5.826   0.575   1.051 -1.8898 -0.1875  0.5893
  582TIP3   OH2 1709   2.171   6.825   1.343  0.0552  0.2198 -0.2029
  582TIP3    H1 1710   2.146   6.858   1.257 -0.2762 -0.1974 -0.2659
  582TIP3    H2 1711   2.199   6.903   1.391 -0.8760  0.6143 -0.2936
  583TIP3   OH2 1712   6.902   2.111   2.278  0.4022 -0.6826  0.5766
  583TIP3    H1 1713   6.965   2.156   2.334 -1.2489  1.2543  0.9355
  583TIP3    H2 1714   6.838   2.074   2.338  0.4305 -1.4156  0.1533
  584TIP3   OH2 1715   0.386   5.415   4.355 -0.2285  0.3981  0.4452
  584TIP3    H1 1716   0.406   5.353   4.426  1.9503  0.1409 -0.3811
  584TIP3    H2 1717   0.351   5.360   4.285  1.9079  0.0617 -0.3686
  585TIP3   OH2 1718   3.755   0.598   6.003  0.3109 -0.4990  0.1803
  585TIP3    H1 1719   3.834   0.552   5.974  0.9320  1.3208 -1.0976
  585TIP3    H2 1720   3.756   0.680   5.954 -2.5003 -0.5462 -0.0080
  586TIP3   OH2 1721   6.010   2.557   0.862  0.2172 -0.2097 -0.0186
  586TIP3    H1 1722   6.001   2.468   0.827  2.7718 -0.6124  0.1870
  586TIP3    H2 1723   6.015   2.544   0.957  0.2900  0.1685  0.0288
  587TIP3   OH2 1724   5.859   2.811   1.825 -0.5340  0.0323  0.5217
  587TIP3    H1 1725   5.936   2.819   1.769 -0.9343 -2.0104 -0.3657
  587TIP3    H2 1726   5.888   2.756   1.898 -1.0048 -0.3169  0.4505
  588TIP3   OH2 1727   5.257   0.561   0.441 -0.1108 -0.2833  0.2426
  588TIP3    H1 1728   5.268   0.492   0.506  1.0820 -1.1346 -0.8410
  588TIP3    H2 1729   5.334   0.616   0.451  0.5713 -0.9651 -1.0818
  589TIP3   OH2 1730   5.551   2.202   0.341 -0.8768  0.2041 -0.5196
  589TIP3    H1 1731   5.592   2.270   0.287 -2.5571  0.5394 -1.3797
  589TIP3    H2 1732   5.470   2.242   0.373  0.6671  0.5236  3.3668
  590TIP3   OH2 1733   6.049   2.119   0.207  0.1880 -0.4246 -0.9398
  590TIP3    H1 1734   6.080   2.096   0.119  2.4832  0.4703 -0.3866
  590TIP3    H2 1735   6.071   2.211   0.217 -1.6549 -0.0523 -0.0625
  591TIP3   OH2 1736   0.175   3.593   1.777  0.7655 -0.4746  0.4148
  591TIP3    H1 1737   0.230   3.558   1.707 -0.8175 -0.2413 -0.9934
  591TIP3    H2 1738   0.140   3.515   1.821 -0.8648 -0.6757 -1.1932
  592TIP3   OH2 1739   6.793   1.224   0.214  0.0712 -0.2601  0.0917
  592TIP3    H1 1740   6.840   1.304   0.237 -1.0228  0.8090 -1.2956
  592TIP3    H2 1741   6.849   1.180   0.150  0.4567 -0.3771  0.5073
  593TIP3   OH2 1742   4.710  -0.023   0.522 -0.4449 -0.0750  0.0104
  593TIP3    H1 1743   4.666   0.028   0.454  0.3675 -0.5706 -0.9000
  593TIP3    H2 1744   4.700   0.029   0.602  0.8574  1.7909 -0.9983
  594TIP3   OH2 1745   0.923   3.598   5.733 -0.2543 -0.2028 -0.4320
  594TIP3    H1 1746   1.009   3.557   5.722 -0.1278  0.1961 -0.9619
  594TIP3    H2 1747   0.861   3.525   5.726  0.0924 -0.6978  1.2924
  595TIP3   OH2 1748   1.651   5.675   5.158 -0.3433 -0.2444  0.4698
  595TIP3    H1 1749   1.560   5.702   5.161 -0.3420 -0.2013  0.1543
  595TIP3    H2 1750   1.662   5.637   5.071 -0.7239 -2.6056  1.4177
  596TIP3   OH2 1751   5.040   1.093   0.358  0.4473  0.2927  0.1270
  596TIP3    H1 1752   4.983   1.111   0.433 -0.9023 -0.2185 -0.7431
  596TIP3    H2 1753   5.128   1.088   0.394  0.0642  2.1460  1.3582
  597TIP3   OH2 1754   0.299   4.763   5.654 -0.0154 -0.6645  0.2175
  597TIP3    H1 1755   0.245   4.695   5.612 -2.2385  0.9315  0.4456
  597TIP3    H2 1756   0.237   4.815   5.705  1.5679  1.9232 -0.4307
  598TIP3   OH2 1757   6.495   1.986   1.650 -0.3742 -0.3412  0.1086
  598TIP3    H1 1758   6.496   2.021   1.561  0.0272 -0.3965  0.0884
  598TIP3    H2 1759   6.414   2.019   1.689 -0.2495  0.1804 -0.0802
  599TIP3   OH2 1760   6.635   2.954   0.401 -0.1230  0.2256  0.0829
  599TIP3    H1 1761   6.624   2.865   0.434 -1.6447 -0.1836 -1.4555
  599TIP3    H2 1762   6.670   2.943   0.312 -1.6787  1.1109 -0.6552
  600TIP3   OH2 1763   6.798   3.978   5.957  0.2178 -0.0642 -0.2781
  600TIP3    H1 1764   6.869   4.038   5.981  0.5630  0.0595 -1.5880
  600TIP3    H2 1765   6.809   3.964   5.863 -1.5748  0.0483 -0.5180
  601TIP3   OH2 1766   3.162   4.320   1.009  0.0192 -1.2549 -0.3792
  601TIP3    H1 1767   3.180   4.301   0.917  0.3327 -0.7593 -0.4198
  601TIP3    H2 1768   3.150   4.233   1.049  2.6085 -1.6452 -0.3344
  602TIP3   OH2 1769   5.600   2.549   1.224  0.1702 -0.4224 -0.0929
  602TIP3    H1 1770   5.544   2.614   1.183 -0.5500 -0.1490  1.2862
  602TIP3    H2 1771   5.678   2.598   1.251  0.1503 -0.3704 -0.1324
  603TIP3   OH2 1772   0.840   6.004   3.732  0.6480  0.0870 -0.4321
  603TIP3    H1 1773   0.847   6.017   3.637  0.6408 -2.4190 -0.8129
  603TIP3    H2 1774   0.875   6.085   3.770  1.3901  0.8062 -2.5498
  604TIP3   OH2 1775   7.256   4.677   6.019  0.5001 -0.0183 -0.5092
  604TIP3    H1 1776   7.167   4.655   6.046  0.4313 -0.4475 -1.0720
  604TIP3    H2 1777   7.245   4.717   5.933  0.8005  0.4616 -0.3260
  605TIP3   OH2 1778   6.612   5.154   5.270  0.3304  0.0286  0.4232
  605TIP3    H1 1779   6.677   5.140   5.339 -0.8294 -0.9060  1.3371
  605TIP3    H2 1780   6.633   5.241   5.234  1.9418 -0.1716  0.8447
  606TIP3   OH2 1781   5.210   0.155   1.071 -0.2462 -0.2720 -0.5383
  606TIP3    H1 1782   5.225   0.222   1.005 -2.6313  1.1667  0.3081
  606TIP3    H2 1783   5.271   0.176   1.141 -1.4663  1.5047  0.0310
  607TIP3   OH2 1784   6.790   6.571   1.491 -0.1637 -0.4119 -0.1083
  607TIP3    H1 1785   6.704   6.593   1.526  0.3094 -0.5301  1.1787
  607TIP3    H2 1786   6.841   6.652   1.499 -0.3093 -0.1963 -1.3552
  608TIP3   OH2 1787   7.032   0.165   0.969 -0.2325  0.1569  0.6262
  608TIP3    H1 1788   6.966   0.171   0.900 -0.3866 -1.6618  0.6073
  608TIP3    H2 1789   7.095   0.100   0.936  1.2310  1.3825  0.9277
  609TIP3   OH2 1790   0.181   2.312   1.369  0.0761  0.3311 -0.8240
  609TIP3    H1 1791   0.269   2.285   1.396 -1.2761 -2.9927  0.5686
  609TIP3    H2 1792   0.151   2.368   1.440 -0.4675 -1.9797  0.8421
  610TIP3   OH2 1793   5.838   2.062   0.400  0.0322  0.3439  0.0953
  610TIP3    H1 1794   5.896   2.069   0.325 -0.4705  0.1352 -0.3195
  610TIP3    H2 1795   5.872   2.125   0.463  1.7746 -1.0686  0.5713
  611TIP3   OH2 1796   0.809   4.667   0.915  0.1136  0.5092 -0.1752
  611TIP3    H1 1797   0.817   4.722   0.993  0.5506 -1.0144  0.8701
  611TIP3    H2 1798   0.895   4.671   0.874  0.5632 -0.5007  0.6557
  612TIP3   OH2 1799   6.380   3.205   0.622 -0.9167 -0.1007 -0.0724
  612TIP3    H1 1800   6.386   3.251   0.705  3.1901  0.5270 -0.6239
  612TIP3    H2 1801   6.297   3.235   0.584 -1.0253  2.4833  2.0738
  613TIP3   OH2 1802   3.125   0.662   1.095 -0.1669  0.5392 -0.0912
  613TIP3    H1 1803   3.193   0.728   1.097  0.6888 -0.3382  0.3885
  613TIP3    H2 1804   3.167   0.585   1.056 -1.3770  0.5283 -1.4264
  614TIP3   OH2 1805   4.998   1.808   0.428 -0.2047  0.2051 -0.3008
  614TIP3    H1 1806   4.960   1.722   0.447  1.5647 -0.2371  1.3395
  614TIP3    H2 1807   4.971   1.862   0.502  0.6243  0.4421 -0.1745
  615TIP3   OH2 1808   3.241   2.180   3.648 -0.7038  0.5451  0.4311
  615TIP3    H1 1809   3.214   2.227   3.569 -2.0462  0.5645  0.8881
  615TIP3    H2 1810   3.313   2.233   3.683  0.8222 -0.1982 -1.4992
  616TIP3   OH2 1811   4.123   2.919   1.745 -0.2552 -0.0895  0.4944
  616TIP3    H1 1812   4.153   2.980   1.812 -1.2492  1.3835 -0.3682
  616TIP3    H2 1813   4.066   2.858   1.792  0.5405 -0.1993  1.3185
  617TIP3   OH2 1814   3.985   1.383   0.758 -0.1139 -0.3699  0.4526
  617TIP3    H1 1815   3.912   1.342   0.804  1.3182 -1.1885  2.0462
  617TIP3    H2 1816   4.013   1.317   0.695 -0.1658 -0.4027  0.4637
  618TIP3   OH2 1817   0.554   1.699   2.264 -0.2282  0.0051 -0.1583
  618TIP3    H1 1818   0.575   1.757   2.192  0.8639  0.5084  0.5532
  618TIP3    H2 1819   0.524   1.757   2.334 -0.5239 -0.4113  0.0673
  619TIP3   OH2 1820   5.319   5.997   0.206  0.5173 -0.1603  0.2534
  619TIP3    H1 1821   5.258   5.986   0.133 -0.3967  0.3984  0.9122
  619TIP3    H2 1822   5.393   5.940   0.185  0.9848  1.2042 -1.8499
  620TIP3   OH2 1823   7.178   1.987   0.605 -0.0652 -0.1423  0.3995
  620TIP3    H1 1824   7.170   1.973   0.699 -2.2726 -0.4951  0.1780
  620TIP3    H2 1825   7.216   2.075   0.597 -0.3522  0.0995  1.5990
  621TIP3   OH2 1826   4.959   3.187   0.948  0.1640  0.1918 -0.2931
  621TIP3    H1 1827   4.901   3.140   0.887  1.7173 -1.4856 -0.5129
  621TIP3    H2 1828   4.919   3.274   0.956 -1.1752 -0.2094 -2.1496
  622TIP3   OH2 1829   4.886   1.446   0.813 -0.5254  0.2936 -0.2651
  622TIP3    H1 1830   4.964   1.487   0.849 -1.2813  1.2827  0.2421
  622TIP3    H2 1831   4.814   1.500   0.842 -1.6850 -2.1457  1.5532
  623TIP3   OH2 1832   4.826   2.466   1.160  0.2716  0.0092  0.0598
  623TIP3    H1 1833   4.789   2.537   1.214 -1.8007 -1.6986  0.9497
  623TIP3    H2 1834   4.793   2.386   1.201  3.0732 -1.5073 -0.5965
  624TIP3   OH2 1835   2.475   6.854   0.392  0.4904  0.0533  0.1197
  624TIP3    H1 1836   2.568   6.876   0.385  0.2743  0.7826 -0.6282
  624TIP3    H2 1837   2.441   6.916   0.457  0.2578  0.7249 -0.6252
  625TIP3   OH2 1838   5.709   2.412   0.221  0.2769  0.1640  0.3142
  625TIP3    H1 1839   5.743   2.483   0.276  0.1356 -0.5618  1.3461
  625TIP3    H2 1840   5.775   2.401   0.153  0.6242  0.8419  0.5378
  626TIP3   OH2 1841   5.483   3.365   1.410 -0.4744  0.2426  0.0334
  626TIP3    H1 1842   5.518   3.452   1.388  1.1382 -0.6512 -1.0495
  626TIP3    H2 1843   5.388   3.374   1.400 -0.5140  2.4414  2.0222
  627TIP3   OH2 1844   0.292   5.952   0.060  0.7064  0.6208  0.9799
  627TIP3    H1 1845   0.315   5.969   0.152 -2.0195  1.6528  1.5187
  627TIP3    H2 1846   0.251   5.866   0.062 -0.6047  1.2312  0.9855
  628TIP3   OH2 1847   6.879   5.670   5.446 -0.0155  0.4316 -0.0736
  628TIP3    H1 1848   6.912   5.710   5.527 -2.0592  0.1703  0.9176
  628TIP3    H2 1849   6.886   5.576   5.461  1.0188  0.3829 -0.8149
  629TIP3   OH2 1850   4.282   3.638   1.084  0.3408 -0.0567 -0.2231
  629TIP3    H1 1851   4.335   3.565   1.115 -0.0940 -0.7145 -1.0383
  629TIP3    H2 1852   4.288   3.703   1.155  1.0804 -0.6911  0.3045
  630TIP3   OH2 1853   2.263   6.879   5.815  0.1896 -0.6286 -0.1984
  630TIP3    H1 1854   2.301   6.791   5.815  0.7565 -0.3895  1.4275
  630TIP3    H2 1855   2.176   6.868   5.855 -0.4403 -0.7311 -1.5621
  631TIP3   OH2 1856   7.192   2.849   1.472  0.4234 -0.2789 -0.3368
  631TIP3    H1 1857   7.255   2.823   1.539 -0.0551  0.7438  0.5338
  631TIP3    H2 1858   7.218   2.938   1.448 -0.4519  0.0163 -0.2220
  632TIP3   OH2 1859   3.220   0.586   2.104  0.1097  1.1913  0.5116
  632TIP3    H1 1860   3.238   0.530   2.180 -0.9869 -0.5478 -0.4770
  632TIP3    H2 1861   3.154   0.648   2.134 -0.2607  0.5590  0.9963
  633TIP3   OH2 1862   6.877   4.388   5.571 -0.4510  0.4965 -0.1762
  633TIP3    H1 1863   6.851   4.416   5.483 -0.3303 -0.6937 -0.5939
  633TIP3    H2 1864   6.909   4.299   5.559 -2.2825 -0.4114  1.3872
  634TIP3   OH2 1865   0.652   5.989   4.932 -0.0063  0.2947  0.3563
  634TIP3    H1 1866   0.719   5.929   4.900 -1.0569 -0.2212 -0.9418
  634TIP3    H2 1867   0.663   6.067   4.878  0.5695  0.8188  1.2212
  635TIP3   OH2 1868   6.872   6.578   0.334  0.7056 -0.3494 -0.5722
  635TIP3    H1 1869   6.858   6.506   0.396  1.3351  0.2129  0.2294
  635TIP3    H2 1870   6.841   6.656   0.381  0.9548  0.0476 -1.0610
  636TIP3   OH2 1871   6.522   6.938   3.317  0.0483 -0.3015  0.1046
  636TIP3    H1 1872   6.458   6.871   3.340  1.3449 -1.4045  0.5648
  636TIP3    H2 1873   6.471   7.019   3.311 -2.0014 -1.7190 -2.9496
  637TIP3   OH2 1874   2.430   3.390   5.839 -0.2650  0.0314 -0.6447
  637TIP3    H1 1875   2.511   3.406   5.888  0.6908 -1.3701 -1.7222
  637TIP3    H2 1876   2.370   3.459   5.868  1.4437  1.3204 -0.1221
  638TIP3   OH2 1877   0.086   1.641   2.017  0.3547  0.2075 -0.5452
  638TIP3    H1 1878   0.049   1.649   1.929  0.2041 -1.2991 -0.6306
  638TIP3    H2 1879   0.149   1.714   2.023 -0.2425  0.8205 -1.5824
  639TIP3   OH2 1880   1.885   5.629   4.007  0.0859 -0.0946 -0.0771
  639TIP3    H1 1881   1.894   5.581   4.089 -0.8137 -0.3329 -0.1105
  639TIP3    H2 1882   1.915   5.568   3.940  1.5112  0.3531  0.1300
  640TIP3   OH2 1883   2.477   5.474   5.590 -0.5572 -0.1986  0.0150
  640TIP3    H1 1884   2.418   5.512   5.655  2.0582 -0.8826  2.8565
  640TIP3    H2 1885   2.506   5.549   5.537 -0.5329  0.7871  1.4072
  641TIP3   OH2 1886   1.571   6.065   5.037 -0.1191  0.3718  0.3402
  641TIP3    H1 1887   1.489   6.106   5.062  0.3575  0.8456  1.1555
  641TIP3    H2 1888   1.585   6.092   4.946  0.0027  1.7261  0.7450
  642TIP3   OH2 1889   0.829   4.993   6.042 -0.3429 -0.5202  0.0193
  642TIP3    H1 1890   0.907   5.044   6.064  0.3094 -1.2134 -0.6722
  642TIP3    H2 1891   0.775   5.053   5.991  0.8539 -0.7910 -1.6213
  643TIP3   OH2 1892   0.957   5.560   3.385 -0.2711  0.0202 -0.5544
  643TIP3    H1 1893   0.960   5.582   3.478 -3.8189 -1.3509 -0.0073
  643TIP3    H2 1894   0.938   5.643   3.341  1.4570  0.6805 -0.0674
  644TIP3   OH2 1895   7.040   3.949   5.697  0.2493 -0.0952  0.3440
  644TIP3    H1 1896   6.949   3.978   5.698 -0.0196 -0.9113  0.5832
  644TIP3    H2 1897   7.060   3.931   5.789 -0.1349 -2.2590  0.0404
  645TIP3   OH2 1898   5.675   4.032   1.946 -0.4552  0.0514  0.0659
  645TIP3    H1 1899   5.614   3.966   1.914 -0.6644  0.5803 -0.6270
  645TIP3    H2 1900   5.644   4.114   1.908  2.1456 -0.0212 -2.3054
  646TIP3   OH2 1901   0.440   6.380   4.568 -0.1328 -0.0464 -0.2137
  646TIP3    H1 1902   0.366   6.357   4.624 -0.0609 -0.9937 -0.4907
  646TIP3    H2 1903   0.440   6.313   4.499 -1.2233  2.0244 -2.3109
  647TIP3   OH2 1904   2.888   2.873   0.949 -0.1741 -0.2454  0.8697
  647TIP3    H1 1905   2.971   2.918   0.969  0.3143 -0.4678 -0.6379
  647TIP3    H2 1906   2.823   2.943   0.949  0.6144  0.5443 -1.6730
  648TIP3   OH2 1907   6.373   2.691   1.694  0.7488  0.0000 -0.2691
  648TIP3    H1 1908   6.343   2.719   1.780  1.4252  1.3566 -0.4641
  648TIP3    H2 1909   6.463   2.723   1.688  0.8728 -0.5015 -1.2970
  649TIP3   OH2 1910   5.385   3.750   1.250  0.1802 -0.0748  0.4770
  649TIP3    H1 1911   5.292   3.773   1.252  0.2943  0.5737 -0.8590
  649TIP3    H2 1912   5.431   3.832   1.269  0.5202  0.1620 -1.2645
  650TIP3   OH2 1913   5.762   3.209   3.076 -0.6185 -1.0492  0.0002
  650TIP3    H1 1914   5.838   3.261   3.049  0.2769 -2.3941 -0.1034
  650TIP3    H2 1915   5.702   3.273   3.114  1.5228 -0.2880  2.2202
  651TIP3   OH2 1916   6.869   3.722   2.408  0.1683  0.0849 -0.2350
  651TIP3    H1 1917   6.922   3.663   2.462  1.7590  0.8887 -0.8809
  651TIP3    H2 1918   6.797   3.667   2.376  1.4375 -1.4193 -0.5484
  652TIP3   OH2 1919   5.540   3.236   3.738  0.3524  0.2728 -0.0549
  652TIP3    H1 1920   5.509   3.153   3.700  2.3434 -1.4177  1.8846
  652TIP3    H2 1921   5.604   3.268   3.675  0.1938 -0.0821 -0.4062
  653TIP3   OH2 1922   2.874   6.035   0.689  0.2292 -0.0676  0.2347
  653TIP3    H1 1923   2.958   6.076   0.671  0.6300 -1.5591 -1.3073
  653TIP3    H2 1924   2.847   6.072   0.774  2.0159  1.0467  0.3267
  654TIP3   OH2 1925   5.631   0.592   1.822  0.1222 -0.0594 -0.3609
  654TIP3    H1 1926   5.693   0.533   1.865  0.2689  0.4015  0.0571
  654TIP3    H2 1927   5.662   0.680   1.844 -1.9084  0.1953  1.6582
  655TIP3   OH2 1928   4.768   2.042   1.480  0.1718 -0.0154  0.0842
  655TIP3    H1 1929   4.794   1.964   1.528  1.3355  0.8480  0.9059
  655TIP3    H2 1930   4.848   2.094   1.474 -0.5538  1.0493 -0.5619
  656TIP3   OH2 1931   4.872   2.747   0.500  0.0484  0.4624  0.2006
  656TIP3    H1 1932   4.810   2.819   0.511 -0.8997 -0.5547  1.6635
  656TIP3    H2 1933   4.864   2.723   0.408  0.6926  2.4795 -0.4187
  657TIP3   OH2 1934   3.154   5.894   0.485  0.0177  0.3363  0.1667
  657TIP3    H1 1935   3.231   5.838   0.477 -0.4915 -0.4851  0.9507
  657TIP3    H2 1936   3.174   5.952   0.559 -0.5705 -0.6196  1.0824
  658TIP3   OH2 1937   7.046   1.489   2.119 -0.5826 -0.0425 -0.3349
  658TIP3    H1 1938   7.046   1.486   2.023  0.5013  0.1995 -0.3536
  658TIP3    H2 1939   7.006   1.574   2.139 -0.9946 -0.1787 -0.5680
  659TIP3   OH2 1940   0.451   0.435   0.756 -0.4471  0.3197 -0.3898
  659TIP3    H1 1941   0.491   0.432   0.843 -0.0919  1.6883 -0.4943
  659TIP3    H2 1942   0.386   0.365   0.757 -0.2531  0.1514  0.8871
  660TIP3   OH2 1943   0.809   3.565   1.747  0.0291  0.0421  0.3399
  660TIP3    H1 1944   0.740   3.631   1.732 -1.6763 -1.1988  2.4286
  660TIP3    H2 1945   0.864   3.604   1.815  1.2093  0.8577 -1.0431
  661TIP3   OH2 1946   0.304   1.018   0.566  0.2778  0.1542 -0.2164
  661TIP3    H1 1947   0.250   1.005   0.644 -1.2142  0.1800 -1.2345
  661TIP3    H2 1948   0.394   1.001   0.596 -0.2470  0.4130  1.5566
  662TIP3   OH2 1949   3.201   4.579   5.878  0.2421 -0.0687  0.7972
  662TIP3    H1 1950   3.190   4.531   5.960  0.0215 -0.7369  0.3816
  662TIP3    H2 1951   3.132   4.545   5.821  0.6032  0.1570  0.2218
  663TIP3   OH2 1952   6.714   1.951   2.389  0.3513 -0.4339 -0.1716
  663TIP3    H1 1953   6.770   1.875   2.406  1.6182 -0.3131 -3.4400
  663TIP3    H2 1954   6.700   1.949   2.294 -0.0029  3.1400 -0.2320
  664TIP3   OH2 1955   6.534   0.895   2.222  0.0713 -0.1469 -0.1620
  664TIP3    H1 1956   6.516   0.881   2.130 -0.8209 -0.2055  0.0151
  664TIP3    H2 1957   6.603   0.962   2.224  0.5883 -0.6618 -0.8786
  665TIP3   OH2 1958   0.239   0.999   1.049  0.3195  0.2115  0.2011
  665TIP3    H1 1959   0.230   0.958   0.963  2.0449 -1.1648  0.6634
  665TIP3    H2 1960   0.149   1.003   1.082 -0.0520 -1.7658 -0.5100
  666TIP3   OH2 1961   2.597   4.776   5.197  0.0044 -0.0494  0.0206
  666TIP3    H1 1962   2.575   4.701   5.141  1.2830 -0.7624  0.4466
  666TIP3    H2 1963   2.691   4.767   5.213  0.1031  1.4794  0.3462
  667TIP3   OH2 1964   0.773   5.463   3.899  0.7485 -0.5007 -0.3407
  667TIP3    H1 1965   0.771   5.388   3.958 -0.8976  0.1571  0.4697
  667TIP3    H2 1966   0.716   5.437   3.827 -0.7882  0.4273  0.5241
  668TIP3   OH2 1967   3.504   6.704   5.699 -0.1645 -0.1667  0.3953
  668TIP3    H1 1968   3.421   6.741   5.730  0.1025 -0.1784  1.1316
  668TIP3    H2 1969   3.514   6.623   5.749  0.7984  0.3580  1.0618
  669TIP3   OH2 1970   6.535   1.049   0.877 -0.1016  0.3848  0.9644
  669TIP3    H1 1971   6.471   1.117   0.900  0.9995  1.0376  2.1824
  669TIP3    H2 1972   6.615   1.076   0.922  1.1523 -0.2104 -0.8562
  670TIP3   OH2 1973   1.806   5.853   4.191  0.1883  0.3561  0.4071
  670TIP3    H1 1974   1.791   5.769   4.235 -1.7507  0.1930 -0.5433
  670TIP3    H2 1975   1.798   5.833   4.098  1.4429  1.2712  0.0838
  671TIP3   OH2 1976   0.874   5.931   5.918  0.0189 -0.0323 -0.4477
  671TIP3    H1 1977   0.912   5.904   5.835 -0.6135  2.5241 -1.6072
  671TIP3    H2 1978   0.949   5.950   5.975  0.4411 -1.0450 -0.6501
  672TIP3   OH2 1979   6.185   4.890   0.580  0.4316 -0.3878  0.1429
  672TIP3    H1 1980   6.117   4.832   0.545 -0.5344  0.8855 -0.1276
  672TIP3    H2 1981   6.232   4.836   0.643 -0.5018 -1.4479 -0.0486
  673TIP3   OH2 1982   0.421   3.746   3.296  0.0704 -0.1814  0.2224
  673TIP3    H1 1983   0.409   3.701   3.379 -1.6924  0.0193  0.0940
  673TIP3    H2 1984   0.406   3.839   3.316 -0.4785 -0.1457 -0.3288
  674TIP3   OH2 1985   4.937   3.929   1.947  0.6246  0.5940 -0.2616
  674TIP3    H1 1986   4.859   3.900   1.995 -0.1575 -0.8628 -2.3593
  674TIP3    H2 1987   5.005   3.935   2.015 -0.9162  0.4395  1.3487
  675TIP3   OH2 1988   6.990   2.146   1.487  0.9241 -0.2128  0.0706
  675TIP3    H1 1989   6.937   2.069   1.504  0.9888 -0.0486  1.0067
  675TIP3    H2 1990   7.053   2.118   1.420 -0.5715 -0.2971 -1.3154
  676TIP3   OH2 1991   1.427   5.039   4.948 -0.0582 -0.1021 -0.5448
  676TIP3    H1 1992   1.395   5.063   4.861  0.5940 -1.2365 -1.1124
  676TIP3    H2 1993   1.483   5.112   4.974  0.6574 -0.2730 -1.5818
  677TIP3   OH2 1994   5.088   1.767   1.979 -0.1374  0.3293  0.5640
  677TIP3    H1 1995   5.074   1.707   2.052  0.8953 -1.1324 -0.4112
  677TIP3    H2 1996   5.164   1.818   2.004  0.6115 -0.6154  0.2407
  678TIP3   OH2 1997   3.973   3.244   0.234 -0.8205 -0.4862 -0.0476
  678TIP3    H1 1998   4.034   3.316   0.220  0.5072 -1.7956 -1.1312
  678TIP3    H2 1999   4.023   3.165   0.212 -1.7709 -1.8768  2.5181
  679TIP3   OH2 2000   0.445   6.250   3.815  0.4652 -0.7293  0.1711
  679TIP3    H1 2001   0.366   6.204   3.789  0.0918 -0.5812  1.0537
  679TIP3    H2 2002   0.471   6.299   3.737 -0.9647  0.1439  0.2384
  680TIP3   OH2 2003   3.650   5.608   4.126 -0.3553  0.3978  0.0531
  680TIP3    H1 2004   3.594   5.554   4.070 -0.1770 -0.1181  0.3662
  680TIP3    H2 2005   3.679   5.679   4.069 -0.3614  0.0059 -0.4466
  681TIP3   OH2 2006   2.657   0.786   6.035 -0.2702 -0.2839 -0.5942
  681TIP3    H1 2007   2.735   0.742   6.004 -0.4272  0.0448 -1.4719
  681TIP3    H2 2008   2.584   0.734   5.999 -0.4531  0.2001 -0.9254
  682TIP3   OH2 2009   0.653   5.513   4.788  0.2011  0.2621 -1.2325
  682TIP3    H1 2010   0.627   5.526   4.879  0.0127 -2.3396 -0.8654
  682TIP3    H2 2011   0.735   5.561   4.778 -0.5429  1.7849 -0.1180
  683TIP3   OH2 2012   5.003   2.724   0.232  0.1556 -0.0015  0.4346
  683TIP3    H1 2013   4.982   2.817   0.235  1.0810  0.1739  2.1814
  683TIP3    H2 2014   5.040   2.711   0.144  0.9467  1.4904  0.5281
  684TIP3   OH2 2015   4.717   2.606   1.613  0.0965 -0.0533 -0.0703
  684TIP3    H1 2016   4.801   2.626   1.654 -0.2530 -1.6087  1.4436
  684TIP3    H2 2017   4.737   2.599   1.520  1.6583 -0.4215  0.2792
  685TIP3   OH2 2018   7.253   4.135   1.605 -0.1102 -0.3022  0.2536
  685TIP3    H1 2019   7.193   4.112   1.676 -0.5490  0.0539 -0.0028
  685TIP3    H2 2020   7.278   4.051   1.567  1.5986 -0.6361  2.0265
  686TIP3   OH2 2021   0.443   6.583   4.398  0.2029  0.2612  0.4265
  686TIP3    H1 2022   0.469   6.502   4.442  0.4785 -0.1735 -0.5379
  686TIP3    H2 2023   0.522   6.637   4.399 -0.1896  0.8508  1.7700
  687TIP3   OH2 2024   5.957   6.496   3.986 -0.1751 -0.6076  0.8624
  687TIP3    H1 2025   5.896   6.461   3.921 -1.4426  1.1229  1.0921
  687TIP3    H2 2026   5.970   6.424   4.048  0.3255 -1.9642 -0.7805
  688TIP3   OH2 2027   1.361   6.493   5.110  0.1141 -0.8998  0.1372
  688TIP3    H1 2028   1.326   6.414   5.069 -0.8684 -1.2898  1.6615
  688TIP3    H2 2029   1.337   6.484   5.203 -2.3032  2.3693 -0.0516
  689TIP3   OH2 2030   0.740   4.682   5.565 -0.0347  0.4149 -0.0339
  689TIP3    H1 2031   0.750   4.591   5.537 -1.6475  0.7355 -1.8014
  689TIP3    H2 2032   0.818   4.727   5.532  0.6704 -0.2826  0.6774
  690TIP3   OH2 2033   4.942   2.142   0.051 -0.5088  0.4834  0.4054
  690TIP3    H1 2034   4.970   2.079  -0.016  1.1734 -0.5907  2.0776
  690TIP3    H2 2035   4.893   2.089   0.114 -1.4934  1.3644  0.3885
  691TIP3   OH2 2036   2.739   1.056   4.125  0.0033  0.1895  0.6471
  691TIP3    H1 2037   2.782   0.994   4.065  0.5641  0.8987  0.3088
  691TIP3    H2 2038   2.773   1.142   4.098 -1.1702  0.6947  0.7759
  692TIP3   OH2 2039   0.130   2.405   1.625  0.4392  0.5523  0.1041
  692TIP3    H1 2040   0.171   2.351   1.692 -0.2638 -1.0731 -0.7628
  692TIP3    H2 2041   0.092   2.478   1.673  1.7599  0.5188  1.2385
  693TIP3   OH2 2042   6.599   2.713   0.573  0.1946 -0.4421 -0.0699
  693TIP3    H1 2043   6.576   2.727   0.665  0.2092  1.5132 -0.3404
  693TIP3    H2 2044   6.687   2.676   0.576  1.1040  1.6474  0.6859
  694TIP3   OH2 2045   0.752   1.585   1.407  0.0156  0.0911 -0.2001
  694TIP3    H1 2046   0.784   1.495   1.397  1.0612  0.4191  0.0787
  694TIP3    H2 2047   0.771   1.607   1.499 -0.1147  0.6319 -0.3030
  695TIP3   OH2 2048   5.911   2.344   2.985  0.2861 -0.0835 -0.2211
  695TIP3    H1 2049   5.849   2.364   2.914  1.7014 -2.0290 -2.0942
  695TIP3    H2 2050   5.869   2.275   3.035  0.2407 -0.2743 -0.5228
  696TIP3   OH2 2051   4.161   1.250   4.838  0.5584 -0.2087 -0.0021
  696TIP3    H1 2052   4.106   1.191   4.787 -0.1264  0.6555 -0.2742
  696TIP3    H2 2053   4.210   1.300   4.772 -0.2981  0.8846  0.1759
  697TIP3   OH2 2054   6.200   4.439   0.642  0.0734  0.4080  0.0542
  697TIP3    H1 2055   6.169   4.439   0.552 -0.5650  1.3740  0.2670
  697TIP3    H2 2056   6.224   4.348   0.660  0.9013  0.3411 -1.3213
  698TIP3   OH2 2057   5.104   3.272   1.946  0.4071 -0.2974 -0.1476
  698TIP3    H1 2058   5.116   3.317   1.863  0.4398  0.5586  0.3230
  698TIP3    H2 2059   5.046   3.328   1.997  0.4935 -0.7493  0.4657
  699TIP3   OH2 2060   0.455   3.484   0.581 -0.1932  0.7725  0.0858
  699TIP3    H1 2061   0.442   3.575   0.557 -0.5209  0.6079 -0.3767
  699TIP3    H2 2062   0.491   3.443   0.502  0.3953  0.5966  0.4341
  700TIP3   OH2 2063   3.031   6.504   5.211  0.2181  0.0835  0.1922
  700TIP3    H1 2064   3.025   6.442   5.138 -1.6540  0.6121 -0.1191
  700TIP3    H2 2065   2.972   6.469   5.277  1.4458 -0.0591  1.2407
  701TIP3   OH2 2066   0.721   3.186   1.038  0.0921  0.5178  0.3166
  701TIP3    H1 2067   0.787   3.126   1.071  0.6326  1.0570  0.2234
  701TIP3    H2 2068   0.705   3.247   1.110 -1.6264 -0.6807  0.9905
  702TIP3   OH2 2069   4.350   0.408   5.789  0.6658 -0.2585  0.0215
  702TIP3    H1 2070   4.393   0.329   5.756 -0.5838 -0.3889 -1.3304
  702TIP3    H2 2071   4.400   0.481   5.752  0.2954 -0.4091 -0.7697
  703TIP3   OH2 2072   2.025   1.549   0.373 -0.6123 -0.4721 -0.1586
  703TIP3    H1 2073   1.994   1.459   0.374 -0.9559 -0.3558 -0.0240
  703TIP3    H2 2074   2.116   1.544   0.343  0.2206 -1.1197  2.3577
  704TIP3   OH2 2075   7.374   4.041   1.088  0.1930 -0.3857 -0.3343
  704TIP3    H1 2076   7.406   4.054   1.177 -2.5011 -1.9677  0.9352
  704TIP3    H2 2077   7.400   3.951   1.067  1.4993  0.2365 -1.4878
  705TIP3   OH2 2078   0.595   4.409   2.608  0.0350 -0.0050  0.1422
  705TIP3    H1 2079   0.504   4.434   2.596  0.3188  0.9755 -0.0500
  705TIP3    H2 2080   0.645   4.488   2.587  0.9616 -0.7107 -0.3988
  706TIP3   OH2 2081   6.203   4.607   3.993  0.2161  0.7991 -0.2878
  706TIP3    H1 2082   6.243   4.693   3.982 -0.4341  0.9916 -1.1882
  706TIP3    H2 2083   6.163   4.588   3.908  0.3075 -0.3648 -0.0787
  707TIP3   OH2 2084   1.825   6.940   5.251 -0.0270  0.5967 -0.0371
  707TIP3    H1 2085   1.840   6.910   5.162 -1.5129  0.7114 -0.3287
  707TIP3    H2 2086   1.854   6.867   5.306 -2.0182 -0.7085 -0.6955
  708TIP3   OH2 2087   1.902   2.735   4.392 -0.0276  0.2691  0.1350
  708TIP3    H1 2088   1.807   2.749   4.387 -0.4533 -2.1928  0.5447
  708TIP3    H2 2089   1.918   2.719   4.485  0.4359 -1.6073 -0.2597
  709TIP3   OH2 2090   0.331   1.787   0.925  0.2489  0.8006  0.6620
  709TIP3    H1 2091   0.333   1.862   0.984 -1.1481  1.4376 -0.0771
  709TIP3    H2 2092   0.355   1.712   0.980 -0.2073  1.5038  1.8314
  710TIP3   OH2 2093   7.124   1.713   1.871  0.2029 -0.3770  0.0944
  710TIP3    H1 2094   7.192   1.705   1.804  0.4196  2.9038 -0.1957
  710TIP3    H2 2095   7.171   1.742   1.949 -0.5406 -0.5525  0.6115
  711TIP3   OH2 2096   0.812   4.461   1.469  0.0025  0.0105  0.1189
  711TIP3    H1 2097   0.885   4.433   1.525 -0.6827 -2.9857 -0.4206
  711TIP3    H2 2098   0.793   4.385   1.415 -2.6847  1.1950 -0.6640
  712TIP3   OH2 2099   0.624   3.612   3.137  0.2246 -0.1486 -0.0035
  712TIP3    H1 2100   0.554   3.670   3.169 -0.8041 -1.6836  0.5885
  712TIP3    H2 2101   0.580   3.556   3.073  1.3678  0.1738 -1.0721
  713TIP3   OH2 2102   1.104   1.931   2.550 -0.5654  0.2573  0.2336
  713TIP3    H1 2103   1.189   1.890   2.564 -0.1289  0.9586 -0.2894
  713TIP3    H2 2104   1.052   1.905   2.625  0.1332 -0.1305  0.5899
  714TIP3   OH2 2105   6.536   3.354   0.225 -0.3829  0.1646  0.0947
  714TIP3    H1 2106   6.462   3.300   0.253 -0.4659  0.8087  1.1907
  714TIP3    H2 2107   6.506   3.444   0.239  0.1509  0.4631 -0.6534
  715TIP3   OH2 2108   7.195   4.006   2.106 -0.1012 -0.7053 -0.2004
  715TIP3    H1 2109   7.272   3.949   2.104  1.1552  0.8951  0.9725
  715TIP3    H2 2110   7.189   4.035   2.197 -1.6380 -0.2088 -0.4437
  716TIP3   OH2 2111   1.639   4.104   2.252  0.3993  0.2792 -0.7009
  716TIP3    H1 2112   1.726   4.088   2.214  1.1624  0.1430  1.0507
  716TIP3    H2 2113   1.579   4.054   2.198  1.7813 -2.0122 -0.1740
  717TIP3   OH2 2114   6.409   3.048   1.931  0.2140 -0.1663 -0.5828
  717TIP3    H1 2115   6.388   3.090   1.848 -0.8868  1.4250  0.4621
  717TIP3    H2 2116   6.502   3.028   1.926  0.6867  2.0615 -1.2887
  718TIP3   OH2 2117   7.301   2.713   3.695  0.1072  0.1225  0.6244
  718TIP3    H1 2118   7.310   2.749   3.607 -0.2211  0.4909  0.7396
  718TIP3    H2 2119   7.385   2.669   3.712  0.1989  0.1182  0.1631
  719TIP3   OH2 2120   6.491   3.122   3.697  0.1008 -0.1221  0.1447
  719TIP3    H1 2121   6.581   3.109   3.667  0.2630 -0.0549  0.5934
  719TIP3    H2 2122   6.442   3.048   3.661  0.5312 -0.6817  0.6993
  720TIP3   OH2 2123   7.241   3.618   2.340 -0.1858  0.1348 -0.1185
  720TIP3    H1 2124   7.203   3.533   2.361 -0.3520  0.8123  2.5038
  720TIP3    H2 2125   7.282   3.605   2.254 -1.5777 -2.1207 -0.4965
  721TIP3   OH2 2126   6.606   1.552   2.562 -0.0875  0.3019 -0.9239
  721TIP3    H1 2127   6.633   1.461   2.571 -1.7686 -0.1983 -0.6772
  721TIP3    H2 2128   6.651   1.583   2.483  0.0962 -0.8901 -1.2985
  722TIP3   OH2 2129   6.191   2.428   1.871 -0.2840 -0.3843 -0.1491
  722TIP3    H1 2130   6.284   2.435   1.891 -0.5261  1.0323  0.6022
  722TIP3    H2 2131   6.163   2.346   1.911  0.5557 -0.6364 -0.0746
  723TIP3   OH2 2132   6.427   4.312   2.234 -0.1634 -0.4736  0.0001
  723TIP3    H1 2133   6.332   4.309   2.234 -0.1244 -1.9356 -0.4954
  723TIP3    H2 2134   6.450   4.352   2.150 -0.3670  1.5308  0.8717
  724TIP3   OH2 2135   3.225   6.608   4.725 -0.4188 -0.0636 -0.4222
  724TIP3    H1 2136   3.168   6.557   4.783 -1.5310  0.5605 -0.9634
  724TIP3    H2 2137   3.171   6.680   4.695  0.4573  0.1637 -1.4852
  725TIP3   OH2 2138   0.763   2.732   0.864  0.2185  0.1911  0.3109
  725TIP3    H1 2139   0.702   2.659   0.851  2.4710 -1.7346  0.2398
  725TIP3    H2 2140   0.835   2.714   0.804 -0.0108  3.5002 -1.0715
  726TIP3   OH2 2141   1.127   4.271   5.171 -0.2074  0.1822  0.2159
  726TIP3    H1 2142   1.143   4.353   5.124  1.0836 -0.6483 -0.8449
  726TIP3    H2 2143   1.191   4.271   5.242 -0.4713  0.2833  0.4513
  727TIP3   OH2 2144   0.917   3.895   1.664  0.4529  0.1870  0.6021
  727TIP3    H1 2145   0.887   3.915   1.753 -0.4215 -0.3655  0.4424
  727TIP3    H2 2146   0.931   3.800   1.664 -0.3069  0.0642 -0.0572
  728TIP3   OH2 2147   0.266   1.792   2.248 -0.3345 -0.7594 -0.3510
  728TIP3    H1 2148   0.321   1.798   2.327 -0.7400 -2.5335  0.0929
  728TIP3    H2 2149   0.206   1.720   2.267 -3.3906  1.6126 -0.4847
  729TIP3   OH2 2150   1.116   4.662   3.590 -0.3904 -0.0700  0.7755
  729TIP3    H1 2151   1.152   4.575   3.607 -0.0077 -0.1242 -0.2570
  729TIP3    H2 2152   1.065   4.651   3.509 -1.9649  0.2207  1.6990
  730TIP3   OH2 2153   4.836   0.156   5.057  0.2176  0.9572 -0.6579
  730TIP3    H1 2154   4.812   0.106   4.979  1.5969  0.0879 -0.5387
  730TIP3    H2 2155   4.866   0.091   5.120 -1.6270  1.5620  0.9178
  731TIP3   OH2 2156   4.838   5.740   5.675  0.2911 -0.2416  0.2351
  731TIP3    H1 2157   4.898   5.785   5.735  0.1874  0.7357 -0.3983
  731TIP3    H2 2158   4.784   5.686   5.733 -1.4351  2.5014  1.3141
  732TIP3   OH2 2159   0.965   4.893   2.231  0.2746  0.4094 -0.4380
  732TIP3    H1 2160   0.911   4.820   2.201  0.0942 -0.3045  1.5593
  732TIP3    H2 2161   0.904   4.949   2.280  1.0892  0.1621  0.8846
  733TIP3   OH2 2162   0.311   3.793   3.667 -0.2945  0.3698 -0.2257
  733TIP3    H1 2163   0.244   3.768   3.731 -1.1927  0.4276 -1.1292
  733TIP3    H2 2164   0.300   3.731   3.595  0.4505  0.5522 -0.5014
  734TIP3   OH2 2165   6.972   1.083   0.599 -0.0211  0.0014  0.0906
  734TIP3    H1 2166   7.066   1.064   0.601 -0.0846 -0.4075 -0.5147
  734TIP3    H2 2167   6.955   1.130   0.680  0.5809 -0.5374  0.5375
  735TIP3   OH2 2168   2.729   4.903   3.456  0.3310 -0.7738  0.0113
  735TIP3    H1 2169   2.638   4.922   3.435  0.2054  0.0497  1.2658
  735TIP3    H2 2170   2.767   4.871   3.373 -0.6786  0.3983 -0.9194
  736TIP3   OH2 2171   0.723   1.876   1.462 -0.0839  0.0343 -0.7173
  736TIP3    H1 2172   0.638   1.920   1.462 -0.5397 -0.8425 -0.4226
  736TIP3    H2 2173   0.774   1.923   1.396 -0.4425  1.2322 -0.1562
  737TIP3   OH2 2174   4.562   1.956   5.857  0.4823  0.4093 -0.2157
  737TIP3    H1 2175   4.543   1.870   5.821  0.5700  0.4335 -0.3206
  737TIP3    H2 2176   4.485   2.009   5.836 -1.3166 -0.6522  3.2036
  738TIP3   OH2 2177   0.236   2.458   0.700 -0.5242  0.5589  0.5270
  738TIP3    H1 2178   0.220   2.550   0.683 -2.3017 -0.1392 -1.7668
  738TIP3    H2 2179   0.151   2.423   0.725 -0.2001 -0.7731 -0.1618
  739TIP3   OH2 2180   0.641   2.221   2.545  0.1420  0.2183  0.0322
  739TIP3    H1 2181   0.666   2.178   2.464  0.2047  2.1887 -1.0310
  739TIP3    H2 2182   0.560   2.176   2.572  0.8684 -1.3522 -0.3683
  740TIP3   OH2 2183   6.220   3.317   1.866  0.5546 -0.0398 -0.7428
  740TIP3    H1 2184   6.190   3.295   1.955  0.0558 -1.6117 -1.2842
  740TIP3    H2 2185   6.294   3.377   1.880  0.0465  0.2608  0.7163
  741TIP3   OH2 2186   5.953   2.086   3.624 -0.0443  0.1613  0.4969
  741TIP3    H1 2187   5.986   2.171   3.652  0.2358  0.2514 -0.0880
  741TIP3    H2 2188   6.026   2.025   3.642 -0.5634 -0.1098  1.7280
  742TIP3   OH2 2189   6.427   3.353   4.200  0.6627  0.1237  0.0121
  742TIP3    H1 2190   6.360   3.411   4.236  0.7366 -0.1640  0.6197
  742TIP3    H2 2191   6.388   3.265   4.206 -0.0296  0.2566 -2.2438
  743TIP3   OH2 2192   7.168   2.444   1.996 -0.1899  0.1744  0.3813
  743TIP3    H1 2193   7.100   2.414   2.056  0.8696 -1.8369  0.6408
  743TIP3    H2 2194   7.128   2.517   1.948 -2.2803 -0.5354  0.9905
  744TIP3   OH2 2195   5.607   3.013   3.575 -0.5789 -0.3034 -0.3778
  744TIP3    H1 2196   5.685   3.035   3.626 -0.8815 -0.8120  0.3004
  744TIP3    H2 2197   5.625   3.049   3.488  1.0828 -1.7698 -0.6671
  745TIP3   OH2 2198   7.024   3.151   4.097  0.3410 -0.3613  0.0321
  745TIP3    H1 2199   7.063   3.064   4.102  0.6179 -0.2326  0.1684
  745TIP3    H2 2200   7.087   3.207   4.143 -0.0978 -0.1803  0.4153
  746TIP3   OH2 2201   0.795   3.266   0.787 -0.2216  0.3223  0.6129
  746TIP3    H1 2202   0.757   3.272   0.875  0.7266 -2.3144  1.2354
  746TIP3    H2 2203   0.856   3.193   0.792  1.4469  1.5033 -1.6887
  747TIP3   OH2 2204   6.519   2.830   2.227 -0.0270 -0.3849  0.5900
  747TIP3    H1 2205   6.433   2.864   2.251  0.9030  0.0798  3.3922
  747TIP3    H2 2206   6.501   2.744   2.189 -1.7220 -0.2382  1.0304
  748TIP3   OH2 2207   5.662   4.789   0.770 -0.1946  0.6120 -0.2880
  748TIP3    H1 2208   5.683   4.697   0.789 -0.8391  0.5122 -0.0507
  748TIP3    H2 2209   5.710   4.808   0.690 -2.8716 -1.0016 -2.3433
  749TIP3   OH2 2210   6.750   3.368   4.336  0.4546  0.0981  0.7570
  749TIP3    H1 2211   6.673   3.326   4.298  0.6227  0.6643 -0.2144
  749TIP3    H2 2212   6.805   3.296   4.366 -0.8064 -0.2940  2.1649
  750TIP3   OH2 2213   6.831   3.151   3.388 -0.6042 -0.2638 -0.3900
  750TIP3    H1 2214   6.743   3.165   3.352 -1.4973 -1.6342  1.1865
  750TIP3    H2 2215   6.844   3.056   3.382  0.0682 -0.2674  0.9686
  751TIP3   OH2 2216   0.880   1.794   3.563  0.1431 -0.3319  0.1995
  751TIP3    H1 2217   0.789   1.770   3.578  0.2602 -1.0874 -0.2867
  751TIP3    H2 2218   0.924   1.712   3.540  0.7219  0.2001 -0.6322
  752TIP3   OH2 2219   6.792   3.703   4.057  0.0354  0.7879 -0.4139
  752TIP3    H1 2220   6.852   3.697   3.983  0.9960 -0.0198  0.4175
  752TIP3    H2 2221   6.835   3.654   4.127 -0.0894  2.9333  1.2023
  753TIP3   OH2 2222   0.131   1.656   4.954  0.2757  0.4860  0.5055
  753TIP3    H1 2223   0.148   1.672   4.861  1.8424  1.1046  0.8835
  753TIP3    H2 2224   0.115   1.562   4.960  1.5982  0.1959 -0.1962
  754TIP3   OH2 2225   5.826   1.410   4.285 -0.8772  0.1134 -0.3337
  754TIP3    H1 2226   5.789   1.398   4.373 -0.4835  0.9808 -0.0464
  754TIP3    H2 2227   5.834   1.321   4.250  0.8381 -0.4221  1.2950
  755TIP3   OH2 2228   5.086   2.134   4.832 -0.2322  0.1363 -0.6090
  755TIP3    H1 2229   4.996   2.121   4.803 -0.2150  0.0618 -0.6279
  755TIP3    H2 2230   5.095   2.076   4.908  0.2391 -0.9262 -1.4680
  756TIP3   OH2 2231   0.540   4.844   1.746  0.1984  0.0392 -0.1893
  756TIP3    H1 2232   0.583   4.784   1.686  0.1819  0.4249 -0.5906
  756TIP3    H2 2233   0.517   4.920   1.692  1.8787  1.2120  0.6945
  757TIP3   OH2 2234   6.135   3.042   3.857  0.7448  0.0324  0.4224
  757TIP3    H1 2235   6.201   3.061   3.924  3.3352 -0.8224 -1.7766
  757TIP3    H2 2236   6.104   2.954   3.879  0.1066  0.5364  1.6084
  758TIP3   OH2 2237   3.181   5.422   5.213 -0.6285 -0.3101  0.0135
  758TIP3    H1 2238   3.184   5.376   5.130 -1.4925 -0.5829  0.1344
  758TIP3    H2 2239   3.148   5.509   5.192  1.1019  0.3177 -0.2321
  759TIP3   OH2 2240   1.555   3.071   1.478 -0.0304 -0.7553 -0.7996
  759TIP3    H1 2241   1.557   2.990   1.427 -1.6394 -1.3697  0.0839
  759TIP3    H2 2242   1.472   3.112   1.454  0.7205  0.5799 -1.1509
  760TIP3   OH2 2243   5.431   3.988   3.665  0.6925  0.1004  0.3167
  760TIP3    H1 2244   5.483   3.926   3.716  1.7689 -0.1637 -1.0673
  760TIP3    H2 2245   5.469   4.074   3.684 -1.5614  0.5308  3.1706
  761TIP3   OH2 2246   6.924   2.575   2.817 -0.0428 -0.6559  0.4008
  761TIP3    H1 2247   6.943   2.491   2.857  1.5038  0.0775  1.2321
  761TIP3    H2 2248   6.828   2.583   2.822 -0.0518 -1.5561  1.9376
  762TIP3   OH2 2249   2.157   3.309   1.032  0.2037 -0.1178  0.6741
  762TIP3    H1 2250   2.064   3.287   1.042 -0.1428  1.3564  0.8084
  762TIP3    H2 2251   2.182   3.271   0.948 -1.1481  1.4933 -0.4897
  763TIP3   OH2 2252   1.376   3.475   0.372  0.1504  0.5580  0.5014
  763TIP3    H1 2253   1.330   3.402   0.414  0.9420 -0.5921 -0.5951
  763TIP3    H2 2254   1.467   3.447   0.369  0.6233  2.0051  0.9011
  764TIP3   OH2 2255   4.838   2.249   4.469  0.1480 -0.2272 -0.0935
  764TIP3    H1 2256   4.929   2.278   4.468  0.1822 -0.2502  1.0792
  764TIP3    H2 2257   4.797   2.301   4.538 -0.1113 -1.9403  1.0917
  765TIP3   OH2 2258   1.020   4.191   1.177  0.2722  0.0412  0.6283
  765TIP3    H1 2259   1.034   4.160   1.088  0.5094  0.1081  0.6422
  765TIP3    H2 2260   1.052   4.281   1.177  0.3012  0.0315  0.7898
  766TIP3   OH2 2261   0.392   2.062   2.671 -0.1439 -0.0825 -0.2042
  766TIP3    H1 2262   0.315   2.061   2.728  0.3296  0.3224  0.4405
  766TIP3    H2 2263   0.456   2.006   2.715 -0.0155 -0.3169 -0.6790
  767TIP3   OH2 2264   4.983   2.670   1.675  0.2736  1.0712 -0.6500
  767TIP3    H1 2265   5.023   2.680   1.589 -1.0981  2.4029 -1.1464
  767TIP3    H2 2266   5.018   2.742   1.727 -1.3075  2.1363 -1.0358
  768TIP3   OH2 2267   2.354   3.247   3.453  0.3264  0.0170  0.1066
  768TIP3    H1 2268   2.406   3.225   3.375  1.0923  0.1690  0.5680
  768TIP3    H2 2269   2.406   3.314   3.497 -0.9595  1.1959 -0.1681
  769TIP3   OH2 2270   0.771   5.077   5.626  0.0565  0.1477  0.4786
  769TIP3    H1 2271   0.831   5.013   5.664 -0.7999 -1.7479 -1.2589
  769TIP3    H2 2272   0.829   5.140   5.582  0.8423 -1.0248 -0.2123
  770TIP3   OH2 2273   7.380   3.216   2.525 -0.3677 -0.4787  0.7384
  770TIP3    H1 2274   7.452   3.263   2.568 -0.9981  0.5157  0.7176
  770TIP3    H2 2275   7.335   3.172   2.597 -0.9016  0.4791  0.9900
  771TIP3   OH2 2276   0.215   3.755   0.126  0.3028  0.4784  0.3336
  771TIP3    H1 2277   0.188   3.682   0.181  0.2642 -1.5986 -2.3857
  771TIP3    H2 2278   0.134   3.799   0.102  0.0873 -0.3693 -0.4768
  772TIP3   OH2 2279   6.737   4.063   3.187 -0.2493 -0.2008 -0.0074
  772TIP3    H1 2280   6.665   4.011   3.150 -1.3524  0.5613  1.0139
  772TIP3    H2 2281   6.809   4.051   3.126 -0.8578 -1.9785 -0.4071
  773TIP3   OH2 2282   5.039   6.314   0.329 -0.3473 -0.4255  0.1012
  773TIP3    H1 2283   5.119   6.367   0.326  0.5131 -1.6629  0.5147
  773TIP3    H2 2284   4.968   6.377   0.328  0.6324  0.6781 -0.9590
  774TIP3   OH2 2285   0.765   5.059   0.859 -0.2228  0.7935  0.9001
  774TIP3    H1 2286   0.818   5.128   0.899  0.3652  0.3783  0.8373
  774TIP3    H2 2287   0.742   5.001   0.932  1.6638 -0.5035  0.5159
  775TIP3   OH2 2288   3.246   4.014   0.284  0.1780 -0.1871  0.4914
  775TIP3    H1 2289   3.281   3.946   0.341 -1.2200 -0.4266  1.1066
  775TIP3    H2 2290   3.280   4.096   0.320 -0.7437 -0.3322  1.7386
  776TIP3   OH2 2291   2.188   4.505   0.202 -0.7498 -0.0345  0.5155
  776TIP3    H1 2292   2.104   4.550   0.188 -0.4099  1.0347  1.8291
  776TIP3    H2 2293   2.171   4.446   0.276 -0.6564 -0.6470  0.0473
  777TIP3   OH2 2294   0.313   2.016   1.113 -0.0811  0.1909 -0.3833
  777TIP3    H1 2295   0.315   2.107   1.081  1.3293  1.2243  2.4508
  777TIP3    H2 2296   0.222   2.000   1.134 -0.2193  1.2784 -0.1050
  778TIP3   OH2 2297   0.482   3.888   1.114 -0.5807  0.7363  0.2997
  778TIP3    H1 2298   0.536   3.810   1.129 -0.7853  0.4300 -0.5371
  778TIP3    H2 2299   0.509   3.949   1.182 -0.3227 -0.0192  0.8750
  779TIP3   OH2 2300   2.522   6.951   2.184  0.4922  0.3394 -0.3697
  779TIP3    H1 2301   2.449   6.968   2.244 -0.5773 -0.0691 -1.5290
  779TIP3    H2 2302   2.599   6.987   2.228 -0.6571  2.1857  0.1672
  780TIP3   OH2 2303   0.436   4.933   0.612 -0.2471  0.7448  0.1887
  780TIP3    H1 2304   0.435   4.892   0.698  0.0858 -0.7133 -0.4769
  780TIP3    H2 2305   0.523   4.914   0.577 -0.7061  0.4816 -0.8512
  781TIP3   OH2 2306   3.326   2.902   0.703 -0.7737  0.0233 -0.2551
  781TIP3    H1 2307   3.270   2.979   0.694 -1.2499 -0.0523  1.8262
  781TIP3    H2 2308   3.271   2.829   0.673 -1.1639  0.1880  0.0508
  782TIP3   OH2 2309   4.545   6.410   5.686 -0.6617 -0.8937  0.5381
  782TIP3    H1 2310   4.509   6.374   5.767 -0.6908 -0.7682  0.5805
  782TIP3    H2 2311   4.516   6.501   5.685  0.1295 -0.6415  0.8541
  783TIP3   OH2 2312   3.573   3.088   0.409 -0.3410  0.2286 -0.2596
  783TIP3    H1 2313   3.596   3.130   0.492  1.4619 -1.2763  0.0404
  783TIP3    H2 2314   3.618   3.139   0.343 -1.0414  0.8768 -0.2516
  784TIP3   OH2 2315   2.237   3.247   1.694  0.3527 -0.0185 -0.1426
  784TIP3    H1 2316   2.218   3.238   1.787  0.3862 -1.1643 -0.2442
  784TIP3    H2 2317   2.295   3.174   1.673 -0.2000 -0.1633 -1.2076
  785TIP3   OH2 2318   2.702   6.230   5.971  0.4708  0.2100 -0.0916
  785TIP3    H1 2319   2.656   6.252   5.890 -1.8555  0.5944  1.2995
  785TIP3    H2 2320   2.794   6.247   5.951 -0.3966  3.7043 -1.5799
  786TIP3   OH2 2321   1.409   3.038   0.367 -0.1251 -0.2338  0.2331
  786TIP3    H1 2322   1.327   3.037   0.319  1.0884  0.0910 -1.8778
  786TIP3    H2 2323   1.475   3.013   0.303  1.3627 -0.9764  2.0273
  787TIP3   OH2 2324   0.095   4.158   2.640  0.4207 -0.1673 -0.6224
  787TIP3    H1 2325   0.002   4.146   2.623  0.3556 -1.2822  0.4416
  787TIP3    H2 2326   0.102   4.244   2.682 -0.0664  0.0955 -1.0779
  788TIP3   OH2 2327   1.321   6.029   0.972  0.0315  0.0389 -0.3895
  788TIP3    H1 2328   1.264   6.053   0.899 -0.9237 -0.5285  0.1540
  788TIP3    H2 2329   1.395   6.089   0.965 -0.5185  0.6398 -1.2435
  789TIP3   OH2 2330   2.088   2.354   1.406  0.6055 -0.1785  1.0038
  789TIP3    H1 2331   2.044   2.344   1.491 -1.6647  0.9069 -0.0143
  789TIP3    H2 2332   2.056   2.280   1.354  1.3148 -0.3396  0.7941
  790TIP3   OH2 2333   0.923   2.662   3.112 -0.1357 -0.1382  0.1942
  790TIP3    H1 2334   0.924   2.676   3.017  0.0283 -1.5443 -0.0282
  790TIP3    H2 2335   0.830   2.660   3.134 -0.1700  1.2651  0.2517
  791TIP3   OH2 2336   1.774   5.320   1.186  0.0603 -0.0183  0.5897
  791TIP3    H1 2337   1.856   5.370   1.181  0.5332 -0.9265 -1.3226
  791TIP3    H2 2338   1.705   5.386   1.188  0.7568  0.7256  0.1300
  792TIP3   OH2 2339   6.048   0.039   5.635  0.2716  0.0191  0.6426
  792TIP3    H1 2340   5.972   0.033   5.577  1.1757 -0.2727 -0.5215
  792TIP3    H2 2341   6.023  -0.012   5.712 -1.2519  1.0799  0.8635
  793TIP3   OH2 2342   5.959   6.835   5.045 -0.1225 -0.9818  0.0610
  793TIP3    H1 2343   5.965   6.740   5.052 -0.3507 -0.9313  0.9799
  793TIP3    H2 2344   5.865   6.852   5.034 -0.0086 -0.9046 -0.8764
  794TIP3   OH2 2345   0.040   3.776   2.663  0.4405 -0.0211  0.4973
  794TIP3    H1 2346  -0.028   3.751   2.600  0.8244 -0.6772  0.3395
  794TIP3    H2 2347  -0.009   3.814   2.736 -0.1610 -1.0791  0.6639
  795TIP3   OH2 2348   1.207   2.894   1.610  0.0376  0.5140 -0.4689
  795TIP3    H1 2349   1.275   2.926   1.669  0.2586 -0.9381  0.0764
  795TIP3    H2 2350   1.157   2.973   1.586  0.0594  1.1438  1.4912
  796TIP3   OH2 2351   1.384   4.258   0.782  0.5838 -0.2098 -0.3573
  796TIP3    H1 2352   1.452   4.209   0.735  1.8523  0.4110  0.8057
  796TIP3    H2 2353   1.365   4.204   0.859 -0.3958 -0.4826 -0.7846
  797TIP3   OH2 2354   1.687   3.967   0.982 -0.1658  0.3546 -0.3709
  797TIP3    H1 2355   1.775   3.947   0.950 -1.0246 -0.9240 -2.0141
  797TIP3    H2 2356   1.667   3.895   1.042 -0.2435  0.4586 -0.2724
  798TIP3   OH2 2357   2.428   2.697   1.448  0.1159 -0.2494 -0.1202
  798TIP3    H1 2358   2.337   2.698   1.479  0.2701 -1.1247  0.3636
  798TIP3    H2 2359   2.454   2.789   1.447 -0.2779 -0.1229  1.1962
  799TIP3   OH2 2360   2.582   1.899   1.995  0.4182  0.2320 -0.1080
  799TIP3    H1 2361   2.610   1.974   1.942 -1.3506  1.3732  0.5113
  799TIP3    H2 2362   2.500   1.871   1.954  0.7130 -0.9214  0.0953
  800TIP3   OH2 2363   1.030   5.550   0.231  0.1518  0.1729 -0.0812
  800TIP3    H1 2364   1.073   5.591   0.156 -2.5490  1.8572 -0.7612
  800TIP3    H2 2365   1.063   5.598   0.306  2.9461 -1.5837 -0.1080
  801TIP3   OH2 2366   1.778   4.034   1.779  0.4785 -0.4459  0.1520
  801TIP3    H1 2367   1.757   3.968   1.845  0.9565 -0.1208  0.6320
  801TIP3    H2 2368   1.794   4.114   1.830  1.1627 -0.2709 -0.3352
  802TIP3   OH2 2369   0.564   2.345   5.811  0.4511 -0.0066  0.4383
  802TIP3    H1 2370   0.616   2.409   5.859  0.7536 -0.6063  0.9153
  802TIP3    H2 2371   0.482   2.339   5.859  0.0041  0.8001 -0.2075
  803TIP3   OH2 2372   3.227   6.749   5.482 -0.1048  0.3585 -0.4712
  803TIP3    H1 2373   3.272   6.664   5.476 -1.4873 -0.4445  0.1549
  803TIP3    H2 2374   3.217   6.764   5.576  0.3928  1.3544 -0.5832
  804TIP3   OH2 2375   5.097   0.257   5.321 -0.3334 -0.1563  0.2387
  804TIP3    H1 2376   5.178   0.216   5.289 -0.8591 -1.7002  0.8098
  804TIP3    H2 2377   5.106   0.349   5.298  2.2155 -0.0258  1.5430
  805TIP3   OH2 2378   0.356   5.339   2.296 -0.3934 -0.0424 -0.2015
  805TIP3    H1 2379   0.422   5.374   2.356  0.3721  0.8061 -1.5349
  805TIP3    H2 2380   0.350   5.246   2.320 -0.5569  0.4012  1.5985
  806TIP3   OH2 2381   1.302   3.666   3.053 -0.3227 -0.1376 -0.3426
  806TIP3    H1 2382   1.370   3.709   3.001 -0.9695 -0.2894 -1.3294
  806TIP3    H2 2383   1.346   3.591   3.094  0.2197  0.0557 -0.5608
  807TIP3   OH2 2384   3.334   3.040   1.877 -0.0837  0.0012 -0.5145
  807TIP3    H1 2385   3.282   3.094   1.937  0.1626  0.4304 -0.6839
  807TIP3    H2 2386   3.270   2.992   1.826 -0.3136  0.5293 -0.7250
  808TIP3   OH2 2387   3.980   5.407   6.015 -0.4340  0.2852 -0.2296
  808TIP3    H1 2388   3.989   5.312   6.014  0.4452  0.3560  0.1829
  808TIP3    H2 2389   3.929   5.428   5.936  1.7962 -0.3042 -1.8729
  809TIP3   OH2 2390   3.782   3.089   0.969  0.1818  0.9522 -0.1110
  809TIP3    H1 2391   3.856   3.077   0.909  0.4530 -2.1393  0.7777
  809TIP3    H2 2392   3.705   3.081   0.914  0.4729  1.5388 -0.6079
  810TIP3   OH2 2393   5.721   0.434   5.972  0.7944  0.8785  0.4128
  810TIP3    H1 2394   5.658   0.458   6.040 -0.2075  0.3830 -0.3374
  810TIP3    H2 2395   5.668   0.404   5.899  1.9194  0.0780 -0.0870
  811TIP3   OH2 2396   2.843   3.959   3.006 -0.7171 -0.1606  0.0987
  811TIP3    H1 2397   2.922   4.012   3.013 -1.4633  1.0898 -0.7497
  811TIP3    H2 2398   2.873   3.877   2.967 -0.1357  1.0920 -2.2453
  812TIP3   OH2 2399   5.670   6.028   5.887  0.0529 -0.2709  0.1854
  812TIP3    H1 2400   5.662   6.102   5.948 -0.5069  0.3459 -0.6320
  812TIP3    H2 2401   5.603   5.966   5.915  0.4546 -0.4320  0.8083
  813TIP3   OH2 2402   2.424   2.949   0.106  0.2067 -0.3792 -0.2074
  813TIP3    H1 2403   2.411   2.867   0.154  0.8946 -0.8000 -0.7085
  813TIP3    H2 2404   2.469   2.922   0.026 -0.4351  0.3764 -0.8315
  814TIP3   OH2 2405   3.457   5.703   4.303  0.2040  0.2152  0.7927
  814TIP3    H1 2406   3.382   5.645   4.288 -0.4942  1.4716 -0.6774
  814TIP3    H2 2407   3.527   5.666   4.250 -0.2331  0.6945 -0.1222
  815TIP3   OH2 2408   1.457   3.719   0.230 -0.3118  0.1069  0.2598
  815TIP3    H1 2409   1.429   3.710   0.139  0.3322 -1.9713  0.2373
  815TIP3    H2 2410   1.400   3.659   0.279 -0.3753  0.8926  1.1622
  816TIP3   OH2 2411   1.011   3.324   1.861  0.1288  0.1716 -0.3469
  816TIP3    H1 2412   0.932   3.374   1.838  1.3240  3.8379  3.0106
  816TIP3    H2 2413   0.978   3.251   1.913 -1.1447  1.5515  0.8584
  817TIP3   OH2 2414   3.337   6.374   5.708  0.3815  0.3575 -0.8785
  817TIP3    H1 2415   3.427   6.404   5.722 -0.3464  1.8123  0.9284
  817TIP3    H2 2416   3.304   6.430   5.638  0.8372 -0.0963 -1.4604
  818TIP3   OH2 2417   1.441   3.682   0.645  0.2307  0.2196 -0.4670
  818TIP3    H1 2418   1.380   3.637   0.587  0.4926 -1.4924  0.5454
  818TIP3    H2 2419   1.435   3.634   0.728  2.4974  0.3847 -0.1715
  819TIP3   OH2 2420   2.087   5.541   1.083 -0.2387 -0.1212  0.2255
  819TIP3    H1 2421   2.097   5.621   1.030  0.7454 -1.0832 -1.0686
  819TIP3    H2 2422   2.059   5.474   1.021 -1.1378 -0.7789  1.3217
  820TIP3   OH2 2423   0.273   2.779   4.200  0.0627 -0.1252  0.1558
  820TIP3    H1 2424   0.299   2.810   4.113 -0.3067 -1.0084 -0.2815
  820TIP3    H2 2425   0.292   2.852   4.258 -1.0993  1.0386 -0.8890
  821TIP3   OH2 2426   0.730   3.610   1.411 -0.1541 -0.4177 -0.1256
  821TIP3    H1 2427   0.737   3.631   1.504 -1.2002  0.9425 -0.3420
  821TIP3    H2 2428   0.743   3.516   1.406 -0.2527 -0.5118  1.4124
  822TIP3   OH2 2429   1.750   4.839   2.268 -0.1630 -0.0613 -0.0846
  822TIP3    H1 2430   1.764   4.795   2.184  0.0166 -0.4385  0.1425
  822TIP3    H2 2431   1.801   4.920   2.261  0.3765 -0.3995 -0.0899
  823TIP3   OH2 2432   6.993   5.505   2.436 -0.0402  0.3373 -1.1604
  823TIP3    H1 2433   7.086   5.482   2.434  0.0133  0.2898  0.7086
  823TIP3    H2 2434   6.989   5.580   2.496 -1.6613 -1.9691  1.7418
  824TIP3   OH2 2435   2.869   1.969   2.355  0.2754 -0.0535  0.5103
  824TIP3    H1 2436   2.820   1.896   2.392  0.7466 -0.9151 -0.5243
  824TIP3    H2 2437   2.903   2.016   2.431 -4.1647  2.0579  1.3711
  825TIP3   OH2 2438   6.132   1.376   5.061 -0.4082 -0.8558  0.3819
  825TIP3    H1 2439   6.059   1.321   5.032  0.2261 -1.5197  0.0245
  825TIP3    H2 2440   6.174   1.405   4.980 -2.2391  2.2830  0.4514
  826TIP3   OH2 2441   1.006   6.153   1.656  0.4539 -0.4409 -0.0601
  826TIP3    H1 2442   1.091   6.190   1.631 -0.3268  1.4009 -0.0589
  826TIP3    H2 2443   0.965   6.129   1.574  0.3502  0.0870 -0.1637
  827TIP3   OH2 2444   7.169   1.369   5.514 -0.4799 -0.1964 -0.3969
  827TIP3    H1 2445   7.229   1.318   5.459  0.2922  0.2196  0.0542
  827TIP3    H2 2446   7.099   1.395   5.455  0.2630  0.1122 -1.1539
  828TIP3   OH2 2447   4.231   3.979   0.457  1.3691  0.3386 -0.7422
  828TIP3    H1 2448   4.183   3.968   0.539  1.4765 -1.5522 -0.9181
  828TIP3    H2 2449   4.316   4.014   0.484  1.3131 -0.0296 -0.0642
  829TIP3   OH2 2450   6.937   3.617   2.162 -0.1248 -0.1256 -0.9227
  829TIP3    H1 2451   6.935   3.665   2.245  1.0216  0.8014 -1.4167
  829TIP3    H2 2452   6.975   3.678   2.100  0.4162 -1.3375 -1.8033
  830TIP3   OH2 2453   0.913   1.563   0.712 -0.1483 -0.2045  0.0160
  830TIP3    H1 2454   1.002   1.528   0.711  0.5339  1.5174 -0.0747
  830TIP3    H2 2455   0.919   1.648   0.668 -1.8067 -0.0014  0.1326
  831TIP3   OH2 2456   1.330   2.872   3.613 -0.1322  0.2871 -0.6309
  831TIP3    H1 2457   1.393   2.804   3.637 -1.8283 -0.9668  0.3428
  831TIP3    H2 2458   1.381   2.953   3.614  1.5315 -0.7465 -0.1438
  832TIP3   OH2 2459   4.526   2.912   2.345  0.2032  0.1240  0.0585
  832TIP3    H1 2460   4.567   2.830   2.372  2.1316  1.0445  0.0138
  832TIP3    H2 2461   4.433   2.900   2.365  0.5773 -1.7766  0.7578
  833TIP3   OH2 2462   5.833   0.139   5.457 -0.0115  0.6028 -0.0220
  833TIP3    H1 2463   5.741   0.167   5.456 -0.3737 -0.5143  0.3488
  833TIP3    H2 2464   5.878   0.203   5.403 -1.0683  1.0020 -0.4597
  834TIP3   OH2 2465   6.383   2.391   4.712  0.4840 -0.5468 -0.1100
  834TIP3    H1 2466   6.381   2.340   4.631  0.4178  0.2139 -0.5916
  834TIP3    H2 2467   6.402   2.326   4.780  2.3168 -0.9366 -0.9514
  835TIP3   OH2 2468   0.544   1.645   0.457  0.0873 -0.6279 -0.0925
  835TIP3    H1 2469   0.635   1.663   0.432 -0.3724  2.1692 -0.0015
  835TIP3    H2 2470   0.550   1.580   0.527  2.0143 -0.5327 -0.1420
  836TIP3   OH2 2471   0.548   2.157   0.025  0.5473 -0.5329  0.3152
  836TIP3    H1 2472   0.588   2.076   0.055  0.9700 -1.1612 -1.8857
  836TIP3    H2 2473   0.578   2.223   0.088  0.3688 -2.0190  1.9960
  837TIP3   OH2 2474   1.647   4.582   4.793  0.8535 -0.1813  0.2351
  837TIP3    H1 2475   1.595   4.645   4.844  2.2316  0.4410  0.8778
  837TIP3    H2 2476   1.648   4.503   4.846 -0.2493 -0.5174 -0.2281
  838TIP3   OH2 2477   1.478   4.207   1.691  0.3769 -0.3107  0.0552
  838TIP3    H1 2478   1.460   4.299   1.674 -1.9448 -0.8477 -0.5265
  838TIP3    H2 2479   1.519   4.175   1.610  1.3159  0.2342  0.3124
  839TIP3   OH2 2480   0.251   2.606   3.036 -0.6263  0.3380 -0.1461
  839TIP3    H1 2481   0.184   2.611   3.105 -1.3290  0.1654 -0.8112
  839TIP3    H2 2482   0.221   2.668   2.969  0.3377  0.9036 -0.0508
  840TIP3   OH2 2483   6.638   3.610   0.358 -0.0208 -0.1249  0.1192
  840TIP3    H1 2484   6.707   3.600   0.424 -1.0250  1.2202  1.3911
  840TIP3    H2 2485   6.558   3.583   0.402 -0.5137 -0.4709 -0.9614
  841TIP3   OH2 2486   2.171   3.625   1.094 -0.1745 -0.2094 -0.4393
  841TIP3    H1 2487   2.076   3.632   1.088 -0.3114 -0.8071  0.8354
  841TIP3    H2 2488   2.204   3.670   1.016 -1.4691  0.6424 -0.4960
  842TIP3   OH2 2489   3.004   2.953   0.111 -0.2115 -0.7206 -0.3457
  842TIP3    H1 2490   3.021   2.897   0.187  0.0942 -1.3445 -0.8698
  842TIP3    H2 2491   2.924   2.918   0.072 -0.6241 -0.1138 -0.0459
  843TIP3   OH2 2492   5.900   1.149   5.340 -0.2984  0.1514  0.3673
  843TIP3    H1 2493   5.963   1.132   5.269 -1.1420 -2.1765  0.1559
  843TIP3    H2 2494   5.942   1.217   5.392  1.8757 -0.5089 -0.4529
  844TIP3   OH2 2495   1.099   1.793   0.874 -0.2587 -0.4101  0.6514
  844TIP3    H1 2496   1.162   1.727   0.845  0.4755  0.2965  0.6032
  844TIP3    H2 2497   1.048   1.814   0.795 -0.7082 -1.1475  0.7442
  845TIP3   OH2 2498   1.143   5.624   1.467 -0.3648 -0.0008 -0.2516
  845TIP3    H1 2499   1.062   5.661   1.431 -1.3070 -0.5979  1.1945
  845TIP3    H2 2500   1.196   5.701   1.489 -0.0088  0.3796 -2.3373
  846TIP3   OH2 2501   1.083   3.621   0.358  0.1429  0.8402 -0.7842
  846TIP3    H1 2502   1.136   3.582   0.429 -1.1816 -0.3586 -0.4245
  846TIP3    H2 2503   0.998   3.638   0.398  0.3377  3.1121 -1.2601
  847TIP3   OH2 2504   3.287   3.116   0.347 -0.1612  0.1784  0.2746
  847TIP3    H1 2505   3.240   3.034   0.361 -1.6500  0.3613 -3.0752
  847TIP3    H2 2506   3.379   3.095   0.364 -0.8685 -1.4403  2.1481
  848TIP3   OH2 2507   1.043   2.133   0.179 -0.3204  0.2421 -0.5058
  848TIP3    H1 2508   1.035   2.192   0.254 -1.8129 -1.3718  0.6338
  848TIP3    H2 2509   1.134   2.104   0.180  0.0948  1.5083 -0.3267
  849TIP3   OH2 2510   7.326   3.508   2.053  1.0392  0.2158  0.5798
  849TIP3    H1 2511   7.264   3.437   2.034  0.7815  0.4956  0.3627
  849TIP3    H2 2512   7.409   3.478   2.016  1.4352 -0.9025  2.3591
  850TIP3   OH2 2513   3.084   3.461   0.334 -0.0299  0.1932 -0.2037
  850TIP3    H1 2514   3.171   3.475   0.372 -0.4787 -0.5604  1.1002
  850TIP3    H2 2515   3.087   3.373   0.298 -0.8155 -0.4814  1.3710
  851TIP3   OH2 2516   1.921   5.710   0.037  0.4744 -0.9039 -0.3103
  851TIP3    H1 2517   1.961   5.714   0.124  0.3354 -0.6353 -0.2600
  851TIP3    H2 2518   1.915   5.801   0.009 -0.1894 -0.9353 -0.2771
  852TIP3   OH2 2519   1.332   2.849   0.587  0.7900 -0.2463  0.3613
  852TIP3    H1 2520   1.366   2.904   0.517  1.5150  0.5273  1.2994
  852TIP3    H2 2521   1.407   2.796   0.615  0.6632 -0.1250  0.9443
  853TIP3   OH2 2522   2.905   3.324   1.134 -0.3004 -0.5342  0.2199
  853TIP3    H1 2523   2.993   3.313   1.170 -0.7466 -0.8859  1.2013
  853TIP3    H2 2524   2.915   3.393   1.068  0.4665  0.3152  1.2046
  854TIP3   OH2 2525   3.544   1.582   0.830 -0.2839  0.7076 -0.2317
  854TIP3    H1 2526   3.554   1.517   0.900 -0.0269  1.5630  0.5406
  854TIP3    H2 2527   3.490   1.539   0.764 -1.0400  0.1003  0.7717
  855TIP3   OH2 2528   1.850   2.121   2.103 -0.6016  0.0333  0.1156
  855TIP3    H1 2529   1.760   2.153   2.112 -0.6174 -0.2886  1.1141
  855TIP3    H2 2530   1.902   2.199   2.085 -1.4681 -0.0962 -3.3958
  856TIP3   OH2 2531   5.278   6.336   5.976 -0.1099 -0.3872  0.3656
  856TIP3    H1 2532   5.326   6.307   5.899  1.3378  0.6475  0.8656
  856TIP3    H2 2533   5.192   6.364   5.942  0.0590 -1.1244 -0.6832
  857TIP3   OH2 2534   0.039   3.741   1.037 -0.0407 -0.0001  0.2295
  857TIP3    H1 2535   0.053   3.646   1.035  1.2727  0.1986 -1.2223
  857TIP3    H2 2536   0.041   3.767   0.944 -0.3103  1.4473  0.6240
  858TIP3   OH2 2537   2.013   2.960   2.851  0.5613 -0.3288  0.0617
  858TIP3    H1 2538   2.073   3.034   2.841 -0.2078  0.3303  0.2671
  858TIP3    H2 2539   2.065   2.893   2.895  1.0501  0.3627  0.5483
  859TIP3   OH2 2540   5.942   6.200   5.094 -0.2925  0.3910  0.2826
  859TIP3    H1 2541   5.969   6.108   5.094  0.7011  0.6538 -1.2891
  859TIP3    H2 2542   5.846   6.197   5.093 -0.2708 -0.6829 -1.9855
  860TIP3   OH2 2543   1.198   4.271   0.146 -0.2386 -0.3268 -0.5314
  860TIP3    H1 2544   1.107   4.244   0.138 -0.8303  1.2875  0.6305
  860TIP3    H2 2545   1.246   4.190   0.164 -1.7018 -0.9056  0.8176
  861TIP3   OH2 2546   1.920   5.537   1.298  0.5763  0.7742 -0.5160
  861TIP3    H1 2547   1.895   5.625   1.326 -1.7396  0.7110 -2.2218
  861TIP3    H2 2548   1.997   5.550   1.242  0.5612  1.6594 -0.3288
  862TIP3   OH2 2549   3.195   0.037   5.932 -0.4451  0.1527 -0.1559
  862TIP3    H1 2550   3.108   0.016   5.967 -0.5665  1.6007  0.4237
  862TIP3    H2 2551   3.249   0.054   6.009  0.1530  0.0602 -0.5472
  863TIP3   OH2 2552   6.075   0.927   5.930 -0.0603 -0.3057 -0.5218
  863TIP3    H1 2553   6.144   0.883   5.980 -0.3004 -0.8425 -0.6678
  863TIP3    H2 2554   6.110   1.015   5.913 -0.4962  0.3306  1.6942
  864TIP3   OH2 2555   7.124   4.719   1.835  0.7273 -0.1233  0.7276
  864TIP3    H1 2556   7.077   4.772   1.900  0.7923  0.4764  0.2934
  864TIP3    H2 2557   7.055   4.681   1.781  0.7157  0.3371  0.4139
  865TIP3   OH2 2558   1.580   6.395   0.782  0.5772  0.0674  0.4339
  865TIP3    H1 2559   1.665   6.365   0.813  1.3101  0.0972 -1.4460
  865TIP3    H2 2560   1.600   6.450   0.706 -1.1022  0.1834  0.0462
  866TIP3   OH2 2561   1.004   2.936   0.028  0.4769  0.2538 -0.0801
  866TIP3    H1 2562   0.917   2.975   0.042  1.2396  1.4019  1.6797
  866TIP3    H2 2563   1.038   2.982  -0.049 -0.4921 -0.2607 -0.8315
  867TIP3   OH2 2564   3.471   4.178   1.137 -0.5062 -0.1276  0.3246
  867TIP3    H1 2565   3.436   4.240   1.201  0.5666  0.8135  0.0297
  867TIP3    H2 2566   3.395   4.148   1.088 -1.0774  0.7541  0.6493
  868TIP3   OH2 2567   7.005   2.825   0.284 -0.2167 -0.1483 -0.6977
  868TIP3    H1 2568   6.987   2.857   0.372  0.0606 -1.4464 -0.1597
  868TIP3    H2 2569   7.093   2.857   0.264  0.5767 -1.6109  0.3427
  869TIP3   OH2 2570   2.541   6.657   4.100 -0.0476  0.2055  0.0208
  869TIP3    H1 2571   2.456   6.615   4.117  0.0525 -1.0355 -2.2946
  869TIP3    H2 2572   2.605   6.598   4.139 -0.1369 -0.0026 -0.1414
  870TIP3   OH2 2573   6.669   4.323   0.919  0.3338  0.1856 -0.6664
  870TIP3    H1 2574   6.671   4.397   0.859 -1.4408 -0.5821 -1.7163
  870TIP3    H2 2575   6.759   4.292   0.924  0.5177  0.3362 -2.8558
  871TIP3   OH2 2576   0.899   0.394   5.792  0.3332 -0.3473 -0.4321
  871TIP3    H1 2577   0.896   0.480   5.751  2.0069 -0.0834 -0.0436
  871TIP3    H2 2578   0.820   0.391   5.847 -0.9173  0.0334 -2.1666
  872TIP3   OH2 2579   1.346   4.327   2.005  0.6735 -0.1513 -0.2285
  872TIP3    H1 2580   1.287   4.258   1.973  1.0707 -0.7925  0.4224
  872TIP3    H2 2581   1.288   4.387   2.053  0.5270 -0.7246  0.3221
  873TIP3   OH2 2582   6.927   1.890   4.625 -0.2824  0.0192 -0.7501
  873TIP3    H1 2583   6.992   1.841   4.574  0.6449  0.5602 -0.1167
  873TIP3    H2 2584   6.958   1.882   4.716  0.0504  2.0071 -0.6713
  874TIP3   OH2 2585   5.289   3.870   2.615 -0.2415  0.3584  0.2448
  874TIP3    H1 2586   5.301   3.964   2.632  0.6145  0.4292 -0.7110
  874TIP3    H2 2587   5.316   3.859   2.524 -2.9141 -0.3612 -0.4801
  875TIP3   OH2 2588   4.946   6.682   5.052  0.1485 -0.1806 -0.1358
  875TIP3    H1 2589   4.995   6.761   5.030  2.1423 -0.9378  1.4017
  875TIP3    H2 2590   4.869   6.684   4.995  0.6757  2.3522 -0.7974
  876TIP3   OH2 2591   5.462   2.822   5.739  0.2399 -0.1718 -0.0552
  876TIP3    H1 2592   5.418   2.772   5.808  0.7290  0.1831  0.5145
  876TIP3    H2 2593   5.421   2.792   5.658 -0.0079 -0.9315  0.3493
  877TIP3   OH2 2594   0.869   2.989   0.405  0.2097  0.5084  0.1585
  877TIP3    H1 2595   0.932   3.062   0.404  1.6065 -0.6652  0.1655
  877TIP3    H2 2596   0.893   2.938   0.483  0.2448 -0.8066 -0.7028
  878TIP3   OH2 2597   1.127   2.711   0.357 -0.1757  0.3961 -0.1887
  878TIP3    H1 2598   1.170   2.693   0.274  2.7166  1.3019  1.0683
  878TIP3    H2 2599   1.146   2.803   0.375 -0.0014 -0.0144  1.8751
  879TIP3   OH2 2600   5.440   4.107   5.332  0.1067 -0.2831  0.0673
  879TIP3    H1 2601   5.499   4.059   5.390  0.1645 -0.2452  0.0406
  879TIP3    H2 2602   5.353   4.074   5.353 -0.4140  2.7486  3.2506
  880TIP3   OH2 2603   5.088   6.214   5.301 -0.0511 -0.6576 -0.0775
  880TIP3    H1 2604   5.013   6.249   5.253 -0.4991 -1.6350 -0.0985
  880TIP3    H2 2605   5.085   6.120   5.285  0.8956 -0.7611  0.3283
  881TIP3   OH2 2606   3.580   0.173   5.819 -0.3552  0.0923  0.5709
  881TIP3    H1 2607   3.628   0.133   5.892  1.0545  0.2579 -0.2452
  881TIP3    H2 2608   3.638   0.163   5.744 -1.8791 -0.2668 -0.5940
  882TIP3   OH2 2609   1.935   2.836   1.605  0.4175  0.0940  0.3020
  882TIP3    H1 2610   2.029   2.831   1.623  0.6843  0.9966 -0.8317
  882TIP3    H2 2611   1.895   2.788   1.678  1.6217  1.6222  2.0291
  883TIP3   OH2 2612   3.570   1.248   1.636 -0.1051  0.2775  0.0521
  883TIP3    H1 2613   3.544   1.326   1.586 -0.1098  1.2402  1.5162
  883TIP3    H2 2614   3.553   1.272   1.727  1.6753 -0.7514  0.6759
  884TIP3   OH2 2615   0.664   3.964   1.873  0.0024 -0.0535  0.3017
  884TIP3    H1 2616   0.713   4.026   1.927 -0.5797  0.4424  0.2678
  884TIP3    H2 2617   0.593   4.015   1.836  0.2078 -0.4709 -0.6890
  885TIP3   OH2 2618   1.195   1.886   3.392  0.3893  0.4201 -0.4347
  885TIP3    H1 2619   1.220   1.794   3.385  0.8451  0.6282 -1.6401
  885TIP3    H2 2620   1.263   1.926   3.446 -0.5617 -0.2135  1.3052
  886TIP3   OH2 2621   5.370   4.501   2.625 -0.4264 -0.8385  0.0094
  886TIP3    H1 2622   5.417   4.577   2.592 -1.9711 -0.5965 -1.6981
  886TIP3    H2 2623   5.279   4.529   2.630 -1.0507 -2.6505 -0.8634
  887TIP3   OH2 2624   1.553   4.421   1.266  0.3016 -0.1818 -0.2075
  887TIP3    H1 2625   1.613   4.456   1.332  1.6257 -1.5239 -0.6820
  887TIP3    H2 2626   1.601   4.349   1.226 -1.3631 -0.8139 -1.0925
  888TIP3   OH2 2627   1.485   2.832   0.942 -0.1603  0.1985  0.2097
  888TIP3    H1 2628   1.506   2.838   0.849  0.8266 -0.3230  0.3988
  888TIP3    H2 2629   1.510   2.916   0.978  0.1622  0.1309  0.1438
  889TIP3   OH2 2630   1.329   2.677   1.492 -0.1757  0.2450 -0.2824
  889TIP3    H1 2631   1.299   2.745   1.552  0.6649  0.2822  0.1059
  889TIP3    H2 2632   1.357   2.724   1.414 -1.6159  0.1664 -0.8425
  890TIP3   OH2 2633   5.088   5.688   4.853 -0.3301 -0.1348  0.6224
  890TIP3    H1 2634   5.162   5.655   4.800 -0.7884  0.1137 -0.1847
  890TIP3    H2 2635   5.016   5.696   4.790 -1.3996 -1.5500  1.6411
  891TIP3   OH2 2636   1.779   3.777   2.738 -0.0807 -0.0848 -0.0457
  891TIP3    H1 2637   1.817   3.806   2.655 -1.5265 -1.0928 -1.0728
  891TIP3    H2 2638   1.838   3.814   2.805  1.4166  0.2625 -1.5130
  892TIP3   OH2 2639   6.788   0.387   5.544 -0.0251 -0.3607 -0.5123
  892TIP3    H1 2640   6.813   0.296   5.526 -0.6875 -0.8851  1.1660
  892TIP3    H2 2641   6.861   0.422   5.596 -0.0457 -0.0963 -0.6598
  893TIP3   OH2 2642   3.147   5.567   2.654  0.1423  0.6322  0.2937
  893TIP3    H1 2643   3.091   5.639   2.625 -1.9700 -0.9031  0.4673
  893TIP3    H2 2644   3.235   5.605   2.656 -0.8591  3.0751 -0.0350
  894TIP3   OH2 2645   3.427   6.837   5.233 -0.3973 -0.2404  0.2501
  894TIP3    H1 2646   3.400   6.827   5.325 -0.8499  0.4476  0.2014
  894TIP3    H2 2647   3.373   6.910   5.201 -0.9727 -1.1489 -0.8474
  895TIP3   OH2 2648   3.134   4.462   3.763  0.2515 -0.3961  0.5684
  895TIP3    H1 2649   3.170   4.420   3.842 -0.2207  0.1123  1.0585
  895TIP3    H2 2650   3.181   4.545   3.757  0.9442 -0.8327 -0.2143
  896TIP3   OH2 2651   6.472   2.645   1.200 -0.2906 -0.7494 -0.4944
  896TIP3    H1 2652   6.384   2.655   1.236 -0.5157 -0.0384 -1.2021
  896TIP3    H2 2653   6.529   2.635   1.276 -0.9950 -1.3594 -0.0351
  897TIP3   OH2 2654   2.262   6.370   4.402  0.0766  0.0410  0.2620
  897TIP3    H1 2655   2.353   6.340   4.398  0.1238  0.3760 -1.1600
  897TIP3    H2 2656   2.213   6.303   4.355 -0.2462  0.5209 -0.0853
  898TIP3   OH2 2657   2.089   2.774   2.611  0.1837  0.3759  0.4881
  898TIP3    H1 2658   2.095   2.691   2.659  0.9359 -0.2482 -0.6489
  898TIP3    H2 2659   2.053   2.836   2.674  2.8165  0.0207  2.4332
  899TIP3   OH2 2660   3.716   6.436   5.519 -0.0785 -0.9231 -0.5004
  899TIP3    H1 2661   3.811   6.445   5.520 -0.2086  0.5961 -0.9618
  899TIP3    H2 2662   3.690   6.468   5.432 -1.0184 -1.1971 -0.3247
  900TIP3   OH2 2663   2.858   5.020   5.744  0.0676 -0.0538 -0.1211
  900TIP3    H1 2664   2.839   4.997   5.835  0.6200  1.7603  0.4881
  900TIP3    H2 2665   2.773   5.012   5.700 -0.1030 -1.4284  0.4372
  901TIP3   OH2 2666   1.873   1.867   2.571  0.0949  0.0995  0.0234
  901TIP3    H1 2667   1.865   1.773   2.556 -0.2225  0.1712 -0.2545
  901TIP3    H2 2668   1.882   1.905   2.483  0.1552  0.3348  0.1302
  902TIP3   OH2 2669   1.054   3.208   0.360  0.0798  0.2889 -0.3050
  902TIP3    H1 2670   0.972   3.255   0.373 -0.3959  0.0359 -2.2027
  902TIP3    H2 2671   1.112   3.242   0.428 -1.3070  1.1126  0.5079
  903TIP3   OH2 2672   4.353   3.199   1.223 -1.1163  0.2989 -0.3776
  903TIP3    H1 2673   4.418   3.144   1.266 -0.9895  1.0039  0.3592
  903TIP3    H2 2674   4.277   3.142   1.209  0.1262 -0.8829 -2.4387
  904TIP3   OH2 2675   0.685   3.092   2.900  0.4090  0.4299  0.7498
  904TIP3    H1 2676   0.642   3.063   2.981  2.1753  0.5652  1.7737
  904TIP3    H2 2677   0.629   3.061   2.830  0.0034 -1.6410  1.9590
  905TIP3   OH2 2678   1.638   2.279   2.055 -0.3403  0.0847 -0.5839
  905TIP3    H1 2679   1.681   2.359   2.085  0.6712 -0.1572 -1.3626
  905TIP3    H2 2680   1.661   2.273   1.962 -1.1311 -0.6523 -0.7366
  906TIP3   OH2 2681   2.206   2.243   1.767 -0.2721 -0.2932 -0.4201
  906TIP3    H1 2682   2.256   2.206   1.694 -0.2854 -2.7181  0.7498
  906TIP3    H2 2683   2.115   2.242   1.736 -0.3297 -1.6875 -0.2683
  907TIP3   OH2 2684   2.334   2.426   2.198 -0.0042 -0.2230 -0.3884
  907TIP3    H1 2685   2.419   2.383   2.208  0.0842 -0.1399 -0.7683
  907TIP3    H2 2686   2.347   2.487   2.125  0.5023  2.0159  1.4923
  908TIP3   OH2 2687   0.984   3.326   1.100 -0.2325 -0.4830 -0.0927
  908TIP3    H1 2688   1.008   3.385   1.028 -1.5373 -0.2643 -0.3505
  908TIP3    H2 2689   1.060   3.268   1.109  0.3476  0.1172 -0.9893
  909TIP3   OH2 2690   4.297   3.517   2.937 -0.3479  0.0011  0.2912
  909TIP3    H1 2691   4.349   3.565   3.001  0.1839 -0.6935  0.3895
  909TIP3    H2 2692   4.298   3.426   2.968 -2.4336  0.1224  0.8326
  910TIP3   OH2 2693   0.541   2.969   1.910 -0.5088 -0.0555  0.1808
  910TIP3    H1 2694   0.587   3.052   1.909 -1.4668  0.4824 -0.1347
  910TIP3    H2 2695   0.541   2.942   2.002  0.6806 -0.2112  0.1389
  911TIP3   OH2 2696   4.001   1.031   1.985  0.7713  0.6295 -0.5885
  911TIP3    H1 2697   4.022   1.118   1.949 -0.6505  1.3497  0.2624
  911TIP3    H2 2698   4.068   1.015   2.050 -0.5082  2.3399  1.2116
  912TIP3   OH2 2699   5.458   4.349   0.535  0.7209 -0.4036  0.4080
  912TIP3    H1 2700   5.482   4.431   0.492  0.2650  0.2903  1.4558
  912TIP3    H2 2701   5.365   4.358   0.555  0.9353 -0.6750  1.5922
  913TIP3   OH2 2702   0.696   3.407   0.153  1.1919  0.4240 -0.1760
  913TIP3    H1 2703   0.751   3.443   0.083  1.1235 -0.0272 -0.4581
  913TIP3    H2 2704   0.607   3.417   0.122  1.1108  1.0882  0.2521
  914TIP3   OH2 2705   1.062   1.659   2.358  0.3709  0.2906  0.2556
  914TIP3    H1 2706   1.124   1.718   2.316  0.6198 -0.9201 -1.1280
  914TIP3    H2 2707   1.116   1.602   2.413  0.2093  0.8635  1.0144
  915TIP3   OH2 2708   2.212   3.386   3.002  0.5247  0.3176 -0.1534
  915TIP3    H1 2709   2.121   3.416   2.993  0.3999 -0.3751 -1.2983
  915TIP3    H2 2710   2.214   3.343   3.088 -0.4819 -0.5321 -0.5529
  916TIP3   OH2 2711   0.847   2.270   3.118 -0.1240  0.2527 -0.1671
  916TIP3    H1 2712   0.845   2.184   3.160  0.5355  0.3025 -0.0222
  916TIP3    H2 2713   0.903   2.258   3.041 -0.9015  0.2942 -0.7412
  917TIP3   OH2 2714   6.658   6.010   0.977 -0.3457 -0.0351 -0.1707
  917TIP3    H1 2715   6.645   6.077   0.910  0.8724 -0.4032 -0.7682
  917TIP3    H2 2716   6.711   6.053   1.044 -2.4912  0.6896  1.1234
  918TIP3   OH2 2717   0.737   0.919   5.831  0.3508  0.4402  0.3490
  918TIP3    H1 2718   0.708   1.002   5.794 -1.3550  1.1410  3.1430
  918TIP3    H2 2719   0.666   0.892   5.888  0.5599 -3.3487 -1.0394
  919TIP3   OH2 2720   0.667   4.403   0.511 -0.4890  0.4749  0.3980
  919TIP3    H1 2721   0.621   4.438   0.587 -1.1891 -0.1339  0.2609
  919TIP3    H2 2722   0.733   4.344   0.547  2.4827  3.8973  0.7728
  920TIP3   OH2 2723   4.203   4.291   0.066  0.1862  0.4572  0.0618
  920TIP3    H1 2724   4.179   4.231  -0.005  0.1809  0.3535  0.1501
  920TIP3    H2 2725   4.151   4.370   0.050  0.1182  0.4005  0.0010
  921TIP3   OH2 2726   1.315   4.890   0.588  0.2623  0.0363  0.0191
  921TIP3    H1 2727   1.250   4.958   0.606  0.2376 -0.2358  1.0191
  921TIP3    H2 2728   1.263   4.812   0.566  0.1955 -0.4998  1.9646
  922TIP3   OH2 2729   1.475   3.954   3.323  0.0785  0.0909  0.2828
  922TIP3    H1 2730   1.452   3.928   3.412 -0.5781  2.3357  0.7973
  922TIP3    H2 2731   1.567   3.978   3.328  0.1063 -0.0190  0.2981
  923TIP3   OH2 2732   0.127   6.878   4.299  0.0428 -0.4361 -0.6507
  923TIP3    H1 2733   0.046   6.917   4.331 -0.0337  0.2641 -1.6817
  923TIP3    H2 2734   0.152   6.815   4.367 -2.0889 -1.6475 -0.9487
  924TIP3   OH2 2735   3.178   4.532   1.237  0.1765 -0.3607 -0.1041
  924TIP3    H1 2736   3.241   4.460   1.233 -0.0217 -0.5200 -0.4662
  924TIP3    H2 2737   3.109   4.506   1.175 -1.0232 -0.9410  1.4396
  925TIP3   OH2 2738   3.059   3.744   1.682  0.6793  0.0863 -0.1689
  925TIP3    H1 2739   3.077   3.658   1.645  0.8060 -0.0152  0.1278
  925TIP3    H2 2740   3.139   3.768   1.727  0.8254  0.5958 -0.7028
  926TIP3   OH2 2741   0.908   4.898   1.762  0.9382  0.0125  0.3149
  926TIP3    H1 2742   0.888   4.979   1.716 -1.1762 -0.3471  0.5517
  926TIP3    H2 2743   0.908   4.831   1.693 -1.6805 -0.4391  0.7048
  927TIP3   OH2 2744   3.360   2.390   2.561  0.2305 -0.0642  0.5775
  927TIP3    H1 2745   3.433   2.401   2.500  0.6959 -0.3405  1.0826
  927TIP3    H2 2746   3.400   2.359   2.642 -0.5723 -1.3398  0.5040
  928TIP3   OH2 2747   1.682   0.389   5.689 -0.1299 -0.1248  0.0070
  928TIP3    H1 2748   1.636   0.378   5.772 -0.9062  0.0205 -0.3992
  928TIP3    H2 2749   1.765   0.430   5.713 -0.4926  0.2268  0.6709
  929TIP3   OH2 2750   1.976   6.888   5.917 -0.0726  0.4287  0.3608
  929TIP3    H1 2751   1.916   6.918   5.985 -1.2688  1.8780 -1.2900
  929TIP3    H2 2752   1.937   6.918   5.835  1.1846 -1.5399 -1.0110
  930TIP3   OH2 2753   1.828   5.606   0.694 -0.0465 -0.0628  0.1866
  930TIP3    H1 2754   1.771   5.682   0.691 -0.2538 -0.1113  2.1015
  930TIP3    H2 2755   1.874   5.606   0.610 -1.7875  0.8021 -0.7850
  931TIP3   OH2 2756   2.729   4.104   3.251  0.3527  1.0960  0.1927
  931TIP3    H1 2757   2.738   4.050   3.172  0.0425  1.4057 -0.0582
  931TIP3    H2 2758   2.745   4.044   3.323 -0.1183  0.6419 -0.0790
  932TIP3   OH2 2759   4.005   3.842   0.366 -0.0853  0.9020 -0.0245
  932TIP3    H1 2760   3.943   3.796   0.310 -0.0613  0.0733  0.6100
  932TIP3    H2 2761   4.018   3.783   0.441  2.1575  0.6350 -0.5880
  933TIP3   OH2 2762   1.716   2.004   2.825  0.3200  0.0587 -0.0150
  933TIP3    H1 2763   1.681   1.915   2.831 -0.2791  0.3538  0.8569
  933TIP3    H2 2764   1.778   2.000   2.752  1.4858 -1.4764  1.0197
  934TIP3   OH2 2765   1.313   3.551   1.527 -0.1143  0.0641 -0.2696
  934TIP3    H1 2766   1.302   3.630   1.475  1.0796  1.0239  0.9047
  934TIP3    H2 2767   1.243   3.554   1.592  1.1685  1.2675  1.1091
  935TIP3   OH2 2768   6.068   5.721   4.340  0.0630 -0.0145  0.4549
  935TIP3    H1 2769   6.053   5.655   4.273 -0.9649  1.4656 -0.8239
  935TIP3    H2 2770   6.157   5.705   4.371  0.7848 -0.3479 -1.7185
  936TIP3   OH2 2771   2.847   4.651   5.533  0.1132 -0.3395  0.1610
  936TIP3    H1 2772   2.900   4.730   5.535 -1.2772  0.6764 -1.5559
  936TIP3    H2 2773   2.762   4.678   5.569 -0.9530 -0.5667 -2.1217
  937TIP3   OH2 2774   1.533   1.858   3.308  0.2169  0.0349  0.1841
  937TIP3    H1 2775   1.456   1.811   3.276  1.2844 -2.7640  1.5636
  937TIP3    H2 2776   1.595   1.855   3.235 -0.0135  0.0465 -0.0136
  938TIP3   OH2 2777   4.332   1.842   2.267  0.1842 -0.1748  0.2145
  938TIP3    H1 2778   4.412   1.894   2.274  1.2808 -1.6183 -1.1044
  938TIP3    H2 2779   4.273   1.895   2.213  1.4895 -0.4772 -1.5718
  939TIP3   OH2 2780   0.875   2.113   0.607  0.3617 -0.4302  0.0753
  939TIP3    H1 2781   0.910   2.163   0.534  1.3021 -1.0563  0.0794
  939TIP3    H2 2782   0.792   2.077   0.576  0.2217  0.2256 -0.2955
  940TIP3   OH2 2783   3.140   5.010   5.757 -0.1609  0.0828  0.1600
  940TIP3    H1 2784   3.151   5.105   5.760  0.1409  0.0857 -1.0290
  940TIP3    H2 2785   3.048   4.997   5.733  0.4899  0.0874 -2.3903
  941TIP3   OH2 2786   3.842   2.363   1.331 -0.4232 -0.6788 -0.0720
  941TIP3    H1 2787   3.907   2.372   1.261  1.7564 -1.3008  1.7899
  941TIP3    H2 2788   3.810   2.452   1.345 -0.7980 -0.5312 -1.7542
  942TIP3   OH2 2789   2.570   1.783   0.988  0.1621 -0.1544  0.9495
  942TIP3    H1 2790   2.517   1.707   1.013  1.4485 -1.8077 -1.2078
  942TIP3    H2 2791   2.519   1.829   0.922 -0.5151  0.7610  2.0900
  943TIP3   OH2 2792   1.151   4.579   1.362  0.2605 -0.0655  0.1003
  943TIP3    H1 2793   1.189   4.653   1.313  1.5302  0.2280  1.4883
  943TIP3    H2 2794   1.099   4.532   1.298  0.3181  1.4360 -1.0722
  944TIP3   OH2 2795   0.086   2.569   2.383  0.1536 -0.2513 -0.2840
  944TIP3    H1 2796   0.050   2.638   2.438  1.5518  0.8526 -0.7114
  944TIP3    H2 2797   0.033   2.492   2.402  0.9422 -0.0390  2.9692
  945TIP3   OH2 2798   1.303   1.099   0.940 -0.2247  0.4009 -0.2008
  945TIP3    H1 2799   1.274   1.068   1.026  0.6622 -1.7280 -0.6367
  945TIP3    H2 2800   1.230   1.151   0.907 -1.3291 -0.3495  1.0363
  946TIP3   OH2 2801   6.191   4.831   1.481 -0.1466 -0.6772  0.2555
  946TIP3    H1 2802   6.228   4.756   1.434 -3.3475 -0.4576 -2.7301
  946TIP3    H2 2803   6.257   4.900   1.472  0.0025 -1.1324 -2.6460
  947TIP3   OH2 2804   1.638   5.161   1.001 -0.0269  0.3426  0.0682
  947TIP3    H1 2805   1.574   5.232   1.008 -1.6287 -1.1494  0.9383
  947TIP3    H2 2806   1.697   5.176   1.075 -1.8324 -0.6229  1.7533
  948TIP3   OH2 2807   2.468   4.866   2.104  0.4225  0.2810 -0.3079
  948TIP3    H1 2808   2.561   4.844   2.100  0.7564  1.6337 -0.3421
  948TIP3    H2 2809   2.466   4.955   2.140 -0.9098 -0.1074  0.6331
  949TIP3   OH2 2810   3.493   0.636   1.181 -0.8317 -0.4587 -0.2306
  949TIP3    H1 2811   3.470   0.672   1.267 -2.1694 -0.0294 -0.7497
  949TIP3    H2 2812   3.479   0.541   1.191  2.2728 -0.8440  1.0072
  950TIP3   OH2 2813   1.387   3.288   1.637  0.2227 -0.3165  0.7200
  950TIP3    H1 2814   1.360   3.378   1.618 -1.3823 -0.8707  0.3244
  950TIP3    H2 2815   1.354   3.271   1.725  0.8947 -0.3801  0.9618
  951TIP3   OH2 2816   0.927   4.194   0.117 -0.5431  0.1718 -0.3716
  951TIP3    H1 2817   0.904   4.138   0.042 -0.2754 -0.9056  0.3276
  951TIP3    H2 2818   0.870   4.163   0.188  1.2144 -0.8020  0.6675
  952TIP3   OH2 2819   7.064   3.221   0.525 -0.3490 -0.1426  0.5974
  952TIP3    H1 2820   7.054   3.283   0.452 -0.2311  0.5198  1.1409
  952TIP3    H2 2821   7.005   3.254   0.593 -0.8856 -1.0799  0.5987
  953TIP3   OH2 2822   3.644   5.326   1.255 -0.0386  0.5124 -0.3866
  953TIP3    H1 2823   3.699   5.258   1.216  0.7835  0.0121  1.5626
  953TIP3    H2 2824   3.558   5.314   1.215 -0.4249 -2.9501  1.2973
  954TIP3   OH2 2825   0.150   1.254   5.193  0.3710  0.2741 -0.1219
  954TIP3    H1 2826   0.092   1.329   5.188  0.4735  0.3488 -0.1951
  954TIP3    H2 2827   0.135   1.207   5.111  0.3362  0.2362 -0.0940
  955TIP3   OH2 2828   0.069   3.696   3.756  0.1175 -0.1994  0.1200
  955TIP3    H1 2829   0.076   3.602   3.772  0.2345 -0.1492  0.3711
  955TIP3    H2 2830  -0.007   3.724   3.807  0.0293 -0.1724 -0.0249
  956TIP3   OH2 2831   0.098   0.439   4.918 -0.1260 -0.0820  0.2073
  956TIP3    H1 2832   0.113   0.534   4.913 -1.2448  0.0582 -0.7909
  956TIP3    H2 2833   0.148   0.403   4.845  1.5755 -0.4475  1.5235
  957TIP3   OH2 2834   0.841   4.301   0.947 -0.4416  0.0747  0.6632
  957TIP3    H1 2835   0.753   4.283   0.915 -0.4475 -0.0598  0.7509
  957TIP3    H2 2836   0.883   4.215   0.949 -0.4485  0.0783  1.0312
  958TIP3   OH2 2837   4.964   6.946   5.865  0.9335  0.1655 -1.0152
  958TIP3    H1 2838   4.874   6.969   5.886  1.2395  0.7159 -0.2844
  958TIP3    H2 2839   4.978   6.980   5.777  0.5534  0.4486 -0.9655
  959TIP3   OH2 2840   1.766   2.519   3.127  0.5807 -0.2024 -0.2643
  959TIP3    H1 2841   1.693   2.554   3.179  0.7788 -0.9773  0.5588
  959TIP3    H2 2842   1.745   2.542   3.037  0.2044  1.1323  0.1573
  960TIP3   OH2 2843   2.649   2.635   2.375 -0.2622  0.3531 -0.3055
  960TIP3    H1 2844   2.715   2.703   2.386 -1.4791  1.5910 -0.4436
  960TIP3    H2 2845   2.573   2.667   2.424 -0.9371 -0.7767 -0.5924
  961TIP3   OH2 2846   2.169   3.414   1.301  0.5600  0.1930  0.4100
  961TIP3    H1 2847   2.126   3.329   1.307 -0.0615  0.5462  0.9423
  961TIP3    H2 2848   2.212   3.426   1.385  0.1739  0.6582  0.5431
  962TIP3   OH2 2849   0.568   2.745   0.405 -0.2643 -0.1148  0.1509
  962TIP3    H1 2850   0.493   2.700   0.367 -0.4708  1.5369 -1.4946
  962TIP3    H2 2851   0.534   2.791   0.481 -0.2102 -2.0769  1.3793
  963TIP3   OH2 2852   4.975   6.469   5.570  0.3114  0.4550 -0.1466
  963TIP3    H1 2853   4.897   6.462   5.624  2.3404  0.2067  2.8794
  963TIP3    H2 2854   4.977   6.560   5.543 -1.5620  0.2230 -1.1211
  964TIP3   OH2 2855   1.386   4.621   0.380 -0.2214 -0.2747  0.0093
  964TIP3    H1 2856   1.330   4.650   0.451 -1.0862  0.0292 -0.7954
  964TIP3    H2 2857   1.331   4.625   0.302  0.7644 -0.4564 -0.7077
  965TIP3   OH2 2858   2.886   5.563   0.587  0.0934 -0.8834  0.3725
  965TIP3    H1 2859   2.869   5.519   0.504 -0.7805 -0.3244  0.2466
  965TIP3    H2 2860   2.883   5.656   0.566 -2.2618 -0.7043  1.4313
  966TIP3   OH2 2861   1.841   2.682   1.815  0.0535 -0.0682  0.1183
  966TIP3    H1 2862   1.763   2.732   1.840 -0.0866 -1.5435  2.8132
  966TIP3    H2 2863   1.806   2.602   1.775  0.2021 -0.0182 -0.1118
  967TIP3   OH2 2864   1.712   2.632   2.513  0.1090  0.3063 -0.4631
  967TIP3    H1 2865   1.713   2.566   2.582 -0.1523  0.4113 -0.3587
  967TIP3    H2 2866   1.626   2.674   2.521  0.9674  1.9302  0.6611
  968TIP3   OH2 2867   1.225   0.960   1.171 -0.2488 -0.6713 -0.4431
  968TIP3    H1 2868   1.156   0.951   1.236 -1.1739 -0.8949 -1.4351
  968TIP3    H2 2869   1.305   0.971   1.222 -1.2773  1.8182  0.7236
  969TIP3   OH2 2870   5.760   6.461   5.482  0.0717  0.3794 -0.3446
  969TIP3    H1 2871   5.832   6.410   5.445 -0.0951  0.8340 -1.3220
  969TIP3    H2 2872   5.739   6.417   5.564 -0.2570 -1.2813 -1.3012
  970TIP3   OH2 2873   3.393   1.383   1.458 -0.4190  0.1958 -0.0017
  970TIP3    H1 2874   3.348   1.346   1.533  0.6311 -1.3017 -0.0894
  970TIP3    H2 2875   3.359   1.472   1.451 -0.6269  0.3094  2.1597
  971TIP3   OH2 2876   0.587   6.387   5.975 -0.6842 -0.0351  0.2317
  971TIP3    H1 2877   0.661   6.444   5.997  0.1852 -1.1587  0.3136
  971TIP3    H2 2878   0.552   6.360   6.060 -1.7706  1.2153  0.1911
  972TIP3   OH2 2879   3.958   3.591   1.679 -0.4398  0.1409  0.5113
  972TIP3    H1 2880   4.035   3.640   1.706 -0.8815  0.8992  0.4342
  972TIP3    H2 2881   3.992   3.518   1.628  0.1892  0.9294 -0.2143
  973TIP3   OH2 2882   4.230   3.814   1.284  0.4314  0.0912 -0.1699
  973TIP3    H1 2883   4.144   3.854   1.270 -1.0648 -1.8623  2.8250
  973TIP3    H2 2884   4.284   3.885   1.321 -0.5282  0.7842 -0.0769
  974TIP3   OH2 2885   2.990   3.819   1.025 -0.9751  0.1089  0.0700
  974TIP3    H1 2886   2.979   3.902   1.072 -2.1005  0.8861 -1.5331
  974TIP3    H2 2887   3.078   3.790   1.049 -0.0167  2.4664 -0.3939
  975TIP3   OH2 2888   2.885   3.133   0.602 -0.1699  0.8045 -0.1803
  975TIP3    H1 2889   2.920   3.219   0.628 -0.7267  0.8861  0.3117
  975TIP3    H2 2890   2.794   3.150   0.578 -0.7443  0.1161  1.4019
  976TIP3   OH2 2891   5.293   4.356   1.825  0.2121 -0.0494 -0.4930
  976TIP3    H1 2892   5.228   4.424   1.805  1.1302  0.8356 -0.4783
  976TIP3    H2 2893   5.281   4.340   1.919  0.8077  0.9672 -0.2309
  977TIP3   OH2 2894   4.094   6.629   0.633 -0.2115 -0.4583 -0.5664
  977TIP3    H1 2895   4.004   6.597   0.634  0.7696 -3.3721 -0.8863
  977TIP3    H2 2896   4.121   6.621   0.541 -0.2207  2.2272 -0.8312
  978TIP3   OH2 2897   5.328   6.883   4.505 -0.0252 -0.0356  0.1098
  978TIP3    H1 2898   5.247   6.852   4.546  1.4207 -2.8432  1.0041
  978TIP3    H2 2899   5.312   6.871   4.411 -1.2848  1.0894  0.1720
  979TIP3   OH2 2900   3.612   4.383   0.980 -0.2348  0.2052  0.2634
  979TIP3    H1 2901   3.600   4.305   1.034 -0.3261  0.6776  0.9229
  979TIP3    H2 2902   3.576   4.359   0.895 -0.9714 -0.1981  0.6905
  980TIP3   OH2 2903   7.088   5.626   4.131 -0.1395  0.4680  0.5828
  980TIP3    H1 2904   7.102   5.561   4.062 -1.7703  0.2461  0.4456
  980TIP3    H2 2905   6.994   5.621   4.150  0.1370  1.1511  2.1999
  981TIP3   OH2 2906   4.480   5.404   0.169  0.3496 -0.0949  0.2682
  981TIP3    H1 2907   4.396   5.382   0.129  0.0082  0.0886  0.8650
  981TIP3    H2 2908   4.468   5.494   0.200  1.1442  0.3148 -0.6263
  982TIP3   OH2 2909   4.899   5.001   0.714 -0.0399  0.3060  0.0520
  982TIP3    H1 2910   4.983   5.027   0.751  2.2586 -1.4429 -3.5925
  982TIP3    H2 2911   4.869   5.079   0.666 -0.3678  0.8494  1.1374
  983TIP3   OH2 2912   4.468   1.894   0.893 -0.0808 -0.2936 -0.4596
  983TIP3    H1 2913   4.454   1.951   0.817 -0.6210  1.4988  0.9480
  983TIP3    H2 2914   4.562   1.873   0.889 -0.0052  0.1545 -1.3636
  984TIP3   OH2 2915   1.490   3.976   0.725  0.0860 -0.2575  0.0936
  984TIP3    H1 2916   1.442   3.977   0.807  1.0204  1.7075  0.6628
  984TIP3    H2 2917   1.504   3.883   0.706 -0.3728 -0.7371  2.0088
  985TIP3   OH2 2918   3.914   4.812   0.460 -0.4238 -0.1514  0.1891
  985TIP3    H1 2919   3.908   4.875   0.532  0.3298  0.4443 -0.2493
  985TIP3    H2 2920   3.912   4.726   0.502  1.0300  0.2022  1.0232
  986TIP3   OH2 2921   3.022   2.433   1.092  0.0728 -0.4752  0.9749
  986TIP3    H1 2922   3.062   2.494   1.030  0.0481  0.5216  1.9190
  986TIP3    H2 2923   2.980   2.367   1.037 -0.6588  0.8382 -0.0891
  987TIP3   OH2 2924   6.714   6.029   4.818  0.1059 -0.3976 -0.2549
  987TIP3    H1 2925   6.670   6.106   4.855 -0.9885 -0.4795 -1.3534
  987TIP3    H2 2926   6.682   5.956   4.870 -0.2484 -0.3282 -0.3748
  988TIP3   OH2 2927   1.202   1.149   5.478 -0.8284 -0.5567 -0.0770
  988TIP3    H1 2928   1.109   1.132   5.493 -1.5524  1.0144 -2.5558
  988TIP3    H2 2929   1.235   1.181   5.562 -2.4071 -1.5946  0.9473
  989TIP3   OH2 2930   0.051   5.879   5.413 -0.0437 -0.3184 -0.1146
  989TIP3    H1 2931  -0.036   5.854   5.443 -0.6563 -0.0393 -1.6201
  989TIP3    H2 2932   0.063   5.832   5.330  0.8051  0.4580 -0.4474
  990TIP3   OH2 2933   5.556   3.325   2.486 -0.0866 -0.1142 -0.3663
  990TIP3    H1 2934   5.566   3.328   2.391  1.7219  1.5124 -0.1462
  990TIP3    H2 2935   5.552   3.416   2.513  1.0869 -0.5219  1.2796
  991TIP3   OH2 2936   3.017   4.361   0.504  0.2678  0.0925  0.5292
  991TIP3    H1 2937   2.994   4.290   0.444 -0.1929  0.8807 -0.2527
  991TIP3    H2 2938   2.944   4.423   0.495 -1.4940 -1.2680  4.3763
  992TIP3   OH2 2939   6.877   6.342   3.834 -0.0228  0.1264 -0.3417
  992TIP3    H1 2940   6.913   6.379   3.753  0.0361  0.2033 -0.2816
  992TIP3    H2 2941   6.795   6.301   3.808 -1.0590  1.9604 -0.0903
  993TIP3   OH2 2942   3.034   3.631   1.997  0.2504 -0.0203  0.6497
  993TIP3    H1 2943   2.972   3.577   1.949  0.6853  2.5370 -3.0358
  993TIP3    H2 2944   2.982   3.704   2.031  0.7315  0.7613 -0.2372
  994TIP3   OH2 2945   1.514   4.432   5.839 -0.0748  0.5807 -0.5672
  994TIP3    H1 2946   1.495   4.525   5.821 -0.8057  0.1102 -2.3738
  994TIP3    H2 2947   1.427   4.392   5.849  0.2675  0.2767  1.2140
  995TIP3   OH2 2948   4.373   2.679   2.123 -0.0036 -0.2075  0.2113
  995TIP3    H1 2949   4.289   2.725   2.120 -0.3348 -0.7188  1.2248
  995TIP3    H2 2950   4.433   2.733   2.072 -0.4917  1.1286  1.0430
  996TIP3   OH2 2951   4.644   4.140   0.345 -0.1415 -0.2475  0.5319
  996TIP3    H1 2952   4.609   4.229   0.355 -2.1141 -0.9777  0.4050
  996TIP3    H2 2953   4.739   4.151   0.343 -0.3800  1.9100  0.0251
  997TIP3   OH2 2954   4.069   2.393   1.154  0.1548  0.4421  0.0215
  997TIP3    H1 2955   4.140   2.408   1.216  0.0447  0.2699  0.1909
  997TIP3    H2 2956   4.079   2.302   1.128 -1.1525 -0.1571  1.5172
  998TIP3   OH2 2957   2.759   3.735   0.656 -0.2520  0.6264  0.2886
  998TIP3    H1 2958   2.759   3.816   0.708  1.6121  0.8669 -0.0536
  998TIP3    H2 2959   2.802   3.671   0.713  2.2572  1.0148 -1.1026
  999TIP3   OH2 2960   6.601   1.815   5.992 -0.1344  0.2665 -0.1799
  999TIP3    H1 2961   6.673   1.804   6.054  1.4658  2.0234 -1.6359
  999TIP3    H2 2962   6.629   1.767   5.914  0.2526  2.3265 -1.3415
 1000TIP3   OH2 2963   3.807   5.274   2.266 -0.4525  0.5293 -0.1362
 1000TIP3    H1 2964   3.768   5.328   2.198 -1.1479 -0.3399 -0.4441
 1000TIP3    H2 2965   3.892   5.247   2.229 -0.8074  0.0976 -0.6500
 1001TIP3   OH2 2966   1.953   0.497   4.454  0.2227 -0.0956 -0.3532
 1001TIP3    H1 2967   1.941   0.585   4.489  2.6356  0.1961 -0.1925
 1001TIP3    H2 2968   1.903   0.441   4.513  0.1960  0.9561  0.6398
 1002TIP3   OH2 2969   3.339   3.329   1.525 -0.5933  0.2456  0.1871
 1002TIP3    H1 2970   3.383   3.385   1.461 -0.5253 -2.5705 -2.3125
 1002TIP3    H2 2971   3.262   3.380   1.552  0.5588  2.3814 -0.4802
 1003TIP3   OH2 2972   2.473   4.213   1.649 -0.1520  0.4397  0.5974
 1003TIP3    H1 2973   2.455   4.307   1.638  0.7594  0.3942 -1.4308
 1003TIP3    H2 2974   2.568   4.207   1.645 -0.2767 -0.7410 -0.6460
 1004TIP3   OH2 2975   1.401   0.588   5.586  0.4953 -0.4809  0.4033
 1004TIP3    H1 2976   1.379   0.599   5.678  3.5774  1.7306  0.9863
 1004TIP3    H2 2977   1.333   0.636   5.538 -0.3318 -0.4334  1.6171
 1005TIP3   OH2 2978   2.761   4.693   0.202  0.1191 -0.5109 -0.0789
 1005TIP3    H1 2979   2.781   4.735   0.118  1.2077  0.3376  0.5933
 1005TIP3    H2 2980   2.675   4.653   0.188  0.2743 -0.3727 -1.5956
 1006TIP3   OH2 2981   1.899   3.271   1.072  0.7992  0.1147 -0.3077
 1006TIP3    H1 2982   1.814   3.311   1.053 -0.3661 -1.2388  1.8453
 1006TIP3    H2 2983   1.879   3.177   1.079  2.6844 -0.3426 -0.8611
 1007TIP3   OH2 2984   5.438   5.984   3.872 -0.2802 -0.4719  0.2448
 1007TIP3    H1 2985   5.425   5.969   3.965 -0.0719  0.7396  0.4703
 1007TIP3    H2 2986   5.445   5.896   3.834 -1.3622 -0.9860  1.2198
 1008TIP3   OH2 2987   4.643   6.065   4.838 -0.1983  0.0737 -0.3481
 1008TIP3    H1 2988   4.630   6.156   4.810  0.6127 -0.4307 -2.5123
 1008TIP3    H2 2989   4.627   6.014   4.758 -1.8085 -1.7795  1.1231
 1009TIP3   OH2 2990   0.076   1.558   3.931 -0.0470 -0.3590 -0.7395
 1009TIP3    H1 2991   0.164   1.526   3.948 -1.1944 -3.9402 -1.1440
 1009TIP3    H2 2992   0.037   1.570   4.017 -0.3981 -2.5460 -0.5617
 1010TIP3   OH2 2993   2.763   4.506   0.667  0.1401  0.1250  0.5655
 1010TIP3    H1 2994   2.675   4.525   0.636  0.0644 -2.5429 -1.0203
 1010TIP3    H2 2995   2.754   4.494   0.761 -0.7489  2.1044  0.7663
 1011TIP3   OH2 2996   0.333   4.880   4.829 -0.3512 -0.2891  0.4493
 1011TIP3    H1 2997   0.337   4.889   4.924 -0.6570  0.2944  0.4069
 1011TIP3    H2 2998   0.315   4.969   4.797  0.5996 -0.3225 -0.1988
 1012TIP3   OH2 2999   2.487   4.172   0.009 -0.1519 -0.2045 -0.0373
 1012TIP3    H1 3000   2.489   4.192   0.103  2.0109 -1.2435  0.1623
 1012TIP3    H2 3001   2.572   4.201  -0.024 -0.2270 -1.4054 -1.3348
 1013TIP3   OH2 3002   0.874   4.871   1.142 -0.1244 -0.1470  0.0312
 1013TIP3    H1 3003   0.858   4.892   1.235 -0.2926 -0.0228 -0.0254
 1013TIP3    H2 3004   0.959   4.911   1.123 -1.7739  3.1275 -0.8912
 1014TIP3   OH2 3005   1.379   2.742   1.177 -0.0069 -0.1844 -0.1042
 1014TIP3    H1 3006   1.402   2.783   1.093  1.2532 -0.3758  0.1372
 1014TIP3    H2 3007   1.404   2.650   1.165  1.6969  0.1080  1.0304
 1015TIP3   OH2 3008   3.292   5.634   0.955  0.1831 -0.0098  0.0332
 1015TIP3    H1 3009   3.224   5.638   0.887 -0.3161  0.9674  0.5748
 1015TIP3    H2 3010   3.330   5.547   0.946  0.1429  0.1268 -1.5140
 1016TIP3   OH2 3011   3.220   5.275   1.185  0.3912 -0.3793  0.0061
 1016TIP3    H1 3012   3.177   5.275   1.099 -0.4053 -0.3414  0.3993
 1016TIP3    H2 3013   3.198   5.189   1.222 -0.7679  0.2858  0.9040
 1017TIP3   OH2 3014   4.074   4.147   0.271  0.4148  0.7030 -0.5464
 1017TIP3    H1 3015   4.068   4.230   0.318 -0.0563 -0.2893  1.1837
 1017TIP3    H2 3016   4.114   4.170   0.187  1.9214  2.4114  0.5973
 1018TIP3   OH2 3017   2.341   0.752   4.203  0.4144 -0.3677  0.0587
 1018TIP3    H1 3018   2.342   0.776   4.295  1.0258 -0.6663  0.1266
 1018TIP3    H2 3019   2.248   0.756   4.178  0.1222 -1.4264  0.9713
 1019TIP3   OH2 3020   2.878   4.670   0.441  0.4993  0.4923 -0.8851
 1019TIP3    H1 3021   2.832   4.678   0.357  0.3807 -1.8670 -1.1045
 1019TIP3    H2 3022   2.840   4.591   0.480  1.2669  1.0196  0.9464
 1020TIP3   OH2 3023   4.673   2.195   0.798  0.1244 -0.4162 -0.2872
 1020TIP3    H1 3024   4.625   2.276   0.815 -0.5696 -0.6957 -0.8720
 1020TIP3    H2 3025   4.608   2.138   0.757  0.3369 -1.6332  1.0407
 1021TIP3   OH2 3026   1.891   3.144   2.261 -0.4608  0.3179 -0.1852
 1021TIP3    H1 3027   1.874   3.120   2.352  0.4961  1.7070  0.3835
 1021TIP3    H2 3028   1.861   3.235   2.255 -0.7128  0.1656 -1.3178
 1022TIP3   OH2 3029   3.549   2.221   1.525 -0.2318 -0.0999  0.5287
 1022TIP3    H1 3030   3.557   2.315   1.509 -1.2350 -0.4553 -2.3494
 1022TIP3    H2 3031   3.462   2.211   1.564 -0.2965  0.1018  0.4356
 1023TIP3   OH2 3032   4.371   1.642   0.979 -0.4892 -0.8187  0.4220
 1023TIP3    H1 3033   4.406   1.725   0.945 -2.2118 -0.8506 -1.6077
 1023TIP3    H2 3034   4.307   1.668   1.045 -0.9454 -0.5160 -0.1335
 1024TIP3   OH2 3035   2.914   3.896   1.469 -0.4031  0.1308 -0.0421
 1024TIP3    H1 3036   2.961   3.975   1.497 -1.2375  0.9168 -0.8200
 1024TIP3    H2 3037   2.927   3.834   1.541  0.6296  0.8201  0.3865
 1025TIP3   OH2 3038   0.406   0.535   5.185 -0.5669  0.1767 -0.7464
 1025TIP3    H1 3039   0.396   0.508   5.093 -0.1171 -0.8021 -0.5044
 1025TIP3    H2 3040   0.421   0.454   5.233 -2.1979  0.5301  0.4016
 1026TIP3   OH2 3041   3.028   2.025   5.287  0.5809  0.5205 -0.6158
 1026TIP3    H1 3042   3.097   2.040   5.352  1.4347  0.5297 -1.5025
 1026TIP3    H2 3043   2.956   1.986   5.336  1.1624  0.6577  0.3543
 1027TIP3   OH2 3044   6.310   3.872   1.281  0.1069  0.1802 -0.0858
 1027TIP3    H1 3045   6.217   3.855   1.268 -0.1611  0.6325  1.2090
 1027TIP3    H2 3046   6.329   3.947   1.224  0.0183 -0.8160 -1.4579
 1028TIP3   OH2 3047   2.420   0.603   3.195 -0.4154  0.1683  0.1585
 1028TIP3    H1 3048   2.393   0.596   3.103 -1.4710 -3.3619  0.6370
 1028TIP3    H2 3049   2.368   0.536   3.239  1.1528  0.8309  3.0928
 1029TIP3   OH2 3050   2.407   3.036   2.509 -0.0401  0.1747 -0.1771
 1029TIP3    H1 3051   2.499   3.065   2.504  0.5736 -1.5664  0.5255
 1029TIP3    H2 3052   2.358   3.115   2.529  1.2109  1.2912 -1.3985
 1030TIP3   OH2 3053   0.995   0.631   5.414 -0.3314 -0.4119 -0.3353
 1030TIP3    H1 3054   1.041   0.689   5.475 -1.8879  0.0749  0.3960
 1030TIP3    H2 3055   1.027   0.658   5.328 -1.3618  1.8601 -0.0435
 1031TIP3   OH2 3056   5.165   4.736   0.801  0.0156 -0.0910  0.2113
 1031TIP3    H1 3057   5.223   4.661   0.812 -0.1794 -0.1749  0.6569
 1031TIP3    H2 3058   5.217   4.799   0.750  0.5465 -0.1113  0.7331
 1032TIP3   OH2 3059   5.234   2.854   1.310  0.3311 -0.4320  0.2190
 1032TIP3    H1 3060   5.256   2.919   1.376  1.0663 -1.5423  1.0870
 1032TIP3    H2 3061   5.317   2.839   1.263 -0.4236  1.1459 -1.7015
 1033TIP3   OH2 3062   0.605   1.386   4.522 -0.2509  0.0541  0.0565
 1033TIP3    H1 3063   0.524   1.431   4.546  0.3029  0.9704  0.2005
 1033TIP3    H2 3064   0.637   1.432   4.445 -1.1998 -1.9096 -1.5460
 1034TIP3   OH2 3065   6.445   6.434   5.831 -0.3894 -0.3412  0.1426
 1034TIP3    H1 3066   6.405   6.357   5.791 -0.2244 -0.3209 -0.0625
 1034TIP3    H2 3067   6.391   6.507   5.800 -0.4972 -0.3669  0.2713
 1035TIP3   OH2 3068   6.767   5.272   4.871 -0.8499  0.4040 -0.2067
 1035TIP3    H1 3069   6.772   5.367   4.859 -1.5142  0.4033 -0.5250
 1035TIP3    H2 3070   6.745   5.260   4.963  1.0677  0.5016  0.2952
 1036TIP3   OH2 3071   5.207   5.555   2.649  0.2083 -0.5255 -0.4644
 1036TIP3    H1 3072   5.170   5.562   2.561  1.2265 -1.0476 -0.9453
 1036TIP3    H2 3073   5.219   5.646   2.677  2.9490 -0.2789 -2.2140
 1037TIP3   OH2 3074   2.896   0.229   5.625  0.1688 -0.0170  0.2919
 1037TIP3    H1 3075   2.961   0.244   5.694 -0.8796 -0.6883  1.4380
 1037TIP3    H2 3076   2.898   0.134   5.612 -0.1491  0.0314 -0.0978
 1038TIP3   OH2 3077   0.037   1.722   3.697  0.2658 -0.9120  0.0640
 1038TIP3    H1 3078   0.124   1.744   3.663  0.5947 -2.0043  0.1976
 1038TIP3    H2 3079   0.055   1.675   3.778 -0.4639 -0.9674  0.1903
 1039TIP3   OH2 3080   1.494   4.020   3.040 -0.4990  0.3362  0.3257
 1039TIP3    H1 3081   1.469   3.997   3.129 -1.0471  1.7298  0.5455
 1039TIP3    H2 3082   1.469   3.944   2.987 -0.3715 -0.4005  1.3218
 1040TIP3   OH2 3083   2.639   3.937   2.087 -0.1724  0.2357  0.1667
 1040TIP3    H1 3084   2.594   3.854   2.098  2.1342 -1.2286 -1.0674
 1040TIP3    H2 3085   2.615   3.966   1.998  0.2918  0.0661 -0.0191
 1041TIP3   OH2 3086   6.730   3.649   0.100 -0.5085 -0.6437  0.4733
 1041TIP3    H1 3087   6.756   3.740   0.093  1.6707 -1.1690  1.2373
 1041TIP3    H2 3088   6.675   3.646   0.178  0.1780 -0.1344  0.9842
 1042TIP3   OH2 3089   4.686   4.994   1.852  0.2562  0.4269 -1.2566
 1042TIP3    H1 3090   4.607   4.946   1.828 -0.4542  1.5497 -1.2213
 1042TIP3    H2 3091   4.656   5.060   1.915  1.7041 -0.9588  0.9348
 1043TIP3   OH2 3092   3.135   2.667   0.621 -0.2227 -0.0582 -0.0962
 1043TIP3    H1 3093   3.194   2.627   0.685  0.6729 -0.8580 -1.4017
 1043TIP3    H2 3094   3.047   2.643   0.649  0.2405 -1.6733 -0.0287
 1044TIP3   OH2 3095   4.898   4.259   0.963  0.5869 -0.0637  0.4667
 1044TIP3    H1 3096   4.822   4.316   0.952 -0.3396 -1.0028  1.8674
 1044TIP3    H2 3097   4.921   4.232   0.874  0.6679  1.9804 -0.1536
 1045TIP3   OH2 3098   2.868   5.400   0.362  0.1888 -0.0759  0.0518
 1045TIP3    H1 3099   2.870   5.309   0.393 -1.5375 -0.2940 -0.4621
 1045TIP3    H2 3100   2.919   5.398   0.281 -1.0039 -0.8695 -0.6848
 1046TIP3   OH2 3101   0.953   1.368   4.249 -0.6096  0.6904  0.0577
 1046TIP3    H1 3102   0.949   1.434   4.318 -0.8586 -0.0337  0.7521
 1046TIP3    H2 3103   0.978   1.287   4.295 -1.5458  0.0288 -0.5706
 1047TIP3   OH2 3104   3.570   5.073   2.650  0.2875 -0.1530 -0.2643
 1047TIP3    H1 3105   3.560   5.042   2.740  1.5485  0.6428  0.1745
 1047TIP3    H2 3106   3.662   5.100   2.645  0.1813 -0.0613 -1.7508
 1048TIP3   OH2 3107   3.327   4.463   0.128  0.0041  0.2727  0.1711
 1048TIP3    H1 3108   3.339   4.484   0.220 -0.2613  0.9060  0.0643
 1048TIP3    H2 3109   3.267   4.389   0.128 -2.7128  2.3793  0.4089
 1049TIP3   OH2 3110   7.033   6.080   5.850  0.0260  0.3381 -0.0691
 1049TIP3    H1 3111   7.088   6.015   5.892 -0.1175 -0.4928 -1.1421
 1049TIP3    H2 3112   6.943   6.052   5.868 -0.0928 -1.9331 -3.6686
 1050TIP3   OH2 3113   5.010   4.912   5.983 -0.4945 -0.0826 -0.7283
 1050TIP3    H1 3114   5.015   4.867   6.067  2.5208  0.4750 -0.5391
 1050TIP3    H2 3115   4.977   4.846   5.922 -2.8556 -0.4393  0.8968
 1051TIP3   OH2 3116   3.709   3.215   0.200 -0.1841 -0.4545 -0.6131
 1051TIP3    H1 3117   3.801   3.241   0.201  0.2463 -1.9360 -0.2926
 1051TIP3    H2 3118   3.682   3.224   0.109  0.5110 -0.7649 -0.8551
 1052TIP3   OH2 3119   2.666   2.039   1.153 -0.5058 -0.1957 -0.9868
 1052TIP3    H1 3120   2.727   2.088   1.208 -0.1881  1.2215 -2.5531
 1052TIP3    H2 3121   2.680   1.947   1.177 -0.9407  0.4534  1.8300
 1053TIP3   OH2 3122   6.340   5.085   0.507  0.0368  0.6492  0.0764
 1053TIP3    H1 3123   6.287   5.094   0.428 -0.8662  2.7204  0.8917
 1053TIP3    H2 3124   6.306   5.006   0.549 -2.8383  2.1933  0.8467
 1054TIP3   OH2 3125   5.005   5.777   5.918 -0.2197 -0.0383  0.0811
 1054TIP3    H1 3126   4.948   5.820   5.981 -1.0400  1.6765 -1.7848
 1054TIP3    H2 3127   5.066   5.726   5.972 -1.7585  0.2715  2.1893
 1055TIP3   OH2 3128   1.992   0.895   5.293  0.1355  0.2579  0.2745
 1055TIP3    H1 3129   2.029   0.978   5.265 -0.7738  0.4103 -0.4742
 1055TIP3    H2 3130   2.020   0.887   5.385  1.3359  0.7450 -0.0353
 1056TIP3   OH2 3131   3.054   2.163   1.925  0.3841  0.6596 -0.1829
 1056TIP3    H1 3132   2.999   2.219   1.979 -0.2236  0.3805 -0.5043
 1056TIP3    H2 3133   3.099   2.224   1.865  0.1597  0.8576 -0.1518
 1057TIP3   OH2 3134   2.018   3.940   1.683 -0.6786 -0.1439  0.5120
 1057TIP3    H1 3135   1.942   3.992   1.708 -2.1384 -1.6202 -0.6933
 1057TIP3    H2 3136   1.982   3.853   1.665  1.6575 -1.5173  2.2620
 1058TIP3   OH2 3137   2.415   4.318   1.061 -0.1903  0.1906 -0.0370
 1058TIP3    H1 3138   2.331   4.300   1.019 -0.8312  2.7491  0.0531
 1058TIP3    H2 3139   2.396   4.389   1.123  1.1862 -1.9545  3.0105
 1059TIP3   OH2 3140   6.421   5.951   4.995  0.7366  0.1601 -0.1428
 1059TIP3    H1 3141   6.454   6.039   4.979  0.2634  0.6333  1.4219
 1059TIP3    H2 3142   6.369   5.959   5.076  0.1628 -1.4078 -0.3447
 1060TIP3   OH2 3143   3.348   3.910   1.270  0.3709 -0.4093  0.1720
 1060TIP3    H1 3144   3.406   3.954   1.208  0.4538  0.5340  0.9180
 1060TIP3    H2 3145   3.405   3.884   1.342  0.5949 -3.0002 -0.8855
 1061TIP3   OH2 3146   3.709   6.482   0.721  0.6109 -0.2592 -0.2684
 1061TIP3    H1 3147   3.636   6.543   0.712  2.2253  1.5113 -1.5671
 1061TIP3    H2 3148   3.675   6.399   0.685  0.0940  1.2696 -3.5362
 1062TIP3   OH2 3149   3.756   4.123   1.161  0.1613  0.0555  0.1983
 1062TIP3    H1 3150   3.810   4.167   1.227  1.0459  0.0299 -0.5046
 1062TIP3    H2 3151   3.666   4.151   1.181  0.6764  1.9347 -0.0515
 1063TIP3   OH2 3152   2.166   0.039   5.355  0.0647 -0.2579  0.1489
 1063TIP3    H1 3153   2.195   0.085   5.434 -1.2274  0.8383  0.0128
 1063TIP3    H2 3154   2.088  -0.009   5.383 -0.1756 -0.1673 -0.3725
 1064TIP3   OH2 3155   0.743   1.537   4.689  0.2095 -0.3087  0.0028
 1064TIP3    H1 3156   0.723   1.614   4.743  0.6173 -0.8761  0.9919
 1064TIP3    H2 3157   0.661   1.489   4.684  0.2861 -0.5076  0.5547
 1065TIP3   OH2 3158   2.235   3.999   1.841  0.1592  0.3691  0.2063
 1065TIP3    H1 3159   2.305   4.048   1.799  0.7677 -2.5432 -2.3284
 1065TIP3    H2 3160   2.167   3.991   1.774 -0.5402 -0.9680  1.0470
 1066TIP3   OH2 3161   2.862   2.220   2.131 -0.0533  0.1934  0.3488
 1066TIP3    H1 3162   2.769   2.209   2.109  0.1917 -0.7355 -0.2678
 1066TIP3    H2 3163   2.862   2.244   2.223 -0.9655  1.4028  0.0471
 1067TIP3   OH2 3164   7.088   0.208   4.764  0.1261  0.4777  0.3175
 1067TIP3    H1 3165   7.119   0.140   4.824  0.5346 -0.6794 -1.1748
 1067TIP3    H2 3166   6.993   0.198   4.764  0.2417 -0.7913 -0.6710
 1068TIP3   OH2 3167   0.321   5.260   5.771 -0.3537 -0.0307  0.1519
 1068TIP3    H1 3168   0.308   5.320   5.698 -2.5153 -1.3167 -0.5744
 1068TIP3    H2 3169   0.365   5.184   5.734  3.6812  1.5779  1.3453
 1069TIP3   OH2 3170   0.424   1.474   5.323  0.1426 -0.1495  0.0104
 1069TIP3    H1 3171   0.450   1.565   5.308 -0.1995  0.0764  0.7578
 1069TIP3    H2 3172   0.497   1.435   5.370  0.8006 -0.5930 -1.3619
 1070TIP3   OH2 3173   4.270   4.637   1.238  0.0987  0.3524  0.2939
 1070TIP3    H1 3174   4.342   4.695   1.263 -0.0588  0.3908  0.6656
 1070TIP3    H2 3175   4.237   4.675   1.156  0.3227  0.4930  0.2665
 1071TIP3   OH2 3176   0.143   0.647   5.283  0.0861 -0.0525  0.2840
 1071TIP3    H1 3177   0.205   0.699   5.231 -0.8677 -0.4271 -1.2658
 1071TIP3    H2 3178   0.063   0.646   5.231 -0.7849 -0.7762  1.5958
 1072TIP3   OH2 3179   7.368   3.787   2.093  0.3274  0.0326 -0.1099
 1072TIP3    H1 3180   7.463   3.784   2.098  0.4566  2.0309 -0.8104
 1072TIP3    H2 3181   7.341   3.698   2.070  2.0656 -0.3754 -0.5836
 1073TIP3   OH2 3182   2.583   0.063   5.874  0.8689  0.2362 -0.3928
 1073TIP3    H1 3183   2.655   0.110   5.918  1.0834  0.9206 -1.4659
 1073TIP3    H2 3184   2.562   0.117   5.798  1.0981 -1.4208 -1.6435
 1074TIP3   OH2 3185   5.411   3.877   2.979  0.0302 -0.2051 -0.1536
 1074TIP3    H1 3186   5.421   3.810   3.046 -1.6134 -1.1213 -0.8112
 1074TIP3    H2 3187   5.455   3.841   2.903  1.4626  0.6241  0.2642
 1075TIP3   OH2 3188   5.137   3.403   0.040 -0.8303  0.3044 -0.2921
 1075TIP3    H1 3189   5.094   3.433  -0.040 -1.5962  1.1068  0.4130
 1075TIP3    H2 3190   5.131   3.478   0.100 -0.7931 -0.5012  0.7216
 1076TIP3   OH2 3191   1.126   2.709   0.023 -0.3326 -0.0991 -0.1900
 1076TIP3    H1 3192   1.085   2.793   0.044 -0.4361 -0.0812 -0.4523
 1076TIP3    H2 3193   1.183   2.730  -0.051 -0.7978 -0.3760 -0.6322
 1077TIP3   OH2 3194   3.822   5.522   0.364  0.4715 -0.1236  0.0172
 1077TIP3    H1 3195   3.853   5.496   0.277 -0.7281  0.1423 -0.5018
 1077TIP3    H2 3196   3.776   5.604   0.349 -1.2341 -0.9635  0.6297
 1078TIP3   OH2 3197   0.797   1.749   4.188  0.4808  0.0692 -0.2675
 1078TIP3    H1 3198   0.856   1.754   4.113  1.4173  0.5139  0.4804
 1078TIP3    H2 3199   0.734   1.820   4.173 -0.4817 -1.0201 -1.5556
 1079TIP3   OH2 3200   1.184   0.048   4.923 -0.2097  0.3660  0.6841
 1079TIP3    H1 3201   1.173  -0.009   4.999 -0.3309 -0.0895  0.3222
 1079TIP3    H2 3202   1.104   0.037   4.873  1.2699 -1.8682 -1.2353
 1080TIP3   OH2 3203   2.422   6.644   1.662 -0.1611  0.2609  0.5250
 1080TIP3    H1 3204   2.469   6.719   1.626  0.6683  0.1688  1.3762
 1080TIP3    H2 3205   2.377   6.605   1.588  1.3497  0.1872 -0.3732
 1081TIP3   OH2 3206   2.693   4.880   0.908  0.6479 -0.1424  0.6940
 1081TIP3    H1 3207   2.708   4.970   0.878  0.3338 -0.1137  0.6187
 1081TIP3    H2 3208   2.668   4.889   1.000  2.9918 -0.3303  1.3788
 1082TIP3   OH2 3209   5.922   0.868   5.667  0.2739  0.0446 -0.4935
 1082TIP3    H1 3210   5.986   0.810   5.710 -3.0148 -2.0035  1.8757
 1082TIP3    H2 3211   5.923   0.948   5.719  0.0840 -0.4103  0.2049
 1083TIP3   OH2 3212   1.848   5.244   0.265  0.0372 -0.6511 -0.1596
 1083TIP3    H1 3213   1.855   5.309   0.195 -1.6436 -0.1015  0.1621
 1083TIP3    H2 3214   1.846   5.296   0.345  0.0812 -1.1894  0.1943
 1084TIP3   OH2 3215   2.378   3.467   0.942 -0.2639  0.1357 -0.4121
 1084TIP3    H1 3216   2.370   3.521   0.864 -1.2357 -2.0487 -1.8803
 1084TIP3    H2 3217   2.447   3.404   0.921 -1.4249 -1.2946 -0.0331
 1085TIP3   OH2 3218   2.512   3.680   2.463 -0.3918  0.0224  0.2218
 1085TIP3    H1 3219   2.594   3.631   2.462 -1.7361 -2.3517 -0.9199
 1085TIP3    H2 3220   2.502   3.710   2.553  0.1134 -2.5460  1.1819
 1086TIP3   OH2 3221   1.214   0.814   5.530  0.1848  0.4144  0.2936
 1086TIP3    H1 3222   1.153   0.831   5.602 -0.2605 -0.2602  0.0870
 1086TIP3    H2 3223   1.221   0.897   5.484 -1.2349  0.2930 -0.1668
 1087TIP3   OH2 3224   6.980   5.959   4.905  0.0517 -0.0260 -0.0931
 1087TIP3    H1 3225   6.895   6.003   4.898  0.3568  0.5417 -0.2603
 1087TIP3    H2 3226   7.021   5.998   4.982 -0.0683 -0.6904  0.3042
 1088TIP3   OH2 3227   2.634   5.679   2.631  0.3087 -0.1355 -0.5573
 1088TIP3    H1 3228   2.716   5.727   2.645 -0.0169  0.6913 -1.4188
 1088TIP3    H2 3229   2.568   5.730   2.678 -0.1297  0.5756 -1.8995
 1089TIP3   OH2 3230   2.441   3.517   1.229  0.6459 -0.1804  0.4026
 1089TIP3    H1 3231   2.499   3.588   1.203 -0.6902  0.0780 -2.0995
 1089TIP3    H2 3232   2.496   3.457   1.280  2.5601  1.0736 -0.1653
 1090TIP3   OH2 3233   3.277   2.295   0.930  0.1413 -0.3216  0.1550
 1090TIP3    H1 3234   3.371   2.307   0.942  0.0496 -0.4276  0.9996
 1090TIP3    H2 3235   3.244   2.276   1.017 -0.3770 -2.3266 -0.4592
 1091TIP3   OH2 3236   6.766   5.547   5.793  0.2452 -0.0086  0.0877
 1091TIP3    H1 3237   6.732   5.487   5.728  1.2663  0.4768 -0.9025
 1091TIP3    H2 3238   6.858   5.558   5.771  0.4512  0.6808  1.2140
 1092TIP3   OH2 3239   3.611   0.915   2.205  0.4944 -0.0485 -0.3297
 1092TIP3    H1 3240   3.652   0.830   2.221 -1.3426 -0.8312  0.3994
 1092TIP3    H2 3241   3.611   0.924   2.110 -2.0716 -2.3444 -0.6131
 1093TIP3   OH2 3242   1.442   5.590   1.251 -0.3608  0.3473 -0.5348
 1093TIP3    H1 3243   1.505   5.615   1.319 -0.2914  0.4674 -0.6406
 1093TIP3    H2 3244   1.398   5.672   1.228 -1.0001  0.1473 -0.0165
 1094TIP3   OH2 3245   4.288   3.160   0.445  0.1872  0.0187  0.0070
 1094TIP3    H1 3246   4.280   3.245   0.489 -1.5463 -0.0840 -0.0805
 1094TIP3    H2 3247   4.286   3.097   0.517 -3.0674 -0.1729 -0.1834
 1095TIP3   OH2 3248   2.900   5.064   1.539  0.2122 -0.7786  0.1289
 1095TIP3    H1 3249   2.833   5.132   1.527  0.2310 -0.6894  0.5443
 1095TIP3    H2 3250   2.851   4.982   1.540  0.1652 -0.7564 -0.1157
 1096TIP3   OH2 3251   2.512   3.950   1.596  0.0456 -0.6504  0.0738
 1096TIP3    H1 3252   2.439   3.927   1.539 -0.3154  0.8869 -0.1037
 1096TIP3    H2 3253   2.507   4.045   1.605  0.0315 -0.8574  2.7619
 1097TIP3   OH2 3254   0.961   5.540   5.866  0.1511 -0.7681  0.3025
 1097TIP3    H1 3255   0.914   5.619   5.838  0.1587 -0.1099  2.1386
 1097TIP3    H2 3256   0.895   5.470   5.860 -0.0787 -0.4926 -0.5296
 1098TIP3   OH2 3257   2.790   3.196   0.242  0.4291  0.4612 -0.2835
 1098TIP3    H1 3258   2.779   3.171   0.150  0.3567 -0.6182  0.0110
 1098TIP3    H2 3259   2.873   3.243   0.244  1.8604 -1.9567 -0.4404
 1099TIP3   OH2 3260   3.605   3.034   0.751 -0.8742  0.4467  0.4433
 1099TIP3    H1 3261   3.674   3.000   0.694 -1.0390 -0.3986  0.7363
 1099TIP3    H2 3262   3.529   2.979   0.733 -0.9032  0.1175  1.5371
 1100TIP3   OH2 3263   6.237   2.629   2.805 -0.2666 -0.6281 -0.2642
 1100TIP3    H1 3264   6.231   2.573   2.882 -0.6833 -1.3615 -0.8297
 1100TIP3    H2 3265   6.250   2.717   2.841  1.2549 -1.1801  0.6069
 1101TIP3   OH2 3266   3.741   2.333   2.667 -0.3247  0.4885 -0.1017
 1101TIP3    H1 3267   3.657   2.323   2.712 -0.2027 -2.6500 -0.4259
 1101TIP3    H2 3268   3.807   2.322   2.735 -0.1774 -1.1088 -0.4664
 1102TIP3   OH2 3269   3.954   2.131   0.096  0.1342  0.1190 -0.4276
 1102TIP3    H1 3270   3.930   2.222   0.113  1.3296  0.4440 -0.4720
 1102TIP3    H2 3271   4.048   2.133   0.078  0.1915 -1.1349 -0.3368
 1103TIP3   OH2 3272   3.417   3.833   0.104  0.5704  1.1736  0.0757
 1103TIP3    H1 3273   3.391   3.862   0.017  0.6468  2.0014  0.3245
 1103TIP3    H2 3274   3.348   3.866   0.162  0.0585 -0.1251  0.2239
 1104TIP3   OH2 3275   1.421   6.557   1.181 -0.7040 -0.0567  0.0633
 1104TIP3    H1 3276   1.460   6.474   1.153 -0.9480 -0.2587  0.3152
 1104TIP3    H2 3277   1.483   6.624   1.151 -0.4381 -0.3384 -0.0209
 1105TIP3   OH2 3278   4.939   3.357   0.426 -0.2102 -0.2050  0.1130
 1105TIP3    H1 3279   4.866   3.349   0.487 -0.4288  0.1373 -0.0999
 1105TIP3    H2 3280   4.991   3.429   0.461  0.1550 -0.6104  0.3992
 1106TIP3   OH2 3281   4.364   2.064   0.248 -0.2423 -0.4578 -0.2046
 1106TIP3    H1 3282   4.423   2.139   0.256 -1.8591  0.7917  0.2764
 1106TIP3    H2 3283   4.372   2.018   0.331  0.5039 -0.6528 -0.3758
 1107TIP3   OH2 3284   0.858   0.804   3.100  0.2531 -0.3633 -0.1300
 1107TIP3    H1 3285   0.837   0.749   3.025 -1.5443 -0.2234  0.2357
 1107TIP3    H2 3286   0.941   0.770   3.133 -0.3124 -2.1856 -0.5467
 1108TIP3   OH2 3287   2.499   0.939   5.764  0.0142  0.2466  0.6967
 1108TIP3    H1 3288   2.525   1.023   5.725  0.0187 -0.4923 -0.9521
 1108TIP3    H2 3289   2.528   0.873   5.700 -0.0945 -1.0033  1.9155
 1109TIP3   OH2 3290   2.580   6.075   1.869  0.0978  0.3743 -0.4924
 1109TIP3    H1 3291   2.671   6.047   1.867  0.3048  1.1005 -2.7679
 1109TIP3    H2 3292   2.530   5.995   1.855  0.4873  0.2933 -1.5037
 1110TIP3   OH2 3293   2.843   2.210   1.684 -0.3568 -0.1701 -0.2796
 1110TIP3    H1 3294   2.840   2.291   1.734  0.6068 -0.1666 -0.2250
 1110TIP3    H2 3295   2.881   2.235   1.600  1.8952 -0.9207  0.4644
 1111TIP3   OH2 3296   5.535   2.951   1.953 -0.0578 -0.6972  0.6289
 1111TIP3    H1 3297   5.552   2.897   2.031  0.5181 -1.4739 -0.0263
 1111TIP3    H2 3298   5.443   2.978   1.963  0.8462  1.7140  3.0894
 1112TIP3   OH2 3299   6.932   6.609   5.765 -0.0329 -0.5159  0.1495
 1112TIP3    H1 3300   6.976   6.676   5.713 -0.1199 -0.6231 -0.0642
 1112TIP3    H2 3301   6.998   6.542   5.778 -0.4405 -1.1698 -1.0763
 1113TIP3   OH2 3302   2.647   2.981   0.275 -0.4727  0.4299  0.4950
 1113TIP3    H1 3303   2.696   3.063   0.276 -2.1828  1.4801  0.2906
 1113TIP3    H2 3304   2.583   2.992   0.205 -1.6988 -0.4659  1.4472
 1114TIP3   OH2 3305   5.599   5.029   3.834 -0.0906  0.1828  0.4351
 1114TIP3    H1 3306   5.616   4.938   3.810  0.1365  0.3774 -0.1597
 1114TIP3    H2 3307   5.606   5.031   3.929 -3.5861 -1.1504  0.7832
 1115TIP3   OH2 3308   0.414   0.062   5.929  0.3561  0.1454 -0.0756
 1115TIP3    H1 3309   0.424   0.082   5.836  1.0699  0.3179  0.0290
 1115TIP3    H2 3310   0.473  -0.012   5.944  1.5953  1.2441  0.6006
 1116TIP3   OH2 3311   1.670   1.685   5.832 -0.8723 -0.7267  0.8495
 1116TIP3    H1 3312   1.575   1.683   5.841 -1.0486  1.0055 -0.3568
 1116TIP3    H2 3313   1.692   1.605   5.785 -1.8237 -0.8087  0.5395
 1117TIP3   OH2 3314   4.197   3.220   2.348 -0.4088 -0.1171  0.0502
 1117TIP3    H1 3315   4.290   3.202   2.363 -0.3673  0.6437  0.6943
 1117TIP3    H2 3316   4.157   3.133   2.340  0.0385 -0.5019  1.7268
 1118TIP3   OH2 3317   6.371   6.769   3.465  0.0992 -0.0005  0.0017
 1118TIP3    H1 3318   6.412   6.741   3.546  1.4711  0.1342 -0.6307
 1118TIP3    H2 3319   6.343   6.687   3.423  0.2066 -0.1323  0.1851
 1119TIP3   OH2 3320   4.058   4.521   1.021  0.3446 -0.0690 -0.2248
 1119TIP3    H1 3321   4.055   4.579   1.097 -0.3036  0.1428 -0.4059
 1119TIP3    H2 3322   3.993   4.453   1.041  0.3488 -0.1476 -0.4793
 1120TIP3   OH2 3323   4.173   2.119   0.805  0.0171 -0.1815 -0.3936
 1120TIP3    H1 3324   4.247   2.132   0.746 -0.5406 -2.4731 -1.6925
 1120TIP3    H2 3325   4.122   2.048   0.764 -3.3844  1.9280 -0.0127
 1121TIP3   OH2 3326   4.154   4.527   2.224 -0.5321  0.2415  0.2611
 1121TIP3    H1 3327   4.181   4.536   2.132 -1.2226 -0.9395 -0.0645
 1121TIP3    H2 3328   4.065   4.562   2.226  0.3740  2.6232  1.0105
 1122TIP3   OH2 3329   0.177   6.285   4.990 -0.4951  0.7682  0.2271
 1122TIP3    H1 3330   0.254   6.262   4.938 -1.5761 -0.0619 -1.0276
 1122TIP3    H2 3331   0.126   6.343   4.934  0.2178  3.0094  1.8454
 1123TIP3   OH2 3332   3.731   2.626   1.381 -0.1132 -0.1446  0.3913
 1123TIP3    H1 3333   3.798   2.685   1.414  0.3428 -1.0080  1.0429
 1123TIP3    H2 3334   3.653   2.644   1.434 -0.0828  0.1095  0.3500
 1124TIP3   OH2 3335   3.215   5.129   0.231  0.3410 -0.0807  0.1449
 1124TIP3    H1 3336   3.222   5.070   0.306  0.8004 -0.8988 -0.5401
 1124TIP3    H2 3337   3.263   5.207   0.257  0.2082 -0.2261  0.8360
 1125TIP3   OH2 3338   0.192   6.652   3.767  0.5576 -0.2551 -0.3448
 1125TIP3    H1 3339   0.236   6.732   3.741  0.6395  0.9144  3.1063
 1125TIP3    H2 3340   0.099   6.668   3.748  0.7442  0.0892 -0.9639
 1126TIP3   OH2 3341   3.840   4.410   0.771 -0.3194 -0.3858  0.0610
 1126TIP3    H1 3342   3.867   4.360   0.847 -1.1293 -0.6892  0.1505
 1126TIP3    H2 3343   3.744   4.411   0.775 -0.3317  0.6137 -0.2893
 1127TIP3   OH2 3344   1.455   6.911   1.310 -0.3005  0.1551  0.0663
 1127TIP3    H1 3345   1.409   6.936   1.230 -1.6138 -1.0264  0.4361
 1127TIP3    H2 3346   1.548   6.922   1.288 -0.6211 -0.7128 -1.8257
 1128TIP3   OH2 3347   5.272   6.339   1.838  0.2142  0.2289  0.1211
 1128TIP3    H1 3348   5.205   6.281   1.874  0.2430 -1.1674 -1.9307
 1128TIP3    H2 3349   5.226   6.421   1.819 -0.7935 -0.5129 -0.7143
 1129TIP3   OH2 3350   1.306   4.111   2.340  0.2132  0.7350  0.5320
 1129TIP3    H1 3351   1.308   4.054   2.416  2.2267  2.4003  1.7641
 1129TIP3    H2 3352   1.372   4.076   2.281 -2.1434 -1.2453 -1.0116
 1130TIP3   OH2 3353   7.324   0.546   4.522  0.2730  0.2510  0.1011
 1130TIP3    H1 3354   7.277   0.513   4.599  1.9649 -2.1482  0.1407
 1130TIP3    H2 3355   7.339   0.469   4.468  2.6059  1.2786 -0.7618
 1131TIP3   OH2 3356   6.946   5.719   5.158  0.1486 -0.2659 -0.3969
 1131TIP3    H1 3357   6.981   5.808   5.166 -0.0221 -0.2642  0.4032
 1131TIP3    H2 3358   6.940   5.688   5.248 -2.9813  0.1733 -0.3797
 1132TIP3   OH2 3359   2.545   5.480   1.008 -0.4472  0.3013 -0.5620
 1132TIP3    H1 3360   2.602   5.538   1.058  0.8603 -0.4771 -1.1093
 1132TIP3    H2 3361   2.586   5.475   0.921 -0.2784 -1.7456 -0.4050
 1133TIP3   OH2 3362   2.300   5.225   1.872  0.1811  0.4617 -0.6522
 1133TIP3    H1 3363   2.298   5.178   1.789 -1.2677 -0.6136 -0.0238
 1133TIP3    H2 3364   2.366   5.293   1.859  0.4036 -0.0721 -2.4717
 1134TIP3   OH2 3365   1.080   0.946   5.742 -0.2547  0.3017 -0.1737
 1134TIP3    H1 3366   0.992   0.981   5.723 -0.0543  0.8042 -0.1994
 1134TIP3    H2 3367   1.132   1.024   5.764 -0.0370 -0.0795  0.6975
 1135TIP3   OH2 3368   1.463   5.182   1.595 -0.0160 -0.3051 -0.0790
 1135TIP3    H1 3369   1.536   5.189   1.534 -0.3478 -0.7283 -0.5295
 1135TIP3    H2 3370   1.481   5.104   1.646 -0.3167 -0.5901 -0.4082
 1136TIP3   OH2 3371   2.071   5.149   1.145 -0.3008  0.2540  0.0379
 1136TIP3    H1 3372   2.067   5.200   1.064 -0.3971 -1.1756 -0.8857
 1136TIP3    H2 3373   2.037   5.062   1.120  0.9137 -0.5981  1.2874
 1137TIP3   OH2 3374   2.730   4.143   1.342  0.1881 -0.0537 -0.4393
 1137TIP3    H1 3375   2.701   4.052   1.343  0.0767 -0.0404 -1.4822
 1137TIP3    H2 3376   2.739   4.167   1.434 -0.4261 -0.9144 -0.1509
 1138TIP3   OH2 3377   2.199   4.426   1.708 -0.1425 -0.0926 -0.0851
 1138TIP3    H1 3378   2.168   4.358   1.767 -0.6390  0.3915  0.2165
 1138TIP3    H2 3379   2.264   4.474   1.760 -1.6367  1.2535  0.5986
 1139TIP3   OH2 3380   4.609   3.424  -0.008  0.3181 -0.6725  0.4409
 1139TIP3    H1 3381   4.701   3.430   0.019  0.0384  1.1911  0.9929
 1139TIP3    H2 3382   4.559   3.437   0.073 -0.4591 -0.6474 -0.0385
 1140TIP3   OH2 3383   6.936   1.437   1.449  0.1621  0.0374  0.2197
 1140TIP3    H1 3384   6.853   1.408   1.488  0.8692 -0.9938  0.9835
 1140TIP3    H2 3385   6.982   1.355   1.429  0.9233  0.6070 -0.3591
 1141TIP3   OH2 3386   6.129   1.213   0.843 -0.5685 -0.9427  0.1023
 1141TIP3    H1 3387   6.161   1.184   0.758  3.4162 -0.2746  1.2513
 1141TIP3    H2 3388   6.124   1.132   0.895  1.5328 -0.7889  0.5759
 1142TIP3   OH2 3389   2.561   0.473   5.869 -0.0759  0.1153  0.4193
 1142TIP3    H1 3390   2.646   0.506   5.900  0.3179 -0.6296  0.1527
 1142TIP3    H2 3391   2.565   0.486   5.774  0.5878 -1.8025  0.1577
 1143TIP3   OH2 3392   2.721   6.893   5.961 -0.3041  0.6268  0.0659
 1143TIP3    H1 3393   2.640   6.861   5.920  0.7688 -0.0523 -1.5632
 1143TIP3    H2 3394   2.726   6.985   5.936 -1.1096  0.9492  1.0574
 1144TIP3   OH2 3395   6.169   6.754   5.968 -0.3515  0.0891 -0.2868
 1144TIP3    H1 3396   6.108   6.808   5.918 -1.4138 -0.9520 -0.1383
 1144TIP3    H2 3397   6.207   6.694   5.903 -2.4050 -1.8727  0.2610
 1145TIP3   OH2 3398   4.589   2.758   0.617 -0.1667 -0.2635  0.1158
 1145TIP3    H1 3399   4.571   2.808   0.697  0.1462 -1.2688  0.8403
 1145TIP3    H2 3400   4.529   2.794   0.552  0.2606  1.2343  0.5336
 1146TIP3   OH2 3401   3.179   0.997   5.481 -0.3921  0.1617 -0.8248
 1146TIP3    H1 3402   3.112   1.053   5.520 -0.5438  0.3303 -1.3336
 1146TIP3    H2 3403   3.131   0.942   5.419 -0.4984 -1.5822  0.7664
 1147TIP3   OH2 3404   5.127   3.809   1.334 -0.0007  0.2222  0.0709
 1147TIP3    H1 3405   5.150   3.871   1.403 -2.0073  1.5533 -0.4206
 1147TIP3    H2 3406   5.032   3.803   1.337 -0.0098 -0.9631 -1.5230
 1148TIP3   OH2 3407   1.825   0.013   5.889 -0.5649 -0.0205 -0.2539
 1148TIP3    H1 3408   1.905   0.060   5.864 -0.3080 -0.1125  0.3909
 1148TIP3    H2 3409   1.763   0.033   5.820  0.1195 -0.1996 -0.9333
 1149TIP3   OH2 3410   5.167   6.104   4.469  0.0380 -0.5473  0.0692
 1149TIP3    H1 3411   5.217   6.116   4.389 -1.2733 -1.5026 -0.9212
 1149TIP3    H2 3412   5.209   6.029   4.512 -0.4896 -1.3154 -0.7344
 1150TIP3   OH2 3413   4.050   3.347   1.533  0.0742 -0.2053 -0.3844
 1150TIP3    H1 3414   4.111   3.274   1.525 -1.7591 -1.8268  0.0099
 1150TIP3    H2 3415   3.966   3.305   1.552 -1.1881  1.9588 -1.0823
 1151TIP3   OH2 3416   2.713   3.908   1.102  0.5969  0.3791 -0.2353
 1151TIP3    H1 3417   2.779   3.977   1.112  0.6811  0.4341 -1.1298
 1151TIP3    H2 3418   2.697   3.904   1.008 -0.2558 -0.0321 -0.0762
 1152TIP3   OH2 3419   1.407   4.034   0.978  0.0529 -0.5019  0.2297
 1152TIP3    H1 3420   1.372   3.977   1.046 -0.6738 -1.1665 -0.6931
 1152TIP3    H2 3421   1.502   4.034   0.992 -0.2031  0.6031  2.2032
 1153TIP3   OH2 3422   4.596   1.954   2.269 -0.2982  0.1133  0.6007
 1153TIP3    H1 3423   4.638   2.040   2.269  1.7386 -0.8484  1.1998
 1153TIP3    H2 3424   4.580   1.934   2.177  1.1820  0.2302  0.3032
 1154TIP3   OH2 3425   4.686   3.298   1.239 -0.1245 -0.2801 -0.1236
 1154TIP3    H1 3426   4.719   3.286   1.328 -1.2847  2.5870  0.7744
 1154TIP3    H2 3427   4.623   3.227   1.227 -1.0732  0.1634  1.9437
 1155TIP3   OH2 3428   2.336   4.868   1.147 -0.3537  0.2710 -0.2309
 1155TIP3    H1 3429   2.267   4.894   1.209 -0.6097  0.1654 -0.4751
 1155TIP3    H2 3430   2.414   4.859   1.202 -0.2608  1.5440 -0.1283
 1156TIP3   OH2 3431   3.313   5.453   2.061  0.4185 -0.2300 -0.8410
 1156TIP3    H1 3432   3.376   5.382   2.046 -1.7748 -2.3512 -0.3992
 1156TIP3    H2 3433   3.261   5.455   1.980 -0.6054 -0.2932 -0.1937
 1157TIP3   OH2 3434   3.788   0.230   3.318  0.5318  0.2009 -0.4196
 1157TIP3    H1 3435   3.772   0.138   3.338  0.8099 -0.0025 -1.1199
 1157TIP3    H2 3436   3.883   0.236   3.306  0.4855  0.5221 -0.6386
 1158TIP3   OH2 3437   5.826   5.232   1.180  0.4600 -0.3846 -0.1768
 1158TIP3    H1 3438   5.835   5.232   1.085 -2.2948  0.4324 -0.4815
 1158TIP3    H2 3439   5.868   5.151   1.208  1.7076 -0.4250 -2.0153
 1159TIP3   OH2 3440   6.265   3.603   0.693  0.2932  0.6365  0.1437
 1159TIP3    H1 3441   6.194   3.615   0.630  0.2117  1.0478  0.3099
 1159TIP3    H2 3442   6.287   3.692   0.722  0.7820  0.5007  0.1967
 1160TIP3   OH2 3443   1.408   0.203   5.379 -0.2715  0.5722  0.2279
 1160TIP3    H1 3444   1.381   0.191   5.470 -0.6715  0.4880  0.0957
 1160TIP3    H2 3445   1.477   0.137   5.366 -1.9817 -1.1468 -0.2842
 1161TIP3   OH2 3446   4.594   5.527   0.802  0.3811  0.4588 -0.2303
 1161TIP3    H1 3447   4.654   5.564   0.738  0.3969  0.0890 -0.4352
 1161TIP3    H2 3448   4.507   5.538   0.763  0.1573  2.4880  0.8055
 1162TIP3   OH2 3449   6.314   2.780   0.284  0.0595 -0.1788 -0.4965
 1162TIP3    H1 3450   6.223   2.806   0.268  0.3477  1.0055 -0.2553
 1162TIP3    H2 3451   6.365   2.860   0.269  1.1532 -1.0586 -1.4648
 1163TIP3   OH2 3452   5.434   2.496   0.167 -0.2861 -0.3962  0.0192
 1163TIP3    H1 3453   5.415   2.570   0.225 -1.8002 -1.9820  1.6013
 1163TIP3    H2 3454   5.523   2.470   0.189 -0.6360 -0.5948  1.2209
 1164TIP3   OH2 3455   4.114   6.738   2.226  0.1037  0.9594 -0.3997
 1164TIP3    H1 3456   4.100   6.797   2.152 -0.5077  0.5106 -0.6527
 1164TIP3    H2 3457   4.163   6.664   2.190 -0.3642  0.6472 -0.4099
 1165TIP3   OH2 3458   5.616   3.173   2.173 -0.2245 -0.0085 -0.0385
 1165TIP3    H1 3459   5.627   3.196   2.081  1.9169 -0.1062  0.1766
 1165TIP3    H2 3460   5.640   3.252   2.222  0.5371 -0.5496  0.4841
 1166TIP3   OH2 3461   4.196   6.499   2.124  0.2717 -0.0516  0.3982
 1166TIP3    H1 3462   4.285   6.473   2.101  0.0148 -0.7130  0.1466
 1166TIP3    H2 3463   4.141   6.425   2.097 -0.5579  1.0977 -1.1473
 1167TIP3   OH2 3464   3.353   3.547   0.408 -0.3677  0.0041 -0.1394
 1167TIP3    H1 3465   3.387   3.635   0.419 -0.2010  0.2276 -2.3047
 1167TIP3    H2 3466   3.419   3.501   0.357 -0.8106 -1.1539  0.2995
 1168TIP3   OH2 3467   4.581   2.205   1.906  0.0402 -0.6242 -0.1768
 1168TIP3    H1 3468   4.519   2.202   1.834  0.2830 -1.5660 -0.3635
 1168TIP3    H2 3469   4.655   2.257   1.873 -1.0309  1.2770  0.3722
 1169TIP3   OH2 3470   0.427   2.362   0.884  0.3691  0.4015  0.1092
 1169TIP3    H1 3471   0.383   2.350   0.968 -0.8234  1.0947 -0.4028
 1169TIP3    H2 3472   0.363   2.408   0.829  1.7055  1.3676 -0.6762
 1170TIP3   OH2 3473   6.537   4.463   0.003 -0.4473 -0.2508 -0.2233
 1170TIP3    H1 3474   6.598   4.527  -0.033  0.7971 -0.4744  1.4420
 1170TIP3    H2 3475   6.588   4.414   0.067 -1.9431 -1.5389  0.0209
 1171TIP3   OH2 3476   1.513   1.171   5.379 -0.0247 -0.2820 -0.3292
 1171TIP3    H1 3477   1.566   1.152   5.456 -0.0414  0.7102 -0.0740
 1171TIP3    H2 3478   1.424   1.143   5.404  0.2539 -1.4269 -0.5640
 1172TIP3   OH2 3479   4.723   5.094   1.094  0.0334  0.0584  0.7825
 1172TIP3    H1 3480   4.708   5.002   1.074 -0.6574  0.0702  1.2181
 1172TIP3    H2 3481   4.789   5.123   1.031 -0.3527 -0.5219  0.1093
 1173TIP3   OH2 3482   6.792   2.343   1.047 -0.2229 -0.1991 -0.3780
 1173TIP3    H1 3483   6.702   2.364   1.070 -0.2925 -0.7846 -0.1215
 1173TIP3    H2 3484   6.799   2.249   1.059  0.9249  0.0822  1.3303
 1174TIP3   OH2 3485   5.531   3.436   2.206 -0.2851  0.0786 -0.0104
 1174TIP3    H1 3486   5.519   3.529   2.189 -2.4203 -0.4983 -1.7830
 1174TIP3    H2 3487   5.454   3.393   2.168  0.2090 -2.3378  1.5443
 1175TIP3   OH2 3488   2.966   0.664   4.767  0.3005 -0.5658  0.4438
 1175TIP3    H1 3489   2.877   0.693   4.751  2.0349  3.3377 -3.1729
 1175TIP3    H2 3490   2.982   0.684   4.860 -1.4818  1.9560  0.2524
 1176TIP3   OH2 3491   2.523   6.006   4.484  0.1096 -0.5656 -0.7541
 1176TIP3    H1 3492   2.512   6.096   4.513 -2.0343 -0.7351 -0.9440
 1176TIP3    H2 3493   2.572   5.964   4.553  2.2527  1.0479 -1.2467
 1177TIP3   OH2 3494   6.468   5.038   2.857  0.6133  0.1791 -0.3699
 1177TIP3    H1 3495   6.390   5.060   2.806  0.4272 -0.6328 -0.4428
 1177TIP3    H2 3496   6.456   5.083   2.940  0.7805  1.2830 -0.9255
 1178TIP3   OH2 3497   6.015   2.609   1.942  0.1613  1.1027 -0.5026
 1178TIP3    H1 3498   6.079   2.564   1.887 -0.1889  1.3711 -1.1265
 1178TIP3    H2 3499   6.031   2.575   2.030 -0.7663 -0.9789 -1.1295
 1179TIP3   OH2 3500   5.470   3.179   0.147  0.2047 -0.5170  0.0639
 1179TIP3    H1 3501   5.557   3.198   0.111 -0.1225  0.2339 -0.3443
 1179TIP3    H2 3502   5.420   3.143   0.074  0.5023 -1.9888  0.5799
 1180TIP3   OH2 3503   0.128   6.801   5.310  0.3765 -0.3240 -0.2302
 1180TIP3    H1 3504   0.086   6.722   5.275  0.1868 -0.5495  0.4847
 1180TIP3    H2 3505   0.087   6.813   5.396  0.5005  0.4817 -0.2835
 1181TIP3   OH2 3506   7.207   6.725   5.166 -0.5824  0.0250 -0.5346
 1181TIP3    H1 3507   7.122   6.713   5.208  0.8868  1.1282  2.9947
 1181TIP3    H2 3508   7.208   6.817   5.140 -0.3668  0.0992 -0.2699
 1182TIP3   OH2 3509   2.677   3.964   1.806  0.4422 -0.0793  0.0695
 1182TIP3    H1 3510   2.621   3.970   1.729 -1.0262 -0.4632  1.0896
 1182TIP3    H2 3511   2.706   3.873   1.808  3.4975  0.7602 -2.0728
 1183TIP3   OH2 3512   2.950   4.371   2.480 -0.2170 -0.1416  0.2768
 1183TIP3    H1 3513   2.895   4.357   2.557 -1.2201 -0.1057 -0.4206
 1183TIP3    H2 3514   2.933   4.295   2.425  0.0345  0.1293 -0.1743
 1184TIP3   OH2 3515   5.102   4.111   0.427  0.5784  0.0868 -0.3822
 1184TIP3    H1 3516   5.029   4.072   0.477  0.8204 -0.2101 -0.2619
 1184TIP3    H2 3517   5.059   4.158   0.356  0.2227  0.6210  0.1805
 1185TIP3   OH2 3518   3.463   3.522   0.661 -0.5682  0.2115 -0.4672
 1185TIP3    H1 3519   3.424   3.548   0.579  0.8897 -2.0141 -1.9381
 1185TIP3    H2 3520   3.394   3.476   0.708 -1.3259  1.2547 -0.5655
 1186TIP3   OH2 3521   5.769   5.885   4.944 -0.1537 -0.4628 -0.0241
 1186TIP3    H1 3522   5.707   5.874   4.872 -1.2870  0.4152  0.7939
 1186TIP3    H2 3523   5.820   5.803   4.944 -0.5953 -0.7533 -1.3709
 1187TIP3   OH2 3524   6.396   3.842   1.560 -0.5188  0.0792 -0.2019
 1187TIP3    H1 3525   6.382   3.924   1.514  0.3929 -0.0563 -0.7307
 1187TIP3    H2 3526   6.473   3.803   1.518 -0.5282 -0.7138  0.4938
 1188TIP3   OH2 3527   0.731   5.041   0.059  0.5190  0.6725 -0.4994
 1188TIP3    H1 3528   0.704   4.952   0.035 -0.1816 -0.1066  2.9836
 1188TIP3    H2 3529   0.823   5.033   0.084  0.4846  0.9410 -0.2777
 1189TIP3   OH2 3530   0.525   3.271   0.421  1.0558 -1.0996 -0.4726
 1189TIP3    H1 3531   0.497   3.229   0.503 -0.6527  1.6270  0.3859
 1189TIP3    H2 3532   0.548   3.198   0.364 -1.6789 -3.2244  1.0274
 1190TIP3   OH2 3533   5.656   4.427   2.031  0.1629  0.0529 -0.1261
 1190TIP3    H1 3534   5.730   4.488   2.029  2.0596 -2.1640 -0.3315
 1190TIP3    H2 3535   5.663   4.378   1.948  0.6561 -2.6304  1.4279
 1191TIP3   OH2 3536   7.328   2.283   0.036  0.1413 -0.1835 -0.2972
 1191TIP3    H1 3537   7.388   2.225  -0.010 -0.1429  0.4518 -1.4954
 1191TIP3    H2 3538   7.384   2.355   0.067 -0.1047  0.8885 -2.2223
 1192TIP3   OH2 3539   6.159   5.610   0.643 -0.2570  0.2806  0.3753
 1192TIP3    H1 3540   6.252   5.588   0.657  0.4861  1.0666 -3.0824
 1192TIP3    H2 3541   6.159   5.701   0.617 -1.8755 -0.1255 -1.1292
 1193TIP3   OH2 3542   3.417   2.184   5.677  0.2071 -0.1842  0.1146
 1193TIP3    H1 3543   3.388   2.255   5.735  0.9712 -0.9619  1.4660
 1193TIP3    H2 3544   3.345   2.122   5.677 -0.5645  0.7071 -1.2670
 1194TIP3   OH2 3545   4.195   2.073   2.156  0.9943  0.0014 -0.4410
 1194TIP3    H1 3546   4.151   2.088   2.072  0.1959 -0.1567 -0.0583
 1194TIP3    H2 3547   4.124   2.063   2.219  1.5881  0.0112  0.2400
 1195TIP3   OH2 3548   4.740   3.625   1.903  0.4025 -0.6072  0.3467
 1195TIP3    H1 3549   4.715   3.584   1.821 -0.6278 -0.4290  0.5664
 1195TIP3    H2 3550   4.763   3.715   1.879  0.0760 -0.5476  0.2573
 1196TIP3   OH2 3551   3.943   1.497   1.645 -0.1804 -0.6813 -0.4417
 1196TIP3    H1 3552   3.932   1.578   1.595 -0.6167  0.8925  2.1368
 1196TIP3    H2 3553   4.031   1.503   1.681  0.0716 -1.7422 -0.8693
 1197TIP3   OH2 3554   4.388   5.911   0.144  0.3641  0.0370 -0.2937
 1197TIP3    H1 3555   4.303   5.952   0.129 -0.5358 -1.5072  0.4399
 1197TIP3    H2 3556   4.443   5.942   0.072 -0.5653  1.7229 -0.2976
 1198TIP3   OH2 3557   5.651   3.832   3.816  0.5973 -0.4345 -0.0787
 1198TIP3    H1 3558   5.700   3.892   3.760  0.5898 -0.3022  0.0547
 1198TIP3    H2 3559   5.676   3.856   3.906  0.0730 -0.1735  0.0013
 1199TIP3   OH2 3560   5.412   3.658   2.098 -0.5452  0.0118 -0.2332
 1199TIP3    H1 3561   5.358   3.732   2.125 -1.7496 -0.4640 -1.3286
 1199TIP3    H2 3562   5.499   3.696   2.083 -0.7614  0.9115  0.7370
 1200TIP3   OH2 3563   0.379   6.895   5.241 -0.0686 -0.4038 -0.3444
 1200TIP3    H1 3564   0.385   6.968   5.303  1.0368 -0.1296 -0.7591
 1200TIP3    H2 3565   0.292   6.857   5.256 -0.4150  0.6244  0.2899
 1201TIP3   OH2 3566   5.698   3.193   0.840  0.4759  0.3018 -0.3907
 1201TIP3    H1 3567   5.737   3.226   0.921 -0.0849 -0.1485  0.0675
 1201TIP3    H2 3568   5.714   3.263   0.776  1.3354  0.4559 -0.0155
 1202TIP3   OH2 3569   5.769   3.847   1.189  0.2644  0.3448  0.2502
 1202TIP3    H1 3570   5.826   3.795   1.245  0.0422 -0.1153  0.0465
 1202TIP3    H2 3571   5.685   3.849   1.234  0.1884  0.2773  0.1132
 1203TIP3   OH2 3572   0.487   1.050   3.775  0.4129 -0.1397  0.4743
 1203TIP3    H1 3573   0.514   1.038   3.867 -1.9692  1.7820  1.4638
 1203TIP3    H2 3574   0.415   1.113   3.779 -0.9574 -1.4327 -2.5582
 1204TIP3   OH2 3575   6.680   3.656   1.572  0.1794 -0.3559  0.4478
 1204TIP3    H1 3576   6.666   3.681   1.480 -2.2838  0.7417  1.0858
 1204TIP3    H2 3577   6.749   3.714   1.602 -1.7475  2.0579  0.3750
 1205TIP3   OH2 3578   3.436   2.862   0.417  0.1664 -0.3381 -0.2520
 1205TIP3    H1 3579   3.502   2.929   0.398  0.7081 -0.7447  0.1510
 1205TIP3    H2 3580   3.407   2.881   0.506 -0.1835 -0.2254 -0.3899
 1206TIP3   OH2 3581   6.588   3.541   1.158 -0.1391 -0.2298 -0.5094
 1206TIP3    H1 3582   6.612   3.587   1.077  1.7111 -2.1882 -1.1078
 1206TIP3    H2 3583   6.506   3.496   1.136 -2.2226  2.9945  0.2151
 1207TIP3   OH2 3584   4.960   2.326   2.783  0.5309 -0.0522 -0.5707
 1207TIP3    H1 3585   4.929   2.412   2.811 -1.1424 -0.4433 -1.1431
 1207TIP3    H2 3586   5.045   2.344   2.742 -0.4379  1.5433 -1.9726
 1208TIP3   OH2 3587   3.952   3.515   0.841  0.0503 -0.4064  0.2997
 1208TIP3    H1 3588   3.862   3.533   0.813  0.3708  1.4656  0.4167
 1208TIP3    H2 3589   3.948   3.516   0.936 -0.0195 -1.4688  0.3104
 1209TIP3   OH2 3590   0.632   6.323   3.999  0.1588  0.0025  0.1695
 1209TIP3    H1 3591   0.595   6.360   4.079  0.9397  0.0556  0.5144
 1209TIP3    H2 3592   0.556   6.297   3.947 -0.3630 -0.7156  1.2528
 1210TIP3   OH2 3593   4.792   1.815   2.729  0.4543 -0.0768  0.8467
 1210TIP3    H1 3594   4.729   1.799   2.659  1.3317 -0.0797  0.0638
 1210TIP3    H2 3595   4.776   1.905   2.755  0.0199 -0.1264  0.7624
 1211TIP3   OH2 3596   3.577   1.965   5.036  0.4413 -0.0831  0.1032
 1211TIP3    H1 3597   3.619   1.885   5.067  0.9168 -0.7349 -2.1679
 1211TIP3    H2 3598   3.646   2.014   4.991 -0.7942 -0.3622 -2.1518
 1212TIP3   OH2 3599   6.774   6.410   4.514  0.4448  0.2070  0.2278
 1212TIP3    H1 3600   6.834   6.484   4.505  0.6014  0.0585  0.0242
 1212TIP3    H2 3601   6.818   6.338   4.470 -0.2788  0.3206 -0.6967
 1213TIP3   OH2 3602   0.510   5.502   0.351 -0.4385  0.9020 -0.3824
 1213TIP3    H1 3603   0.546   5.544   0.272 -0.5762  0.0678 -0.8953
 1213TIP3    H2 3604   0.564   5.424   0.362 -0.5513  0.9119  0.2432
 1214TIP3   OH2 3605   6.335   5.078   1.459  0.1377  0.3413 -0.8842
 1214TIP3    H1 3606   6.380   5.091   1.376  1.1648  1.6841 -0.1413
 1214TIP3    H2 3607   6.341   5.163   1.503 -3.6337  0.7772 -1.0059
 1215TIP3   OH2 3608   5.229   0.763   5.916 -0.0991 -0.9803  0.3163
 1215TIP3    H1 3609   5.154   0.764   5.977  0.5889 -1.4454  1.1764
 1215TIP3    H2 3610   5.196   0.808   5.838 -1.8427 -2.7181  0.0185
 1216TIP3   OH2 3611   3.705   0.820   5.839 -0.1642  0.1748  0.1234
 1216TIP3    H1 3612   3.753   0.889   5.885 -1.1917  0.8948  0.1241
 1216TIP3    H2 3613   3.625   0.862   5.808 -0.7529 -0.9856  0.0177
 1217TIP3   OH2 3614   4.277   6.014   1.902 -0.6525  0.2814  0.0103
 1217TIP3    H1 3615   4.233   5.934   1.929 -0.3610  0.4920  1.1261
 1217TIP3    H2 3616   4.207   6.072   1.874 -0.9737  0.1205  0.4733
 1218TIP3   OH2 3617   4.965  -0.004   5.280  0.2363 -0.3145  0.7370
 1218TIP3    H1 3618   5.017   0.075   5.297 -0.8084  0.4275  0.5088
 1218TIP3    H2 3619   5.030  -0.070   5.254  1.0764  0.5699  0.5569
 1219TIP3   OH2 3620   7.204   6.492   5.500 -0.2834  0.1645  0.1987
 1219TIP3    H1 3621   7.149   6.444   5.562 -1.5653  1.7665  0.3466
 1219TIP3    H2 3622   7.166   6.473   5.414  0.9543 -1.3444 -0.0402
 1220TIP3   OH2 3623   4.900   4.291   0.293  0.4669  0.0120 -0.4192
 1220TIP3    H1 3624   4.955   4.365   0.267 -0.2859  0.3536 -1.0704
 1220TIP3    H2 3625   4.814   4.311   0.256 -1.0953  1.2781  3.5772
 1221TIP3   OH2 3626   4.927   4.062   1.585 -0.2555 -0.0210 -0.2299
 1221TIP3    H1 3627   4.878   3.979   1.584  0.8646 -0.7245 -2.9202
 1221TIP3    H2 3628   4.861   4.129   1.602 -1.3948 -1.3546  0.6902
 1222TIP3   OH2 3629   4.694   5.922   2.722 -0.3070  0.2890 -0.0247
 1222TIP3    H1 3630   4.713   5.851   2.783  0.9203 -1.0348 -1.8975
 1222TIP3    H2 3631   4.602   5.943   2.739 -0.2091 -0.5662  1.7368
 1223TIP3   OH2 3632   5.491   1.254   0.583 -0.5344  0.0840 -0.0423
 1223TIP3    H1 3633   5.407   1.276   0.542  0.0090 -0.2252 -1.3456
 1223TIP3    H2 3634   5.544   1.219   0.512  1.3787  2.0882  0.3325
 1224TIP3   OH2 3635   5.064   4.318   1.607 -0.2352  0.7499 -0.4150
 1224TIP3    H1 3636   5.053   4.258   1.681  0.5234 -0.3473 -1.1770
 1224TIP3    H2 3637   4.984   4.305   1.555  0.4932 -0.5466 -1.2347
 1225TIP3   OH2 3638   7.268   6.046   0.286  0.2772 -0.4970 -0.2166
 1225TIP3    H1 3639   7.353   6.051   0.241 -0.3298  1.2226 -1.2102
 1225TIP3    H2 3640   7.286   6.078   0.374  0.2739  1.8900 -1.0349
 1226TIP3   OH2 3641   7.203   6.521   4.442 -0.1157 -0.1078 -0.5454
 1226TIP3    H1 3642   7.227   6.554   4.528 -0.6011 -2.4228  0.5054
 1226TIP3    H2 3643   7.252   6.576   4.381 -1.0075  2.6266  1.0987
 1227TIP3   OH2 3644   6.110   3.258   2.132  0.3337 -0.0020  0.6405
 1227TIP3    H1 3645   6.129   3.224   2.220 -0.7411 -0.5779  0.6557
 1227TIP3    H2 3646   6.027   3.304   2.141  0.0645 -0.3244 -0.1407
 1228TIP3   OH2 3647   4.684   3.658   0.989  0.4906  0.4784 -0.2029
 1228TIP3    H1 3648   4.722   3.713   0.921 -0.7331 -0.4584 -1.6512
 1228TIP3    H2 3649   4.592   3.650   0.966  0.5647 -1.8627  0.1796
 1229TIP3   OH2 3650   7.081   3.427   1.670 -0.3770 -0.2816 -0.0034
 1229TIP3    H1 3651   7.124   3.513   1.675 -0.4381 -0.2423 -0.1805
 1229TIP3    H2 3652   7.066   3.413   1.577  0.4666 -0.8981 -0.0529
 1230TIP3   OH2 3653   0.836   5.402   0.373  0.4109 -0.4144  0.1308
 1230TIP3    H1 3654   0.855   5.401   0.467  0.0527 -0.1544  0.2043
 1230TIP3    H2 3655   0.898   5.465   0.337 -0.8869  1.1224  0.4992
 1231TIP3   OH2 3656   7.004   2.517   1.147  0.1036 -0.1181 -0.0294
 1231TIP3    H1 3657   7.017   2.492   1.239  1.2602 -0.0558 -0.1662
 1231TIP3    H2 3658   6.916   2.487   1.126 -0.6129  0.9237  1.4569
 1232TIP3   OH2 3659   1.247   1.877   0.440  0.3175 -0.6570  0.1459
 1232TIP3    H1 3660   1.264   1.971   0.440  0.3372 -0.6609  0.0245
 1232TIP3    H2 3661   1.282   1.846   0.357 -0.6702 -0.5954 -0.2996
 1233TIP3   OH2 3662   0.874   5.926   0.699 -0.2740  0.2764  0.1341
 1233TIP3    H1 3663   0.885   6.019   0.681 -1.9289  0.1568 -1.5491
 1233TIP3    H2 3664   0.798   5.922   0.757  0.9011  0.0971  1.7015
 1234TIP3   OH2 3665   0.414   5.839   0.432  0.2279 -0.0528  0.1388
 1234TIP3    H1 3666   0.431   5.758   0.480 -1.8152 -0.0537  0.8931
 1234TIP3    H2 3667   0.402   5.905   0.501 -0.1067  0.4760 -0.4218
 1235TIP3   OH2 3668   0.980   5.940   2.540 -0.1282 -0.4330 -0.6469
 1235TIP3    H1 3669   0.966   5.929   2.446  1.9994 -3.1515 -0.6982
 1235TIP3    H2 3670   0.892   5.954   2.575 -1.0105  0.1314 -2.9732
 1236TIP3   OH2 3671   7.302   4.669   0.438  0.4968 -0.4282 -0.4079
 1236TIP3    H1 3672   7.234   4.664   0.506  1.6312  0.0675  0.7777
 1236TIP3    H2 3673   7.318   4.577   0.414 -1.0808 -0.5217 -1.2188
 1237TIP3   OH2 3674   0.929   5.395   0.006 -0.1632 -0.3565  0.4497
 1237TIP3    H1 3675   0.931   5.454   0.082  0.4951 -0.1638  0.2838
 1237TIP3    H2 3676   1.021   5.382  -0.016 -0.3759  0.3460 -0.8979
 1238TIP3   OH2 3677   6.149   4.713   3.533 -0.3858 -0.3357  0.3940
 1238TIP3    H1 3678   6.147   4.743   3.443  0.3033 -0.9243  0.1767
 1238TIP3    H2 3679   6.084   4.767   3.578  1.2530  1.8676  0.1440
 1239TIP3   OH2 3680   2.970   6.386   5.949 -0.2397 -0.8695 -0.1422
 1239TIP3    H1 3681   3.039   6.321   5.940  2.1348  1.1566  2.3474
 1239TIP3    H2 3682   2.978   6.441   5.870  1.1900 -0.5244  0.2198
 1240TIP3   OH2 3683   1.065   5.153   2.200  0.1914 -0.1130  0.3710
 1240TIP3    H1 3684   1.052   5.060   2.214 -0.5027  0.2135  2.0413
 1240TIP3    H2 3685   1.130   5.179   2.266 -0.1587  0.7214  0.3951
 1241TIP3   OH2 3686   6.977   5.555   2.165 -0.1485  0.0544 -0.6768
 1241TIP3    H1 3687   7.057   5.539   2.114  0.8870  0.5967  0.7451
 1241TIP3    H2 3688   7.000   5.529   2.254 -1.6036  0.1194 -0.2790
 1242TIP3   OH2 3689   5.053   4.145   3.853  0.0935 -0.3524 -0.2285
 1242TIP3    H1 3690   5.004   4.169   3.932 -0.3682 -1.6975 -0.0912
 1242TIP3    H2 3691   5.024   4.209   3.787 -1.5507 -0.8470 -0.0265
 1243TIP3   OH2 3692   0.220   5.637   1.509 -0.2047 -0.0872 -0.4082
 1243TIP3    H1 3693   0.176   5.715   1.476  1.1140  0.5180 -0.7887
 1243TIP3    H2 3694   0.224   5.578   1.435  1.2808  0.6117 -0.9053
 1244TIP3   OH2 3695   6.749   5.098   1.505  0.4470 -0.3250  1.0793
 1244TIP3    H1 3696   6.793   5.167   1.554  0.4355  0.8601 -0.5109
 1244TIP3    H2 3697   6.797   5.094   1.422 -0.0927 -1.6402  0.8216
 1245TIP3   OH2 3698   7.073   5.485   3.182  0.0412  0.2265  0.3792
 1245TIP3    H1 3699   7.081   5.464   3.089  2.0595 -2.2061  1.0494
 1245TIP3    H2 3700   7.130   5.561   3.194 -1.2962  1.4199 -0.5952
 1246TIP3   OH2 3701   6.165   3.705   1.681 -0.0411 -0.0737 -0.1864
 1246TIP3    H1 3702   6.166   3.695   1.776 -1.2876  0.5283 -0.1031
 1246TIP3    H2 3703   6.247   3.751   1.661  0.2109 -0.1821  0.5871
 1247TIP3   OH2 3704   7.282   4.486   1.490 -0.2973  0.1149  0.2478
 1247TIP3    H1 3705   7.302   4.427   1.564  1.1694  0.0207 -0.2087
 1247TIP3    H2 3706   7.235   4.431   1.428 -0.8596 -0.0087  0.7793
 1248TIP3   OH2 3707   0.968   5.489   2.287 -0.9563  1.0417 -0.8352
 1248TIP3    H1 3708   1.063   5.479   2.298 -1.3235 -1.4780  0.5183
 1248TIP3    H2 3709   0.947   5.573   2.327  0.9902  2.6656 -3.1125
 1249TIP3   OH2 3710   0.406   5.205   0.536  0.2754  0.3573  0.0769
 1249TIP3    H1 3711   0.470   5.252   0.589  0.1387  0.7317 -0.0858
 1249TIP3    H2 3712   0.430   5.113   0.545  2.2667  0.6447 -1.8264
 1250TIP3   OH2 3713   1.423   4.021   1.884  0.3778 -0.0239 -0.2719
 1250TIP3    H1 3714   1.432   4.107   1.843  1.1110 -0.0988 -0.2693
 1250TIP3    H2 3715   1.394   3.963   1.813  2.7787 -0.4018 -0.9624
 1251TIP3   OH2 3716   7.099   3.907   1.077 -0.3843 -0.3707 -0.1888
 1251TIP3    H1 3717   7.059   3.938   0.995 -0.0216  0.2518 -0.1374
 1251TIP3    H2 3718   7.158   3.978   1.103  0.7058 -1.2402 -0.2300
 1252TIP3   OH2 3719   0.079   3.181   0.967 -0.4119 -0.1430  0.0541
 1252TIP3    H1 3720   0.170   3.152   0.962 -0.0580  1.0559 -0.5187
 1252TIP3    H2 3721   0.070   3.216   1.055  0.0452  0.9217 -0.3161
 1253TIP3   OH2 3722   6.260   3.844   2.650 -0.1697  0.6518 -0.3000
 1253TIP3    H1 3723   6.207   3.849   2.729  0.3714 -1.7320  0.2739
 1253TIP3    H2 3724   6.198   3.830   2.579 -0.5059  0.4211  0.0397
 1254TIP3   OH2 3725   1.641   2.607   1.024  0.1163 -0.3797  0.2993
 1254TIP3    H1 3726   1.557   2.562   1.014  0.1238 -0.4755  0.6569
 1254TIP3    H2 3727   1.621   2.699   1.007 -0.0448 -0.4125  0.3067
 1255TIP3   OH2 3728   2.551   0.498   0.342  0.1789  0.0378 -0.1725
 1255TIP3    H1 3729   2.524   0.501   0.250  0.5864 -0.4243 -0.3079
 1255TIP3    H2 3730   2.471   0.515   0.392 -0.0737  0.1160 -0.6060
 1256TIP3   OH2 3731   1.017   4.055   0.927  0.5251  0.1768 -0.0878
 1256TIP3    H1 3732   1.031   3.962   0.947 -0.1453  0.2126  0.5763
 1256TIP3    H2 3733   1.046   4.065   0.837  0.6445 -0.6737 -0.1480
 1257TIP3   OH2 3734   2.701   3.860   0.118  0.0064  0.3332  0.1108
 1257TIP3    H1 3735   2.680   3.794   0.052  1.8126 -1.3909  1.1883
 1257TIP3    H2 3736   2.739   3.810   0.190  0.3569  2.4433  1.4237
 1258TIP3   OH2 3737   0.198   5.247   1.396 -0.1229 -0.3814  0.4078
 1258TIP3    H1 3738   0.113   5.206   1.381 -1.0285  0.9896  1.6931
 1258TIP3    H2 3739   0.200   5.321   1.337  0.1476 -0.3664  0.4349
 1259TIP3   OH2 3740   2.309   0.218   1.406 -0.6603  0.1928  0.3490
 1259TIP3    H1 3741   2.382   0.162   1.378 -1.2222  0.3377 -1.4926
 1259TIP3    H2 3742   2.328   0.303   1.367 -1.5803  0.3487  0.2297
 1260TIP3   OH2 3743   2.535   6.775   4.366 -0.1717 -0.1246  0.2942
 1260TIP3    H1 3744   2.600   6.709   4.392 -1.0214 -1.2153 -0.3516
 1260TIP3    H2 3745   2.528   6.766   4.271 -1.8140 -0.5011  0.4529
 1261TIP3   OH2 3746   6.869   1.627   4.467  0.7787 -0.6101  0.0215
 1261TIP3    H1 3747   6.809   1.553   4.458  0.8458 -0.9476  1.9780
 1261TIP3    H2 3748   6.824   1.699   4.422 -0.7664 -1.0558  0.7908
 1262TIP3   OH2 3749   7.245   2.107   1.300 -0.2741  0.0321  0.0235
 1262TIP3    H1 3750   7.237   2.183   1.242  0.0959 -0.1943 -0.3176
 1262TIP3    H2 3751   7.283   2.142   1.380  2.1468 -0.2306 -0.9935
 1263TIP3   OH2 3752   0.588   4.485   0.756  0.0756 -0.1413 -0.2145
 1263TIP3    H1 3753   0.585   4.397   0.792 -0.6592  0.2012  0.5733
 1263TIP3    H2 3754   0.663   4.527   0.799 -1.0920  0.4245  1.3018
 1264TIP3   OH2 3755   0.606   6.441   1.839 -0.5274 -0.0658  0.4414
 1264TIP3    H1 3756   0.693   6.407   1.818 -0.2396  0.8201  0.1774
 1264TIP3    H2 3757   0.567   6.461   1.754 -0.2068  1.4336  0.6298
 1265TIP3   OH2 3758   1.555   5.378   2.203  0.0912 -0.3803  0.0808
 1265TIP3    H1 3759   1.499   5.319   2.253  0.3187 -0.7495 -0.0913
 1265TIP3    H2 3760   1.624   5.321   2.167 -0.5268 -0.2589 -1.3284
 1266TIP3   OH2 3761   0.913   3.533   0.633 -0.4668 -0.2623 -0.1337
 1266TIP3    H1 3762   0.981   3.491   0.579 -0.3456 -0.7733  0.4161
 1266TIP3    H2 3763   0.846   3.466   0.644 -1.6694  0.6319 -1.7117
 1267TIP3   OH2 3764   2.673   6.776   5.215  0.1180 -0.2002  0.1838
 1267TIP3    H1 3765   2.718   6.768   5.131  0.4500  1.8421  0.1202
 1267TIP3    H2 3766   2.722   6.719   5.275  0.3071 -1.1179 -0.8409
 1268TIP3   OH2 3767   0.174   4.975   0.629 -0.7981 -0.1136 -0.1463
 1268TIP3    H1 3768   0.261   4.947   0.601 -0.1977  2.2832 -0.7842
 1268TIP3    H2 3769   0.189   5.022   0.711 -1.5256  0.0687 -0.1139
 1269TIP3   OH2 3770   3.286   5.879   1.103  0.4813  0.3472  0.2365
 1269TIP3    H1 3771   3.196   5.871   1.072  0.7024  0.3606 -0.4041
 1269TIP3    H2 3772   3.327   5.796   1.079  0.8047  0.5759  0.0003
 1270TIP3   OH2 3773   1.826   5.161   0.522 -0.0105 -0.0189 -0.0131
 1270TIP3    H1 3774   1.734   5.156   0.496  0.0394  0.3256 -0.2669
 1270TIP3    H2 3775   1.827   5.226   0.593 -0.0305 -0.3666  0.3056
 1271TIP3   OH2 3776   1.861   5.790   1.366 -0.7455 -0.1134 -0.1503
 1271TIP3    H1 3777   1.862   5.879   1.400  0.0224  0.1436 -0.8343
 1271TIP3    H2 3778   1.773   5.758   1.384 -0.7583  0.4832  0.8667
 1272TIP3   OH2 3779   1.944   5.479   1.770 -0.1741  0.1265 -0.1509
 1272TIP3    H1 3780   1.988   5.399   1.799  2.0557  0.8950 -1.2489
 1272TIP3    H2 3781   1.939   5.534   1.848  2.8532  0.8976 -0.4422
 1273TIP3   OH2 3782   0.898   2.105   1.630 -0.0340 -0.5394 -0.0970
 1273TIP3    H1 3783   0.920   2.095   1.722  0.2546  0.9463  0.0042
 1273TIP3    H2 3784   0.978   2.084   1.583 -0.4090 -2.1341 -0.0740
 1274TIP3   OH2 3785   1.419   5.798   1.734 -0.2646  0.5369 -0.5770
 1274TIP3    H1 3786   1.470   5.822   1.811  1.3946 -1.0474 -1.1570
 1274TIP3    H2 3787   1.433   5.870   1.672  1.8727 -0.2022 -0.9983
 1275TIP3   OH2 3788   1.463   2.894   0.049 -0.0715 -0.2924  0.1967
 1275TIP3    H1 3789   1.405   2.949  -0.003  1.6961  2.6083  1.1311
 1275TIP3    H2 3790   1.513   2.843  -0.016 -0.1005  0.9532 -0.8252
 1276TIP3   OH2 3791   5.941   0.508   5.533  0.0760 -0.1681 -0.0308
 1276TIP3    H1 3792   5.999   0.572   5.575 -0.5818  0.4552 -0.0673
 1276TIP3    H2 3793   5.925   0.544   5.446 -2.0333  0.7166  0.6952
 1277TIP3   OH2 3794   3.999   0.568   2.390  0.3348 -0.0563  0.5908
 1277TIP3    H1 3795   4.049   0.582   2.471 -1.1078  2.2507  1.1239
 1277TIP3    H2 3796   4.061   0.586   2.320 -0.1396  4.9327  1.2381
 1278TIP3   OH2 3797   5.808   1.159   5.813 -0.3433  0.0113  0.2135
 1278TIP3    H1 3798   5.862   1.231   5.845  1.8807 -0.0685 -3.1872
 1278TIP3    H2 3799   5.810   1.094   5.883  4.3829 -0.1851  0.0176
 1279TIP3   OH2 3800   4.181   0.763   1.255 -0.3061 -0.0862 -0.0941
 1279TIP3    H1 3801   4.259   0.808   1.220 -1.9715  1.4566 -1.9236
 1279TIP3    H2 3802   4.194   0.671   1.232  0.9977  0.1479 -0.3325
 1280TIP3   OH2 3803   1.864   3.987   1.324  0.0298 -0.0190 -0.2898
 1280TIP3    H1 3804   1.844   3.903   1.364 -0.9021  0.8769  1.1525
 1280TIP3    H2 3805   1.807   4.050   1.368  0.8264  1.4064 -1.2295
 1281TIP3   OH2 3806   1.481   6.765   0.746  0.4062  0.4037 -0.2057
 1281TIP3    H1 3807   1.390   6.735   0.742  0.3669  0.5782 -0.6763
 1281TIP3    H2 3808   1.522   6.726   0.669  0.6495  0.5914 -0.1725
 1282TIP3   OH2 3809   3.076   1.444   2.503  0.0379 -0.0445  0.2396
 1282TIP3    H1 3810   3.156   1.428   2.454  0.3756 -0.8129  1.0307
 1282TIP3    H2 3811   3.013   1.474   2.437  0.6617 -0.4833 -0.5597
 1283TIP3   OH2 3812   1.969   6.275   1.552 -0.5610  0.1944  0.0599
 1283TIP3    H1 3813   2.017   6.301   1.473 -0.0265  0.0507  0.3338
 1283TIP3    H2 3814   1.932   6.356   1.586  0.7099  0.5379  0.6546
 1284TIP3   OH2 3815   3.394   1.978   5.970 -0.0425  0.5930  0.1366
 1284TIP3    H1 3816   3.464   2.039   5.993  0.2311 -0.5349  2.3525
 1284TIP3    H2 3817   3.423   1.894   6.003 -0.6846 -0.6829 -2.3746
 1285TIP3   OH2 3818   0.300   3.940   1.531 -0.1311  0.3236  0.1117
 1285TIP3    H1 3819   0.325   3.857   1.491  1.2906  0.3247  0.9655
 1285TIP3    H2 3820   0.307   3.924   1.625 -0.2827  1.2738  0.2882
 1286TIP3   OH2 3821   3.185   3.709   1.190  0.3039  0.0853 -0.1627
 1286TIP3    H1 3822   3.237   3.764   1.248  0.2567 -0.1789  0.1261
 1286TIP3    H2 3823   3.249   3.665   1.134  0.4161 -0.5483  0.4584
 1287TIP3   OH2 3824   6.826   4.893   0.319  0.4625 -0.2824  0.2635
 1287TIP3    H1 3825   6.738   4.911   0.286  0.2030  1.0023  1.6037
 1287TIP3    H2 3826   6.814   4.821   0.381  0.5795 -1.0040 -0.5297
 1288TIP3   OH2 3827   7.033   0.798   5.667  0.4699 -0.1725  0.0739
 1288TIP3    H1 3828   7.078   0.767   5.589 -0.9507 -1.1557 -0.3634
 1288TIP3    H2 3829   7.099   0.794   5.736  1.3705 -0.4985 -0.8036
 1289TIP3   OH2 3830   0.749   3.560   4.613  0.3275  0.2064  0.4015
 1289TIP3    H1 3831   0.834   3.531   4.647 -0.5112 -0.8466  1.6528
 1289TIP3    H2 3832   0.698   3.480   4.604 -0.9580  0.9498  0.8864
 1290TIP3   OH2 3833   2.043   6.827   0.055 -0.5986 -0.2219 -0.0554
 1290TIP3    H1 3834   1.948   6.842   0.050 -0.6116  0.3678  1.7401
 1290TIP3    H2 3835   2.051   6.742   0.099 -0.2459  0.6664  1.5911
 1291TIP3   OH2 3836   1.654   2.643   0.312  0.0530 -0.6459 -0.1533
 1291TIP3    H1 3837   1.562   2.670   0.308  0.2955 -0.0020 -1.6020
 1291TIP3    H2 3838   1.703   2.725   0.312  0.6706 -1.0113 -0.8916
 1292TIP3   OH2 3839   3.564   5.712   1.048 -0.4189 -0.0772 -0.3236
 1292TIP3    H1 3840   3.497   5.710   0.979 -2.6383 -0.3464  1.7758
 1292TIP3    H2 3841   3.587   5.805   1.055 -1.1149  0.1198 -0.5583
 1293TIP3   OH2 3842   3.363   4.882   0.077  0.0094 -0.4804  0.1677
 1293TIP3    H1 3843   3.300   4.940   0.034 -1.1859 -1.6970  0.2576
 1293TIP3    H2 3844   3.329   4.794   0.061  2.1842 -1.2021 -0.5608
 1294TIP3   OH2 3845   5.588   1.961   5.934 -0.2493  0.3412 -0.1811
 1294TIP3    H1 3846   5.678   1.976   5.963 -0.8249 -1.5651  2.7767
 1294TIP3    H2 3847   5.596   1.894   5.866  0.5767  0.5083 -0.2612
 1295TIP3   OH2 3848   3.355   0.960   0.416 -0.5108  0.1279  0.2786
 1295TIP3    H1 3849   3.397   1.039   0.449  1.1105 -0.1063 -1.1753
 1295TIP3    H2 3850   3.295   0.992   0.348 -2.2486  0.3929  1.8875
 1296TIP3   OH2 3851   2.087   3.575   0.077  0.0823 -0.2850 -0.3142
 1296TIP3    H1 3852   2.018   3.634   0.108 -0.9629 -1.2554 -0.7623
 1296TIP3    H2 3853   2.043   3.491   0.067  1.6993 -1.2638  0.8061
 1297TIP3   OH2 3854   1.484   3.546   1.266  0.0067  0.1023 -0.2321
 1297TIP3    H1 3855   1.516   3.469   1.217 -1.5113 -0.2249 -0.7594
 1297TIP3    H2 3856   1.494   3.522   1.358  0.2929 -0.4180 -0.3967
 1298TIP3   OH2 3857   4.869   6.943   5.418 -0.4208  0.0229 -0.1582
 1298TIP3    H1 3858   4.794   6.883   5.419  0.0723 -0.6048 -0.3274
 1298TIP3    H2 3859   4.877   6.970   5.326  0.8475 -1.5705 -0.5509
 1299TIP3   OH2 3860   0.277   4.888   1.517 -0.0378 -0.0364 -0.0468
 1299TIP3    H1 3861   0.192   4.858   1.552 -1.7741  1.4906 -2.7741
 1299TIP3    H2 3862   0.262   4.896   1.423  3.2352  0.1202 -0.5964
 1300TIP3   OH2 3863   2.015   5.228   1.849 -0.0032 -0.3965 -0.0762
 1300TIP3    H1 3864   2.110   5.219   1.846  0.1453  0.9803  0.2500
 1300TIP3    H2 3865   1.982   5.138   1.856  1.3346 -0.7719  1.5432
 1301TIP3   OH2 3866   2.315   6.049   2.953  0.3614  0.2625  0.2280
 1301TIP3    H1 3867   2.270   5.984   3.007  1.6336 -0.0492  0.9191
 1301TIP3    H2 3868   2.399   6.009   2.930  1.5182  1.9721  1.3428
 1302TIP3   OH2 3869   0.765   4.434   0.254  0.9212  0.1544  0.1861
 1302TIP3    H1 3870   0.712   4.432   0.333  1.3453 -0.7851  0.4539
 1302TIP3    H2 3871   0.809   4.349   0.252  1.7822  0.6020 -0.4591
 1303TIP3   OH2 3872   0.497   6.726   1.786  0.0956 -0.7717 -0.3126
 1303TIP3    H1 3873   0.511   6.642   1.742  0.2572 -0.7955 -0.2112
 1303TIP3    H2 3874   0.479   6.703   1.877 -1.7200 -0.8281 -0.6556
 1304TIP3   OH2 3875   0.460   4.461   1.170 -0.4776 -0.1825 -0.2663
 1304TIP3    H1 3876   0.479   4.406   1.246 -1.2789  0.6489  0.5369
 1304TIP3    H2 3877   0.535   4.521   1.164  0.2504 -1.1314 -0.9644
 1305TIP3   OH2 3878   6.943   6.270   0.835 -0.0824 -0.0435  0.1851
 1305TIP3    H1 3879   6.892   6.324   0.897 -0.5369 -1.3042  0.9230
 1305TIP3    H2 3880   6.987   6.334   0.779  0.9118  1.1528  2.2642
 1306TIP3   OH2 3881   0.372   6.064   0.641  0.5471 -0.4614  0.2421
 1306TIP3    H1 3882   0.324   6.138   0.603 -0.3775 -0.8707  0.6064
 1306TIP3    H2 3883   0.436   6.106   0.699  0.0573  0.0650  0.4145
 1307TIP3   OH2 3884   3.028   5.968   4.441 -0.2136  0.3076  0.1196
 1307TIP3    H1 3885   3.045   6.047   4.389  1.4403  2.2226  3.3544
 1307TIP3    H2 3886   3.094   5.906   4.413 -2.0329 -0.3094 -3.0513
 1308TIP3   OH2 3887   3.768   6.407   4.342 -0.2939  0.4787  0.4788
 1308TIP3    H1 3888   3.720   6.403   4.259  0.9039  0.8665 -0.2459
 1308TIP3    H2 3889   3.826   6.331   4.340  2.2068  2.3570 -0.6110
 1309TIP3   OH2 3890   1.255   5.126   3.641  0.0625 -0.1135  0.0855
 1309TIP3    H1 3891   1.237   5.119   3.547 -2.8270  2.0866  0.3762
 1309TIP3    H2 3892   1.249   5.037   3.674 -2.3128 -0.5259 -1.3186
 1310TIP3   OH2 3893   6.585   2.216   5.426  0.0338  0.1161  0.2655
 1310TIP3    H1 3894   6.669   2.248   5.392  0.1137  2.5533  2.5560
 1310TIP3    H2 3895   6.598   2.213   5.521 -1.8931 -1.3000  0.5006
 1311TIP3   OH2 3896   5.224   1.596   5.808 -0.3413  0.1508 -0.1948
 1311TIP3    H1 3897   5.232   1.576   5.902 -0.8679  0.1036 -0.1550
 1311TIP3    H2 3898   5.174   1.678   5.806  1.4612  1.2695 -0.3718
 1312TIP3   OH2 3899   0.790   3.945   1.405  0.2640  0.0671 -0.1502
 1312TIP3    H1 3900   0.844   3.918   1.479  0.1212  0.2578  0.0235
 1312TIP3    H2 3901   0.811   3.882   1.336  0.9124  0.3089 -0.1772
 1313TIP3   OH2 3902   1.914   4.058   0.150 -0.0399 -0.6234  0.4403
 1313TIP3    H1 3903   1.872   3.977   0.120 -2.0930  0.3856  0.4873
 1313TIP3    H2 3904   1.880   4.072   0.238  1.2613 -0.3516  0.9162
 1314TIP3   OH2 3905   1.373   2.706   0.242 -0.1727  0.3671 -0.0557
 1314TIP3    H1 3906   1.378   2.798   0.217  0.7600 -0.2614 -2.2737
 1314TIP3    H2 3907   1.416   2.659   0.170 -1.0573 -1.8427  0.8202
 1315TIP3   OH2 3908   0.276   4.017   0.997  0.2020  0.6149  0.2042
 1315TIP3    H1 3909   0.345   3.975   1.049 -0.7152 -1.8041 -0.4484
 1315TIP3    H2 3910   0.210   4.042   1.061  0.6704  0.9198  0.5803
 1316TIP3   OH2 3911   4.590   2.393   1.006  0.5794  0.2018  0.3139
 1316TIP3    H1 3912   4.562   2.312   1.048  2.3573 -1.5007 -1.7044
 1316TIP3    H2 3913   4.685   2.395   1.018  1.0059  0.1611 -2.6906
 1317TIP3   OH2 3914   2.173   4.361   2.281 -0.0525 -0.3182 -0.0602
 1317TIP3    H1 3915   2.162   4.441   2.231  0.1725  0.8203  1.6672
 1317TIP3    H2 3916   2.266   4.338   2.270 -0.1106 -0.3329 -0.5248
 1318TIP3   OH2 3917   3.046   6.073   2.293  0.1115  0.2572  0.2892
 1318TIP3    H1 3918   2.981   6.143   2.291  0.8825  0.9856  0.1067
 1318TIP3    H2 3919   3.019   6.016   2.364  0.1639  1.4345  1.2739
 1319TIP3   OH2 3920   3.536   1.023   4.979  0.5350 -0.4418  0.1117
 1319TIP3    H1 3921   3.551   1.096   5.039 -0.8175 -0.4033  0.4193
 1319TIP3    H2 3922   3.454   1.045   4.935  2.6633  0.6623 -3.4592
 1320TIP3   OH2 3923   0.740   2.683   1.392 -0.5613 -0.0819  0.4393
 1320TIP3    H1 3924   0.697   2.615   1.339  1.0415 -1.1709  0.4911
 1320TIP3    H2 3925   0.763   2.638   1.473  2.7949 -0.2056 -0.5151
 1321TIP3   OH2 3926   3.434   1.863   2.744 -0.0427 -0.4774 -0.4452
 1321TIP3    H1 3927   3.491   1.796   2.783  0.2226 -0.0471 -0.0899
 1321TIP3    H2 3928   3.439   1.937   2.805 -2.4996 -1.1333  0.6367
 1322TIP3   OH2 3929   3.495   6.262   1.944 -0.4965  0.2672 -0.2306
 1322TIP3    H1 3930   3.439   6.262   1.867 -2.2068 -2.3256  0.9252
 1322TIP3    H2 3931   3.450   6.320   2.006  0.7693  2.1842 -1.0592
 1323TIP3   OH2 3932   0.406   3.882   0.310  0.1641 -0.5609  0.4056
 1323TIP3    H1 3933   0.351   3.829   0.252 -1.4649  0.7941  0.6978
 1323TIP3    H2 3934   0.368   3.871   0.397 -1.3663  2.5862  0.1754
 1324TIP3   OH2 3935   2.213   5.734   1.752 -0.2506  0.4447  0.4137
 1324TIP3    H1 3936   2.163   5.680   1.813 -1.0233  1.5071  0.7394
 1324TIP3    H2 3937   2.274   5.673   1.710 -0.0452 -0.4015  1.8876
 1325TIP3   OH2 3938   1.359   5.364   1.377  0.0031  0.5161  0.0296
 1325TIP3    H1 3939   1.411   5.400   1.305  1.1839 -1.1256  0.0360
 1325TIP3    H2 3940   1.400   5.279   1.396 -1.0369  0.3964  1.8319
 1326TIP3   OH2 3941   5.928   2.558   5.836  0.2119  0.3874 -0.3739
 1326TIP3    H1 3942   5.851   2.504   5.853 -0.5583  1.7308  0.5229
 1326TIP3    H2 3943   5.925   2.574   5.741 -0.7639  0.6221 -0.3154
 1327TIP3   OH2 3944   0.585   2.695   2.362  0.2255 -0.1456  0.2907
 1327TIP3    H1 3945   0.589   2.602   2.339 -0.2649 -0.3286  0.9263
 1327TIP3    H2 3946   0.616   2.698   2.453 -0.7618  0.1644  0.6303
 1328TIP3   OH2 3947   6.488   0.450   1.172 -0.4398  0.3098  0.4303
 1328TIP3    H1 3948   6.403   0.441   1.216  0.1760 -0.2273  1.5292
 1328TIP3    H2 3949   6.546   0.488   1.238  0.6389 -1.0201  0.2798
 1329TIP3   OH2 3950   3.301   3.989   0.637  0.2818 -0.1114  0.3471
 1329TIP3    H1 3951   3.235   3.939   0.684 -0.2437 -0.5201 -0.8062
 1329TIP3    H2 3952   3.380   3.981   0.691 -0.7355  0.8197  1.9944
 1330TIP3   OH2 3953   2.425   5.285   0.188 -0.3768  0.3760  0.9683
 1330TIP3    H1 3954   2.423   5.241   0.272  0.0297 -1.3997  0.0767
 1330TIP3    H2 3955   2.461   5.220   0.127 -1.9568  1.1454 -0.8513
 1331TIP3   OH2 3956   1.035   6.784   2.033  0.2500 -0.2920  0.1506
 1331TIP3    H1 3957   1.020   6.869   1.992  1.2198  0.0730  0.5388
 1331TIP3    H2 3958   1.129   6.770   2.025  0.6284  0.2624  3.1325
 1332TIP3   OH2 3959   2.947   6.868   3.786 -0.3387  0.7522  0.1765
 1332TIP3    H1 3960   2.978   6.869   3.877  1.2215  1.2188 -0.3492
 1332TIP3    H2 3961   2.993   6.795   3.746 -1.7130 -0.0151 -0.0162
 1333TIP3   OH2 3962   1.931   6.833   2.535 -0.2885 -0.3442  0.1904
 1333TIP3    H1 3963   1.923   6.816   2.629  0.6718  0.5787  0.4464
 1333TIP3    H2 3964   1.847   6.806   2.499 -0.4271 -1.3257  1.2214
 1334TIP3   OH2 3965   5.051   0.138   5.859  0.1335 -0.0180 -0.3858
 1334TIP3    H1 3966   5.069   0.228   5.832  0.7704 -0.2084 -0.5961
 1334TIP3    H2 3967   4.990   0.147   5.932  0.3244  0.5916 -0.2992
 1335TIP3   OH2 3968   2.223   3.122   0.096  0.7049  0.0223 -0.1090
 1335TIP3    H1 3969   2.213   3.167   0.012 -1.5437  0.0940  0.1564
 1335TIP3    H2 3970   2.298   3.065   0.084  0.9167  0.6364 -1.9025
 1336TIP3   OH2 3971   2.222   4.932   0.623 -0.3380  0.3433 -0.0267
 1336TIP3    H1 3972   2.214   4.877   0.545 -0.4789  0.7506 -0.3028
 1336TIP3    H2 3973   2.132   4.953   0.648 -0.2917  0.2654  0.2099
 1337TIP3   OH2 3974   2.651   3.682   1.531 -0.1190 -0.1837 -0.3836
 1337TIP3    H1 3975   2.659   3.661   1.438 -0.1364  0.4307 -0.5299
 1337TIP3    H2 3976   2.585   3.752   1.534 -0.2009 -0.2802  0.1000
 1338TIP3   OH2 3977   3.849   3.621   0.408 -0.5289 -0.1926  0.5815
 1338TIP3    H1 3978   3.805   3.547   0.450 -0.5932 -0.7581 -0.4569
 1338TIP3    H2 3979   3.781   3.661   0.353  0.1336 -0.8425 -0.7409
 1339TIP3   OH2 3980   6.668   4.638   1.446 -0.2269  0.8588 -0.2736
 1339TIP3    H1 3981   6.762   4.647   1.428 -0.3113  0.4362 -0.9535
 1339TIP3    H2 3982   6.634   4.727   1.439  0.0261  0.9318 -0.5956
 1340TIP3   OH2 3983   1.697   4.656   3.253  0.7538 -0.1858 -0.6160
 1340TIP3    H1 3984   1.767   4.716   3.225  0.8200 -0.4843 -1.1046
 1340TIP3    H2 3985   1.682   4.677   3.345 -0.4164  1.7385 -1.2336
 1341TIP3   OH2 3986   0.879   2.724   0.510 -0.0675  0.1759  0.0049
 1341TIP3    H1 3987   0.907   2.655   0.570  0.2027  0.7606  0.5548
 1341TIP3    H2 3988   0.955   2.741   0.455 -0.1893 -0.0761 -0.2489
 1342TIP3   OH2 3989   5.510   2.597   5.968  0.3270 -0.0632  0.4419
 1342TIP3    H1 3990   5.531   2.607   6.061  0.5194 -0.7664  0.4767
 1342TIP3    H2 3991   5.595   2.590   5.925  0.2317  0.0090  0.2407
 1343TIP3   OH2 3992   2.172   0.739   0.822 -0.1410  0.2354  0.2909
 1343TIP3    H1 3993   2.259   0.773   0.800  0.5162 -1.4890  0.1156
 1343TIP3    H2 3994   2.114   0.777   0.757  0.6758  0.5146 -0.2832
 1344TIP3   OH2 3995   6.482   3.464   5.317  0.0735 -0.3087 -0.1184
 1344TIP3    H1 3996   6.571   3.477   5.351  0.3675 -1.0537 -0.5910
 1344TIP3    H2 3997   6.494   3.409   5.240 -0.8948 -1.1384  0.3204
 1345TIP3   OH2 3998   1.510   6.115   0.760  0.0817  0.1400  0.6128
 1345TIP3    H1 3999   1.485   6.208   0.767 -0.2893  0.0164  1.0105
 1345TIP3    H2 4000   1.602   6.117   0.734 -0.8937  0.6037 -3.0643
 1346TIP3   OH2 4001   0.896   3.877   2.158 -0.2907  0.5552 -0.4984
 1346TIP3    H1 4002   0.929   3.967   2.162 -0.2516  0.5591 -0.9020
 1346TIP3    H2 4003   0.801   3.886   2.171 -0.2406  0.6174 -0.1575
 1347TIP3   OH2 4004   1.143   5.319   1.584  0.4480  0.1439 -0.1637
 1347TIP3    H1 4005   1.049   5.315   1.566  0.9632 -1.0792 -2.8740
 1347TIP3    H2 4006   1.160   5.240   1.635 -0.0452  0.6135  0.7539
 1348TIP3   OH2 4007   6.621   5.030   1.071  0.1237 -0.0016 -0.0547
 1348TIP3    H1 4008   6.539   5.055   1.028  1.6325  0.0746 -3.0683
 1348TIP3    H2 4009   6.669   5.112   1.080 -0.2181 -0.0122  1.9253
 1349TIP3   OH2 4010   5.714   3.882   5.285  0.0139 -0.5570 -0.8589
 1349TIP3    H1 4011   5.673   3.907   5.368 -0.5462 -0.1356 -1.2609
 1349TIP3    H2 4012   5.712   3.962   5.232  0.6364 -0.7476 -1.1767
 1350TIP3   OH2 4013   2.501   5.929   2.237  0.2773  0.7338 -0.2589
 1350TIP3    H1 4014   2.504   6.024   2.224  1.0971  0.4627 -2.2815
 1350TIP3    H2 4015   2.422   5.901   2.192  0.1745  0.4300  0.1115
 1351TIP3   OH2 4016   5.413   0.272   1.857  0.3531  0.1992  0.2010
 1351TIP3    H1 4017   5.358   0.348   1.874 -0.7086 -0.3579 -0.7396
 1351TIP3    H2 4018   5.497   0.294   1.899  0.3510  2.2569 -0.7869
 1352TIP3   OH2 4019   3.972   3.198   0.498  0.0169  0.3279  0.5911
 1352TIP3    H1 4020   4.041   3.255   0.534  1.2737 -1.1345  0.5354
 1352TIP3    H2 4021   3.954   3.234   0.411 -0.0583  1.3592  1.0254
 1353TIP3   OH2 4022   0.115   6.477   1.141 -0.0082  0.5663 -0.0008
 1353TIP3    H1 4023   0.142   6.471   1.049 -2.1345 -1.3261 -0.5384
 1353TIP3    H2 4024   0.155   6.401   1.183 -0.5565  0.3985  0.2227
 1354TIP3   OH2 4025   2.490   0.070   2.207  0.2619 -0.7421  0.5775
 1354TIP3    H1 4026   2.492  -0.024   2.193  0.7658 -0.4645 -1.4590
 1354TIP3    H2 4027   2.425   0.083   2.277  0.4862 -2.6050  1.1453
 1355TIP3   OH2 4028   1.839   6.019   2.384 -0.1529  0.0741 -0.2453
 1355TIP3    H1 4029   1.882   5.971   2.456 -1.7119 -0.5940  0.2649
 1355TIP3    H2 4030   1.825   6.107   2.419 -0.8949 -0.2451  0.2746
 1356TIP3   OH2 4031   7.370   5.373   1.146  0.3026 -0.0958 -0.2120
 1356TIP3    H1 4032   7.333   5.364   1.058 -0.2497 -0.8954  0.0943
 1356TIP3    H2 4033   7.365   5.285   1.183  2.0128 -0.1109  0.0351
 1357TIP3   OH2 4034   1.650   3.388   1.655 -0.0596 -0.0422  0.3335
 1357TIP3    H1 4035   1.582   3.323   1.642  1.9563 -2.5539  1.8864
 1357TIP3    H2 4036   1.698   3.390   1.572 -0.0000 -0.7088  0.3486
 1358TIP3   OH2 4037   1.331   1.280   4.767  0.2559  0.4706  0.1287
 1358TIP3    H1 4038   1.314   1.225   4.844 -1.5584  2.1196  0.9333
 1358TIP3    H2 4039   1.290   1.232   4.694 -0.9624  0.5482  0.7536
 1359TIP3   OH2 4040   5.162   1.855   5.845  0.2303 -0.4744  0.6907
 1359TIP3    H1 4041   5.154   1.912   5.768  1.6464 -0.9517  0.1655
 1359TIP3    H2 4042   5.218   1.904   5.906 -0.0968 -0.5016  1.0140
 1360TIP3   OH2 4043   3.567   2.291   0.979  0.2799  0.1788 -0.7796
 1360TIP3    H1 4044   3.652   2.334   0.969  1.0503 -1.2589 -0.6511
 1360TIP3    H2 4045   3.557   2.240   0.899  0.2860 -0.9183 -0.0910
 1361TIP3   OH2 4046   6.172   0.276   5.120 -0.2451  0.2499  0.0884
 1361TIP3    H1 4047   6.209   0.362   5.098 -0.5428  0.3364 -0.0839
 1361TIP3    H2 4048   6.201   0.219   5.049  0.3084  0.1110  0.4269
 1362TIP3   OH2 4049   0.649   3.989   3.084 -0.0164  0.1528 -0.1520
 1362TIP3    H1 4050   0.713   3.959   3.148 -0.4511  1.1564  0.7709
 1362TIP3    H2 4051   0.701   4.027   3.013  0.4656 -0.9251 -0.3734
 1363TIP3   OH2 4052   2.130   5.593   1.995  0.2434  0.1708 -0.1596
 1363TIP3    H1 4053   2.219   5.603   2.027  0.5201 -1.7087 -0.2891
 1363TIP3    H2 4054   2.076   5.588   2.074  0.1384  2.0400 -0.0841
 1364TIP3   OH2 4055   4.131   6.023   0.068 -0.2876  0.3136 -0.5666
 1364TIP3    H1 4056   4.181   6.097   0.102  0.0795 -0.0514 -0.3155
 1364TIP3    H2 4057   4.059   6.013   0.131  0.9936 -1.0434  0.7060
 1365TIP3   OH2 4058   3.781   0.643   5.043 -0.7591  0.1808 -0.3653
 1365TIP3    H1 4059   3.753   0.552   5.036 -1.0585  0.1130  1.5110
 1365TIP3    H2 4060   3.872   0.638   5.073 -1.3307  0.5009  1.4966
 1366TIP3   OH2 4061   3.466   2.523   1.477 -0.1774 -0.5344  0.1607
 1366TIP3    H1 4062   3.483   2.516   1.383  1.3925 -0.1417  0.4037
 1366TIP3    H2 4063   3.380   2.483   1.489  0.0973 -1.5823 -1.2883
 1367TIP3   OH2 4064   1.669   3.094   0.479  0.0202 -0.5073 -0.2075
 1367TIP3    H1 4065   1.603   3.060   0.419  0.6241 -0.3374 -0.9761
 1367TIP3    H2 4066   1.752   3.060   0.445  0.5951  1.4797 -0.7982
 1368TIP3   OH2 4067   1.016   0.258   5.183 -0.3748 -0.0720 -0.1432
 1368TIP3    H1 4068   0.967   0.284   5.261 -0.5874 -2.0109  0.4132
 1368TIP3    H2 4069   0.950   0.254   5.114 -0.3894  0.5841 -0.1666
 1369TIP3   OH2 4070   3.105   2.887   0.441 -0.1710  0.2873  0.0533
 1369TIP3    H1 4071   3.014   2.874   0.469 -0.0663  1.1724  0.8502
 1369TIP3    H2 4072   3.153   2.815   0.480 -0.5264 -0.1868 -0.3709
 1370TIP3   OH2 4073   4.151   3.336   0.671 -0.0161 -0.4275 -0.6228
 1370TIP3    H1 4074   4.104   3.394   0.731 -1.7307 -0.5126 -1.8457
 1370TIP3    H2 4075   4.218   3.294   0.725  0.4069  1.7233  0.5578
 1371TIP3   OH2 4076   3.101   3.217   0.195 -0.0365  0.0367 -0.7091
 1371TIP3    H1 4077   3.056   3.137   0.167 -1.0905 -0.2286  1.6010
 1371TIP3    H2 4078   3.171   3.186   0.253  0.2941  0.7204 -0.7330
 1372TIP3   OH2 4079   0.365   2.976   5.342 -0.1621  0.3525  0.3157
 1372TIP3    H1 4080   0.291   3.025   5.378 -0.9928 -1.3232  0.9511
 1372TIP3    H2 4081   0.437   2.992   5.403 -0.4721  0.6299  0.6098
 1373TIP3   OH2 4082   2.427   2.717   0.238  0.1676 -0.1047 -0.7665
 1373TIP3    H1 4083   2.343   2.693   0.277 -1.0275  0.5750 -2.8023
 1373TIP3    H2 4084   2.489   2.653   0.273 -1.3719 -1.1807  0.0730
 1374TIP3   OH2 4085   5.734   2.940   5.694  0.4708 -0.3420  0.4890
 1374TIP3    H1 4086   5.653   2.898   5.723  0.3369  0.2342  0.9582
 1374TIP3    H2 4087   5.743   2.914   5.603 -0.0436 -0.7212  0.5414
 1375TIP3   OH2 4088   0.667   5.085   2.929 -0.2618  0.6871 -0.4385
 1375TIP3    H1 4089   0.655   4.990   2.933  0.1115  0.6884  1.3513
 1375TIP3    H2 4090   0.753   5.096   2.888 -1.6373  0.3734 -3.5009
 1376TIP3   OH2 4091   0.562   3.002   3.116 -0.2583  0.1776 -0.1103
 1376TIP3    H1 4092   0.546   2.998   3.211  1.6527  2.0307  0.3145
 1376TIP3    H2 4093   0.556   2.911   3.087  1.0948 -0.6469  2.1214
 1377TIP3   OH2 4094   2.046   4.960   0.190 -0.6073  0.5870 -0.0332
 1377TIP3    H1 4095   2.106   4.911   0.247 -0.2491  0.4730 -0.5080
 1377TIP3    H2 4096   2.042   5.047   0.229 -0.4255  0.4862  0.2155
 1378TIP3   OH2 4097   0.506   6.881   3.298 -0.1880 -0.0897  0.0229
 1378TIP3    H1 4098   0.486   6.798   3.256  1.0464  0.4034 -1.6083
 1378TIP3    H2 4099   0.430   6.937   3.279  0.0080 -0.1232 -0.8966
 1379TIP3   OH2 4100   2.805   5.239   1.273  0.0800  0.2805  0.1660
 1379TIP3    H1 4101   2.819   5.304   1.342 -0.4996 -0.0326  0.5873
 1379TIP3    H2 4102   2.891   5.226   1.234 -0.0219  2.2399 -0.7644
 1380TIP3   OH2 4103   6.462   2.232   4.446 -0.1864  0.5817  0.6223
 1380TIP3    H1 4104   6.374   2.228   4.407  0.8653 -0.5178 -1.7323
 1380TIP3    H2 4105   6.470   2.150   4.495 -0.2141  0.3501  0.2425
 1381TIP3   OH2 4106   1.942   5.415   0.033  0.4007  0.4834 -0.7381
 1381TIP3    H1 4107   1.998   5.424  -0.045  2.2699 -0.9423  0.4027
 1381TIP3    H2 4108   1.972   5.485   0.091 -0.5056  1.0914 -0.9950
 1382TIP3   OH2 4109   6.663   1.712   5.403 -0.0900  0.2321  0.1069
 1382TIP3    H1 4110   6.573   1.743   5.389 -1.0577 -0.8995  3.2807
 1382TIP3    H2 4111   6.701   1.774   5.464  0.5314 -0.5184  0.4924
 1383TIP3   OH2 4112   0.416   0.809   5.286 -0.2685 -0.1281  0.1416
 1383TIP3    H1 4113   0.385   0.827   5.375 -1.7930 -1.6642 -0.0635
 1383TIP3    H2 4114   0.414   0.714   5.278  1.9988 -0.1178 -0.8058
 1384TIP3   OH2 4115   1.264   1.144   4.982  0.6332 -0.4603  0.6956
 1384TIP3    H1 4116   1.355   1.146   5.009  0.0040 -1.0932  2.9229
 1384TIP3    H2 4117   1.214   1.144   5.064 -1.3567 -0.5238 -0.4782
 1385TIP3   OH2 4118   2.259   5.761   1.292  0.2225 -0.3625  0.3823
 1385TIP3    H1 4119   2.342   5.807   1.277  1.2923 -2.9645 -2.4145
 1385TIP3    H2 4120   2.286   5.673   1.318 -1.7409 -0.4153  2.3434
 1386TIP3   OH2 4121   1.831   1.075   5.860 -0.4601 -0.1061 -0.1365
 1386TIP3    H1 4122   1.776   1.051   5.786  0.3761  0.7707 -1.0534
 1386TIP3    H2 4123   1.791   1.030   5.935 -1.1606 -1.2011 -1.1510
 1387TIP3   OH2 4124   1.527   2.310   4.984 -0.3433 -0.0497 -0.0656
 1387TIP3    H1 4125   1.598   2.247   4.971 -0.2005  0.2116 -0.5802
 1387TIP3    H2 4126   1.534   2.336   5.076  1.0781  0.9942 -0.4497
 1388TIP3   OH2 4127   3.525   5.717   1.322 -0.2375 -0.0550  0.0008
 1388TIP3    H1 4128   3.523   5.721   1.227 -0.3313  1.1558  0.0477
 1388TIP3    H2 4129   3.445   5.671   1.347 -0.0763 -0.6148 -0.5116
 1389TIP3   OH2 4130   3.278   1.277   5.830 -0.1139  0.0077 -0.9738
 1389TIP3    H1 4131   3.302   1.184   5.828 -0.7761 -0.1525 -1.7007
 1389TIP3    H2 4132   3.187   1.278   5.860  1.1346  0.6984  3.1061
 1390TIP3   OH2 4133   2.188   3.834   0.823 -0.0560 -0.3020  0.0063
 1390TIP3    H1 4134   2.216   3.911   0.773 -0.0288 -1.2130 -1.4424
 1390TIP3    H2 4135   2.249   3.765   0.795 -1.2138 -1.2923 -0.1067
 1391TIP3   OH2 4136   6.453   6.835   5.689 -0.6919 -0.0228 -0.4131
 1391TIP3    H1 4137   6.480   6.926   5.680  0.1663 -0.0830  1.3667
 1391TIP3    H2 4138   6.534   6.787   5.706 -1.3791 -0.7855  0.8370
 1392TIP3   OH2 4139   0.874   4.725   0.179 -0.6755  0.2680  0.1887
 1392TIP3    H1 4140   0.862   4.705   0.086  2.2848 -0.1584 -0.1550
 1392TIP3    H2 4141   0.865   4.640   0.223  1.2660 -0.1083 -0.1036
 1393TIP3   OH2 4142   3.089   5.001   2.352 -0.0800 -0.1068  0.3704
 1393TIP3    H1 4143   3.035   5.078   2.336  0.7478  0.3070 -0.5114
 1393TIP3    H2 4144   3.158   5.031   2.411 -0.2808 -0.3957  0.7489
 1394TIP3   OH2 4145   3.101   3.014   1.075  0.0694 -0.2522 -0.7982
 1394TIP3    H1 4146   3.086   2.980   1.163 -1.2063  0.3257 -0.7834
 1394TIP3    H2 4147   3.122   3.106   1.087 -0.6783 -0.0368 -1.1468
 1395TIP3   OH2 4148   0.949   2.400   5.702  0.0870  0.6722  0.5047
 1395TIP3    H1 4149   1.030   2.359   5.731 -0.7071  0.2235  2.1481
 1395TIP3    H2 4150   0.884   2.330   5.708 -0.2244  0.7373 -1.7968
 1396TIP3   OH2 4151   2.272   5.730   2.659  0.4553  0.0591 -0.3639
 1396TIP3    H1 4152   2.342   5.779   2.616  1.2332 -0.8054 -0.1227
 1396TIP3    H2 4153   2.299   5.727   2.751  0.0659 -0.2249 -0.2575
 1397TIP3   OH2 4154   2.691   4.348   1.179 -0.0869 -0.1516 -0.7677
 1397TIP3    H1 4155   2.602   4.338   1.147 -1.4597  2.5800  1.9418
 1397TIP3    H2 4156   2.703   4.278   1.243 -0.8387  0.3971 -0.0249
 1398TIP3   OH2 4157   0.069   3.847   1.779 -0.3306  0.4098  0.0097
 1398TIP3    H1 4158   0.078   3.851   1.874 -2.4162 -2.7989  0.4315
 1398TIP3    H2 4159   0.088   3.756   1.757  0.8799  1.2915 -2.7547
 1399TIP3   OH2 4160   3.459   6.368   1.350 -0.3072 -0.1794  0.2472
 1399TIP3    H1 4161   3.406   6.427   1.404 -0.7365  0.2142 -0.5919
 1399TIP3    H2 4162   3.524   6.425   1.308 -0.0134 -0.4708  0.3063
 1400TIP3   OH2 4163   0.312   1.851   5.076 -0.4991  0.4872 -0.0809
 1400TIP3    H1 4164   0.234   1.808   5.042  0.1540 -1.1174  0.3970
 1400TIP3    H2 4165   0.381   1.784   5.068  1.0242  2.1754 -1.3675
 1401TIP3   OH2 4166   0.865   6.654   0.927 -0.0579  0.0019  0.2369
 1401TIP3    H1 4167   0.951   6.612   0.920  0.4298  0.8248  1.1068
 1401TIP3    H2 4168   0.874   6.736   0.878 -0.4335 -0.0524  0.0777
 1402TIP3   OH2 4169   2.033   3.841   2.281  0.4214  0.0555  0.0929
 1402TIP3    H1 4170   2.057   3.930   2.303  0.1242  0.0532  0.4228
 1402TIP3    H2 4171   2.036   3.838   2.185 -2.0823  1.1318 -0.0539
 1403TIP3   OH2 4172   1.761   6.951   0.325  0.0383  0.1458 -0.1324
 1403TIP3    H1 4173   1.769   6.988   0.238 -1.3494  0.0508 -0.3246
 1403TIP3    H2 4174   1.672   6.973   0.352  0.8588  1.2518  1.7690
 1404TIP3   OH2 4175   3.499   0.151   0.733 -0.3083  0.3459  0.5803
 1404TIP3    H1 4176   3.545   0.235   0.740  1.2476 -0.3403 -0.9121
 1404TIP3    H2 4177   3.418   0.171   0.686  0.1805  0.9709  0.0040
 1405TIP3   OH2 4178   1.283   5.837   1.435  0.0791  0.1889 -0.5571
 1405TIP3    H1 4179   1.222   5.893   1.388  2.1773  0.3438 -3.2308
 1405TIP3    H2 4180   1.349   5.898   1.470 -0.4316 -0.1185  0.9558
 1406TIP3   OH2 4181   2.333   6.444   2.560  0.3059 -0.3978  0.2672
 1406TIP3    H1 4182   2.363   6.365   2.605 -1.7121 -1.2906  0.1038
 1406TIP3    H2 4183   2.314   6.415   2.470  0.2872  0.4483 -0.0075
 1407TIP3   OH2 4184   0.554   0.390   5.495  0.3641  0.3457  0.1140
 1407TIP3    H1 4185   0.572   0.334   5.570  1.6930 -0.8375 -1.0704
 1407TIP3    H2 4186   0.515   0.331   5.430  1.3063  0.8836 -0.9527
 1408TIP3   OH2 4187   0.622   1.426   5.760 -0.0225 -0.4404  0.4576
 1408TIP3    H1 4188   0.533   1.459   5.745  0.2929  0.8860  1.3984
 1408TIP3    H2 4189   0.646   1.461   5.846  1.2141 -1.2149  0.4309
 1409TIP3   OH2 4190   3.120   5.426   0.938  0.3798 -1.0688 -0.0691
 1409TIP3    H1 4191   3.051   5.489   0.956  2.0265  0.2792  1.6736
 1409TIP3    H2 4192   3.101   5.395   0.849 -2.2296 -0.4674  0.2418
 1410TIP3   OH2 4193   2.726   3.954   0.825  0.0289  0.1584  0.1892
 1410TIP3    H1 4194   2.641   3.994   0.805 -0.1548 -2.8378 -6.2360
 1410TIP3    H2 4195   2.790   4.019   0.794 -0.1164 -0.4001 -1.3449
 1411TIP3   OH2 4196   7.268   1.127   6.046 -0.7024 -0.2328  0.3175
 1411TIP3    H1 4197   7.200   1.159   5.987 -1.9673 -2.3820  0.5844
 1411TIP3    H2 4198   7.231   1.049   6.086  0.5043  0.6012  3.2310
 1412TIP3   OH2 4199   2.835   4.533   1.938  0.2134  0.6161  0.1556
 1412TIP3    H1 4200   2.770   4.543   1.869  0.7681  2.0388 -0.1659
 1412TIP3    H2 4201   2.884   4.454   1.914 -0.4380  0.3675 -0.3632
 1413TIP3   OH2 4202   6.972   0.680   5.115  0.0580  0.0467 -0.1888
 1413TIP3    H1 4203   7.010   0.603   5.157  0.6133 -0.6651 -1.9212
 1413TIP3    H2 4204   7.012   0.755   5.159  0.2586 -0.6675  0.8526
 1414TIP3   OH2 4205   5.582   6.264   5.221 -0.2738 -0.0609 -0.2794
 1414TIP3    H1 4206   5.639   6.191   5.244  0.2305  0.8061  1.2951
 1414TIP3    H2 4207   5.505   6.223   5.182  0.0057 -1.4222  0.5722
 1415TIP3   OH2 4208   5.675   3.420   5.328  0.5739 -0.0343 -0.1227
 1415TIP3    H1 4209   5.743   3.408   5.262 -0.0299  0.1955 -0.7961
 1415TIP3    H2 4210   5.706   3.493   5.382  1.1244 -0.3016 -0.0774
 1416TIP3   OH2 4211   1.068   1.941   4.720  0.6683 -0.0568 -0.9733
 1416TIP3    H1 4212   1.075   1.867   4.660  2.9222 -0.6778  0.0096
 1416TIP3    H2 4213   1.110   2.013   4.674  2.3795 -0.5281 -0.1656
 1417TIP3   OH2 4214   0.320   2.187   4.656 -0.3753  0.0651 -0.2917
 1417TIP3    H1 4215   0.324   2.093   4.671 -0.4932  0.3588  1.7456
 1417TIP3    H2 4216   0.244   2.217   4.706  0.6048  1.4538  0.4117
 1418TIP3   OH2 4217   3.076   4.677   0.915 -0.3940 -0.0509 -0.6070
 1418TIP3    H1 4218   3.165   4.658   0.884  0.4472  2.1563  0.3577
 1418TIP3    H2 4219   3.033   4.717   0.839 -1.1010 -2.5397 -1.5710
 1419TIP3   OH2 4220   6.602   2.520   5.119  0.2129 -0.1888  0.1020
 1419TIP3    H1 4221   6.530   2.560   5.070 -0.8187 -1.1432  0.8010
 1419TIP3    H2 4222   6.586   2.545   5.210  0.0868 -1.3617  0.4169
 1420TIP3   OH2 4223   4.054   4.398   0.392 -0.5057  0.4153 -0.1617
 1420TIP3    H1 4224   4.087   4.487   0.404  0.8763  0.0499 -1.2473
 1420TIP3    H2 4225   4.093   4.348   0.464  0.7609  0.1296 -1.0504
 1421TIP3   OH2 4226   2.465   0.244   2.539  0.1096  0.3164 -0.4673
 1421TIP3    H1 4227   2.427   0.167   2.496  1.3760  1.2168 -3.3162
 1421TIP3    H2 4228   2.545   0.212   2.580 -0.5847 -0.3418  0.4014
 1422TIP3   OH2 4229   1.665   0.034   5.339  0.8798  0.8005 -0.1415
 1422TIP3    H1 4230   1.645  -0.010   5.421  1.5953 -1.7137 -1.2643
 1422TIP3    H2 4231   1.751   0.074   5.354  1.6732 -0.8694 -0.0952
 1423TIP3   OH2 4232   0.386   4.968   3.494 -0.0483  0.1704 -0.0313
 1423TIP3    H1 4233   0.346   4.910   3.429  3.1510 -0.9706 -1.0274
 1423TIP3    H2 4234   0.375   4.922   3.577 -1.8915  0.4749 -0.0760
 1424TIP3   OH2 4235   5.306   5.965   1.696 -0.6142 -0.1226 -0.0392
 1424TIP3    H1 4236   5.234   6.009   1.742  0.1610  1.0515  0.0861
 1424TIP3    H2 4237   5.268   5.937   1.613 -0.8747  1.7138 -0.5598
 1425TIP3   OH2 4238   1.424   6.568   0.565 -0.6415  0.1663 -0.2161
 1425TIP3    H1 4239   1.445   6.527   0.480  0.1435 -1.3759  0.6992
 1425TIP3    H2 4240   1.328   6.571   0.566 -0.7161 -1.4191 -0.4298
 1426TIP3   OH2 4241   1.666   4.792   0.995  0.5783 -0.1770 -0.1105
 1426TIP3    H1 4242   1.663   4.865   1.057  0.2471 -1.0193  0.8895
 1426TIP3    H2 4243   1.584   4.798   0.946  0.1343 -0.4071  0.5960
 1427TIP3   OH2 4244   4.739   0.799   1.673 -0.3806 -0.2371  0.5331
 1427TIP3    H1 4245   4.803   0.764   1.611 -1.1328  1.1163 -1.0452
 1427TIP3    H2 4246   4.779   0.881   1.704 -1.0575  0.2889  0.0233
 1428TIP3   OH2 4247   2.275   5.476   1.324 -0.0608  0.4763 -0.1198
 1428TIP3    H1 4248   2.334   5.405   1.298 -0.0309 -0.0492  1.3711
 1428TIP3    H2 4249   2.218   5.488   1.248 -1.7226 -2.8520  0.5031
 1429TIP3   OH2 4250   4.947   3.800   3.910 -0.9282 -0.3521 -0.7534
 1429TIP3    H1 4251   5.040   3.815   3.928 -0.7786 -0.2490 -1.6003
 1429TIP3    H2 4252   4.931   3.712   3.944 -0.3839 -0.5886 -1.0996
 1430TIP3   OH2 4253   7.345   2.789   4.564  0.4633  0.0738  0.2219
 1430TIP3    H1 4254   7.405   2.859   4.591  1.3691 -1.0654  1.2820
 1430TIP3    H2 4255   7.403   2.720   4.532 -0.4043 -0.3276 -0.4889
 1431TIP3   OH2 4256   3.704   0.042   1.944  0.2821 -0.0124  0.0281
 1431TIP3    H1 4257   3.622   0.091   1.946  0.5007  0.4430 -1.3490
 1431TIP3    H2 4258   3.749   0.066   2.025 -0.7226  0.1097  0.5573
 1432TIP3   OH2 4259   1.678   5.603   1.708 -0.4063  0.2393  0.0901
 1432TIP3    H1 4260   1.767   5.576   1.728 -0.2724  1.3612  1.0838
 1432TIP3    H2 4261   1.637   5.617   1.794 -0.9915  1.4353 -0.3626
 1433TIP3   OH2 4262   1.586   0.790   4.393  0.4046  0.2026 -0.1608
 1433TIP3    H1 4263   1.537   0.728   4.447 -0.6258  1.4933  0.4180
 1433TIP3    H2 4264   1.663   0.813   4.447 -1.2679  2.4600  1.3665
 1434TIP3   OH2 4265   3.226   5.169   0.875 -0.1413 -0.1255 -0.7750
 1434TIP3    H1 4266   3.230   5.265   0.880 -0.3511 -0.1450 -0.1007
 1434TIP3    H2 4267   3.144   5.147   0.920  1.7425 -0.8507  2.4880
 1435TIP3   OH2 4268   3.026   5.360   0.680 -0.0497 -0.1214 -0.0156
 1435TIP3    H1 4269   2.983   5.437   0.644 -0.2715  0.4828  1.5008
 1435TIP3    H2 4270   2.978   5.286   0.643 -1.2443  0.5050  0.2667
 1436TIP3   OH2 4271   4.572   4.569   1.501  0.0920 -0.2218  0.7932
 1436TIP3    H1 4272   4.590   4.633   1.433 -1.1183 -2.0487 -1.3060
 1436TIP3    H2 4273   4.652   4.566   1.553  1.2028  0.8466 -0.8247
 1437TIP3   OH2 4274   0.815   3.976   5.027 -0.9234 -0.5373 -0.4383
 1437TIP3    H1 4275   0.813   3.947   4.936 -1.6622 -0.8520 -0.3238
 1437TIP3    H2 4276   0.726   4.007   5.045 -0.9145 -0.9430  0.3257
 1438TIP3   OH2 4277   5.299   0.355   2.470  0.1585 -0.5230  0.1020
 1438TIP3    H1 4278   5.377   0.301   2.467  0.0648 -0.6152 -0.8002
 1438TIP3    H2 4279   5.329   0.439   2.504  0.9026 -0.1252 -1.5081
 1439TIP3   OH2 4280   5.747   0.255   1.143  0.1276 -0.1713 -0.2374
 1439TIP3    H1 4281   5.745   0.346   1.115 -0.5586  0.4968  1.9257
 1439TIP3    H2 4282   5.659   0.238   1.177  0.4059 -1.4846 -0.1274
 1440TIP3   OH2 4283   4.292   6.520   2.848  0.1104  0.3613 -0.2284
 1440TIP3    H1 4284   4.288   6.582   2.776 -0.9086 -0.9605 -1.3353
 1440TIP3    H2 4285   4.298   6.434   2.806 -1.3300 -0.4863  1.2340
 1441TIP3   OH2 4286   3.561   6.930   1.833 -0.1949  0.0319  0.5048
 1441TIP3    H1 4287   3.613   6.950   1.754 -0.2581 -2.9864 -0.3847
 1441TIP3    H2 4288   3.477   6.973   1.818  0.7135  1.7160  0.1564
 1442TIP3   OH2 4289   7.146   0.455   5.016 -0.2850 -0.2072  0.7350
 1442TIP3    H1 4290   7.195   0.444   4.935 -2.4724  2.9465 -1.1161
 1442TIP3    H2 4291   7.065   0.406   5.002 -1.1604  1.2717  0.5400
 1443TIP3   OH2 4292   3.060   6.815   0.504  0.1478 -0.2060  0.2808
 1443TIP3    H1 4293   3.154   6.812   0.523  0.1129 -1.2613  0.3350
 1443TIP3    H2 4294   3.055   6.793   0.410 -0.0673 -0.5093  0.3631
 1444TIP3   OH2 4295   3.132   4.812   1.149  0.2067 -0.5768  0.0786
 1444TIP3    H1 4296   3.157   4.731   1.193 -1.7187 -1.8210 -1.0600
 1444TIP3    H2 4297   3.156   4.797   1.057  0.0270  0.2247 -0.1021
 1445TIP3   OH2 4298   0.191   0.884   0.808  1.0428  0.0904  0.1544
 1445TIP3    H1 4299   0.111   0.864   0.759  1.6933  1.5640 -1.5695
 1445TIP3    H2 4300   0.254   0.818   0.779  0.6107 -0.7984  1.1843
 1446TIP3   OH2 4301   2.398   4.842   1.671 -0.0711  0.2151 -0.0870
 1446TIP3    H1 4302   2.371   4.932   1.650  1.3436  0.8219  0.6185
 1446TIP3    H2 4303   2.487   4.851   1.705 -0.5240 -1.2788  1.5897
 1447TIP3   OH2 4304   2.504   3.690   2.170 -0.1110  0.5362  0.2269
 1447TIP3    H1 4305   2.418   3.668   2.205 -0.6724  2.0691 -0.1584
 1447TIP3    H2 4306   2.563   3.689   2.246 -0.2003 -1.7310  0.3035
 1448TIP3   OH2 4307   1.898   6.082   1.074 -0.4155  0.0159  0.8506
 1448TIP3    H1 4308   1.938   6.001   1.104  0.0178  0.6242  1.9355
 1448TIP3    H2 4309   1.817   6.089   1.124 -1.9135 -1.2061 -1.3250
 1449TIP3   OH2 4310   0.911   6.060   1.401 -0.1923  0.5837 -0.4192
 1449TIP3    H1 4311   0.858   6.095   1.329  0.3812  0.9247 -0.6800
 1449TIP3    H2 4312   0.906   5.965   1.391 -1.8285  0.5678  0.3387
 1450TIP3   OH2 4313   1.732   4.150   0.757 -0.3153 -0.0480 -0.4424
 1450TIP3    H1 4314   1.679   4.087   0.807  0.8172 -0.2685  0.4890
 1450TIP3    H2 4315   1.822   4.121   0.769  0.1039  0.9239 -1.1905
 1451TIP3   OH2 4316   1.302   6.116   0.154  0.5839  0.7003 -0.2477
 1451TIP3    H1 4317   1.284   6.050   0.222  0.6714  0.6593 -0.2655
 1451TIP3    H2 4318   1.294   6.068   0.072  1.2535  0.5706 -0.2418
 1452TIP3   OH2 4319   3.818   6.339   0.963  0.1883  0.1339 -0.1344
 1452TIP3    H1 4320   3.794   6.373   0.877  0.5446 -1.2215 -0.7907
 1452TIP3    H2 4321   3.914   6.331   0.960  0.1232 -0.8242  0.0220
 1453TIP3   OH2 4322   3.999   3.934   0.072  0.0147 -0.3351  0.4400
 1453TIP3    H1 4323   4.012   4.007   0.011 -2.7557 -0.3168 -0.2076
 1453TIP3    H2 4324   3.904   3.931   0.085  0.4309 -1.3421  3.5615
 1454TIP3   OH2 4325   3.719   6.235   1.303 -0.1678 -0.2574  0.4380
 1454TIP3    H1 4326   3.668   6.190   1.236  0.6211 -0.1154 -0.2601
 1454TIP3    H2 4327   3.730   6.324   1.270  0.3423 -0.2236  0.6899
 1455TIP3   OH2 4328   1.386   1.108   6.018  0.1711 -0.4978  0.0869
 1455TIP3    H1 4329   1.348   1.194   5.998 -0.8390 -0.7199  0.9834
 1455TIP3    H2 4330   1.310   1.053   6.040  0.7195 -1.8952 -1.4752
 1456TIP3   OH2 4331   0.889   5.772   1.383  0.3148  0.1564  0.1966
 1456TIP3    H1 4332   0.883   5.726   1.300 -1.0898 -2.6592  1.8100
 1456TIP3    H2 4333   0.854   5.711   1.448  0.3328  2.7053  2.7187
 1457TIP3   OH2 4334   0.101   1.409   4.867  0.0149  0.2960 -0.0632
 1457TIP3    H1 4335   0.098   1.313   4.876  0.0551  0.4936  2.2101
 1457TIP3    H2 4336   0.011   1.434   4.846  0.3883 -0.3951 -2.7130
 1458TIP3   OH2 4337   0.885   5.270   1.330  0.2893 -0.1053  0.6890
 1458TIP3    H1 4338   0.808   5.234   1.286  0.7901 -0.2585 -0.0732
 1458TIP3    H2 4339   0.861   5.273   1.422 -2.2528  3.9909 -0.0071
 1459TIP3   OH2 4340   6.463   5.308   0.605  0.1422  0.3566  0.0088
 1459TIP3    H1 4341   6.436   5.359   0.529  2.4140  0.1187 -1.0087
 1459TIP3    H2 4342   6.433   5.219   0.586 -0.0952  0.4762 -0.1769
 1460TIP3   OH2 4343   4.643   4.757   1.252  0.7264 -0.0668  0.2461
 1460TIP3    H1 4344   4.608   4.736   1.165  0.3050 -0.2063  0.4447
 1460TIP3    H2 4345   4.610   4.844   1.271 -1.9120 -1.2898  1.6234
 1461TIP3   OH2 4346   4.111   4.549   0.050  0.2890 -0.4570  0.1358
 1461TIP3    H1 4347   4.157   4.631   0.066 -1.1824 -0.2086  3.5794
 1461TIP3    H2 4348   4.022   4.575   0.028 -0.3740 -1.0843  1.9450
 1462TIP3   OH2 4349   4.456   6.933   0.073 -0.0211  0.1067 -0.0392
 1462TIP3    H1 4350   4.436   7.010   0.126 -2.0450 -0.3889 -0.0435
 1462TIP3    H2 4351   4.459   6.966  -0.017  0.3349  0.3940  0.0767
 1463TIP3   OH2 4352   1.895   1.842   4.825  0.0596 -0.0732 -0.8600
 1463TIP3    H1 4353   1.894   1.756   4.867 -0.7721 -0.0482 -0.8167
 1463TIP3    H2 4354   1.987   1.858   4.805  0.6605  0.4910  2.1198
 1464TIP3   OH2 4355   0.446   6.140   5.459  0.3761  0.1321 -0.1936
 1464TIP3    H1 4356   0.422   6.137   5.366  0.4072 -0.8368 -0.1687
 1464TIP3    H2 4357   0.400   6.217   5.493 -2.0813 -1.2241 -0.3234
 1465TIP3   OH2 4358   1.444   2.896   2.024  0.2157 -0.3133  0.0171
 1465TIP3    H1 4359   1.431   2.909   1.930 -0.6765 -0.7824  0.0661
 1465TIP3    H2 4360   1.518   2.952   2.047  0.5614 -0.3532 -1.0047
 1466TIP3   OH2 4361   1.288   2.891   5.879 -0.1588 -0.0327 -0.7151
 1466TIP3    H1 4362   1.246   2.890   5.965  0.6506  0.3556 -0.3079
 1466TIP3    H2 4363   1.311   2.800   5.862  0.6911  0.0517 -0.0140
 1467TIP3   OH2 4364   1.930   3.460   2.079 -1.0706 -0.2564 -0.4668
 1467TIP3    H1 4365   1.882   3.470   1.997 -2.5312  1.9210  0.6008
 1467TIP3    H2 4366   1.864   3.432   2.142 -0.5483  0.7811  0.5669
 1468TIP3   OH2 4367   3.337   4.902   0.895  0.3059 -0.3294  0.5195
 1468TIP3    H1 4368   3.430   4.920   0.883  0.4264 -1.2738 -0.0164
 1468TIP3    H2 4369   3.294   4.986   0.881  0.8454 -0.4254 -1.7889
 1469TIP3   OH2 4370   2.061   2.547   5.501 -0.1761 -0.0310 -0.2932
 1469TIP3    H1 4371   2.074   2.507   5.415 -2.0399 -1.0972 -0.1107
 1469TIP3    H2 4372   2.042   2.639   5.482 -0.1108 -0.1545 -0.9855
 1470TIP3   OH2 4373   6.672   2.413   4.497 -0.3845  0.1795  0.6977
 1470TIP3    H1 4374   6.658   2.491   4.443 -0.6556 -0.4603 -0.1658
 1470TIP3    H2 4375   6.588   2.368   4.496  0.4943 -1.5422 -1.0952
 1471TIP3   OH2 4376   1.204   3.515   0.618 -0.3650  0.4837 -0.1424
 1471TIP3    H1 4377   1.149   3.532   0.694  0.7714 -0.6072  0.9325
 1471TIP3    H2 4378   1.234   3.425   0.629 -1.6792 -0.3607 -2.8397
 1472TIP3   OH2 4379   0.556   2.666   5.484  0.0384  0.7666  0.0973
 1472TIP3    H1 4380   0.560   2.574   5.455  0.3820  0.4565  1.0970
 1472TIP3    H2 4381   0.607   2.714   5.419 -1.2214  0.4392 -1.1447
 1473TIP3   OH2 4382   1.114   6.117   0.731  0.4789 -0.2620 -0.6040
 1473TIP3    H1 4383   1.037   6.134   0.677 -1.0803  0.1941  1.6963
 1473TIP3    H2 4384   1.171   6.193   0.715 -0.1812  0.1163 -1.1947
 1474TIP3   OH2 4385   7.047   1.315   0.017  0.9240 -0.1449  0.0124
 1474TIP3    H1 4386   7.036   1.408  -0.001 -0.4424 -0.4241 -0.6612
 1474TIP3    H2 4387   7.118   1.311   0.082 -0.4012  1.5010  1.6226
 1475TIP3   OH2 4388   2.858   4.039   0.562 -0.0790  0.1461 -0.5668
 1475TIP3    H1 4389   2.890   4.059   0.474 -0.1915 -2.3705 -1.2220
 1475TIP3    H2 4390   2.764   4.029   0.551 -0.2161  0.7577  0.0353
 1476TIP3   OH2 4391   6.828   4.032   1.382 -0.0188  0.5591 -0.2024
 1476TIP3    H1 4392   6.923   4.038   1.368 -0.0917 -0.6111 -1.3174
 1476TIP3    H2 4393   6.799   3.969   1.316 -1.4548  0.2921  0.6818
 1477TIP3   OH2 4394   5.669   4.451   5.880 -0.2180 -0.5735  0.4502
 1477TIP3    H1 4395   5.613   4.494   5.814 -0.0876 -1.3609 -0.1811
 1477TIP3    H2 4396   5.614   4.382   5.916 -1.4044  1.8011  3.4492
 1478TIP3   OH2 4397   0.720   5.067   5.324  0.5516  0.0021  0.0071
 1478TIP3    H1 4398   0.729   5.153   5.282  0.8655 -0.6168 -1.2070
 1478TIP3    H2 4399   0.695   5.088   5.414  0.3419  1.3653 -0.3435
 1479TIP3   OH2 4400   3.221   1.417   0.997 -0.0968 -0.4492 -0.1845
 1479TIP3    H1 4401   3.262   1.351   0.940  0.7304  1.2857 -1.6743
 1479TIP3    H2 4402   3.137   1.434   0.956 -0.2859 -0.5308  0.1702
 1480TIP3   OH2 4403   2.458   5.906   0.466  0.1377 -0.0088  0.1578
 1480TIP3    H1 4404   2.499   5.898   0.380 -0.9350  1.1239 -0.4670
 1480TIP3    H2 4405   2.507   5.844   0.521  3.3811  2.0230 -0.2783
 1481TIP3   OH2 4406   1.227   1.333   6.004  0.3993  0.2259  0.0593
 1481TIP3    H1 4407   1.169   1.406   5.981  1.0769  0.5398 -0.6613
 1481TIP3    H2 4408   1.170   1.271   6.050 -0.6983  0.1869 -1.3030
 1482TIP3   OH2 4409   2.785   4.820   1.557  0.6330 -0.1523  0.5422
 1482TIP3    H1 4410   2.748   4.742   1.516  1.5562 -0.4030  0.1659
 1482TIP3    H2 4411   2.848   4.786   1.621 -1.5214  0.2061  2.9136
 1483TIP3   OH2 4412   0.689   0.387   6.025 -0.7154  0.5737 -0.2563
 1483TIP3    H1 4413   0.659   0.330   6.095 -1.1366  0.1945 -0.7477
 1483TIP3    H2 4414   0.611   0.433   5.995 -1.1436 -1.5410 -2.5774
 1484TIP3   OH2 4415   0.127   1.518   5.346 -0.5274 -0.1965  0.3701
 1484TIP3    H1 4416   0.223   1.514   5.339 -0.4978  0.4230  0.3750
 1484TIP3    H2 4417   0.106   1.456   5.415 -0.1346 -0.3981  0.3141
 1485TIP3   OH2 4418   1.269   2.660   3.884 -0.3234  0.2133  0.1848
 1485TIP3    H1 4419   1.276   2.575   3.927  0.7146  1.6561  3.0171
 1485TIP3    H2 4420   1.354   2.672   3.840  0.6178  0.9995  2.1822
 1486TIP3   OH2 4421   2.396   5.585   0.446  0.9333  0.4893 -0.1020
 1486TIP3    H1 4422   2.450   5.635   0.507  0.6153  0.4008  0.2574
 1486TIP3    H2 4423   2.457   5.553   0.380  0.9879  2.2938 -0.9627
 1487TIP3   OH2 4424   2.243   4.328   1.454  0.4937 -0.3694 -0.8145
 1487TIP3    H1 4425   2.229   4.357   1.545 -0.7207 -0.7875 -0.8559
 1487TIP3    H2 4426   2.330   4.360   1.432  0.0264  1.4010 -0.1438
 1488TIP3   OH2 4427   3.458   4.657   5.735 -0.3862 -0.2320 -0.4929
 1488TIP3    H1 4428   3.391   4.649   5.803 -1.8459  0.6388 -1.7918
 1488TIP3    H2 4429   3.472   4.568   5.704  0.2680 -0.6368  0.8841
 1489TIP3   OH2 4430   0.139   2.165   0.527 -0.2465 -0.2421  0.1360
 1489TIP3    H1 4431   0.123   2.070   0.522  0.7372 -0.4094  0.1733
 1489TIP3    H2 4432   0.199   2.183   0.455 -0.2766  0.3241  0.2521
 1490TIP3   OH2 4433   3.295   6.177   0.882  0.5558 -0.0303 -0.3626
 1490TIP3    H1 4434   3.350   6.178   0.960  0.7592 -2.3992 -0.4212
 1490TIP3    H2 4435   3.208   6.151   0.915  0.4020 -0.0305 -0.7657
 1491TIP3   OH2 4436   0.727   0.091   5.400 -0.5235 -0.2180  0.0765
 1491TIP3    H1 4437   0.780   0.082   5.479 -0.0272 -0.8766 -0.3243
 1491TIP3    H2 4438   0.744   0.181   5.370 -0.1955 -0.1878  0.3539
 1492TIP3   OH2 4439   2.954   4.077   0.308  0.6844 -0.4765  0.5867
 1492TIP3    H1 4440   3.029   4.018   0.309  0.9456 -0.1354  1.8401
 1492TIP3    H2 4441   2.929   4.081   0.215  2.2830 -0.5010  0.1220
 1493TIP3   OH2 4442   2.776   6.209   0.895  0.2697  0.1403  0.1201
 1493TIP3    H1 4443   2.717   6.195   0.969 -0.3678 -2.4878 -0.8207
 1493TIP3    H2 4444   2.774   6.304   0.880 -0.5767  0.5553  2.6404
 1494TIP3   OH2 4445   5.544   5.776   0.166  0.0152  0.3708  0.3157
 1494TIP3    H1 4446   5.560   5.769   0.260  0.6887  0.3604  0.2029
 1494TIP3    H2 4447   5.623   5.816   0.131 -0.5671  1.1397 -0.1353
 1495TIP3   OH2 4448   4.664   4.307   3.715  0.2009  0.0174  1.0164
 1495TIP3    H1 4449   4.758   4.294   3.733 -0.3063 -1.5419  2.7582
 1495TIP3    H2 4450   4.641   4.232   3.660  0.0038  0.4676  0.4929
 1496TIP3   OH2 4451   6.441   4.429   1.985 -0.4298  0.2831 -0.0686
 1496TIP3    H1 4452   6.421   4.521   2.006  3.3387  0.9895  0.8970
 1496TIP3    H2 4453   6.444   4.426   1.890  2.5264  2.0018 -0.1019
 1497TIP3   OH2 4454   6.777   3.142   0.532  0.2178 -0.5764  0.2073
 1497TIP3    H1 4455   6.706   3.098   0.483  0.1121 -0.8244  0.5857
 1497TIP3    H2 4456   6.857   3.109   0.492  0.1070  0.5613 -0.9783
 1498TIP3   OH2 4457   0.717   6.973   0.239 -0.4133 -0.0949 -0.6178
 1498TIP3    H1 4458   0.713   6.917   0.162 -0.3394 -1.1226  0.1197
 1498TIP3    H2 4459   0.808   7.002   0.243 -0.5723  0.5263 -1.3019
 1499TIP3   OH2 4460   6.037   2.990   2.015 -0.0204 -0.0114 -0.4764
 1499TIP3    H1 4461   5.997   2.942   1.943 -0.7010  0.5340 -0.4618
 1499TIP3    H2 4462   6.034   3.082   1.988  2.3781 -0.0662 -1.0502
 1500TIP3   OH2 4463   2.893   3.717   5.902 -0.0297 -0.3643 -0.3500
 1500TIP3    H1 4464   2.809   3.737   5.941  0.0619  0.6082 -0.6491
 1500TIP3    H2 4465   2.921   3.636   5.946 -0.3056  0.2565  0.9877
 1501TIP3   OH2 4466   5.053   4.866   1.030  0.4653  0.1656 -0.0014
 1501TIP3    H1 4467   5.091   4.817   0.957  0.4470  0.0470  0.0676
 1501TIP3    H2 4468   5.048   4.956   0.999 -1.3291 -0.1974 -0.8638
 1502TIP3   OH2 4469   1.951   5.334   0.951  0.0141  0.2259 -0.1148
 1502TIP3    H1 4470   1.891   5.300   1.017  1.1369  4.7614  3.5219
 1502TIP3    H2 4471   1.895   5.353   0.875 -2.4709  0.7031  1.7787
 1503TIP3   OH2 4472   2.608   3.004   2.199  0.0240 -0.3652  0.6333
 1503TIP3    H1 4473   2.614   3.081   2.142  3.0647  1.0007  2.6925
 1503TIP3    H2 4474   2.600   3.040   2.288 -3.0111 -2.4513  1.3116
 1504TIP3   OH2 4475   3.181   0.352   1.876 -0.0407  0.6978  0.4211
 1504TIP3    H1 4476   3.133   0.273   1.903 -0.0374  0.7659  0.6270
 1504TIP3    H2 4477   3.174   0.411   1.951 -0.7479  1.2169 -0.0559
 1505TIP3   OH2 4478   3.083   6.234   1.270  0.0835 -0.4703 -0.0440
 1505TIP3    H1 4479   3.144   6.306   1.252 -1.2311  0.3781 -1.2765
 1505TIP3    H2 4480   3.083   6.183   1.189 -1.4718  0.0374 -0.3867
 1506TIP3   OH2 4481   3.503   5.091   1.158  0.6249  0.8609 -0.2823
 1506TIP3    H1 4482   3.536   5.112   1.245  2.3043 -0.6279 -0.5290
 1506TIP3    H2 4483   3.435   5.025   1.173  1.3565  0.1334 -0.1350
 1507TIP3   OH2 4484   6.499   3.033   5.847 -0.4200 -0.3508  0.2249
 1507TIP3    H1 4485   6.440   2.962   5.822 -0.6626  0.1054 -0.5251
 1507TIP3    H2 4486   6.553   3.047   5.769 -0.7067  0.6167  0.1949
 1508TIP3   OH2 4487   3.650   6.207   0.605 -0.5800 -0.3870 -0.3474
 1508TIP3    H1 4488   3.574   6.252   0.568 -1.9629 -1.5975  0.9522
 1508TIP3    H2 4489   3.615   6.125   0.639  0.9268 -0.0302  2.1961
 1509TIP3   OH2 4490   0.915   5.053   4.371  0.1222 -0.5116 -0.7016
 1509TIP3    H1 4491   0.839   5.070   4.315  0.6662  0.6017 -1.1130
 1509TIP3    H2 4492   0.990   5.079   4.318  0.6929 -0.1765  0.2584
 1510TIP3   OH2 4493   7.054   5.548   0.626  0.3493  0.0435 -0.2849
 1510TIP3    H1 4494   7.043   5.453   0.634  0.2143  0.1381  0.6673
 1510TIP3    H2 4495   7.144   5.559   0.595  0.8124 -0.3298  0.9205
 1511TIP3   OH2 4496   3.998   0.930   1.191 -0.0250 -0.0088  0.3954
 1511TIP3    H1 4497   4.070   0.885   1.235  1.1315  0.4904 -0.9529
 1511TIP3    H2 4498   3.969   0.868   1.124  0.0535  0.3140  0.0574
 1512TIP3   OH2 4499   2.387   5.561   3.114  0.1766  0.1636 -0.3172
 1512TIP3    H1 4500   2.352   5.600   3.194 -0.0560  1.5308 -1.0484
 1512TIP3    H2 4501   2.470   5.521   3.140  0.4806  1.2664  0.4616
 1513TIP3   OH2 4502   1.583   5.742   1.467  0.0902  0.7695 -0.3665
 1513TIP3    H1 4503   1.549   5.823   1.504 -0.9476  0.3086 -0.3065
 1513TIP3    H2 4504   1.620   5.695   1.542 -1.1058  0.2906 -0.0687
 1514TIP3   OH2 4505   4.841   4.424   0.561 -0.9146 -0.2570 -0.0912
 1514TIP3    H1 4506   4.763   4.438   0.507 -1.8632  0.9286  1.5276
 1514TIP3    H2 4507   4.874   4.512   0.578 -0.2308 -0.6622  0.7004
 1515TIP3   OH2 4508   5.551   6.016   3.297 -0.7245 -0.5861  0.1195
 1515TIP3    H1 4509   5.541   6.090   3.238 -0.4229 -0.5347  0.1341
 1515TIP3    H2 4510   5.462   5.983   3.309 -0.8614 -0.2212  0.1202
 1516TIP3   OH2 4511   0.080   0.640   2.845 -0.4738  0.0589  0.1704
 1516TIP3    H1 4512   0.110   0.590   2.921  0.4483  1.2193  0.5989
 1516TIP3    H2 4513   0.061   0.727   2.880  1.5212  1.0864 -1.2048
 1517TIP3   OH2 4514   1.136   2.870   3.158  0.5201  0.1728 -0.2310
 1517TIP3    H1 4515   1.085   2.810   3.104 -0.1361  1.2015 -0.7899
 1517TIP3    H2 4516   1.129   2.836   3.247  0.8138 -1.0063 -0.6598
 1518TIP3   OH2 4517   6.656   6.969   3.758  0.2296 -0.3538  0.5046
 1518TIP3    H1 4518   6.671   6.906   3.829  0.9491 -0.7034  0.0467
 1518TIP3    H2 4519   6.582   7.022   3.788 -0.8538 -1.8846  0.5957
 1519TIP3   OH2 4520   6.135   6.292   3.853 -0.5899 -0.1691 -0.2097
 1519TIP3    H1 4521   6.045   6.278   3.824 -0.6172 -1.0095  0.2333
 1519TIP3    H2 4522   6.135   6.262   3.944  0.1329 -0.1745 -0.2085
 1520TIP3   OH2 4523   5.230   5.196   1.608 -0.5653  0.5047 -0.1204
 1520TIP3    H1 4524   5.199   5.123   1.554 -0.1187 -0.6282  1.1320
 1520TIP3    H2 4525   5.294   5.241   1.553 -0.4852 -0.3365 -0.7188
 1521TIP3   OH2 4526   0.326   0.972   2.430  0.0383  0.1918 -0.2012
 1521TIP3    H1 4527   0.312   1.048   2.486 -1.4306 -0.1360 -0.1169
 1521TIP3    H2 4528   0.399   0.925   2.472 -1.5544 -0.4724  1.9300
 1522TIP3   OH2 4529   6.306   6.198   2.899 -0.1249 -0.2292 -0.1866
 1522TIP3    H1 4530   6.216   6.178   2.925  0.2246 -0.6999  0.6688
 1522TIP3    H2 4531   6.324   6.136   2.828 -1.1413  1.1907 -1.7373
 1523TIP3   OH2 4532   2.537   1.977   2.922 -0.1891 -0.2008 -0.0837
 1523TIP3    H1 4533   2.564   2.053   2.974  1.1407 -0.6904 -0.0190
 1523TIP3    H2 4534   2.514   2.013   2.837 -1.6458  0.5207  0.6086
 1524TIP3   OH2 4535   0.902   1.380   4.879  0.3069  0.1545  0.7480
 1524TIP3    H1 4536   0.851   1.433   4.818 -0.6171  0.5722  1.8662
 1524TIP3    H2 4537   0.930   1.441   4.947  1.3798 -0.2965  0.7167
 1525TIP3   OH2 4538   1.932   0.231   2.990 -0.0330 -0.0528 -0.1406
 1525TIP3    H1 4539   1.855   0.250   3.043 -0.6605  0.5659 -1.2534
 1525TIP3    H2 4540   1.897   0.197   2.908  0.8325  1.3923 -1.1273
 1526TIP3   OH2 4541   6.260   6.173   3.318  0.2921  0.0943  0.1355
 1526TIP3    H1 4542   6.249   6.190   3.411  1.6677  0.8692  0.1721
 1526TIP3    H2 4543   6.326   6.236   3.290 -1.1224  0.8269 -1.6623
 1527TIP3   OH2 4544   0.324   6.285   4.247 -0.4076  0.6149 -0.1060
 1527TIP3    H1 4545   0.370   6.337   4.182 -0.5066  1.0984  0.2114
 1527TIP3    H2 4546   0.231   6.297   4.228 -0.4276  0.3941 -0.1557
 1528TIP3   OH2 4547   0.265   6.432   3.425 -0.5274 -0.5101  0.4649
 1528TIP3    H1 4548   0.356   6.421   3.453 -0.5791 -1.8118  0.1498
 1528TIP3    H2 4549   0.270   6.489   3.349  0.1936 -1.8393 -0.5074
 1529TIP3   OH2 4550   6.281   0.639   2.726  0.0863 -0.4096  0.0062
 1529TIP3    H1 4551   6.317   0.560   2.685  0.1143 -0.9201  0.9940
 1529TIP3    H2 4552   6.246   0.608   2.809 -0.7931  0.4526 -0.0428
 1530TIP3   OH2 4553   2.462   0.852   2.107  0.4223  0.6173 -0.5900
 1530TIP3    H1 4554   2.505   0.767   2.119  1.1111  1.0433 -0.0132
 1530TIP3    H2 4555   2.384   0.832   2.055 -0.4543 -0.6625  1.1768
 1531TIP3   OH2 4556   0.329   5.589   5.051  0.6621  0.1161  0.1145
 1531TIP3    H1 4557   0.401   5.526   5.054  0.5991  0.0005 -0.6222
 1531TIP3    H2 4558   0.361   5.659   4.993  1.3447  1.5540  2.1524
 1532TIP3   OH2 4559   5.206   6.950   2.427 -0.0933 -0.0518 -0.8893
 1532TIP3    H1 4560   5.247   6.864   2.433  1.0341  0.5691  0.4567
 1532TIP3    H2 4561   5.118   6.932   2.394 -0.3831 -1.8887  0.7931
 1533TIP3   OH2 4562   0.850   1.097   4.995  0.0638  0.0284  0.2978
 1533TIP3    H1 4563   0.933   1.065   4.962 -0.5101 -0.1659 -1.0019
 1533TIP3    H2 4564   0.854   1.191   4.983 -0.3393 -0.0880 -0.8224
 1534TIP3   OH2 4565   1.703   0.011   3.057 -0.1117 -0.4871  0.2639
 1534TIP3    H1 4566   1.682  -0.012   3.148  1.5010  1.0508  1.0492
 1534TIP3    H2 4567   1.793   0.043   3.061 -1.1724  2.8647 -1.2748
 1535TIP3   OH2 4568   0.640   1.394   3.313  0.0256  0.1926 -0.2846
 1535TIP3    H1 4569   0.644   1.432   3.401 -1.1261  1.5969 -0.8092
 1535TIP3    H2 4570   0.716   1.337   3.308  0.6085  0.7930  1.3130
 1536TIP3   OH2 4571   6.612   5.144   4.698  0.4186  0.1878 -0.4191
 1536TIP3    H1 4572   6.645   5.181   4.780 -0.2885 -2.2709  1.0285
 1536TIP3    H2 4573   6.681   5.083   4.670 -1.3310 -2.4756  0.8617
 1537TIP3   OH2 4574   6.732   0.526   3.831 -0.0784  0.0809  0.0857
 1537TIP3    H1 4575   6.752   0.580   3.907  0.6847  0.8551 -0.6547
 1537TIP3    H2 4576   6.749   0.583   3.756  0.0349 -0.9570 -0.6863
 1538TIP3   OH2 4577   0.088   6.536   5.521 -0.2329  0.6120 -0.2158
 1538TIP3    H1 4578   0.115   6.468   5.460  0.5664  1.9198 -1.3595
 1538TIP3    H2 4579  -0.006   6.524   5.531 -0.0553 -0.8554 -0.1248
 1539TIP3   OH2 4580   6.001   6.947   5.828 -0.3797  0.4545 -0.4303
 1539TIP3    H1 4581   5.937   6.877   5.840 -0.6267  0.4974 -1.4643
 1539TIP3    H2 4582   6.064   6.911   5.765 -0.1591  0.9359 -0.4898
 1540TIP3   OH2 4583   6.645   6.562   4.130  0.0252  0.2356  0.0254
 1540TIP3    H1 4584   6.698   6.636   4.159  0.9123 -0.8215  1.1785
 1540TIP3    H2 4585   6.599   6.533   4.210 -0.9305  0.0479 -0.5835
 1541TIP3   OH2 4586   2.741   0.548   3.485  0.1180  0.1180  0.3511
 1541TIP3    H1 4587   2.646   0.551   3.496  0.0774  0.7475 -0.1314
 1541TIP3    H2 4588   2.754   0.515   3.396  0.3529  0.2048  0.3519
 1542TIP3   OH2 4589   1.445   0.490   0.230  0.0855  0.0169 -0.1318
 1542TIP3    H1 4590   1.381   0.518   0.164  0.7916  0.1904 -0.7553
 1542TIP3    H2 4591   1.526   0.534   0.204  0.8533 -1.4758 -0.2801
 1543TIP3   OH2 4592   0.777   0.035   4.291 -0.4846  0.1121 -0.2995
 1543TIP3    H1 4593   0.790  -0.030   4.360  0.0576  0.6892  0.1557
 1543TIP3    H2 4594   0.841   0.012   4.224 -1.9481 -1.2726 -1.2343
 1544TIP3   OH2 4595   0.364   1.675   3.033  0.5578 -0.4289  0.3171
 1544TIP3    H1 4596   0.311   1.747   2.998  0.0942 -1.0979 -0.3677
 1544TIP3    H2 4597   0.331   1.662   3.122 -0.7678 -1.1374 -0.2519
 1545TIP3   OH2 4598   1.919   1.549   3.644  0.1204 -0.4280  0.6462
 1545TIP3    H1 4599   1.958   1.573   3.727  0.6123  1.5970 -0.1558
 1545TIP3    H2 4600   1.983   1.491   3.603  0.4914 -0.3054  1.0549
 1546TIP3   OH2 4601   0.559   5.991   5.207 -0.3224  0.1301  0.5083
 1546TIP3    H1 4602   0.568   6.085   5.216  0.7542  0.1162 -0.2809
 1546TIP3    H2 4603   0.564   5.975   5.112 -2.0294 -0.5745  0.5164
 1547TIP3   OH2 4604   1.781   0.550   3.298  0.1196 -0.1050  0.1007
 1547TIP3    H1 4605   1.827   0.627   3.264  0.4055 -0.7195 -0.9220
 1547TIP3    H2 4606   1.694   0.582   3.319  0.1386  0.4317 -0.6197
 1548TIP3   OH2 4607   1.010   1.292   0.858  0.0077  0.1902  0.1198
 1548TIP3    H1 4608   1.052   1.373   0.828 -1.5241  1.0230  0.1656
 1548TIP3    H2 4609   0.956   1.319   0.932  1.1986 -1.2759  1.5592
 1549TIP3   OH2 4610   6.494   4.452   3.306 -0.5564 -0.0694  0.5702
 1549TIP3    H1 4611   6.471   4.436   3.215 -0.4313  1.4013  0.2638
 1549TIP3    H2 4612   6.585   4.425   3.314  0.1371  1.9482 -0.3274
 1550TIP3   OH2 4613   2.813   0.159   2.958  0.2571 -0.6168  0.8077
 1550TIP3    H1 4614   2.760   0.082   2.979 -1.1317  0.3534  0.9382
 1550TIP3    H2 4615   2.785   0.226   3.021  1.2871  0.0602  0.5564
 1551TIP3   OH2 4616   1.530   2.056   3.058  0.1284 -0.1708  0.1260
 1551TIP3    H1 4617   1.452   2.001   3.047  0.1480 -0.1863  0.0661
 1551TIP3    H2 4618   1.535   2.107   2.977 -0.7520  0.9999  0.7930
 1552TIP3   OH2 4619   0.326   1.434   4.542 -0.3679  0.1801 -0.2697
 1552TIP3    H1 4620   0.300   1.366   4.481 -0.2695 -0.2187  0.1276
 1552TIP3    H2 4621   0.244   1.466   4.580 -0.3019 -0.9786  0.8793
 1553TIP3   OH2 4622   5.305   6.667   3.290 -0.4228  0.0636  0.6387
 1553TIP3    H1 4623   5.286   6.680   3.197 -0.7040  0.7039  0.7778
 1553TIP3    H2 4624   5.347   6.749   3.317 -0.6618  0.0154  1.1582
 1554TIP3   OH2 4625   0.897   0.494   1.858 -0.2491  0.2943 -0.3830
 1554TIP3    H1 4626   0.981   0.456   1.835 -0.5282 -0.8805  0.4475
 1554TIP3    H2 4627   0.893   0.577   1.811  1.0109 -0.0357 -1.0717
 1555TIP3   OH2 4628   1.621   0.762   3.784 -0.2844  0.7010 -0.2521
 1555TIP3    H1 4629   1.693   0.729   3.731 -1.3341  2.0725 -2.5869
 1555TIP3    H2 4630   1.653   0.844   3.820  0.3652 -0.1446  1.1346
 1556TIP3   OH2 4631   6.186   6.590   5.198 -0.1847  0.0729  0.5418
 1556TIP3    H1 4632   6.170   6.616   5.107  1.0498  1.7515  0.7759
 1556TIP3    H2 4633   6.129   6.646   5.250  1.6908  1.6544  0.9828
 1557TIP3   OH2 4634   6.094   6.733   3.940 -0.4802 -0.1949  1.1008
 1557TIP3    H1 4635   6.058   6.650   3.970 -0.8996  0.1733  1.6330
 1557TIP3    H2 4636   6.094   6.789   4.018  0.8189 -0.0387  1.0116
 1558TIP3   OH2 4637   6.608   6.201   3.081  0.1653  0.0606 -0.3174
 1558TIP3    H1 4638   6.569   6.134   3.026  0.3308 -0.3111  0.0166
 1558TIP3    H2 4639   6.682   6.157   3.124  0.9222  0.7340 -0.8996
 1559TIP3   OH2 4640   1.054   0.397   3.255  0.2920 -0.0379 -0.2309
 1559TIP3    H1 4641   1.122   0.413   3.321 -0.2754  0.5955  0.2161
 1559TIP3    H2 4642   0.993   0.337   3.298 -0.0147  0.2797 -0.2230
 1560TIP3   OH2 4643   6.492   0.870   2.823  0.4188  0.0924 -0.4505
 1560TIP3    H1 4644   6.475   0.957   2.786  2.8694  0.8714  0.1280
 1560TIP3    H2 4645   6.565   0.837   2.771  0.2082 -1.1715  0.0529
 1561TIP3   OH2 4646   0.442   0.651   5.546 -0.0266  0.0701 -0.1197
 1561TIP3    H1 4647   0.523   0.702   5.540  0.2241 -0.2710  0.3671
 1561TIP3    H2 4648   0.469   0.560   5.534 -0.5756  0.0995 -1.7781
 1562TIP3   OH2 4649   0.373   0.360   3.990 -0.0984 -0.3809  0.3112
 1562TIP3    H1 4650   0.358   0.310   3.909 -3.8319  1.4887 -0.2841
 1562TIP3    H2 4651   0.383   0.451   3.960  1.1389 -0.0396  1.7498
 1563TIP3   OH2 4652   0.593   6.838   2.495 -0.2488 -0.0688 -0.1031
 1563TIP3    H1 4653   0.548   6.922   2.483  0.6402  0.5558  0.7386
 1563TIP3    H2 4654   0.614   6.836   2.589  1.7483 -0.1665 -0.5297
 1564TIP3   OH2 4655   7.218   0.557   3.896 -0.1047 -0.4425  0.4125
 1564TIP3    H1 4656   7.154   0.507   3.946 -0.4965  1.7300  2.1557
 1564TIP3    H2 4657   7.230   0.508   3.815  0.8350 -4.2787  2.7713
 1565TIP3   OH2 4658   6.144   6.135   5.971  0.3703 -0.1666 -0.7043
 1565TIP3    H1 4659   6.095   6.053   5.977  1.0287 -0.4639  0.8350
 1565TIP3    H2 4660   6.228   6.111   5.931  0.3609 -0.1494 -0.7353
 1566TIP3   OH2 4661   6.805   6.567   2.667 -0.0732  0.0311  0.4311
 1566TIP3    H1 4662   6.711   6.573   2.648  0.0390  1.9532  0.3400
 1566TIP3    H2 4663   6.814   6.605   2.755  0.7639  1.1051 -0.1000
 1567TIP3   OH2 4664   3.987   2.739   0.557  0.4469  0.1559  0.4142
 1567TIP3    H1 4665   3.998   2.824   0.515 -0.5753  0.2046  0.2343
 1567TIP3    H2 4666   3.979   2.677   0.485 -1.9771  0.3267  0.4901
 1568TIP3   OH2 4667   6.701   5.507   2.669  0.1460 -0.3144 -0.0558
 1568TIP3    H1 4668   6.642   5.454   2.723  1.3459 -0.8395  0.7886
 1568TIP3    H2 4669   6.717   5.585   2.721  0.3453 -0.2651 -0.1904
 1569TIP3   OH2 4670   1.149   5.984   5.106 -0.4332  0.3000 -0.0746
 1569TIP3    H1 4671   1.236   5.983   5.145 -0.0760  0.6074 -0.8651
 1569TIP3    H2 4672   1.091   5.952   5.176  0.2840  0.2587  0.5032
 1570TIP3   OH2 4673   6.289   5.842   2.982  0.4164  0.7048 -0.3416
 1570TIP3    H1 4674   6.193   5.839   2.975  0.3135 -0.0734  1.0891
 1570TIP3    H2 4675   6.305   5.879   3.069  1.4162  0.2257 -0.3189
 1571TIP3   OH2 4676   4.589   4.413   0.325  0.2378  0.1621  0.2546
 1571TIP3    H1 4677   4.639   4.494   0.317 -0.3004  0.4011 -0.7372
 1571TIP3    H2 4678   4.501   4.436   0.298 -0.4775 -0.2262  2.1460
 1572TIP3   OH2 4679   0.669   6.840   2.754 -0.5593 -0.4588  0.2538
 1572TIP3    H1 4680   0.757   6.878   2.759 -0.1841 -1.3679  0.6720
 1572TIP3    H2 4681   0.661   6.788   2.834 -1.1801 -0.9969 -0.1559
 1573TIP3   OH2 4682   1.747   0.927   4.590  0.0273  0.3080  0.0352
 1573TIP3    H1 4683   1.762   1.013   4.630 -1.3071  1.4617 -1.8577
 1573TIP3    H2 4684   1.717   0.872   4.663  1.5225  1.2528  1.3966
 1574TIP3   OH2 4685   5.994   6.173   3.269  0.1286  0.4778 -0.0781
 1574TIP3    H1 4686   5.971   6.083   3.247 -0.6276  0.8830 -1.0144
 1574TIP3    H2 4687   6.087   6.170   3.291  0.8094 -0.0840 -2.8063
 1575TIP3   OH2 4688   7.315   5.188   4.044  0.1842  0.0831  0.5455
 1575TIP3    H1 4689   7.373   5.125   4.087  0.5485  0.1325  0.1251
 1575TIP3    H2 4690   7.256   5.217   4.114 -0.3769 -1.1817  0.6097
 1576TIP3   OH2 4691   0.081   0.486   5.848 -0.3247  0.0055 -0.0292
 1576TIP3    H1 4692   0.085   0.504   5.942  1.0575  2.0575 -0.4341
 1576TIP3    H2 4693   0.130   0.405   5.836 -0.4561 -0.2276  1.0175
 1577TIP3   OH2 4694   2.301   0.148   5.159  0.4712 -0.1983 -0.2447
 1577TIP3    H1 4695   2.240   0.172   5.089  0.6236 -0.0907 -0.3396
 1577TIP3    H2 4696   2.245   0.109   5.226  0.1743  0.6760  0.0349
 1578TIP3   OH2 4697   4.653   4.436   1.021  0.2076  0.2257  0.6900
 1578TIP3    H1 4698   4.631   4.529   1.022  0.2486  0.2487 -0.1791
 1578TIP3    H2 4699   4.602   4.399   0.949 -0.5324 -0.6116  1.6255
 1579TIP3   OH2 4700   2.218   0.207   4.866 -0.1275 -0.1727 -0.2566
 1579TIP3    H1 4701   2.211   0.303   4.866 -1.2028 -0.2325  1.2755
 1579TIP3    H2 4702   2.129   0.176   4.849  0.5168 -0.9176 -2.4147
 1580TIP3   OH2 4703   3.186   1.782   5.912  0.3808  0.4337  0.0387
 1580TIP3    H1 4704   3.251   1.715   5.892  0.1903  0.5255 -0.9206
 1580TIP3    H2 4705   3.237   1.855   5.949  1.0447  1.1415 -2.2181
 1581TIP3   OH2 4706   1.914   1.372   3.047  0.5233 -0.7636 -0.4199
 1581TIP3    H1 4707   1.924   1.431   2.973 -2.5028 -1.9081 -1.8108
 1581TIP3    H2 4708   1.926   1.284   3.010  2.3756 -1.2044  1.1305
 1582TIP3   OH2 4709   1.396   1.144   3.915  0.0828  0.3412  0.1878
 1582TIP3    H1 4710   1.329   1.155   3.848  0.6098 -0.7268 -0.5309
 1582TIP3    H2 4711   1.348   1.139   3.998 -0.4266  4.1437  0.1914
 1583TIP3   OH2 4712   2.793   6.095   3.385 -0.5278  0.2942 -0.5343
 1583TIP3    H1 4713   2.864   6.132   3.437 -1.0599  0.5250  0.0421
 1583TIP3    H2 4714   2.713   6.122   3.431 -0.8822 -3.4538  1.2283
 1584TIP3   OH2 4715   0.586   5.344   1.705 -0.0663  0.1741 -0.3220
 1584TIP3    H1 4716   0.572   5.352   1.799 -2.4593 -2.1065 -0.4027
 1584TIP3    H2 4717   0.649   5.273   1.696  0.7572  0.9073 -0.4446
 1585TIP3   OH2 4718   4.517   1.739   1.668  0.0664  0.1093 -1.1641
 1585TIP3    H1 4719   4.459   1.689   1.611  0.6780 -1.1025 -0.7429
 1585TIP3    H2 4720   4.535   1.819   1.619 -1.7541  0.3959 -1.3950
 1586TIP3   OH2 4721   6.952   5.742   4.524 -0.3150 -0.5330 -0.3714
 1586TIP3    H1 4722   6.898   5.818   4.507 -0.8630 -0.8704 -0.1311
 1586TIP3    H2 4723   7.041   5.771   4.502 -0.3233  0.5901  1.0054
 1587TIP3   OH2 4724   0.124   0.060   1.483 -0.0770  0.1439  0.4268
 1587TIP3    H1 4725   0.036   0.075   1.449 -0.4443 -1.0984  0.8166
 1587TIP3    H2 4726   0.167   0.007   1.416  0.1675  0.2057  0.5350
 1588TIP3   OH2 4727   0.013   6.560   3.469 -0.6221  0.5939 -0.2926
 1588TIP3    H1 4728  -0.030   6.526   3.391  1.4328 -0.5010 -0.9668
 1588TIP3    H2 4729   0.106   6.549   3.453 -0.1798 -2.9440  3.6822
 1589TIP3   OH2 4730   6.974   6.583   3.952 -0.2591 -0.3434 -0.3459
 1589TIP3    H1 4731   7.065   6.556   3.947 -0.3962 -0.9754  0.3465
 1589TIP3    H2 4732   6.924   6.502   3.944 -0.7161 -0.1630  0.5394
 1590TIP3   OH2 4733   4.561   2.812   1.976  0.4585 -0.6896 -0.1322
 1590TIP3    H1 4734   4.608   2.890   2.006 -1.1820  1.0242 -1.8485
 1590TIP3    H2 4735   4.585   2.803   1.884 -2.1620  0.0004 -0.9420
 1591TIP3   OH2 4736   2.940   0.109   2.499  0.1110 -0.8629  0.3590
 1591TIP3    H1 4737   2.962   0.179   2.561  0.7150 -1.3513  0.7099
 1591TIP3    H2 4738   2.845   0.105   2.500  0.0448  0.4034 -0.1693
 1592TIP3   OH2 4739   3.517   1.464   2.115  0.2671  0.0740 -0.6004
 1592TIP3    H1 4740   3.562   1.395   2.165  0.8969  1.0836  0.2405
 1592TIP3    H2 4741   3.584   1.531   2.102 -0.4853  0.7545 -0.9832
 1593TIP3   OH2 4742   6.781   6.000   3.752  0.2176  0.1442 -0.1338
 1593TIP3    H1 4743   6.736   6.083   3.769  0.3664  0.7252 -2.3837
 1593TIP3    H2 4744   6.744   5.970   3.669 -0.7671 -2.7112  1.2679
 1594TIP3   OH2 4745   1.468   5.673   3.515 -0.2481 -0.3128  0.3825
 1594TIP3    H1 4746   1.436   5.705   3.430 -0.4770  0.0998  0.6213
 1594TIP3    H2 4747   1.459   5.578   3.509 -3.5646 -0.1193  1.2126
 1595TIP3   OH2 4748   2.205   0.218   4.567  0.1794 -0.2031 -0.1292
 1595TIP3    H1 4749   2.222   0.280   4.497 -2.0895 -0.5831 -1.0449
 1595TIP3    H2 4750   2.199   0.271   4.646 -1.6165  0.7454 -0.8873
 1596TIP3   OH2 4751   0.229   6.426   3.044  0.5930 -0.4468 -0.0127
 1596TIP3    H1 4752   0.314   6.456   3.078 -0.4572  2.2272  0.3791
 1596TIP3    H2 4753   0.226   6.458   2.954 -0.1247 -0.3051  0.0596
 1597TIP3   OH2 4754   3.089   1.235   4.006  0.3076 -0.1411  0.4808
 1597TIP3    H1 4755   2.994   1.238   3.997  0.5087  0.1321 -1.6520
 1597TIP3    H2 4756   3.120   1.188   3.928  1.9804  0.4824  0.7471
 1598TIP3   OH2 4757   4.604   0.520   3.295 -0.3204 -0.0176  0.9443
 1598TIP3    H1 4758   4.541   0.537   3.366 -1.7470  0.3553 -0.3864
 1598TIP3    H2 4759   4.674   0.583   3.310  0.2378 -1.0675  3.0042
 1599TIP3   OH2 4760   4.004   4.346   5.963 -0.0406  0.1718 -0.1515
 1599TIP3    H1 4761   3.911   4.367   5.952  0.0784 -0.1768 -1.9812
 1599TIP3    H2 4762   4.033   4.403   6.034 -1.7024  0.1226  0.6058
 1600TIP3   OH2 4763   0.204   6.689   4.503 -0.1933 -0.3608 -0.3445
 1600TIP3    H1 4764   0.183   6.632   4.578 -0.3288  2.0331  1.4966
 1600TIP3    H2 4765   0.284   6.652   4.466  0.4930 -0.9576  1.6751
 1601TIP3   OH2 4766   3.143   0.067   3.845 -0.3699 -0.4331  0.0623
 1601TIP3    H1 4767   3.142   0.163   3.849  0.5610 -0.3997 -0.3406
 1601TIP3    H2 4768   3.164   0.047   3.754 -1.5040 -1.0317 -0.0773
 1602TIP3   OH2 4769   6.942   2.041   0.906 -0.5416 -0.1611 -0.3171
 1602TIP3    H1 4770   6.956   1.955   0.865  2.1040  0.9952 -2.0579
 1602TIP3    H2 4771   6.991   2.036   0.988  1.3916  0.2964 -1.3879
 1603TIP3   OH2 4772   3.552   2.081   3.486  0.0103 -0.8028  0.2785
 1603TIP3    H1 4773   3.482   2.021   3.459  0.1366 -0.5623 -0.5909
 1603TIP3    H2 4774   3.610   2.028   3.540  0.6120 -1.7058 -1.2318
 1604TIP3   OH2 4775   0.074   1.876   4.263  0.5444 -0.3888  0.7023
 1604TIP3    H1 4776   0.108   1.879   4.352 -0.0030 -1.2021  0.9444
 1604TIP3    H2 4777   0.009   1.805   4.264 -0.8085  0.8050  0.1428
 1605TIP3   OH2 4778   4.347   1.726   2.509 -0.9346  0.2582  0.1877
 1605TIP3    H1 4779   4.287   1.651   2.509  1.2814 -1.5663  0.4609
 1605TIP3    H2 4780   4.327   1.772   2.427 -1.1024 -1.6252 -0.8461
 1606TIP3   OH2 4781   2.280   0.577   2.978 -0.0885  0.2164 -0.8095
 1606TIP3    H1 4782   2.309   0.635   2.907 -0.5780  0.9388 -0.4208
 1606TIP3    H2 4783   2.254   0.496   2.933 -2.3915  1.3920 -1.7080
 1607TIP3   OH2 4784   7.107   2.506   0.892  0.4681 -0.4003  0.5669
 1607TIP3    H1 4785   7.051   2.485   0.967 -1.8559 -0.5257 -1.1402
 1607TIP3    H2 4786   7.052   2.561   0.836  1.4464 -1.9386 -1.9810
 1608TIP3   OH2 4787   0.726   0.015   1.535 -0.1044  0.4389  0.0455
 1608TIP3    H1 4788   0.679   0.098   1.528 -1.8088 -0.4881  0.1196
 1608TIP3    H2 4789   0.707  -0.015   1.624  2.2739  0.9903  0.7687
 1609TIP3   OH2 4790   3.459   0.696   3.648 -0.4147 -0.3619 -0.2959
 1609TIP3    H1 4791   3.429   0.611   3.616 -0.7037 -0.3819  0.0234
 1609TIP3    H2 4792   3.530   0.675   3.709 -1.6151 -0.4792  1.0897
 1610TIP3   OH2 4793   3.495   2.316   2.812 -0.4902  0.1620 -0.4413
 1610TIP3    H1 4794   3.475   2.372   2.888 -1.3012 -0.6530 -0.0411
 1610TIP3    H2 4795   3.500   2.228   2.848  0.7958 -0.0389 -1.0721
 1611TIP3   OH2 4796   2.091   0.127   2.652  0.4936  0.0275  0.1947
 1611TIP3    H1 4797   2.040   0.053   2.619  1.1893 -0.5412  0.3693
 1611TIP3    H2 4798   2.166   0.086   2.697  1.6799  0.8578 -1.0043
 1612TIP3   OH2 4799   0.551   0.171   3.057 -0.8770  0.2068  0.0184
 1612TIP3    H1 4800   0.514   0.259   3.053 -1.6149 -0.1516 -1.3021
 1612TIP3    H2 4801   0.595   0.159   2.974 -0.6586 -0.6204  0.2428
 1613TIP3   OH2 4802   5.866   6.011   4.541 -0.3261  0.1214  0.5915
 1613TIP3    H1 4803   5.883   6.085   4.483 -1.7826  0.2730  0.3598
 1613TIP3    H2 4804   5.842   5.939   4.483  0.2046 -0.3019  0.8813
 1614TIP3   OH2 4805   1.806   6.213   3.265  0.3101  0.9670  0.0378
 1614TIP3    H1 4806   1.841   6.284   3.211  0.0143  1.0644 -0.0266
 1614TIP3    H2 4807   1.778   6.147   3.201 -0.3612  1.2310  0.0583
 1615TIP3   OH2 4808   2.416   1.103   2.050 -0.9590 -0.1818  0.3304
 1615TIP3    H1 4809   2.438   1.014   2.079  1.6267  0.3688  0.2183
 1615TIP3    H2 4810   2.408   1.096   1.955 -0.0818 -0.1990  0.2477
 1616TIP3   OH2 4811   0.691   0.770   3.308  0.5154  0.0447  0.2287
 1616TIP3    H1 4812   0.759   0.772   3.240 -0.0328 -0.4518 -0.3413
 1616TIP3    H2 4813   0.738   0.790   3.389  1.6270 -1.7712  0.0734
 1617TIP3   OH2 4814   4.369   0.779   1.465 -0.5420  0.1703  0.0138
 1617TIP3    H1 4815   4.276   0.780   1.442 -0.5034  0.1747 -0.1403
 1617TIP3    H2 4816   4.378   0.849   1.530 -0.2835  1.4149 -1.3467
 1618TIP3   OH2 4817   1.736   1.067   3.344 -0.5294 -0.0958 -0.5600
 1618TIP3    H1 4818   1.821   1.034   3.371 -2.0633 -2.8132  1.2588
 1618TIP3    H2 4819   1.751   1.106   3.258  2.6003 -0.1546 -0.0808
 1619TIP3   OH2 4820   2.588   1.445   4.000  0.0619  0.0818  0.2863
 1619TIP3    H1 4821   2.547   1.525   4.033 -1.3315 -0.4589 -0.1110
 1619TIP3    H2 4822   2.554   1.435   3.911 -0.1957 -1.2219  0.5179
 1620TIP3   OH2 4823   7.350   1.757   5.251 -0.1575 -0.1571 -0.2689
 1620TIP3    H1 4824   7.337   1.799   5.335 -1.3385  2.1473 -1.5618
 1620TIP3    H2 4825   7.417   1.690   5.267  1.0453  1.5640  2.0594
 1621TIP3   OH2 4826   5.240   6.770   2.047 -0.0436 -0.0871  0.0539
 1621TIP3    H1 4827   5.299   6.732   2.112 -0.5169 -0.4375  0.2762
 1621TIP3    H2 4828   5.293   6.837   2.003  0.5196 -0.4044  0.2513
 1622TIP3   OH2 4829   3.523   1.223   3.161  0.2075 -0.2745 -0.0592
 1622TIP3    H1 4830   3.592   1.184   3.108 -0.9923 -0.9280 -1.1566
 1622TIP3    H2 4831   3.480   1.286   3.104 -0.1288  0.1131  0.6100
 1623TIP3   OH2 4832   2.255   0.451   2.540 -0.0685  0.1279  0.2644
 1623TIP3    H1 4833   2.312   0.374   2.546 -0.7292 -0.2553  1.9922
 1623TIP3    H2 4834   2.301   0.511   2.481  1.0282 -1.0905 -0.1508
 1624TIP3   OH2 4835   0.631   1.513   4.278  0.8363 -0.1462  0.1923
 1624TIP3    H1 4836   0.678   1.570   4.218  1.2934  0.4306  1.0823
 1624TIP3    H2 4837   0.604   1.438   4.224 -0.0812  1.0658 -1.0614
 1625TIP3   OH2 4838   4.862   4.554   5.364  0.2960 -0.1498  0.0997
 1625TIP3    H1 4839   4.798   4.535   5.432 -0.7673  0.1092 -0.8117
 1625TIP3    H2 4840   4.928   4.484   5.373  1.6950  1.4867  3.1865
 1626TIP3   OH2 4841   1.908   2.263   2.604 -0.1354 -1.0203 -0.0237
 1626TIP3    H1 4842   1.828   2.250   2.553 -0.1864 -0.7068 -0.0286
 1626TIP3    H2 4843   1.970   2.199   2.569  0.1380 -0.1663 -1.1525
 1627TIP3   OH2 4844   4.229   0.085   2.565  0.1650 -0.3642  0.2443
 1627TIP3    H1 4845   4.170   0.026   2.517 -0.4228  1.8210 -1.8081
 1627TIP3    H2 4846   4.182   0.105   2.646 -0.7698 -0.6516 -0.2223
 1628TIP3   OH2 4847   1.566   3.544   4.445 -0.3749  0.2109 -0.5109
 1628TIP3    H1 4848   1.521   3.487   4.507 -0.3803  1.2364  0.4422
 1628TIP3    H2 4849   1.659   3.523   4.458 -0.3600  0.5881  0.0156
 1629TIP3   OH2 4850   2.016   1.130   2.958  0.3428  0.1160  0.1029
 1629TIP3    H1 4851   2.049   1.197   2.897 -0.0587 -0.1410 -0.4014
 1629TIP3    H2 4852   2.088   1.117   3.020  0.5991  0.6831 -0.0668
 1630TIP3   OH2 4853   1.529   1.027   2.175 -0.2087 -0.3647 -0.1014
 1630TIP3    H1 4854   1.552   1.103   2.122 -0.4845 -0.9847 -1.1156
 1630TIP3    H2 4855   1.612   0.981   2.189 -0.2850 -0.7447 -0.8592
 1631TIP3   OH2 4856   3.412   0.999   4.495 -0.0479  0.3991 -0.1196
 1631TIP3    H1 4857   3.420   1.092   4.516 -1.9568  0.4552  0.4944
 1631TIP3    H2 4858   3.502   0.970   4.476  0.8188  1.9379  1.5013
 1632TIP3   OH2 4859   0.467   0.224   5.290  0.0643  0.3748 -0.2808
 1632TIP3    H1 4860   0.406   0.150   5.292  0.9413 -0.3460  0.5975
 1632TIP3    H2 4861   0.532   0.198   5.224 -0.5450  1.1326 -1.2032
 1633TIP3   OH2 4862   2.747   1.265   4.500  0.0580 -0.1960  0.3997
 1633TIP3    H1 4863   2.741   1.252   4.595  0.8904  2.4238  0.8515
 1633TIP3    H2 4864   2.657   1.256   4.469 -0.6157  1.4360  1.8178
 1634TIP3   OH2 4865   2.990   1.178   2.015  0.1046 -0.1138 -0.7644
 1634TIP3    H1 4866   3.033   1.093   2.005 -0.2928 -0.1714 -2.0593
 1634TIP3    H2 4867   2.897   1.157   2.014  0.0102  0.0580  1.5873
 1635TIP3   OH2 4868   6.582   6.444   2.271 -0.1111 -0.3212 -0.5927
 1635TIP3    H1 4869   6.489   6.432   2.288 -0.0469 -0.4998 -0.3666
 1635TIP3    H2 4870   6.585   6.503   2.196 -0.4274 -1.6546 -1.6812
 1636TIP3   OH2 4871   0.647   5.706   4.495  0.0368  0.1210  0.3210
 1636TIP3    H1 4872   0.561   5.712   4.537 -0.3712 -1.8237 -0.1722
 1636TIP3    H2 4873   0.645   5.774   4.428 -0.2031  1.6663  1.8675
 1637TIP3   OH2 4874   6.714   5.702   2.870 -0.1309  0.1526 -0.2301
 1637TIP3    H1 4875   6.667   5.667   2.946 -0.7117  0.8219 -0.2800
 1637TIP3    H2 4876   6.650   5.759   2.827  0.4431  0.3596 -0.8018
 1638TIP3   OH2 4877   4.108   0.105   2.803 -0.3080 -0.0880 -0.1470
 1638TIP3    H1 4878   4.075   0.182   2.849  1.8023  0.4753  0.4921
 1638TIP3    H2 4879   4.073   0.031   2.852 -3.5132  0.3913 -1.5871
 1639TIP3   OH2 4880   3.158   6.458   4.454 -0.1396 -0.4483 -0.3781
 1639TIP3    H1 4881   3.233   6.516   4.468  0.9181 -2.0160  0.5802
 1639TIP3    H2 4882   3.196   6.377   4.421 -1.4665 -1.0824 -0.3813
 1640TIP3   OH2 4883   1.211   5.366   1.980 -0.4606  0.0473  0.2558
 1640TIP3    H1 4884   1.215   5.435   2.046  1.1647 -0.1549  0.3751
 1640TIP3    H2 4885   1.249   5.405   1.901  0.1909 -0.6109  0.2407
 1641TIP3   OH2 4886   0.740   5.132   2.118 -0.4483  0.0825  0.3442
 1641TIP3    H1 4887   0.744   5.056   2.060 -1.6245  0.5465 -0.3625
 1641TIP3    H2 4888   0.797   5.109   2.192 -2.3573 -2.3290  1.1151
 1642TIP3   OH2 4889   2.904   0.455   2.885  0.0650 -0.1636 -0.1137
 1642TIP3    H1 4890   2.895   0.363   2.859 -0.3236 -0.4605  1.0205
 1642TIP3    H2 4891   2.838   0.501   2.834  1.7448 -0.1572 -2.3396
 1643TIP3   OH2 4892   0.906   6.624   2.777  0.4311 -0.2667  0.0772
 1643TIP3    H1 4893   0.826   6.624   2.829  0.7102 -0.7823  0.5107
 1643TIP3    H2 4894   0.930   6.716   2.769 -0.3558 -0.0847 -0.2901
 1644TIP3   OH2 4895   1.940   4.197   2.621  0.3042 -0.3959 -0.3828
 1644TIP3    H1 4896   1.949   4.155   2.706  1.6807  0.6887  0.0094
 1644TIP3    H2 4897   1.968   4.287   2.635  0.3515 -0.1555 -1.9383
 1645TIP3   OH2 4898   4.226   1.494   1.690 -0.2181 -0.0207  0.0896
 1645TIP3    H1 4899   4.303   1.488   1.634 -1.4142  0.3397 -1.6406
 1645TIP3    H2 4900   4.259   1.526   1.774  1.1491  3.1398 -1.5557
 1646TIP3   OH2 4901   2.079   0.708   4.137 -0.0755  0.2267 -0.2178
 1646TIP3    H1 4902   2.024   0.755   4.074 -1.4146  0.8599  1.3856
 1646TIP3    H2 4903   2.065   0.616   4.117 -4.4533  0.2434  2.3635
 1647TIP3   OH2 4904   3.190   1.328   3.176  0.5197 -0.6105 -0.0125
 1647TIP3    H1 4905   3.253   1.350   3.108  1.5805 -1.5739  0.6459
 1647TIP3    H2 4906   3.137   1.407   3.187  0.9880 -0.1167 -1.2354
 1648TIP3   OH2 4907   0.789   6.508   4.439 -0.0120 -0.7202  0.0640
 1648TIP3    H1 4908   0.748   6.456   4.370  2.1437 -0.5434 -1.3984
 1648TIP3    H2 4909   0.873   6.465   4.456  1.5192  1.8282 -0.7150
 1649TIP3   OH2 4910   6.740   1.392   2.862  0.7550 -0.2830 -0.9672
 1649TIP3    H1 4911   6.800   1.466   2.852  1.2575 -0.8639 -2.3768
 1649TIP3    H2 4912   6.783   1.320   2.816  0.5208 -1.6098  0.8365
 1650TIP3   OH2 4913   1.889   0.741   3.661  0.5052  0.5474  0.2395
 1650TIP3    H1 4914   1.899   0.802   3.587  0.8470 -0.2715 -0.4037
 1650TIP3    H2 4915   1.882   0.655   3.619  0.0465  0.1459  1.1425
 1651TIP3   OH2 4916   2.303   1.611   2.101 -0.4640 -0.5975 -0.0699
 1651TIP3    H1 4917   2.360   1.646   2.033 -0.9867 -1.1623 -0.8038
 1651TIP3    H2 4918   2.340   1.526   2.123  0.1653 -0.0792  0.9298
 1652TIP3   OH2 4919   2.002   6.756   3.291 -0.1581 -0.2378 -0.5941
 1652TIP3    H1 4920   2.090   6.777   3.322  0.7140 -1.2097 -2.3311
 1652TIP3    H2 4921   1.973   6.683   3.345  0.8838 -1.1632 -1.2735
 1653TIP3   OH2 4922   1.750   5.267   2.016  0.5386 -0.2350 -0.1977
 1653TIP3    H1 4923   1.820   5.206   2.040 -0.6583 -1.2874  0.7603
 1653TIP3    H2 4924   1.678   5.210   1.987  0.6754  0.9003 -2.8834
 1654TIP3   OH2 4925   3.736   0.752   4.571  0.4322 -0.0663  0.0874
 1654TIP3    H1 4926   3.692   0.777   4.652  1.7164 -0.1996  0.8369
 1654TIP3    H2 4927   3.684   0.793   4.502  0.1178  1.1927  1.0525
 1655TIP3   OH2 4928   2.760  -0.004   4.915  0.4722  0.2365 -0.5506
 1655TIP3    H1 4929   2.677   0.034   4.886 -0.7642 -3.2313 -1.8621
 1655TIP3    H2 4930   2.823   0.068   4.909 -1.9690  2.3573 -1.7569
 1656TIP3   OH2 4931   6.253   6.336   5.371 -0.8597 -0.3427 -0.4626
 1656TIP3    H1 4932   6.289   6.421   5.396 -0.6750 -0.0657 -1.6426
 1656TIP3    H2 4933   6.159   6.345   5.386 -0.8611  0.1263 -0.7284
 1657TIP3   OH2 4934   6.309   5.844   4.664 -0.1500  0.1529  0.1018
 1657TIP3    H1 4935   6.225   5.858   4.707 -0.5295  0.6514 -0.8026
 1657TIP3    H2 4936   6.325   5.925   4.615 -0.2465 -0.8363 -1.5917
 1658TIP3   OH2 4937   2.496   0.506   4.222 -0.2227 -0.1412 -0.6366
 1658TIP3    H1 4938   2.551   0.546   4.289  0.8853  1.0500 -2.2471
 1658TIP3    H2 4939   2.424   0.568   4.209 -0.8660 -0.7410 -0.0062
 1659TIP3   OH2 4940   5.522   4.152   1.547 -0.3937 -0.1736 -0.0432
 1659TIP3    H1 4941   5.458   4.130   1.615  0.0603 -1.7760 -0.1194
 1659TIP3    H2 4942   5.472   4.205   1.484 -1.0542  0.5220  1.0437
 1660TIP3   OH2 4943   4.496   1.156   3.064  0.1146 -0.2895 -0.0839
 1660TIP3    H1 4944   4.542   1.224   3.114 -0.5558  0.6692 -0.7433
 1660TIP3    H2 4945   4.475   1.089   3.129  1.0104  0.0051  0.5304
 1661TIP3   OH2 4946   2.067   0.669   3.329  0.3612 -0.0357  0.1022
 1661TIP3    H1 4947   2.131   0.734   3.361  1.4285 -1.0092 -0.0242
 1661TIP3    H2 4948   2.014   0.717   3.266  2.1452  0.3405 -1.1552
 1662TIP3   OH2 4949   4.167   1.437   2.467 -0.1282  0.8230  0.4835
 1662TIP3    H1 4950   4.190   1.361   2.520 -0.6021 -1.0812 -1.9361
 1662TIP3    H2 4951   4.239   1.446   2.405 -1.7121  0.1126 -1.5318
 1663TIP3   OH2 4952   3.075   1.113   3.742  0.2470 -0.1553 -0.4907
 1663TIP3    H1 4953   3.121   1.188   3.705  1.0168 -1.4243 -2.1883
 1663TIP3    H2 4954   3.097   1.040   3.684 -3.5460 -0.9328 -1.0929
 1664TIP3   OH2 4955   0.181   1.143   4.592 -0.1319  0.3312 -0.1146
 1664TIP3    H1 4956   0.167   1.120   4.684  1.8502  0.1936  0.1860
 1664TIP3    H2 4957   0.260   1.094   4.567  0.7351  2.2048 -1.1838
 1665TIP3   OH2 4958   3.269   0.078   3.570 -0.1693 -0.2000 -0.0352
 1665TIP3    H1 4959   3.230   0.136   3.505  2.1452 -0.6911 -1.9068
 1665TIP3    H2 4960   3.363   0.094   3.563  0.3431 -2.6277  0.9142
 1666TIP3   OH2 4961   3.421   2.071   2.957 -0.3807 -0.7317 -0.2024
 1666TIP3    H1 4962   3.347   2.093   3.014  0.4504  0.5111  0.4121
 1666TIP3    H2 4963   3.497   2.074   3.014  0.5564  1.2431 -1.5054
 1667TIP3   OH2 4964   1.376   1.790   3.859 -0.2519 -0.1358 -0.2327
 1667TIP3    H1 4965   1.368   1.835   3.775 -1.2077  0.8822  0.3885
 1667TIP3    H2 4966   1.307   1.828   3.913  1.7906  0.8740  1.7529
 1668TIP3   OH2 4967   7.280   5.478   5.233  0.4560  0.1991  0.6333
 1668TIP3    H1 4968   7.319   5.541   5.172 -0.2965  1.2790  1.2482
 1668TIP3    H2 4969   7.244   5.532   5.303  1.6087 -1.0489  2.2270
 1669TIP3   OH2 4970   0.906   0.076   3.633  0.2209  0.0776 -0.0645
 1669TIP3    H1 4971   0.997   0.068   3.603  0.1255 -0.0874 -0.3064
 1669TIP3    H2 4972   0.905   0.031   3.718  0.3767  0.1206 -0.0401
 1670TIP3   OH2 4973   4.701   1.490   3.871  0.3898  0.8893 -0.3335
 1670TIP3    H1 4974   4.648   1.410   3.862  2.3181 -0.4644  0.0290
 1670TIP3    H2 4975   4.708   1.502   3.966  0.7604  1.0564 -0.3854
 1671TIP3   OH2 4976   1.242   6.884   4.701 -0.5375 -0.4146 -0.3391
 1671TIP3    H1 4977   1.318   6.934   4.732 -1.1021  1.2006 -1.4625
 1671TIP3    H2 4978   1.272   6.841   4.621 -1.0490  0.9826 -1.3031
 1672TIP3   OH2 4979   1.579   1.578   3.815  0.0975 -0.4225 -0.1533
 1672TIP3    H1 4980   1.600   1.576   3.722  0.0674 -1.4097 -0.1416
 1672TIP3    H2 4981   1.502   1.635   3.821  1.2226  1.1372 -0.4996
 1673TIP3   OH2 4982   0.875   6.386   3.027 -0.0189 -0.2791 -0.6935
 1673TIP3    H1 4983   0.949   6.345   3.072  0.0082 -1.3828 -1.7029
 1673TIP3    H2 4984   0.890   6.480   3.037  0.9813 -0.4929 -0.0294
 1674TIP3   OH2 4985   1.773   0.628   2.014 -0.3251  0.9642  0.0122
 1674TIP3    H1 4986   1.736   0.716   2.007  0.8481  1.3009 -2.5502
 1674TIP3    H2 4987   1.862   0.636   1.979 -0.5967 -1.4569 -1.3861
 1675TIP3   OH2 4988   2.949   2.027   2.879 -0.3728 -0.1741  0.2275
 1675TIP3    H1 4989   2.938   2.075   2.961 -0.1219 -0.1161  0.2271
 1675TIP3    H2 4990   2.937   1.935   2.903  2.4684 -0.4046  0.8455
 1676TIP3   OH2 4991   6.241   6.217   1.362 -0.4903 -0.1025  0.1887
 1676TIP3    H1 4992   6.323   6.211   1.411 -1.1459 -0.6656  1.2400
 1676TIP3    H2 4993   6.265   6.258   1.279  0.3813  2.3118  1.5804
 1677TIP3   OH2 4994   2.754   0.918   4.352  0.2308  0.3161  0.1538
 1677TIP3    H1 4995   2.836   0.952   4.388 -0.5407  0.6852  1.6244
 1677TIP3    H2 4996   2.742   0.964   4.269  1.8843 -0.2922 -0.4387
 1678TIP3   OH2 4997   5.413   6.609   4.317  0.2037 -0.1811  0.1513
 1678TIP3    H1 4998   5.418   6.650   4.403 -2.4148 -0.6050  0.5531
 1678TIP3    H2 4999   5.409   6.515   4.335  1.2088 -0.3701 -0.5342
 1679TIP3   OH2 5000   2.746   5.014   2.670 -0.3306 -0.0742  0.1686
 1679TIP3    H1 5001   2.743   4.993   2.577 -1.5152  0.3617  0.0976
 1679TIP3    H2 5002   2.674   4.963   2.708  0.3728 -0.5259  0.8989
 1680TIP3   OH2 5003   2.243   1.188   4.328 -0.4920 -0.8388  0.0562
 1680TIP3    H1 5004   2.170   1.172   4.388  0.4540  0.3766  1.5796
 1680TIP3    H2 5005   2.201   1.214   4.246 -1.7620  0.2189  1.0203
 1681TIP3   OH2 5006   5.714   3.287   0.437 -0.0913  0.8128 -0.4237
 1681TIP3    H1 5007   5.770   3.261   0.364  0.4829  2.3565 -0.5501
 1681TIP3    H2 5008   5.650   3.216   0.445  0.3820  0.2092 -1.8554
 1682TIP3   OH2 5009   0.775   4.940   3.314  0.2102  0.7288  0.0630
 1682TIP3    H1 5010   0.740   5.027   3.293 -1.5625  0.0622  0.2291
 1682TIP3    H2 5011   0.737   4.882   3.247 -1.1192 -0.4510  1.7942
 1683TIP3   OH2 5012   0.712   6.321   2.820 -0.1204 -0.5816 -0.2060
 1683TIP3    H1 5013   0.787   6.314   2.760  0.1543 -2.0877  0.2996
 1683TIP3    H2 5014   0.751   6.325   2.907 -0.6080 -0.7261  0.0197
 1684TIP3   OH2 5015   3.242   1.297   4.650  0.0093 -0.0953  0.3138
 1684TIP3    H1 5016   3.172   1.362   4.651 -0.8201 -0.9570 -0.8015
 1684TIP3    H2 5017   3.243   1.260   4.738 -0.4002  0.4847  0.5646
 1685TIP3   OH2 5018   0.059   0.163   1.916 -0.2436 -0.1957 -0.3255
 1685TIP3    H1 5019   0.076   0.225   1.987  1.5019  0.4029 -1.2393
 1685TIP3    H2 5020   0.113   0.194   1.843 -0.8076 -1.7026 -1.4157
 1686TIP3   OH2 5021   0.284   4.405   3.981  0.0812  0.1502 -0.2990
 1686TIP3    H1 5022   0.238   4.457   4.046  1.5362  1.9133 -0.6256
 1686TIP3    H2 5023   0.289   4.318   4.019 -0.6710  0.7215  1.1504
 1687TIP3   OH2 5024   2.275   0.614   5.148  0.6673 -0.7516 -0.1701
 1687TIP3    H1 5025   2.247   0.654   5.066 -2.0228 -1.6308  0.2919
 1687TIP3    H2 5026   2.354   0.564   5.124  0.3615 -0.3663 -2.0537
 1688TIP3   OH2 5027   2.131   1.085   2.126  0.4742 -0.3731 -0.2870
 1688TIP3    H1 5028   2.128   1.086   2.030  1.5274 -1.7851 -0.3528
 1688TIP3    H2 5029   2.225   1.082   2.147  0.2243 -1.9667  0.7350
 1689TIP3   OH2 5030   4.177   0.778   5.345  0.4345 -0.5543 -0.3150
 1689TIP3    H1 5031   4.089   0.776   5.383  0.0437  1.8562 -1.0340
 1689TIP3    H2 5032   4.236   0.780   5.421 -0.1783 -0.4335  0.1567
 1690TIP3   OH2 5033   2.567   2.407   1.604  0.1942  0.3606 -0.3088
 1690TIP3    H1 5034   2.527   2.445   1.526  0.8444  0.9920 -0.3380
 1690TIP3    H2 5035   2.645   2.362   1.570  0.3466  0.4357 -0.0567
 1691TIP3   OH2 5036   2.437   0.676   2.773 -0.3104  0.0379 -0.6891
 1691TIP3    H1 5037   2.389   0.724   2.705 -1.0605 -1.6580 -1.3984
 1691TIP3    H2 5038   2.499   0.740   2.809 -3.0618  2.2939  0.2306
 1692TIP3   OH2 5039   3.061   4.808   5.930  0.1060 -0.0050 -0.4175
 1692TIP3    H1 5040   3.080   4.722   5.891  4.3348  0.2849  0.7100
 1692TIP3    H2 5041   3.090   4.871   5.864 -2.3234  0.5828 -0.9460
 1693TIP3   OH2 5042   0.376   6.663   2.042 -0.3459 -0.6990 -0.2585
 1693TIP3    H1 5043   0.284   6.675   2.020 -0.6320 -0.4708  1.0640
 1693TIP3    H2 5044   0.385   6.696   2.131  1.2214  0.2078 -0.7114
 1694TIP3   OH2 5045   1.467   0.541   2.591 -0.3045  0.3045  0.0224
 1694TIP3    H1 5046   1.514   0.485   2.653 -1.4055 -0.0442  0.5605
 1694TIP3    H2 5047   1.512   0.625   2.597  0.2980 -0.0446  0.4806
 1695TIP3   OH2 5048   4.234   0.243   4.295  0.3000  0.2949  0.0448
 1695TIP3    H1 5049   4.159   0.185   4.311  0.7859 -0.4580 -0.3834
 1695TIP3    H2 5050   4.301   0.213   4.356  0.5673  0.3822 -0.2049
 1696TIP3   OH2 5051   3.193   0.656   3.818  0.6130  0.0567 -0.3731
 1696TIP3    H1 5052   3.114   0.692   3.859  0.4341  0.1099 -0.7686
 1696TIP3    H2 5053   3.179   0.666   3.724  0.3954 -1.3712 -0.5113
 1697TIP3   OH2 5054   6.475   4.970   3.720 -0.2700 -0.0732 -0.0678
 1697TIP3    H1 5055   6.531   4.893   3.713  0.5380  0.4431  0.6604
 1697TIP3    H2 5056   6.517   5.036   3.665  0.1198  0.4749  0.8784
 1698TIP3   OH2 5057   1.264   5.194   2.967  0.3104  0.0187  0.2113
 1698TIP3    H1 5058   1.270   5.185   2.872 -1.3998 -0.5997  0.1575
 1698TIP3    H2 5059   1.250   5.104   2.999 -0.8770  0.4398  0.9043
 1699TIP3   OH2 5060   0.249   2.056   3.214  0.1576  0.5014  0.4647
 1699TIP3    H1 5061   0.255   2.103   3.130 -0.7131  0.3129  0.2860
 1699TIP3    H2 5062   0.211   2.121   3.274 -0.1968  0.3114  0.4467
 1700TIP3   OH2 5063   7.000   1.964   4.868 -0.2782 -0.7080 -0.5755
 1700TIP3    H1 5064   6.965   2.051   4.848  1.6231 -0.2298 -2.0252
 1700TIP3    H2 5065   7.020   1.968   4.962  0.8768  0.8657 -0.8619
 1701TIP3   OH2 5066   7.368   5.655   3.432  0.8314  0.4969  0.3132
 1701TIP3    H1 5067   7.402   5.571   3.400  0.5755 -0.1475  1.6681
 1701TIP3    H2 5068   7.303   5.682   3.367  0.2463 -0.8252  0.3368
 1702TIP3   OH2 5069   2.601   1.561   3.259  0.2262 -0.1449 -0.1571
 1702TIP3    H1 5070   2.688   1.522   3.256  0.4532  0.1223  1.9283
 1702TIP3    H2 5071   2.570   1.543   3.348 -0.6619  2.2644  0.0726
 1703TIP3   OH2 5072   0.039   5.679   2.373  0.1904  0.4906  0.5852
 1703TIP3    H1 5073   0.087   5.688   2.291 -0.2490 -0.4746  0.2213
 1703TIP3    H2 5074  -0.024   5.752   2.371  1.9131  2.0397  1.2828
 1704TIP3   OH2 5075   3.148   0.846   4.295 -0.1694  0.4878  0.1094
 1704TIP3    H1 5076   3.108   0.930   4.318 -0.6107  0.6222 -1.1309
 1704TIP3    H2 5077   3.081   0.801   4.243 -0.5300 -1.2684  2.0189
 1705TIP3   OH2 5078   2.059   1.449   3.944 -0.0778 -0.0160 -0.1576
 1705TIP3    H1 5079   1.973   1.491   3.938 -0.5539 -1.2441 -2.7432
 1705TIP3    H2 5080   2.053   1.394   4.022 -1.6224 -0.0247 -0.2580
 1706TIP3   OH2 5081   1.792   6.279   0.937 -0.3411 -0.0220 -0.0892
 1706TIP3    H1 5082   1.817   6.358   0.986 -0.0995  0.7726 -1.4610
 1706TIP3    H2 5083   1.847   6.210   0.975  0.0041  0.6203  0.6065
 1707TIP3   OH2 5084   0.214   6.089   4.479 -0.5733 -0.2376 -0.2566
 1707TIP3    H1 5085   0.310   6.095   4.481 -0.5086 -1.4098  1.0792
 1707TIP3    H2 5086   0.186   6.173   4.443  0.9552  0.1462 -0.6094
 1708TIP3   OH2 5087   3.504   1.396   2.464  0.4343  0.0862  0.4083
 1708TIP3    H1 5088   3.538   1.325   2.408  0.9819 -0.7952  1.8347
 1708TIP3    H2 5089   3.434   1.435   2.412  0.1542 -1.4680 -0.4316
 1709TIP3   OH2 5090   0.606   5.909   3.800 -0.3769 -0.0270 -0.4154
 1709TIP3    H1 5091   0.687   5.952   3.774 -0.2277  1.0260  1.6869
 1709TIP3    H2 5092   0.633   5.823   3.831 -0.2255 -0.2059 -1.0466
 1710TIP3   OH2 5093   1.306   1.710   1.309 -0.0108  0.6425 -0.0152
 1710TIP3    H1 5094   1.294   1.740   1.400  0.3313  0.6871  0.0161
 1710TIP3    H2 5095   1.258   1.774   1.257  0.3837  1.0228  0.0838
 1711TIP3   OH2 5096   4.224   5.246   1.375 -0.1864  0.0217  0.1561
 1711TIP3    H1 5097   4.150   5.293   1.338 -0.2148  0.3045  0.5595
 1711TIP3    H2 5098   4.297   5.265   1.316 -0.1963  0.5821  0.3183
 1712TIP3   OH2 5099   0.077   2.285   5.157 -0.2697 -0.3534  0.0251
 1712TIP3    H1 5100   0.080   2.358   5.095  0.6315  1.7863  2.5023
 1712TIP3    H2 5101   0.005   2.230   5.126 -0.7315  1.3940 -2.0955
 1713TIP3   OH2 5102   0.231   0.453   1.874  0.2594 -0.2176 -0.0630
 1713TIP3    H1 5103   0.237   0.362   1.845 -0.6262 -0.7774  1.4176
 1713TIP3    H2 5104   0.230   0.447   1.970 -3.0060  1.0970  0.0597
 1714TIP3   OH2 5105   3.389   3.700   5.013 -0.0401  0.3042 -0.2118
 1714TIP3    H1 5106   3.424   3.741   4.934  0.3413  2.2364  0.9159
 1714TIP3    H2 5107   3.374   3.773   5.074  0.1048 -1.1760  1.6700
 1715TIP3   OH2 5108   4.884   0.852   2.611 -0.5971  0.5820 -0.3565
 1715TIP3    H1 5109   4.928   0.823   2.531 -2.1043  0.1354 -1.0492
 1715TIP3    H2 5110   4.795   0.818   2.603 -0.5495 -0.1664  1.9098
 1716TIP3   OH2 5111   1.909   0.303   5.085  0.1749 -0.1088 -0.0334
 1716TIP3    H1 5112   1.902   0.398   5.086  0.9983 -0.0440 -0.0379
 1716TIP3    H2 5113   1.864   0.274   5.164  1.5683  0.3993  0.9510
 1717TIP3   OH2 5114   1.437   0.557   2.284  0.1342  0.5312 -0.0916
 1717TIP3    H1 5115   1.453   0.568   2.377 -2.5010 -0.6384  0.5443
 1717TIP3    H2 5116   1.413   0.644   2.253 -0.7549  0.5759  0.7081
 1718TIP3   OH2 5117   2.102   1.915   5.018 -0.0048  0.0935  0.1781
 1718TIP3    H1 5118   2.044   1.883   5.087 -0.9923  1.0965 -0.1766
 1718TIP3    H2 5119   2.165   1.971   5.064 -0.3797  0.3938  0.3250
 1719TIP3   OH2 5120   3.122   0.859   1.473 -0.4583  0.7366  0.2758
 1719TIP3    H1 5121   3.033   0.828   1.456  0.3347 -0.5216 -1.7827
 1719TIP3    H2 5122   3.130   0.940   1.422 -0.2243  0.4889 -0.0888
 1720TIP3   OH2 5123   2.312   1.957   3.121 -0.4278  0.2772  0.6113
 1720TIP3    H1 5124   2.303   2.050   3.144  1.7871  0.5656  0.4744
 1720TIP3    H2 5125   2.362   1.957   3.039 -2.6773 -0.9728 -0.8065
 1721TIP3   OH2 5126   2.865   0.164   0.931 -0.3328  0.4861  0.1119
 1721TIP3    H1 5127   2.871   0.255   0.959 -0.2806 -0.2563  2.6985
 1721TIP3    H2 5128   2.863   0.167   0.835  0.3830  3.1413  0.1611
 1722TIP3   OH2 5129   1.166   1.217   2.068  0.4418 -0.3120  0.3511
 1722TIP3    H1 5130   1.102   1.272   2.113 -1.0657 -1.0739 -0.8167
 1722TIP3    H2 5131   1.206   1.275   2.004  1.1203  0.2390  1.2622
 1723TIP3   OH2 5132   5.265   6.209   2.870 -0.0217 -0.3395 -0.0582
 1723TIP3    H1 5133   5.198   6.197   2.937  0.4735 -0.8335  0.3509
 1723TIP3    H2 5134   5.219   6.193   2.787 -0.6098  0.1864  0.1647
 1724TIP3   OH2 5135   6.578   6.671   1.635 -0.4968  0.7305 -0.8385
 1724TIP3    H1 5136   6.615   6.622   1.708  3.9021  2.4929 -1.7353
 1724TIP3    H2 5137   6.515   6.730   1.676 -0.1469 -0.2455  1.1742
 1725TIP3   OH2 5138   4.566   0.059   2.462 -0.1986  1.2515  0.0730
 1725TIP3    H1 5139   4.506   0.128   2.433 -0.5141  0.3505 -1.4821
 1725TIP3    H2 5140   4.508  -0.014   2.484  0.2341  0.9664  0.2558
 1726TIP3   OH2 5141   6.813   6.900   2.667 -0.4032  0.4653 -0.4435
 1726TIP3    H1 5142   6.860   6.855   2.737 -0.4257  0.1746 -0.6174
 1726TIP3    H2 5143   6.785   6.831   2.608  3.0311  1.0271 -2.8539
 1727TIP3   OH2 5144   1.834   1.241   4.063 -0.0610 -0.4034  0.0152
 1727TIP3    H1 5145   1.752   1.281   4.035  0.0334 -0.6557 -0.6545
 1727TIP3    H2 5146   1.816   1.206   4.150 -0.7058 -0.5786 -0.1871
 1728TIP3   OH2 5147   3.062   0.143   4.392 -0.2130 -0.9516  0.1044
 1728TIP3    H1 5148   2.977   0.153   4.436 -0.2398 -0.7259  0.0015
 1728TIP3    H2 5149   3.046   0.077   4.325 -0.3885 -0.6876 -0.1169
 1729TIP3   OH2 5150   5.585   1.235   3.984 -0.2583  0.1262 -0.2777
 1729TIP3    H1 5151   5.604   1.328   3.993 -0.7387  0.0890  1.1919
 1729TIP3    H2 5152   5.496   1.231   3.950 -0.7724  0.2018  1.0217
 1730TIP3   OH2 5153   6.903   5.033   4.817 -0.3190  0.4227 -0.4651
 1730TIP3    H1 5154   6.931   5.056   4.729 -1.2677  0.9295 -0.6419
 1730TIP3    H2 5155   6.852   5.108   4.847 -1.1989 -0.3272 -0.0299
 1731TIP3   OH2 5156   6.411   6.973   4.868  0.3347 -0.5122 -0.0014
 1731TIP3    H1 5157   6.400   6.926   4.786  0.0850 -0.5631  0.0605
 1731TIP3    H2 5158   6.328   7.018   4.882  0.4799 -0.2684  0.0744
 1732TIP3   OH2 5159   7.292   6.669   4.138 -0.0921  0.1594 -0.0375
 1732TIP3    H1 5160   7.234   6.716   4.198 -2.0221 -0.1572 -1.6273
 1732TIP3    H2 5161   7.332   6.738   4.085  0.7016  0.3480  0.7961
 1733TIP3   OH2 5162   0.845   0.348   5.365 -0.0396  0.8044 -0.2486
 1733TIP3    H1 5163   0.894   0.431   5.364  0.8973  0.2622  0.0547
 1733TIP3    H2 5164   0.754   0.374   5.380  0.3731  1.7172  0.7587
 1734TIP3   OH2 5165   5.341   6.696   2.462 -0.4383 -0.2382 -0.3894
 1734TIP3    H1 5166   5.292   6.616   2.476 -1.9190  0.6120 -0.6186
 1734TIP3    H2 5167   5.375   6.720   2.548 -1.8188  0.0561  0.0804
 1735TIP3   OH2 5168   2.500  -0.008   5.534  0.3533  0.3633  0.5732
 1735TIP3    H1 5169   2.546  -0.000   5.618 -1.9232  0.7902  1.8256
 1735TIP3    H2 5170   2.494   0.081   5.501 -0.3245  0.4278  0.8518
 1736TIP3   OH2 5171   3.198   1.254   4.927 -0.2792  0.2373 -0.3600
 1736TIP3    H1 5172   3.104   1.241   4.921 -0.4090  1.2775 -0.6672
 1736TIP3    H2 5173   3.211   1.297   5.012  0.2409 -2.6516  1.0817
 1737TIP3   OH2 5174   0.153   2.635   4.427 -0.2381 -0.0265  0.2343
 1737TIP3    H1 5175   0.231   2.611   4.477 -0.2846 -0.6695  0.0093
 1737TIP3    H2 5176   0.186   2.670   4.345 -0.1996 -2.1236 -0.6747
 1738TIP3   OH2 5177   2.086   2.185   5.839 -0.2132  0.0051  0.0907
 1738TIP3    H1 5178   2.054   2.219   5.755 -0.1272  0.3755  0.2047
 1738TIP3    H2 5179   2.095   2.091   5.826  0.5843  0.1671 -0.5728
 1739TIP3   OH2 5180   1.919   1.519   2.197 -0.0784 -0.0333 -0.0370
 1739TIP3    H1 5181   1.986   1.480   2.141 -0.6913  0.2265 -0.9652
 1739TIP3    H2 5182   1.955   1.604   2.223  0.5359 -0.4804  0.6044
 1740TIP3   OH2 5183   0.036   1.373   4.541 -0.5720  0.5080 -0.2542
 1740TIP3    H1 5184   0.099   1.305   4.566  1.2193  1.4538 -1.9978
 1740TIP3    H2 5185  -0.048   1.328   4.535  0.1467 -1.0318  0.9412
 1741TIP3   OH2 5186   3.758   1.243   5.255 -0.0213 -0.4792  0.4020
 1741TIP3    H1 5187   3.776   1.151   5.275 -0.2266 -0.2237  1.8410
 1741TIP3    H2 5188   3.796   1.291   5.329 -1.1192  0.4965  0.3377
 1742TIP3   OH2 5189   1.145   5.685   2.780 -0.3790 -0.5478 -0.1263
 1742TIP3    H1 5190   1.231   5.643   2.786 -0.5373 -0.6460  1.8567
 1742TIP3    H2 5191   1.096   5.631   2.718  0.2347 -1.8750  0.5165
 1743TIP3   OH2 5192   1.062   1.890   3.764  0.0159 -0.5513 -0.4638
 1743TIP3    H1 5193   1.022   1.881   3.677  0.7598 -0.6743 -0.7973
 1743TIP3    H2 5194   1.116   1.969   3.757 -1.0706  0.2858  0.3410
 1744TIP3   OH2 5195   1.612   0.070   2.496  0.5759  0.3321 -0.3481
 1744TIP3    H1 5196   1.570   0.137   2.551  0.1532 -0.3593  0.1796
 1744TIP3    H2 5197   1.593  -0.013   2.541  0.8837 -0.1627 -1.1326
 1745TIP3   OH2 5198   0.281   0.164   2.673  0.6186 -0.2587  0.0974
 1745TIP3    H1 5199   0.193   0.150   2.636  0.2671  2.1667 -0.0879
 1745TIP3    H2 5200   0.279   0.255   2.703  3.5348  0.2447 -1.1548
 1746TIP3   OH2 5201   0.668   0.235   2.823  0.6092 -0.3712  0.0527
 1746TIP3    H1 5202   0.753   0.278   2.810  0.8515 -0.5765  0.9006
 1746TIP3    H2 5203   0.646   0.199   2.738  1.4919 -0.5223 -0.1165
 1747TIP3   OH2 5204   3.008   1.172   3.273 -0.0869  0.4115 -0.3606
 1747TIP3    H1 5205   3.077   1.230   3.239 -3.1794  3.8411 -1.1424
 1747TIP3    H2 5206   2.984   1.116   3.199 -0.2894  1.3689 -1.0293
 1748TIP3   OH2 5207   2.169   2.394   3.706  0.0831 -0.0398  0.1161
 1748TIP3    H1 5208   2.222   2.449   3.649 -0.1829  2.1629  1.9410
 1748TIP3    H2 5209   2.230   2.361   3.772 -0.0033 -0.9472 -0.2474
 1749TIP3   OH2 5210   3.556   6.357   3.857  0.4508 -0.0519  0.0308
 1749TIP3    H1 5211   3.504   6.430   3.824  0.3383  0.6388  1.6752
 1749TIP3    H2 5212   3.631   6.351   3.797 -1.1980 -0.6982 -2.0164
 1750TIP3   OH2 5213   4.880   1.315   4.624 -0.2492 -0.0200 -0.0587
 1750TIP3    H1 5214   4.838   1.230   4.632 -1.4689  0.5583 -0.0637
 1750TIP3    H2 5215   4.833   1.358   4.552  0.4840  0.5741 -0.1847
 1751TIP3   OH2 5216   7.397   6.543   3.164 -0.0642  0.2740  0.0970
 1751TIP3    H1 5217   7.310   6.524   3.130 -0.0679 -2.6306  1.6044
 1751TIP3    H2 5218   7.456   6.495   3.106  0.2345 -1.0354  1.4720
 1752TIP3   OH2 5219   4.675   2.214   2.214  0.1425  0.0077 -0.3220
 1752TIP3    H1 5220   4.644   2.188   2.127 -0.4254  0.3114 -0.2124
 1752TIP3    H2 5221   4.623   2.292   2.235 -1.5750 -1.5563  1.3885
 1753TIP3   OH2 5222   1.225   6.638   4.141 -0.3272 -0.0938 -0.0742
 1753TIP3    H1 5223   1.243   6.663   4.050  0.0986  1.6660  0.4862
 1753TIP3    H2 5224   1.238   6.718   4.191  3.7899 -2.0469  2.1751
 1754TIP3   OH2 5225   4.814   0.019   3.556  0.0767  0.4848 -0.2581
 1754TIP3    H1 5226   4.806  -0.043   3.629 -0.6874 -0.9960 -1.5790
 1754TIP3    H2 5227   4.904   0.052   3.563  0.8605 -1.6161 -0.2089
 1755TIP3   OH2 5228   3.012   0.145   2.763  1.1104 -0.5043  0.4189
 1755TIP3    H1 5229   3.016   0.053   2.737  1.6333 -0.6713  1.0516
 1755TIP3    H2 5230   2.951   0.146   2.837 -0.6909  0.0296 -1.0702
 1756TIP3   OH2 5231   4.156   2.853   2.089 -0.1228 -0.2331 -0.2731
 1756TIP3    H1 5232   4.162   2.937   2.042 -1.3740  0.8829  1.4700
 1756TIP3    H2 5233   4.106   2.797   2.030  0.6021  0.2773 -1.4053
 1757TIP3   OH2 5234   5.185   1.902   3.101  0.0111  0.1932  0.2617
 1757TIP3    H1 5235   5.153   1.925   3.188 -0.0507  0.0767  0.2699
 1757TIP3    H2 5236   5.193   1.806   3.103 -0.1238  0.1783  0.0934
 1758TIP3   OH2 5237   6.375   1.831   2.039  0.0645 -0.3471 -0.4501
 1758TIP3    H1 5238   6.296   1.868   2.000 -1.0507 -2.0847  0.0847
 1758TIP3    H2 5239   6.414   1.778   1.970  0.2813 -0.2008 -0.4413
 1759TIP3   OH2 5240   5.947   1.792   2.602 -0.2133  0.2444  0.4649
 1759TIP3    H1 5241   5.900   1.871   2.628 -1.1763 -0.8558  2.2124
 1759TIP3    H2 5242   5.919   1.726   2.667 -0.1345 -1.7410 -1.4726
 1760TIP3   OH2 5243   2.009   5.595   2.229  0.4814 -0.0690  0.0128
 1760TIP3    H1 5244   1.997   5.689   2.226 -1.1282 -0.2283  0.9938
 1760TIP3    H2 5245   2.070   5.580   2.301 -1.2657  0.0588  1.5515
 1761TIP3   OH2 5246   6.405   0.685   3.658  0.1079  0.1902  0.8591
 1761TIP3    H1 5247   6.384   0.745   3.586  0.0653  0.2417  0.9138
 1761TIP3    H2 5248   6.401   0.598   3.619  0.6993  0.2565  0.6551
 1762TIP3   OH2 5249   1.860   6.878   2.797 -0.2486  0.1498 -0.0694
 1762TIP3    H1 5250   1.882   6.872   2.889 -0.7989 -0.2384  0.0349
 1762TIP3    H2 5251   1.787   6.941   2.793 -0.5858 -0.2431 -0.1765
 1763TIP3   OH2 5252   4.808   2.140   3.063  0.3689 -0.1180 -0.1897
 1763TIP3    H1 5253   4.878   2.108   3.005 -0.5034 -0.9098 -0.8224
 1763TIP3    H2 5254   4.845   2.218   3.104  1.7098 -0.6493 -0.3566
 1764TIP3   OH2 5255   1.389   6.696   1.998  0.0562  0.1914 -0.1896
 1764TIP3    H1 5256   1.435   6.771   1.961  0.7477 -0.3661 -0.4777
 1764TIP3    H2 5257   1.421   6.621   1.948 -2.9474  0.0514 -2.0627
 1765TIP3   OH2 5258   1.926   5.806   3.162  0.0544 -0.3685  0.2541
 1765TIP3    H1 5259   1.912   5.733   3.101 -1.7056 -0.1836  0.4213
 1765TIP3    H2 5260   1.886   5.881   3.118  1.8949  0.5291  0.0677
 1766TIP3   OH2 5261   4.466   1.893   3.370  0.2779  0.0045 -0.0370
 1766TIP3    H1 5262   4.544   1.893   3.426  2.5609 -1.6778 -3.0505
 1766TIP3    H2 5263   4.499   1.868   3.284 -3.3780  0.9366 -1.7903
 1767TIP3   OH2 5264   1.797   5.926   2.785  0.0281  0.1712 -0.1705
 1767TIP3    H1 5265   1.708   5.892   2.789 -0.7128  2.0078 -0.5005
 1767TIP3    H2 5266   1.848   5.856   2.745 -1.5677 -0.3375 -1.3410
 1768TIP3   OH2 5267   1.438   5.212   3.199 -0.2941  0.4078 -0.2372
 1768TIP3    H1 5268   1.376   5.214   3.126  0.5156  0.2989 -0.9324
 1768TIP3    H2 5269   1.395   5.158   3.265 -1.1689  0.7656 -0.5019
 1769TIP3   OH2 5270   2.384   1.512   1.779  0.0824  0.0651 -0.3478
 1769TIP3    H1 5271   2.314   1.576   1.767  0.4059  0.3446 -0.7656
 1769TIP3    H2 5272   2.362   1.440   1.720  0.1824  0.1862 -0.5344
 1770TIP3   OH2 5273   2.154   6.113   2.305  0.0930  0.1799 -0.2689
 1770TIP3    H1 5274   2.122   6.061   2.379  2.0847 -1.3339 -0.4349
 1770TIP3    H2 5275   2.119   6.068   2.228 -0.8075  0.9437 -0.3199
 1771TIP3   OH2 5276   6.142   1.217   2.411 -0.0123  0.4254 -1.0400
 1771TIP3    H1 5277   6.163   1.140   2.464  1.1444  0.6732 -1.1259
 1771TIP3    H2 5278   6.061   1.251   2.449  0.1605 -0.1019 -0.1974
 1772TIP3   OH2 5279   4.361   1.005   1.646 -0.2006  0.6001 -0.2917
 1772TIP3    H1 5280   4.434   1.049   1.602 -0.6149  1.5513 -0.0473
 1772TIP3    H2 5281   4.283   1.049   1.613 -0.6030  0.3086  0.2573
 1773TIP3   OH2 5282   5.709   1.061   3.031 -0.8914  0.2873  0.4308
 1773TIP3    H1 5283   5.756   0.984   3.063 -1.3345 -0.1635  0.0065
 1773TIP3    H2 5284   5.715   1.055   2.936 -2.2599 -0.0649  0.3562
 1774TIP3   OH2 5285   5.938   0.814   2.474 -0.3950 -0.0628 -0.0059
 1774TIP3    H1 5286   5.977   0.816   2.562 -1.5286  2.6585  0.4854
 1774TIP3    H2 5287   5.844   0.809   2.491 -0.6294  0.7533 -1.0570
 1775TIP3   OH2 5288   2.252   5.366   1.572  0.3468 -0.5950  0.0664
 1775TIP3    H1 5289   2.161   5.339   1.585  0.3324 -0.0008  1.2985
 1775TIP3    H2 5290   2.252   5.411   1.487 -0.4584 -0.8257 -0.0572
 1776TIP3   OH2 5291   5.299   2.806   2.482 -0.0458 -0.0279 -0.9183
 1776TIP3    H1 5292   5.358   2.838   2.549 -0.8854  0.4472 -0.3946
 1776TIP3    H2 5293   5.238   2.748   2.529  1.3548 -2.2954 -1.8139
 1777TIP3   OH2 5294   5.624   1.970   2.920 -0.0924  0.3120  0.1035
 1777TIP3    H1 5295   5.579   2.052   2.942 -0.1279  0.0353  1.0674
 1777TIP3    H2 5296   5.654   1.936   3.004 -2.2054 -1.9095  0.0054
 1778TIP3   OH2 5297   6.943   6.389   4.209  0.3871 -0.4803 -0.1235
 1778TIP3    H1 5298   6.854   6.414   4.182  0.1874  0.2193  1.1409
 1778TIP3    H2 5299   6.936   6.296   4.232  0.1873 -0.6501 -0.8499
 1779TIP3   OH2 5300   1.258   1.210   2.444 -0.4301 -0.3941 -0.0518
 1779TIP3    H1 5301   1.212   1.138   2.401 -1.2621  0.4948 -0.6874
 1779TIP3    H2 5302   1.309   1.168   2.513  2.5404 -2.0766 -3.1552
 1780TIP3   OH2 5303   2.666   4.125   2.522  0.3893 -0.4301  0.0783
 1780TIP3    H1 5304   2.684   4.082   2.438  2.4437 -0.0231  0.2769
 1780TIP3    H2 5305   2.752   4.156   2.551 -0.6534  1.5452  1.1613
 1781TIP3   OH2 5306   3.068   6.684   3.193 -0.2843  0.4796 -0.2628
 1781TIP3    H1 5307   3.045   6.734   3.271  0.7952 -1.1498  1.1400
 1781TIP3    H2 5308   3.160   6.705   3.176 -0.2022 -0.0039 -0.4475
 1782TIP3   OH2 5309   5.986   2.389   2.162 -0.1194 -0.0382 -0.6281
 1782TIP3    H1 5310   5.953   2.425   2.244  1.5956 -2.0228  0.9894
 1782TIP3    H2 5311   5.911   2.389   2.103 -1.5840  0.6509  1.2076
 1783TIP3   OH2 5312   6.882   1.985   3.411  0.2896  0.3553  0.2062
 1783TIP3    H1 5313   6.909   1.912   3.355 -0.8068 -0.0131  0.1267
 1783TIP3    H2 5314   6.950   1.992   3.477 -0.4352 -1.8881  1.2595
 1784TIP3   OH2 5315   5.346   1.668   0.538  0.0976 -0.2245 -0.1384
 1784TIP3    H1 5316   5.292   1.722   0.596 -1.3371 -1.8950  0.1409
 1784TIP3    H2 5317   5.434   1.672   0.577  0.1288  2.2019 -0.3601
 1785TIP3   OH2 5318   2.886   2.097   3.745  0.1519  0.1153 -0.2840
 1785TIP3    H1 5319   2.802   2.092   3.789  0.6345  0.0835  0.6465
 1785TIP3    H2 5320   2.865   2.097   3.652 -0.8078 -1.1238 -0.0673
 1786TIP3   OH2 5321   3.221   6.286   2.919  0.0904 -0.4927  0.4623
 1786TIP3    H1 5322   3.308   6.266   2.883 -0.2670  0.1881 -0.7841
 1786TIP3    H2 5323   3.239   6.343   2.994  0.7269 -0.3851  0.2360
 1787TIP3   OH2 5324   4.960   1.783   3.856 -0.1905  0.3549  0.3369
 1787TIP3    H1 5325   5.036   1.735   3.825 -0.9287 -0.7363  0.2014
 1787TIP3    H2 5326   4.996   1.855   3.907  0.8916 -1.0046  1.5056
 1788TIP3   OH2 5327   2.340   0.685   4.731  0.1380  0.5740  0.1294
 1788TIP3    H1 5328   2.416   0.627   4.742  1.2976  2.5298  3.2405
 1788TIP3    H2 5329   2.375   0.763   4.690 -0.1151  1.5576  1.7393
 1789TIP3   OH2 5330   5.444   0.464   2.135 -0.6579 -0.0960 -0.9583
 1789TIP3    H1 5331   5.359   0.424   2.115 -1.0376  1.0683 -1.7581
 1789TIP3    H2 5332   5.422   0.549   2.174  0.1200 -1.2158  2.0182
 1790TIP3   OH2 5333   3.338   2.136   3.962  0.0501  0.6952  0.0714
 1790TIP3    H1 5334   3.316   2.087   4.042  1.0425  0.6085  0.3020
 1790TIP3    H2 5335   3.273   2.205   3.958 -1.2577 -0.5212 -0.1514
 1791TIP3   OH2 5336   1.495   1.384   2.300 -0.1910 -0.1254 -0.1723
 1791TIP3    H1 5337   1.450   1.300   2.288  1.5124 -0.9881 -0.8116
 1791TIP3    H2 5338   1.523   1.383   2.391 -0.7661  0.0482  0.0046
 1792TIP3   OH2 5339   5.119   1.118   3.272 -0.4926  0.1931  0.4074
 1792TIP3    H1 5340   5.158   1.032   3.287  2.3181  1.6290  1.7076
 1792TIP3    H2 5341   5.040   1.100   3.221 -1.8897 -3.4976  3.5597
 1793TIP3   OH2 5342   2.359   2.530   4.381 -1.0985 -0.6511  0.0380
 1793TIP3    H1 5343   2.276   2.512   4.337 -1.4798 -0.7198  0.7786
 1793TIP3    H2 5344   2.421   2.543   4.310 -1.2186 -2.9838 -0.5323
 1794TIP3   OH2 5345   3.376   1.239   0.886 -0.1622 -0.6173  0.3780
 1794TIP3    H1 5346   3.370   1.150   0.851  0.0297 -0.0076 -1.2375
 1794TIP3    H2 5347   3.469   1.261   0.880 -0.6963  1.0808 -2.8415
 1795TIP3   OH2 5348   3.900   0.263   5.699 -0.3040  0.0516 -0.4055
 1795TIP3    H1 5349   3.841   0.326   5.656  0.0762  0.8179  0.1801
 1795TIP3    H2 5350   3.957   0.317   5.753 -0.1807 -0.8349  0.3588
 1796TIP3   OH2 5351   4.667   0.915   0.714 -0.2691 -0.5247  0.3432
 1796TIP3    H1 5352   4.586   0.959   0.741  0.0442  0.7511 -0.7898
 1796TIP3    H2 5353   4.736   0.965   0.757 -0.0076 -0.9329  0.3948
 1797TIP3   OH2 5354   2.435   6.028   0.984 -0.2245  0.5265 -0.1832
 1797TIP3    H1 5355   2.455   5.967   1.055  1.8644 -0.4351 -1.5205
 1797TIP3    H2 5356   2.469   6.112   1.013 -1.3942  0.6255  0.8891
 1798TIP3   OH2 5357   3.076   6.917   2.751 -0.2164 -0.2222 -0.1985
 1798TIP3    H1 5358   3.085   6.869   2.669  0.3459 -2.0307  0.8915
 1798TIP3    H2 5359   3.051   7.006   2.725  2.5405 -0.0395 -2.4623
 1799TIP3   OH2 5360   3.783   6.833   4.328 -0.1899  0.4227 -0.1701
 1799TIP3    H1 5361   3.842   6.759   4.341  1.3534  1.6081 -0.3922
 1799TIP3    H2 5362   3.784   6.849   4.234 -0.1864  0.9965 -0.0752
 1800TIP3   OH2 5363   4.612   1.099   1.526  0.3094 -0.0191  0.2865
 1800TIP3    H1 5364   4.622   1.154   1.603  0.3604 -0.7791  0.8304
 1800TIP3    H2 5365   4.614   1.160   1.452  1.2584  0.6136  0.8249
 1801TIP3   OH2 5366   3.854   0.269   1.365  0.2922 -0.0986  0.4808
 1801TIP3    H1 5367   3.777   0.227   1.402 -0.2555 -1.9907 -2.5732
 1801TIP3    H2 5368   3.907   0.197   1.332  1.2955  1.3896 -1.2672
 1802TIP3   OH2 5369   5.854   1.507   2.554  0.0659  0.4658 -0.4101
 1802TIP3    H1 5370   5.842   1.479   2.644 -0.0248  0.5412 -0.3988
 1802TIP3    H2 5371   5.784   1.464   2.506  0.3912  0.0608 -0.5215
 1803TIP3   OH2 5372   2.834   6.206   4.079 -0.0412  0.8118  0.2566
 1803TIP3    H1 5373   2.889   6.143   4.033 -0.0210  1.5076 -0.6915
 1803TIP3    H2 5374   2.778   6.153   4.135  0.5380  0.0061  0.0787
 1804TIP3   OH2 5375   6.320   2.074   1.404 -0.1802  0.1610  0.1378
 1804TIP3    H1 5376   6.261   2.061   1.329  0.0183  1.6715 -0.3128
 1804TIP3    H2 5377   6.404   2.041   1.373 -0.4634 -0.7057  0.2777
 1805TIP3   OH2 5378   2.001   2.118   4.744 -0.1485 -0.2295 -0.5083
 1805TIP3    H1 5379   2.090   2.124   4.710 -0.0794 -1.7464 -0.6121
 1805TIP3    H2 5380   1.966   2.037   4.708 -1.5711  0.3215 -0.4371
 1806TIP3   OH2 5381   5.535   0.420   1.188  0.7704  0.1462 -0.0081
 1806TIP3    H1 5382   5.544   0.503   1.235 -0.8235  1.7794 -2.4665
 1806TIP3    H2 5383   5.467   0.373   1.237  0.6342  0.9151  0.5622
 1807TIP3   OH2 5384   2.016   5.992   3.644 -0.2373 -0.7376 -0.1644
 1807TIP3    H1 5385   1.990   5.930   3.576 -2.0517  0.0534 -0.2118
 1807TIP3    H2 5386   1.947   6.057   3.645  1.5992  1.2713 -0.0411
 1808TIP3   OH2 5387   3.644   0.987   2.898  0.3873 -0.4292  0.3114
 1808TIP3    H1 5388   3.690   0.965   2.980  0.5952 -0.8537  0.0814
 1808TIP3    H2 5389   3.714   1.007   2.836  0.3031 -1.8360 -0.2653
 1809TIP3   OH2 5390   1.678   5.180   3.136 -0.1312 -0.0363 -0.0331
 1809TIP3    H1 5391   1.667   5.087   3.119  1.5064 -0.3337  0.4738
 1809TIP3    H2 5392   1.590   5.211   3.155 -0.8017 -1.3190 -0.9595
 1810TIP3   OH2 5393   6.152   0.637   3.828 -0.3648  0.5274  0.1523
 1810TIP3    H1 5394   6.218   0.684   3.777 -0.9102 -0.5047 -1.5354
 1810TIP3    H2 5395   6.199   0.563   3.866 -0.3816  0.2394 -0.3946
 1811TIP3   OH2 5396   5.861   3.126   3.682  0.1299 -0.2892  0.3007
 1811TIP3    H1 5397   5.899   3.098   3.599 -0.7966 -0.5289 -0.0530
 1811TIP3    H2 5398   5.913   3.201   3.709  0.1529  0.0675 -0.7212
 1812TIP3   OH2 5399   4.764   0.785   1.018 -0.3074 -0.4712 -0.2353
 1812TIP3    H1 5400   4.674   0.789   1.048 -0.9090 -0.2905 -2.0159
 1812TIP3    H2 5401   4.786   0.691   1.020  0.0131 -0.3867  1.6819
 1813TIP3   OH2 5402   5.776   2.212   3.463  0.9070 -0.4134 -0.2789
 1813TIP3    H1 5403   5.828   2.154   3.518  0.6277  0.6340  1.1152
 1813TIP3    H2 5404   5.696   2.227   3.514  0.0040 -0.5958 -1.6208
 1814TIP3   OH2 5405   4.130   0.661   3.716 -0.2083  0.5267  0.4757
 1814TIP3    H1 5406   4.221   0.679   3.691  0.4943 -0.9449  1.8844
 1814TIP3    H2 5407   4.087   0.747   3.716  1.6106  1.4569  1.4469
 1815TIP3   OH2 5408   6.059   2.906   4.649  0.0196  0.0523  0.0436
 1815TIP3    H1 5409   5.990   2.846   4.678  0.8756  0.1136  2.3162
 1815TIP3    H2 5410   6.128   2.848   4.617 -0.5326 -0.0466 -1.0031
 1816TIP3   OH2 5411   3.013   2.288   5.804 -0.1134  0.6450  0.1597
 1816TIP3    H1 5412   2.968   2.320   5.726  1.5682  0.4025 -0.9434
 1816TIP3    H2 5413   3.060   2.364   5.838 -0.2569  0.5748  0.5180
 1817TIP3   OH2 5414   4.106   1.290   2.165 -0.6139  1.0644  0.6054
 1817TIP3    H1 5415   4.067   1.238   2.235 -0.2112  1.5603  1.2053
 1817TIP3    H2 5416   4.189   1.320   2.202 -0.2732  1.1012 -0.1870
 1818TIP3   OH2 5417   5.463   0.167   4.292  0.3907  0.2540 -0.3195
 1818TIP3    H1 5418   5.393   0.136   4.349  1.4381 -0.0736  0.8179
 1818TIP3    H2 5419   5.542   0.160   4.345  1.4134 -0.1756 -1.8671
 1819TIP3   OH2 5420   0.866   6.565   4.941  0.4331 -0.4008  0.3997
 1819TIP3    H1 5421   0.916   6.588   4.863 -0.9841  1.6365  0.0518
 1819TIP3    H2 5422   0.879   6.638   5.001  0.1167 -1.1507  1.3998
 1820TIP3   OH2 5423   0.785   6.291   2.396 -0.0180  0.1555 -0.1069
 1820TIP3    H1 5424   0.841   6.292   2.318 -1.0418 -0.7117 -0.8645
 1820TIP3    H2 5425   0.815   6.365   2.448  1.5258 -0.0141 -0.7304
 1821TIP3   OH2 5426   5.439   0.693   2.304  0.1027  0.1153 -0.5141
 1821TIP3    H1 5427   5.520   0.734   2.273  0.0135  0.3570 -0.4252
 1821TIP3    H2 5428   5.370   0.756   2.283 -0.3913 -1.1743 -2.8592
 1822TIP3   OH2 5429   5.504   2.755   5.145  0.2756  0.0961  0.2851
 1822TIP3    H1 5430   5.481   2.823   5.081  0.6740  0.2347  0.2911
 1822TIP3    H2 5431   5.483   2.794   5.229  0.4153  0.1775  0.2825
 1823TIP3   OH2 5432   2.818   5.235   3.148  0.2333 -0.1298 -0.0587
 1823TIP3    H1 5433   2.886   5.226   3.081 -0.0962 -2.0239 -0.1576
 1823TIP3    H2 5434   2.755   5.166   3.127 -1.4372  1.2532  0.3719
 1824TIP3   OH2 5435   6.754   6.377   3.280  0.2117  0.1763 -0.0642
 1824TIP3    H1 5436   6.672   6.378   3.329 -0.2949 -1.1525 -0.8797
 1824TIP3    H2 5437   6.748   6.451   3.220 -0.7238 -0.3932 -0.6739
 1825TIP3   OH2 5438   4.414   1.543   1.496  0.0427  0.3648  0.0361
 1825TIP3    H1 5439   4.473   1.585   1.434 -1.2027  0.4648 -1.0865
 1825TIP3    H2 5440   4.331   1.590   1.487 -1.6454 -2.8293 -1.8813
 1826TIP3   OH2 5441   2.820   1.680   1.979  0.4499 -0.1153 -0.1213
 1826TIP3    H1 5442   2.780   1.634   2.053  0.3299  0.3225  0.0870
 1826TIP3    H2 5443   2.817   1.773   2.003 -2.2819  0.3321 -1.9197
 1827TIP3   OH2 5444   4.968   0.294   2.726 -0.0253 -0.1663  0.0842
 1827TIP3    H1 5445   4.983   0.388   2.724  0.0358 -0.1942 -1.0881
 1827TIP3    H2 5446   4.925   0.275   2.642  1.2644 -1.4005 -0.3077
 1828TIP3   OH2 5447   1.015   6.917   4.019 -0.3527 -0.1094 -1.0698
 1828TIP3    H1 5448   0.975   7.004   4.018  0.2014  0.1998  0.7416
 1828TIP3    H2 5449   1.015   6.892   4.112  4.7031  0.4510 -0.7592
 1829TIP3   OH2 5450   6.061   0.422   1.591  0.5537  0.7263  0.1399
 1829TIP3    H1 5451   6.034   0.509   1.620 -0.8848  1.3012 -2.7930
 1829TIP3    H2 5452   5.982   0.382   1.556  1.5045 -1.2125  0.1299
 1830TIP3   OH2 5453   6.439   2.196   5.983  0.1793  0.6263 -0.1079
 1830TIP3    H1 5454   6.527   2.167   5.959  1.3458  3.2043  0.8895
 1830TIP3    H2 5455   6.453   2.275   6.035 -2.6531 -0.0488  1.7889
 1831TIP3   OH2 5456   0.877   5.948   3.073  0.6353 -0.0368 -0.1203
 1831TIP3    H1 5457   0.784   5.948   3.048  0.5829 -1.0562  0.0509
 1831TIP3    H2 5458   0.923   5.978   2.994  0.0494  1.9434  0.2699
 1832TIP3   OH2 5459   2.463   2.143   3.491  0.2472 -0.5857 -0.8801
 1832TIP3    H1 5460   2.369   2.142   3.476 -0.2358 -0.4880  1.8467
 1832TIP3    H2 5461   2.496   2.211   3.432 -2.0774  2.7746  1.4601
 1833TIP3   OH2 5462   3.947   5.996   2.051  0.3286 -0.2993 -0.4674
 1833TIP3    H1 5463   3.907   6.082   2.069 -1.3085 -1.4515  1.6388
 1833TIP3    H2 5464   3.909   5.968   1.968 -2.3551 -0.8252  0.9070
 1834TIP3   OH2 5465   0.259   6.065   2.303  0.3654  0.1106  0.3183
 1834TIP3    H1 5466   0.298   6.054   2.390  0.3844 -2.3831  0.0325
 1834TIP3    H2 5467   0.219   5.980   2.284  1.8161  0.0583 -2.8186
 1835TIP3   OH2 5468   5.705   2.205   3.161  0.5706 -0.5497  0.0293
 1835TIP3    H1 5469   5.740   2.229   3.247  0.2775  0.6717 -0.1768
 1835TIP3    H2 5470   5.686   2.111   3.168 -1.5310 -0.0184  2.0468
 1836TIP3   OH2 5471   4.705   1.087   3.914  0.3931  0.4712 -0.2831
 1836TIP3    H1 5472   4.744   0.999   3.910  1.5624  0.8320  2.0797
 1836TIP3    H2 5473   4.761   1.140   3.857  0.9023  0.1007 -0.1365
 1837TIP3   OH2 5474   4.826   0.811   3.658 -0.5930 -0.8427 -0.1929
 1837TIP3    H1 5475   4.794   0.822   3.748  0.7955 -2.1017  0.4978
 1837TIP3    H2 5476   4.905   0.866   3.655 -0.7446 -0.6564 -0.7070
 1838TIP3   OH2 5477   2.744   2.776   3.857  0.1111  0.3732  0.4550
 1838TIP3    H1 5478   2.719   2.826   3.934  0.7331  1.5127 -0.0760
 1838TIP3    H2 5479   2.840   2.775   3.858  0.1485  1.1866 -0.7885
 1839TIP3   OH2 5480   4.960   2.101   3.889 -0.2836 -0.6664 -0.5086
 1839TIP3    H1 5481   4.932   2.089   3.980 -1.4408  0.1904 -0.7499
 1839TIP3    H2 5482   5.036   2.159   3.895 -0.1172 -0.9290 -0.0567
 1840TIP3   OH2 5483   5.290   2.033   5.131  0.2032 -0.4239  0.2262
 1840TIP3    H1 5484   5.335   2.111   5.164  1.2416 -0.7770 -0.3142
 1840TIP3    H2 5485   5.292   1.972   5.205  1.1171 -0.6350  0.0413
 1841TIP3   OH2 5486   4.286   0.701   3.074  0.3743 -0.1969 -0.0979
 1841TIP3    H1 5487   4.264   0.608   3.059  0.5083 -0.1635 -0.5068
 1841TIP3    H2 5488   4.218   0.732   3.134 -0.2140 -0.3182 -0.6937
 1842TIP3   OH2 5489   4.042   2.414   1.898  0.4169  0.0228 -0.0439
 1842TIP3    H1 5490   4.064   2.332   1.853 -0.5516 -0.2842  0.0178
 1842TIP3    H2 5491   4.112   2.426   1.962  1.5544  0.2087 -1.2945
 1843TIP3   OH2 5492   6.887   2.580   1.717  0.1056  0.4976  0.2481
 1843TIP3    H1 5493   6.860   2.638   1.646  2.4982  1.9706  0.4897
 1843TIP3    H2 5494   6.916   2.500   1.673  0.1859  0.8469 -0.3391
 1844TIP3   OH2 5495   0.563   6.701   3.514  0.0996  0.1483  0.2682
 1844TIP3    H1 5496   0.561   6.722   3.420  2.3130  0.7605  0.3356
 1844TIP3    H2 5497   0.511   6.770   3.555 -2.1548 -0.9617 -0.6227
 1845TIP3   OH2 5498   2.575   6.758   1.196 -0.0744  0.1449 -0.1775
 1845TIP3    H1 5499   2.593   6.701   1.271  1.6677 -0.1705 -0.8118
 1845TIP3    H2 5500   2.554   6.698   1.125 -0.2366  0.3805 -0.3279
 1846TIP3   OH2 5501   3.247   0.829   1.744  0.7324  1.4583  0.0340
 1846TIP3    H1 5502   3.168   0.775   1.744 -0.9798  3.8325 -2.3802
 1846TIP3    H2 5503   3.315   0.772   1.708 -0.3646  0.0192  0.2271
 1847TIP3   OH2 5504   5.165   1.381   3.240  0.2388 -0.0164 -0.7823
 1847TIP3    H1 5505   5.189   1.404   3.329 -0.7898  0.8996 -0.7322
 1847TIP3    H2 5506   5.146   1.287   3.244 -1.8302  0.4292  0.4370
 1848TIP3   OH2 5507   7.240   5.864   5.782 -0.2061  0.0769  0.4765
 1848TIP3    H1 5508   7.270   5.781   5.744  0.7052  0.8161 -0.4641
 1848TIP3    H2 5509   7.302   5.883   5.852 -0.2671  0.0942  0.5263
 1849TIP3   OH2 5510   4.488   0.292   2.274 -0.1009 -0.7070  0.1425
 1849TIP3    H1 5511   4.397   0.268   2.292 -0.3656 -0.9409 -1.4054
 1849TIP3    H2 5512   4.511   0.240   2.197  1.2022 -0.3213  0.2657
 1850TIP3   OH2 5513   4.552   1.338   4.082  0.1051 -0.1300 -0.0059
 1850TIP3    H1 5514   4.629   1.315   4.134 -0.3302  0.1999  0.8043
 1850TIP3    H2 5515   4.478   1.303   4.132 -0.3958  1.0791  0.1167
 1851TIP3   OH2 5516   7.288   5.899   2.930 -0.2931 -0.1443 -0.1050
 1851TIP3    H1 5517   7.260   5.958   2.861  0.7002  0.5097  0.0538
 1851TIP3    H2 5518   7.314   5.819   2.885  0.7224  0.4169 -0.5228
 1852TIP3   OH2 5519   2.682   6.836   1.929 -0.7399 -0.2350  0.3655
 1852TIP3    H1 5520   2.736   6.909   1.900 -0.5434 -0.6525 -0.3305
 1852TIP3    H2 5521   2.716   6.760   1.881 -1.4282 -0.6425  0.5169
 1853TIP3   OH2 5522   6.219   0.230   3.834  0.4212  0.8237 -0.2434
 1853TIP3    H1 5523   6.229   0.312   3.882  1.6677  1.7021 -1.9228
 1853TIP3    H2 5524   6.302   0.221   3.787 -0.7734  0.0358 -2.2417
 1854TIP3   OH2 5525   5.272   0.448   1.588 -0.4639  0.8494  0.2456
 1854TIP3    H1 5526   5.245   0.469   1.677  1.3995 -0.7229  1.2407
 1854TIP3    H2 5527   5.368   0.444   1.592 -0.3159  1.2032 -1.9337
 1855TIP3   OH2 5528   2.899   5.420   1.817 -0.4515  0.5147  0.4884
 1855TIP3    H1 5529   2.897   5.435   1.912 -1.8279  2.3480  0.2036
 1855TIP3    H2 5530   2.862   5.500   1.780 -1.4779 -0.8640 -1.5373
 1856TIP3   OH2 5531   3.520   0.891   3.287  0.0208 -0.2120  0.6332
 1856TIP3    H1 5532   3.494   0.977   3.254  2.8208  0.0825 -0.8777
 1856TIP3    H2 5533   3.500   0.831   3.216  0.2151 -0.4894  0.8133
 1857TIP3   OH2 5534   3.954   1.135   2.341 -0.0276 -0.3033 -0.0934
 1857TIP3    H1 5535   3.913   1.168   2.421  0.5092 -0.1629  0.1251
 1857TIP3    H2 5536   3.880   1.111   2.285 -0.4116 -0.7604  0.5936
 1858TIP3   OH2 5537   0.344   6.869   3.656  0.0741 -0.3325 -0.4780
 1858TIP3    H1 5538   0.325   6.919   3.735  0.5876 -1.6924  0.5280
 1858TIP3    H2 5539   0.317   6.927   3.584 -1.1624  0.5981  0.6983
 1859TIP3   OH2 5540   5.582   3.023   4.113  0.7206 -0.1900  0.0065
 1859TIP3    H1 5541   5.535   2.984   4.039  0.1628  0.2330  0.1346
 1859TIP3    H2 5542   5.627   3.099   4.076 -0.3460  0.5927  0.2881
 1860TIP3   OH2 5543   2.506   6.678   0.628  0.3547  0.3318  0.2257
 1860TIP3    H1 5544   2.510   6.700   0.535  2.4358 -1.5902 -0.1702
 1860TIP3    H2 5545   2.547   6.592   0.634  1.0338  0.8158  3.0621
 1861TIP3   OH2 5546   4.263   2.288   4.242 -0.1973 -0.4134  0.2872
 1861TIP3    H1 5547   4.283   2.317   4.331  3.7354 -1.9147  0.0018
 1861TIP3    H2 5548   4.235   2.367   4.196  0.0126  0.8341  2.2595
 1862TIP3   OH2 5549   1.445   6.750   1.542  0.3515 -0.0773  0.1532
 1862TIP3    H1 5550   1.480   6.782   1.624  0.3056 -0.3377  0.2738
 1862TIP3    H2 5551   1.455   6.823   1.481 -3.5590  1.6876  1.4805
 1863TIP3   OH2 5552   7.008   2.415   0.180  0.0327 -0.0694  0.5599
 1863TIP3    H1 5553   6.975   2.473   0.248 -0.7151 -1.6190  1.5361
 1863TIP3    H2 5554   7.047   2.342   0.227  1.4394 -0.1367 -0.6552
 1864TIP3   OH2 5555   1.262   5.258   2.360 -0.2674 -0.9018 -0.3262
 1864TIP3    H1 5556   1.245   5.351   2.378  0.6986 -0.3040 -2.2349
 1864TIP3    H2 5557   1.341   5.238   2.410  0.0692 -0.4148 -0.6559
 1865TIP3   OH2 5558   4.565   2.617   3.712  0.0817  0.0327  0.0580
 1865TIP3    H1 5559   4.558   2.671   3.634 -0.1141  1.3376  0.9716
 1865TIP3    H2 5560   4.479   2.577   3.722 -0.2252  0.7457  0.2440
 1866TIP3   OH2 5561   5.199   1.869   1.579 -0.2299 -0.1442 -0.4170
 1866TIP3    H1 5562   5.123   1.876   1.521 -0.6489 -2.8035 -0.2660
 1866TIP3    H2 5563   5.188   1.784   1.623  2.1313  0.0380  0.6100
 1867TIP3   OH2 5564   2.570   2.236   2.111 -0.5287  0.4127 -0.4900
 1867TIP3    H1 5565   2.543   2.150   2.141 -0.6785  0.4305 -0.5739
 1867TIP3    H2 5566   2.573   2.228   2.016 -0.0220  0.3463 -0.4677
 1868TIP3   OH2 5567   0.410   5.950   5.647  0.2266 -0.1900 -0.5173
 1868TIP3    H1 5568   0.354   6.011   5.694  0.0940  0.2540 -1.2422
 1868TIP3    H2 5569   0.453   6.003   5.580  1.5538 -0.5121  0.0573
 1869TIP3   OH2 5570   5.157   1.221   1.022 -0.5180  0.2616 -0.1785
 1869TIP3    H1 5571   5.231   1.248   0.968 -0.5088 -0.7858 -0.7166
 1869TIP3    H2 5572   5.156   1.283   1.095  3.1017 -1.7789  1.8028
 1870TIP3   OH2 5573   6.610   0.855   5.896  0.0336  0.0063  0.6291
 1870TIP3    H1 5574   6.672   0.826   5.830  1.4968  1.7240  1.2252
 1870TIP3    H2 5575   6.586   0.944   5.871 -0.8328  0.0066  1.3922
 1871TIP3   OH2 5576   0.955   5.531   1.778  0.2848  0.0943  0.1460
 1871TIP3    H1 5577   1.038   5.580   1.777  1.5101 -1.9115 -0.4095
 1871TIP3    H2 5578   0.967   5.464   1.845 -0.6615 -0.6006 -0.3657
 1872TIP3   OH2 5579   4.580   6.810   1.748  0.8299  0.3728  0.5034
 1872TIP3    H1 5580   4.674   6.794   1.737  0.5741 -0.8991  0.0136
 1872TIP3    H2 5581   4.549   6.832   1.660  0.5700  0.2317  0.5590
 1873TIP3   OH2 5582   2.882   6.371   4.497  0.1733  0.5473  0.1252
 1873TIP3    H1 5583   2.958   6.391   4.442  1.0216  2.8235  2.0432
 1873TIP3    H2 5584   2.917   6.369   4.586 -1.5179 -1.2106  0.7747
 1874TIP3   OH2 5585   6.474   1.439   2.891 -0.1443 -0.0936 -0.2847
 1874TIP3    H1 5586   6.568   1.424   2.883 -0.0446 -0.5066  1.3436
 1874TIP3    H2 5587   6.446   1.378   2.960 -1.2890  1.1858  0.4125
 1875TIP3   OH2 5588   4.575   1.044   5.209 -0.2765  0.0045  0.2224
 1875TIP3    H1 5589   4.528   1.121   5.177  2.7029  1.6020 -0.5394
 1875TIP3    H2 5590   4.565   0.979   5.140  0.8249  1.2513 -1.1425
 1876TIP3   OH2 5591   7.165   6.470   3.283 -0.1005  0.4025  0.3061
 1876TIP3    H1 5592   7.125   6.493   3.367 -2.2636  1.4564 -0.9620
 1876TIP3    H2 5593   7.164   6.374   3.281 -0.8370  0.3890  1.0943
 1877TIP3   OH2 5594   2.936   1.564   3.895 -0.5219  0.2497 -0.0966
 1877TIP3    H1 5595   2.915   1.481   3.852 -0.7286 -0.5165  1.4416
 1877TIP3    H2 5596   3.017   1.592   3.854 -0.8011 -0.3652 -1.1014
 1878TIP3   OH2 5597   0.656   6.480   4.707 -0.3362 -0.1809  0.7761
 1878TIP3    H1 5598   0.573   6.461   4.664 -0.3697  0.6105  0.4900
 1878TIP3    H2 5599   0.714   6.507   4.636  0.2465 -0.9641  0.9393
 1879TIP3   OH2 5600   5.743   2.453   3.821  0.0010  0.1348 -0.1251
 1879TIP3    H1 5601   5.828   2.471   3.861 -0.0344 -1.1299  0.5275
 1879TIP3    H2 5602   5.680   2.469   3.892 -0.2084 -0.1916 -0.2395
 1880TIP3   OH2 5603   0.841   4.453   4.970 -0.0311 -0.5808 -0.4586
 1880TIP3    H1 5604   0.830   4.508   4.892  1.1935  1.0910  0.5001
 1880TIP3    H2 5605   0.772   4.482   5.029  0.1936 -0.5545 -0.2108
 1881TIP3   OH2 5606   3.428   3.275   3.268  0.2374 -0.1175  0.2936
 1881TIP3    H1 5607   3.505   3.219   3.268 -0.4847 -1.1241  0.9258
 1881TIP3    H2 5608   3.410   3.292   3.361  0.0889  0.6608  0.1340
 1882TIP3   OH2 5609   6.170   6.845   0.203 -0.1235  0.5507 -0.7412
 1882TIP3    H1 5610   6.258   6.818   0.230  0.9502  0.6400 -3.9577
 1882TIP3    H2 5611   6.182   6.931   0.164 -1.7472  0.8063 -0.6976
 1883TIP3   OH2 5612   2.689   1.221   1.749  1.0929 -0.1400 -0.0640
 1883TIP3    H1 5613   2.674   1.258   1.836 -0.8309  1.1261 -0.8919
 1883TIP3    H2 5614   2.750   1.149   1.764  0.9244  0.1600  2.3133
 1884TIP3   OH2 5615   4.142   2.006   3.676 -0.5726 -0.2194  0.0156
 1884TIP3    H1 5616   4.124   1.941   3.608  2.4833  0.8018 -1.8579
 1884TIP3    H2 5617   4.219   1.972   3.723 -0.0294  1.1623  0.1574
 1885TIP3   OH2 5618   4.969   3.015   4.084  0.2346  0.3619  0.2144
 1885TIP3    H1 5619   4.902   2.987   4.023 -0.5814  1.6754  0.5047
 1885TIP3    H2 5620   4.944   3.104   4.110  1.3625  0.3807  1.3176
 1886TIP3   OH2 5621   4.363   5.878   3.001  0.6009  0.3486 -0.1911
 1886TIP3    H1 5622   4.313   5.948   3.044 -1.3255 -1.0472 -0.1178
 1886TIP3    H2 5623   4.377   5.813   3.070 -1.1035 -1.1595 -1.2085
 1887TIP3   OH2 5624   5.704   2.296   4.822  0.5618  0.0767 -0.2530
 1887TIP3    H1 5625   5.704   2.340   4.907  0.2776 -1.2175  0.4252
 1887TIP3    H2 5626   5.783   2.243   4.822  0.9766  0.6810 -1.1282
 1888TIP3   OH2 5627   4.631   6.505   2.651  1.2263  0.0047  0.1169
 1888TIP3    H1 5628   4.592   6.418   2.638  1.0394 -0.0863  1.2224
 1888TIP3    H2 5629   4.680   6.521   2.571  0.1069 -0.5097 -0.6802
 1889TIP3   OH2 5630   5.425   2.669   4.659  0.6907 -0.7659  0.4207
 1889TIP3    H1 5631   5.463   2.691   4.574  0.3609 -0.8634  0.2496
 1889TIP3    H2 5632   5.497   2.628   4.707  0.7373 -1.1820  0.0055
 1890TIP3   OH2 5633   5.264   0.379   2.837  0.4162  0.3124  0.2240
 1890TIP3    H1 5634   5.244   0.351   2.926 -1.6509 -1.0332 -0.6406
 1890TIP3    H2 5635   5.246   0.303   2.782 -0.4058  1.7564 -1.5886
 1891TIP3   OH2 5636   3.849   3.030   3.151  0.1988  0.9172  0.5653
 1891TIP3    H1 5637   3.871   2.939   3.131 -0.2869  0.4917  1.9673
 1891TIP3    H2 5638   3.877   3.078   3.073  0.4273 -0.4289 -0.2076
 1892TIP3   OH2 5639   3.140   1.559   2.093 -0.5561 -0.3096 -0.1465
 1892TIP3    H1 5640   3.111   1.650   2.088  0.6021  0.0265 -1.0959
 1892TIP3    H2 5641   3.119   1.523   2.006 -0.3888 -0.7421 -0.0094
 1893TIP3   OH2 5642   5.243   2.576   1.875 -0.1950 -0.5631 -0.4992
 1893TIP3    H1 5643   5.181   2.536   1.936 -0.0985 -0.7479 -0.5205
 1893TIP3    H2 5644   5.194   2.648   1.835 -0.0265  0.0049  0.3097
 1894TIP3   OH2 5645   3.328   1.537   2.306  0.1420  0.1158 -0.8181
 1894TIP3    H1 5646   3.251   1.547   2.249 -0.6069 -0.5812  0.0588
 1894TIP3    H2 5647   3.403   1.542   2.246 -0.6153 -0.0487 -1.7959
 1895TIP3   OH2 5648   4.188   1.747   3.443  0.0757 -0.0673  0.8203
 1895TIP3    H1 5649   4.189   1.809   3.371  2.1379 -1.6546 -0.5584
 1895TIP3    H2 5650   4.142   1.670   3.408  1.8725 -1.1897  0.8652
 1896TIP3   OH2 5651   5.285   1.981   2.126 -1.0130  0.2948  0.0965
 1896TIP3    H1 5652   5.293   1.981   2.031 -2.7835  0.6563 -0.0611
 1896TIP3    H2 5653   5.303   2.072   2.152 -3.3595  0.8604 -0.1631
 1897TIP3   OH2 5654   1.220   6.353   2.536 -0.0124 -0.1718  0.3921
 1897TIP3    H1 5655   1.142   6.371   2.587 -0.5012  1.1064 -0.7782
 1897TIP3    H2 5656   1.234   6.258   2.544 -3.4367 -0.9436 -1.8672
 1898TIP3   OH2 5657   3.776   0.841   1.357  0.2097 -0.2659  0.1439
 1898TIP3    H1 5658   3.865   0.877   1.356  0.6776 -1.3955 -0.4214
 1898TIP3    H2 5659   3.723   0.908   1.399  1.6142 -0.1902  1.8631
 1899TIP3   OH2 5660   1.954   5.909   1.831  0.1450 -0.3320  0.5025
 1899TIP3    H1 5661   2.025   5.959   1.869 -0.3086  0.4515  0.3450
 1899TIP3    H2 5662   1.997   5.842   1.777  0.7906 -1.6761  2.6294
 1900TIP3   OH2 5663   3.437   1.335   3.413 -0.8097 -0.0690 -0.6111
 1900TIP3    H1 5664   3.430   1.285   3.332 -1.0626 -0.9486 -0.0441
 1900TIP3    H2 5665   3.346   1.359   3.434 -1.1090 -2.4483  1.0406
 1901TIP3   OH2 5666   2.465   1.329   3.446  0.0158  0.4777  0.3463
 1901TIP3    H1 5667   2.515   1.252   3.420  0.2031  0.6177  0.2919
 1901TIP3    H2 5668   2.458   1.323   3.541  0.2502  0.5272  0.3670
 1902TIP3   OH2 5669   4.232   3.616   2.682  0.1393  0.0792 -0.0518
 1902TIP3    H1 5670   4.270   3.683   2.740 -1.5852 -1.1326  2.5939
 1902TIP3    H2 5671   4.271   3.534   2.713 -1.8033 -0.7432  0.2973
 1903TIP3   OH2 5672   4.562   1.679   3.126 -0.2209  0.5046  0.3090
 1903TIP3    H1 5673   4.624   1.741   3.165  1.5938 -2.1296  1.7904
 1903TIP3    H2 5674   4.611   1.639   3.055 -0.9294 -0.1368  0.1832
 1904TIP3   OH2 5675   4.486   2.254   2.907 -0.4733 -0.4411  0.3438
 1904TIP3    H1 5676   4.516   2.278   2.994  0.8636 -0.5771 -0.0725
 1904TIP3    H2 5677   4.456   2.337   2.869  1.5552  0.1233 -0.0760
 1905TIP3   OH2 5678   6.426   2.283   2.364 -0.5392  0.3989 -0.3706
 1905TIP3    H1 5679   6.382   2.229   2.430 -1.5656  2.8101  0.9779
 1905TIP3    H2 5680   6.390   2.254   2.281 -1.3710 -0.7071  0.3584
 1906TIP3   OH2 5681   2.815   6.812   3.381 -0.4340  0.0127 -0.3732
 1906TIP3    H1 5682   2.774   6.789   3.464  2.6613 -0.9509  0.9375
 1906TIP3    H2 5683   2.744   6.849   3.329 -3.0735 -2.0604  1.6120
 1907TIP3   OH2 5684   4.516   3.049   3.140 -0.1750  0.5166  0.5635
 1907TIP3    H1 5685   4.585   2.988   3.115 -0.9120 -0.2662  0.4126
 1907TIP3    H2 5686   4.551   3.096   3.215  0.4271 -0.0491  0.6379
 1908TIP3   OH2 5687   3.597   1.738   4.709  0.1703 -0.1540  0.3924
 1908TIP3    H1 5688   3.666   1.803   4.725  0.1107  0.7332 -2.6602
 1908TIP3    H2 5689   3.639   1.672   4.654 -1.3591  0.3153 -1.3642
 1909TIP3   OH2 5690   3.855   1.417   3.793 -0.2477 -0.5009 -0.6530
 1909TIP3    H1 5691   3.916   1.407   3.720  0.1772  1.0466 -0.5284
 1909TIP3    H2 5692   3.780   1.362   3.769  0.6868 -1.5055 -1.3466
 1910TIP3   OH2 5693   5.953   1.690   2.931 -0.3426 -0.1859 -0.6670
 1910TIP3    H1 5694   6.031   1.659   2.884 -0.0508 -1.4909  0.6453
 1910TIP3    H2 5695   5.986   1.763   2.985 -0.3898  0.3907 -1.4118
 1911TIP3   OH2 5696   6.270   2.124   3.295  0.0761  0.3553 -0.1517
 1911TIP3    H1 5697   6.229   2.122   3.209 -0.2328 -1.1278  0.0092
 1911TIP3    H2 5698   6.364   2.113   3.278 -0.1245 -1.4430 -0.2430
 1912TIP3   OH2 5699   4.313   1.674   2.960  0.2331  0.0600  0.2089
 1912TIP3    H1 5700   4.384   1.714   3.009 -0.2703 -0.1205  1.1034
 1912TIP3    H2 5701   4.356   1.620   2.894  1.0167 -3.1285  3.1900
 1913TIP3   OH2 5702   2.369   0.385   3.481 -0.2243  0.4025 -0.1929
 1913TIP3    H1 5703   2.306   0.402   3.411 -1.1766  0.5119  0.6813
 1913TIP3    H2 5704   2.387   0.471   3.519  0.9660  0.4638 -0.8593
 1914TIP3   OH2 5705   5.308   1.141   3.016 -0.1951 -0.2251 -0.1255
 1914TIP3    H1 5706   5.353   1.057   3.024  2.8358  1.2286 -0.9483
 1914TIP3    H2 5707   5.252   1.146   3.094  2.2854 -1.4798  1.8365
 1915TIP3   OH2 5708   2.926   0.924   3.515 -0.3763 -0.2475 -0.6161
 1915TIP3    H1 5709   2.965   0.924   3.427 -1.2134 -0.5194 -1.0003
 1915TIP3    H2 5710   2.945   0.837   3.550 -0.6066 -0.3751 -0.7987
 1916TIP3   OH2 5711   3.486   1.929   2.467  0.0500  0.4893  0.4489
 1916TIP3    H1 5712   3.544   1.877   2.411 -1.7428 -1.1744  0.0822
 1916TIP3    H2 5713   3.483   1.880   2.549 -1.9745 -0.2489 -0.0437
 1917TIP3   OH2 5714   5.474   0.109   2.506  0.3950  0.0938  0.3821
 1917TIP3    H1 5715   5.464   0.036   2.445  0.6135  1.3361 -1.1571
 1917TIP3    H2 5716   5.528   0.172   2.459  0.6920  1.0103  1.9215
 1918TIP3   OH2 5717   6.364   3.703   4.280 -0.0957 -0.4410 -0.8193
 1918TIP3    H1 5718   6.392   3.685   4.190  0.6327  0.3070 -0.7504
 1918TIP3    H2 5719   6.303   3.776   4.272  0.8740  0.4060 -0.5990
 1919TIP3   OH2 5720   2.047   6.774   2.220  1.0930 -0.0510  0.2084
 1919TIP3    H1 5721   2.001   6.765   2.303  3.0115 -1.8287  1.1106
 1919TIP3    H2 5722   2.139   6.777   2.243  1.6475 -0.5580 -1.8435
 1920TIP3   OH2 5723   0.460   0.221   1.846  0.0259  0.0790 -0.4709
 1920TIP3    H1 5724   0.531   0.271   1.807  1.1751 -2.3901 -1.6652
 1920TIP3    H2 5725   0.406   0.194   1.772 -0.8402 -0.0475  0.2021
 1921TIP3   OH2 5726   5.416   2.942   5.355 -0.0370  0.3076  0.7118
 1921TIP3    H1 5727   5.325   2.955   5.383 -0.5307 -2.2265  0.3462
 1921TIP3    H2 5728   5.429   3.008   5.287 -1.6138  0.6689  0.7330
 1922TIP3   OH2 5729   4.623   2.088   2.728 -0.2189 -0.2986  0.2456
 1922TIP3    H1 5730   4.593   2.156   2.790  2.3872  0.6814  0.4767
 1922TIP3    H2 5731   4.542   2.043   2.703 -1.8776  2.0472  1.0825
 1923TIP3   OH2 5732   7.033   1.434   1.845  0.7097 -0.1197  0.0102
 1923TIP3    H1 5733   7.050   1.525   1.823  0.7096 -0.4231 -1.3077
 1923TIP3    H2 5734   7.120   1.397   1.862  0.6386  0.3208  1.3754
 1924TIP3   OH2 5735   4.368   6.996   0.821 -0.4447 -0.1731 -0.2155
 1924TIP3    H1 5736   4.305   7.000   0.893  2.2660 -0.1770  2.2316
 1924TIP3    H2 5737   4.396   6.905   0.817 -0.1320 -0.0555 -0.8901
 1925TIP3   OH2 5738   1.959   0.374   0.930 -0.0661  0.2180  0.4916
 1925TIP3    H1 5739   1.929   0.284   0.916  0.9931  0.0982 -1.2008
 1925TIP3    H2 5740   2.025   0.366   0.999  0.5768 -0.4252 -0.1872
 1926TIP3   OH2 5741   3.039   5.489   2.919  0.2673  0.1527  0.2967
 1926TIP3    H1 5742   3.049   5.402   2.957 -2.2954 -0.4803 -0.3831
 1926TIP3    H2 5743   3.099   5.490   2.844  0.6123 -0.8717  0.5589
 1927TIP3   OH2 5744   4.251   1.774   1.201 -0.3178  0.3849  0.5853
 1927TIP3    H1 5745   4.169   1.812   1.168 -0.9768 -0.7912  0.8111
 1927TIP3    H2 5746   4.241   1.776   1.297  0.3386  1.1218  0.6427
 1928TIP3   OH2 5747   6.002   2.716   2.630  0.7235 -0.3940 -0.5747
 1928TIP3    H1 5748   6.078   2.686   2.681  0.6207  0.7692  0.2715
 1928TIP3    H2 5749   5.934   2.730   2.696 -0.2996 -1.6242 -1.3586
 1929TIP3   OH2 5750   3.258   6.237   2.275  0.4720  0.3509  0.3642
 1929TIP3    H1 5751   3.345   6.201   2.256  0.9517  0.2548  2.5766
 1929TIP3    H2 5752   3.199   6.161   2.271  0.7852  0.0919  0.5858
 1930TIP3   OH2 5753   7.344   1.052   3.593  0.0459 -0.7756  0.5411
 1930TIP3    H1 5754   7.389   0.992   3.652  0.8680  0.1160  0.8359
 1930TIP3    H2 5755   7.313   1.123   3.649  0.4101 -0.1636 -0.0173
 1931TIP3   OH2 5756   5.389   1.985   1.830  0.1908 -0.3020 -0.4494
 1931TIP3    H1 5757   5.470   2.036   1.818 -1.5369  2.7636  0.3626
 1931TIP3    H2 5758   5.357   1.970   1.741  0.6136  0.2433 -0.6978
 1932TIP3   OH2 5759   3.638   4.937   2.892  0.1856 -0.2859 -0.2546
 1932TIP3    H1 5760   3.544   4.934   2.911  0.1753 -0.0083 -0.2582
 1932TIP3    H2 5761   3.658   4.851   2.855  0.1422 -0.7190  0.7244
 1933TIP3   OH2 5762   6.221   2.101   2.472 -0.2439  0.4199  0.4748
 1933TIP3    H1 5763   6.211   2.128   2.563 -2.7762 -0.1638  0.4041
 1933TIP3    H2 5764   6.230   2.006   2.476  0.6096  0.4855  0.1795
 1934TIP3   OH2 5765   6.058   0.395   3.559  0.4538  0.3476  0.5253
 1934TIP3    H1 5766   6.149   0.420   3.573  0.5269 -0.2053  1.0289
 1934TIP3    H2 5767   6.013   0.477   3.542  0.9361  0.6835  0.8721
 1935TIP3   OH2 5768   1.651   4.037   5.931 -0.1860  0.6255 -0.1797
 1935TIP3    H1 5769   1.643   3.977   6.005  2.1563 -0.0576 -0.4294
 1935TIP3    H2 5770   1.715   4.102   5.960  1.2828 -0.0320 -1.7982
 1936TIP3   OH2 5771   0.050   1.517   3.031 -0.3244  0.3766  0.0496
 1936TIP3    H1 5772   0.012   1.430   3.040  0.0389  0.1818 -0.2563
 1936TIP3    H2 5773   0.143   1.504   3.048 -0.4474  0.9175  1.1665
 1937TIP3   OH2 5774   5.689   3.342   3.481  0.9465  0.0670 -0.9163
 1937TIP3    H1 5775   5.751   3.336   3.554 -0.5086 -0.1448  0.3302
 1937TIP3    H2 5776   5.744   3.339   3.402  2.4333 -1.1996  0.1329
 1938TIP3   OH2 5777   0.628   0.955   1.340 -0.2332 -0.1744  0.4752
 1938TIP3    H1 5778   0.578   0.892   1.289  0.6772 -1.8154  1.5853
 1938TIP3    H2 5779   0.598   0.943   1.430 -0.5139  1.4400  0.6176
 1939TIP3   OH2 5780   6.654   1.139   1.998 -0.1546 -0.2346 -0.4729
 1939TIP3    H1 5781   6.709   1.175   1.929  1.5614 -0.8110  0.5636
 1939TIP3    H2 5782   6.712   1.132   2.074 -2.1833  1.0300  1.2474
 1940TIP3   OH2 5783   3.040   5.927   2.070  0.1020 -0.0448  0.0250
 1940TIP3    H1 5784   3.060   5.953   2.160 -0.0283 -1.1144  0.3666
 1940TIP3    H2 5785   3.118   5.952   2.021  0.2432  0.3903  0.4630
 1941TIP3   OH2 5786   5.677   1.055   4.468  0.0517 -0.1248 -0.1311
 1941TIP3    H1 5787   5.610   1.120   4.491  0.8794  0.5445  0.4127
 1941TIP3    H2 5788   5.695   1.070   4.376 -1.0276 -0.7512 -0.4526
 1942TIP3   OH2 5789   5.328   1.717   3.558  0.0163 -0.0113 -0.0657
 1942TIP3    H1 5790   5.307   1.715   3.651  3.0807 -0.1638  0.6996
 1942TIP3    H2 5791   5.300   1.632   3.524 -1.0110  0.0093  0.7445
 1943TIP3   OH2 5792   4.681   6.360   1.524  0.1961  0.2711  0.1154
 1943TIP3    H1 5793   4.680   6.354   1.428 -0.7585  0.0274  0.1325
 1943TIP3    H2 5794   4.685   6.268   1.553 -0.8705  0.2795  0.3121
 1944TIP3   OH2 5795   6.170   1.721   4.164  0.7046  0.1936  0.0311
 1944TIP3    H1 5796   6.133   1.635   4.142 -1.2075  1.1776 -0.6971
 1944TIP3    H2 5797   6.105   1.761   4.222  1.3787  1.3453  0.0114
 1945TIP3   OH2 5798   7.065   1.628   1.578  0.0053 -0.0839  0.4464
 1945TIP3    H1 5799   6.988   1.652   1.630  0.9126 -0.0401  1.7993
 1945TIP3    H2 5800   7.033   1.564   1.515 -1.3202  0.5971  0.4139
 1946TIP3   OH2 5801   5.513   1.710   1.721  1.0520  0.0888 -0.6997
 1946TIP3    H1 5802   5.606   1.732   1.713  0.7020  1.1539 -2.0420
 1946TIP3    H2 5803   5.477   1.775   1.781  1.4953 -1.3580  1.1811
 1947TIP3   OH2 5804   6.747   1.716   0.945 -0.1747 -0.0243  0.1988
 1947TIP3    H1 5805   6.794   1.752   0.870 -1.2706  0.5656 -0.2141
 1947TIP3    H2 5806   6.728   1.625   0.920  1.3665 -0.4859  0.6683
 1948TIP3   OH2 5807   2.391   0.727   3.908  0.2268 -0.1234  0.8276
 1948TIP3    H1 5808   2.464   0.742   3.968 -0.6324  0.7460  1.6995
 1948TIP3    H2 5809   2.349   0.647   3.941  0.9399 -0.7738  0.1626
 1949TIP3   OH2 5810   6.439   2.511   1.942  0.6047  0.1436  0.0086
 1949TIP3    H1 5811   6.417   2.604   1.944  3.1303  0.7648  0.5298
 1949TIP3    H2 5812   6.526   2.506   1.980 -0.6609 -2.8082  2.7899
 1950TIP3   OH2 5813   6.791   1.052   3.135 -0.3422  0.7795 -0.6127
 1950TIP3    H1 5814   6.789   1.028   3.043 -1.2214 -0.1739 -0.3544
 1950TIP3    H2 5815   6.885   1.058   3.156 -0.0634 -1.6334 -0.9122
 1951TIP3   OH2 5816   2.328   3.144   5.794 -0.2610  0.3142 -0.6908
 1951TIP3    H1 5817   2.350   3.230   5.829  0.4895  0.1876 -0.8417
 1951TIP3    H2 5818   2.409   3.113   5.754 -0.2808 -0.8289  0.1294
 1952TIP3   OH2 5819   6.535   3.374   1.364 -0.4404  0.0971 -0.1076
 1952TIP3    H1 5820   6.582   3.420   1.294  0.4120 -1.5914 -0.6740
 1952TIP3    H2 5821   6.600   3.360   1.432 -0.2736 -1.6640 -0.6099
 1953TIP3   OH2 5822   7.120   3.871   3.463  0.2011 -0.1728 -0.1588
 1953TIP3    H1 5823   7.180   3.808   3.501 -0.2325  0.5520  1.7714
 1953TIP3    H2 5824   7.035   3.851   3.501 -0.8263 -1.1615 -2.8382
 1954TIP3   OH2 5825   5.275   6.333   1.509 -0.4319  0.0633 -0.6571
 1954TIP3    H1 5826   5.194   6.384   1.501 -0.4835  0.0860 -0.0537
 1954TIP3    H2 5827   5.279   6.310   1.602  0.2880  0.1166 -0.6725
 1955TIP3   OH2 5828   3.607   6.983   2.109  0.5728 -0.2035 -0.3853
 1955TIP3    H1 5829   3.556   6.905   2.132 -1.6648  0.9276 -1.2825
 1955TIP3    H2 5830   3.616   6.977   2.014 -0.5725  1.1834 -0.5867
 1956TIP3   OH2 5831   2.893   6.872   1.374  0.2341 -0.0186  0.1460
 1956TIP3    H1 5832   2.860   6.887   1.462  0.7496  1.7040  0.0715
 1956TIP3    H2 5833   2.815   6.849   1.322 -0.1208 -0.6595  0.9546
 1957TIP3   OH2 5834   5.196   0.312   3.126  0.6782  0.2832  0.6302
 1957TIP3    H1 5835   5.111   0.353   3.110  0.4399 -1.1612 -2.0750
 1957TIP3    H2 5836   5.179   0.248   3.195 -0.7723 -0.9474 -0.8274
 1958TIP3   OH2 5837   5.569   0.837   3.781  0.7540  0.0554 -0.4147
 1958TIP3    H1 5838   5.649   0.797   3.745  1.1675  0.7446 -0.2749
 1958TIP3    H2 5839   5.502   0.770   3.770  1.8583 -1.4146  1.5740
 1959TIP3   OH2 5840   1.714   6.330   1.801  0.6892 -0.4143 -0.9955
 1959TIP3    H1 5841   1.802   6.304   1.828  0.9596  3.0272  1.9029
 1959TIP3    H2 5842   1.727   6.412   1.754 -0.8078 -1.0271 -2.5177
 1960TIP3   OH2 5843   6.241   0.179   1.646 -0.3244 -0.1922 -0.1551
 1960TIP3    H1 5844   6.185   0.254   1.667 -0.9298 -0.8034  0.4432
 1960TIP3    H2 5845   6.189   0.128   1.584 -0.1439 -0.3994 -0.1330
 1961TIP3   OH2 5846   4.533   6.340   3.038  0.6913  0.0679  0.7441
 1961TIP3    H1 5847   4.519   6.313   2.947  0.0880 -0.7391  1.0703
 1961TIP3    H2 5848   4.472   6.413   3.050  0.2310 -0.3066  0.7163
 1962TIP3   OH2 5849   1.785   6.573   2.478 -0.5445  0.1844 -0.2141
 1962TIP3    H1 5850   1.873   6.535   2.478 -0.3880  0.5538 -1.0065
 1962TIP3    H2 5851   1.748   6.548   2.393 -0.0086  2.8278 -1.2535
 1963TIP3   OH2 5852   0.653   1.522   1.142 -0.2981  0.1395 -0.3489
 1963TIP3    H1 5853   0.661   1.538   1.236 -1.7532 -0.3543 -0.1190
 1963TIP3    H2 5854   0.730   1.564   1.103  0.0553  0.7695  1.0087
 1964TIP3   OH2 5855   6.499   0.871   0.276 -0.1038  0.5454  0.5051
 1964TIP3    H1 5856   6.517   0.934   0.206  1.9192 -0.2422  0.2982
 1964TIP3    H2 5857   6.453   0.800   0.232  1.6453 -0.2006 -0.1510
 1965TIP3   OH2 5858   5.880   0.495   1.845 -0.2870 -0.4323  0.2004
 1965TIP3    H1 5859   5.864   0.518   1.936 -1.1314  0.3755 -0.1412
 1965TIP3    H2 5860   5.959   0.441   1.847 -1.3054 -1.9251  1.5962
 1966TIP3   OH2 5861   5.850   2.657   1.260 -0.1228 -0.5662 -0.2962
 1966TIP3    H1 5862   5.902   2.584   1.225  1.0162  0.8010 -1.4987
 1966TIP3    H2 5863   5.887   2.673   1.347 -0.4747 -1.4950  0.0383
 1967TIP3   OH2 5864   0.450   2.750   5.877  0.6526 -0.4846 -0.8252
 1967TIP3    H1 5865   0.407   2.744   5.792 -0.6786 -0.8716 -0.1241
 1967TIP3    H2 5866   0.428   2.668   5.922 -1.6837  1.2477  1.2992
 1968TIP3   OH2 5867   5.298   0.335   1.295 -0.0459 -0.7536 -0.0415
 1968TIP3    H1 5868   5.230   0.397   1.269 -0.5875 -0.9101  0.9905
 1968TIP3    H2 5869   5.279   0.314   1.386  2.8615  1.1463  1.0665
 1969TIP3   OH2 5870   6.136   1.546   2.518  0.7173 -0.7523 -0.0592
 1969TIP3    H1 5871   6.040   1.550   2.508  0.7786  0.3459 -0.2705
 1969TIP3    H2 5872   6.166   1.500   2.439  0.1410 -3.7524  1.4088
 1970TIP3   OH2 5873   5.682   2.058   4.398 -0.0473  0.3234  0.2153
 1970TIP3    H1 5874   5.627   1.982   4.415 -0.8528  0.7291 -0.5508
 1970TIP3    H2 5875   5.628   2.133   4.425  1.2862  0.5524  2.3609
 1971TIP3   OH2 5876   2.261   2.751   5.807 -0.0027  0.1149 -0.6005
 1971TIP3    H1 5877   2.237   2.742   5.899  0.5570  0.0524 -0.4568
 1971TIP3    H2 5878   2.202   2.818   5.773  1.1214  1.5989  0.2947
 1972TIP3   OH2 5879   3.983   0.957   3.450  0.2092 -0.3996 -0.0957
 1972TIP3    H1 5880   3.960   0.948   3.542  0.1755 -0.2613 -0.0906
 1972TIP3    H2 5881   3.935   1.034   3.420  2.9912  1.7529  0.6946
 1973TIP3   OH2 5882   6.648   0.660   3.385 -0.2735 -0.7294 -0.6612
 1973TIP3    H1 5883   6.683   0.746   3.359 -3.4125  0.6891 -0.4378
 1973TIP3    H2 5884   6.712   0.626   3.446  1.2404  1.2960 -1.0569
 1974TIP3   OH2 5885   6.242   2.849   4.344  0.4928 -0.3171  0.3987
 1974TIP3    H1 5886   6.186   2.804   4.407 -0.0593 -1.6663 -1.0073
 1974TIP3    H2 5887   6.284   2.778   4.295  2.5764  0.6975  0.6924
 1975TIP3   OH2 5888   5.980   4.010   1.896  0.1686 -0.6579  0.7631
 1975TIP3    H1 5889   5.885   4.015   1.908 -0.0069  0.3886 -0.8833
 1975TIP3    H2 5890   5.991   3.990   1.803  1.5575 -1.6729  1.1282
 1976TIP3   OH2 5891   4.906   1.161   1.475 -0.0801  0.7503 -0.1643
 1976TIP3    H1 5892   4.902   1.244   1.523  0.8211  0.7601 -0.1072
 1976TIP3    H2 5893   4.829   1.112   1.506  1.8065 -0.2537  3.1633
 1977TIP3   OH2 5894   0.229   0.574   1.580  0.4929 -0.0953 -0.0576
 1977TIP3    H1 5895   0.253   0.594   1.671  0.1849  0.4269 -0.0911
 1977TIP3    H2 5896   0.221   0.659   1.538  0.6946 -0.3390 -0.5935
 1978TIP3   OH2 5897   6.370   1.168   4.660 -0.7582  0.5683  0.1045
 1978TIP3    H1 5898   6.358   1.078   4.691  1.4906  0.9513  2.2414
 1978TIP3    H2 5899   6.459   1.170   4.625 -0.6383  2.0467  0.4398
 1979TIP3   OH2 5900   6.606   1.378   0.310 -0.1219 -0.1186  0.2963
 1979TIP3    H1 5901   6.663   1.307   0.279 -0.2012  0.6348 -1.6294
 1979TIP3    H2 5902   6.518   1.347   0.291 -0.2007  0.0893  0.3285
 1980TIP3   OH2 5903   5.115   1.051   1.734  0.0070  0.0140  0.1514
 1980TIP3    H1 5904   5.143   0.960   1.742  1.1839  0.2239 -1.3517
 1980TIP3    H2 5905   5.192   1.102   1.759  0.5787  0.5961 -2.6001
 1981TIP3   OH2 5906   6.551   2.496   2.460 -0.3116  0.3028 -0.4244
 1981TIP3    H1 5907   6.495   2.543   2.520  0.7047 -1.6550  2.1592
 1981TIP3    H2 5908   6.500   2.420   2.432  0.6257 -0.9689  1.1912
 1982TIP3   OH2 5909   5.918   1.523   3.264  0.4140 -0.8007 -0.9804
 1982TIP3    H1 5910   5.978   1.493   3.195 -0.0979 -1.7109 -1.0477
 1982TIP3    H2 5911   5.835   1.481   3.242  0.6527 -2.4531  1.1191
 1983TIP3   OH2 5912   6.738   1.903   1.775 -0.2729 -0.1440  0.0504
 1983TIP3    H1 5913   6.741   1.807   1.776  0.9306 -0.1006  1.4532
 1983TIP3    H2 5914   6.670   1.924   1.711 -1.4570 -1.9520  0.6947
 1984TIP3   OH2 5915   1.433   0.991   0.722 -0.4282 -0.3997  0.2794
 1984TIP3    H1 5916   1.426   1.050   0.647  0.6807 -0.3665  0.1888
 1984TIP3    H2 5917   1.400   1.041   0.796  0.7993  0.4651  0.2586
 1985TIP3   OH2 5918   6.311   1.308   1.895 -0.4639 -0.3971  1.0244
 1985TIP3    H1 5919   6.287   1.281   1.807  0.7025  3.2165 -0.4912
 1985TIP3    H2 5920   6.402   1.279   1.905  0.2126  1.3554  0.0740
 1986TIP3   OH2 5921   1.435   2.307   3.653 -0.7345  0.1097  0.2155
 1986TIP3    H1 5922   1.380   2.286   3.578  0.3363  1.2356 -0.9125
 1986TIP3    H2 5923   1.499   2.370   3.619  0.1403  0.1743  1.9236
 1987TIP3   OH2 5924   5.679   0.707   0.798  0.3270  0.0661  0.3592
 1987TIP3    H1 5925   5.666   0.799   0.823  0.7893  0.1546  0.2859
 1987TIP3    H2 5926   5.732   0.712   0.718 -0.1456 -0.2484  0.0263
 1988TIP3   OH2 5927   4.408   6.281   1.688 -0.0826 -0.3051  0.0036
 1988TIP3    H1 5928   4.457   6.199   1.699  0.3572 -0.1289 -0.6452
 1988TIP3    H2 5929   4.423   6.306   1.597  2.0255  1.9258  0.8925
 1989TIP3   OH2 5930   0.866   2.380   2.565 -0.3929 -0.3550  0.6286
 1989TIP3    H1 5931   0.858   2.455   2.624  0.1543  0.9821 -0.9562
 1989TIP3    H2 5932   0.782   2.334   2.572 -1.8067  1.9905 -0.4797
 1990TIP3   OH2 5933   5.085   1.397   1.308  0.3159  0.1538 -0.0378
 1990TIP3    H1 5934   5.018   1.425   1.370  1.1506  2.3763 -0.1015
 1990TIP3    H2 5935   5.141   1.337   1.358 -1.8029 -1.9246 -0.0622
 1991TIP3   OH2 5936   1.207   0.506   1.073  0.1895 -0.3538  0.5654
 1991TIP3    H1 5937   1.206   0.587   1.022  0.2570 -1.1088 -0.6397
 1991TIP3    H2 5938   1.125   0.507   1.122  0.5072  0.7776  1.1129
 1992TIP3   OH2 5939   0.249   0.369   1.150 -0.8221  0.1382 -0.3844
 1992TIP3    H1 5940   0.321   0.408   1.200 -0.9966 -1.2102  0.9491
 1992TIP3    H2 5941   0.179   0.434   1.153  0.1903  1.2794 -1.3327
 1993TIP3   OH2 5942   6.866   2.230   1.855  0.2200  0.6913  0.2246
 1993TIP3    H1 5943   6.808   2.176   1.802  0.4748  0.9613 -0.3361
 1993TIP3    H2 5944   6.898   2.297   1.795  0.6730  0.8794  0.6700
 1994TIP3   OH2 5945   5.426   0.928   3.159  0.0533 -0.0153 -0.2876
 1994TIP3    H1 5946   5.344   0.912   3.206  0.6071  0.4199  0.8771
 1994TIP3    H2 5947   5.494   0.899   3.220  0.7199 -2.2289 -2.0329
 1995TIP3   OH2 5948   6.201   4.355   2.917 -0.3013  0.5392  0.7845
 1995TIP3    H1 5949   6.115   4.334   2.879 -0.4044 -0.1968  1.4264
 1995TIP3    H2 5950   6.264   4.322   2.853 -0.4692 -1.1560  1.4628
 1996TIP3   OH2 5951   5.028   6.168   2.964 -0.2127  0.4447  0.2315
 1996TIP3    H1 5952   4.992   6.207   3.044 -2.0217 -1.6165  0.4549
 1996TIP3    H2 5953   4.967   6.194   2.895 -0.5240 -0.6114  0.1035
 1997TIP3   OH2 5954   4.821   1.639   4.164 -0.3575 -0.7450  0.0124
 1997TIP3    H1 5955   4.736   1.681   4.162  0.6892  1.5484  1.5560
 1997TIP3    H2 5956   4.884   1.711   4.156  1.4556 -2.5018 -2.4991
 1998TIP3   OH2 5957   2.011   5.350   3.540  0.4303  0.0799  0.0805
 1998TIP3    H1 5958   1.961   5.411   3.594  1.1039  0.8833 -0.1942
 1998TIP3    H2 5959   2.097   5.347   3.582  1.3573  1.6614 -1.6284
 1999TIP3   OH2 5960   3.983   0.709   0.941 -1.0933  0.5167  0.5889
 1999TIP3    H1 5961   3.968   0.666   0.857 -0.5889 -0.6864  1.1010
 1999TIP3    H2 5962   3.901   0.699   0.988 -1.7960  2.2940 -0.2246
 2000TIP3   OH2 5963   1.200   1.049   2.913  0.0070  0.1053  0.1736
 2000TIP3    H1 5964   1.177   1.007   2.830 -3.3005  0.1684  0.9760
 2000TIP3    H2 5965   1.217   0.976   2.973  1.8382  0.0558 -0.3700
 2001TIP3   OH2 5966   0.225   0.163   0.234  0.4018 -1.0342 -0.2851
 2001TIP3    H1 5967   0.296   0.098   0.240  1.6669  0.3799  0.2653
 2001TIP3    H2 5968   0.194   0.173   0.324 -0.4793 -1.5847 -0.5106
 2002TIP3   OH2 5969   3.544   0.596   3.096  0.1140 -0.1563 -0.5882
 2002TIP3    H1 5970   3.473   0.617   3.036  0.0674  1.0493 -0.1155
 2002TIP3    H2 5971   3.503   0.595   3.183  0.8281  1.3487 -0.2261
 2003TIP3   OH2 5972   0.569   1.656   1.834 -0.3063  0.3033 -0.0903
 2003TIP3    H1 5973   0.620   1.696   1.905  0.7675 -0.9696 -0.1273
 2003TIP3    H2 5974   0.502   1.605   1.879 -1.2930  1.6467 -0.0341
 2004TIP3   OH2 5975   5.378   0.617   4.021  0.2332 -0.2644  0.0167
 2004TIP3    H1 5976   5.466   0.630   4.056  0.7266 -0.9833 -0.9278
 2004TIP3    H2 5977   5.336   0.557   4.082  1.1685 -1.6987 -0.7222
 2005TIP3   OH2 5978   0.093   0.822   4.303  0.0444  0.7364 -0.4708
 2005TIP3    H1 5979   0.045   0.746   4.272  2.4354 -1.1278  0.2339
 2005TIP3    H2 5980   0.121   0.868   4.224 -0.9152  0.5653 -0.9069
 2006TIP3   OH2 5981   6.576   0.263   1.895  0.2340  0.6388 -0.2428
 2006TIP3    H1 5982   6.528   0.343   1.876 -0.5487  0.2955  0.2569
 2006TIP3    H2 5983   6.508   0.199   1.918  0.9577  0.3148  1.0493
 2007TIP3   OH2 5984   2.168   3.318   3.269 -0.4589 -0.2493 -0.1642
 2007TIP3    H1 5985   2.157   3.410   3.292 -0.6443 -0.3190  0.0309
 2007TIP3    H2 5986   2.212   3.279   3.344  2.4749  0.3130 -1.5355
 2008TIP3   OH2 5987   5.162   0.742   0.820  0.1467  0.2021 -0.3535
 2008TIP3    H1 5988   5.128   0.809   0.761  1.4139 -0.5275 -1.9651
 2008TIP3    H2 5989   5.183   0.788   0.901  0.9568  1.7356 -1.4261
 2009TIP3   OH2 5990   0.058   0.409   3.045 -0.2803  0.6122 -0.1560
 2009TIP3    H1 5991   0.078   0.319   3.072 -1.0674  0.7664  0.9670
 2009TIP3    H2 5992   0.013   0.400   2.961 -1.0114 -0.0887  0.3093
 2010TIP3   OH2 5993   5.755   1.770   3.678  0.3573  0.4064 -0.8793
 2010TIP3    H1 5994   5.807   1.778   3.757 -2.2071 -2.3537  1.2123
 2010TIP3    H2 5995   5.730   1.860   3.656 -2.3010  1.0221  3.9103
 2011TIP3   OH2 5996   6.551   0.210   1.013 -0.4071 -0.9264 -0.0536
 2011TIP3    H1 5997   6.609   0.266   0.962  0.7475 -1.2413  0.8920
 2011TIP3    H2 5998   6.525   0.265   1.088 -1.2945 -0.8049 -0.4422
 2012TIP3   OH2 5999   4.175   0.504   3.401  0.4745  0.1637 -0.0132
 2012TIP3    H1 6000   4.146   0.448   3.329  0.4850  0.9813 -0.6665
 2012TIP3    H2 6001   4.131   0.470   3.478  0.0576 -0.4040 -0.4987
 2013TIP3   OH2 6002   5.773   1.437   2.811 -0.2097  0.1238 -0.3479
 2013TIP3    H1 6003   5.717   1.365   2.839 -0.2528  0.3616  0.1924
 2013TIP3    H2 6004   5.719   1.515   2.820  0.3006  0.3898  0.4830
 2014TIP3   OH2 6005   7.110   1.077   2.602  0.5767  0.2191  0.1756
 2014TIP3    H1 6006   7.116   1.027   2.683  2.0419 -0.3193 -0.2465
 2014TIP3    H2 6007   7.200   1.105   2.584  0.4869 -0.7246 -1.9070
 2015TIP3   OH2 6008   4.268   2.756   3.697 -0.1313  0.0071 -0.2821
 2015TIP3    H1 6009   4.178   2.724   3.683 -0.0423 -0.4121  0.0832
 2015TIP3    H2 6010   4.292   2.720   3.782  0.2729  0.3792 -0.2425
 2016TIP3   OH2 6011   5.307   2.234   1.585 -0.0255  0.0113 -0.3024
 2016TIP3    H1 6012   5.326   2.141   1.594  0.0125  0.0404 -0.0666
 2016TIP3    H2 6013   5.347   2.259   1.502 -2.4752 -0.7891 -1.7383
 2017TIP3   OH2 6014   4.991   0.699   0.072  0.2346  0.6439  0.1194
 2017TIP3    H1 6015   4.934   0.764   0.112  0.6322  2.3332 -1.9617
 2017TIP3    H2 6016   5.073   0.746   0.057  0.7288 -0.5096 -0.8349
 2018TIP3   OH2 6017   6.354   2.767   1.973  0.6388  0.1683  0.2213
 2018TIP3    H1 6018   6.296   2.737   2.042  2.6342  0.3052  1.9989
 2018TIP3    H2 6019   6.347   2.862   1.975 -0.9083  0.1051 -1.2113
 2019TIP3   OH2 6020   0.135   3.346   1.183 -0.0546  0.2118  0.2763
 2019TIP3    H1 6021   0.152   3.410   1.253  0.3744  0.0177  0.3453
 2019TIP3    H2 6022   0.100   3.399   1.111  0.4559  0.5525  0.2736
 2020TIP3   OH2 6023   1.124   4.117   0.680 -0.6332  0.2639 -0.0540
 2020TIP3    H1 6024   1.192   4.106   0.613 -1.1478 -0.8948 -0.4090
 2020TIP3    H2 6025   1.072   4.191   0.649  0.2794  0.9772  0.0693
 2021TIP3   OH2 6026   6.499   3.868   2.524 -0.2508 -0.4798  0.2307
 2021TIP3    H1 6027   6.422   3.883   2.579 -0.9277 -0.7206 -0.6359
 2021TIP3    H2 6028   6.504   3.772   2.515 -0.4562 -0.4160 -0.5675
 2022TIP3   OH2 6029   5.560   1.995   3.633  0.0658  0.1750 -0.1552
 2022TIP3    H1 6030   5.520   1.961   3.714 -0.7084 -1.6400 -1.2578
 2022TIP3    H2 6031   5.586   2.084   3.655  0.0189 -0.3357  2.1566
 2023TIP3   OH2 6032   6.008   1.321   2.905  0.4233  0.1165  0.1215
 2023TIP3    H1 6033   6.061   1.390   2.865  1.5771  0.8380  2.8181
 2023TIP3    H2 6034   5.920   1.334   2.870  1.1766  1.3287 -1.3695
 2024TIP3   OH2 6035   0.268   1.718   2.691 -0.0249 -0.8412  0.5757
 2024TIP3    H1 6036   0.303   1.641   2.737 -2.4688 -1.4257  1.5578
 2024TIP3    H2 6037   0.181   1.690   2.661  0.1779  0.6559 -1.4997
 2025TIP3   OH2 6038   6.364   1.370   0.191  0.0590 -0.7724  0.6195
 2025TIP3    H1 6039   6.327   1.289   0.227 -0.0137 -1.8418 -1.7072
 2025TIP3    H2 6040   6.302   1.438   0.216 -1.9946 -2.0836 -0.6931
 2026TIP3   OH2 6041   1.975   6.380   5.442 -0.8457  0.3196 -0.9837
 2026TIP3    H1 6042   1.987   6.321   5.367  0.5712  1.8360 -1.9957
 2026TIP3    H2 6043   2.045   6.444   5.433 -0.9033  0.7597  1.4520
 2027TIP3   OH2 6044   0.134   2.485   1.029  0.1462  0.0430  0.3381
 2027TIP3    H1 6045   0.043   2.460   1.041  0.2176 -0.5986 -0.3579
 2027TIP3    H2 6046   0.132   2.580   1.018 -0.5316 -0.0594 -0.4963
 2028TIP3   OH2 6047   3.039   6.482   5.491  0.2560 -0.3530  0.2833
 2028TIP3    H1 6048   3.122   6.495   5.446  1.0598  0.8708  2.0784
 2028TIP3    H2 6049   3.022   6.388   5.483  1.3865 -0.4719 -0.8175
 2029TIP3   OH2 6050   6.091   0.022   0.960 -0.0333 -0.7147 -0.3506
 2029TIP3    H1 6051   6.137  -0.023   0.889 -1.4818 -0.7522 -1.2873
 2029TIP3    H2 6052   6.161   0.060   1.014  1.0795 -0.2477 -2.0835
 2030TIP3   OH2 6053   6.619   1.468   0.859  0.5227  0.2536  0.3782
 2030TIP3    H1 6054   6.577   1.393   0.902  3.7176 -1.3986  0.7585
 2030TIP3    H2 6055   6.605   1.453   0.765  1.4940 -1.0509  0.4326
 2031TIP3   OH2 6056   0.659   0.381   1.779 -0.5658  0.0192 -0.0759
 2031TIP3    H1 6057   0.611   0.462   1.796 -2.2154 -1.2065  1.2181
 2031TIP3    H2 6058   0.750   0.403   1.798 -0.9958  1.5557  0.2887
 2032TIP3   OH2 6059   5.439   2.693   0.613  0.0635  0.5960  0.1922
 2032TIP3    H1 6060   5.532   2.716   0.619  0.4008 -0.6695 -0.1827
 2032TIP3    H2 6061   5.417   2.665   0.702  0.1134  0.5886  0.2027
 2033TIP3   OH2 6062   7.061   1.874   2.988 -0.3167 -0.3809  0.0219
 2033TIP3    H1 6063   7.047   1.959   3.030  0.0198  0.1340 -0.9149
 2033TIP3    H2 6064   7.153   1.854   3.004 -0.8609 -1.5169  1.9731
 2034TIP3   OH2 6065   1.137   3.148   3.086  0.7314 -0.2728 -0.0527
 2034TIP3    H1 6066   1.129   3.055   3.107  0.0644 -0.1984  0.0275
 2034TIP3    H2 6067   1.101   3.155   2.998  1.8848 -0.2851 -0.5412
 2035TIP3   OH2 6068   6.417   0.697   3.037  0.1858  0.2492 -0.3095
 2035TIP3    H1 6069   6.485   0.652   2.986  1.4303  1.2760  0.4309
 2035TIP3    H2 6070   6.391   0.771   2.982 -0.5184 -0.2795 -0.6975
 2036TIP3   OH2 6071   1.269   1.550   0.235  0.3236 -0.2469 -0.3146
 2036TIP3    H1 6072   1.306   1.481   0.180  1.2756  1.0481 -1.3442
 2036TIP3    H2 6073   1.231   1.612   0.173  0.3343  0.6344  0.5510
 2037TIP3   OH2 6074   0.344   4.488   3.561 -0.2594  0.0848  0.2524
 2037TIP3    H1 6075   0.317   4.419   3.501  0.2192 -1.0913  1.3894
 2037TIP3    H2 6076   0.367   4.562   3.503 -1.9104 -0.2733 -0.9074
 2038TIP3   OH2 6077   7.326   2.741   2.189 -0.4851 -0.7700  0.0917
 2038TIP3    H1 6078   7.250   2.683   2.176 -0.0662 -1.1270 -0.8410
 2038TIP3    H2 6079   7.396   2.683   2.217  0.3492 -0.9750 -2.2976
 2039TIP3   OH2 6080   4.415   5.218   0.726  0.0147  0.4181 -0.0927
 2039TIP3    H1 6081   4.337   5.273   0.733  0.4308  1.0705 -0.4343
 2039TIP3    H2 6082   4.440   5.225   0.634 -0.7246 -1.4718 -0.4566
 2040TIP3   OH2 6083   6.255   1.634   4.555 -0.5798  0.0248 -0.0830
 2040TIP3    H1 6084   6.306   1.712   4.579  0.9689 -1.2079  0.7509
 2040TIP3    H2 6085   6.309   1.588   4.492 -1.4252 -0.4604 -0.4650
 2041TIP3   OH2 6086   0.269   1.900   4.474  0.2573 -0.0636  0.1772
 2041TIP3    H1 6087   0.308   1.819   4.442  0.1207  0.3658 -1.1104
 2041TIP3    H2 6088   0.330   1.969   4.449 -1.3035  0.6200 -1.9181
 2042TIP3   OH2 6089   0.642   0.978   4.023  0.2455  0.0423  0.4208
 2042TIP3    H1 6090   0.682   0.892   4.013  0.9271  0.4611 -0.5811
 2042TIP3    H2 6091   0.589   0.971   4.102 -0.3968 -1.5540 -0.1242
 2043TIP3   OH2 6092   0.864   1.247   3.314 -0.8331  0.6455 -0.0611
 2043TIP3    H1 6093   0.951   1.270   3.348 -0.4947 -1.7948  0.8150
 2043TIP3    H2 6094   0.828   1.186   3.379 -1.8811 -0.8675 -2.0063
 2044TIP3   OH2 6095   6.412   1.158   2.799 -0.0413  0.0424 -0.0463
 2044TIP3    H1 6096   6.448   1.181   2.885  0.3050  0.4208 -0.2909
 2044TIP3    H2 6097   6.441   1.228   2.741  0.0684 -0.4202 -0.5598
 2045TIP3   OH2 6098   0.041   6.582   2.267 -0.0228  0.0027 -0.1865
 2045TIP3    H1 6099   0.091   6.625   2.197  1.4233  0.0770  0.8682
 2045TIP3    H2 6100  -0.019   6.650   2.299 -1.5729 -0.3945 -2.1687
 2046TIP3   OH2 6101   6.146   1.534   1.945 -0.0969  0.4663  0.2133
 2046TIP3    H1 6102   6.183   1.447   1.932  0.1092  0.4790  0.6962
 2046TIP3    H2 6103   6.133   1.568   1.856  3.7895  1.6191 -0.0186
 2047TIP3   OH2 6104   0.506   0.765   4.927  0.0035  0.0985 -0.1263
 2047TIP3    H1 6105   0.564   0.712   4.872  0.4724  2.4574 -1.9972
 2047TIP3    H2 6106   0.557   0.783   5.006  1.6074  1.5919 -1.4716
 2048TIP3   OH2 6107   1.352   1.206   5.713 -0.0442  0.0537  0.1419
 2048TIP3    H1 6108   1.395   1.271   5.768  0.5555  0.1179 -0.4007
 2048TIP3    H2 6109   1.417   1.137   5.702 -0.3102 -0.1560 -0.1416
 2049TIP3   OH2 6110   7.153   1.002   2.206 -0.3862 -0.2266 -0.0420
 2049TIP3    H1 6111   7.078   0.981   2.262 -0.2099 -0.3509  0.1460
 2049TIP3    H2 6112   7.228   0.962   2.249 -0.1001  0.5104  0.1476
 2050TIP3   OH2 6113   5.263   0.822   2.544 -0.0734  0.8613  0.0936
 2050TIP3    H1 6114   5.241   0.891   2.607  1.9931  2.4686 -0.8944
 2050TIP3    H2 6115   5.325   0.765   2.590 -0.5278  0.5737  0.3563
 2051TIP3   OH2 6116   7.259   2.319   3.560  0.7448  0.3333 -0.5205
 2051TIP3    H1 6117   7.342   2.359   3.534  0.6611  2.2526  2.0144
 2051TIP3    H2 6118   7.200   2.393   3.574 -0.0695 -0.7499  2.1099
 2052TIP3   OH2 6119   0.623   0.102   3.329 -0.5946  0.5570 -0.3548
 2052TIP3    H1 6120   0.596   0.019   3.369  0.1881  0.0218 -0.9312
 2052TIP3    H2 6121   0.579   0.104   3.244 -0.4535  0.6365 -0.4273
 2053TIP3   OH2 6122   5.816   6.886   3.867 -0.2855 -0.5553  0.3793
 2053TIP3    H1 6123   5.886   6.826   3.841  0.5226  0.3448  0.3992
 2053TIP3    H2 6124   5.737   6.833   3.868  0.6928 -2.0405  2.1833
 2054TIP3   OH2 6125   6.739   2.486   3.990  0.3991 -0.5847  0.1275
 2054TIP3    H1 6126   6.693   2.525   3.916  2.0829  0.2055 -0.5195
 2054TIP3    H2 6127   6.702   2.398   3.998 -1.3085  0.0765 -0.2791
 2055TIP3   OH2 6128   6.533   2.264   2.736  0.1011  0.2237  0.1430
 2055TIP3    H1 6129   6.506   2.203   2.667 -0.3185  0.3756  0.1749
 2055TIP3    H2 6130   6.556   2.208   2.810 -0.7493  0.1245  0.3360
 2056TIP3   OH2 6131   0.907   0.571   3.729 -0.3706 -0.0366 -0.3900
 2056TIP3    H1 6132   0.868   0.576   3.816 -2.5983  0.5070 -1.3785
 2056TIP3    H2 6133   0.902   0.478   3.706  2.8779 -0.6677  1.1837
 2057TIP3   OH2 6134   6.478   6.135   2.356 -0.2834 -0.0920  0.2847
 2057TIP3    H1 6135   6.508   6.192   2.285 -0.7550  1.0116  0.9664
 2057TIP3    H2 6136   6.392   6.104   2.327 -0.3095  0.0557  0.2078
 2058TIP3   OH2 6137   7.345   2.484   4.576 -0.5564  0.1141  0.2743
 2058TIP3    H1 6138   7.372   2.516   4.490  0.4916 -1.9567 -0.2144
 2058TIP3    H2 6139   7.252   2.465   4.566 -0.3754 -0.4095 -0.5305
 2059TIP3   OH2 6140   2.792   4.098   5.797  0.6684  0.7000 -0.6854
 2059TIP3    H1 6141   2.741   4.053   5.730  1.2426  0.2885 -0.8540
 2059TIP3    H2 6142   2.730   4.114   5.868  0.1348  0.8593 -1.1870
 2060TIP3   OH2 6143   1.402   1.874   4.150 -0.6061 -0.4979 -0.5543
 2060TIP3    H1 6144   1.436   1.863   4.062  0.6084  0.8252 -0.2634
 2060TIP3    H2 6145   1.310   1.849   4.143 -0.6877  0.2296 -2.3509
 2061TIP3   OH2 6146   0.472   1.737   4.069 -0.2678 -0.2366 -0.0012
 2061TIP3    H1 6147   0.524   1.786   4.133 -0.7076  0.7935 -0.4150
 2061TIP3    H2 6148   0.405   1.800   4.040 -1.9382 -1.6116  0.7517
 2062TIP3   OH2 6149   0.826   0.322   3.637 -0.4092 -0.0773  0.0019
 2062TIP3    H1 6150   0.736   0.330   3.604 -0.3690  1.1418  0.1593
 2062TIP3    H2 6151   0.846   0.229   3.631 -1.3668 -0.2276 -0.8816
 2063TIP3   OH2 6152   7.054   2.889   2.372  0.1824 -0.0686 -0.0911
 2063TIP3    H1 6153   7.141   2.857   2.350  0.0701 -1.6189  1.5841
 2063TIP3    H2 6154   6.998   2.811   2.369 -1.2610  0.9988 -1.6633
 2064TIP3   OH2 6155   6.258   1.054   5.439  0.3612 -0.0627  0.1963
 2064TIP3    H1 6156   6.329   1.073   5.378 -0.4455 -0.1854 -0.8176
 2064TIP3    H2 6157   6.179   1.080   5.391 -0.1831  1.2587  1.7859
 2065TIP3   OH2 6158   2.327   1.825   1.893 -0.1116 -0.8240  0.2584
 2065TIP3    H1 6159   2.259   1.884   1.925 -0.0974 -0.3131 -0.6531
 2065TIP3    H2 6160   2.288   1.781   1.817  1.1191  0.6429 -1.2451
 2066TIP3   OH2 6161   0.312   2.220   5.312 -1.0925 -0.6376 -0.4841
 2066TIP3    H1 6162   0.239   2.242   5.254 -0.7917  0.2866 -0.5172
 2066TIP3    H2 6163   0.375   2.175   5.255 -1.8215 -1.8287 -0.3584
 2067TIP3   OH2 6164   0.610   1.327   3.053  0.0172 -0.4309  0.6066
 2067TIP3    H1 6165   0.605   1.326   3.148  0.6007 -0.0379  0.6489
 2067TIP3    H2 6166   0.657   1.247   3.030 -3.1202 -2.3087  0.4220
 2068TIP3   OH2 6167   1.247   0.588   2.924  0.5229 -0.2282  0.2943
 2068TIP3    H1 6168   1.182   0.518   2.913 -1.2624  1.3161  0.7375
 2068TIP3    H2 6169   1.228   0.625   3.010  0.5093  1.7381 -0.5427
 2069TIP3   OH2 6170   5.337   0.629   2.906 -0.1576  0.2198  1.0290
 2069TIP3    H1 6171   5.310   0.556   2.850  1.8915  1.6623 -2.0180
 2069TIP3    H2 6172   5.425   0.605   2.936 -0.8245 -0.0590  2.7742
 2070TIP3   OH2 6173   7.101   2.749   5.638 -0.0247 -0.2813 -0.1280
 2070TIP3    H1 6174   7.009   2.776   5.639  0.3052  0.9484 -0.8905
 2070TIP3    H2 6175   7.099   2.657   5.615 -1.1931 -0.8947  2.2256
 2071TIP3   OH2 6176   0.672   3.836   4.423  0.3615 -0.3744 -0.7858
 2071TIP3    H1 6177   0.757   3.793   4.420  0.7291  0.3817 -1.6507
 2071TIP3    H2 6178   0.638   3.817   4.510  1.7060 -0.1389 -0.1915
 2072TIP3   OH2 6179   1.219   2.106   3.790 -0.3297  0.2883 -0.5919
 2072TIP3    H1 6180   1.239   2.166   3.862 -2.3449  2.0654 -1.4459
 2072TIP3    H2 6181   1.259   2.146   3.713  3.0865 -2.3521 -0.3023
 2073TIP3   OH2 6182   5.111   2.038   3.383  0.1868  0.2111  0.0477
 2073TIP3    H1 6183   5.111   2.063   3.476 -0.7263  0.2090  0.0551
 2073TIP3    H2 6184   5.039   1.974   3.376  0.1815  0.2941 -0.6794
 2074TIP3   OH2 6185   0.446   2.881   3.969  0.2250 -0.3520  0.6079
 2074TIP3    H1 6186   0.526   2.932   3.977  0.3741 -0.5687  0.5009
 2074TIP3    H2 6187   0.475   2.790   3.972  0.1477 -0.4391 -0.9855
 2075TIP3   OH2 6188   1.604   6.589   0.352  1.1840 -0.5026  0.2563
 2075TIP3    H1 6189   1.603   6.676   0.392 -0.2812 -1.1143  1.6037
 2075TIP3    H2 6190   1.536   6.593   0.284  1.6693 -0.3674 -0.2310
 2076TIP3   OH2 6191   1.613   0.857   5.127  0.4102 -0.0999 -0.0275
 2076TIP3    H1 6192   1.579   0.830   5.212  0.3701 -0.1187 -0.0495
 2076TIP3    H2 6193   1.708   0.858   5.138  0.4657 -1.2153 -0.3087
 2077TIP3   OH2 6194   6.650   2.489   2.847 -0.4899 -0.0934  0.6062
 2077TIP3    H1 6195   6.611   2.429   2.784 -0.4912  0.5490 -0.0221
 2077TIP3    H2 6196   6.588   2.562   2.852  0.4076  0.7497 -0.1004
 2078TIP3   OH2 6197   0.719   3.319   4.341 -0.4057  0.0010 -0.2612
 2078TIP3    H1 6198   0.658   3.284   4.276 -0.8923 -1.2041  0.8225
 2078TIP3    H2 6199   0.797   3.264   4.333 -0.2494  0.2152 -0.2200
 2079TIP3   OH2 6200   6.730   1.392   4.412 -0.2467 -0.6526 -0.0570
 2079TIP3    H1 6201   6.728   1.349   4.326 -0.6966 -0.7835  0.0154
 2079TIP3    H2 6202   6.750   1.321   4.473  0.5245 -0.4770 -0.0991
 2080TIP3   OH2 6203   4.880   1.752   5.934 -0.7980  0.2060  0.4941
 2080TIP3    H1 6204   4.966   1.793   5.926 -0.2908 -1.0603 -0.7518
 2080TIP3    H2 6205   4.821   1.810   5.887 -0.1351 -0.2889 -0.9967
 2081TIP3   OH2 6206   1.239   1.101   4.134  0.0463 -0.0520 -0.6549
 2081TIP3    H1 6207   1.165   1.098   4.074  0.3924 -1.7257 -1.0267
 2081TIP3    H2 6208   1.210   1.054   4.212  0.4892 -0.1559 -0.5463
 2082TIP3   OH2 6209   0.343   2.555   4.613  0.1082 -0.1607  0.0384
 2082TIP3    H1 6210   0.427   2.601   4.614  1.1198 -1.9676 -0.0968
 2082TIP3    H2 6211   0.363   2.470   4.575 -2.1463  0.0518 -1.7306
 2083TIP3   OH2 6212   6.254   0.459   2.168 -0.4436  0.3819  0.1909
 2083TIP3    H1 6213   6.167   0.448   2.207 -1.0064 -0.2001 -1.2061
 2083TIP3    H2 6214   6.295   0.528   2.221 -1.8404  0.8400  0.7072
 2084TIP3   OH2 6215   7.110   1.535   3.197  0.5458  0.0945 -0.4688
 2084TIP3    H1 6216   7.163   1.538   3.117 -0.4007 -1.2000 -1.1649
 2084TIP3    H2 6217   7.152   1.467   3.250 -0.4223 -0.9874 -1.0539
 2085TIP3   OH2 6218   1.396   1.657   3.477 -0.0932  0.2414  0.3979
 2085TIP3    H1 6219   1.351   1.619   3.552  0.4178  0.7777  0.9808
 2085TIP3    H2 6220   1.489   1.640   3.492 -0.0409 -0.2989 -0.4837
 2086TIP3   OH2 6221   0.965   1.526   3.505 -0.3042  0.0001  0.1325
 2086TIP3    H1 6222   0.878   1.509   3.540  0.1323 -0.0722  1.2075
 2086TIP3    H2 6223   0.969   1.475   3.424 -0.5950 -1.4699  1.0279
 2087TIP3   OH2 6224   2.117   1.107   3.652  0.5083  0.6074 -0.3154
 2087TIP3    H1 6225   2.161   1.046   3.711  1.0077  0.5501 -0.7357
 2087TIP3    H2 6226   2.031   1.121   3.690  0.3440 -0.4771 -0.2915
 2088TIP3   OH2 6227   0.497   1.125   2.851  0.7813 -0.1588  0.6700
 2088TIP3    H1 6228   0.528   1.200   2.799  0.5109 -1.0358 -0.7699
 2088TIP3    H2 6229   0.423   1.159   2.901  1.4591  0.8665  0.9976
 2089TIP3   OH2 6230   0.871   0.362   4.966 -0.4803 -0.3339  0.3166
 2089TIP3    H1 6231   0.947   0.403   4.924  0.4658 -0.0679  2.2424
 2089TIP3    H2 6232   0.854   0.416   5.043 -2.6407 -0.3981 -0.0808
 2090TIP3   OH2 6233   4.447   5.693   5.220  0.1836  0.0993  0.3300
 2090TIP3    H1 6234   4.429   5.775   5.267  0.9972  0.8808 -0.7052
 2090TIP3    H2 6235   4.372   5.682   5.162  0.5321  0.6136 -0.2193
 2091TIP3   OH2 6236   0.557   1.713   5.261 -0.1724  0.4902 -0.2247
 2091TIP3    H1 6237   0.630   1.748   5.312  1.5343 -0.5091 -1.8981
 2091TIP3    H2 6238   0.598   1.678   5.182 -2.3605 -0.9757 -0.7555
 2092TIP3   OH2 6239   1.223   0.052   1.658  0.0485  0.6519 -0.0492
 2092TIP3    H1 6240   1.251   0.069   1.748  3.1971 -0.7520 -0.7044
 2092TIP3    H2 6241   1.138   0.008   1.667  0.1595  0.8201  2.2057
 2093TIP3   OH2 6242   1.901   5.872   0.831 -0.0951  0.3165 -0.4950
 2093TIP3    H1 6243   1.979   5.829   0.867 -0.6418  0.4053  0.8073
 2093TIP3    H2 6244   1.864   5.920   0.905 -4.0648 -3.5434  0.2237
 2094TIP3   OH2 6245   2.803   0.575   0.661 -0.0896  0.4242  0.0119
 2094TIP3    H1 6246   2.855   0.620   0.595  0.6430  0.1558  0.4003
 2094TIP3    H2 6247   2.748   0.643   0.700  1.5119  1.1230  1.0879
 2095TIP3   OH2 6248   0.705   0.641   2.440  0.2587 -0.2192  0.2230
 2095TIP3    H1 6249   0.723   0.563   2.494  1.0358  0.3667  0.8178
 2095TIP3    H2 6250   0.643   0.692   2.492 -1.1258 -0.9630 -0.6607
 2096TIP3   OH2 6251   0.702   1.225   3.721  0.4051  0.2786 -0.2366
 2096TIP3    H1 6252   0.614   1.187   3.726  0.2571  0.6169 -0.2720
 2096TIP3    H2 6253   0.730   1.231   3.812  0.3396  0.2831 -0.2162
 2097TIP3   OH2 6254   1.806   1.813   3.664  0.2027  0.0661  0.4514
 2097TIP3    H1 6255   1.869   1.742   3.651 -0.5906 -0.7694  1.0932
 2097TIP3    H2 6256   1.783   1.841   3.576  0.0398 -0.9028  0.1741
 2098TIP3   OH2 6257   6.450   0.418   5.081  0.3425  0.1579  0.0379
 2098TIP3    H1 6258   6.500   0.479   5.027  0.9002 -1.7712 -1.7267
 2098TIP3    H2 6259   6.484   0.430   5.170  2.7879  0.0892 -0.8444
 2099TIP3   OH2 6260   4.998   6.771   2.372 -0.5674 -0.6319  0.4348
 2099TIP3    H1 6261   4.980   6.836   2.305  3.2800  1.1435  0.9826
 2099TIP3    H2 6262   5.000   6.687   2.325  2.7360  0.6453 -1.8640
 2100TIP3   OH2 6263   1.757   0.133   2.781  0.2213  0.2083 -0.2281
 2100TIP3    H1 6264   1.797   0.052   2.749  0.9875  0.7489 -0.6561
 2100TIP3    H2 6265   1.686   0.104   2.837  1.2074 -0.7796  0.5363
 2101TIP3   OH2 6266   4.709   6.725   1.101 -0.1684 -0.3662  0.0636
 2101TIP3    H1 6267   4.783   6.784   1.113  0.0454 -1.1601  2.9414
 2101TIP3    H2 6268   4.745   6.637   1.116 -1.3218 -0.8947 -0.1510
 2102TIP3   OH2 6269   6.029   5.874   2.921 -0.2811  0.2338  0.0028
 2102TIP3    H1 6270   6.031   5.969   2.907  1.4712  0.2165  0.0221
 2102TIP3    H2 6271   5.939   5.848   2.899  0.1038  1.4042 -3.2352
 2103TIP3   OH2 6272   5.619   0.543   4.428 -0.3097  0.7039  0.0318
 2103TIP3    H1 6273   5.710   0.514   4.424 -0.1469  1.1483  0.4982
 2103TIP3    H2 6274   5.568   0.462   4.438  0.0429  0.4680 -0.0880
 2104TIP3   OH2 6275   1.747   2.946   2.940 -0.3570 -0.4259 -0.9160
 2104TIP3    H1 6276   1.826   2.962   2.888 -0.1964 -0.5888 -0.7188
 2104TIP3    H2 6277   1.779   2.911   3.023 -0.4383  2.3338  0.3389
 2105TIP3   OH2 6278   6.368   1.831   4.378  0.2561  0.0799 -0.4965
 2105TIP3    H1 6279   6.441   1.793   4.328 -0.1405  0.7468 -1.6002
 2105TIP3    H2 6280   6.291   1.783   4.348  0.0082  0.5263 -0.5794
 2106TIP3   OH2 6281   6.500   2.558   5.383 -0.0031 -0.6114 -0.5212
 2106TIP3    H1 6282   6.571   2.538   5.444  0.3054 -1.6393 -1.1994
 2106TIP3    H2 6283   6.438   2.610   5.434  0.8039 -0.4714  0.3332
 2107TIP3   OH2 6284   5.472   6.460   3.277  0.1291  0.2262 -0.2944
 2107TIP3    H1 6285   5.552   6.489   3.232  0.2637  0.4691  0.1011
 2107TIP3    H2 6286   5.414   6.535   3.274 -0.3373 -0.1572 -1.1508
 2108TIP3   OH2 6287   5.390   6.661   3.614 -0.2650  0.0495  0.1635
 2108TIP3    H1 6288   5.454   6.590   3.610 -0.2888 -0.0186  0.9136
 2108TIP3    H2 6289   5.396   6.704   3.529  0.7880  0.0482  0.2367
 2109TIP3   OH2 6290   0.137   2.258   3.411  0.1110  0.9201  0.3860
 2109TIP3    H1 6291   0.176   2.236   3.496 -0.4333  2.5588  1.0879
 2109TIP3    H2 6292   0.132   2.354   3.412 -0.5422  0.9084 -1.2210
 2110TIP3   OH2 6293   7.107   2.091   3.567 -0.2047  0.0365 -0.3102
 2110TIP3    H1 6294   7.156   2.171   3.547  1.0311 -0.8140 -0.7960
 2110TIP3    H2 6295   7.168   2.020   3.544 -1.2785 -1.0358  0.1176
 2111TIP3   OH2 6296   6.019   6.851   4.615 -0.4067  0.2357  0.0534
 2111TIP3    H1 6297   5.984   6.928   4.659  0.3864 -0.0851  1.2448
 2111TIP3    H2 6298   5.946   6.788   4.616 -1.8450  1.7194 -2.9484
 2112TIP3   OH2 6299   4.135   6.226   5.837  0.2676 -0.4383 -0.3523
 2112TIP3    H1 6300   4.161   6.278   5.761  1.3211  0.7048  0.7584
 2112TIP3    H2 6301   4.041   6.212   5.826  0.1654  0.8211 -1.2074
 2113TIP3   OH2 6302   6.714   3.045   1.845  0.1630 -0.3279 -0.2070
 2113TIP3    H1 6303   6.766   2.981   1.796 -0.7410 -1.5785  0.4411
 2113TIP3    H2 6304   6.712   3.010   1.934  0.3926  1.0711  0.3600
 2114TIP3   OH2 6305   0.684   1.016   2.666 -0.0437 -0.0678  0.3624
 2114TIP3    H1 6306   0.739   0.969   2.728  0.1011  0.1845  0.4282
 2114TIP3    H2 6307   0.638   1.081   2.720 -0.1315 -0.0371  0.2514
 2115TIP3   OH2 6308   1.163   1.237   3.810 -0.1191 -0.3202  0.1312
 2115TIP3    H1 6309   1.092   1.192   3.857  0.6361 -0.8219  0.7973
 2115TIP3    H2 6310   1.156   1.328   3.840 -1.2830 -0.0853 -0.7821
 2116TIP3   OH2 6311   1.432   0.575   5.084  0.3249 -0.2294  0.2893
 2116TIP3    H1 6312   1.388   0.492   5.100  1.1238 -0.5786  0.7132
 2116TIP3    H2 6313   1.524   0.558   5.106  0.5206  0.7208  0.2351
 2117TIP3   OH2 6314   4.226   5.139   0.225 -0.0692 -0.0181  0.2296
 2117TIP3    H1 6315   4.202   5.047   0.235  0.4732 -0.1154  0.6806
 2117TIP3    H2 6316   4.246   5.148   0.132 -1.3152 -0.0589 -0.0426
 2118TIP3   OH2 6317   2.689   1.552   5.957  0.1533 -0.6462 -0.1336
 2118TIP3    H1 6318   2.753   1.539   5.887  0.1664  0.9254 -0.4416
 2118TIP3    H2 6319   2.742   1.563   6.036  0.2368 -0.2836 -0.2370
 2119TIP3   OH2 6320   1.762   1.589   2.564 -0.0078  0.5333  0.1045
 2119TIP3    H1 6321   1.715   1.506   2.567 -1.0173  1.1235  1.4776
 2119TIP3    H2 6322   1.848   1.570   2.602  0.1148 -0.0855 -0.4782
 2120TIP3   OH2 6323   0.255   3.246   3.668  0.5353 -0.0704 -0.0833
 2120TIP3    H1 6324   0.201   3.175   3.635 -0.6506 -0.0042  1.6092
 2120TIP3    H2 6325   0.192   3.316   3.688  1.5533  1.0232 -0.6490
 2121TIP3   OH2 6326   6.359   1.772   3.573  0.4676  0.5936  0.0748
 2121TIP3    H1 6327   6.327   1.846   3.625 -0.0043  0.6438 -0.2849
 2121TIP3    H2 6328   6.429   1.809   3.519  0.5949  0.6602  0.2860
 2122TIP3   OH2 6329   6.519   1.948   5.611  0.5005 -0.1610  0.0156
 2122TIP3    H1 6330   6.515   1.949   5.516 -0.3561 -2.2710  0.0141
 2122TIP3    H2 6331   6.611   1.933   5.632  0.9076  1.5560 -0.4378
 2123TIP3   OH2 6332   5.637   1.641   3.238  0.4397  0.1866 -0.0668
 2123TIP3    H1 6333   5.647   1.547   3.221 -0.9021 -0.0179  0.2087
 2123TIP3    H2 6334   5.615   1.646   3.331 -2.5663  0.5330 -0.7580
 2124TIP3   OH2 6335   6.804   1.002   1.483 -0.0434 -0.7630  0.2230
 2124TIP3    H1 6336   6.715   1.031   1.504  0.0398  0.8896 -1.5825
 2124TIP3    H2 6337   6.792   0.921   1.434 -0.5045 -1.0340  0.7731
 2125TIP3   OH2 6338   1.302   0.325   3.786  0.0464  0.1989 -0.1227
 2125TIP3    H1 6339   1.239   0.284   3.845 -0.1398 -1.0661 -1.1850
 2125TIP3    H2 6340   1.333   0.402   3.834 -2.2517  0.8051  0.4477
 2126TIP3   OH2 6341   0.406   3.871   4.854  0.1922  0.4805  0.1001
 2126TIP3    H1 6342   0.395   3.910   4.941  0.8004  0.7511  0.0555
 2126TIP3    H2 6343   0.404   3.945   4.794  2.2726  0.5624  0.0850
 2127TIP3   OH2 6344   7.156   0.785   5.398  0.3010  0.0993 -0.2578
 2127TIP3    H1 6345   7.250   0.804   5.401  0.1157  0.8167  1.4370
 2127TIP3    H2 6346   7.124   0.837   5.323  0.9238  1.4047  0.3625
 2128TIP3   OH2 6347   0.731   2.664   2.595  0.7567 -0.1763 -0.4970
 2128TIP3    H1 6348   0.789   2.739   2.582 -0.5768  1.4221  2.4762
 2128TIP3    H2 6349   0.756   2.629   2.680 -1.2252 -0.7557 -0.1454
 2129TIP3   OH2 6350   6.394   4.941   4.687 -0.2833  0.4306 -0.4988
 2129TIP3    H1 6351   6.469   4.998   4.703 -0.7896  0.8379  0.4479
 2129TIP3    H2 6352   6.399   4.920   4.594 -0.2027  2.1586 -0.8886
 2130TIP3   OH2 6353   1.484   1.085   2.893 -0.0764 -0.0017 -0.3423
 2130TIP3    H1 6354   1.396   1.068   2.927 -0.2822 -0.0470 -0.8888
 2130TIP3    H2 6355   1.483   1.177   2.867  0.3849  0.2959  0.6741
 2131TIP3   OH2 6356   7.149   0.058   5.014 -0.2548 -0.1059 -0.3921
 2131TIP3    H1 6357   7.237   0.079   5.044 -0.5452  0.4820  0.0508
 2131TIP3    H2 6358   7.091   0.112   5.068 -0.9013 -0.6647 -0.5096
 2132TIP3   OH2 6359   0.404   1.854   2.487 -0.1783  0.5108  0.1066
 2132TIP3    H1 6360   0.357   1.806   2.555 -0.3627  0.7644  0.1603
 2132TIP3    H2 6361   0.401   1.946   2.516 -2.6006  1.0134 -1.5682
 2133TIP3   OH2 6362   0.316   4.609   0.721 -0.0395  0.2055  0.2088
 2133TIP3    H1 6363   0.385   4.546   0.740  1.2879  0.8576 -2.2126
 2133TIP3    H2 6364   0.356   4.694   0.739 -0.4132  0.5518 -0.5818
 2134TIP3   OH2 6365   1.112   2.209   1.375  0.2354  0.3002  0.3050
 2134TIP3    H1 6366   1.154   2.146   1.433  2.0071  0.6290 -0.5781
 2134TIP3    H2 6367   1.139   2.294   1.408  2.2664  0.4770 -1.6667
 2135TIP3   OH2 6368   0.518   1.464   2.113 -0.2084  0.1549 -0.2991
 2135TIP3    H1 6369   0.527   1.514   2.194  0.5242  2.3280 -1.6726
 2135TIP3    H2 6370   0.608   1.452   2.083 -0.5000 -0.3324 -0.9765
 2136TIP3   OH2 6371   5.579   0.652   4.698  0.0399 -0.1997 -0.2339
 2136TIP3    H1 6372   5.618   0.657   4.610 -0.4428 -1.3285 -0.5270
 2136TIP3    H2 6373   5.550   0.561   4.706 -0.6177  0.0888  0.8031
 2137TIP3   OH2 6374   1.534   0.834   5.409 -0.1292  0.6231  0.0537
 2137TIP3    H1 6375   1.452   0.789   5.428 -0.4181  0.3428 -1.7588
 2137TIP3    H2 6376   1.528   0.917   5.457 -0.9439  0.1046  0.8818
 2138TIP3   OH2 6377   0.694   0.339   2.538 -0.1894  0.3987  0.0790
 2138TIP3    H1 6378   0.787   0.328   2.559 -0.1638 -1.4050 -0.9268
 2138TIP3    H2 6379   0.654   0.254   2.558 -1.3701  0.7361 -0.8118
 2139TIP3   OH2 6380   5.948   1.435   0.903 -0.0218  0.3637 -0.4870
 2139TIP3    H1 6381   6.019   1.371   0.904 -1.7729 -1.6298 -0.0463
 2139TIP3    H2 6382   5.936   1.458   0.995 -1.1830 -0.7385 -0.3535
 2140TIP3   OH2 6383   2.228   3.672   1.704 -0.0232  0.3571  0.4549
 2140TIP3    H1 6384   2.316   3.675   1.742  0.2216 -0.9810  0.0147
 2140TIP3    H2 6385   2.217   3.759   1.665  1.1645  0.4950  0.3853
 2141TIP3   OH2 6386   1.574   1.357   3.171  0.0389 -0.3214  0.0889
 2141TIP3    H1 6387   1.519   1.396   3.239 -0.5499 -1.6858  0.4121
 2141TIP3    H2 6388   1.663   1.376   3.199 -0.2362  0.8837  0.1795
 2142TIP3   OH2 6389   5.513   6.211   3.083  0.8675 -0.0597 -0.5423
 2142TIP3    H1 6390   5.495   6.286   3.139  0.1405 -1.1525  0.7111
 2142TIP3    H2 6391   5.459   6.226   3.005 -0.5410 -0.0921  0.4161
 2143TIP3   OH2 6392   0.299   1.032   1.850  0.0945  0.0779  0.4364
 2143TIP3    H1 6393   0.210   1.011   1.823  0.5605 -1.6601  0.1574
 2143TIP3    H2 6394   0.311   0.984   1.932  1.0027 -0.3109  0.0888
 2144TIP3   OH2 6395   7.400   1.932   3.911 -0.4530 -0.1890 -0.5172
 2144TIP3    H1 6396   7.397   2.025   3.889  0.3457  0.1388  0.6659
 2144TIP3    H2 6397   7.376   1.887   3.830 -2.2534  1.0741 -0.7332
 2145TIP3   OH2 6398   5.827   6.797   3.284  0.4087  0.4932  0.0979
 2145TIP3    H1 6399   5.853   6.869   3.226  3.2516 -1.1101 -0.7231
 2145TIP3    H2 6400   5.777   6.738   3.229  0.8533  0.2651 -0.0645
 2146TIP3   OH2 6401   1.428   3.092   2.702 -0.1140 -0.6083  0.2642
 2146TIP3    H1 6402   1.333   3.091   2.688 -0.0688  0.1484 -0.1313
 2146TIP3    H2 6403   1.449   3.184   2.716  0.5395 -0.7993  0.5419
 2147TIP3   OH2 6404   1.480   2.507   3.189  0.3716 -0.3525  0.4592
 2147TIP3    H1 6405   1.463   2.479   3.099 -2.4129 -2.8636  1.6721
 2147TIP3    H2 6406   1.479   2.603   3.184 -1.0098 -0.4338 -1.9975
 2148TIP3   OH2 6407   6.247   1.987   5.301 -0.1949 -0.1067  0.8174
 2148TIP3    H1 6408   6.216   1.903   5.270 -0.6081  0.2788  0.1704
 2148TIP3    H2 6409   6.194   2.052   5.254  0.7354  0.5312  0.6233
 2149TIP3   OH2 6410   7.223   1.887   3.414 -0.1039 -0.0741 -0.0489
 2149TIP3    H1 6411   7.302   1.909   3.364  0.2742  0.8557  0.9410
 2149TIP3    H2 6412   7.157   1.869   3.347  1.0711 -1.3537 -0.8904
 2150TIP3   OH2 6413   7.089   0.886   4.634 -0.2140  0.3708 -0.3378
 2150TIP3    H1 6414   7.071   0.850   4.721 -0.8234 -0.9301 -0.9824
 2150TIP3    H2 6415   7.130   0.970   4.651 -1.7272  0.8345  1.2233
 2151TIP3   OH2 6416   5.642   2.609   3.596  0.3641 -0.2934  0.3165
 2151TIP3    H1 6417   5.673   2.567   3.677 -1.0476  0.2372  1.1517
 2151TIP3    H2 6418   5.709   2.675   3.577  0.6748 -0.3736  1.0900
 2152TIP3   OH2 6419   1.840   0.275   3.593  0.2365 -0.0912  0.1422
 2152TIP3    H1 6420   1.922   0.237   3.624  0.5411 -0.4160 -1.0530
 2152TIP3    H2 6421   1.790   0.200   3.561 -0.2706  0.1855  0.2891
 2153TIP3   OH2 6422   6.733   2.288   2.441  0.2958 -0.5544  0.5901
 2153TIP3    H1 6423   6.687   2.223   2.387  0.4107  0.8640 -1.2949
 2153TIP3    H2 6424   6.666   2.355   2.459  0.7522 -0.1170  0.6616
 2154TIP3   OH2 6425   0.259   0.918   3.281 -0.1339  0.2198  0.2050
 2154TIP3    H1 6426   0.280   0.880   3.366 -1.6624  0.8804  0.8958
 2154TIP3    H2 6427   0.293   1.007   3.286  1.4954 -0.3420 -0.6024
 2155TIP3   OH2 6428   0.990   2.790   5.294 -0.7239 -0.4366 -0.0032
 2155TIP3    H1 6429   0.988   2.703   5.333 -0.5896  0.1156  1.2870
 2155TIP3    H2 6430   1.040   2.780   5.213 -1.0555 -1.6257 -0.0629
 2156TIP3   OH2 6431   1.635   0.712   2.471  0.0352 -0.0919  0.5301
 2156TIP3    H1 6432   1.666   0.755   2.551  2.9577 -1.0942 -0.0157
 2156TIP3    H2 6433   1.704   0.650   2.449 -1.0937 -0.3924 -2.3483
 2157TIP3   OH2 6434   7.205   0.384   1.756 -0.0980 -0.2912 -0.0964
 2157TIP3    H1 6435   7.269   0.375   1.685 -1.4178 -0.9732 -1.2272
 2157TIP3    H2 6436   7.242   0.452   1.813  1.5485 -0.5656 -0.8011
 2158TIP3   OH2 6437   0.131   1.744   4.696 -0.3812  0.7299 -0.2994
 2158TIP3    H1 6438   0.073   1.692   4.640  1.0480 -1.4864  0.1774
 2158TIP3    H2 6439   0.170   1.809   4.637 -0.4080 -0.2927 -1.4645
 2159TIP3   OH2 6440   1.457   1.103   2.606  0.0933 -0.1774 -0.4608
 2159TIP3    H1 6441   1.439   1.066   2.693 -1.1376 -0.3736 -0.7847
 2159TIP3    H2 6442   1.459   1.027   2.548 -2.0421  0.1905 -1.0648
 2160TIP3   OH2 6443   6.942   1.156   5.274 -0.1090 -0.1594  0.1458
 2160TIP3    H1 6444   6.889   1.159   5.195 -0.1243 -0.2780  0.1519
 2160TIP3    H2 6445   6.983   1.242   5.278 -0.6947  0.1098  0.4103
 2161TIP3   OH2 6446   0.934   2.147   3.948  0.5316 -0.3859 -0.1906
 2161TIP3    H1 6447   0.866   2.159   3.882  2.0123  1.9765 -1.3607
 2161TIP3    H2 6448   0.997   2.088   3.908 -0.3069 -1.7995  0.5228
 2162TIP3   OH2 6449   6.148   3.469   3.322  0.4040 -0.2357 -0.3667
 2162TIP3    H1 6450   6.194   3.396   3.361 -0.2137 -0.2915  0.2574
 2162TIP3    H2 6451   6.193   3.547   3.354 -0.0344 -0.2851  0.3631
 2163TIP3   OH2 6452   1.800   1.190   5.475  0.3852  0.2808 -0.2809
 2163TIP3    H1 6453   1.742   1.135   5.527  0.7872  0.2270  0.1044
 2163TIP3    H2 6454   1.867   1.220   5.536 -0.9808  2.9209  0.0356
 2164TIP3   OH2 6455   0.548   1.913   2.831 -0.5778  0.1900 -0.2242
 2164TIP3    H1 6456   0.538   1.820   2.813  0.7317  0.1819 -1.0254
 2164TIP3    H2 6457   0.564   1.918   2.925  1.0822 -0.5805 -0.4399
 2165TIP3   OH2 6458   2.350   2.251   2.932  0.3196  0.1275 -0.0585
 2165TIP3    H1 6459   2.318   2.250   2.842 -1.5292 -2.4330  0.5659
 2165TIP3    H2 6460   2.270   2.259   2.985  1.1689 -1.0764  1.4147
 2166TIP3   OH2 6461   3.903   5.985   0.188 -0.2981  0.3002  0.0701
 2166TIP3    H1 6462   3.846   6.016   0.118  0.9247  2.8135  0.1258
 2166TIP3    H2 6463   3.874   6.035   0.265  0.5418 -0.0346  0.6043
 2167TIP3   OH2 6464   6.772   1.519   5.565  0.3391  0.3452 -0.8104
 2167TIP3    H1 6465   6.723   1.566   5.497  1.0790 -0.2713 -1.7671
 2167TIP3    H2 6466   6.762   1.427   5.543  2.0964  0.2172 -1.1278
 2168TIP3   OH2 6467   1.677   1.014   3.926 -0.7844  0.0378  0.1335
 2168TIP3    H1 6468   1.604   1.042   3.980 -1.3871 -0.2799 -0.5163
 2168TIP3    H2 6469   1.695   1.089   3.869 -2.3273 -0.8174 -1.5303
 2169TIP3   OH2 6470   1.326   1.647   5.180 -0.0275  1.0630  0.2933
 2169TIP3    H1 6471   1.396   1.702   5.216  0.6866  0.6146 -0.3899
 2169TIP3    H2 6472   1.315   1.577   5.245  0.7376  0.6787  0.0201
 2170TIP3   OH2 6473   1.147   1.810   5.061  0.9007  0.0781  0.6014
 2170TIP3    H1 6474   1.191   1.861   4.993 -0.5726 -0.7562 -1.0043
 2170TIP3    H2 6475   1.215   1.753   5.097  0.9422 -1.9746 -2.5943
 2171TIP3   OH2 6476   5.575   6.180   4.537 -0.0992 -0.4722 -0.0819
 2171TIP3    H1 6477   5.656   6.229   4.524 -0.7995  0.7243 -0.0595
 2171TIP3    H2 6478   5.602   6.097   4.575  0.9067  0.8660  2.2001
 2172TIP3   OH2 6479   1.146   2.019   2.892 -0.3122  0.0626  0.3454
 2172TIP3    H1 6480   1.161   1.925   2.884 -2.1426 -0.2626  0.4507
 2172TIP3    H2 6481   1.133   2.033   2.986  2.9191  0.9297  0.7237
 2173TIP3   OH2 6482   4.429   3.452   0.222  0.1912  0.1204  0.7826
 2173TIP3    H1 6483   4.447   3.546   0.229  0.2211  0.2100 -0.4654
 2173TIP3    H2 6484   4.484   3.412   0.290 -0.2159  1.0488  1.6759
 2174TIP3   OH2 6485   0.297   1.255   5.420 -0.6306 -0.1027  0.1120
 2174TIP3    H1 6486   0.357   1.329   5.408 -1.7741  0.6615 -0.9575
 2174TIP3    H2 6487   0.268   1.234   5.332  0.2980 -2.3679  0.3047
 2175TIP3   OH2 6488   2.083  -0.018   4.650 -0.0449  0.0399  0.5212
 2175TIP3    H1 6489   2.108   0.073   4.633 -0.1939  0.2227  1.2478
 2175TIP3    H2 6490   2.010  -0.011   4.712  0.3850 -0.5959  1.1016
 2176TIP3   OH2 6491   6.330   4.353   3.526  0.2333 -0.0163 -0.2539
 2176TIP3    H1 6492   6.253   4.317   3.482 -1.0266  0.8631  1.2116
 2176TIP3    H2 6493   6.380   4.395   3.456 -2.5696  2.8355 -0.6627
 2177TIP3   OH2 6494   7.195   2.973   5.233  0.4518  0.1326  0.0614
 2177TIP3    H1 6495   7.290   2.959   5.226 -0.0817 -3.9089 -0.4364
 2177TIP3    H2 6496   7.178   2.970   5.327  0.5477 -1.4128  0.0382
 2178TIP3   OH2 6497   0.548   4.304   1.365 -0.0073  0.6563  0.1943
 2178TIP3    H1 6498   0.639   4.286   1.338  0.3290 -0.6808  2.1003
 2178TIP3    H2 6499   0.500   4.224   1.341 -0.6346  1.2252 -0.4873
 2179TIP3   OH2 6500   7.141   2.365   4.258 -0.1888  0.2068  0.3639
 2179TIP3    H1 6501   7.047   2.353   4.245  0.3415 -2.3396 -1.6563
 2179TIP3    H2 6502   7.162   2.309   4.333 -0.2868  0.8289  0.8584
 2180TIP3   OH2 6503   1.393   0.515   4.745  0.0970 -0.1169 -0.2599
 2180TIP3    H1 6504   1.338   0.555   4.813  0.3104 -1.6389  0.8295
 2180TIP3    H2 6505   1.370   0.422   4.747  1.9560 -0.6034 -0.5283
 2181TIP3   OH2 6506   5.834   6.595   2.120 -0.2952 -0.2436 -0.3534
 2181TIP3    H1 6507   5.821   6.632   2.207  1.3937  1.4712 -0.8063
 2181TIP3    H2 6508   5.923   6.561   2.122  0.0043  0.4489 -1.6255
 2182TIP3   OH2 6509   0.899   2.020   1.289  0.0303  0.1014  0.3155
 2182TIP3    H1 6510   0.978   2.073   1.282 -0.5560  0.9590  0.0254
 2182TIP3    H2 6511   0.898   1.968   1.209  1.2506 -1.2728  1.1668
 2183TIP3   OH2 6512   1.226   2.021   2.261  0.1765  0.3665 -0.1422
 2183TIP3    H1 6513   1.321   2.012   2.268  0.0399 -1.0563  0.1447
 2183TIP3    H2 6514   1.208   2.018   2.167  0.3592 -0.0542 -0.1646
 2184TIP3   OH2 6515   1.290   4.198   4.307  0.4123  0.1310 -0.1038
 2184TIP3    H1 6516   1.327   4.218   4.392  0.0438 -0.6234  0.2331
 2184TIP3    H2 6517   1.348   4.132   4.269  1.2134  1.2811 -0.9127
 2185TIP3   OH2 6518   3.128   1.675   3.633  0.7368 -0.0920 -0.6243
 2185TIP3    H1 6519   3.202   1.732   3.654 -0.5134  0.5622  2.0605
 2185TIP3    H2 6520   3.053   1.733   3.626 -0.3622 -1.2800  1.1414
 2186TIP3   OH2 6521   1.506   2.643   0.637  0.0574  0.4834 -0.1674
 2186TIP3    H1 6522   1.596   2.611   0.630  0.3468  1.3822 -0.6045
 2186TIP3    H2 6523   1.452   2.564   0.629  0.7655  0.0815 -1.0342
 2187TIP3   OH2 6524   1.127   0.987   1.534  0.3896  0.0068  0.5745
 2187TIP3    H1 6525   1.064   0.985   1.462 -1.0714  0.3166  1.7943
 2187TIP3    H2 6526   1.102   1.065   1.585  3.0295  1.2752  0.0091
 2188TIP3   OH2 6527   7.226   2.376   5.479  0.4445  0.0722 -0.0276
 2188TIP3    H1 6528   7.218   2.347   5.570 -1.4810 -0.9959 -0.5131
 2188TIP3    H2 6529   7.185   2.463   5.479 -0.8639 -0.5300 -0.1445
 2189TIP3   OH2 6530   0.816   2.841   4.886 -0.1320  0.5645  0.1253
 2189TIP3    H1 6531   0.819   2.861   4.979  0.3027  0.0249  0.2270
 2189TIP3    H2 6532   0.777   2.754   4.881 -0.3491  0.6794 -0.2107
 2190TIP3   OH2 6533   2.140   1.670   3.812  0.1532  0.5205 -0.4329
 2190TIP3    H1 6534   2.132   1.746   3.868  1.2679  0.4642 -0.1747
 2190TIP3    H2 6535   2.122   1.595   3.869  1.3332  0.4603 -0.1310
 2191TIP3   OH2 6536   1.756   0.433   3.802 -0.2425 -0.3295 -0.7170
 2191TIP3    H1 6537   1.848   0.462   3.807 -0.8447  1.6608 -0.5443
 2191TIP3    H2 6538   1.756   0.368   3.732  1.3690 -0.6078 -0.4851
 2192TIP3   OH2 6539   0.827   3.447   3.217  0.1495  0.1409  0.3690
 2192TIP3    H1 6540   0.762   3.516   3.230  0.6047  0.6923 -0.2276
 2192TIP3    H2 6541   0.776   3.366   3.213 -0.4325  0.4897  0.6032
 2193TIP3   OH2 6542   1.812   2.169   3.421 -0.0186 -0.4096 -0.1322
 2193TIP3    H1 6543   1.730   2.165   3.371 -0.4446  1.3561  0.3882
 2193TIP3    H2 6544   1.839   2.077   3.430 -2.7089 -1.1631  0.9464
 2194TIP3   OH2 6545   1.537   1.947   1.254 -0.3251 -0.4242 -0.4135
 2194TIP3    H1 6546   1.549   1.883   1.184  0.4489 -0.6232 -0.1009
 2194TIP3    H2 6547   1.443   1.965   1.254 -0.3847 -0.7339 -1.2291
 2195TIP3   OH2 6548   7.015   2.037   5.137  0.4360  0.1178 -0.0167
 2195TIP3    H1 6549   7.044   2.122   5.170  1.0659  0.2636 -0.9084
 2195TIP3    H2 6550   6.922   2.050   5.117  0.7385  0.8872 -1.0104
 2196TIP3   OH2 6551   0.616   1.895   4.597  0.0397  0.1426 -0.0137
 2196TIP3    H1 6552   0.588   1.947   4.522  0.1595 -0.0818 -0.2179
 2196TIP3    H2 6553   0.550   1.826   4.604  0.7695 -0.6565 -0.7822
 2197TIP3   OH2 6554   6.245   0.210   3.023 -0.1958  0.0083 -1.1367
 2197TIP3    H1 6555   6.166   0.196   3.075 -1.0539  1.1268 -2.0923
 2197TIP3    H2 6556   6.257   0.129   2.975 -0.2170 -0.5131 -0.2643
 2198TIP3   OH2 6557   3.516   5.605   0.555  0.0055 -0.0991 -0.3309
 2198TIP3    H1 6558   3.472   5.656   0.486  0.7098  2.7122  1.1973
 2198TIP3    H2 6559   3.466   5.524   0.560 -3.5104  1.9304 -0.3703
 2199TIP3   OH2 6560   7.372   1.056   1.995 -0.5711  0.5284  0.1234
 2199TIP3    H1 6561   7.421   1.138   2.006 -0.9157  0.4406  2.4993
 2199TIP3    H2 6562   7.298   1.064   2.055  0.3175 -2.2106  1.6629
 2200TIP3   OH2 6563   1.899   0.146   2.277  0.3342 -0.0624 -0.6172
 2200TIP3    H1 6564   1.811   0.177   2.295  1.0908  0.8044  1.7412
 2200TIP3    H2 6565   1.947   0.225   2.251  1.0919 -0.0565  0.7818
 2201TIP3   OH2 6566   0.623   2.009   1.693 -0.4626 -0.0271 -0.2134
 2201TIP3    H1 6567   0.705   2.049   1.666 -0.1843  0.0852  0.7624
 2201TIP3    H2 6568   0.621   2.022   1.788 -1.3136 -0.5750 -0.1548
 2202TIP3   OH2 6569   1.283   3.276   1.874  0.2173 -0.3715 -0.0861
 2202TIP3    H1 6570   1.306   3.276   1.967  1.0393 -3.0846 -0.2474
 2202TIP3    H2 6571   1.190   3.301   1.872  0.4618  0.6838  1.3628
 2203TIP3   OH2 6572   6.423   3.103   5.457 -0.0691  0.0299  0.3273
 2203TIP3    H1 6573   6.341   3.055   5.443  0.2173 -0.0240 -1.1996
 2203TIP3    H2 6574   6.401   3.167   5.525 -1.2323 -0.3467  0.3232
 2204TIP3   OH2 6575   6.670   1.914   4.478 -0.3733 -0.3521  0.4275
 2204TIP3    H1 6576   6.765   1.902   4.470 -0.6811 -2.5378 -0.2365
 2204TIP3    H2 6577   6.640   1.930   4.389 -0.6057  0.5466  0.6648
 2205TIP3   OH2 6578   0.010   3.243   3.995  0.3220 -0.2787 -0.2813
 2205TIP3    H1 6579  -0.015   3.247   4.088  0.1932  0.5779 -0.3500
 2205TIP3    H2 6580   0.023   3.150   3.978 -0.7557 -0.5456  0.3008
 2206TIP3   OH2 6581   3.255   3.826   4.732 -0.0720 -0.2333  0.5778
 2206TIP3    H1 6582   3.181   3.880   4.704  0.2380  0.2779  0.7356
 2206TIP3    H2 6583   3.216   3.743   4.759 -0.6868  0.3752  1.5957
 2207TIP3   OH2 6584   6.731   0.213   2.157 -0.1608  0.1930 -0.2452
 2207TIP3    H1 6585   6.813   0.174   2.126  0.2925  1.6135 -0.8932
 2207TIP3    H2 6586   6.688   0.244   2.078 -1.0990 -0.1194  0.1441
 2208TIP3   OH2 6587   0.404   0.867   2.830 -0.3553  0.0763 -0.5528
 2208TIP3    H1 6588   0.433   0.957   2.846  0.2277 -0.3865  1.0140
 2208TIP3    H2 6589   0.440   0.817   2.902 -2.1924 -1.1259 -0.4431
 2209TIP3   OH2 6590   1.064   2.702   2.755 -0.6573 -0.1316  0.4409
 2209TIP3    H1 6591   1.102   2.671   2.673  0.4086  2.2625 -0.0226
 2209TIP3    H2 6592   1.139   2.705   2.816 -0.5626  2.2690  0.2297
 2210TIP3   OH2 6593   6.246   2.038   4.946 -0.6244  0.2170 -0.5851
 2210TIP3    H1 6594   6.335   2.044   4.980 -0.4467  3.1920 -1.4874
 2210TIP3    H2 6595   6.193   2.085   5.011 -0.8695  2.3663 -2.3130
 2211TIP3   OH2 6596   2.154   4.129   5.560  0.8787 -0.1842 -0.3405
 2211TIP3    H1 6597   2.109   4.117   5.477 -0.3094  0.0028  0.2752
 2211TIP3    H2 6598   2.119   4.210   5.596  3.4922  1.3092 -0.9871
 2212TIP3   OH2 6599   1.515   3.169   3.444  0.0599 -0.1228  0.7450
 2212TIP3    H1 6600   1.586   3.131   3.392  1.3057 -1.1685  3.1756
 2212TIP3    H2 6601   1.490   3.247   3.394  2.0977 -0.3834 -0.7876
 2213TIP3   OH2 6602   5.128   1.397   4.777  0.1701 -0.0451  0.0460
 2213TIP3    H1 6603   5.068   1.325   4.761  0.7756 -0.3202 -1.0408
 2213TIP3    H2 6604   5.215   1.357   4.775  0.4481  0.5071  0.6479
 2214TIP3   OH2 6605   0.932   3.963   3.503  0.4774 -0.4711 -0.1413
 2214TIP3    H1 6606   0.854   3.996   3.548  0.2967 -0.7958 -0.2202
 2214TIP3    H2 6607   1.005   4.001   3.552  0.2665  1.9053 -1.5948
 2215TIP3   OH2 6608   7.235   1.410   3.417 -0.5302  0.4827 -0.1234
 2215TIP3    H1 6609   7.276   1.457   3.489 -0.8239  0.8124 -0.1711
 2215TIP3    H2 6610   7.292   1.334   3.402 -1.4546 -0.5804  1.6428
 2216TIP3   OH2 6611   1.628   0.804   2.724 -0.3546  0.0826 -0.3552
 2216TIP3    H1 6612   1.543   0.827   2.762  0.1479  1.8396 -0.2495
 2216TIP3    H2 6613   1.691   0.829   2.792  0.2005 -2.1369 -0.0207
 2217TIP3   OH2 6614   0.940   0.564   4.586 -0.1134 -0.3845  0.0476
 2217TIP3    H1 6615   0.961   0.655   4.569 -1.6132 -0.0454 -0.0299
 2217TIP3    H2 6616   0.921   0.527   4.500 -1.1165 -0.3560  0.2545
 2218TIP3   OH2 6617   6.922   6.157   2.061  0.1452 -0.3407  0.2281
 2218TIP3    H1 6618   6.851   6.177   2.122  0.2409  1.7396 -0.3129
 2218TIP3    H2 6619   6.997   6.206   2.094  0.9623 -1.4183  0.0022
 2219TIP3   OH2 6620   1.239   0.003   2.825 -0.0418 -0.4470  0.1540
 2219TIP3    H1 6621   1.281   0.085   2.800 -1.5727  1.1691  2.5823
 2219TIP3    H2 6622   1.276  -0.018   2.911  0.1030 -2.1505 -0.3015
 2220TIP3   OH2 6623   5.973   1.794   4.332  0.1726 -0.7786 -0.0722
 2220TIP3    H1 6624   5.893   1.839   4.304  0.7468 -0.2285 -0.8513
 2220TIP3    H2 6625   5.948   1.747   4.412 -1.0714 -1.0603 -0.6217
 2221TIP3   OH2 6626   1.873   0.017   2.034 -0.0019 -0.0515  0.3205
 2221TIP3    H1 6627   1.871   0.068   2.115  0.8199  0.0392  0.2874
 2221TIP3    H2 6628   1.805   0.056   1.979 -0.6470 -0.1966  1.0114
 2222TIP3   OH2 6629   0.034   1.967   2.518 -0.2452  0.2766 -0.2457
 2222TIP3    H1 6630   0.075   1.998   2.438 -0.4325  0.1755 -0.3798
 2222TIP3    H2 6631   0.012   2.047   2.567 -1.7704  0.3963 -1.1046
 2223TIP3   OH2 6632   4.528   6.923   1.159 -0.2777 -0.0656 -0.0467
 2223TIP3    H1 6633   4.479   6.987   1.105  0.4867 -0.4101 -1.1633
 2223TIP3    H2 6634   4.586   6.880   1.097  2.3369  1.1621  1.4674
 2224TIP3   OH2 6635   6.664   0.038   1.757 -0.2406  0.2392 -0.7673
 2224TIP3    H1 6636   6.596   0.038   1.689 -2.6579 -0.0581  1.5517
 2224TIP3    H2 6637   6.649   0.119   1.805  1.4254  0.4286 -0.5560
 2225TIP3   OH2 6638   3.471   1.350   4.516 -0.4219 -0.1616  0.3303
 2225TIP3    H1 6639   3.481   1.444   4.503 -1.4077 -0.0732  0.1767
 2225TIP3    H2 6640   3.379   1.339   4.541 -0.3603 -1.1003  0.1537
 2226TIP3   OH2 6641   5.663   5.662   1.494 -0.4353  0.1561 -0.7594
 2226TIP3    H1 6642   5.701   5.576   1.474  0.4826  0.3904 -0.0531
 2226TIP3    H2 6643   5.585   5.667   1.438  0.1838 -0.6249 -1.7132
 2227TIP3   OH2 6644   6.691   4.950   5.498  0.3775  0.3660  0.7540
 2227TIP3    H1 6645   6.690   4.914   5.409  0.1755  0.4460  0.7228
 2227TIP3    H2 6646   6.720   4.877   5.553  0.1901  0.2192  0.6609
 2228TIP3   OH2 6647   5.947   3.938   2.605  0.7242  0.1373 -0.3434
 2228TIP3    H1 6648   6.000   4.005   2.562  0.4168 -0.0511 -1.0157
 2228TIP3    H2 6649   6.003   3.906   2.676  0.4100  1.9466  0.7503
 2229TIP3   OH2 6650   1.741   2.365   4.702  0.4158 -0.3766  0.0269
 2229TIP3    H1 6651   1.747   2.349   4.796 -0.7365 -0.4881  0.0897
 2229TIP3    H2 6652   1.832   2.366   4.672  0.8149  0.1250  1.2159
 2230TIP3   OH2 6653   1.699   4.221   3.034 -0.5739 -0.3991  0.1799
 2230TIP3    H1 6654   1.677   4.251   2.947  1.6131  0.0800 -0.2239
 2230TIP3    H2 6655   1.633   4.154   3.054 -0.8089 -0.8414 -2.0176
 2231TIP3   OH2 6656   1.934   4.059   2.873  0.6917  0.3856  0.7616
 2231TIP3    H1 6657   1.948   4.034   2.964  0.1273 -1.6337  0.3052
 2231TIP3    H2 6658   2.003   4.014   2.824  0.1844  0.3973  0.0265
 2232TIP3   OH2 6659   0.394   1.965   4.804  0.5707 -0.0711 -0.3388
 2232TIP3    H1 6660   0.406   1.877   4.768 -0.2236  0.6654 -2.4800
 2232TIP3    H2 6661   0.337   1.952   4.880  2.1785 -1.6533  0.6121
 2233TIP3   OH2 6662   1.770   1.886   3.412 -0.3536 -0.0399 -0.1080
 2233TIP3    H1 6663   1.681   1.886   3.376  0.3364 -1.4257 -1.9226
 2233TIP3    H2 6664   1.811   1.809   3.373  1.7662  0.7986  0.4054
 2234TIP3   OH2 6665   1.792   2.551   0.533 -0.0693 -0.3552 -0.3837
 2234TIP3    H1 6666   1.830   2.636   0.557  1.2920 -0.4245 -2.1589
 2234TIP3    H2 6667   1.740   2.570   0.455  1.1723 -1.3353 -1.4761
 2235TIP3   OH2 6668   2.242   3.241   2.559 -0.1577  0.6037 -0.0983
 2235TIP3    H1 6669   2.166   3.281   2.517  1.7817  2.3159 -2.0742
 2235TIP3    H2 6670   2.306   3.311   2.566  1.3559 -0.8635  1.2938
 2236TIP3   OH2 6671   3.547   1.914   3.152 -0.7489 -0.2464  0.1534
 2236TIP3    H1 6672   3.630   1.874   3.128 -0.2970  1.0747 -0.5099
 2236TIP3    H2 6673   3.541   1.902   3.247 -0.4538 -1.5348  0.0184
 2237TIP3   OH2 6674   4.666   0.414   3.059  0.4253 -0.5574  0.3876
 2237TIP3    H1 6675   4.652   0.320   3.072  1.0841 -0.5047  1.5796
 2237TIP3    H2 6676   4.635   0.454   3.140  0.9118  0.1714  0.2200
 2238TIP3   OH2 6677   2.495   0.441   0.090 -0.1874  0.2304 -0.1523
 2238TIP3    H1 6678   2.476   0.516   0.032 -0.6258  0.4211  0.2350
 2238TIP3    H2 6679   2.533   0.375   0.032 -0.3948  0.5158 -0.6182
 2239TIP3   OH2 6680   2.461   0.223   5.375  0.5089  0.8519 -0.7571
 2239TIP3    H1 6681   2.502   0.284   5.314  0.9103 -0.6428 -2.0278
 2239TIP3    H2 6682   2.404   0.169   5.320 -0.4546  0.6090  0.4637
 2240TIP3   OH2 6683   3.654   1.901   3.670 -0.0142 -0.6889  0.5060
 2240TIP3    H1 6684   3.648   1.963   3.743 -1.0123 -0.0546 -0.0997
 2240TIP3    H2 6685   3.590   1.833   3.692  0.4390 -1.0441  0.7323
 2241TIP3   OH2 6686   2.376   2.331   3.958  0.1269  0.3529 -0.2128
 2241TIP3    H1 6687   2.434   2.275   4.010  0.2834  0.8751  0.1887
 2241TIP3    H2 6688   2.426   2.351   3.879  0.4527  0.6976  0.0744
 2242TIP3   OH2 6689   1.406   0.226   2.586  0.0894 -0.1237 -0.2844
 2242TIP3    H1 6690   1.368   0.251   2.670  1.6587 -0.5849  0.5794
 2242TIP3    H2 6691   1.451   0.305   2.555 -0.4402  0.0297 -0.6656
 2243TIP3   OH2 6692   2.297   1.467   3.265 -0.6723  0.2263  0.4046
 2243TIP3    H1 6693   2.339   1.431   3.343 -0.9714  1.5821  1.1983
 2243TIP3    H2 6694   2.275   1.557   3.288  0.0797  0.9589 -1.5512
 2244TIP3   OH2 6695   1.254   0.407   3.500  0.2385  0.5310  0.2268
 2244TIP3    H1 6696   1.265   0.367   3.586  1.6134 -1.7097 -0.9552
 2244TIP3    H2 6697   1.277   0.499   3.513  2.1311 -0.1515  1.8750
 2245TIP3   OH2 6698   3.843   2.247   4.037 -0.3283 -0.1114 -0.4874
 2245TIP3    H1 6699   3.753   2.220   4.019 -0.7909  0.4724  0.8243
 2245TIP3    H2 6700   3.896   2.194   3.978 -1.5954  0.2488 -1.9868
 2246TIP3   OH2 6701   2.371   2.405   1.398  0.5367  0.2336  0.1927
 2246TIP3    H1 6702   2.417   2.372   1.321  0.1585  0.9290 -0.3404
 2246TIP3    H2 6703   2.286   2.360   1.396  0.2891  0.7153 -0.1433
 2247TIP3   OH2 6704   0.340   2.293   5.981 -0.1961  0.7438 -0.1528
 2247TIP3    H1 6705   0.288   2.214   5.966  2.7444 -1.1400 -0.8168
 2247TIP3    H2 6706   0.362   2.289   6.075  1.4532 -0.2270 -0.5591
 2248TIP3   OH2 6707   0.179   2.728   5.202  0.1106 -0.0949 -0.5296
 2248TIP3    H1 6708   0.206   2.750   5.291  2.2162 -0.7464 -0.9902
 2248TIP3    H2 6709   0.167   2.813   5.159  3.1445  0.2609 -0.8031
 2249TIP3   OH2 6710   4.081   2.442   2.856 -0.5573 -0.0780 -0.0746
 2249TIP3    H1 6711   4.135   2.505   2.903  0.3988  0.1724 -1.4781
 2249TIP3    H2 6712   4.074   2.367   2.916  0.9723  0.0714  0.2964
 2250TIP3   OH2 6713   2.450   1.099   1.724 -0.6312  0.6415  0.0069
 2250TIP3    H1 6714   2.435   1.079   1.632 -1.4192  0.1693  0.2338
 2250TIP3    H2 6715   2.528   1.155   1.724  0.2607 -0.5748 -0.8143
 2251TIP3   OH2 6716   1.510   6.368   2.916  0.0252 -0.1336  0.6632
 2251TIP3    H1 6717   1.507   6.427   2.991  2.7921 -0.2251  0.8847
 2251TIP3    H2 6718   1.536   6.423   2.843  2.0056 -0.9090  0.7483
 2252TIP3   OH2 6719   3.564   1.592   4.457 -0.1166  0.2345  0.7110
 2252TIP3    H1 6720   3.491   1.597   4.395 -0.2425 -0.4611  0.7951
 2252TIP3    H2 6721   3.617   1.668   4.437  0.5093 -0.6362 -1.1176
 2253TIP3   OH2 6722   0.284   3.440   2.043 -0.6785 -0.3795 -0.1319
 2253TIP3    H1 6723   0.226   3.391   1.984 -3.4419  2.3117  0.2220
 2253TIP3    H2 6724   0.361   3.459   1.990 -1.1555 -1.8755 -1.4201
 2254TIP3   OH2 6725   2.866   6.393   3.633 -0.3410  0.1141  0.3342
 2254TIP3    H1 6726   2.804   6.394   3.705  0.6799  0.9724  1.2240
 2254TIP3    H2 6727   2.903   6.305   3.633  1.0998  0.6879  2.1517
 2255TIP3   OH2 6728   3.310   0.947   3.627  0.4978  0.5856 -0.0061
 2255TIP3    H1 6729   3.368   0.879   3.662  0.1708 -0.0535 -0.6891
 2255TIP3    H2 6730   3.293   0.920   3.537 -0.6024  0.9235  0.0878
 2256TIP3   OH2 6731   0.248   1.914   4.019  0.0201  0.1543 -0.0381
 2256TIP3    H1 6732   0.174   1.907   3.958 -0.6984  2.7012  0.4780
 2256TIP3    H2 6733   0.208   1.910   4.106  0.7904 -1.0238  0.2753
 2257TIP3   OH2 6734   1.673   2.868   4.047  0.1046  0.5125  0.2063
 2257TIP3    H1 6735   1.719   2.789   4.018 -0.2941  0.2068  0.4133
 2257TIP3    H2 6736   1.737   2.913   4.103  0.2300  0.1962  0.3176
 2258TIP3   OH2 6737   3.327   2.628   3.186 -0.0297  0.0648 -0.3622
 2258TIP3    H1 6738   3.236   2.616   3.213 -0.0369 -2.0552 -1.1993
 2258TIP3    H2 6739   3.375   2.644   3.267 -0.7167 -1.6876  0.4077
 2259TIP3   OH2 6740   1.578   2.262   2.615  0.6077 -0.0007  0.2354
 2259TIP3    H1 6741   1.536   2.178   2.636  1.7858 -0.2863  1.5462
 2259TIP3    H2 6742   1.628   2.245   2.535  0.5713 -0.4499  0.3064
 2260TIP3   OH2 6743   2.389   3.072   1.580 -0.3924 -0.3764 -0.2266
 2260TIP3    H1 6744   2.353   3.009   1.517 -0.8860 -0.3284  0.0071
 2260TIP3    H2 6745   2.468   3.030   1.613 -0.3302 -0.5611 -0.6116
 2261TIP3   OH2 6746   4.296   1.213   2.590  0.2241 -0.4131 -0.3309
 2261TIP3    H1 6747   4.354   1.173   2.526  0.7802 -0.9125  0.4806
 2261TIP3    H2 6748   4.260   1.139   2.639  0.2487  0.0016  0.3146
 2262TIP3   OH2 6749   2.878   3.186   4.231  0.0535  0.1696 -0.4613
 2262TIP3    H1 6750   2.881   3.143   4.146 -1.6680  1.3420 -1.1413
 2262TIP3    H2 6751   2.859   3.117   4.293 -0.4171 -0.4194 -1.2531
 2263TIP3   OH2 6752   1.156   1.513   3.098 -0.2526  0.1398  0.4913
 2263TIP3    H1 6753   1.087   1.483   3.038 -2.0172  1.9316  1.5850
 2263TIP3    H2 6754   1.171   1.438   3.155 -1.2123 -0.3131  0.1664
 2264TIP3   OH2 6755   1.418   2.802   4.158  0.2007  0.5327 -0.0589
 2264TIP3    H1 6756   1.482   2.833   4.094 -1.0830 -0.0463 -1.6635
 2264TIP3    H2 6757   1.364   2.739   4.110 -0.7817  0.0537  1.6043
 2265TIP3   OH2 6758   1.720   3.385   2.281  0.6213  0.2384 -0.2509
 2265TIP3    H1 6759   1.722   3.453   2.348 -0.7036  0.0659 -0.0199
 2265TIP3    H2 6760   1.663   3.317   2.317 -0.9207  0.5710 -1.9314
 2266TIP3   OH2 6761   3.193   3.097   2.367  0.1948 -0.5330 -0.6751
 2266TIP3    H1 6762   3.251   3.168   2.395 -0.8799  0.2199 -0.3361
 2266TIP3    H2 6763   3.148   3.070   2.447 -0.8367 -0.2694 -1.1674
 2267TIP3   OH2 6764   2.749   3.492   4.451 -0.1311 -0.0872 -0.3373
 2267TIP3    H1 6765   2.754   3.539   4.534  0.4177 -0.2143 -0.2988
 2267TIP3    H2 6766   2.661   3.512   4.418  0.5742  2.1148 -1.0058
 2268TIP3   OH2 6767   2.200   2.815   1.973 -0.6805 -0.1663 -0.2497
 2268TIP3    H1 6768   2.169   2.884   2.030  0.2558  0.6964 -0.7694
 2268TIP3    H2 6769   2.295   2.826   1.970 -0.2705 -2.7416  1.2895
 2269TIP3   OH2 6770   3.635   0.273   2.668 -0.1833  0.5161 -0.3294
 2269TIP3    H1 6771   3.661   0.332   2.738  0.4032  1.1302 -1.0543
 2269TIP3    H2 6772   3.560   0.316   2.627 -2.1341 -1.0401  1.4798
 2270TIP3   OH2 6773   3.038   2.668   1.424 -0.5036 -0.0581 -0.0436
 2270TIP3    H1 6774   2.993   2.701   1.502 -1.3343 -0.8024 -0.1984
 2270TIP3    H2 6775   2.972   2.670   1.355 -1.0332 -3.4232  0.2936
 2271TIP3   OH2 6776   0.324   3.981   5.510  0.0865  0.0296  0.3594
 2271TIP3    H1 6777   0.288   4.046   5.451 -3.0862 -1.8484  0.1334
 2271TIP3    H2 6778   0.353   3.910   5.452  0.0753 -0.3646  0.8307
 2272TIP3   OH2 6779   2.937   2.730   2.975 -0.2185 -0.5380  0.3574
 2272TIP3    H1 6780   2.869   2.790   3.004  0.4937  1.0707 -1.2152
 2272TIP3    H2 6781   3.019   2.773   2.999  0.3183 -0.3945 -1.6662
 2273TIP3   OH2 6782   2.440   5.136   3.712 -0.2728 -0.1794  0.6353
 2273TIP3    H1 6783   2.389   5.102   3.785  0.9829  0.1012  1.6735
 2273TIP3    H2 6784   2.483   5.214   3.747  0.4764 -0.1371 -0.3456
 2274TIP3   OH2 6785   2.896   0.909   2.664 -0.1888 -0.2466  0.1986
 2274TIP3    H1 6786   2.890   0.917   2.569  0.5031 -0.8248  0.1038
 2274TIP3    H2 6787   2.957   0.837   2.679 -0.1234 -0.0203  1.0868
 2275TIP3   OH2 6788   2.990   3.649   1.360 -0.5999 -0.3102  0.3314
 2275TIP3    H1 6789   3.031   3.670   1.276 -0.1706  1.3422  0.9482
 2275TIP3    H2 6790   2.978   3.733   1.403 -1.8686 -1.0412  1.4614
 2276TIP3   OH2 6791   1.788   1.508   1.747  0.5078  0.4573  0.1345
 2276TIP3    H1 6792   1.736   1.545   1.819  2.2575  0.6165  1.3567
 2276TIP3    H2 6793   1.816   1.584   1.696  1.2180  0.5331  0.6392
 2277TIP3   OH2 6794   2.393   2.597   3.496 -0.3615  0.4487 -0.1606
 2277TIP3    H1 6795   2.352   2.642   3.421  1.2383 -0.9768 -1.9427
 2277TIP3    H2 6796   2.483   2.629   3.497  0.8424 -2.6047 -1.5012
 2278TIP3   OH2 6797   2.632   2.600   4.283  0.1846  0.0917 -0.5379
 2278TIP3    H1 6798   2.709   2.604   4.340  0.7532  0.9631 -1.3295
 2278TIP3    H2 6799   2.641   2.677   4.226  0.0508 -1.1741 -2.3184
 2279TIP3   OH2 6800   1.230   2.796   2.157 -0.4998  0.0845  0.7150
 2279TIP3    H1 6801   1.212   2.845   2.237 -0.9244  1.6662 -0.3307
 2279TIP3    H2 6802   1.318   2.824   2.132 -0.7099  0.2459  0.1637
 2280TIP3   OH2 6803   1.579   2.178   3.280  0.1177  0.1483  0.1410
 2280TIP3    H1 6804   1.489   2.203   3.299  0.5514  2.4292 -0.5911
 2280TIP3    H2 6805   1.578   2.150   3.189  0.3568  1.4723 -0.2901
 2281TIP3   OH2 6806   4.365   2.225   1.710 -0.5906 -0.0702 -0.1562
 2281TIP3    H1 6807   4.292   2.175   1.747 -1.5941 -0.7119 -2.8470
 2281TIP3    H2 6808   4.351   2.314   1.741 -2.5834 -0.1765 -0.6239
 2282TIP3   OH2 6809   6.180   3.804   5.937  0.6508  0.1666  0.1100
 2282TIP3    H1 6810   6.155   3.729   5.884  0.6741 -0.9750  1.6797
 2282TIP3    H2 6811   6.276   3.797   5.946  0.9447  1.6280 -1.5601
 2283TIP3   OH2 6812   1.490   5.398   1.037 -0.6117  0.2403  0.1072
 2283TIP3    H1 6813   1.422   5.458   1.069  0.2073  1.9937 -1.3541
 2283TIP3    H2 6814   1.554   5.455   0.994  1.3987 -1.4616  0.7559
 2284TIP3   OH2 6815   4.735   2.825   5.406 -0.2906  0.3846  0.3258
 2284TIP3    H1 6816   4.776   2.800   5.489  0.3355  1.4003  0.3298
 2284TIP3    H2 6817   4.643   2.837   5.428 -0.1329  0.6049  0.8664
 2285TIP3   OH2 6818   0.347   1.260   3.897 -0.1403 -0.0908 -0.7922
 2285TIP3    H1 6819   0.364   1.354   3.892  0.5428 -0.1829 -0.2198
 2285TIP3    H2 6820   0.252   1.253   3.910  0.1262  0.5924  1.5897
 2286TIP3   OH2 6821   3.484   3.205   1.717  0.3544 -0.9326  0.4236
 2286TIP3    H1 6822   3.421   3.154   1.767  0.2361 -0.4660  0.7546
 2286TIP3    H2 6823   3.432   3.267   1.667  0.5907 -0.0537  1.2611
 2287TIP3   OH2 6824   1.914   2.228   3.660 -0.0737 -0.0449  0.5341
 2287TIP3    H1 6825   1.981   2.296   3.658 -0.2222  0.1758  2.1752
 2287TIP3    H2 6826   1.889   2.215   3.568  2.9735 -0.9111 -0.2196
 2288TIP3   OH2 6827   0.095   5.979   4.676 -0.3644 -0.0202  0.2021
 2288TIP3    H1 6828   0.010   5.964   4.635  0.1653 -2.6864 -0.0223
 2288TIP3    H2 6829   0.147   6.020   4.607 -1.1202  0.5582 -0.0285
 2289TIP3   OH2 6830   2.052   2.580   1.226  0.0364  0.2887 -0.1737
 2289TIP3    H1 6831   2.049   2.508   1.289 -2.0984  1.6586  1.3691
 2289TIP3    H2 6832   2.142   2.580   1.194  1.2133 -0.4387  2.9085
 2290TIP3   OH2 6833   2.440   0.081   0.905 -0.1959  0.5817  0.0848
 2290TIP3    H1 6834   2.385   0.038   0.970 -0.3921  0.0612 -0.4213
 2290TIP3    H2 6835   2.437   0.023   0.829  0.7340  0.7444 -0.0812
 2291TIP3   OH2 6836   1.487   2.537   2.901  0.6217 -0.0092 -0.5418
 2291TIP3    H1 6837   1.547   2.465   2.879  1.6145  0.8900 -0.8136
 2291TIP3    H2 6838   1.541   2.616   2.894 -0.4235  0.7515 -0.0958
 2292TIP3   OH2 6839   6.858   1.691   2.093  0.3411  0.4718  0.1012
 2292TIP3    H1 6840   6.902   1.774   2.073  0.7196  0.0582 -0.7570
 2292TIP3    H2 6841   6.858   1.643   2.011 -0.9312  0.0997  0.3101
 2293TIP3   OH2 6842   2.564   1.151   1.160 -0.1519  0.3590  0.1641
 2293TIP3    H1 6843   2.612   1.233   1.172  1.2368 -0.4480  0.1607
 2293TIP3    H2 6844   2.630   1.087   1.133 -1.3787 -0.5458 -0.7602
 2294TIP3   OH2 6845   1.213   6.077   2.599  0.2071  0.1878  0.0674
 2294TIP3    H1 6846   1.136   6.027   2.570  0.4959 -0.6293  0.7024
 2294TIP3    H2 6847   1.285   6.044   2.545  0.1581  0.8205 -0.3945
 2295TIP3   OH2 6848   1.881   1.937   2.293  0.4472 -0.2535 -0.2153
 2295TIP3    H1 6849   1.898   2.016   2.243 -0.7978  0.5071  0.5221
 2295TIP3    H2 6850   1.919   1.866   2.242 -1.0302  0.4694 -2.3717
 2296TIP3   OH2 6851   2.441   1.315   3.081 -0.1024  0.3927 -0.3028
 2296TIP3    H1 6852   2.426   1.376   3.008  1.3315  1.0624 -0.0516
 2296TIP3    H2 6853   2.410   1.363   3.158 -1.8482 -0.4105 -0.4730
 2297TIP3   OH2 6854   6.673   0.946   3.341  0.2053 -0.2161 -0.2726
 2297TIP3    H1 6855   6.597   1.002   3.359  0.7121  0.0284  1.1204
 2297TIP3    H2 6856   6.713   0.985   3.263 -0.3320  0.4486 -0.2232
 2298TIP3   OH2 6857   5.878   6.314   3.763 -0.0434 -0.1263 -0.3437
 2298TIP3    H1 6858   5.883   6.281   3.673 -2.0438  1.0326 -0.9148
 2298TIP3    H2 6859   5.785   6.327   3.779  0.3303  0.1408  1.7391
 2299TIP3   OH2 6860   1.452   2.359   1.424 -0.1941  0.2933 -0.5075
 2299TIP3    H1 6861   1.383   2.425   1.426 -1.0847 -0.6232 -0.9257
 2299TIP3    H2 6862   1.525   2.403   1.380 -0.8572  0.9232 -0.9867
 2300TIP3   OH2 6863   3.259   1.093   2.639 -0.6246 -0.1636  0.5470
 2300TIP3    H1 6864   3.175   1.102   2.685 -0.6243  0.9579  0.3472
 2300TIP3    H2 6865   3.309   1.031   2.692 -1.7174 -1.1379  0.4584
 2301TIP3   OH2 6866   0.728   2.034   3.190  0.4033  0.2324 -0.5160
 2301TIP3    H1 6867   0.695   2.083   3.265 -0.2033 -0.3214 -0.4179
 2301TIP3    H2 6868   0.655   1.977   3.164  0.9107 -0.2216 -0.9660
 2302TIP3   OH2 6869   0.695   2.093   4.980  0.4841 -0.3762 -0.2718
 2302TIP3    H1 6870   0.638   2.086   5.057  1.3175  1.2679  0.5195
 2302TIP3    H2 6871   0.778   2.055   5.009  0.8970  0.5388 -0.2620
 2303TIP3   OH2 6872   1.292   0.442   4.099  0.7448  0.3654 -0.4147
 2303TIP3    H1 6873   1.378   0.459   4.060  0.5392  1.7976 -0.2672
 2303TIP3    H2 6874   1.310   0.429   4.192  0.9144 -0.3348 -0.5427
 2304TIP3   OH2 6875   6.649   0.576   2.485  0.5740  0.5278  0.8364
 2304TIP3    H1 6876   6.609   0.491   2.501 -0.3711  1.2856  2.6845
 2304TIP3    H2 6877   6.583   0.626   2.437  2.2104 -0.6808 -2.8403
 2305TIP3   OH2 6878   2.870   2.700   1.196  0.2613 -0.5876  0.3455
 2305TIP3    H1 6879   2.891   2.772   1.137  2.5586 -0.5006  1.1871
 2305TIP3    H2 6880   2.890   2.621   1.145 -0.2768 -0.5802  0.1218
 2306TIP3   OH2 6881   0.205   0.280   2.124 -0.4990  0.0362  0.4071
 2306TIP3    H1 6882   0.291   0.241   2.138  0.2980  1.7297  0.3300
 2306TIP3    H2 6883   0.193   0.339   2.198 -1.1248  0.6213 -0.1520
 2307TIP3   OH2 6884   1.474   3.590   3.501  0.0042 -0.2690  0.2542
 2307TIP3    H1 6885   1.449   3.561   3.414 -0.6027  0.0509  0.3244
 2307TIP3    H2 6886   1.563   3.555   3.513  0.2395  0.0045 -0.6378
 2308TIP3   OH2 6887   3.790   0.402   3.779  0.1210  0.1201 -0.1562
 2308TIP3    H1 6888   3.750   0.482   3.812  0.1744 -0.4001  1.1596
 2308TIP3    H2 6889   3.737   0.379   3.702 -0.6487  0.7194  0.1895
 2309TIP3   OH2 6890   1.357   0.810   2.779  0.3982 -0.6055 -0.1179
 2309TIP3    H1 6891   1.323   0.730   2.819  1.1064 -1.5985 -1.4357
 2309TIP3    H2 6892   1.297   0.828   2.707  0.4601 -0.1712 -0.0601
 2310TIP3   OH2 6893   1.913   2.094   3.056  0.5070 -0.1945  0.2744
 2310TIP3    H1 6894   1.844   2.121   2.995  0.0357 -1.1090  0.3786
 2310TIP3    H2 6895   1.925   2.169   3.114  0.1904  0.2810 -0.2657
 2311TIP3   OH2 6896   2.599   2.235   3.010 -0.7775 -0.0400  0.0954
 2311TIP3    H1 6897   2.646   2.250   2.928  0.8138 -0.6219  0.8795
 2311TIP3    H2 6898   2.507   2.244   2.987 -0.2890  1.1216 -1.4828
 2312TIP3   OH2 6899   3.702   1.926   1.995 -0.4499 -0.5059 -0.0059
 2312TIP3    H1 6900   3.621   1.876   2.008 -0.8302  0.3220  0.8571
 2312TIP3    H2 6901   3.683   2.013   2.029  0.7899 -0.2785  0.1492
 2313TIP3   OH2 6902   2.291   1.051   3.016  0.6059 -0.5377  0.0516
 2313TIP3    H1 6903   2.351   1.001   3.070 -0.2351 -1.5973  0.0307
 2313TIP3    H2 6904   2.337   1.132   2.997  1.5262 -0.8163  1.0546
 2314TIP3   OH2 6905   2.167   0.318   2.882 -0.4288 -0.2191  0.2084
 2314TIP3    H1 6906   2.145   0.297   2.791 -2.4883 -2.8913  1.2384
 2314TIP3    H2 6907   2.082   0.318   2.927  0.8329 -1.6738  2.6492
 2315TIP3   OH2 6908   1.133   2.525   3.260  0.2293  0.3924  0.4127
 2315TIP3    H1 6909   1.046   2.554   3.232  0.3598 -0.4155 -0.8704
 2315TIP3    H2 6910   1.149   2.572   3.342 -1.8805 -0.3320  1.2396
 2316TIP3   OH2 6911   6.891   0.372   1.877  0.0601  0.3442 -0.3959
 2316TIP3    H1 6912   6.814   0.424   1.899 -0.2273  0.8211 -2.4217
 2316TIP3    H2 6913   6.963   0.436   1.873  0.0979  0.2690 -0.8932
 2317TIP3   OH2 6914   0.499   2.756   3.012  0.2778  0.1971 -0.0094
 2317TIP3    H1 6915   0.561   2.715   3.073 -0.2840 -0.8257 -0.1172
 2317TIP3    H2 6916   0.422   2.700   3.016  0.6017 -0.4661 -2.4415
 2318TIP3   OH2 6917   3.228   2.838   2.272 -0.1539  0.0282 -0.3610
 2318TIP3    H1 6918   3.184   2.923   2.280 -4.7778 -1.9187 -3.1240
 2318TIP3    H2 6919   3.214   2.796   2.357  0.8713  1.4214  0.5107
 2319TIP3   OH2 6920   2.473   0.641   3.641 -0.1655 -0.0337  0.3204
 2319TIP3    H1 6921   2.436   0.721   3.603  0.1502 -0.7924 -1.6409
 2319TIP3    H2 6922   2.466   0.654   3.736 -1.4279  1.6971  0.0152
 2320TIP3   OH2 6923   4.780   3.027   1.670 -0.1779 -0.7873 -0.3344
 2320TIP3    H1 6924   4.848   2.978   1.623  0.7414 -0.2970  0.4709
 2320TIP3    H2 6925   4.811   3.031   1.760 -2.1206 -2.0504  0.4325
 2321TIP3   OH2 6926   1.518   2.800   3.115  0.9916 -0.0425 -0.3421
 2321TIP3    H1 6927   1.613   2.808   3.117  0.9892 -0.2448  0.6581
 2321TIP3    H2 6928   1.488   2.887   3.089  1.4084  0.2660  0.2111
 2322TIP3   OH2 6929   2.217   3.164   2.825 -0.6873  0.1220 -0.3684
 2322TIP3    H1 6930   2.210   3.247   2.873  0.3377  1.8302 -3.0387
 2322TIP3    H2 6931   2.212   3.190   2.733  1.4207 -2.6078 -1.3037
 2323TIP3   OH2 6932   3.197   2.170   4.193  0.2681 -0.1604  0.2815
 2323TIP3    H1 6933   3.112   2.181   4.152 -0.0807 -1.3529  0.6614
 2323TIP3    H2 6934   3.199   2.235   4.264 -1.1360 -1.4373  1.5357
 2324TIP3   OH2 6935   2.934   3.355   4.691 -0.4588 -0.0176  0.4193
 2324TIP3    H1 6936   2.911   3.352   4.598 -0.9999  0.5231  0.5325
 2324TIP3    H2 6937   3.021   3.315   4.695 -0.4817 -0.1534 -0.3035
 2325TIP3   OH2 6938   3.915   1.101   2.778  0.2277  1.0221  0.0103
 2325TIP3    H1 6939   4.004   1.113   2.812 -0.1235  1.3152  0.8304
 2325TIP3    H2 6940   3.883   1.190   2.762  0.2817  0.8983 -0.8191
 2326TIP3   OH2 6941   5.463   2.815   3.176 -0.9111  0.2774  0.3536
 2326TIP3    H1 6942   5.488   2.740   3.229  1.5546 -1.0916 -2.5899
 2326TIP3    H2 6943   5.435   2.778   3.093 -0.5740  2.5511 -0.8259
 2327TIP3   OH2 6944   3.766   3.321   3.224  0.0884 -0.0300  0.1630
 2327TIP3    H1 6945   3.838   3.294   3.281  1.2064  1.5541 -0.4632
 2327TIP3    H2 6946   3.703   3.362   3.284  0.7956  0.7125  0.4101
 2328TIP3   OH2 6947   1.851   3.246   2.594 -0.4860  0.4233  0.6823
 2328TIP3    H1 6948   1.828   3.154   2.587  2.3899 -0.3865  1.3601
 2328TIP3    H2 6949   1.791   3.281   2.660 -1.9682 -0.8038  0.0247
 2329TIP3   OH2 6950   1.606   0.893   3.516  0.2382  0.6519  0.2688
 2329TIP3    H1 6951   1.631   0.972   3.468 -3.5068  1.0667 -1.1267
 2329TIP3    H2 6952   1.519   0.913   3.551 -0.4938 -2.6127  0.4338
 2330TIP3   OH2 6953   0.607   4.200   2.429  0.1243  0.2666 -0.0886
 2330TIP3    H1 6954   0.593   4.287   2.465  0.6961  0.5754 -0.5966
 2330TIP3    H2 6955   0.640   4.149   2.504 -0.9827  0.2667  0.4043
 2331TIP3   OH2 6956   1.421   1.909   3.588 -0.4658  0.0481  0.2230
 2331TIP3    H1 6957   1.490   1.961   3.546 -0.4126  0.0485  0.3103
 2331TIP3    H2 6958   1.418   1.829   3.536  0.7742 -0.6742  1.2410
 2332TIP3   OH2 6959   0.171   3.012   2.472  0.0557 -0.2769  0.4457
 2332TIP3    H1 6960   0.096   3.068   2.453 -0.6148 -1.0549  0.7314
 2332TIP3    H2 6961   0.214   3.053   2.547  1.2694  1.4448 -1.1624
 2333TIP3   OH2 6962   1.524   2.289   4.573  0.3039 -0.4013  0.3559
 2333TIP3    H1 6963   1.545   2.197   4.556  1.0750 -0.1323 -0.2306
 2333TIP3    H2 6964   1.606   2.326   4.606 -0.2512 -0.1230  1.4439
 2334TIP3   OH2 6965   0.975   6.884   2.748 -0.3556  0.2914  0.2260
 2334TIP3    H1 6966   1.038   6.949   2.781 -0.1275  0.4484 -0.5054
 2334TIP3    H2 6967   1.012   6.855   2.664 -0.7397 -0.3747  0.2809
 2335TIP3   OH2 6968   2.487   0.863   3.136 -0.0973  0.3618  0.3158
 2335TIP3    H1 6969   2.486   0.768   3.145 -1.5651  0.0710 -2.2481
 2335TIP3    H2 6970   2.579   0.887   3.134  0.3559 -1.3791 -1.9353
 2336TIP3   OH2 6971   1.474   1.186   1.191 -0.2024 -0.5857 -0.0173
 2336TIP3    H1 6972   1.452   1.148   1.275 -0.6810  1.5950  0.8728
 2336TIP3    H2 6973   1.570   1.182   1.187 -0.0106  1.5730  1.7511
 2337TIP3   OH2 6974   2.874   2.335   3.368 -0.3137 -0.0122 -0.4143
 2337TIP3    H1 6975   2.833   2.334   3.454 -2.2021 -1.6844 -1.3011
 2337TIP3    H2 6976   2.962   2.370   3.384 -1.0072  0.7404  1.9905
 2338TIP3   OH2 6977   0.339   0.509   3.241 -0.0873  0.8503 -0.4910
 2338TIP3    H1 6978   0.284   0.537   3.314 -0.7957  1.0941 -1.1083
 2338TIP3    H2 6979   0.281   0.458   3.185  0.5155  0.4543 -0.7625
 2339TIP3   OH2 6980   2.655   2.580   3.622  0.2003 -0.3817  0.5829
 2339TIP3    H1 6981   2.680   2.597   3.713 -0.2646 -1.1464  0.8561
 2339TIP3    H2 6982   2.730   2.611   3.570 -0.8672  3.1370  1.0054
 2340TIP3   OH2 6983   0.964   6.128   3.265 -0.4305 -0.0093 -0.3529
 2340TIP3    H1 6984   0.937   6.064   3.200  0.1586  1.1865 -1.8199
 2340TIP3    H2 6985   1.057   6.144   3.246 -0.0892 -0.0744  1.1627
 2341TIP3   OH2 6986   0.591   0.515   4.554 -0.6666 -0.7802  0.5150
 2341TIP3    H1 6987   0.592   0.565   4.636 -0.5193  0.1546 -0.0474
 2341TIP3    H2 6988   0.678   0.529   4.517 -1.7823  1.4491 -1.3663
 2342TIP3   OH2 6989   2.764   1.066   5.979 -0.1804  0.3011 -0.5091
 2342TIP3    H1 6990   2.764   1.010   6.057 -0.5396  0.0555 -0.6833
 2342TIP3    H2 6991   2.767   1.004   5.906  0.0678  0.5293 -0.6911
 2343TIP3   OH2 6992   2.874   2.727   3.476  0.1228  0.2283 -0.5560
 2343TIP3    H1 6993   2.905   2.806   3.520 -0.7371  0.0639  0.3536
 2343TIP3    H2 6994   2.817   2.759   3.406  0.0970  0.4252 -0.4441
 2344TIP3   OH2 6995   2.095   1.921   5.774  0.5946 -0.5146  0.7098
 2344TIP3    H1 6996   2.101   1.834   5.814  4.1150 -0.4277  0.4828
 2344TIP3    H2 6997   2.138   1.911   5.689 -1.1510  0.8819 -0.3799
 2345TIP3   OH2 6998   2.591   2.449   0.270  0.6726 -0.0172  0.1569
 2345TIP3    H1 6999   2.639   2.435   0.352 -0.5337  1.0303  1.0559
 2345TIP3    H2 7000   2.543   2.367   0.256  1.1469 -0.3254  0.3045
 2346TIP3   OH2 7001   3.246   1.659   2.811  0.4413 -0.9395 -0.1075
 2346TIP3    H1 7002   3.255   1.720   2.883 -2.8543 -0.5702  0.0754
 2346TIP3    H2 7003   3.288   1.702   2.737 -0.2964  0.7679  0.4570
 2347TIP3   OH2 7004   3.845   1.872   2.546  0.1451 -0.2800  0.0881
 2347TIP3    H1 7005   3.821   1.867   2.639  0.2810 -0.4653  0.1129
 2347TIP3    H2 7006   3.811   1.957   2.517 -0.2006 -0.3718  0.2218
 2348TIP3   OH2 7007   4.550   2.477   2.184  0.4791  0.0183  0.2094
 2348TIP3    H1 7008   4.492   2.553   2.192  0.4603 -0.1325  1.6493
 2348TIP3    H2 7009   4.630   2.511   2.146 -0.7253  0.1385 -2.2984
 2349TIP3   OH2 7010   1.236   1.156   4.525 -0.0919 -0.3249  0.3662
 2349TIP3    H1 7011   1.281   1.072   4.511 -0.7487 -0.2847 -2.2117
 2349TIP3    H2 7012   1.262   1.210   4.450 -0.7205  1.3449  1.3188
 2350TIP3   OH2 7013   1.357   1.023   3.528  0.1680  0.0480  0.8667
 2350TIP3    H1 7014   1.364   1.112   3.563  0.2835  0.7679 -0.9378
 2350TIP3    H2 7015   1.265   1.001   3.536  0.3124 -0.1043  2.3164
 2351TIP3   OH2 7016   2.254   3.883   1.508  0.1121 -0.1677  0.3267
 2351TIP3    H1 7017   2.213   3.827   1.442  1.8253 -1.1991  0.1155
 2351TIP3    H2 7018   2.203   3.964   1.505  0.4735  0.0147 -2.6588
 2352TIP3   OH2 7019   0.566   3.234   1.321 -0.0471 -0.0104 -0.7084
 2352TIP3    H1 7020   0.504   3.265   1.386  0.2308 -3.0122  1.0474
 2352TIP3    H2 7021   0.548   3.141   1.312  3.1249 -0.6322 -1.3547
 2353TIP3   OH2 7022   1.312   2.303   3.347 -0.4333  0.0452 -0.0258
 2353TIP3    H1 7023   1.386   2.360   3.324 -0.3262 -0.1304 -0.1162
 2353TIP3    H2 7024   1.249   2.315   3.277 -0.8915  0.9079  0.5277
 2354TIP3   OH2 7025   6.337   2.426   3.665 -0.1831 -1.3825  0.2814
 2354TIP3    H1 7026   6.404   2.361   3.645  1.0128  0.1451 -0.7556
 2354TIP3    H2 7027   6.385   2.500   3.701 -1.4675 -0.8080  0.8408
 2355TIP3   OH2 7028   2.207   1.485   4.789 -0.3034  0.3919 -0.3966
 2355TIP3    H1 7029   2.279   1.541   4.761 -0.8599  0.7654 -1.0939
 2355TIP3    H2 7030   2.175   1.445   4.708 -1.2690  0.6892 -0.1629
 2356TIP3   OH2 7031   0.288   3.313   3.281 -0.0910 -0.1379 -0.5639
 2356TIP3    H1 7032   0.329   3.373   3.343 -0.3567 -0.5101 -0.0202
 2356TIP3    H2 7033   0.194   3.325   3.294 -0.1482 -1.4711  0.3462
 2357TIP3   OH2 7034   1.153   2.320   4.529  0.4946 -0.7008  0.2853
 2357TIP3    H1 7035   1.194   2.382   4.469 -2.5565  0.2655 -0.8526
 2357TIP3    H2 7036   1.199   2.237   4.513  2.3129  0.4330 -0.5558
 2358TIP3   OH2 7037   3.232   4.266   0.692 -0.6877 -0.1906 -0.1614
 2358TIP3    H1 7038   3.170   4.310   0.635  2.0927  0.7412 -2.6411
 2358TIP3    H2 7039   3.234   4.176   0.660  0.3069  0.1492 -1.1101
 2359TIP3   OH2 7040   7.311   4.064   5.332 -0.4531 -0.1424 -0.3792
 2359TIP3    H1 7041   7.273   4.083   5.418  2.6270  1.7071  0.6470
 2359TIP3    H2 7042   7.257   4.114   5.270 -1.5965 -0.0506  0.6788
 2360TIP3   OH2 7043   3.627   0.484   4.655  0.0778  0.2947  0.6940
 2360TIP3    H1 7044   3.624   0.432   4.575 -1.9037 -0.1755  1.0605
 2360TIP3    H2 7045   3.642   0.573   4.625  0.1795  0.0048 -0.1331
 2361TIP3   OH2 7046   0.123   2.292   4.792  0.3218 -0.5968 -0.1072
 2361TIP3    H1 7047   0.149   2.383   4.777 -1.1954  0.3729  2.8110
 2361TIP3    H2 7048   0.145   2.275   4.883  0.4042 -3.1098 -0.5710
 2362TIP3   OH2 7049   2.914   3.208   2.541 -0.2109 -0.0178 -0.2868
 2362TIP3    H1 7050   2.976   3.139   2.563 -0.5377  0.3284  1.9132
 2362TIP3    H2 7051   2.956   3.289   2.571 -1.0036  0.4002 -0.2787
 2363TIP3   OH2 7052   4.017   1.896   4.302 -0.2480  0.2998 -0.2653
 2363TIP3    H1 7053   4.034   1.885   4.209 -1.1039  0.2558 -0.4161
 2363TIP3    H2 7054   4.014   1.991   4.315 -0.3498  0.3045 -0.3230
 2364TIP3   OH2 7055   0.762   2.380   3.417  0.4138  0.6304 -0.0652
 2364TIP3    H1 7056   0.849   2.373   3.456  0.4778  0.0204 -0.3078
 2364TIP3    H2 7057   0.774   2.352   3.326 -0.2415 -0.5196  0.1886
 2365TIP3   OH2 7058   1.282   3.308   5.263  0.2020  0.5307 -0.1117
 2365TIP3    H1 7059   1.192   3.331   5.241  0.2158  0.0247 -0.7398
 2365TIP3    H2 7060   1.297   3.225   5.217  0.7253  0.2012  0.6473
 2366TIP3   OH2 7061   1.752   2.148   1.815 -0.4699 -0.3104  0.0708
 2366TIP3    H1 7062   1.699   2.133   1.737  0.3977 -1.2596 -0.3481
 2366TIP3    H2 7063   1.766   2.060   1.851  0.5778 -0.0405  0.3300
 2367TIP3   OH2 7064   0.783   2.062   3.736  0.3558  0.4023 -0.0695
 2367TIP3    H1 7065   0.718   2.102   3.678 -1.4002 -0.7798  1.0414
 2367TIP3    H2 7066   0.733   2.000   3.789  3.0093 -3.2168 -1.6638
 2368TIP3   OH2 7067   1.894   1.039   1.784 -0.4800 -0.0089  0.2416
 2368TIP3    H1 7068   1.921   0.954   1.750  0.2339  0.6712 -0.9370
 2368TIP3    H2 7069   1.800   1.030   1.800 -0.2939 -1.2057  0.7249
 2369TIP3   OH2 7070   3.410   0.323   3.024 -0.2226 -0.4271 -0.0338
 2369TIP3    H1 7071   3.349   0.361   2.960 -2.5327  3.0996  4.0390
 2369TIP3    H2 7072   3.489   0.376   3.015 -0.4297 -0.1361 -0.1675
 2370TIP3   OH2 7073   0.894   2.892   2.597 -0.3580 -0.0626 -0.2134
 2370TIP3    H1 7074   0.967   2.863   2.541  0.8228  0.7173  0.8862
 2370TIP3    H2 7075   0.921   2.866   2.685 -0.7119  1.5934  0.3869
 2371TIP3   OH2 7076   2.376   0.047   4.450  0.6214  0.6558  0.1905
 2371TIP3    H1 7077   2.305   0.086   4.500 -0.1604 -0.1305 -0.2795
 2371TIP3    H2 7078   2.425   0.121   4.415  0.0997  1.2024  0.6043
 2372TIP3   OH2 7079   1.117   2.232   2.495 -0.0994 -0.1877 -0.0378
 2372TIP3    H1 7080   1.204   2.272   2.506 -0.2948  0.0157  0.8023
 2372TIP3    H2 7081   1.059   2.289   2.545 -0.9673  0.5400 -1.8204
 2373TIP3   OH2 7082   7.279   6.494   3.919 -0.3813  0.1487  0.0524
 2373TIP3    H1 7083   7.294   6.536   4.004  0.4750  0.0439 -0.0394
 2373TIP3    H2 7084   7.269   6.567   3.859 -1.3536  0.2249  0.2995
 2374TIP3   OH2 7085   2.821   1.290   4.014 -0.1534  0.0269  0.0256
 2374TIP3    H1 7086   2.789   1.301   3.924  1.2694  2.6962 -0.1986
 2374TIP3    H2 7087   2.774   1.357   4.064 -2.0156 -2.3946  1.5932
 2375TIP3   OH2 7088   1.799   1.476   3.298 -0.0585  0.5458  1.3710
 2375TIP3    H1 7089   1.863   1.440   3.236 -2.0122 -0.5743 -0.0653
 2375TIP3    H2 7090   1.806   1.570   3.288  0.2649  0.3968  0.0620
 2376TIP3   OH2 7091   1.724   6.747   4.293 -0.0988  0.2643  0.2025
 2376TIP3    H1 7092   1.795   6.746   4.357  1.2861 -0.6423 -1.3143
 2376TIP3    H2 7093   1.664   6.815   4.325 -0.1205 -1.0865  3.1728
 2377TIP3   OH2 7094   0.602   6.963   4.831 -0.2679 -0.5369 -0.2959
 2377TIP3    H1 7095   0.614   6.900   4.761 -2.4883  0.1935 -1.3836
 2377TIP3    H2 7096   0.560   7.039   4.789  1.6763  1.3832  1.1123
 2378TIP3   OH2 7097   3.658   1.778   2.326  0.3691  0.6817 -0.8609
 2378TIP3    H1 7098   3.639   1.746   2.238  1.3224  2.8416 -1.8763
 2378TIP3    H2 7099   3.751   1.799   2.324  0.6211 -0.1466  0.9774
 2379TIP3   OH2 7100   1.363   1.076   3.258  0.0670 -0.0046 -0.1377
 2379TIP3    H1 7101   1.456   1.084   3.237  0.0879  1.5289  0.4585
 2379TIP3    H2 7102   1.361   1.063   3.353 -0.2853 -1.2026 -0.2963
 2380TIP3   OH2 7103   3.244   2.586   2.773 -0.3725  0.3881 -0.0061
 2380TIP3    H1 7104   3.184   2.616   2.841 -0.8501  1.0246 -0.6943
 2380TIP3    H2 7105   3.331   2.596   2.811 -0.5976  1.4656  0.2338
 2381TIP3   OH2 7106   1.511   1.986   4.573 -0.1474 -0.2380 -0.2180
 2381TIP3    H1 7107   1.524   1.914   4.512 -0.5834 -0.4981 -0.0131
 2381TIP3    H2 7108   1.570   1.966   4.646  0.8520  0.4144 -0.8381
 2382TIP3   OH2 7109   4.009   2.962   3.384  0.0485  0.2751 -0.2181
 2382TIP3    H1 7110   4.049   2.875   3.381  1.6177  0.9890 -0.2174
 2382TIP3    H2 7111   3.942   2.959   3.315  0.0416 -0.9439 -0.1747
 2383TIP3   OH2 7112   3.101   3.627   4.824  0.1728  0.0295 -0.0735
 2383TIP3    H1 7113   3.007   3.626   4.806  0.3687  0.1574 -1.1387
 2383TIP3    H2 7114   3.110   3.576   4.904 -1.1808  2.7676  1.9442
 2384TIP3   OH2 7115   4.511   0.923   3.316 -0.3258 -0.2221 -0.1742
 2384TIP3    H1 7116   4.462   0.959   3.390 -0.3129  1.1620 -0.8224
 2384TIP3    H2 7117   4.554   0.845   3.351 -1.0119 -0.0653  1.0435
 2385TIP3   OH2 7118   3.772   1.156   2.058  1.0332 -0.1091  0.9895
 2385TIP3    H1 7119   3.767   1.209   1.978 -0.7282 -0.8593  0.5817
 2385TIP3    H2 7120   3.835   1.087   2.038 -2.0536 -2.4570 -1.0992
 2386TIP3   OH2 7121   5.332   3.982   2.015  0.4865 -0.2842 -0.4486
 2386TIP3    H1 7122   5.301   3.919   2.080 -0.1398 -1.1970 -1.6239
 2386TIP3    H2 7123   5.397   4.035   2.062  0.1138 -0.9969  0.8872
 2387TIP3   OH2 7124   3.783   4.174   2.838 -0.2377 -0.3648 -0.2422
 2387TIP3    H1 7125   3.841   4.130   2.900  0.5441 -1.2045 -1.5414
 2387TIP3    H2 7126   3.714   4.213   2.892  0.9437 -0.2854  1.2167
 2388TIP3   OH2 7127   2.476   2.931   3.512  0.5456 -0.1891 -0.3498
 2388TIP3    H1 7128   2.396   2.931   3.565  0.5718 -0.9825 -0.3062
 2388TIP3    H2 7129   2.542   2.972   3.567  0.1715  0.4411 -0.3736
 2389TIP3   OH2 7130   6.899   4.976   5.781 -0.2948  0.1799 -0.1427
 2389TIP3    H1 7131   6.979   4.923   5.780 -0.8279 -0.6820  1.2345
 2389TIP3    H2 7132   6.828   4.912   5.769 -0.8983  0.6682  0.7812
 2390TIP3   OH2 7133   1.804   2.039   0.737  0.2437 -0.1060 -0.0794
 2390TIP3    H1 7134   1.787   1.950   0.705  2.4562 -1.0641  1.3403
 2390TIP3    H2 7135   1.784   2.036   0.830 -1.2598  1.3493 -0.3251
 2391TIP3   OH2 7136   4.653   0.163   2.061 -0.4769 -0.3934 -0.1336
 2391TIP3    H1 7137   4.719   0.098   2.083  0.0942  0.3183  0.2864
 2391TIP3    H2 7138   4.696   0.221   1.999 -0.5654  0.3276  0.4710
 2392TIP3   OH2 7139   6.482   2.284   4.961 -0.0578  0.1132  0.5518
 2392TIP3    H1 7140   6.526   2.222   5.020  0.3367  1.6773  1.9377
 2392TIP3    H2 7141   6.536   2.363   4.964 -1.1776  0.9303 -0.3015
 2393TIP3   OH2 7142   3.724   2.283   3.685 -0.1596  0.2365 -0.1912
 2393TIP3    H1 7143   3.699   2.206   3.634  1.5701 -0.2876 -0.2951
 2393TIP3    H2 7144   3.738   2.249   3.773  1.9235  0.1431 -0.5254
 2394TIP3   OH2 7145   5.040   2.741   3.094  0.6700 -0.1513 -0.3007
 2394TIP3    H1 7146   5.008   2.830   3.105  0.7893  0.0241 -1.3151
 2394TIP3    H2 7147   5.134   2.751   3.082  0.4668 -0.2492 -2.1610
 2395TIP3   OH2 7148   4.709   1.917   1.160  0.1856  0.1245  0.2806
 2395TIP3    H1 7149   4.736   2.007   1.144 -0.4218  0.1694 -0.5348
 2395TIP3    H2 7150   4.741   1.869   1.083  0.4870 -0.3531  0.6995
 2396TIP3   OH2 7151   2.972   0.458   1.686 -0.0616 -0.0661  0.2063
 2396TIP3    H1 7152   3.044   0.483   1.629 -0.3776  0.4954  0.0459
 2396TIP3    H2 7153   3.012   0.445   1.771  0.0711  1.2742  0.3583
 2397TIP3   OH2 7154   3.334   0.938   4.131  0.0290 -0.8517 -0.2692
 2397TIP3    H1 7155   3.358   0.860   4.081  0.2860 -1.1400  0.2906
 2397TIP3    H2 7156   3.268   0.906   4.194  0.2700 -0.6547  0.0829
 2398TIP3   OH2 7157   2.950   2.367   3.649 -0.1719  0.2437  0.4441
 2398TIP3    H1 7158   3.043   2.379   3.629 -0.5078  1.4631 -0.3872
 2398TIP3    H2 7159   2.945   2.278   3.686  1.0232 -0.5897 -1.3398
 2399TIP3   OH2 7160   0.663   0.826   5.164  0.4285 -0.4871 -0.1106
 2399TIP3    H1 7161   0.709   0.896   5.210  0.8999 -0.6160 -0.3802
 2399TIP3    H2 7162   0.576   0.823   5.205  0.2943  0.4638 -0.3124
 2400TIP3   OH2 7163   3.140   0.172   5.421  0.1226 -0.1482 -0.4757
 2400TIP3    H1 7164   3.160   0.263   5.445 -0.4783 -0.4611  1.3135
 2400TIP3    H2 7165   3.086   0.179   5.342  0.3245  1.0409 -0.5128
 2401TIP3   OH2 7166   4.033   2.615   3.638  0.4893 -0.0751 -0.2659
 2401TIP3    H1 7167   4.070   2.576   3.559  0.8379  1.9540 -1.1536
 2401TIP3    H2 7168   3.945   2.578   3.645  0.7389 -0.8443 -1.1863
 2402TIP3   OH2 7169   1.125   3.908   4.417  0.6338 -0.2414 -0.3710
 2402TIP3    H1 7170   1.109   3.817   4.442  0.1002 -0.2496 -0.7333
 2402TIP3    H2 7171   1.103   3.912   4.324  2.0592 -0.0731 -0.7118
 2403TIP3   OH2 7172   0.356   0.705   2.039 -0.0226  0.0778 -0.3338
 2403TIP3    H1 7173   0.449   0.710   2.059 -0.2074  3.8047 -0.0979
 2403TIP3    H2 7174   0.319   0.787   2.072 -3.5348 -1.5834  0.1571
 2404TIP3   OH2 7175   4.520   2.722   4.888 -0.2941 -0.6101  0.7541
 2404TIP3    H1 7176   4.486   2.771   4.813 -0.8960 -0.5402  1.0631
 2404TIP3    H2 7177   4.597   2.772   4.916  0.5012 -1.1725 -0.4067
 2405TIP3   OH2 7178   5.089   2.194   2.422  0.6053 -1.1458 -0.1778
 2405TIP3    H1 7179   5.172   2.166   2.460  0.6492  0.2677  0.7869
 2405TIP3    H2 7180   5.023   2.156   2.479  0.6251 -0.6542  0.1673
 2406TIP3   OH2 7181   1.994   2.851   2.342  0.0691  0.6440 -0.5592
 2406TIP3    H1 7182   2.074   2.855   2.290  0.1449 -0.4906 -0.5242
 2406TIP3    H2 7183   2.021   2.814   2.426 -0.7748 -1.2935 -1.1060
 2407TIP3   OH2 7184   4.252   2.389   3.148  0.0346  0.4937  0.3329
 2407TIP3    H1 7185   4.343   2.367   3.168  0.1604  0.2167 -0.5030
 2407TIP3    H2 7186   4.217   2.310   3.105 -0.4968  0.7201  0.3432
 2408TIP3   OH2 7187   6.789   1.161   3.475 -0.4039 -0.1468 -0.2089
 2408TIP3    H1 7188   6.746   1.078   3.452  1.3972 -0.9709 -0.6706
 2408TIP3    H2 7189   6.725   1.206   3.530 -2.0100 -1.1932 -1.1590
 2409TIP3   OH2 7190   3.275   6.526   1.610 -0.4560 -0.7002  0.5071
 2409TIP3    H1 7191   3.318   6.442   1.628 -0.2866 -1.0969 -1.6913
 2409TIP3    H2 7192   3.186   6.503   1.583  0.0884 -0.3039 -1.7316
 2410TIP3   OH2 7193   2.673   3.199   2.996 -0.2424 -0.7835 -0.0732
 2410TIP3    H1 7194   2.639   3.197   2.907 -0.2071 -1.2718 -0.0747
 2410TIP3    H2 7195   2.726   3.279   2.999  0.3222 -1.1315 -0.6963
 2411TIP3   OH2 7196   2.184   3.192   5.510 -0.6607 -0.9453  0.3881
 2411TIP3    H1 7197   2.255   3.235   5.558 -0.4802 -1.2541  0.3990
 2411TIP3    H2 7198   2.205   3.206   5.418 -0.2832 -1.5176  0.3826
 2412TIP3   OH2 7199   3.116   2.943   4.525 -0.0262  0.0418  0.1919
 2412TIP3    H1 7200   3.205   2.977   4.534 -0.0133  0.3375 -1.0202
 2412TIP3    H2 7201   3.091   2.920   4.615 -0.1739  3.5674  1.1492
 2413TIP3   OH2 7202   3.203   2.974   5.143 -0.3154 -0.4109  0.1902
 2413TIP3    H1 7203   3.213   2.891   5.097  1.1736 -0.8293  1.2776
 2413TIP3    H2 7204   3.201   3.040   5.073  0.7983 -1.1508 -0.5401
 2414TIP3   OH2 7205   1.310   2.185   4.130  0.1579 -0.0006  0.4709
 2414TIP3    H1 7206   1.401   2.159   4.114  0.3001  1.1333 -0.6295
 2414TIP3    H2 7207   1.291   2.154   4.219  1.8508  0.3927  0.9804
 2415TIP3   OH2 7208   3.105   4.443   5.224  0.1452 -0.5703  0.6059
 2415TIP3    H1 7209   3.197   4.417   5.231  0.0609 -1.1908 -0.5038
 2415TIP3    H2 7210   3.082   4.423   5.134 -0.4402  1.7046  0.2352
 2416TIP3   OH2 7211   1.623   2.445   4.194  0.8915 -0.6001  0.2010
 2416TIP3    H1 7212   1.654   2.354   4.198 -0.4111 -1.1301 -1.2839
 2416TIP3    H2 7213   1.688   2.490   4.140 -0.3469 -1.5228 -2.1853
 2417TIP3   OH2 7214   2.296   2.910   2.277  0.8502 -0.0708  0.0161
 2417TIP3    H1 7215   2.344   2.832   2.304  1.1483  0.7290  1.8194
 2417TIP3    H2 7216   2.317   2.976   2.343 -2.7719  0.2878  0.8799
 2418TIP3   OH2 7217   2.971   2.947   3.631  0.1125  0.0874 -0.2699
 2418TIP3    H1 7218   2.888   2.970   3.674  0.4026 -0.8132  0.8217
 2418TIP3    H2 7219   3.034   3.012   3.663 -0.0958  0.5619 -0.8253
 2419TIP3   OH2 7220   1.392   2.230   1.966  0.0896  0.2444  0.6281
 2419TIP3    H1 7221   1.423   2.255   1.879  0.4836 -0.4021  0.5796
 2419TIP3    H2 7222   1.460   2.262   2.026  0.0944  0.1923  0.6503
 2420TIP3   OH2 7223   0.104   4.326   3.326  0.1260  0.3074  0.6478
 2420TIP3    H1 7224   0.069   4.243   3.292  0.6674  0.2780  0.1533
 2420TIP3    H2 7225   0.055   4.341   3.406  0.2468 -0.6664  0.9191
 2421TIP3   OH2 7226   0.474   3.151   0.673 -0.4200 -0.1550  0.4187
 2421TIP3    H1 7227   0.553   3.097   0.678  0.3133  0.8117 -0.3533
 2421TIP3    H2 7228   0.470   3.196   0.757  0.3292  0.4207  0.1554
 2422TIP3   OH2 7229   1.007   1.266   2.962 -0.0563 -0.0843 -0.0355
 2422TIP3    H1 7230   1.072   1.197   2.951 -0.1200  0.1381 -1.9820
 2422TIP3    H2 7231   0.961   1.243   3.042  3.1886  0.3951  2.0766
 2423TIP3   OH2 7232   2.783   0.412   1.139  0.5609  0.0305  0.2434
 2423TIP3    H1 7233   2.705   0.358   1.145  0.1293  0.2349 -2.9035
 2423TIP3    H2 7234   2.848   0.368   1.195 -0.9137 -1.6503  0.6484
 2424TIP3   OH2 7235   1.990   1.839   3.956  0.3369  0.4991 -0.1823
 2424TIP3    H1 7236   2.025   1.928   3.962 -0.1412  0.6550  0.3892
 2424TIP3    H2 7237   1.902   1.850   3.921  0.0381  0.3157  0.4920
 2425TIP3   OH2 7238   1.964   1.687   3.296 -0.5510  0.5791 -0.4654
 2425TIP3    H1 7239   2.023   1.696   3.370 -0.1411  1.8389 -0.9337
 2425TIP3    H2 7240   2.011   1.724   3.222 -0.8254 -0.9612 -1.4503
 2426TIP3   OH2 7241   7.241   0.054   1.325  0.1368 -0.1779 -0.8924
 2426TIP3    H1 7242   7.160   0.040   1.276 -0.0541 -0.4689 -0.4961
 2426TIP3    H2 7243   7.236  -0.006   1.399  0.5707  0.0279 -0.6870
 2427TIP3   OH2 7244   1.861   0.920   2.847  0.4306 -0.3206 -0.1149
 2427TIP3    H1 7245   1.912   0.986   2.895  1.2654 -0.4045 -0.8906
 2427TIP3    H2 7246   1.924   0.877   2.790 -0.4848 -0.5086 -0.9974
 2428TIP3   OH2 7247   3.985   0.921   3.733 -0.4842  0.5773  0.1245
 2428TIP3    H1 7248   3.922   0.925   3.805 -1.2890  2.4476 -0.6484
 2428TIP3    H2 7249   4.037   1.001   3.742 -0.4034  0.6817 -1.1821
 2429TIP3   OH2 7250   3.134   0.352   3.737  0.2262  0.1122  0.0963
 2429TIP3    H1 7251   3.162   0.338   3.646  0.1975 -1.7079  0.3437
 2429TIP3    H2 7252   3.161   0.442   3.757 -1.7989  1.3590 -2.4453
 2430TIP3   OH2 7253   1.759   3.887   3.564  0.0903  0.2764  0.0872
 2430TIP3    H1 7254   1.782   3.932   3.483  1.3284  0.4166  0.5167
 2430TIP3    H2 7255   1.793   3.798   3.553 -0.7748 -0.0504 -0.0209
 2431TIP3   OH2 7256   2.239   0.865   3.340 -0.4850 -0.8169  0.1403
 2431TIP3    H1 7257   2.281   0.911   3.413  1.6164  1.5771 -2.4367
 2431TIP3    H2 7258   2.311   0.843   3.281 -2.2787 -1.4546 -1.8849
 2432TIP3   OH2 7259   2.115   2.662   0.088  0.4127 -0.9505  0.7732
 2432TIP3    H1 7260   2.138   2.723   0.157 -0.5508  1.1553 -0.7209
 2432TIP3    H2 7261   2.020   2.656   0.091  0.4372 -1.6934  0.3287
 2433TIP3   OH2 7262   2.692   3.949   3.472  0.1325 -0.5312  0.4562
 2433TIP3    H1 7263   2.712   3.992   3.556 -0.4090  0.4838  0.0779
 2433TIP3    H2 7264   2.655   3.865   3.496 -2.4402  0.8048  1.3074
 2434TIP3   OH2 7265   0.968   1.821   5.957  0.2182 -0.3961 -0.3863
 2434TIP3    H1 7266   0.967   1.775   6.041  1.0828  0.5748  0.1590
 2434TIP3    H2 7267   0.905   1.891   5.967  0.2052 -0.3764 -0.6049
 2435TIP3   OH2 7268   2.281   2.138   4.663  0.0427  0.3174  0.4945
 2435TIP3    H1 7269   2.300   2.084   4.587  1.8160 -1.3396  2.0384
 2435TIP3    H2 7270   2.320   2.223   4.642 -1.3350  0.5331 -1.2881
 2436TIP3   OH2 7271   1.224   2.466   2.968  0.2768  0.3648 -0.2745
 2436TIP3    H1 7272   1.217   2.525   3.043  0.4285 -0.8021  0.6774
 2436TIP3    H2 7273   1.304   2.493   2.924  0.2383  1.0016  0.0436
 2437TIP3   OH2 7274   0.946   0.827   3.920 -0.2406 -0.1847  0.0603
 2437TIP3    H1 7275   0.915   0.778   3.843 -1.1454  0.2739  0.1200
 2437TIP3    H2 7276   0.998   0.764   3.969  0.2097 -0.5302 -0.8452
 2438TIP3   OH2 7277   1.061   2.278   4.778 -0.1222 -0.4303  0.0194
 2438TIP3    H1 7278   1.064   2.271   4.683 -0.0950  1.1429 -0.1043
 2438TIP3    H2 7279   1.149   2.251   4.807 -0.4711 -1.9507 -0.3174
 2439TIP3   OH2 7280   4.725   2.138   4.866  0.2112 -0.2276  0.5798
 2439TIP3    H1 7281   4.684   2.056   4.838  0.6594 -0.6370  1.1003
 2439TIP3    H2 7282   4.694   2.150   4.956  0.3387  0.0435  0.5867
 2440TIP3   OH2 7283   3.937   3.248   3.425  0.3879 -0.5297  0.1938
 2440TIP3    H1 7284   3.926   3.284   3.513 -0.5048  1.7003 -0.7933
 2440TIP3    H2 7285   3.938   3.153   3.438  1.3589 -0.2097  2.7205
 2441TIP3   OH2 7286   1.720   6.911   1.300  0.6821  0.3493  0.5958
 2441TIP3    H1 7287   1.732   7.003   1.279 -2.5971  0.1557 -2.7530
 2441TIP3    H2 7288   1.757   6.864   1.224  0.2772 -1.0038  1.2167
 2442TIP3   OH2 7289   4.313   2.750   1.618 -0.0177 -0.0468  0.1553
 2442TIP3    H1 7290   4.398   2.787   1.641  0.6753 -1.5023 -0.0131
 2442TIP3    H2 7291   4.250   2.801   1.669  0.9033  1.3426 -0.0645
 2443TIP3   OH2 7292   1.708   2.378   2.810  0.0634  0.4810  0.0001
 2443TIP3    H1 7293   1.795   2.338   2.806 -0.1615 -0.3286  2.2688
 2443TIP3    H2 7294   1.656   2.327   2.748  0.8088 -0.0466 -0.2076
 2444TIP3   OH2 7295   2.904   2.959   3.295  0.2247 -0.7701  0.6515
 2444TIP3    H1 7296   2.895   2.968   3.200 -0.8742 -0.9702  0.7313
 2444TIP3    H2 7297   2.850   3.030   3.331  0.5801 -0.7387  1.1336
 2445TIP3   OH2 7298   3.864   1.752   3.740 -0.0794 -0.0123 -0.3709
 2445TIP3    H1 7299   3.805   1.812   3.695 -0.2273 -0.1373 -0.3439
 2445TIP3    H2 7300   3.807   1.684   3.775 -0.0464  0.5064  0.6850
 2446TIP3   OH2 7301   2.222   5.613   2.423  0.7689 -0.5234 -0.4511
 2446TIP3    H1 7302   2.290   5.546   2.431  0.0385 -1.2598 -0.3532
 2446TIP3    H2 7303   2.231   5.666   2.502  0.5158 -1.2957  0.1002
 2447TIP3   OH2 7304   4.158   1.942   2.933 -0.4411 -0.2606  0.4608
 2447TIP3    H1 7305   4.122   1.983   2.855 -1.2624  0.2827  1.1247
 2447TIP3    H2 7306   4.112   1.858   2.940 -1.0639  0.1231  0.9152
 2448TIP3   OH2 7307   5.184   1.186   1.496 -0.1583 -0.0108 -0.0802
 2448TIP3    H1 7308   5.175   1.248   1.568  0.3642 -0.6301  0.5297
 2448TIP3    H2 7309   5.109   1.128   1.503  0.4826 -0.7632  0.6557
 2449TIP3   OH2 7310   4.926   1.165   3.733  0.2667  0.7287 -0.4975
 2449TIP3    H1 7311   4.972   1.112   3.668  0.4641  0.8409 -0.4479
 2449TIP3    H2 7312   4.878   1.230   3.682  0.9983  1.2747 -0.4921
 2450TIP3   OH2 7313   1.627   6.547   2.714 -0.2082  0.0419  0.3855
 2450TIP3    H1 7314   1.697   6.550   2.648 -0.3130 -1.3583  0.2051
 2450TIP3    H2 7315   1.546   6.554   2.663 -0.3215 -1.8760  0.2771
 2451TIP3   OH2 7316   2.020   1.563   2.645 -0.1405 -0.3286  0.3012
 2451TIP3    H1 7317   2.008   1.582   2.738  2.8569  0.0121  0.6953
 2451TIP3    H2 7318   2.092   1.500   2.643  0.1338  0.0038 -1.7982
 2452TIP3   OH2 7319   4.574   1.713   1.314  0.4579  0.0838 -0.1932
 2452TIP3    H1 7320   4.496   1.762   1.288  0.6336  0.2516 -0.4054
 2452TIP3    H2 7321   4.647   1.772   1.298  0.5606  0.2455  0.8582
 2453TIP3   OH2 7322   0.829   2.572   1.940 -0.5214  0.1664 -0.6273
 2453TIP3    H1 7323   0.865   2.660   1.951 -0.9461  0.2429  0.1349
 2453TIP3    H2 7324   0.822   2.562   1.845  1.0549  0.3340 -0.7773
 2454TIP3   OH2 7325   6.887   2.312   2.919  0.1664 -0.1677 -0.8910
 2454TIP3    H1 7326   6.837   2.284   2.843 -0.1467  1.0477 -1.1387
 2454TIP3    H2 7327   6.821   2.348   2.979  0.3941 -1.2107  0.0111
 2455TIP3   OH2 7328   4.009   2.967   2.308 -0.6055 -0.5725  0.1570
 2455TIP3    H1 7329   4.030   2.899   2.372 -1.1147 -1.6560 -0.7931
 2455TIP3    H2 7330   4.065   2.947   2.233  0.3056  0.9455  0.4027
 2456TIP3   OH2 7331   3.331   3.511   2.822  0.0355  0.1236 -0.1226
 2456TIP3    H1 7332   3.296   3.457   2.893  0.1224  0.7580  0.4136
 2456TIP3    H2 7333   3.340   3.451   2.748  1.3075 -0.8887  0.8270
 2457TIP3   OH2 7334   4.141   1.868   0.037  0.3332  0.0578 -0.4558
 2457TIP3    H1 7335   4.045   1.859   0.036  0.4112 -0.7286 -1.6086
 2457TIP3    H2 7336   4.169   1.810   0.109  0.0759 -1.2290 -1.3732
 2458TIP3   OH2 7337   5.286   1.583   2.652  0.0592 -0.2316  0.0105
 2458TIP3    H1 7338   5.191   1.593   2.660  0.1876  0.1341  1.1202
 2458TIP3    H2 7339   5.323   1.654   2.704  0.9518 -0.9585  0.3830
 2459TIP3   OH2 7340   4.310   0.493   1.856 -0.1625  0.3723 -0.1602
 2459TIP3    H1 7341   4.394   0.516   1.817 -1.3714  0.1027 -3.0358
 2459TIP3    H2 7342   4.267   0.578   1.872 -0.1790  0.4403 -0.5775
 2460TIP3   OH2 7343   3.434   3.807   0.475  0.0109 -0.0820 -0.0353
 2460TIP3    H1 7344   3.506   3.790   0.537 -0.1654 -0.7851 -0.0119
 2460TIP3    H2 7345   3.377   3.869   0.521  0.0788 -0.3065  0.3605
 2461TIP3   OH2 7346   3.709   1.465   2.638 -0.0733  0.3407  0.4260
 2461TIP3    H1 7347   3.761   1.535   2.600  0.3251 -0.3347 -0.2923
 2461TIP3    H2 7348   3.629   1.462   2.584 -0.7482  1.2065  1.3661
 2462TIP3   OH2 7349   4.423   3.909   2.179  0.6744  0.0498  0.3930
 2462TIP3    H1 7350   4.379   3.882   2.260  1.5229 -0.3286  0.7273
 2462TIP3    H2 7351   4.469   3.831   2.150 -0.0492  0.0314 -0.7447
 2463TIP3   OH2 7352   3.916   3.232   2.297  0.3089  0.0554 -0.3526
 2463TIP3    H1 7353   4.004   3.262   2.319  0.5079 -0.0623 -0.9768
 2463TIP3    H2 7354   3.930   3.152   2.246 -0.0357  1.4401 -2.7337
 2464TIP3   OH2 7355   3.594   2.070   3.913  0.4798  0.2501  0.2018
 2464TIP3    H1 7356   3.612   1.995   3.970 -0.9765  0.6350  1.1844
 2464TIP3    H2 7357   3.503   2.094   3.933  0.3485  1.1370 -1.4192
 2465TIP3   OH2 7358   0.948   6.944   5.733 -0.2680 -0.7376  0.0451
 2465TIP3    H1 7359   0.863   6.950   5.690 -0.4279  1.0267  0.5516
 2465TIP3    H2 7360   0.952   7.023   5.788  1.3012 -1.2775  0.7279
 2466TIP3   OH2 7361   3.985   1.475   2.023  0.2734  0.5610 -0.0199
 2466TIP3    H1 7362   3.909   1.434   1.982  0.3655  0.0965  0.2764
 2466TIP3    H2 7363   4.035   1.403   2.060  0.7462  0.8856 -0.0171
 2467TIP3   OH2 7364   4.630   2.170   0.339 -0.2076  0.3728  0.0731
 2467TIP3    H1 7365   4.694   2.115   0.294  2.2327  2.2326  1.1559
 2467TIP3    H2 7366   4.625   2.134   0.427 -0.8197  0.0959 -0.0751
 2468TIP3   OH2 7367   5.643   4.817   1.848 -0.4767  0.4394  0.6502
 2468TIP3    H1 7368   5.567   4.771   1.811  0.2818  0.5248 -1.0250
 2468TIP3    H2 7369   5.660   4.772   1.931 -0.8440 -1.1683 -0.1311
 2469TIP3   OH2 7370   3.171   3.267   1.188 -0.1910  0.8120  0.0870
 2469TIP3    H1 7371   3.165   3.214   1.268  0.5541 -1.4216 -1.3056
 2469TIP3    H2 7372   3.236   3.334   1.209 -0.1033  0.3339  1.4179
 2470TIP3   OH2 7373   5.196   3.656   3.689  0.3314 -0.3842 -0.2956
 2470TIP3    H1 7374   5.138   3.583   3.709 -0.9518  0.4569 -0.8555
 2470TIP3    H2 7375   5.215   3.696   3.774 -0.0579 -0.5626 -0.1249
 2471TIP3   OH2 7376   3.257   2.006   0.642  0.6350  0.4152  0.3752
 2471TIP3    H1 7377   3.166   1.991   0.668  0.1735  0.9397 -0.9287
 2471TIP3    H2 7378   3.305   1.931   0.679 -0.1631  0.6029  1.8482
 2472TIP3   OH2 7379   6.135   1.838   3.148  0.0482  0.4931  0.9085
 2472TIP3    H1 7380   6.048   1.840   3.188 -0.4100 -0.1605 -0.0285
 2472TIP3    H2 7381   6.179   1.916   3.182 -1.4542  1.6844  0.1936
 2473TIP3   OH2 7382   4.482   1.978   1.543  0.4504 -0.5462 -0.2308
 2473TIP3    H1 7383   4.527   2.025   1.473 -1.6640  0.5849 -0.8550
 2473TIP3    H2 7384   4.448   2.047   1.600  0.1504 -1.4046  0.6312
 2474TIP3   OH2 7385   1.553   6.927   1.910 -0.2359  0.0104 -0.0479
 2474TIP3    H1 7386   1.512   6.991   1.852 -0.2426  0.8654  0.8928
 2474TIP3    H2 7387   1.631   6.971   1.943  0.2587 -0.8083 -0.1050
 2475TIP3   OH2 7388   5.331   2.141   3.246  0.0929 -0.4458 -0.0260
 2475TIP3    H1 7389   5.385   2.073   3.286  0.0538 -0.3852  0.1295
 2475TIP3    H2 7390   5.241   2.109   3.254  0.1468 -0.8049 -0.7823
 2476TIP3   OH2 7391   5.765   4.066   1.616  0.0735  0.6553 -0.3755
 2476TIP3    H1 7392   5.675   4.089   1.592  0.7901  2.9084 -0.9239
 2476TIP3    H2 7393   5.797   4.142   1.665  1.1270 -0.8339  1.3136
 2477TIP3   OH2 7394   4.165   2.125   4.953  0.1974 -0.4382 -0.9774
 2477TIP3    H1 7395   4.257   2.117   4.927  0.1699 -1.1805 -0.8351
 2477TIP3    H2 7396   4.116   2.114   4.871  0.0989 -3.0084 -0.6101
 2478TIP3   OH2 7397   2.990   2.753   1.987  0.1609  0.1363 -0.4785
 2478TIP3    H1 7398   2.984   2.821   2.054 -0.6755 -0.4958  0.0831
 2478TIP3    H2 7399   3.005   2.672   2.036 -1.5368 -0.4968 -0.9810
 2479TIP3   OH2 7400   2.072   1.853   3.056  0.6379 -0.5912 -1.2365
 2479TIP3    H1 7401   2.154   1.892   3.084  0.3063  0.9924 -2.3575
 2479TIP3    H2 7402   2.011   1.927   3.051 -0.7599 -1.6971 -0.7174
 2480TIP3   OH2 7403   3.737   1.609   2.070  0.2084 -0.6842 -0.6813
 2480TIP3    H1 7404   3.687   1.627   1.990  0.8726  1.0780 -0.7244
 2480TIP3    H2 7405   3.813   1.558   2.040 -1.3617 -3.0939 -0.6570
 2481TIP3   OH2 7406   4.891   3.814   1.697 -0.4666 -0.4356 -0.6331
 2481TIP3    H1 7407   4.955   3.760   1.651 -0.7474 -0.4324 -1.0355
 2481TIP3    H2 7408   4.934   3.839   1.779  0.7828  1.1594 -1.7341
 2482TIP3   OH2 7409   2.216   2.741   2.922  0.3212  0.6522  0.6564
 2482TIP3    H1 7410   2.288   2.785   2.877  0.7859 -0.7083  0.0273
 2482TIP3    H2 7411   2.240   2.648   2.921 -1.7735  0.0898 -0.1891
 2483TIP3   OH2 7412   4.419   0.987   2.747 -0.0496 -0.2022 -0.4257
 2483TIP3    H1 7413   4.468   0.946   2.818 -1.0444 -1.9581 -0.7263
 2483TIP3    H2 7414   4.347   1.033   2.790 -0.7173 -1.3594 -0.3056
 2484TIP3   OH2 7415   5.717   2.749   0.662 -0.0744 -0.2181 -0.0963
 2484TIP3    H1 7416   5.730   2.703   0.746  2.6693 -0.5638 -0.6578
 2484TIP3    H2 7417   5.756   2.835   0.676  0.2362 -0.2195 -0.9585
 2485TIP3   OH2 7418   4.226   1.350   3.032 -0.1496  0.1355  0.6195
 2485TIP3    H1 7419   4.299   1.335   3.092  1.3421  1.1110 -0.8977
 2485TIP3    H2 7420   4.261   1.412   2.968 -2.4143  0.8323  0.0365
 2486TIP3   OH2 7421   1.716   2.328   0.653 -0.0630 -0.1283  0.4673
 2486TIP3    H1 7422   1.755   2.399   0.602 -1.4451  0.5680  0.3552
 2486TIP3    H2 7423   1.790   2.290   0.701  0.7382  1.2327  0.3538
 2487TIP3   OH2 7424   5.832   4.192   4.723 -0.0525 -0.3769  0.1850
 2487TIP3    H1 7425   5.855   4.283   4.707 -1.9525 -0.0714 -0.9150
 2487TIP3    H2 7426   5.885   4.143   4.660  1.7521 -0.1656  1.4702
 2488TIP3   OH2 7427   3.062   1.960   3.894  0.3408 -0.3091  0.1347
 2488TIP3    H1 7428   3.029   2.033   3.843  0.0476  0.3034  1.1814
 2488TIP3    H2 7429   2.987   1.932   3.947  0.5752 -1.0741  0.0725
 2489TIP3   OH2 7430   3.212   2.324   1.784 -0.0586  0.3374 -0.5577
 2489TIP3    H1 7431   3.170   2.403   1.749  0.8978 -0.0194 -2.5680
 2489TIP3    H2 7432   3.294   2.355   1.822 -0.1978  0.4622 -0.3596
 2490TIP3   OH2 7433   5.465   4.201   2.129 -0.3440 -0.6305 -0.2818
 2490TIP3    H1 7434   5.512   4.270   2.083 -0.4738 -0.4055 -0.0798
 2490TIP3    H2 7435   5.442   4.240   2.214 -0.3093 -0.9619 -0.1187
 2491TIP3   OH2 7436   4.479   1.592   2.222 -0.1863  0.3515 -0.3219
 2491TIP3    H1 7437   4.415   1.662   2.237 -0.3016  0.2619 -0.3876
 2491TIP3    H2 7438   4.502   1.601   2.129  0.4266  0.8233 -0.1230
 2492TIP3   OH2 7439   4.807   3.246   3.038 -0.5223 -0.1897 -0.1175
 2492TIP3    H1 7440   4.711   3.248   3.040 -0.5068 -0.1975  1.3728
 2492TIP3    H2 7441   4.831   3.172   3.094  0.3478 -0.2423 -0.5563
 2493TIP3   OH2 7442   3.998   1.505   3.425 -0.0264  0.4006 -0.6689
 2493TIP3    H1 7443   3.916   1.464   3.452  0.9942 -0.5186  1.1749
 2493TIP3    H2 7444   4.009   1.478   3.333 -1.8132  0.6236 -0.9714
 2494TIP3   OH2 7445   1.947   2.140   3.924 -0.9510 -0.2626 -0.8556
 2494TIP3    H1 7446   1.987   2.211   3.974 -3.0812  0.1748  0.3052
 2494TIP3    H2 7447   1.950   2.168   3.833 -2.4292  1.6662 -0.3323
 2495TIP3   OH2 7448   6.334   0.450   2.518  0.1106 -0.1885  0.5611
 2495TIP3    H1 7449   6.244   0.420   2.504 -0.6582  1.6849  1.3150
 2495TIP3    H2 7450   6.338   0.534   2.473  1.2674  0.0820  1.1603
 2496TIP3   OH2 7451   5.261   2.683   5.929  0.1362  0.0385 -0.5399
 2496TIP3    H1 7452   5.345   2.696   5.974 -0.2580 -0.6801  0.4285
 2496TIP3    H2 7453   5.224   2.605   5.970 -1.7181  1.2267  0.1352
 2497TIP3   OH2 7454   4.658   1.244   1.763 -0.4061  0.5636  0.1556
 2497TIP3    H1 7455   4.614   1.239   1.848 -1.1221  1.0210 -0.1799
 2497TIP3    H2 7456   4.730   1.305   1.776  0.4737 -0.5956  0.8515
 2498TIP3   OH2 7457   5.201   3.276   1.029 -0.4446  0.6253 -0.2630
 2498TIP3    H1 7458   5.120   3.230   1.006 -0.3271  0.0264  0.4869
 2498TIP3    H2 7459   5.184   3.367   1.007 -1.6963  0.6683  0.7863
 2499TIP3   OH2 7460   3.294   2.065   2.246  0.0923  0.0761 -0.0024
 2499TIP3    H1 7461   3.259   2.153   2.235 -0.3368 -0.1840 -0.7333
 2499TIP3    H2 7462   3.337   2.045   2.163  0.3099 -0.3567  0.2100
 2500TIP3   OH2 7463   6.271   2.978   2.156  0.3673  0.3388 -0.0503
 2500TIP3    H1 7464   6.187   2.995   2.113  0.7800  0.3013 -0.8864
 2500TIP3    H2 7465   6.337   3.010   2.094  0.9684  0.6754  0.7375
 2501TIP3   OH2 7466   6.698   1.381   1.576  0.1818 -0.5790  0.2834
 2501TIP3    H1 7467   6.665   1.452   1.522  0.5044  0.4915  1.4692
 2501TIP3    H2 7468   6.651   1.303   1.545 -2.5098  0.6696  1.0884
 2502TIP3   OH2 7469   4.071   2.194   3.021  0.1502  0.2855  0.1083
 2502TIP3    H1 7470   3.982   2.159   3.030  0.3914 -0.2988  0.2196
 2502TIP3    H2 7471   4.128   2.117   3.022  0.6553  0.6531 -0.0286
 2503TIP3   OH2 7472   4.766   1.411   5.109 -0.1750 -0.1935 -0.0224
 2503TIP3    H1 7473   4.765   1.439   5.018  0.0623 -1.5513 -0.4570
 2503TIP3    H2 7474   4.740   1.488   5.159 -1.2682  0.2847 -1.3083
 2504TIP3   OH2 7475   3.832   4.629   1.515 -0.0664 -0.4026  0.6212
 2504TIP3    H1 7476   3.779   4.550   1.514 -0.8307  0.1077  0.4559
 2504TIP3    H2 7477   3.833   4.656   1.607 -0.2915 -0.2844  0.5902
 2505TIP3   OH2 7478   5.565   4.063   2.741  0.3840 -0.0684  0.3642
 2505TIP3    H1 7479   5.576   3.976   2.704 -1.3646  0.7783 -2.3305
 2505TIP3    H2 7480   5.494   4.054   2.804 -1.6125 -0.1200 -1.8202
 2506TIP3   OH2 7481   7.009   1.955   1.756  0.0179 -0.2357 -0.1623
 2506TIP3    H1 7482   7.030   1.867   1.787 -0.0921  0.2442  1.3227
 2506TIP3    H2 7483   6.914   1.962   1.768  0.0829  0.2255  0.0919
 2507TIP3   OH2 7484   3.583   1.988   1.673  0.0751 -0.1313  0.6098
 2507TIP3    H1 7485   3.493   1.984   1.706  0.2128 -2.2717  0.7976
 2507TIP3    H2 7486   3.584   2.066   1.618 -1.6393  0.4483  1.3315
 2508TIP3   OH2 7487   1.065   0.825   4.546  0.0044 -0.1293  0.2749
 2508TIP3    H1 7488   1.095   0.883   4.476  2.1913 -2.9232 -1.1914
 2508TIP3    H2 7489   1.119   0.849   4.622  0.0403  0.5913  0.0218
 2509TIP3   OH2 7490   4.922   2.774   3.475  0.5105  0.1894 -0.5671
 2509TIP3    H1 7491   4.935   2.729   3.392  1.0543  2.2997 -1.6666
 2509TIP3    H2 7492   5.010   2.802   3.500  0.7372 -2.6095  2.0313
 2510TIP3   OH2 7493   4.573   2.455   4.176  0.3293 -0.0253  0.4010
 2510TIP3    H1 7494   4.607   2.512   4.246 -0.0097 -1.0716  1.4384
 2510TIP3    H2 7495   4.491   2.421   4.211  1.7272 -3.0851  0.8262
 2511TIP3   OH2 7496   4.000   2.335   0.801  0.2023 -0.1116 -0.3454
 2511TIP3    H1 7497   4.054   2.257   0.792  0.9857  0.4500 -0.5430
 2511TIP3    H2 7498   3.933   2.328   0.733 -0.3683 -1.1210  0.3083
 2512TIP3   OH2 7499   5.200   3.232   3.176 -0.2746  0.1334  0.3259
 2512TIP3    H1 7500   5.247   3.163   3.223 -0.2434 -0.4783 -0.5847
 2512TIP3    H2 7501   5.171   3.293   3.245  2.0658  0.6712  0.8658
 2513TIP3   OH2 7502   1.316   0.128   0.146  0.2693 -0.1693 -0.4251
 2513TIP3    H1 7503   1.249   0.159   0.085 -0.6460 -0.2883  0.5074
 2513TIP3    H2 7504   1.338   0.204   0.199 -1.2912 -0.8661  1.2375
 2514TIP3   OH2 7505   2.002   4.710   2.268 -0.3586 -0.1133 -0.5780
 2514TIP3    H1 7506   1.921   4.687   2.313 -0.3708  2.3297  0.7316
 2514TIP3    H2 7507   1.974   4.772   2.200  0.2183 -0.4674 -1.1378
 2515TIP3   OH2 7508   4.182   2.271   2.486  0.0203  0.8218  0.0330
 2515TIP3    H1 7509   4.273   2.276   2.457 -0.3325 -0.0233 -1.2998
 2515TIP3    H2 7510   4.143   2.202   2.431 -1.2745  0.7888  0.9676
 2516TIP3   OH2 7511   2.744   3.555   2.251 -0.8045 -0.0504  0.2327
 2516TIP3    H1 7512   2.819   3.519   2.299 -1.0574 -0.6778  0.1646
 2516TIP3    H2 7513   2.779   3.631   2.204 -0.4045  0.1611  0.8736
 2517TIP3   OH2 7514   4.840   1.953   0.224 -0.1358  0.1190 -0.3509
 2517TIP3    H1 7515   4.810   1.897   0.152  0.0873  0.0501 -0.3878
 2517TIP3    H2 7516   4.854   1.893   0.297 -0.0463  0.1489 -0.3443
 2518TIP3   OH2 7517   3.245   1.798   2.392 -0.0774  0.6565  0.0480
 2518TIP3    H1 7518   3.157   1.787   2.356 -0.7769  1.2316  1.5013
 2518TIP3    H2 7519   3.283   1.710   2.391 -0.7065  0.3861 -0.5049
 2519TIP3   OH2 7520   5.095   1.354   1.968 -0.1006 -0.6906  0.5723
 2519TIP3    H1 7521   5.167   1.327   1.911  0.5973  1.3504  0.4602
 2519TIP3    H2 7522   5.043   1.414   1.914 -0.0987  0.3371  1.6951
 2520TIP3   OH2 7523   4.508   1.765   0.493  0.3637 -0.5465 -0.0983
 2520TIP3    H1 7524   4.551   1.750   0.409 -0.4258  2.7113 -1.1694
 2520TIP3    H2 7525   4.435   1.704   0.494 -0.1768  0.0226 -2.2245
 2521TIP3   OH2 7526   6.055   2.334   4.860  0.4797 -0.5208 -0.5001
 2521TIP3    H1 7527   6.045   2.388   4.782 -2.1908  1.2823  0.9917
 2521TIP3    H2 7528   6.114   2.384   4.917  1.5211 -1.2970 -0.8791
 2522TIP3   OH2 7529   7.374   3.374   5.803  0.3511 -0.5414  0.0331
 2522TIP3    H1 7530   7.291   3.329   5.818  0.6376 -0.7257  1.1135
 2522TIP3    H2 7531   7.399   3.349   5.714 -0.9897 -0.0840 -0.4721
 2523TIP3   OH2 7532   4.474   3.513   0.812  0.1627  0.3554 -0.5752
 2523TIP3    H1 7533   4.436   3.470   0.735  0.2321 -0.0181 -0.4041
 2523TIP3    H2 7534   4.469   3.447   0.881  0.8377  0.4036 -0.4704
 2524TIP3   OH2 7535   5.747   3.047   1.806 -0.4483  0.0132  0.2211
 2524TIP3    H1 7536   5.666   3.036   1.856  0.0316 -1.1485  0.7499
 2524TIP3    H2 7537   5.789   2.961   1.809  1.5853  1.0188  1.3115
 2525TIP3   OH2 7538   3.385   1.103   1.959 -0.1129  0.0120  0.3991
 2525TIP3    H1 7539   3.352   1.080   2.046  0.1223 -1.4328  0.1197
 2525TIP3    H2 7540   3.415   1.193   1.968  0.8997 -0.4701  2.1037
 2526TIP3   OH2 7541   4.849   0.227   1.299  0.4771  0.1912 -0.1866
 2526TIP3    H1 7542   4.896   0.172   1.236  1.5507  0.1637  0.6266
 2526TIP3    H2 7543   4.896   0.311   1.298 -0.4776  0.7170 -0.6054
 2527TIP3   OH2 7544   3.730   1.838   4.355 -0.5633 -0.2273 -0.8800
 2527TIP3    H1 7545   3.822   1.833   4.381 -0.6026  1.5618 -0.3305
 2527TIP3    H2 7546   3.732   1.843   4.260 -0.0658  0.5703 -0.8248
 2528TIP3   OH2 7547   5.720   3.559   3.807 -0.4082  0.0878  0.6653
 2528TIP3    H1 7548   5.689   3.649   3.793  0.1552  0.0949 -0.6669
 2528TIP3    H2 7549   5.643   3.505   3.789 -0.5971  0.2677  0.9129
 2529TIP3   OH2 7550   2.184   2.218   3.151 -0.0370  0.0625  0.1607
 2529TIP3    H1 7551   2.254   2.234   3.214  0.6249  1.4338 -0.8918
 2529TIP3    H2 7552   2.110   2.270   3.183 -0.2922 -0.6713  0.7785
 2530TIP3   OH2 7553   7.192   5.042   5.954 -0.3677  0.3894  0.3418
 2530TIP3    H1 7554   7.240   5.082   5.882 -0.0244 -0.6731 -0.0352
 2530TIP3    H2 7555   7.212   4.949   5.947 -1.4561  0.0996  0.9635
 2531TIP3   OH2 7556   7.394   3.820   4.269 -0.5878  0.5256 -0.1288
 2531TIP3    H1 7557   7.393   3.892   4.206 -0.1925  1.4453  0.8985
 2531TIP3    H2 7558   7.359   3.745   4.221 -0.6225  1.3042 -1.3300
 2532TIP3   OH2 7559   5.385   3.218   3.972  0.5993  0.8224  0.2754
 2532TIP3    H1 7560   5.421   3.235   3.885  0.2804  1.4844  0.2736
 2532TIP3    H2 7561   5.362   3.125   3.971  0.7993  0.7791 -0.2688
 2533TIP3   OH2 7562   4.808   1.199   1.093 -0.2366  0.1888  0.3444
 2533TIP3    H1 7563   4.866   1.186   1.168  0.3412  1.3067  0.0935
 2533TIP3    H2 7564   4.788   1.292   1.093  0.1826  0.2919 -1.2020
 2534TIP3   OH2 7565   2.786   2.767   0.187 -0.4620 -0.3173 -0.5814
 2534TIP3    H1 7566   2.784   2.792   0.095 -1.0727 -0.1599 -0.5288
 2534TIP3    H2 7567   2.732   2.832   0.231  1.2249  0.6216  0.1513
 2535TIP3   OH2 7568   4.348   0.556   2.793  0.0306  0.1206  0.4313
 2535TIP3    H1 7569   4.310   0.525   2.875  0.3769  0.2409  0.6398
 2535TIP3    H2 7570   4.442   0.558   2.810  0.0281  1.0934  0.3654
 2536TIP3   OH2 7571   4.474   2.969   1.072 -0.3595  0.1920 -0.6000
 2536TIP3    H1 7572   4.416   2.917   1.129  0.1698  1.5354  1.2288
 2536TIP3    H2 7573   4.550   2.988   1.127 -1.6652  5.0553 -0.2652
 2537TIP3   OH2 7574   4.640   0.239   1.735  0.2681  0.1813 -0.0861
 2537TIP3    H1 7575   4.651   0.276   1.822 -0.0027  1.6439 -0.6545
 2537TIP3    H2 7576   4.656   0.312   1.675 -0.6224 -0.5348 -1.2370
 2538TIP3   OH2 7577   5.218   2.988   2.300 -0.4613 -0.0601 -0.3755
 2538TIP3    H1 7578   5.220   2.936   2.380 -0.1838  1.5500  0.6907
 2538TIP3    H2 7579   5.151   3.055   2.316 -0.6425  0.0663 -1.6101
 2539TIP3   OH2 7580   6.508   1.707   1.056  0.0627  0.1499 -0.1576
 2539TIP3    H1 7581   6.593   1.730   1.017 -1.4947  2.6463 -2.2445
 2539TIP3    H2 7582   6.480   1.630   1.007  0.2184  0.5061 -0.8135
 2540TIP3   OH2 7583   5.720   0.119   0.709  0.4080 -0.0633 -0.0105
 2540TIP3    H1 7584   5.761   0.091   0.791  0.2621  0.9208  0.4110
 2540TIP3    H2 7585   5.656   0.052   0.690  0.4806 -0.3305  0.6569
 2541TIP3   OH2 7586   5.508   1.829   5.689 -0.2459 -0.1578 -0.4447
 2541TIP3    H1 7587   5.557   1.767   5.743  3.2609  0.5526 -2.6073
 2541TIP3    H2 7588   5.448   1.775   5.638  0.0007 -1.3523  0.5064
 2542TIP3   OH2 7589   4.387   2.511   1.784 -0.3411 -0.2720 -0.0443
 2542TIP3    H1 7590   4.380   2.501   1.879 -0.5985 -0.1977 -0.0534
 2542TIP3    H2 7591   4.372   2.604   1.768  2.2206  0.1728  0.0481
 2543TIP3   OH2 7592   3.332   6.534   2.342  0.0157 -0.0817  0.2634
 2543TIP3    H1 7593   3.354   6.502   2.429 -0.8079 -1.4776 -0.0198
 2543TIP3    H2 7594   3.280   6.464   2.303 -0.5269  0.9748 -0.9627
 2544TIP3   OH2 7595   4.122   3.993   2.585 -0.4299 -0.2512 -0.0532
 2544TIP3    H1 7596   4.204   4.009   2.631 -1.2718 -0.1793  1.4774
 2544TIP3    H2 7597   4.076   4.077   2.587 -0.5954 -0.3186 -0.7983
 2545TIP3   OH2 7598   0.593   2.406   2.297  0.3381  0.2562 -0.0407
 2545TIP3    H1 7599   0.663   2.356   2.256 -0.1831 -0.3681 -0.1691
 2545TIP3    H2 7600   0.521   2.344   2.308 -0.5703  1.1314 -0.8501
 2546TIP3   OH2 7601   4.011   1.578   2.299 -0.5352  0.3975  0.8808
 2546TIP3    H1 7602   4.051   1.504   2.344 -0.9470  0.0189  0.6317
 2546TIP3    H2 7603   3.925   1.545   2.271 -1.2110  1.3468  1.8220
 2547TIP3   OH2 7604   3.737   2.838   0.285 -0.6287 -0.5550 -0.0367
 2547TIP3    H1 7605   3.719   2.874   0.372 -1.2857  2.0395 -1.1913
 2547TIP3    H2 7606   3.824   2.871   0.263 -0.7706 -0.5944 -0.6577
 2548TIP3   OH2 7607   4.712   1.578   2.879 -0.1939  0.1189  0.8262
 2548TIP3    H1 7608   4.713   1.664   2.837  1.6271  0.2939  1.1628
 2548TIP3    H2 7609   4.639   1.532   2.839  0.0363  1.1337 -0.7946
 2549TIP3   OH2 7610   4.009   1.613   2.612  0.0359  0.3114  0.2810
 2549TIP3    H1 7611   3.986   1.703   2.590 -1.4816 -0.1484 -0.0585
 2549TIP3    H2 7612   4.062   1.583   2.537  0.6978  0.9724  0.4811
 2550TIP3   OH2 7613   5.571   2.535   3.348 -0.1685 -0.4504 -0.1133
 2550TIP3    H1 7614   5.633   2.573   3.411  0.7590  0.5989 -1.6306
 2550TIP3    H2 7615   5.515   2.478   3.401 -0.4932  1.7221  1.9402
 2551TIP3   OH2 7616   5.243   3.633   3.428 -0.1914  0.8566  0.4621
 2551TIP3    H1 7617   5.321   3.581   3.407 -1.6652 -1.5927  0.9024
 2551TIP3    H2 7618   5.235   3.628   3.523 -3.7240 -3.3090  0.1171
 2552TIP3   OH2 7619   5.514   1.666   2.081 -0.1032  0.8144  0.6880
 2552TIP3    H1 7620   5.558   1.750   2.069  0.4541  0.5440  0.8431
 2552TIP3    H2 7621   5.442   1.668   2.017  1.9042  0.0204 -1.6490
 2553TIP3   OH2 7622   4.994   1.880   2.497  0.0966  0.2679  0.1872
 2553TIP3    H1 7623   4.992   1.954   2.557  3.1228 -1.2041  2.2318
 2553TIP3    H2 7624   5.038   1.913   2.419  2.5219  0.3700  1.5504
 2554TIP3   OH2 7625   4.957   0.931   2.864  0.0634 -0.2116  0.0901
 2554TIP3    H1 7626   4.939   0.892   2.779 -1.0064 -0.2264  0.3158
 2554TIP3    H2 7627   4.882   0.989   2.880 -0.8540 -1.8448  1.9836
 2555TIP3   OH2 7628   2.160   3.584   3.390  0.1806  0.1844 -0.4110
 2555TIP3    H1 7629   2.218   3.647   3.433  0.2010 -0.4949  0.5809
 2555TIP3    H2 7630   2.147   3.515   3.455 -0.5982 -0.3741 -1.1412
 2556TIP3   OH2 7631   2.537   2.794   3.285 -0.1449  0.3254  0.3380
 2556TIP3    H1 7632   2.450   2.815   3.253 -0.7618 -1.2069  0.9535
 2556TIP3    H2 7633   2.549   2.850   3.362 -0.2678  1.1092 -0.2186
 2557TIP3   OH2 7634   5.542   4.877   2.926  0.1894 -0.4685 -0.5666
 2557TIP3    H1 7635   5.586   4.911   2.849 -1.0822  1.2867 -0.5367
 2557TIP3    H2 7636   5.453   4.858   2.897  0.3130 -1.9143 -0.0714
 2558TIP3   OH2 7637   5.623   1.425   2.448 -0.4281 -0.1475  0.0152
 2558TIP3    H1 7638   5.598   1.370   2.374  1.0570  0.7700 -1.1931
 2558TIP3    H2 7639   5.557   1.494   2.449 -0.1762  0.1193 -0.7923
 2559TIP3   OH2 7640   5.431   2.357   2.101 -0.2591 -0.8724  0.1597
 2559TIP3    H1 7641   5.487   2.434   2.112 -2.1507  0.4733  0.7097
 2559TIP3    H2 7642   5.434   2.337   2.008  0.1311 -0.0466 -0.0051
 2560TIP3   OH2 7643   4.401   1.565   3.519  0.0252  0.3846 -0.5350
 2560TIP3    H1 7644   4.482   1.611   3.496  0.2683 -1.2468 -3.1851
 2560TIP3    H2 7645   4.331   1.622   3.490  0.3023  0.0135 -1.9843
 2561TIP3   OH2 7646   5.525   4.064   4.733  0.6749 -0.2448 -0.5036
 2561TIP3    H1 7647   5.512   4.030   4.645  0.2450  0.0112 -0.5389
 2561TIP3    H2 7648   5.574   3.996   4.778 -1.2510 -1.4666 -0.2029
 2562TIP3   OH2 7649   1.772   1.212   4.323  0.3841  0.0014 -0.1917
 2562TIP3    H1 7650   1.815   1.153   4.385 -0.5706 -0.1461  0.3364
 2562TIP3    H2 7651   1.740   1.285   4.377 -1.0109 -0.4368 -0.4029
 2563TIP3   OH2 7652   3.852   3.206   2.764  0.1749  0.1783  0.2128
 2563TIP3    H1 7653   3.796   3.283   2.754  1.3442  1.1233  0.7014
 2563TIP3    H2 7654   3.821   3.144   2.698 -0.9511  0.9709 -0.0163
 2564TIP3   OH2 7655   3.820   1.764   4.073 -0.7262 -0.5473  0.3527
 2564TIP3    H1 7656   3.912   1.788   4.059 -0.5463 -0.4092  1.6757
 2564TIP3    H2 7657   3.824   1.676   4.110 -1.2121 -1.1521 -0.9897
 2565TIP3   OH2 7658   5.191   1.880   0.238  0.0002  0.0945  0.4718
 2565TIP3    H1 7659   5.200   1.976   0.240 -1.5188  0.2755 -0.5232
 2565TIP3    H2 7660   5.110   1.862   0.284  0.2763 -0.7294  0.6469
 2566TIP3   OH2 7661   4.350   5.276   5.007  0.3704 -0.4417 -0.1497
 2566TIP3    H1 7662   4.301   5.347   5.049  2.7394  0.8789  0.4666
 2566TIP3    H2 7663   4.348   5.205   5.072  0.5296  0.1429  0.5049
 2567TIP3   OH2 7664   4.735   1.793   0.845 -0.6698  0.1907  0.0872
 2567TIP3    H1 7665   4.709   1.710   0.804 -0.1904  0.1656 -0.1755
 2567TIP3    H2 7666   4.777   1.842   0.774 -0.0871  0.2656  0.4789
 2568TIP3   OH2 7667   1.344   3.835   3.552  0.1111 -0.4310 -0.3076
 2568TIP3    H1 7668   1.373   3.754   3.511  1.3576  0.4504 -1.1891
 2568TIP3    H2 7669   1.392   3.839   3.635  0.5577 -0.2610 -0.5750
 2569TIP3   OH2 7670   2.128   2.158   0.146 -0.4070 -0.0087  0.4157
 2569TIP3    H1 7671   2.144   2.125   0.057 -0.9922 -0.7293  0.5827
 2569TIP3    H2 7672   2.053   2.216   0.137  1.0966  1.9451 -0.0255
 2570TIP3   OH2 7673   2.011   6.278   0.573 -0.1194 -0.5276  0.0163
 2570TIP3    H1 7674   2.100   6.253   0.550 -0.0068 -0.2191  0.1104
 2570TIP3    H2 7675   2.019   6.319   0.660  0.0195  1.7950 -1.0405
 2571TIP3   OH2 7676   5.623   4.454   2.295 -0.1145 -0.5135  0.5295
 2571TIP3    H1 7677   5.626   4.548   2.280 -3.3786 -0.4093  0.2096
 2571TIP3    H2 7678   5.605   4.416   2.208 -0.4341 -1.3032  0.9345
 2572TIP3   OH2 7679   3.990   2.184   4.266  0.2060 -0.6889  0.2102
 2572TIP3    H1 7680   3.944   2.190   4.182  0.4206  1.2496  0.2151
 2572TIP3    H2 7681   4.060   2.248   4.260 -0.4056  0.2233  2.2569
 2573TIP3   OH2 7682   4.391   2.043   4.331  0.7990 -0.0428  0.3128
 2573TIP3    H1 7683   4.485   2.030   4.324  0.6558 -0.9849  0.0354
 2573TIP3    H2 7684   4.373   2.121   4.279  1.2872 -0.4843 -0.5405
 2574TIP3   OH2 7685   1.682   2.405   3.774 -0.0177  0.1393  0.1034
 2574TIP3    H1 7686   1.728   2.398   3.858  0.5286 -1.2951 -0.2998
 2574TIP3    H2 7687   1.687   2.317   3.736  0.3289  0.9290 -1.7494
 2575TIP3   OH2 7688   3.468   2.585   2.937 -0.7004 -0.7661 -0.1558
 2575TIP3    H1 7689   3.425   2.587   3.023 -0.1277 -2.6152  0.1979
 2575TIP3    H2 7690   3.518   2.666   2.932 -2.9356  0.6787  0.0923
 2576TIP3   OH2 7691   5.418   2.572   2.289 -0.6902 -0.2939  0.0447
 2576TIP3    H1 7692   5.344   2.511   2.300 -0.7820  0.0018  1.1147
 2576TIP3    H2 7693   5.413   2.629   2.366 -0.0155  0.4439 -0.4590
 2577TIP3   OH2 7694   6.103   3.408   3.973  0.4333 -0.0426 -0.2800
 2577TIP3    H1 7695   6.053   3.346   4.026 -0.4811  0.0333 -1.0399
 2577TIP3    H2 7696   6.061   3.493   3.989  1.0779  0.2197  0.0156
 2578TIP3   OH2 7697   4.923   2.099   0.828 -0.4308 -0.3035 -0.1683
 2578TIP3    H1 7698   4.944   2.099   0.921  2.3645  1.8078 -0.7169
 2578TIP3    H2 7699   4.843   2.150   0.820  1.0820  2.2811  0.7813
 2579TIP3   OH2 7700   3.206   2.438   1.498  0.4204  0.5756 -0.2414
 2579TIP3    H1 7701   3.179   2.506   1.436  0.5552  1.9730  1.1984
 2579TIP3    H2 7702   3.167   2.464   1.581  0.4523 -1.1352  0.3384
 2580TIP3   OH2 7703   5.014   1.640   2.656  0.2562  0.6799  0.4374
 2580TIP3    H1 7704   4.971   1.637   2.742 -0.1170 -0.8143  0.2107
 2580TIP3    H2 7705   4.986   1.724   2.619 -0.8906  0.6061  1.1038
 2581TIP3   OH2 7706   5.627   0.830   2.152  0.0785  0.3032  0.5873
 2581TIP3    H1 7707   5.579   0.888   2.092  0.4015  1.0883  1.0829
 2581TIP3    H2 7708   5.688   0.888   2.198 -0.6885 -0.1647  2.2200
 2582TIP3   OH2 7709   4.358   3.345   3.920  0.5459 -0.1678 -0.2132
 2582TIP3    H1 7710   4.418   3.404   3.966  0.8108 -1.5838  1.2843
 2582TIP3    H2 7711   4.404   3.323   3.839  1.3080  0.0730  0.1519
 2583TIP3   OH2 7712   4.574   1.985   4.638  0.7874 -0.1207 -0.2443
 2583TIP3    H1 7713   4.509   1.928   4.597  0.1427  1.4174 -1.4001
 2583TIP3    H2 7714   4.644   1.992   4.574  1.0931 -0.0219  0.1008
 2584TIP3   OH2 7715   4.201   4.700   3.287  0.5835  0.1332 -0.3499
 2584TIP3    H1 7716   4.188   4.636   3.357 -0.1821 -1.3782 -1.8412
 2584TIP3    H2 7717   4.132   4.681   3.223  0.9561  1.8105 -1.2980
 2585TIP3   OH2 7718   5.276   2.335   5.524 -0.2521 -0.2309 -0.1761
 2585TIP3    H1 7719   5.238   2.250   5.502  1.6037 -1.5779  1.6023
 2585TIP3    H2 7720   5.211   2.376   5.581 -0.9399 -0.6587 -0.6399
 2586TIP3   OH2 7721   5.320   1.241   3.935 -0.0503 -0.3211 -0.0412
 2586TIP3    H1 7722   5.305   1.167   3.876  1.9647 -0.8462  0.0769
 2586TIP3    H2 7723   5.249   1.235   4.000 -0.2751 -1.7588 -0.4116
 2587TIP3   OH2 7724   2.482   4.535   3.547  0.4760  0.1039 -0.2891
 2587TIP3    H1 7725   2.463   4.593   3.620 -0.2620 -0.3751 -0.0974
 2587TIP3    H2 7726   2.536   4.466   3.585 -2.0294 -1.5494  0.3957
 2588TIP3   OH2 7727   1.429   4.071   0.179 -0.1423 -0.3538 -0.5752
 2588TIP3    H1 7728   1.445   4.008   0.250 -0.0928 -0.6555 -0.8552
 2588TIP3    H2 7729   1.510   4.120   0.172 -1.0257  1.5088  1.4021
 2589TIP3   OH2 7730   3.413   2.558   4.524 -0.1534  0.5031 -0.4195
 2589TIP3    H1 7731   3.451   2.472   4.510  3.1649  1.7013  0.6996
 2589TIP3    H2 7732   3.345   2.544   4.589 -0.1661 -1.3918 -0.8077
 2590TIP3   OH2 7733   3.568   2.058   4.370 -0.0632  0.3049 -0.2267
 2590TIP3    H1 7734   3.626   1.982   4.376 -0.4879  0.1030  1.6752
 2590TIP3    H2 7735   3.481   2.020   4.357 -0.3143  0.4579  1.0242
 2591TIP3   OH2 7736   5.585   1.601   3.514  0.0803  0.0964  0.2565
 2591TIP3    H1 7737   5.630   1.652   3.581 -0.8224  1.2188  0.0333
 2591TIP3    H2 7738   5.498   1.641   3.508  0.5673  0.8012 -2.4499
 2592TIP3   OH2 7739   5.691   3.900   2.478  0.1819 -0.1085  0.1930
 2592TIP3    H1 7740   5.774   3.914   2.524  0.0680  0.7108  0.1462
 2592TIP3    H2 7741   5.695   3.959   2.403  0.1226 -1.0385 -0.5495
 2593TIP3   OH2 7742   1.184   2.601   2.498 -0.1966 -0.0415  0.2902
 2593TIP3    H1 7743   1.110   2.590   2.440 -1.5048  0.1934  1.8740
 2593TIP3    H2 7744   1.208   2.512   2.525 -0.0613 -0.0951  0.0002
 2594TIP3   OH2 7745   3.008   3.372   4.396 -0.2969 -0.0390  0.1585
 2594TIP3    H1 7746   2.918   3.354   4.371  0.1598 -1.4191 -0.5277
 2594TIP3    H2 7747   3.058   3.298   4.363  1.1399  0.8395  0.2914
 2595TIP3   OH2 7748   2.135   2.845   4.645  0.0971  0.2010  0.1644
 2595TIP3    H1 7749   2.215   2.841   4.593 -0.0131  0.3323 -0.0166
 2595TIP3    H2 7750   2.126   2.938   4.667  1.1689 -0.1041  2.0150
 2596TIP3   OH2 7751   3.767   2.136   2.492  0.5595  0.1005 -0.0357
 2596TIP3    H1 7752   3.759   2.202   2.561  1.9807 -0.1443  0.3821
 2596TIP3    H2 7753   3.682   2.136   2.449  0.4739  2.0699  0.0804
 2597TIP3   OH2 7754   6.870   4.001   2.391  0.2664 -0.4881  0.4002
 2597TIP3    H1 7755   6.782   4.013   2.355  0.9830 -0.1396 -1.2772
 2597TIP3    H2 7756   6.886   3.907   2.384 -0.0481 -0.5750  0.8682
 2598TIP3   OH2 7757   5.941   1.862   5.602  0.3461  0.3946 -0.1259
 2598TIP3    H1 7758   5.883   1.791   5.573  0.8076  0.3935 -1.0479
 2598TIP3    H2 7759   6.027   1.838   5.568  0.9558  0.2572  1.4851
 2599TIP3   OH2 7760   2.334   0.449   3.892  0.7016 -0.2260  0.7884
 2599TIP3    H1 7761   2.310   0.397   3.815 -0.9168 -0.6793  1.5663
 2599TIP3    H2 7762   2.429   0.457   3.887  0.6737 -0.7680 -0.9302
 2600TIP3   OH2 7763   4.240   2.807   1.259 -0.5068  0.0290 -0.3455
 2600TIP3    H1 7764   4.170   2.744   1.276  0.5719 -0.8013  1.1333
 2600TIP3    H2 7765   4.197   2.892   1.263 -1.4932 -0.4875  0.2199
 2601TIP3   OH2 7766   5.813   2.694   2.827 -0.1299  0.3218 -0.2130
 2601TIP3    H1 7767   5.847   2.659   2.909  2.4388 -1.1387 -1.8424
 2601TIP3    H2 7768   5.790   2.785   2.847 -2.1430 -0.8089  2.7859
 2602TIP3   OH2 7769   2.852   4.267   2.739  0.0506  0.3455 -0.2778
 2602TIP3    H1 7770   2.797   4.282   2.816  0.8969 -0.9854  0.5909
 2602TIP3    H2 7771   2.936   4.241   2.774  0.1426 -1.3040 -1.6761
 2603TIP3   OH2 7772   5.343   4.059   1.736  0.3074  0.1393  0.6099
 2603TIP3    H1 7773   5.320   4.145   1.771  1.7502  0.3929  0.9585
 2603TIP3    H2 7774   5.347   4.002   1.813 -4.0551 -1.0884  0.0702
 2604TIP3   OH2 7775   4.939   2.778   0.920  0.0682  0.1707  0.3617
 2604TIP3    H1 7776   4.997   2.715   0.877  0.8603  1.2690 -0.2351
 2604TIP3    H2 7777   4.851   2.745   0.905  0.5041 -1.1179  0.6123
 2605TIP3   OH2 7778   3.356   4.054   1.878  0.1374  0.0813  0.2765
 2605TIP3    H1 7779   3.442   4.071   1.840  0.7829 -3.0020  0.3006
 2605TIP3    H2 7780   3.311   4.001   1.812  0.1616 -2.7265  2.4720
 2606TIP3   OH2 7781   1.667   3.140   3.971 -0.0738 -0.2068 -0.0671
 2606TIP3    H1 7782   1.679   3.050   3.998  0.7467 -0.2207 -0.4749
 2606TIP3    H2 7783   1.736   3.189   4.016 -0.2618  0.1545 -0.1638
 2607TIP3   OH2 7784   6.961   2.252   3.339 -0.4652 -0.0587  0.0917
 2607TIP3    H1 7785   6.957   2.175   3.397  2.3886 -0.2256  0.1133
 2607TIP3    H2 7786   6.980   2.216   3.253 -0.3567  0.5428 -0.1375
 2608TIP3   OH2 7787   5.828   3.890   3.442 -0.0727  0.0943  0.7677
 2608TIP3    H1 7788   5.816   3.938   3.524 -2.5729 -0.3389  0.7097
 2608TIP3    H2 7789   5.874   3.810   3.468  0.4390  0.6329  1.5328
 2609TIP3   OH2 7790   4.350   0.020   4.738  0.3776  0.1844  0.5068
 2609TIP3    H1 7791   4.399   0.054   4.813  1.3897 -0.8050  0.2991
 2609TIP3    H2 7792   4.261   0.008   4.772  0.7023  0.2362  1.4120
 2610TIP3   OH2 7793   3.649   0.070   2.842 -0.0132 -0.7738  0.5366
 2610TIP3    H1 7794   3.653   0.153   2.794 -0.2392 -0.1906  1.5061
 2610TIP3    H2 7795   3.737   0.035   2.837 -0.2569 -1.1927 -1.1131
 2611TIP3   OH2 7796   3.195   6.817   3.441 -0.0857 -0.2626 -0.1144
 2611TIP3    H1 7797   3.229   6.825   3.352  1.9392  1.4491  0.7645
 2611TIP3    H2 7798   3.183   6.907   3.470 -1.9728 -0.8212  0.8977
 2612TIP3   OH2 7799   4.254   0.424   3.013  0.0462 -0.1345  0.9657
 2612TIP3    H1 7800   4.320   0.355   3.011  0.0748 -0.0500 -2.4949
 2612TIP3    H2 7801   4.171   0.378   2.999 -0.2245  0.2394  1.3331
 2613TIP3   OH2 7802   3.133   3.097   2.677  0.0018 -0.3892 -0.1877
 2613TIP3    H1 7803   3.210   3.045   2.699 -0.0800 -0.4878 -0.1339
 2613TIP3    H2 7804   3.097   3.123   2.761  0.2489  0.0577 -0.2209
 2614TIP3   OH2 7805   6.416   0.679   2.356  0.9003 -0.7242 -0.2931
 2614TIP3    H1 7806   6.483   0.740   2.326  1.5362 -0.7443  1.0575
 2614TIP3    H2 7807   6.334   0.728   2.348  0.8450 -1.1819 -3.3066
 2615TIP3   OH2 7808   3.767   1.008   0.936  0.3333 -0.4152  0.3174
 2615TIP3    H1 7809   3.763   0.937   1.000  1.6017  0.1374  1.0270
 2615TIP3    H2 7810   3.850   0.994   0.890 -1.2838 -1.7058 -2.2910
 2616TIP3   OH2 7811   5.009   2.575   3.304  0.4357 -0.5451  0.1434
 2616TIP3    H1 7812   4.940   2.509   3.304  1.3913 -1.5685  0.5944
 2616TIP3    H2 7813   5.010   2.609   3.214 -1.1561  0.0297  0.3407
 2617TIP3   OH2 7814   4.727   2.252   3.426  0.0816  0.3934 -0.5147
 2617TIP3    H1 7815   4.815   2.234   3.392  1.3199 -1.5496  3.3818
 2617TIP3    H2 7816   4.739   2.326   3.485 -0.5525 -0.8363  1.2000
 2618TIP3   OH2 7817   7.121   1.172   5.827  0.2241  0.0411 -0.0885
 2618TIP3    H1 7818   7.107   1.266   5.840  0.8943  0.2396 -0.7841
 2618TIP3    H2 7819   7.035   1.132   5.844 -0.4712  0.9503 -1.3671
 2619TIP3   OH2 7820   3.154   2.324   2.290  0.1791  0.1125  0.6710
 2619TIP3    H1 7821   3.110   2.332   2.375  0.4888 -3.8746  1.3312
 2619TIP3    H2 7822   3.085   2.336   2.226 -0.6749  0.0498  1.5638
 2620TIP3   OH2 7823   2.490   1.217   4.821  0.4795  0.3877  0.0794
 2620TIP3    H1 7824   2.442   1.219   4.738  1.6343 -0.1376 -0.6022
 2620TIP3    H2 7825   2.582   1.210   4.796  0.7389 -1.3064  1.4230
 2621TIP3   OH2 7826   6.427   2.251   2.072  0.2183 -0.4064 -0.3296
 2621TIP3    H1 7827   6.432   2.347   2.080 -1.3871 -0.4996  2.2458
 2621TIP3    H2 7828   6.518   2.223   2.062  0.9718  1.1699  1.7525
 2622TIP3   OH2 7829   3.367   2.553   2.290  0.6963 -0.8347  0.6507
 2622TIP3    H1 7830   3.332   2.463   2.290 -0.3107 -0.4462  0.3047
 2622TIP3    H2 7831   3.311   2.600   2.228  1.2061  0.0453  0.8631
 2623TIP3   OH2 7832   2.630   2.582   3.154 -0.0104  0.0996  0.0744
 2623TIP3    H1 7833   2.676   2.618   3.078 -0.4612  0.3642 -0.0724
 2623TIP3    H2 7834   2.600   2.658   3.202  0.6736 -0.0622  0.7664
 2624TIP3   OH2 7835   4.601   3.725   2.118 -0.0563 -0.2459  0.6648
 2624TIP3    H1 7836   4.636   3.679   2.042  0.7304  2.9554 -0.9876
 2624TIP3    H2 7837   4.651   3.689   2.192  0.7975 -1.7446 -0.6018
 2625TIP3   OH2 7838   4.561   3.329   3.253  0.5975  0.1288 -0.4518
 2625TIP3    H1 7839   4.558   3.308   3.346  0.8659 -0.0038 -0.4744
 2625TIP3    H2 7840   4.632   3.392   3.244  1.2000 -0.5737 -0.7084
 2626TIP3   OH2 7841   5.676   1.486   1.931  0.3535  0.5938 -0.1243
 2626TIP3    H1 7842   5.719   1.544   1.868 -0.5481  1.7128  0.2757
 2626TIP3    H2 7843   5.632   1.545   1.991 -2.5275 -0.5177 -1.0708
 2627TIP3   OH2 7844   3.641   3.476   3.431  0.2722 -0.5010  0.4195
 2627TIP3    H1 7845   3.682   3.559   3.457  0.1436 -0.9045  1.9499
 2627TIP3    H2 7846   3.548   3.487   3.452  0.2995 -1.1209  0.8889
 2628TIP3   OH2 7847   2.809   3.528   3.279 -0.4644  0.2193 -0.4081
 2628TIP3    H1 7848   2.854   3.470   3.340  1.0592  0.0250 -1.6717
 2628TIP3    H2 7849   2.869   3.602   3.268 -0.1763 -0.2999 -2.5418
 2629TIP3   OH2 7850   1.648   3.621   3.924 -0.4702 -0.1099 -0.1521
 2629TIP3    H1 7851   1.649   3.598   4.017  0.2592 -0.4830 -0.2456
 2629TIP3    H2 7852   1.702   3.700   3.919 -1.7822  0.7999 -0.0396
 2630TIP3   OH2 7853   3.011   4.084   2.000  0.6793 -0.4923 -0.5682
 2630TIP3    H1 7854   2.993   3.991   2.011  1.2250 -0.4212  1.0784
 2630TIP3    H2 7855   2.934   4.118   1.954  0.0534 -1.5698 -0.3359
 2631TIP3   OH2 7856   3.836   3.111   1.954 -0.3502  0.0284  0.5726
 2631TIP3    H1 7857   3.755   3.076   1.916 -1.2483  0.9479  1.6252
 2631TIP3    H2 7858   3.810   3.144   2.040  1.7182 -2.3496  2.1908
 2632TIP3   OH2 7859   4.059   2.971   5.360 -0.1169  0.1960 -0.1843
 2632TIP3    H1 7860   4.093   2.938   5.444 -1.0428  0.7789  0.4192
 2632TIP3    H2 7861   4.031   3.060   5.379  0.3566  0.5847 -1.3016
 2633TIP3   OH2 7862   3.926   2.891   3.687 -0.6735  0.1991  0.1339
 2633TIP3    H1 7863   3.962   2.803   3.699  0.5651  0.6949  0.1278
 2633TIP3    H2 7864   3.943   2.912   3.595  1.5498  1.5206  0.7983
 2634TIP3   OH2 7865   2.013   2.140   5.169  0.2054  0.5701  0.7420
 2634TIP3    H1 7866   1.988   2.127   5.261 -0.6434 -2.4110  0.1584
 2634TIP3    H2 7867   2.104   2.110   5.165 -0.2912 -0.9037  0.2952
 2635TIP3   OH2 7868   5.336   3.675   5.103 -0.6057 -0.5818 -0.1165
 2635TIP3    H1 7869   5.360   3.601   5.160 -1.5782 -3.0442 -2.7631
 2635TIP3    H2 7870   5.240   3.675   5.103 -0.6116 -0.2467 -1.2785
 2636TIP3   OH2 7871   2.835   2.896   2.486 -0.0372  0.4840 -0.0064
 2636TIP3    H1 7872   2.792   2.978   2.463 -0.5857  0.2500  0.1880
 2636TIP3    H2 7873   2.852   2.903   2.580  1.4131  1.0687 -0.2911
 2637TIP3   OH2 7874   6.708   3.402   1.570 -0.0241 -0.2760  0.2218
 2637TIP3    H1 7875   6.688   3.355   1.651 -1.6914 -0.4273 -0.2610
 2637TIP3    H2 7876   6.680   3.492   1.586 -0.9539 -0.4445 -0.3925
 2638TIP3   OH2 7877   4.405   1.228   4.289  0.1119  0.4438  0.1578
 2638TIP3    H1 7878   4.325   1.244   4.239 -0.1417  0.5855  0.6070
 2638TIP3    H2 7879   4.384   1.153   4.344  0.1992  0.6535  0.4754
 2639TIP3   OH2 7880   2.818   1.568   3.464 -0.1487  0.2493 -0.1545
 2639TIP3    H1 7881   2.731   1.592   3.496 -0.5623 -1.6364  0.1648
 2639TIP3    H2 7882   2.868   1.649   3.469 -1.6891  1.1943  0.3193
 2640TIP3   OH2 7883   4.562   0.581   1.728  0.1031  0.3300  0.1724
 2640TIP3    H1 7884   4.516   0.600   1.646 -0.7578 -0.8979  0.3659
 2640TIP3    H2 7885   4.626   0.652   1.736  0.3881  0.3230 -1.7091
 2641TIP3   OH2 7886   4.484   1.682   1.939  0.5586  0.4832  0.8143
 2641TIP3    H1 7887   4.504   1.769   1.974  0.2825  0.4478  1.0667
 2641TIP3    H2 7888   4.493   1.691   1.845 -0.4940  1.0639  0.7518
 2642TIP3   OH2 7889   3.156   2.887   1.732  0.2576  0.3946  0.0765
 2642TIP3    H1 7890   3.090   2.817   1.729  3.1314 -2.4500  1.0819
 2642TIP3    H2 7891   3.209   2.872   1.654  1.2141  1.1373  0.5835
 2643TIP3   OH2 7892   5.920   2.560   2.388  0.2785 -0.0913  0.0624
 2643TIP3    H1 7893   5.943   2.627   2.451 -0.2195  0.1224  0.0160
 2643TIP3    H2 7894   5.861   2.501   2.435  0.7833 -0.5513  0.1323
 2644TIP3   OH2 7895   5.312   1.209   1.821 -0.2298 -0.1197 -0.2053
 2644TIP3    H1 7896   5.327   1.276   1.755 -1.1006  1.5047  1.2184
 2644TIP3    H2 7897   5.373   1.230   1.892  0.1883 -1.4187 -0.1582
 2645TIP3   OH2 7898   4.539   2.508   4.447  0.4471  0.2339 -0.3047
 2645TIP3    H1 7899   4.506   2.584   4.495  0.8884  0.3427 -0.1724
 2645TIP3    H2 7900   4.515   2.433   4.501 -2.0302  0.0846 -1.5436
 2646TIP3   OH2 7901   6.787   6.294   5.467  0.3070 -0.1359  0.0313
 2646TIP3    H1 7902   6.748   6.330   5.547 -1.2750  0.3528 -0.9474
 2646TIP3    H2 7903   6.794   6.369   5.408  0.9650 -0.6015 -0.4972
 2647TIP3   OH2 7904   5.508   1.273   2.004  0.5783 -0.9198  0.2636
 2647TIP3    H1 7905   5.507   1.294   2.098  0.0531 -0.2551  0.1118
 2647TIP3    H2 7906   5.572   1.334   1.967 -0.3963 -0.0827 -0.0600
 2648TIP3   OH2 7907   2.484   2.245   4.851  0.4069 -0.4149 -0.1719
 2648TIP3    H1 7908   2.411   2.192   4.820  0.3338 -0.6223  0.3445
 2648TIP3    H2 7909   2.500   2.307   4.781 -1.5327  0.8908  0.5011
 2649TIP3   OH2 7910   4.346   0.504   3.878  0.1595  0.2027 -0.0925
 2649TIP3    H1 7911   4.293   0.580   3.855 -0.4702 -0.0305  0.5584
 2649TIP3    H2 7912   4.315   0.435   3.819  1.1791  0.6104 -1.1299
 2650TIP3   OH2 7913   3.343   1.946   4.310  0.4222 -0.4330 -0.4427
 2650TIP3    H1 7914   3.278   2.007   4.275 -0.0298 -0.7063 -0.0897
 2650TIP3    H2 7915   3.295   1.864   4.324  1.2280 -1.1620 -1.7719
 2651TIP3   OH2 7916   5.540   1.019   2.434 -0.3089  0.4713  0.5612
 2651TIP3    H1 7917   5.454   1.034   2.397 -0.2059 -0.7489 -0.1957
 2651TIP3    H2 7918   5.546   1.080   2.507 -0.8970  2.2038 -0.8219
 2652TIP3   OH2 7919   4.744   3.500   3.840 -0.2064  0.2482  0.2509
 2652TIP3    H1 7920   4.737   3.407   3.865  0.9976 -0.2184 -1.0515
 2652TIP3    H2 7921   4.824   3.530   3.884  0.7066  0.0158 -1.2185
 2653TIP3   OH2 7922   0.301   3.692   1.419 -0.1146  0.7688 -0.6925
 2653TIP3    H1 7923   0.230   3.631   1.438 -0.5022  1.0621 -1.1992
 2653TIP3    H2 7924   0.322   3.677   1.327  0.6634  0.4946 -0.4743
 2654TIP3   OH2 7925   7.302   3.284   3.186  0.2212 -0.2967  0.0960
 2654TIP3    H1 7926   7.252   3.252   3.261  0.0813  0.6835  0.4333
 2654TIP3    H2 7927   7.253   3.360   3.154  0.2667 -0.7132 -1.0037
 2655TIP3   OH2 7928   6.253   2.164   3.021 -0.5123 -0.1512  0.1213
 2655TIP3    H1 7929   6.314   2.232   3.049 -0.2123 -0.6518  0.6999
 2655TIP3    H2 7930   6.309   2.091   2.994 -0.7942  0.3394 -1.8866
 2656TIP3   OH2 7931   7.267   3.656   1.635 -0.1229 -0.1585  0.0848
 2656TIP3    H1 7932   7.302   3.626   1.719 -0.1830  0.2106  0.2443
 2656TIP3    H2 7933   7.228   3.742   1.654  0.9142  0.4711 -0.5535
 2657TIP3   OH2 7934   7.213   5.595   1.174 -0.2298 -0.1698 -0.3239
 2657TIP3    H1 7935   7.282   5.532   1.195  1.4245  1.7030  0.0279
 2657TIP3    H2 7936   7.233   5.624   1.085 -0.1871  0.8225  0.0009
 2658TIP3   OH2 7937   6.954   2.926   1.711 -0.1577  0.0310  0.0006
 2658TIP3    H1 7938   6.926   2.979   1.637 -2.4951 -1.6370 -0.3716
 2658TIP3    H2 7939   7.005   2.855   1.673 -1.0455 -0.6209  0.0198
 2659TIP3   OH2 7940   6.448   1.735   1.779 -0.2948  0.0294 -0.2001
 2659TIP3    H1 7941   6.476   1.821   1.747 -0.0177 -0.0317 -0.1250
 2659TIP3    H2 7942   6.440   1.681   1.701  1.4922 -0.4436 -0.0782
 2660TIP3   OH2 7943   4.848   2.876   1.163 -0.1523  0.4265  0.3006
 2660TIP3    H1 7944   4.899   2.849   1.086 -0.9688  1.0858 -0.4832
 2660TIP3    H2 7945   4.902   2.942   1.205  1.0515 -1.1086  1.2388
 2661TIP3   OH2 7946   2.171   5.692   4.791 -0.3320  0.2271 -0.1632
 2661TIP3    H1 7947   2.171   5.786   4.809  1.0276  0.6689 -2.2575
 2661TIP3    H2 7948   2.084   5.662   4.818 -1.9608  2.6857 -2.3770
 2662TIP3   OH2 7949   6.724   2.884   2.072  0.3162 -0.0500 -0.4900
 2662TIP3    H1 7950   6.648   2.855   2.123 -0.3527 -0.4601 -1.6999
 2662TIP3    H2 7951   6.731   2.820   2.001  1.7778  0.0131 -0.4039
 2663TIP3   OH2 7952   5.902   2.229   1.794  0.5448 -0.5368  0.2093
 2663TIP3    H1 7953   5.871   2.319   1.806 -0.0305 -1.0489  2.6723
 2663TIP3    H2 7954   5.973   2.219   1.857  1.1474 -1.5786 -0.6202
 2664TIP3   OH2 7955   0.928   0.687   1.399  0.0214 -0.2605  0.0512
 2664TIP3    H1 7956   1.008   0.635   1.399 -0.0380 -0.3607 -0.5432
 2664TIP3    H2 7957   0.876   0.652   1.326  0.2486  1.0237 -0.7458
 2665TIP3   OH2 7958   7.184   0.786   0.614  0.2676  0.4670 -0.9206
 2665TIP3    H1 7959   7.211   0.876   0.634 -0.4205  0.4800 -0.0034
 2665TIP3    H2 7960   7.161   0.749   0.699  0.6992 -0.6331 -1.2754
 2666TIP3   OH2 7961   6.121   3.214   1.646 -0.5560 -0.0644 -0.5778
 2666TIP3    H1 7962   6.144   3.252   1.731  3.3609  0.5166 -1.8122
 2666TIP3    H2 7963   6.097   3.288   1.591 -0.6959 -0.1941 -0.6939
 2667TIP3   OH2 7964   6.807   2.126   2.706  0.2689 -0.7467  0.2518
 2667TIP3    H1 7965   6.744   2.056   2.722  1.1674 -2.1430 -2.1618
 2667TIP3    H2 7966   6.770   2.176   2.634  0.6842 -0.0320  0.5272
 2668TIP3   OH2 7967   5.614   2.216   3.767  0.4752  0.1544 -0.3703
 2668TIP3    H1 7968   5.608   2.194   3.860 -0.9312 -0.5625 -0.6106
 2668TIP3    H2 7969   5.670   2.293   3.763 -1.3255  1.5663  1.2785
 2669TIP3   OH2 7970   6.732   1.710   0.550 -0.3492 -0.4702 -0.7367
 2669TIP3    H1 7971   6.690   1.624   0.551 -0.7384 -0.2823 -1.0213
 2669TIP3    H2 7972   6.668   1.768   0.591  0.6462 -0.6538  1.1608
 2670TIP3   OH2 7973   6.136   3.644   2.005 -0.0370  0.2042 -0.0570
 2670TIP3    H1 7974   6.169   3.557   1.981 -0.6299 -0.0626  0.0772
 2670TIP3    H2 7975   6.214   3.697   2.016  0.3052 -0.1096 -0.9195
 2671TIP3   OH2 7976   6.463   3.300   4.620 -0.0348 -0.3682  0.0882
 2671TIP3    H1 7977   6.462   3.395   4.634  0.3512  0.0309 -2.4225
 2671TIP3    H2 7978   6.420   3.287   4.536  1.6169 -2.2538 -0.5167
 2672TIP3   OH2 7979   6.669   3.071   3.992  0.0591 -0.0605 -0.3551
 2672TIP3    H1 7980   6.746   3.029   3.953 -0.1659 -0.7720 -0.0345
 2672TIP3    H2 7981   6.679   3.164   3.971  2.5872  0.3293  2.2348
 2673TIP3   OH2 7982   6.964   2.712   0.768  0.2491  0.4804  0.0041
 2673TIP3    H1 7983   6.888   2.762   0.798  0.2200  0.6994 -0.4181
 2673TIP3    H2 7984   6.946   2.695   0.675  0.2511 -0.3321  0.1487
 2674TIP3   OH2 7985   6.308   3.198   3.351 -0.0076  0.1787  0.2722
 2674TIP3    H1 7986   6.285   3.200   3.444  0.2173  0.7761  0.3151
 2674TIP3    H2 7987   6.403   3.185   3.350  0.0513  0.6240  0.1278
 2675TIP3   OH2 7988   6.680   1.530   3.673  0.2833 -0.1228 -0.3804
 2675TIP3    H1 7989   6.673   1.613   3.720  2.3211  0.0508 -0.3398
 2675TIP3    H2 7990   6.772   1.524   3.649 -0.1408 -1.6610 -1.7165
 2676TIP3   OH2 7991   6.798   0.613   1.763  0.3283  0.0945  0.1464
 2676TIP3    H1 7992   6.734   0.603   1.834 -1.7453  2.5663 -1.2816
 2676TIP3    H2 7993   6.841   0.697   1.781  1.7963 -0.6265  0.0228
 2677TIP3   OH2 7994   6.641   1.901   2.143 -0.8708  0.9774 -0.2417
 2677TIP3    H1 7995   6.705   1.839   2.110 -0.2317  2.0992 -1.1328
 2677TIP3    H2 7996   6.560   1.880   2.096 -0.8107  0.4559 -0.1133
 2678TIP3   OH2 7997   0.025   3.477   0.945 -0.3897 -0.0429  0.3773
 2678TIP3    H1 7998   0.048   3.478   0.852 -1.1723  0.2914  0.1882
 2678TIP3    H2 7999  -0.068   3.455   0.946 -0.4744  0.3642  1.0677
 2679TIP3   OH2 8000   6.569   1.453   5.305 -0.4323  0.1590 -0.4872
 2679TIP3    H1 8001   6.646   1.397   5.318 -0.6011 -0.0517 -0.3832
 2679TIP3    H2 8002   6.605   1.540   5.290 -0.2175  0.5900  2.2436
 2680TIP3   OH2 8003   5.525   2.599   1.918 -0.2652  0.0442  0.8703
 2680TIP3    H1 8004   5.527   2.658   1.994 -0.3240 -1.0205  1.7143
 2680TIP3    H2 8005   5.435   2.602   1.888  0.1702  1.9174 -0.3268
 2681TIP3   OH2 8006   5.395   2.823   0.170  0.0586  0.0908  0.2812
 2681TIP3    H1 8007   5.332   2.886   0.203 -0.6957  0.0306 -0.9986
 2681TIP3    H2 8008   5.381   2.745   0.223 -1.3207 -0.0949 -0.3146
 2682TIP3   OH2 8009   0.900   0.377   2.711  0.3471 -0.6273  0.2387
 2682TIP3    H1 8010   0.958   0.427   2.653  0.9409  0.0322  1.3841
 2682TIP3    H2 8011   0.959   0.320   2.759 -0.1416 -1.1383  0.2246
 2683TIP3   OH2 8012   5.947   4.315   2.779 -0.3590  0.2755  0.3919
 2683TIP3    H1 8013   5.914   4.402   2.755 -0.5579  0.8038  2.5177
 2683TIP3    H2 8014   5.869   4.269   2.810 -0.1467 -0.4823 -0.2053
 2684TIP3   OH2 8015   0.117   1.580   2.307  0.1373  0.1108  0.5132
 2684TIP3    H1 8016   0.096   1.560   2.216 -1.6586 -1.6400  1.2728
 2684TIP3    H2 8017   0.034   1.570   2.354  0.4939  3.3683  1.9869
 2685TIP3   OH2 8018   7.203   5.320   6.030 -0.2674  0.6913  0.6009
 2685TIP3    H1 8019   7.118   5.363   6.031  0.1364  1.4938  0.7958
 2685TIP3    H2 8020   7.183   5.228   6.015 -1.0507  1.1379 -1.1628
 2686TIP3   OH2 8021   5.387   3.776   0.878  0.6401  0.3015  0.3162
 2686TIP3    H1 8022   5.394   3.870   0.866  2.5597  0.2682  1.0485
 2686TIP3    H2 8023   5.332   3.766   0.956  1.3603  0.8405  0.8961
 2687TIP3   OH2 8024   5.075   2.426   5.680 -0.0698 -0.3363 -0.1789
 2687TIP3    H1 8025   5.058   2.511   5.722 -1.2010 -0.3644 -0.5688
 2687TIP3    H2 8026   5.056   2.361   5.748  1.0321 -0.2737  0.1953
 2688TIP3   OH2 8027   2.227   6.686   2.482 -0.3007  0.0027 -0.2552
 2688TIP3    H1 8028   2.146   6.669   2.530  1.5993 -0.2692  2.9865
 2688TIP3    H2 8029   2.291   6.628   2.522  2.3618  2.7741 -0.3156
 2689TIP3   OH2 8030   6.160   0.744   2.313 -0.3436 -0.1312 -0.1472
 2689TIP3    H1 8031   6.148   0.834   2.284  0.3961  0.5356  1.5465
 2689TIP3    H2 8032   6.091   0.730   2.377  0.8929 -0.0303  1.2251
 2690TIP3   OH2 8033   7.150   3.883   1.717 -0.4225 -0.2376 -0.2328
 2690TIP3    H1 8034   7.067   3.890   1.670  0.3329  0.9385 -1.4124
 2690TIP3    H2 8035   7.155   3.964   1.769 -0.6974 -0.9856  0.9800
 2691TIP3   OH2 8036   4.952   2.169   3.570 -0.9548 -0.0009  0.2036
 2691TIP3    H1 8037   4.894   2.102   3.608 -0.0923 -0.5703  0.5131
 2691TIP3    H2 8038   4.898   2.248   3.570 -1.0555 -0.0385  2.4314
 2692TIP3   OH2 8039   6.718   2.451   0.220  0.2713  0.9569 -0.0048
 2692TIP3    H1 8040   6.808   2.426   0.201  0.2233  1.5611 -1.0826
 2692TIP3    H2 8041   6.722   2.497   0.303  0.9216  0.7970  0.0503
 2693TIP3   OH2 8042   6.452   3.829   0.667  0.4204 -0.2768 -0.1592
 2693TIP3    H1 8043   6.424   3.892   0.600  0.4478 -1.8033 -1.6208
 2693TIP3    H2 8044   6.546   3.841   0.673  0.5295 -0.7165 -0.9955
 2694TIP3   OH2 8045   6.289   1.560   1.347  0.5026 -0.2136 -0.2825
 2694TIP3    H1 8046   6.337   1.514   1.279  0.4082 -2.2130  0.9509
 2694TIP3    H2 8047   6.216   1.502   1.369 -1.1471  1.7253 -0.5094
 2695TIP3   OH2 8048   1.858   6.795   4.521 -0.1104 -0.1763  0.2136
 2695TIP3    H1 8049   1.857   6.736   4.597  1.4683  1.0842  1.2340
 2695TIP3    H2 8050   1.802   6.868   4.547 -0.1072 -0.0568 -0.1155
 2696TIP3   OH2 8051   4.771   2.922   3.697 -0.4176  0.2131 -0.3549
 2696TIP3    H1 8052   4.684   2.909   3.661 -0.7012  0.5365  0.2107
 2696TIP3    H2 8053   4.829   2.873   3.639 -1.2107 -1.8020  0.5475
 2697TIP3   OH2 8054   0.048   0.952   1.729 -0.2562  0.0946  0.2339
 2697TIP3    H1 8055   0.017   0.977   1.816 -1.2513 -1.0392  0.2273
 2697TIP3    H2 8056   0.000   1.009   1.670  0.2296  0.6929  0.4182
 2698TIP3   OH2 8057   6.973   4.017   2.994 -0.0366  0.3811 -0.0722
 2698TIP3    H1 8058   7.005   4.108   2.996 -1.4008  0.8817 -0.0852
 2698TIP3    H2 8059   6.925   4.011   2.912 -1.4927  0.2018  0.7744
 2699TIP3   OH2 8060   4.789   2.625   2.108 -0.4493  0.2146 -0.4014
 2699TIP3    H1 8061   4.831   2.663   2.186 -1.0628 -0.4003  0.2414
 2699TIP3    H2 8062   4.742   2.699   2.068 -0.2341  0.5089 -0.1206
 2700TIP3   OH2 8063   5.780   4.480   3.368 -0.2990  0.5550 -0.3760
 2700TIP3    H1 8064   5.722   4.441   3.303  0.2584  0.2535 -0.6951
 2700TIP3    H2 8065   5.854   4.514   3.318  0.0737  0.4300  0.0853
 2701TIP3   OH2 8066   0.060   3.254   0.326 -0.3359 -0.4909  0.1821
 2701TIP3    H1 8067   0.116   3.294   0.392 -0.7453  0.3367  0.0343
 2701TIP3    H2 8068   0.012   3.186   0.373 -2.0150  1.3406  1.1818
 2702TIP3   OH2 8069   3.426   0.389   5.624  0.1260  0.3722  0.0401
 2702TIP3    H1 8070   3.355   0.347   5.673  0.3766 -0.4814 -0.3115
 2702TIP3    H2 8071   3.462   0.319   5.569  0.9854  0.8885 -0.0708
 2703TIP3   OH2 8072   1.043   2.805   3.910 -0.2233 -0.8854 -0.0143
 2703TIP3    H1 8073   1.118   2.746   3.908  0.0679 -0.4973 -0.6662
 2703TIP3    H2 8074   1.052   2.859   3.831 -1.0855 -0.7147 -0.0064
 2704TIP3   OH2 8075   4.852   3.852   2.635 -0.1712  0.3881 -0.2469
 2704TIP3    H1 8076   4.781   3.888   2.687 -0.3404 -0.7358  0.3165
 2704TIP3    H2 8077   4.831   3.759   2.627  0.7060  0.2425 -0.9324
 2705TIP3   OH2 8078   1.248   4.104   5.463  0.0876 -0.0145  0.7949
 2705TIP3    H1 8079   1.300   4.103   5.383  0.8044 -1.3411  1.2461
 2705TIP3    H2 8080   1.281   4.029   5.513 -1.9211 -0.5787  1.3155
 2706TIP3   OH2 8081   6.881   1.874   1.441  0.0190  0.2318 -0.2731
 2706TIP3    H1 8082   6.895   1.810   1.372  1.2243 -0.1871  0.3490
 2706TIP3    H2 8083   6.805   1.924   1.413 -1.7256 -2.2977 -0.1691
 2707TIP3   OH2 8084   1.048   1.059   2.338 -0.4352 -0.0116  0.1237
 2707TIP3    H1 8085   1.008   1.145   2.351 -1.6178 -0.1546 -2.1742
 2707TIP3    H2 8086   0.982   0.997   2.370  1.1652 -0.0790  3.5207
 2708TIP3   OH2 8087   7.204   2.725   0.582  0.4733  0.1716  0.3014
 2708TIP3    H1 8088   7.264   2.702   0.511  1.2763  0.8920  0.7327
 2708TIP3    H2 8089   7.244   2.687   0.660 -0.0841 -0.0874  0.4570
 2709TIP3   OH2 8090   5.238   0.085   1.771  0.2512 -0.0145  0.0627
 2709TIP3    H1 8091   5.281   0.153   1.823 -1.0362  0.6405  0.3020
 2709TIP3    H2 8092   5.307   0.050   1.715  1.1326  0.8709  0.5758
 2710TIP3   OH2 8093   7.237   1.618   2.905  0.3507 -0.6011 -0.0767
 2710TIP3    H1 8094   7.314   1.568   2.931  1.7521  1.4542 -0.1802
 2710TIP3    H2 8095   7.267   1.674   2.834 -1.1969  0.3121 -0.0407
 2711TIP3   OH2 8096   6.675   2.280   1.533 -0.4298 -0.1418  0.0055
 2711TIP3    H1 8097   6.608   2.334   1.491  0.5268  1.2209  0.2001
 2711TIP3    H2 8098   6.654   2.284   1.626 -0.5823 -0.4244 -0.0156
 2712TIP3   OH2 8099   5.821   1.870   0.715  0.1933  0.6342  0.1310
 2712TIP3    H1 8100   5.773   1.801   0.761  1.0189  1.4273  2.2828
 2712TIP3    H2 8101   5.857   1.827   0.638 -1.1746 -0.7815  0.2564
 2713TIP3   OH2 8102   5.803   0.244   1.571 -0.0434 -0.7542  0.2653
 2713TIP3    H1 8103   5.827   0.235   1.663 -0.4142  2.6536  0.7697
 2713TIP3    H2 8104   5.715   0.281   1.573 -0.7406 -2.2570 -1.4941
 2714TIP3   OH2 8105   7.080   1.305   2.817 -0.3491  0.5873  0.1105
 2714TIP3    H1 8106   7.030   1.387   2.825 -1.3328 -0.1052  1.1634
 2714TIP3    H2 8107   7.026   1.249   2.762  0.7734  0.9691 -1.4175
 2715TIP3   OH2 8108   5.505   1.609   4.323  0.4108  0.5370  0.5808
 2715TIP3    H1 8109   5.485   1.539   4.385  1.8397  1.3749  2.0174
 2715TIP3    H2 8110   5.495   1.690   4.373 -0.9620  1.3922 -0.9919
 2716TIP3   OH2 8111   2.209   6.513   5.391 -0.0060  0.4941  0.0122
 2716TIP3    H1 8112   2.219   6.608   5.386 -0.1529  0.4921 -0.3106
 2716TIP3    H2 8113   2.260   6.480   5.316 -0.6617  0.3654 -0.3806
 2717TIP3   OH2 8114   5.041   0.759   2.423 -0.0874 -0.0948  0.0049
 2717TIP3    H1 8115   5.060   0.666   2.418  0.1816 -0.0540  0.2346
 2717TIP3    H2 8116   5.124   0.799   2.451 -0.4177  0.1209  0.7030
 2718TIP3   OH2 8117   0.310   6.126   5.828  0.6864  0.4212 -0.3240
 2718TIP3    H1 8118   0.315   6.190   5.899 -0.7780  1.1456 -0.8566
 2718TIP3    H2 8119   0.271   6.174   5.755  0.1871 -0.8965 -0.9329
 2719TIP3   OH2 8120   5.982   1.704   1.124 -0.3360 -0.5401 -0.6760
 2719TIP3    H1 8121   6.046   1.758   1.170  1.2892 -1.6801 -1.5417
 2719TIP3    H2 8122   5.939   1.765   1.063  1.0139 -0.0560 -1.1747
 2720TIP3   OH2 8123   6.199   3.528   2.377 -0.4403  0.4119  0.3461
 2720TIP3    H1 8124   6.164   3.559   2.293 -0.6697  0.6709  0.5372
 2720TIP3    H2 8125   6.228   3.439   2.359 -0.0369  0.6385 -0.1383
 2721TIP3   OH2 8126   5.093   6.872   0.563 -0.6590 -0.5348 -0.0908
 2721TIP3    H1 8127   5.143   6.822   0.628  0.1028 -2.8491 -2.3397
 2721TIP3    H2 8128   5.130   6.960   0.566  1.2458 -1.3409  0.6668
 2722TIP3   OH2 8129   0.887   1.330   1.371 -0.3950 -0.0624 -0.2531
 2722TIP3    H1 8130   0.857   1.256   1.424 -0.6260 -0.4463 -0.9175
 2722TIP3    H2 8131   0.909   1.291   1.286 -1.3390  0.7667 -0.8750
 2723TIP3   OH2 8132   6.115   0.965   3.701  0.5646 -0.1007  0.5335
 2723TIP3    H1 8133   6.040   1.006   3.658  0.7197  0.2262  0.5727
 2723TIP3    H2 8134   6.171   0.937   3.629  0.1788 -0.7687  0.4952
 2724TIP3   OH2 8135   7.075   1.939   0.186 -0.1059 -0.4038 -0.2573
 2724TIP3    H1 8136   7.108   1.882   0.255 -0.4832 -0.3291 -0.0096
 2724TIP3    H2 8137   6.990   1.901   0.162 -0.2404 -0.0987 -0.2725
 2725TIP3   OH2 8138   2.217   4.295   0.451  0.0167  0.1630  0.7703
 2725TIP3    H1 8139   2.161   4.224   0.422 -1.1374  1.5861 -0.6111
 2725TIP3    H2 8140   2.195   4.307   0.543 -0.0738 -0.9808  0.9058
 2726TIP3   OH2 8141   5.375   3.061   3.265 -0.5232  0.7501  0.0194
 2726TIP3    H1 8142   5.394   2.990   3.204 -2.4405 -0.4080  0.7219
 2726TIP3    H2 8143   5.389   3.022   3.352 -2.7964  0.8309  0.4478
 2727TIP3   OH2 8144   5.283   2.421   1.040  0.1399 -0.5699 -0.4573
 2727TIP3    H1 8145   5.254   2.338   1.003 -0.6872 -0.2919 -0.4485
 2727TIP3    H2 8146   5.202   2.471   1.053  0.6249  0.2024 -0.3849
 2728TIP3   OH2 8147   3.839   6.555   1.937 -0.3360 -0.7288 -0.6067
 2728TIP3    H1 8148   3.884   6.474   1.961 -0.8469 -0.7867  0.1870
 2728TIP3    H2 8149   3.746   6.533   1.942 -0.5488  0.4471  1.7133
 2729TIP3   OH2 8150   0.390   6.409   5.439  0.1824  0.0414 -0.3853
 2729TIP3    H1 8151   0.350   6.439   5.358  0.5152  1.2681 -0.1093
 2729TIP3    H2 8152   0.465   6.467   5.452 -0.3575  0.4210  1.2360
 2730TIP3   OH2 8153   0.386   3.214   1.568  0.0685 -0.0395  0.2604
 2730TIP3    H1 8154   0.464   3.158   1.569  0.2381  0.2005  0.7197
 2730TIP3    H2 8155   0.361   3.223   1.660  0.6382  1.4406  0.2884
 2731TIP3   OH2 8156   6.913   2.649   3.120 -0.3954 -0.0073 -0.4661
 2731TIP3    H1 8157   6.922   2.645   3.025 -0.8136 -0.3771 -0.4928
 2731TIP3    H2 8158   6.877   2.736   3.137 -0.9260 -0.1849 -0.6940
 2732TIP3   OH2 8159   6.087   1.285   0.037  0.1704 -0.6113 -0.0610
 2732TIP3    H1 8160   5.996   1.296   0.065  0.1074 -1.0166 -0.0975
 2732TIP3    H2 8161   6.124   1.225   0.101  0.4423 -0.3613  0.0139
 2733TIP3   OH2 8162   6.618   1.890   3.113  0.7277 -0.0343 -0.0490
 2733TIP3    H1 8163   6.620   1.816   3.175 -2.0017 -0.1511 -0.0409
 2733TIP3    H2 8164   6.687   1.869   3.050  0.3469 -2.3511  0.2416
 2734TIP3   OH2 8165   6.218   2.081   1.159 -0.1023 -0.5288  0.0870
 2734TIP3    H1 8166   6.209   2.011   1.095 -2.6660  0.3767 -0.5760
 2734TIP3    H2 8167   6.227   2.161   1.107  1.6848 -0.2182  0.8451
 2735TIP3   OH2 8168   6.024   0.788   2.728 -0.3655 -0.1203 -0.1688
 2735TIP3    H1 8169   6.113   0.758   2.709 -1.0725 -2.6194  0.2316
 2735TIP3    H2 8170   6.036   0.866   2.783  1.5677 -0.2231 -0.4081
 2736TIP3   OH2 8171   4.313   3.280   1.610 -0.1711 -0.9392 -0.0851
 2736TIP3    H1 8172   4.285   3.321   1.692 -0.5803 -0.3684 -0.5136
 2736TIP3    H2 8173   4.371   3.209   1.638  2.7225  1.5759  0.5578
 2737TIP3   OH2 8174   5.827   2.654   4.111  0.1079 -0.2843  0.2169
 2737TIP3    H1 8175   5.821   2.660   4.207 -2.3368 -0.7510  0.1169
 2737TIP3    H2 8176   5.738   2.634   4.083  0.5381  1.2285 -2.2899
 2738TIP3   OH2 8177   0.028   3.102   1.513  0.7514 -0.6561 -0.6287
 2738TIP3    H1 8178  -0.042   3.167   1.524  1.4436 -0.3187  2.0192
 2738TIP3    H2 8179   0.085   3.140   1.446  1.9001  2.1818  1.8488
 2739TIP3   OH2 8180   5.922   3.209   2.654 -0.8761  0.2374 -0.1376
 2739TIP3    H1 8181   5.859   3.138   2.643  0.2334 -0.9759  1.1386
 2739TIP3    H2 8182   5.871   3.282   2.690 -1.4579 -0.9501  1.5221
 2740TIP3   OH2 8183   0.542   1.306   4.124  0.0087 -0.3572  0.2778
 2740TIP3    H1 8184   0.493   1.292   4.043  1.2590  0.2177 -0.6007
 2740TIP3    H2 8185   0.512   1.237   4.183 -1.4331 -0.3582 -0.4318
 2741TIP3   OH2 8186   6.523   3.240   2.671 -0.0652 -0.8159  0.3528
 2741TIP3    H1 8187   6.520   3.191   2.752 -1.7627 -0.1238  0.7355
 2741TIP3    H2 8188   6.616   3.250   2.652  0.3393 -1.2588  2.0406
 2742TIP3   OH2 8189   6.071   2.244   1.563 -0.7159 -0.3370  0.2547
 2742TIP3    H1 8190   6.022   2.209   1.637  0.6542  0.0008  1.3490
 2742TIP3    H2 8191   6.145   2.183   1.553  0.6503  1.1591  0.9769
 2743TIP3   OH2 8192   5.084   3.027   2.811  0.9108 -0.1480  0.0050
 2743TIP3    H1 8193   5.116   2.982   2.889  0.0684 -0.0016  0.4387
 2743TIP3    H2 8194   5.163   3.061   2.769  1.4894 -1.3977  0.0633
 2744TIP3   OH2 8195   4.387   3.437   1.375  0.6658 -0.8466  0.2796
 2744TIP3    H1 8196   4.397   3.399   1.462  2.5024 -1.4859 -0.1886
 2744TIP3    H2 8197   4.326   3.379   1.331 -0.7448 -0.1805  1.3214
 2745TIP3   OH2 8198   6.682   2.065   1.366 -0.0872 -0.4910 -0.5510
 2745TIP3    H1 8199   6.692   2.147   1.414  1.2228 -0.0063 -1.6215
 2745TIP3    H2 8200   6.708   2.086   1.276  0.2943 -2.0798 -0.8394
 2746TIP3   OH2 8201   1.563   5.480   5.938  0.0609 -0.1619 -0.0865
 2746TIP3    H1 8202   1.578   5.488   6.032 -1.9540 -0.6439  0.2859
 2746TIP3    H2 8203   1.650   5.465   5.901  0.9721  0.8663  1.6027
 2747TIP3   OH2 8204   2.636   4.591   2.622 -0.1104  0.3075 -0.4305
 2747TIP3    H1 8205   2.603   4.502   2.608 -2.7418  1.6021 -2.9459
 2747TIP3    H2 8206   2.692   4.607   2.546  0.3410  0.8096  0.0084
 2748TIP3   OH2 8207   7.124   0.847   1.869 -0.3576 -0.0571  0.4559
 2748TIP3    H1 8208   7.125   0.892   1.953  1.4609  1.7130 -0.4802
 2748TIP3    H2 8209   7.059   0.895   1.817 -0.6638 -0.4478  0.4766
 2749TIP3   OH2 8210   6.046   3.904   1.442  0.4074  0.1866 -0.0358
 2749TIP3    H1 8211   6.009   3.989   1.468  0.7039 -0.1350  1.4738
 2749TIP3    H2 8212   6.097   3.876   1.518  1.3518 -0.7556 -1.0101
 2750TIP3   OH2 8213   6.482   3.063   1.415 -0.5441 -0.2363  0.1483
 2750TIP3    H1 8214   6.443   3.111   1.342 -2.3520 -2.3223 -0.3245
 2750TIP3    H2 8215   6.561   3.023   1.379 -1.4153 -1.2331 -0.6770
 2751TIP3   OH2 8216   6.074   3.487   1.527 -0.9375  0.3243 -0.8875
 2751TIP3    H1 8217   5.995   3.535   1.552 -1.3379 -0.7067 -0.1069
 2751TIP3    H2 8218   6.146   3.539   1.562 -1.2049  1.7114 -2.3304
 2752TIP3   OH2 8219   3.676   6.198   3.313 -0.2024 -0.6292  0.3613
 2752TIP3    H1 8220   3.734   6.236   3.246  0.3460 -1.3115  0.4430
 2752TIP3    H2 8221   3.605   6.158   3.262  0.6271 -1.8451  0.1292
 2753TIP3   OH2 8222   6.173   2.852   1.201  0.0896 -0.6352  0.2038
 2753TIP3    H1 8223   6.201   2.826   1.288  0.9924  1.0043  0.4221
 2753TIP3    H2 8224   6.092   2.902   1.215 -0.3836 -1.3265 -0.0103
 2754TIP3   OH2 8225   5.233   1.287   2.609  0.0756 -0.2523 -0.0211
 2754TIP3    H1 8226   5.262   1.200   2.634  1.1148 -0.1493 -0.8418
 2754TIP3    H2 8227   5.222   1.334   2.692  1.1895 -0.6246  0.3426
 2755TIP3   OH2 8228   4.614   1.586   0.702 -0.1577  0.1774 -0.2448
 2755TIP3    H1 8229   4.605   1.651   0.631  0.4982  1.2023  0.5979
 2755TIP3    H2 8230   4.612   1.502   0.657  1.3884  0.8433 -1.6255
 2756TIP3   OH2 8231   2.452   6.557   4.869 -0.1836  0.4272  0.8936
 2756TIP3    H1 8232   2.409   6.480   4.833 -0.9288 -0.1369  2.9017
 2756TIP3    H2 8233   2.402   6.631   4.835 -1.0554 -0.1019  1.0142
 2757TIP3   OH2 8234   5.629   4.484   1.355 -0.4389 -0.5810  0.1907
 2757TIP3    H1 8235   5.550   4.504   1.405 -0.4531 -0.2790  0.0470
 2757TIP3    H2 8236   5.619   4.393   1.330 -0.1026 -0.9480  1.3507
 2758TIP3   OH2 8237   5.740   2.794   1.046 -0.5646 -0.1095 -0.3773
 2758TIP3    H1 8238   5.817   2.847   1.024  0.3635 -1.9471 -1.6670
 2758TIP3    H2 8239   5.770   2.735   1.114 -1.2371  0.1140  0.1184
 2759TIP3   OH2 8240   4.885   2.406   0.017 -0.5444  0.0113 -0.4879
 2759TIP3    H1 8241   4.973   2.443   0.026 -0.7220  0.0259  1.5772
 2759TIP3    H2 8242   4.898   2.312   0.008 -0.3004  0.0578 -0.6081
 2760TIP3   OH2 8243   6.949   1.209   2.158  0.1696 -0.3281 -0.3928
 2760TIP3    H1 8244   6.972   1.300   2.140 -0.5232 -0.3384 -1.3675
 2760TIP3    H2 8245   7.031   1.161   2.149  0.7238  0.3372  1.0964
 2761TIP3   OH2 8246   6.280   1.258   1.617 -0.2768 -0.2474 -0.2174
 2761TIP3    H1 8247   6.374   1.255   1.598  0.0848  2.7011  0.8852
 2761TIP3    H2 8248   6.241   1.293   1.537 -0.3663 -0.9408 -0.4760
 2762TIP3   OH2 8249   6.925   2.588   0.370 -0.0665 -0.0585  0.0042
 2762TIP3    H1 8250   6.922   2.671   0.323  2.4776 -0.3558 -0.7794
 2762TIP3    H2 8251   7.007   2.590   0.419 -0.3999 -1.7320  0.6876
 2763TIP3   OH2 8252   2.421   0.462   1.995 -0.5089 -0.0747 -0.2705
 2763TIP3    H1 8253   2.387   0.374   2.007  1.4258 -0.6689  1.0984
 2763TIP3    H2 8254   2.474   0.457   1.916  0.2044 -0.3407  0.2189
 2764TIP3   OH2 8255   3.431   4.618   1.379  0.7668  0.1537  0.8424
 2764TIP3    H1 8256   3.511   4.592   1.334 -0.1800 -0.3462 -0.5886
 2764TIP3    H2 8257   3.367   4.552   1.353 -0.3502  1.0550  1.2580
 2765TIP3   OH2 8258   1.386   0.979   1.398  0.1169 -0.0446  0.3585
 2765TIP3    H1 8259   1.455   0.922   1.430 -0.6205 -0.8080  0.5998
 2765TIP3    H2 8260   1.317   0.974   1.464 -0.5052  0.0728 -0.2672
 2766TIP3   OH2 8261   5.952   0.836   2.031  0.1572 -0.4946  0.4392
 2766TIP3    H1 8262   5.948   0.899   2.103  0.0758  0.4063 -0.3333
 2766TIP3    H2 8263   6.045   0.835   2.006  0.3459 -1.5068  1.1567
 2767TIP3   OH2 8264   5.959   2.858   2.264  0.1084  0.3770  0.7296
 2767TIP3    H1 8265   6.032   2.797   2.258 -0.5238 -0.3073 -0.1418
 2767TIP3    H2 8266   5.962   2.907   2.181  0.5150  1.4269  1.3508
 2768TIP3   OH2 8267   5.937   3.405   3.705 -0.3880 -0.4959  0.4334
 2768TIP3    H1 8268   5.863   3.445   3.751  0.4821 -0.7400  2.1067
 2768TIP3    H2 8269   6.014   3.446   3.744  0.3809 -0.8735 -0.6804
 2769TIP3   OH2 8270   5.479   0.815   1.670  0.3574 -0.4193  0.0440
 2769TIP3    H1 8271   5.499   0.721   1.667 -0.2333 -0.5147 -2.4443
 2769TIP3    H2 8272   5.552   0.856   1.622 -0.4211  0.1743 -0.6430
 2770TIP3   OH2 8273   7.094   4.553   2.316 -0.4178  0.1223  0.1214
 2770TIP3    H1 8274   7.013   4.574   2.270 -0.7978 -0.3735  0.5633
 2770TIP3    H2 8275   7.067   4.499   2.390  0.5375 -2.1214 -1.0997
 2771TIP3   OH2 8276   6.274   1.765   0.661 -0.1168  0.4837  0.2443
 2771TIP3    H1 8277   6.200   1.825   0.651 -1.6406 -1.5267 -1.0755
 2771TIP3    H2 8278   6.236   1.687   0.702  1.4111 -0.3199  0.1683
 2772TIP3   OH2 8279   5.258   2.341   4.901 -0.0785 -0.2441 -0.8899
 2772TIP3    H1 8280   5.205   2.266   4.872 -0.6654 -0.2155  0.0752
 2772TIP3    H2 8281   5.315   2.305   4.969 -0.6695  0.2658 -0.1127
 2773TIP3   OH2 8282   4.854   5.398   1.300  0.3581  0.1495  0.2369
 2773TIP3    H1 8283   4.822   5.357   1.380  2.2935  0.0952  1.0008
 2773TIP3    H2 8284   4.914   5.334   1.261 -1.7084 -0.4752 -2.1111
 2774TIP3   OH2 8285   7.296   2.435   1.146  0.6195  0.1882  0.8809
 2774TIP3    H1 8286   7.275   2.430   1.239  0.9747  1.0833  1.0136
 2774TIP3    H2 8287   7.218   2.474   1.106  0.3682 -0.4298  0.7670
 2775TIP3   OH2 8288   1.054   4.242   4.168  0.3606  0.0153  0.2391
 2775TIP3    H1 8289   1.064   4.212   4.078 -0.5732 -0.8578  0.4095
 2775TIP3    H2 8290   1.131   4.209   4.214  0.7406  0.3003 -0.1864
 2776TIP3   OH2 8291   6.877   3.806   1.218 -0.3367  0.4246 -0.3461
 2776TIP3    H1 8292   6.965   3.819   1.183 -0.1147  1.1140  0.4563
 2776TIP3    H2 8293   6.858   3.714   1.199  0.9624 -0.0040  0.3758
 2777TIP3   OH2 8294   6.261   3.506   3.625 -0.3092 -0.6386  0.1264
 2777TIP3    H1 8295   6.311   3.464   3.695 -0.3472  0.5147  0.8438
 2777TIP3    H2 8296   6.262   3.599   3.646 -0.8917 -0.3537 -1.0455
 2778TIP3   OH2 8297   0.189   1.316   1.296 -0.1100 -0.0287 -0.0659
 2778TIP3    H1 8298   0.162   1.278   1.212 -2.0730  2.5587 -0.6761
 2778TIP3    H2 8299   0.216   1.405   1.274 -1.4828  0.9763  2.1583
 2779TIP3   OH2 8300   6.200   5.423   0.194 -0.4081 -0.4216  0.0618
 2779TIP3    H1 8301   6.247   5.472   0.261 -1.2914 -1.9934  1.8882
 2779TIP3    H2 8302   6.268   5.381   0.142  0.3271  1.9365 -0.9663
 2780TIP3   OH2 8303   1.139   6.451   5.584  0.5118  0.6562 -0.1778
 2780TIP3    H1 8304   1.204   6.432   5.651  1.5624  0.4860 -1.2254
 2780TIP3    H2 8305   1.086   6.372   5.577  0.4562  0.6445  0.3836
 2781TIP3   OH2 8306   6.433   3.412   0.825 -0.6663 -0.3545 -0.1651
 2781TIP3    H1 8307   6.417   3.473   0.752 -0.6853 -0.3148 -0.1281
 2781TIP3    H2 8308   6.367   3.436   0.890  1.6974  2.1562  1.4545
 2782TIP3   OH2 8309   5.768   3.195   3.927 -0.0287  0.1528  0.3378
 2782TIP3    H1 8310   5.800   3.150   3.849 -1.0910  1.6100 -0.9590
 2782TIP3    H2 8311   5.684   3.232   3.901 -1.0006 -0.4229  2.5697
 2783TIP3   OH2 8312   6.175   1.531   1.028  0.0421 -0.8601 -0.1272
 2783TIP3    H1 8313   6.109   1.586   1.071  1.3618  0.6750 -0.0326
 2783TIP3    H2 8314   6.164   1.549   0.935 -0.3469 -1.3971 -0.1912
 2784TIP3   OH2 8315   4.283   2.728   3.400  0.2365 -0.1583  0.1216
 2784TIP3    H1 8316   4.297   2.766   3.487  0.8693 -0.0012 -0.0439
 2784TIP3    H2 8317   4.286   2.803   3.340  1.2542 -0.4421 -0.1861
 2785TIP3   OH2 8318   5.323   0.446   0.978 -0.8553  0.0874 -0.2150
 2785TIP3    H1 8319   5.394   0.456   1.042 -0.6746 -1.8205 -0.0639
 2785TIP3    H2 8320   5.345   0.507   0.908  1.1988 -0.7713 -0.3651
 2786TIP3   OH2 8321   4.272   2.369   4.517  0.2149 -0.2713 -0.3892
 2786TIP3    H1 8322   4.343   2.315   4.552 -0.0185 -0.1376  0.2963
 2786TIP3    H2 8323   4.261   2.439   4.582  0.9230  0.9488 -1.5525
 2787TIP3   OH2 8324   6.550   2.986   0.712 -0.3248  0.6641 -0.3302
 2787TIP3    H1 8325   6.477   3.047   0.729  0.3478  1.3056  0.2746
 2787TIP3    H2 8326   6.570   2.998   0.619 -1.4614 -0.0367 -0.6762
 2788TIP3   OH2 8327   0.465   1.973   1.325 -0.5461 -0.5471  0.4491
 2788TIP3    H1 8328   0.415   2.004   1.249 -0.5024 -0.4244  0.4702
 2788TIP3    H2 8329   0.406   1.983   1.399  0.5021  2.4054  0.9632
 2789TIP3   OH2 8330   4.804   1.978   4.478  0.0572 -0.0706  0.0550
 2789TIP3    H1 8331   4.847   1.953   4.559  1.6636  1.1843 -0.3837
 2789TIP3    H2 8332   4.837   2.066   4.459 -1.3558  0.2174 -1.2289
 2790TIP3   OH2 8333   5.588   1.377   0.922  0.1303 -0.1075 -0.6034
 2790TIP3    H1 8334   5.656   1.313   0.941  0.1012 -0.4141 -1.4857
 2790TIP3    H2 8335   5.515   1.326   0.887  0.0209  0.3680 -1.0896
 2791TIP3   OH2 8336   6.602   2.566   2.165 -0.4980 -0.5553 -0.2456
 2791TIP3    H1 8337   6.669   2.501   2.144 -1.5581 -1.5014 -0.7833
 2791TIP3    H2 8338   6.582   2.552   2.257  1.4380  1.0496  0.4434
 2792TIP3   OH2 8339   4.500   0.182   5.753 -0.3191 -0.2363 -0.3543
 2792TIP3    H1 8340   4.580   0.176   5.701 -0.4979  1.1257 -0.8103
 2792TIP3    H2 8341   4.436   0.131   5.703  0.5314 -2.3524  0.6192
 2793TIP3   OH2 8342   7.256   3.146   3.459  0.7364 -0.0430  0.0130
 2793TIP3    H1 8343   7.346   3.127   3.483  0.5233 -2.6631 -1.1452
 2793TIP3    H2 8344   7.208   3.142   3.542  1.6089  1.1491  0.5963
 2794TIP3   OH2 8345   6.831   4.475   5.057  0.5285  0.1221 -0.2609
 2794TIP3    H1 8346   6.860   4.392   5.020  1.9774  0.8632 -0.8401
 2794TIP3    H2 8347   6.744   4.488   5.020  0.1897 -1.2439  0.0246
 2795TIP3   OH2 8348   5.185   2.266   3.692  0.1645 -0.3009  0.0450
 2795TIP3    H1 8349   5.135   2.334   3.738 -0.2846 -0.6705  0.1038
 2795TIP3    H2 8350   5.125   2.236   3.623  0.5703 -0.2487 -0.3342
 2796TIP3   OH2 8351   6.216   1.811   1.252  0.5452 -0.1433 -0.5168
 2796TIP3    H1 8352   6.255   1.726   1.272  0.7649 -0.0711 -0.6352
 2796TIP3    H2 8353   6.286   1.874   1.271 -0.2509  0.1792  1.5394
 2797TIP3   OH2 8354   6.702   2.689   4.390 -0.2933  0.6942 -0.5552
 2797TIP3    H1 8355   6.794   2.711   4.399 -0.8974  3.1333  0.0477
 2797TIP3    H2 8356   6.673   2.735   4.311 -1.2453  0.9425 -0.0833
 2798TIP3   OH2 8357   1.856   6.849   3.538  0.0504  0.0854  0.1226
 2798TIP3    H1 8358   1.831   6.823   3.626 -0.6508  0.2153 -0.0322
 2798TIP3    H2 8359   1.942   6.810   3.524 -0.3976 -1.0164  0.3827
 2799TIP3   OH2 8360   6.480   1.690   2.754  0.2384 -0.0665  0.0841
 2799TIP3    H1 8361   6.470   1.620   2.818  1.0797  0.0445  0.3527
 2799TIP3    H2 8362   6.511   1.646   2.675 -0.5707 -0.1734 -0.1732
 2800TIP3   OH2 8363   7.132   2.775   1.072  0.8031 -0.3619  0.0325
 2800TIP3    H1 8364   7.208   2.743   1.023  0.8856 -1.9236  1.1372
 2800TIP3    H2 8365   7.077   2.698   1.084 -1.1274  0.8183 -0.9987
 2801TIP3   OH2 8366   4.926   3.445   2.053  0.1585  0.0912 -0.0531
 2801TIP3    H1 8367   4.869   3.519   2.030 -0.0088  0.4186  1.3928
 2801TIP3    H2 8368   4.930   3.446   2.148  0.0020 -1.8851 -0.0031
 2802TIP3   OH2 8369   4.627   4.059   1.134 -0.7018 -0.1684 -0.3807
 2802TIP3    H1 8370   4.588   4.036   1.050 -0.5483  1.6067 -0.9438
 2802TIP3    H2 8371   4.721   4.059   1.119 -0.7539  2.4247 -0.8176
 2803TIP3   OH2 8372   2.768   1.256   5.770  0.1318 -0.3085  0.0210
 2803TIP3    H1 8373   2.757   1.202   5.848 -2.2027 -1.3696 -1.0089
 2803TIP3    H2 8374   2.720   1.210   5.702 -1.5004  2.7787 -0.9968
 2804TIP3   OH2 8375   3.326   1.008   5.899 -0.1754  0.3576  0.3969
 2804TIP3    H1 8376   3.283   0.923   5.890  1.1605 -0.6678  3.2836
 2804TIP3    H2 8377   3.364   1.008   5.987  1.4321  3.2163 -0.2027
 2805TIP3   OH2 8378   6.767   2.346   2.120 -0.5383 -0.4811 -0.0729
 2805TIP3    H1 8379   6.800   2.331   2.031  3.0022  0.1121  1.0604
 2805TIP3    H2 8380   6.793   2.268   2.168 -1.4639 -0.2970  0.7418
 2806TIP3   OH2 8381   0.381   2.204   2.334 -0.5523  0.4228 -0.5504
 2806TIP3    H1 8382   0.439   2.130   2.355 -0.5458  0.5827 -0.0036
 2806TIP3    H2 8383   0.309   2.164   2.284 -0.5673  0.0380 -0.2254
 2807TIP3   OH2 8384   6.593   2.223   3.332 -0.5050 -1.1491 -0.4130
 2807TIP3    H1 8385   6.592   2.318   3.346 -0.9258 -1.5304  2.6398
 2807TIP3    H2 8386   6.679   2.204   3.294  0.1103  0.3079  0.2262
 2808TIP3   OH2 8387   5.697   2.305   2.080 -0.1058  0.0957  0.0436
 2808TIP3    H1 8388   5.693   2.339   1.991 -0.2546 -0.4902 -0.1828
 2808TIP3    H2 8389   5.605   2.303   2.109  0.3028  5.2339  2.1722
 2809TIP3   OH2 8390   7.267   4.670   0.756  0.3978 -0.0364 -0.4569
 2809TIP3    H1 8391   7.320   4.679   0.835 -1.0364 -0.9997  0.6365
 2809TIP3    H2 8392   7.318   4.612   0.699  0.7836 -0.5081  0.3597
 2810TIP3   OH2 8393   1.639   5.885   5.527  0.0414  0.0517 -0.3079
 2810TIP3    H1 8394   1.729   5.855   5.526 -0.3775 -1.1854 -2.3326
 2810TIP3    H2 8395   1.645   5.980   5.521  1.1758 -0.0661 -1.0329
 2811TIP3   OH2 8396   6.686   4.276   2.328 -0.0011  0.7023  0.0335
 2811TIP3    H1 8397   6.725   4.275   2.241  1.7605  0.6174  0.8170
 2811TIP3    H2 8398   6.592   4.290   2.311  0.3509  0.9854 -1.8475
 2812TIP3   OH2 8399   5.013   2.451   0.975 -0.5947  0.1791  0.3175
 2812TIP3    H1 8400   4.959   2.462   1.053 -1.3123 -0.1126 -0.1274
 2812TIP3    H2 8401   5.051   2.363   0.984  1.8357  1.3291  1.8546
 2813TIP3   OH2 8402   6.394   1.287   0.941  0.0657  0.5760  0.1441
 2813TIP3    H1 8403   6.401   1.303   1.035 -0.8408  1.7536  0.0035
 2813TIP3    H2 8404   6.301   1.272   0.925  0.1527  0.8431 -0.6438
 2814TIP3   OH2 8405   5.197   0.886  -0.005  0.0492  0.4027  0.3658
 2814TIP3    H1 8406   5.263   0.879   0.064 -0.0266  0.3810  0.4353
 2814TIP3    H2 8407   5.158   0.973   0.008  0.2084  0.5015  0.1948
 2815TIP3   OH2 8408   6.116   5.622   5.235 -0.8092 -0.0152 -0.5683
 2815TIP3    H1 8409   6.170   5.636   5.157  1.2723 -0.9754  0.6628
 2815TIP3    H2 8410   6.097   5.529   5.235  0.6985 -0.3381  1.0158
 2816TIP3   OH2 8411   6.354   1.380   3.289  0.1392  0.1375 -0.0562
 2816TIP3    H1 8412   6.291   1.441   3.251 -0.9445  0.7494  2.5753
 2816TIP3    H2 8413   6.414   1.436   3.339  0.3342 -0.7772  0.7488
 2817TIP3   OH2 8414   1.476   2.969   1.748 -0.2786 -0.2214  0.1506
 2817TIP3    H1 8415   1.499   3.047   1.799 -2.6865  0.3550  0.4345
 2817TIP3    H2 8416   1.492   2.994   1.657 -0.6678  0.4762  0.2673
 2818TIP3   OH2 8417   5.481   1.858   4.444  0.0513 -0.3508 -0.5286
 2818TIP3    H1 8418   5.529   1.844   4.526 -0.0402  2.7299  0.1099
 2818TIP3    H2 8419   5.390   1.866   4.470 -0.0182  0.2815 -0.9434
 2819TIP3   OH2 8420   6.976   2.815   1.309 -0.0497 -0.1429  0.1352
 2819TIP3    H1 8421   7.042   2.825   1.377  0.1183 -0.2911 -0.0029
 2819TIP3    H2 8422   7.027   2.808   1.228 -0.3294  2.0890 -0.2455
 2820TIP3   OH2 8423   0.042   2.845   1.629  0.4948 -0.2973 -0.2615
 2820TIP3    H1 8424   0.030   2.940   1.627  2.8418  0.0416  0.1627
 2820TIP3    H2 8425   0.136   2.833   1.637  0.1180 -2.6735  1.0217
 2821TIP3   OH2 8426   0.075   2.384   3.070 -0.3448  0.7559  0.3146
 2821TIP3    H1 8427   0.170   2.377   3.059 -0.4040 -0.4888  0.5939
 2821TIP3    H2 8428   0.045   2.427   2.989  0.4338  1.0510  0.1772
 2822TIP3   OH2 8429   5.064   2.814   4.952 -0.6618  0.0152  0.0664
 2822TIP3    H1 8430   4.983   2.771   4.981 -0.4355 -0.9068 -0.6605
 2822TIP3    H2 8431   5.105   2.751   4.894  0.0743  0.9042 -0.3852
 2823TIP3   OH2 8432   6.016   2.466   1.147 -0.1794  0.6558 -0.4479
 2823TIP3    H1 8433   6.073   2.417   1.206  0.8468  2.7519  0.3426
 2823TIP3    H2 8434   5.968   2.399   1.099 -0.1884 -1.1043  1.9428
 2824TIP3   OH2 8435   7.366   1.689   0.819  0.2858  0.1806 -0.6006
 2824TIP3    H1 8436   7.345   1.776   0.853 -1.7533  0.4417 -2.3840
 2824TIP3    H2 8437   7.442   1.702   0.763  1.5056  0.3620  1.0863
 2825TIP3   OH2 8438   4.445   2.964   3.945 -0.2446  0.2769 -0.1882
 2825TIP3    H1 8439   4.427   2.913   3.866 -0.2267 -0.0728  0.0286
 2825TIP3    H2 8440   4.410   2.910   4.016 -1.6050  1.2820 -0.0831
 2826TIP3   OH2 8441   5.496   3.596   2.556 -0.4418 -0.7794  0.1944
 2826TIP3    H1 8442   5.461   3.654   2.488  0.0028 -2.1233 -1.1850
 2826TIP3    H2 8443   5.467   3.637   2.638  0.1848  1.6138 -0.7243
 2827TIP3   OH2 8444   6.494   2.411   1.382  0.3454 -0.5548  0.6720
 2827TIP3    H1 8445   6.401   2.429   1.395  0.6192  1.4572  0.1034
 2827TIP3    H2 8446   6.497   2.343   1.314 -0.7120 -0.5803  0.6547
 2828TIP3   OH2 8447   4.820   3.417   1.020  0.7219 -0.2140 -0.5051
 2828TIP3    H1 8448   4.787   3.397   1.108 -0.6940 -2.8011 -1.5831
 2828TIP3    H2 8449   4.751   3.469   0.980  0.2573 -1.1363 -0.9221
 2829TIP3   OH2 8450   3.743   1.135   3.367  0.1014 -0.6314  0.3442
 2829TIP3    H1 8451   3.672   1.084   3.405 -1.1164  0.8011  0.0632
 2829TIP3    H2 8452   3.726   1.132   3.273 -0.1535  0.4994  0.3437
 2830TIP3   OH2 8453   6.541   2.417   1.084  0.3179  0.5312  0.6497
 2830TIP3    H1 8454   6.472   2.385   1.027 -0.3214 -0.8870  2.1748
 2830TIP3    H2 8455   6.510   2.504   1.112 -0.3711  0.3204  0.5496
 2831TIP3   OH2 8456   5.347   3.543   1.855 -0.7507  0.3834 -0.0954
 2831TIP3    H1 8457   5.356   3.574   1.945 -0.2658 -0.2697  0.0876
 2831TIP3    H2 8458   5.384   3.454   1.857 -1.5009  0.0567 -0.7530
 2832TIP3   OH2 8459   0.193   1.196   2.877 -0.1179 -0.1922 -1.0554
 2832TIP3    H1 8460   0.109   1.237   2.857 -0.3342 -0.1579 -0.0761
 2832TIP3    H2 8461   0.231   1.249   2.946  0.1894 -0.8756 -0.6906
 2833TIP3   OH2 8462   3.255   4.070   2.700  0.2180  0.5522  0.1506
 2833TIP3    H1 8463   3.178   4.045   2.649 -1.4873  5.0995  0.2920
 2833TIP3    H2 8464   3.227   4.147   2.749  3.9059  0.3470  2.7391
 2834TIP3   OH2 8465   5.657   3.786   3.255  0.2640  0.1483  0.4004
 2834TIP3    H1 8466   5.715   3.820   3.323  1.1868  0.4931 -0.5340
 2834TIP3    H2 8467   5.570   3.816   3.280  0.8874  2.1972  0.2569
 2835TIP3   OH2 8468   4.017   4.738   2.814  0.1450 -0.0705  0.3766
 2835TIP3    H1 8469   3.924   4.715   2.811  0.5117 -1.5427 -0.0595
 2835TIP3    H2 8470   4.022   4.825   2.774 -1.0785  0.1252  0.6478
 2836TIP3   OH2 8471   5.911   1.929   0.974 -0.1604  0.2759 -0.7823
 2836TIP3    H1 8472   5.940   2.019   0.988 -1.7503  0.7314 -0.3228
 2836TIP3    H2 8473   5.906   1.920   0.879  3.0643 -0.3528 -0.9538
 2837TIP3   OH2 8474   7.080   3.330   2.140  0.1449  0.6912  0.0549
 2837TIP3    H1 8475   7.100   3.314   2.232  3.2435 -0.3728 -0.7434
 2837TIP3    H2 8476   7.102   3.248   2.096 -2.1710  0.8709 -1.5547
 2838TIP3   OH2 8477   4.450   4.516   1.753 -0.3220  0.0468 -0.2186
 2838TIP3    H1 8478   4.494   4.560   1.680 -0.2564 -1.5862 -1.1828
 2838TIP3    H2 8479   4.361   4.501   1.721 -1.3791  2.5464  1.3943
 2839TIP3   OH2 8480   4.992   3.450   3.034  0.1128  0.3584 -0.2975
 2839TIP3    H1 8481   5.054   3.448   3.107  0.2176 -0.1665 -0.4006
 2839TIP3    H2 8482   4.941   3.369   3.044  0.5221 -0.0004 -1.1577
 2840TIP3   OH2 8483   5.625   6.913   1.815 -0.2440 -0.5562 -0.3325
 2840TIP3    H1 8484   5.640   6.848   1.884  1.0765 -0.3364 -0.4044
 2840TIP3    H2 8485   5.538   6.948   1.834 -0.5663 -1.6578  0.2712
 2841TIP3   OH2 8486   0.387   0.768   0.020 -0.3679  0.1012 -0.0030
 2841TIP3    H1 8487   0.357   0.719   0.096  0.0257  0.2797  0.2704
 2841TIP3    H2 8488   0.385   0.705  -0.052  1.4061 -0.6864  0.6147
 2842TIP3   OH2 8489   6.278   0.854   1.494 -0.2852  0.1110  0.2478
 2842TIP3    H1 8490   6.194   0.897   1.480 -0.5508 -0.7370 -0.8362
 2842TIP3    H2 8491   6.261   0.762   1.472  1.1403  0.0980 -0.8245
 2843TIP3   OH2 8492   6.588   2.373   0.543 -0.3548  0.5938  0.4864
 2843TIP3    H1 8493   6.621   2.396   0.629  0.7884  1.8960 -0.2843
 2843TIP3    H2 8494   6.645   2.301   0.514  0.1859  1.1381  0.2067
 2844TIP3   OH2 8495   6.546   2.111   2.954  0.0323  0.7067 -0.1608
 2844TIP3    H1 8496   6.620   2.093   3.013  0.9269 -0.0609 -1.4876
 2844TIP3    H2 8497   6.504   2.025   2.942 -0.2515  0.8952 -0.5083
 2845TIP3   OH2 8498   5.682   0.164   4.494  0.4216 -0.1641  0.1505
 2845TIP3    H1 8499   5.674   0.076   4.530 -1.0059 -0.6037 -1.2404
 2845TIP3    H2 8500   5.710   0.152   4.404 -1.4466  0.7460 -0.5648
 2846TIP3   OH2 8501   0.184   1.867   2.927  0.1905  0.3309 -0.2893
 2846TIP3    H1 8502   0.218   1.818   2.852  2.4415  1.9586 -0.3778
 2846TIP3    H2 8503   0.153   1.950   2.890 -0.4829  0.3654  0.3242
 2847TIP3   OH2 8504   4.036   2.742   2.487  0.4666 -0.1709  0.3492
 2847TIP3    H1 8505   4.057   2.656   2.524  0.0576 -0.2788  0.3317
 2847TIP3    H2 8506   4.029   2.800   2.563 -0.9769 -0.5194  0.5002
 2848TIP3   OH2 8507   6.853   0.784   1.342  0.1463 -0.0298  0.1939
 2848TIP3    H1 8508   6.904   0.705   1.325 -1.3955 -1.0690  0.2879
 2848TIP3    H2 8509   6.813   0.768   1.428  1.2076  1.6040  1.0154
 2849TIP3   OH2 8510   7.266   0.360   1.345  0.3950  0.0902  0.1201
 2849TIP3    H1 8511   7.265   0.265   1.338 -1.6307 -0.1251  2.5315
 2849TIP3    H2 8512   7.339   0.379   1.404  1.4568  0.1339 -1.1827
 2850TIP3   OH2 8513   2.055   2.116   1.263  0.4709 -0.5081 -0.3255
 2850TIP3    H1 8514   2.100   2.058   1.325  1.1190  1.4917  1.1540
 2850TIP3    H2 8515   1.970   2.075   1.248  1.0984 -2.0745  0.3182
 2851TIP3   OH2 8516   7.253   3.259   0.130  0.2370 -0.2540 -0.0247
 2851TIP3    H1 8517   7.297   3.249   0.045  1.6015 -0.1092  0.6604
 2851TIP3    H2 8518   7.306   3.322   0.178 -1.6333  1.1766  0.2194
 2852TIP3   OH2 8519   5.173   2.604   4.781  0.5895  0.1536  0.1458
 2852TIP3    H1 8520   5.255   2.641   4.749 -0.7239  2.2632 -0.8729
 2852TIP3    H2 8521   5.198   2.518   4.816  2.7762 -0.4340 -2.6570
 2853TIP3   OH2 8522   6.781   1.673   1.610 -0.1375  0.3291  0.1957
 2853TIP3    H1 8523   6.816   1.762   1.602  0.0402  0.3131  0.7278
 2853TIP3    H2 8524   6.753   1.650   1.522  2.1986 -0.0521 -0.4927
 2854TIP3   OH2 8525   5.831   3.436   0.812  0.0766  0.0567  0.5646
 2854TIP3    H1 8526   5.904   3.466   0.867 -0.8564 -2.1584  3.0892
 2854TIP3    H2 8527   5.768   3.508   0.815  0.5138  0.4057  1.4592
 2855TIP3   OH2 8528   7.187   0.540   2.711 -0.0213  0.2619  0.1122
 2855TIP3    H1 8529   7.169   0.447   2.723  0.7225  0.2022  0.8148
 2855TIP3    H2 8530   7.269   0.542   2.660 -0.6324  0.5308 -0.8711
 2856TIP3   OH2 8531   6.236   2.385   3.398  0.0930 -0.4750  0.3105
 2856TIP3    H1 8532   6.298   2.402   3.469  0.8097  1.1075 -0.6637
 2856TIP3    H2 8533   6.255   2.296   3.370 -0.4108 -1.2315  2.2988
 2857TIP3   OH2 8534   4.516   2.362   1.457 -0.2757 -0.2861 -0.4163
 2857TIP3    H1 8535   4.493   2.453   1.473  0.2743 -0.2705  0.2824
 2857TIP3    H2 8536   4.559   2.333   1.537  1.6549 -0.4694 -1.4913
 2858TIP3   OH2 8537   1.086   2.961   3.698 -0.4521 -0.1184  0.4504
 2858TIP3    H1 8538   1.114   3.044   3.736 -0.6618 -0.4615  1.3599
 2858TIP3    H2 8539   1.167   2.923   3.663 -0.2834  0.2651  0.4154
 2859TIP3   OH2 8540   0.032   2.779   1.032  0.3518  0.3458  0.1335
 2859TIP3    H1 8541   0.047   2.868   1.001 -2.2505  0.7797  0.0457
 2859TIP3    H2 8542   0.062   2.781   1.123 -2.5937  2.2394  1.1474
 2860TIP3   OH2 8543   0.049   5.179   2.414  0.6436  0.2829  0.2609
 2860TIP3    H1 8544   0.133   5.135   2.408 -0.8428 -2.5758 -0.3126
 2860TIP3    H2 8545   0.019   5.187   2.324 -0.9532 -1.2779  0.6245
 2861TIP3   OH2 8546   5.260   1.686   5.557 -0.6972  0.0243  0.3257
 2861TIP3    H1 8547   5.267   1.608   5.502 -0.7254  0.2406  0.0181
 2861TIP3    H2 8548   5.255   1.651   5.646  1.4457 -0.2408  0.3632
 2862TIP3   OH2 8549   0.460   3.499   2.258  0.0603 -0.2600  0.2473
 2862TIP3    H1 8550   0.400   3.464   2.192 -1.1897 -1.2574  1.8778
 2862TIP3    H2 8551   0.446   3.593   2.257  2.0290  0.0606 -2.8126
 2863TIP3   OH2 8552   1.284   3.887   2.517 -0.3030  0.0037 -0.1646
 2863TIP3    H1 8553   1.308   3.814   2.574  1.7309 -0.0779 -1.0990
 2863TIP3    H2 8554   1.218   3.850   2.458 -0.2654 -0.7046  0.2348
 2864TIP3   OH2 8555   1.924   5.300   5.389  0.2095  0.2634 -0.0335
 2864TIP3    H1 8556   1.906   5.225   5.446 -0.0050 -0.1973 -0.7101
 2864TIP3    H2 8557   1.875   5.283   5.309  0.5971  0.8620 -0.4059
 2865TIP3   OH2 8558   6.883   1.765   1.176  0.9015 -0.1927 -0.0857
 2865TIP3    H1 8559   6.970   1.735   1.147  0.7662 -0.9940  0.3252
 2865TIP3    H2 8560   6.827   1.753   1.099  0.4003 -2.9256  0.6694
 2866TIP3   OH2 8561   6.643   4.276   1.193  0.0613  0.0079 -0.4342
 2866TIP3    H1 8562   6.629   4.183   1.210 -0.3861  0.0979 -0.2976
 2866TIP3    H2 8563   6.629   4.285   1.099 -2.3834  0.3633 -0.0644
 2867TIP3   OH2 8564   0.776   2.666   0.213  0.0082 -0.1347 -0.2969
 2867TIP3    H1 8565   0.837   2.729   0.253  0.9710 -0.9205 -0.5166
 2867TIP3    H2 8566   0.704   2.660   0.275  0.8329 -0.2794  0.6674
 2868TIP3   OH2 8567   4.794   0.056   6.053  0.2231  0.0847 -0.3330
 2868TIP3    H1 8568   4.726   0.123   6.062  0.4123  0.0148  2.1085
 2868TIP3    H2 8569   4.778   0.016   5.968 -2.4446  0.4738 -0.0613
 2869TIP3   OH2 8570   0.180   5.506   1.828 -0.1603 -0.2105 -0.5573
 2869TIP3    H1 8571   0.198   5.463   1.911  1.9279  0.8199 -0.4476
 2869TIP3    H2 8572   0.085   5.500   1.818 -0.1576 -2.6840  0.5961
 2870TIP3   OH2 8573   7.279   2.862   1.862  0.3360  0.0971 -0.0056
 2870TIP3    H1 8574   7.289   2.775   1.902  0.1631 -0.1951 -0.5929
 2870TIP3    H2 8575   7.312   2.851   1.773 -1.1452  0.2388 -0.5797
 2871TIP3   OH2 8576   6.567   4.708   1.798 -0.2965  0.3866 -0.2579
 2871TIP3    H1 8577   6.560   4.791   1.750  0.2043  0.2504 -0.5638
 2871TIP3    H2 8578   6.610   4.732   1.880  2.4036 -0.0230 -1.5086
 2872TIP3   OH2 8579   1.745   0.299   3.215 -0.1331  0.5135  0.4641
 2872TIP3    H1 8580   1.773   0.388   3.235 -1.2313  1.1695 -0.8944
 2872TIP3    H2 8581   1.663   0.288   3.263 -0.4107  0.5172 -0.0049
 2873TIP3   OH2 8582   2.593   4.928   3.884 -0.5194 -0.1312  0.0274
 2873TIP3    H1 8583   2.601   4.999   3.820  1.2848  0.2106  0.5906
 2873TIP3    H2 8584   2.590   4.972   3.969 -1.9633 -0.6269  0.2470
 2874TIP3   OH2 8585   7.324   2.740   2.525  0.0248 -0.6604  0.1961
 2874TIP3    H1 8586   7.249   2.745   2.585  1.3924 -0.2063  1.9369
 2874TIP3    H2 8587   7.365   2.827   2.531  0.6313 -0.8729 -0.8062
 2875TIP3   OH2 8588   7.107   3.868   5.225 -0.4052 -0.0306  0.5402
 2875TIP3    H1 8589   7.179   3.915   5.184 -0.6260 -0.8787 -0.8256
 2875TIP3    H2 8590   7.144   3.833   5.306  0.4003  0.4983  0.3991
 2876TIP3   OH2 8591   3.705   5.815   3.953 -0.1820 -0.2700  0.5908
 2876TIP3    H1 8592   3.733   5.869   3.879 -0.6570 -0.1506  0.4973
 2876TIP3    H2 8593   3.626   5.858   3.985  0.4184  0.0883  1.6155
 2877TIP3   OH2 8594   7.110   3.792   3.207 -0.1946  0.0822 -0.1734
 2877TIP3    H1 8595   7.090   3.846   3.283 -0.4852  0.1186 -0.2738
 2877TIP3    H2 8596   7.081   3.846   3.132 -0.8910 -0.3975 -0.2503
 2878TIP3   OH2 8597   0.709   3.663   4.882 -0.8718 -0.8121  0.3880
 2878TIP3    H1 8598   0.770   3.715   4.934  0.7881 -1.0282 -1.2614
 2878TIP3    H2 8599   0.736   3.572   4.897 -2.0852 -1.0549  1.2036
 2879TIP3   OH2 8600   7.232   2.575   3.304  0.2287  0.2673 -0.6157
 2879TIP3    H1 8601   7.166   2.544   3.241 -2.5960  0.6166  2.0520
 2879TIP3    H2 8602   7.248   2.499   3.360 -0.1062  1.0539  0.5487
 2880TIP3   OH2 8603   6.116   1.647   3.538 -0.2071  0.1469  0.1505
 2880TIP3    H1 8604   6.079   1.698   3.466 -0.4503 -1.3329 -0.7894
 2880TIP3    H2 8605   6.199   1.689   3.558  0.0952  0.2529 -1.3363
 2881TIP3   OH2 8606   0.104   4.822   4.284  0.0302 -0.0262 -0.3268
 2881TIP3    H1 8607   0.090   4.742   4.335 -1.6952  1.1920  1.1579
 2881TIP3    H2 8608   0.052   4.808   4.205  0.2274 -0.6389 -0.3544
 2882TIP3   OH2 8609   0.107   2.408   0.378 -0.2306 -0.4716 -0.3741
 2882TIP3    H1 8610   0.132   2.341   0.442 -1.9765  0.7326  1.6372
 2882TIP3    H2 8611   0.046   2.363   0.319  0.7541 -1.3705 -0.7309
 2883TIP3   OH2 8612   2.060   3.031   5.829 -0.2358 -0.5839 -0.1520
 2883TIP3    H1 8613   2.015   3.041   5.746 -0.3311  1.9476  0.1686
 2883TIP3    H2 8614   2.142   3.079   5.817 -0.7701  0.8079  1.5719
 2884TIP3   OH2 8615   7.360   4.351   3.558 -0.7634 -0.7319  0.2392
 2884TIP3    H1 8616   7.439   4.325   3.605 -1.2248  1.1537  2.1330
 2884TIP3    H2 8617   7.290   4.301   3.599 -0.9152 -0.5012  0.2588
 2885TIP3   OH2 8618   0.521   3.484   1.870  0.5125 -0.8002 -0.0885
 2885TIP3    H1 8619   0.588   3.444   1.814 -0.0520  0.7303 -1.9053
 2885TIP3    H2 8620   0.555   3.571   1.890 -0.6185 -0.2531 -0.4956
 2886TIP3   OH2 8621   0.822   2.731   4.057  0.0400 -0.1258  0.1793
 2886TIP3    H1 8622   0.824   2.636   4.062 -2.5591 -0.4966 -3.4154
 2886TIP3    H2 8623   0.912   2.756   4.033  0.3518 -1.8395 -0.5305
 2887TIP3   OH2 8624   6.884   3.429   2.787  0.0238  0.1659  0.1342
 2887TIP3    H1 8625   6.810   3.381   2.824 -0.4362  0.8387  0.0965
 2887TIP3    H2 8626   6.956   3.413   2.848 -0.7529  1.3606  1.3858
 2888TIP3   OH2 8627   5.656   4.138   3.348 -0.1235  0.1699 -0.8992
 2888TIP3    H1 8628   5.619   4.131   3.260  0.8976  0.3480 -1.3563
 2888TIP3    H2 8629   5.723   4.070   3.351  0.6744  0.9522 -0.6861
 2889TIP3   OH2 8630   2.101   3.412   3.598 -0.3972 -0.0192 -0.0014
 2889TIP3    H1 8631   2.167   3.348   3.625  0.4719  0.4100 -1.0599
 2889TIP3    H2 8632   2.050   3.430   3.677  0.9193 -0.1806  0.8890
 2890TIP3   OH2 8633   0.842   2.365   2.146 -0.5250  0.5642  0.0573
 2890TIP3    H1 8634   0.822   2.432   2.080 -1.0416  0.6495  0.2975
 2890TIP3    H2 8635   0.811   2.283   2.107 -0.7882  0.6079  0.1758
 2891TIP3   OH2 8636   0.470   3.008   4.623 -0.1360  0.4266 -0.0136
 2891TIP3    H1 8637   0.442   3.009   4.714 -1.9833 -0.4123 -0.5511
 2891TIP3    H2 8638   0.510   3.094   4.609 -1.3126  1.1726  1.1360
 2892TIP3   OH2 8639   0.678   4.788   3.094 -0.3199  0.1171 -0.0745
 2892TIP3    H1 8640   0.633   4.704   3.107  1.2109 -0.6747  0.2483
 2892TIP3    H2 8641   0.711   4.783   3.004 -0.6257  0.5762 -0.2129
 2893TIP3   OH2 8642   0.653   3.763   5.366  0.4151  0.0853 -0.4617
 2893TIP3    H1 8643   0.662   3.857   5.376  1.1820 -0.0183 -0.0946
 2893TIP3    H2 8644   0.729   3.727   5.412 -0.4393 -0.7456  0.3197
 2894TIP3   OH2 8645   5.507   5.128   3.383 -0.1496  0.0212  0.4772
 2894TIP3    H1 8646   5.549   5.158   3.464 -2.0111 -0.5315  1.6809
 2894TIP3    H2 8647   5.485   5.209   3.336 -0.7746  0.4210  1.4316
 2895TIP3   OH2 8648   5.871   3.138   1.576  0.5866 -0.3268  0.2926
 2895TIP3    H1 8649   5.938   3.200   1.604  0.5299  0.4010 -1.1236
 2895TIP3    H2 8650   5.827   3.111   1.657  1.1244  0.8824  0.9914
 2896TIP3   OH2 8651   6.153   4.113   1.697 -0.5196 -0.4442  0.2419
 2896TIP3    H1 8652   6.132   4.186   1.754 -1.1596  0.4232 -1.0776
 2896TIP3    H2 8653   6.230   4.073   1.737 -0.1245  0.9769  0.9479
 2897TIP3   OH2 8654   1.496   4.592   4.561 -0.8338  0.0956 -0.8762
 2897TIP3    H1 8655   1.573   4.564   4.610 -0.4761  2.3051 -0.1267
 2897TIP3    H2 8656   1.440   4.514   4.557  1.2658 -1.4483 -1.1466
 2898TIP3   OH2 8657   0.131   4.492   1.952 -0.1527  0.0755  0.5183
 2898TIP3    H1 8658   0.076   4.568   1.971 -0.4932 -0.1650  0.4960
 2898TIP3    H2 8659   0.195   4.525   1.888 -2.4653 -0.5007 -2.2125
 2899TIP3   OH2 8660   6.769   0.949   4.400  0.4835 -0.1582 -0.2204
 2899TIP3    H1 8661   6.745   0.935   4.308  2.5889  1.9672 -1.1275
 2899TIP3    H2 8662   6.860   0.920   4.406  0.5587  0.3259  1.0646
 2900TIP3   OH2 8663   1.975   3.630   1.784 -0.1659 -0.4383  0.0361
 2900TIP3    H1 8664   1.955   3.601   1.695  1.6264  0.7742 -0.7970
 2900TIP3    H2 8665   2.057   3.586   1.806  0.5278  0.9366  0.2544
 2901TIP3   OH2 8666   1.075   3.217   2.229  0.1367  0.3746 -0.3763
 2901TIP3    H1 8667   1.163   3.191   2.203  0.0969  0.5995 -0.7287
 2901TIP3    H2 8668   1.017   3.165   2.174  0.0514  0.5077 -0.4120
 2902TIP3   OH2 8669   7.070   2.909   2.903  0.6501  0.3219  0.0120
 2902TIP3    H1 8670   6.991   2.941   2.946  1.0062  2.5302 -0.8884
 2902TIP3    H2 8671   7.120   2.867   2.973 -0.5461  0.4119  0.9342
 2903TIP3   OH2 8672   6.576   4.456   2.669  0.7733  0.1868  0.1144
 2903TIP3    H1 8673   6.516   4.385   2.644  0.3535  0.9866 -1.2334
 2903TIP3    H2 8674   6.660   4.413   2.680  0.2963 -0.6912  0.3847
 2904TIP3   OH2 8675   2.125   4.128   4.369 -0.0749 -0.3003 -0.0449
 2904TIP3    H1 8676   2.030   4.123   4.365 -0.2261  1.3524  1.2154
 2904TIP3    H2 8677   2.151   4.157   4.281 -0.7925  0.2246 -0.0799
 2905TIP3   OH2 8678   7.116   4.535   0.983 -0.7766 -0.2153  0.0120
 2905TIP3    H1 8679   7.144   4.608   0.929 -1.5390 -0.8275 -1.2390
 2905TIP3    H2 8680   7.173   4.462   0.958 -1.1725 -0.5227 -0.0078
 2906TIP3   OH2 8681   4.371   1.977   2.639 -0.3995  0.3086 -0.7456
 2906TIP3    H1 8682   4.279   1.983   2.610 -1.1560 -1.0073  1.2663
 2906TIP3    H2 8683   4.395   1.886   2.621  0.0086  0.2429  0.1287
 2907TIP3   OH2 8684   5.761   3.586   1.405 -0.0108  0.1615  0.3128
 2907TIP3    H1 8685   5.728   3.664   1.450  0.3660  0.6423 -0.2552
 2907TIP3    H2 8686   5.708   3.580   1.325 -0.4026 -0.4677  0.6103
 2908TIP3   OH2 8687   2.501   4.358   2.542  0.9061  0.1199 -0.8134
 2908TIP3    H1 8688   2.571   4.293   2.544  0.3969 -0.4665 -1.8140
 2908TIP3    H2 8689   2.459   4.346   2.457  0.7148  1.6606 -0.9503
 2909TIP3   OH2 8690   0.172   3.640   3.456  0.5315  0.3395  0.1376
 2909TIP3    H1 8691   0.152   3.553   3.421  0.3833  0.8134 -0.9816
 2909TIP3    H2 8692   0.114   3.699   3.407  1.6217  1.2247 -0.0990
 2910TIP3   OH2 8693   6.719   3.282   5.470 -0.2248 -0.0953 -0.3104
 2910TIP3    H1 8694   6.735   3.322   5.384 -1.7736 -1.5409 -1.2875
 2910TIP3    H2 8695   6.696   3.356   5.526 -1.6881  0.5881 -1.7649
 2911TIP3   OH2 8696   6.076   3.361   3.011 -0.4277  0.1793 -0.3146
 2911TIP3    H1 8697   6.103   3.382   3.101 -1.4898 -2.2154  0.6003
 2911TIP3    H2 8698   6.130   3.286   2.986 -1.0686  0.0068 -1.1974
 2912TIP3   OH2 8699   1.110   3.969   4.780 -0.1401  0.3996  0.1419
 2912TIP3    H1 8700   1.082   3.894   4.832  1.0879  0.0704  0.3610
 2912TIP3    H2 8701   1.072   4.045   4.825 -1.1562 -0.0700  0.0756
 2913TIP3   OH2 8702   0.985   3.514   4.775 -0.3515  0.4195 -0.0158
 2913TIP3    H1 8703   0.968   3.435   4.826  0.0809  1.8286  2.4212
 2913TIP3    H2 8704   1.080   3.518   4.766 -0.3434  0.8288  0.2032
 2914TIP3   OH2 8705   1.174   3.067   4.703  0.5550  0.0902 -0.3591
 2914TIP3    H1 8706   1.132   2.982   4.714  0.2782  0.4405  1.3776
 2914TIP3    H2 8707   1.204   3.067   4.612 -1.5106 -0.9126 -1.0719
 2915TIP3   OH2 8708   6.843   4.040   2.754 -0.4087  0.2790  0.2621
 2915TIP3    H1 8709   6.896   3.970   2.714  1.7197  2.3165 -0.5827
 2915TIP3    H2 8710   6.767   4.048   2.695  0.0453 -0.3482 -0.4292
 2916TIP3   OH2 8711   7.121   4.030   3.907  0.3003 -0.0902 -0.2689
 2916TIP3    H1 8712   7.087   4.086   3.837 -0.8715 -1.0641 -0.4960
 2916TIP3    H2 8713   7.105   4.079   3.987 -1.3478 -0.3582 -0.4054
 2917TIP3   OH2 8714   0.366   1.233   2.070 -0.4994  0.2185  0.0647
 2917TIP3    H1 8715   0.302   1.262   2.006 -0.3395  1.4337  0.4285
 2917TIP3    H2 8716   0.419   1.311   2.087 -0.4412 -0.1238  1.5405
 2918TIP3   OH2 8717   6.790   4.871   3.662 -0.0635  0.4861  0.7388
 2918TIP3    H1 8718   6.739   4.853   3.741  0.0727  0.0136  0.7213
 2918TIP3    H2 8719   6.807   4.965   3.665 -0.1261  0.4814  1.2281
 2919TIP3   OH2 8720   1.558   3.033   3.703 -0.1670 -0.0560  0.3609
 2919TIP3    H1 8721   1.529   3.102   3.644 -1.5727 -0.7281  0.2270
 2919TIP3    H2 8722   1.602   3.079   3.775  0.6637  0.8252 -0.7009
 2920TIP3   OH2 8723   6.887   4.255   3.895  0.0175  0.2705 -0.3927
 2920TIP3    H1 8724   6.880   4.195   3.821  0.4221 -0.4914  0.1779
 2920TIP3    H2 8725   6.856   4.205   3.970  0.3193  0.7879  0.0839
 2921TIP3   OH2 8726   7.225   1.804   2.187 -0.4165  0.2311  0.5045
 2921TIP3    H1 8727   7.170   1.861   2.132  0.1681 -1.2204 -1.6343
 2921TIP3    H2 8728   7.313   1.815   2.152 -0.1941 -1.4865  0.5033
 2922TIP3   OH2 8729   1.595   4.159   4.606  0.1028  0.2911 -0.0389
 2922TIP3    H1 8730   1.604   4.254   4.601 -0.8553  0.3803 -0.1436
 2922TIP3    H2 8731   1.507   4.145   4.642  0.5367 -0.5472  0.6971
 2923TIP3   OH2 8732   0.702   3.214   5.477 -0.2815  0.3317  0.3298
 2923TIP3    H1 8733   0.790   3.177   5.482 -0.1817  0.8198  2.9838
 2923TIP3    H2 8734   0.644   3.143   5.505 -0.5837  0.5398  0.2361
 2924TIP3   OH2 8735   0.767   0.290   4.176  0.0383  0.1552 -0.3105
 2924TIP3    H1 8736   0.757   0.208   4.224  2.3101 -1.0364 -1.8146
 2924TIP3    H2 8737   0.732   0.272   4.088  0.0178  0.9862 -0.4845
 2925TIP3   OH2 8738   1.389   3.326   2.918 -0.0502  0.1633 -0.6048
 2925TIP3    H1 8739   1.334   3.266   2.969 -0.3956  0.5101 -0.5749
 2925TIP3    H2 8740   1.416   3.393   2.981 -0.5806  0.6617 -0.9178
 2926TIP3   OH2 8741   1.521   3.638   5.518 -0.0299  0.8875 -0.0198
 2926TIP3    H1 8742   1.487   3.548   5.523  1.0327  0.4744 -0.0697
 2926TIP3    H2 8743   1.449   3.693   5.550  0.0635 -0.1454  1.9920
 2927TIP3   OH2 8744   0.654   1.502   2.421 -0.1152  0.0746 -0.0206
 2927TIP3    H1 8745   0.582   1.440   2.431  1.2910 -1.6968 -0.6193
 2927TIP3    H2 8746   0.612   1.588   2.417 -2.0851 -0.8340  0.8863
 2928TIP3   OH2 8747   0.717   3.454   2.323  0.1361 -0.3246 -1.2882
 2928TIP3    H1 8748   0.689   3.409   2.403  1.3706  0.0769 -0.6240
 2928TIP3    H2 8749   0.636   3.491   2.287 -0.2718  0.3715  0.3192
 2929TIP3   OH2 8750   7.067   2.922   3.348  0.4855  0.1441 -0.3883
 2929TIP3    H1 8751   7.082   3.016   3.356  2.2846 -0.1794  0.4327
 2929TIP3    H2 8752   6.997   2.913   3.283 -0.1339  2.0614  0.0131
 2930TIP3   OH2 8753   0.956   3.190   4.202  0.0291 -0.3262  0.2736
 2930TIP3    H1 8754   1.041   3.184   4.158  1.3264 -1.9053  2.9202
 2930TIP3    H2 8755   0.931   3.100   4.220 -0.6797  0.2524  2.3906
 2931TIP3   OH2 8756   5.527   2.684   4.401 -0.3694 -0.4800  0.1063
 2931TIP3    H1 8757   5.483   2.652   4.322 -0.4445 -0.5490  0.1755
 2931TIP3    H2 8758   5.566   2.767   4.375  1.8348 -1.7226 -0.7488
 2932TIP3   OH2 8759   0.041   2.975   3.091  0.4737  0.8756  0.3136
 2932TIP3    H1 8760  -0.002   3.057   3.116 -0.0205  0.6872  0.1052
 2932TIP3    H2 8761   0.090   2.998   3.012 -0.8179  0.6487 -0.5836
 2933TIP3   OH2 8762   0.353   3.965   5.135 -0.2166 -0.8080  0.3204
 2933TIP3    H1 8763   0.284   4.013   5.181 -0.8490 -1.5586  0.1557
 2933TIP3    H2 8764   0.386   3.903   5.199  1.9896  1.1798  1.1827
 2934TIP3   OH2 8765   0.761   1.851   2.531 -0.0403 -0.6064  0.1147
 2934TIP3    H1 8766   0.810   1.892   2.602  0.1952  1.3006 -1.1218
 2934TIP3    H2 8767   0.741   1.764   2.564  1.2831 -0.2533  1.9664
 2935TIP3   OH2 8768   1.114   4.368   4.703  0.3711  0.4029  0.4002
 2935TIP3    H1 8769   1.081   4.354   4.615  0.4498  1.0681  0.2597
 2935TIP3    H2 8770   1.089   4.290   4.752  0.5741 -0.0867 -0.2820
 2936TIP3   OH2 8771   0.579   2.319   3.893  0.2858 -0.0795  0.2506
 2936TIP3    H1 8772   0.579   2.297   3.800 -1.3780  2.1703 -0.3392
 2936TIP3    H2 8773   0.642   2.390   3.901  2.2335 -1.8853  1.3089
 2937TIP3   OH2 8774   0.400   1.817   1.693  0.0236  0.4108 -0.5093
 2937TIP3    H1 8775   0.451   1.746   1.732 -0.9131  0.9239  1.7105
 2937TIP3    H2 8776   0.460   1.891   1.692  0.0564  0.3927 -0.0556
 2938TIP3   OH2 8777   7.028   2.717   1.960 -0.4405 -0.5412 -0.0283
 2938TIP3    H1 8778   6.948   2.715   1.907 -0.7051 -0.6971  0.3683
 2938TIP3    H2 8779   7.035   2.808   1.989 -0.6194 -0.5812  0.1468
 2939TIP3   OH2 8780   6.795   3.322   2.173 -0.1631  0.2642  0.2678
 2939TIP3    H1 8781   6.700   3.339   2.177 -0.3218 -0.5950  0.1779
 2939TIP3    H2 8782   6.806   3.240   2.220  0.5901  0.5356  0.5632
 2940TIP3   OH2 8783   0.992   4.172   6.010 -0.3486  0.4717  0.0737
 2940TIP3    H1 8784   0.948   4.226   6.077  0.8464  1.0380  0.4221
 2940TIP3    H2 8785   0.924   4.112   5.980 -0.9438  0.2687  1.7400
 2941TIP3   OH2 8786   1.277   2.742   4.837  0.6034  0.0385  0.5421
 2941TIP3    H1 8787   1.259   2.658   4.795  0.0084  0.7395 -0.6784
 2941TIP3    H2 8788   1.324   2.792   4.770 -0.7835  1.3515  0.5137
 2942TIP3   OH2 8789   2.978   4.770   2.771 -0.6746 -0.4987  0.3595
 2942TIP3    H1 8790   3.043   4.711   2.732  1.6531  1.3191  1.3745
 2942TIP3    H2 8791   2.959   4.833   2.702 -0.6880 -0.4942  0.3678
 2943TIP3   OH2 8792   7.391   5.995   1.675  0.1371  0.1102  0.0927
 2943TIP3    H1 8793   7.311   6.028   1.715 -0.6088 -1.1262 -0.3539
 2943TIP3    H2 8794   7.432   6.073   1.635 -0.6877  0.7899  0.5713
 2944TIP3   OH2 8795   0.977   2.137   3.560 -0.1601 -0.5264 -0.0862
 2944TIP3    H1 8796   0.936   2.116   3.645 -0.2376 -1.7100 -0.4155
 2944TIP3    H2 8797   0.954   2.064   3.504  2.1942 -1.0707 -0.3686
 2945TIP3   OH2 8798   4.441   0.881   2.499 -0.2201  0.2718  0.3336
 2945TIP3    H1 8799   4.446   0.930   2.581  0.1240  0.8850 -0.0486
 2945TIP3    H2 8800   4.489   0.800   2.517  0.4953  0.7245  0.5180
 2946TIP3   OH2 8801   1.815   2.660   3.429 -0.3650  0.1395  0.3010
 2946TIP3    H1 8802   1.895   2.609   3.423 -0.3402  0.0656  1.0979
 2946TIP3    H2 8803   1.837   2.731   3.491 -0.7823  0.3595  0.1985
 2947TIP3   OH2 8804   6.812   3.226   2.979 -0.2017 -0.2439 -0.2904
 2947TIP3    H1 8805   6.839   3.142   3.016 -1.0909 -0.4270 -0.0487
 2947TIP3    H2 8806   6.719   3.216   2.960  0.0888  0.0529 -2.0081
 2948TIP3   OH2 8807   1.031   4.436   3.354 -0.1399  0.0301  0.2522
 2948TIP3    H1 8808   0.936   4.431   3.342  0.0510 -1.3365 -0.7710
 2948TIP3    H2 8809   1.064   4.352   3.323  1.2954 -0.0174  1.8147
 2949TIP3   OH2 8810   7.121   4.220   0.023 -0.2414  1.1997  0.2779
 2949TIP3    H1 8811   7.099   4.308  -0.009  0.9978  1.5076  0.2426
 2949TIP3    H2 8812   7.036   4.177   0.034 -0.7360  1.0653 -3.4750
 2950TIP3   OH2 8813   2.455   3.882   4.231  0.0360 -0.5661  0.0485
 2950TIP3    H1 8814   2.493   3.968   4.214  0.3278 -0.5247  0.8407
 2950TIP3    H2 8815   2.529   3.830   4.263 -0.5472 -0.4999  1.5770
 2951TIP3   OH2 8816   1.234   5.684   0.049 -0.1868 -0.2572  0.1290
 2951TIP3    H1 8817   1.223   5.779   0.044 -0.1433 -0.1708  1.4595
 2951TIP3    H2 8818   1.246   5.657  -0.042 -2.8172  0.6768 -0.5373
 2952TIP3   OH2 8819   6.258   1.972   3.830  0.0760  0.5690  0.2335
 2952TIP3    H1 8820   6.281   1.996   3.740  0.3778  0.8896  0.3960
 2952TIP3    H2 8821   6.306   2.034   3.885 -0.2694  0.5066  0.6114
 2953TIP3   OH2 8822   6.436   0.865   4.373 -0.1322 -0.0096 -0.3270
 2953TIP3    H1 8823   6.349   0.826   4.378 -0.0226 -0.4733 -1.8772
 2953TIP3    H2 8824   6.496   0.790   4.371  0.3687  0.3099  1.5470
 2954TIP3   OH2 8825   6.199   1.549   3.938  0.1977 -0.6398 -0.2821
 2954TIP3    H1 8826   6.149   1.491   3.995 -2.2581  1.1167 -0.5850
 2954TIP3    H2 8827   6.162   1.536   3.850 -0.0132  0.9263 -0.4547
 2955TIP3   OH2 8828   1.088   1.531   2.735 -0.1707 -0.2373  0.6356
 2955TIP3    H1 8829   1.124   1.481   2.662 -2.1619 -2.1919  0.9516
 2955TIP3    H2 8830   0.994   1.516   2.731 -0.6229  1.9825  1.8996
 2956TIP3   OH2 8831   0.856   1.251   2.724  0.2404  0.1221  0.2102
 2956TIP3    H1 8832   0.913   1.293   2.788 -1.0841  0.3464  1.2427
 2956TIP3    H2 8833   0.892   1.163   2.714  0.3056 -0.0002  1.4449
 2957TIP3   OH2 8834   0.093   2.989   3.962 -0.0682 -0.0937  0.5661
 2957TIP3    H1 8835   0.133   2.973   3.877  0.0172 -1.5386  0.8603
 2957TIP3    H2 8836   0.006   2.948   3.956  0.3913 -1.2502  1.5516
 2958TIP3   OH2 8837   1.517   4.075   4.916  0.3805  0.1974  0.3449
 2958TIP3    H1 8838   1.511   3.987   4.879  1.5045  1.5252 -3.2257
 2958TIP3    H2 8839   1.426   4.100   4.934 -0.1318 -0.9006 -0.6478
 2959TIP3   OH2 8840   6.759   2.236   3.727  0.6678  0.3077  0.3378
 2959TIP3    H1 8841   6.850   2.214   3.746  1.2754  1.9285 -0.5837
 2959TIP3    H2 8842   6.764   2.316   3.674 -1.2401 -0.2909 -0.7981
 2960TIP3   OH2 8843   0.181   4.483   0.371 -0.3051 -0.2630 -0.0067
 2960TIP3    H1 8844   0.212   4.394   0.354  0.3626  0.1770 -1.1641
 2960TIP3    H2 8845   0.175   4.523   0.285 -2.4569  0.2275  0.3281
 2961TIP3   OH2 8846   5.821   4.295   3.914  0.7271 -0.1468 -0.2712
 2961TIP3    H1 8847   5.811   4.316   3.821 -1.5126  0.2633  0.0275
 2961TIP3    H2 8848   5.904   4.249   3.920  0.4761 -0.9414 -2.6170
 2962TIP3   OH2 8849   2.202   3.092   4.768 -0.1200  0.1017 -0.7151
 2962TIP3    H1 8850   2.248   3.028   4.822  0.5079  1.3563  0.2511
 2962TIP3    H2 8851   2.187   3.166   4.826  0.3609  1.3796 -2.1821
 2963TIP3   OH2 8852   7.094   2.822   4.644  0.3940  0.2328  0.3892
 2963TIP3    H1 8853   7.087   2.742   4.696 -0.4745  0.3547  0.4589
 2963TIP3    H2 8854   7.184   2.820   4.611 -0.3125 -1.9823 -1.5401
 2964TIP3   OH2 8855   0.520   2.897   3.396  0.3620 -0.2005  0.7436
 2964TIP3    H1 8856   0.564   2.931   3.474 -1.1979 -1.1415  2.0557
 2964TIP3    H2 8857   0.513   2.803   3.412  0.8535 -0.5489 -0.9694
 2965TIP3   OH2 8858   6.921   1.410   1.019  0.0982  0.4761  0.2134
 2965TIP3    H1 8859   6.984   1.465   1.065  0.4817  1.4157 -1.3925
 2965TIP3    H2 8860   6.858   1.383   1.087  0.1698  2.5118  1.1251
 2966TIP3   OH2 8861   0.637   5.392   5.063 -0.3405 -0.6105  0.5442
 2966TIP3    H1 8862   0.612   5.398   5.155 -1.7728 -1.1034  0.2053
 2966TIP3    H2 8863   0.732   5.380   5.064 -0.1445  0.8950  1.8927
 2967TIP3   OH2 8864   1.290   3.388   3.575 -0.6663  0.2095  0.1707
 2967TIP3    H1 8865   1.362   3.449   3.588 -1.6364  1.0813  1.5485
 2967TIP3    H2 8866   1.283   3.379   3.480  0.6768  0.7998  0.0104
 2968TIP3   OH2 8867   5.687   2.059   1.353 -0.0066 -0.6023  0.1941
 2968TIP3    H1 8868   5.694   2.149   1.321 -0.1747 -0.1823  1.3090
 2968TIP3    H2 8869   5.663   2.008   1.276 -0.5766  0.4145 -0.3107
 2969TIP3   OH2 8870   5.978   3.666   0.148  0.0158  0.1534 -0.0979
 2969TIP3    H1 8871   6.045   3.615   0.103  1.8607  1.4620  1.0746
 2969TIP3    H2 8872   5.961   3.740   0.090 -1.1165 -0.6870 -0.8360
 2970TIP3   OH2 8873   1.333   2.813   4.431  0.4325  0.0874  0.8215
 2970TIP3    H1 8874   1.264   2.749   4.447  1.3744 -0.8818  1.0531
 2970TIP3    H2 8875   1.330   2.827   4.336  0.4735 -0.6065  0.7109
 2971TIP3   OH2 8876   1.140   0.210   0.869  0.0188  0.0547 -0.1863
 2971TIP3    H1 8877   1.073   0.248   0.812  0.4306 -0.1388 -0.8060
 2971TIP3    H2 8878   1.221   0.254   0.842  0.1707  0.1581  0.4359
 2972TIP3   OH2 8879   4.734   0.638   0.604  0.1864  0.0147  0.2864
 2972TIP3    H1 8880   4.802   0.698   0.572  0.8088 -1.3208 -0.9295
 2972TIP3    H2 8881   4.676   0.694   0.655  0.5796  1.7302 -1.0840
 2973TIP3   OH2 8882   7.213   3.836   2.500 -0.0728  0.2157  0.3295
 2973TIP3    H1 8883   7.225   3.759   2.445 -0.2950  0.4877 -0.1081
 2973TIP3    H2 8884   7.181   3.903   2.440 -1.8257  0.0869  1.0766
 2974TIP3   OH2 8885   6.544   0.427   0.150 -0.6585  0.2072 -0.2238
 2974TIP3    H1 8886   6.545   0.337   0.182 -2.7404  0.0163 -0.6414
 2974TIP3    H2 8887   6.584   0.478   0.221 -1.8517 -0.7096  1.1243
 2975TIP3   OH2 8888   6.592   4.773   3.461  0.4876 -0.5851 -0.0798
 2975TIP3    H1 8889   6.668   4.786   3.517  0.3479 -1.5755  0.3448
 2975TIP3    H2 8890   6.523   4.741   3.520  0.1195 -0.9203 -0.6780
 2976TIP3   OH2 8891   2.764   4.294   4.337 -0.2606  0.1279  0.2811
 2976TIP3    H1 8892   2.836   4.345   4.302 -1.2598  2.2400  1.2373
 2976TIP3    H2 8893   2.720   4.352   4.399 -2.4494 -1.2917  0.1468
 2977TIP3   OH2 8894   6.627   4.107   5.443  0.0691 -0.2318  0.4811
 2977TIP3    H1 8895   6.591   4.193   5.424  1.3602  0.6641  1.9752
 2977TIP3    H2 8896   6.629   4.062   5.359 -1.0630  1.0095 -0.2275
 2978TIP3   OH2 8897   7.130   1.740   4.739  0.0089  0.5255 -0.1196
 2978TIP3    H1 8898   7.058   1.678   4.751  1.1937 -0.7421  0.5881
 2978TIP3    H2 8899   7.136   1.786   4.823  0.7036 -0.1266  0.1964
 2979TIP3   OH2 8900   2.621   5.934   0.772  0.6940 -0.7689 -0.6744
 2979TIP3    H1 8901   2.552   5.962   0.833  0.6291  0.6792 -1.3892
 2979TIP3    H2 8902   2.680   6.010   0.767  0.2516 -0.5433 -3.0399
 2980TIP3   OH2 8903   4.344   6.694   1.874 -0.2897  0.1532 -0.1114
 2980TIP3    H1 8904   4.427   6.734   1.849 -0.4013  0.4537 -0.0038
 2980TIP3    H2 8905   4.310   6.750   1.944 -1.4338  1.0352 -1.3636
 2981TIP3   OH2 8906   1.230   4.973   0.016 -0.5474 -0.2411  0.2739
 2981TIP3    H1 8907   1.217   5.064   0.043 -2.5802 -0.0603 -1.1960
 2981TIP3    H2 8908   1.324   4.966  -0.000 -0.3693  1.6025  0.3880
 2982TIP3   OH2 8909   6.345   5.461   2.595  0.3022  0.0356 -0.1093
 2982TIP3    H1 8910   6.363   5.468   2.689  2.5152  0.1016 -0.4999
 2982TIP3    H2 8911   6.411   5.516   2.554 -0.7537  0.1392 -1.7130
 2983TIP3   OH2 8912   7.042   0.981   3.721  0.5789  0.4902  0.0619
 2983TIP3    H1 8913   7.045   0.915   3.791  1.2423  0.7022  0.2312
 2983TIP3    H2 8914   6.958   0.965   3.678 -0.1900  0.8624  1.3940
 2984TIP3   OH2 8915   0.159   4.000   3.762  0.0873 -0.2189  0.0040
 2984TIP3    H1 8916   0.167   4.068   3.695  1.6422  0.2375  0.6398
 2984TIP3    H2 8917   0.133   3.922   3.713  0.7240  0.2290 -1.0646
 2985TIP3   OH2 8918   2.249   4.103   4.720 -0.1988 -0.3971 -0.7157
 2985TIP3    H1 8919   2.285   4.065   4.640  0.5224 -0.2896 -0.4454
 2985TIP3    H2 8920   2.296   4.059   4.791  1.3122  1.6291 -0.4126
 2986TIP3   OH2 8921   7.274   3.258   5.488 -0.0093 -0.2435  0.2333
 2986TIP3    H1 8922   7.196   3.209   5.463  0.2440 -0.2980 -0.4698
 2986TIP3    H2 8923   7.299   3.222   5.573 -0.9938  0.0700  0.6591
 2987TIP3   OH2 8924   0.199   3.183   4.548 -0.0002  0.3416 -0.0413
 2987TIP3    H1 8925   0.235   3.259   4.593 -0.5266  0.1509  0.6965
 2987TIP3    H2 8926   0.119   3.215   4.506  0.2471  0.4071 -0.4711
 2988TIP3   OH2 8927   7.010   2.170   4.588  0.4305  0.5082  0.4846
 2988TIP3    H1 8928   7.104   2.175   4.606  0.0699  1.8503  2.0648
 2988TIP3    H2 8929   6.993   2.076   4.579  1.7565  0.1950  1.1206
 2989TIP3   OH2 8930   7.131   4.173   3.587 -0.0195  0.1221  0.2698
 2989TIP3    H1 8931   7.045   4.150   3.621  0.7428  0.5286  2.5832
 2989TIP3    H2 8932   7.160   4.095   3.540 -0.8431 -0.7316  1.1565
 2990TIP3   OH2 8933   5.257   4.239   1.444  0.1933  0.0176 -0.3799
 2990TIP3    H1 8934   5.241   4.146   1.457 -0.1616 -0.0513 -1.2665
 2990TIP3    H2 8935   5.196   4.283   1.503 -1.0065 -0.2952 -1.3535
 2991TIP3   OH2 8936   1.721   3.484   3.310  0.1670 -0.2079  0.0209
 2991TIP3    H1 8937   1.629   3.491   3.284  0.4941 -0.7034 -1.3379
 2991TIP3    H2 8938   1.732   3.392   3.332  0.4397 -0.2351 -0.2318
 2992TIP3   OH2 8939   1.324   4.194   3.335 -0.0893 -0.0098  0.1059
 2992TIP3    H1 8940   1.364   4.109   3.320 -1.1842 -0.1572 -2.1684
 2992TIP3    H2 8941   1.230   4.177   3.336 -0.2574  0.9115  1.5025
 2993TIP3   OH2 8942   1.511   4.920   3.128  0.2802 -0.2748 -0.4503
 2993TIP3    H1 8943   1.425   4.924   3.087 -0.1617  1.6571  0.5769
 2993TIP3    H2 8944   1.495   4.885   3.216  0.4012  0.7767  0.0084
 2994TIP3   OH2 8945   2.183   4.227   2.872 -0.0490 -0.4991  0.2766
 2994TIP3    H1 8946   2.226   4.304   2.836 -3.1204  0.3417 -1.7381
 2994TIP3    H2 8947   2.138   4.259   2.950 -0.1171 -0.5684  0.2654
 2995TIP3   OH2 8948   1.914   2.660   4.682 -0.2054 -0.0964 -1.0165
 2995TIP3    H1 8949   1.975   2.732   4.694 -0.8631  0.7891 -2.7061
 2995TIP3    H2 8950   1.956   2.585   4.724  0.7965  1.1071  0.1724
 2996TIP3   OH2 8951   7.238   3.903   0.338  0.3078  0.6558 -0.3630
 2996TIP3    H1 8952   7.158   3.854   0.322  1.1059 -0.7165 -0.1905
 2996TIP3    H2 8953   7.263   3.881   0.428  1.0291  0.8471 -0.5087
 2997TIP3   OH2 8954   1.955   3.469   2.931  0.0404 -0.1398  0.1716
 2997TIP3    H1 8955   1.913   3.549   2.963 -3.2080 -1.6909 -0.0019
 2997TIP3    H2 8956   1.987   3.493   2.844 -0.7818  1.0300  0.1761
 2998TIP3   OH2 8957   0.374   3.351   4.714  0.4913  0.7658 -0.6578
 2998TIP3    H1 8958   0.401   3.379   4.801 -0.7448  1.2225 -0.4071
 2998TIP3    H2 8959   0.452   3.361   4.660  2.0944 -2.2181  0.9790
 2999TIP3   OH2 8960   0.624   3.321   4.591  0.8860  0.0567  0.0362
 2999TIP3    H1 8961   0.682   3.257   4.632  2.0676 -0.5693 -2.5332
 2999TIP3    H2 8962   0.653   3.326   4.501 -0.5043  2.7594 -0.3132
 3000TIP3   OH2 8963   1.791   1.861   1.905 -0.1402  0.0509 -0.0402
 3000TIP3    H1 8964   1.790   1.769   1.878 -2.4354  0.1100 -0.2337
 3000TIP3    H2 8965   1.722   1.868   1.971 -2.0185  2.2145 -2.1366
 3001TIP3   OH2 8966   7.226   3.132   2.820 -0.4666 -0.3399  0.2544
 3001TIP3    H1 8967   7.163   3.070   2.856  0.9048 -1.4806  0.7216
 3001TIP3    H2 8968   7.311   3.089   2.829  0.6245  1.9037  1.3429
 3002TIP3   OH2 8969   6.818   2.641   2.480 -0.2435 -0.4596  0.2165
 3002TIP3    H1 8970   6.753   2.575   2.455 -1.5168  1.0862 -0.5723
 3002TIP3    H2 8971   6.773   2.696   2.544  0.2384  0.7161 -0.4569
 3003TIP3   OH2 8972   7.192   3.621   5.016 -0.1309  0.2578 -0.0140
 3003TIP3    H1 8973   7.206   3.700   4.963 -1.3845  0.5280  0.0355
 3003TIP3    H2 8974   7.264   3.563   4.992  0.1464  0.9609 -0.9263
 3004TIP3   OH2 8975   6.319   4.726   4.237  0.3777 -0.2057  0.1392
 3004TIP3    H1 8976   6.327   4.632   4.253  0.6885 -0.5005 -1.6953
 3004TIP3    H2 8977   6.345   4.737   4.146 -0.2806  1.5789  0.1609
 3005TIP3   OH2 8978   1.152   3.140   2.680 -0.2852  0.5621  0.0411
 3005TIP3    H1 8979   1.087   3.135   2.609  0.1851 -0.4216 -0.3350
 3005TIP3    H2 8980   1.099   3.152   2.759 -1.0832 -2.1028 -0.0304
 3006TIP3   OH2 8981   1.581   2.476   3.468  0.0130  0.4736  0.6251
 3006TIP3    H1 8982   1.531   2.494   3.388  0.1908  1.5945  0.7573
 3006TIP3    H2 8983   1.668   2.513   3.451  0.2633  0.0900  1.0661
 3007TIP3   OH2 8984   4.034   6.517   0.055  0.6444  0.5955  0.1911
 3007TIP3    H1 8985   4.009   6.447   0.116  3.4548  1.3764  2.3335
 3007TIP3    H2 8986   3.961   6.579   0.059 -1.8897 -2.1372 -1.7418
 3008TIP3   OH2 8987   0.924   2.850   3.453 -0.2403 -0.5674 -0.2615
 3008TIP3    H1 8988   0.853   2.788   3.465  0.2630 -1.7440 -2.9569
 3008TIP3    H2 8989   0.881   2.933   3.434 -0.8886 -0.8579 -0.0741
 3009TIP3   OH2 8990   2.107   2.339   4.048 -0.2832  0.4617 -0.0742
 3009TIP3    H1 8991   2.106   2.378   4.135  0.2494 -1.5720  0.8710
 3009TIP3    H2 8992   2.191   2.366   4.010  1.8160 -2.7248  2.0187
 3010TIP3   OH2 8993   1.431   4.544   3.110  0.5255  0.1044 -0.4313
 3010TIP3    H1 8994   1.515   4.555   3.155 -0.1571 -0.3717  1.0134
 3010TIP3    H2 8995   1.410   4.630   3.074  1.2025  0.4414 -0.0138
 3011TIP3   OH2 8996   0.883   4.395   2.341 -0.2510 -0.3710 -0.4085
 3011TIP3    H1 8997   0.918   4.330   2.402  0.5649  0.6152  0.2005
 3011TIP3    H2 8998   0.811   4.351   2.297  0.3610 -1.7180 -0.0840
 3012TIP3   OH2 8999   0.316   6.614   5.681  0.0930  0.1124 -0.0008
 3012TIP3    H1 9000   0.388   6.559   5.650  0.3450 -0.6723  1.9090
 3012TIP3    H2 9001   0.241   6.590   5.626  0.5004 -1.2853  0.0522
 3013TIP3   OH2 9002   6.598   2.822   4.164 -0.2387  0.3160 -0.1559
 3013TIP3    H1 9003   6.567   2.890   4.223 -0.8505  0.3327 -0.4871
 3013TIP3    H2 9004   6.638   2.869   4.091  2.5145  0.2750  1.2696
 3014TIP3   OH2 9005   0.996   4.237   3.632 -0.1143 -0.3315 -0.5225
 3014TIP3    H1 9006   0.978   4.181   3.708  2.5059  0.9315  1.1164
 3014TIP3    H2 9007   0.934   4.309   3.641  0.1330 -0.2218  0.3911
 3015TIP3   OH2 9008   0.405   3.296   2.833 -0.4717  0.2461 -0.3482
 3015TIP3    H1 9009   0.393   3.225   2.896 -0.4813  0.7773  0.2547
 3015TIP3    H2 9010   0.358   3.370   2.870 -0.0733  0.7066 -0.7436
 3016TIP3   OH2 9011   0.103   3.049   3.581 -0.1028 -0.2138  0.1133
 3016TIP3    H1 9012   0.175   3.023   3.523 -1.6960 -0.7590 -1.6998
 3016TIP3    H2 9013   0.044   2.974   3.580 -0.7882  0.3013  1.4225
 3017TIP3   OH2 9014   7.407   3.975   3.410 -1.0958  0.2867  0.3747
 3017TIP3    H1 9015   7.315   3.949   3.413 -1.0851  0.4201  1.7447
 3017TIP3    H2 9016   7.414   4.025   3.328 -2.2148  0.2170  0.2218
 3018TIP3   OH2 9017   6.609   1.861   3.441 -0.1431 -0.3730 -0.0686
 3018TIP3    H1 9018   6.669   1.932   3.416  1.2052 -0.7964  1.8487
 3018TIP3    H2 9019   6.651   1.782   3.409  0.4775 -0.6944  1.4840
 3019TIP3   OH2 9020   1.386   4.787   2.420 -0.0939  0.6227  0.0406
 3019TIP3    H1 9021   1.409   4.699   2.449 -1.3184 -0.9323 -3.3085
 3019TIP3    H2 9022   1.291   4.782   2.404 -0.2481  2.6697  0.2266
 3020TIP3   OH2 9023   2.101   2.062   2.513 -0.4247  0.4462  0.3685
 3020TIP3    H1 9024   2.133   2.056   2.424 -1.9522  0.9468 -0.2406
 3020TIP3    H2 9025   2.055   1.980   2.529  2.4094 -0.9427  1.7872
 3021TIP3   OH2 9026   5.755   5.690   3.041  0.8834  0.1369  0.6324
 3021TIP3    H1 9027   5.687   5.697   2.974  1.0373  1.3074  0.5827
 3021TIP3    H2 9028   5.770   5.596   3.050 -2.4786 -0.3169  2.4342
 3022TIP3   OH2 9029   6.395   2.696   3.772 -0.1367 -0.3615 -0.7238
 3022TIP3    H1 9030   6.374   2.790   3.769 -0.6707 -0.5372 -3.0124
 3022TIP3    H2 9031   6.490   2.693   3.759  0.2423 -0.0384  1.6755
 3023TIP3   OH2 9032   5.501   2.054   4.968  0.4289 -0.2265  0.2992
 3023TIP3    H1 9033   5.517   2.146   4.988  1.1094 -0.1426 -0.5884
 3023TIP3    H2 9034   5.413   2.037   5.002  0.4254  0.6593  0.7521
 3024TIP3   OH2 9035   4.236   5.114   0.515 -0.1685  0.1257  0.2118
 3024TIP3    H1 9036   4.239   5.180   0.446 -0.8922  0.8373  0.8436
 3024TIP3    H2 9037   4.293   5.044   0.484  1.4734  1.5004 -0.0025
 3025TIP3   OH2 9038   0.007   0.920   2.240  0.1380  0.2572 -0.1189
 3025TIP3    H1 9039   0.049   0.834   2.247  1.2949  0.7531 -0.8899
 3025TIP3    H2 9040   0.047   0.961   2.163 -2.5872  0.2967 -1.5933
 3026TIP3   OH2 9041   3.863   6.143   0.425 -0.0579  0.0320  0.6152
 3026TIP3    H1 9042   3.792   6.170   0.484 -0.3003 -2.1536  1.3689
 3026TIP3    H2 9043   3.929   6.105   0.483  0.0411 -1.4474 -0.4385
 3027TIP3   OH2 9044   6.034   6.815   2.664  0.5558  0.3103 -0.2493
 3027TIP3    H1 9045   6.053   6.873   2.590 -1.8048  3.1807  1.2734
 3027TIP3    H2 9046   6.094   6.844   2.732  1.2235 -0.8779 -0.3230
 3028TIP3   OH2 9047   6.380   3.761   2.064  0.3705 -0.4223 -0.1372
 3028TIP3    H1 9048   6.458   3.773   2.010  1.1692 -0.0967  1.0957
 3028TIP3    H2 9049   6.403   3.795   2.150 -0.2526 -2.7135  0.9949
 3029TIP3   OH2 9050   1.629   3.082   0.961  0.1585 -1.0876 -0.1531
 3029TIP3    H1 9051   1.602   3.173   0.972 -1.7558 -1.6117 -0.3541
 3029TIP3    H2 9052   1.690   3.066   1.034 -1.6117 -0.4391  1.5058
 3030TIP3   OH2 9053   6.980   1.519   5.362  0.0321  0.8083 -0.7121
 3030TIP3    H1 9054   6.924   1.546   5.435  0.5307 -0.6725  0.2370
 3030TIP3    H2 9055   7.021   1.600   5.331  0.7338  1.2888  1.4317
 3031TIP3   OH2 9056   7.263   3.680   4.507  0.0495  0.2280 -0.0073
 3031TIP3    H1 9057   7.295   3.721   4.427  0.9254 -1.4317 -0.5439
 3031TIP3    H2 9058   7.232   3.593   4.479 -0.4711 -0.0294  1.3073
 3032TIP3   OH2 9059   6.138   1.494   5.714 -0.4928 -0.4257  0.5410
 3032TIP3    H1 9060   6.194   1.418   5.702 -0.8693 -0.8376  1.3696
 3032TIP3    H2 9061   6.198   1.568   5.718  0.0052 -0.8832  1.5908
 3033TIP3   OH2 9062   2.129   3.836   4.834  0.7011  0.0303 -0.4229
 3033TIP3    H1 9063   2.119   3.785   4.753 -0.4863 -0.1000 -0.2005
 3033TIP3    H2 9064   2.215   3.809   4.869  0.5364 -1.0493 -0.8450
 3034TIP3   OH2 9065   3.573   4.353   2.937  0.3676 -0.1832  0.1663
 3034TIP3    H1 9066   3.513   4.293   2.982  0.3176  0.5252  1.0817
 3034TIP3    H2 9067   3.588   4.423   3.001  0.6505  0.6218 -0.7712
 3035TIP3   OH2 9068   2.624   4.872   1.810 -0.1603  0.1303  0.3430
 3035TIP3    H1 9069   2.667   4.926   1.743 -1.6146  1.0302  0.1058
 3035TIP3    H2 9070   2.667   4.897   1.892  1.2422 -0.5601 -0.1717
 3036TIP3   OH2 9071   2.637   4.411   4.631  0.2546  0.6653  0.0720
 3036TIP3    H1 9072   2.581   4.346   4.673  0.2997  0.3767 -0.3075
 3036TIP3    H2 9073   2.589   4.436   4.552  1.5952 -1.1027 -1.3257
 3037TIP3   OH2 9074   2.022   4.564   1.556 -0.1384 -0.0794  0.1908
 3037TIP3    H1 9075   2.052   4.576   1.466  0.8769  0.5074  0.6015
 3037TIP3    H2 9076   2.094   4.519   1.600 -1.0637 -1.3446  0.4541
 3038TIP3   OH2 9077   0.652   5.323   2.598 -0.0077 -0.1755  0.2129
 3038TIP3    H1 9078   0.745   5.304   2.582  0.3398  0.2987  1.5866
 3038TIP3    H2 9079   0.637   5.406   2.553  0.4219  0.0958  0.5607
 3039TIP3   OH2 9080   0.461   2.191   4.110  0.6207 -0.4416 -0.2760
 3039TIP3    H1 9081   0.380   2.241   4.110  0.1106 -1.2719  0.6138
 3039TIP3    H2 9082   0.519   2.239   4.050 -0.1931  0.6708 -0.1676
 3040TIP3   OH2 9083   1.235   4.735   1.813  1.0250  0.1895  0.5687
 3040TIP3    H1 9084   1.275   4.651   1.793 -0.6478 -0.2470 -1.0377
 3040TIP3    H2 9085   1.241   4.784   1.731 -1.3639  0.2511  0.4053
 3041TIP3   OH2 9086   1.058   4.141   2.134 -0.0002 -0.0910  0.0211
 3041TIP3    H1 9087   1.014   4.223   2.155 -0.1392 -0.2025  0.1713
 3041TIP3    H2 9088   1.129   4.135   2.198  0.0392 -0.0617 -0.0208
 3042TIP3   OH2 9089   2.822   4.900   3.713  0.0621  0.9594  0.0692
 3042TIP3    H1 9090   2.777   4.881   3.631 -0.5528 -0.8165  0.7888
 3042TIP3    H2 9091   2.767   4.859   3.780  0.2329  2.8948  1.4423
 3043TIP3   OH2 9092   4.303   3.930   1.905  0.2373  0.6387 -0.0214
 3043TIP3    H1 9093   4.344   3.938   1.991  0.0274  0.4836  0.0948
 3043TIP3    H2 9094   4.375   3.936   1.843  0.1410  3.1658  0.0608
 3044TIP3   OH2 9095   1.943   4.766   4.378  0.4379  0.3217 -0.5511
 3044TIP3    H1 9096   1.959   4.673   4.366  1.6550  0.4135  0.3188
 3044TIP3    H2 9097   1.851   4.778   4.356  0.3139 -1.0570 -0.7884
 3045TIP3   OH2 9098   1.156   1.540   3.907 -0.5589 -0.1358 -0.0949
 3045TIP3    H1 9099   1.196   1.543   3.994  0.3250  1.2248 -0.5257
 3045TIP3    H2 9100   1.087   1.606   3.910  1.2170  1.8389 -1.2293
 3046TIP3   OH2 9101   0.593   2.898   2.166 -0.0884 -0.9651  0.1772
 3046TIP3    H1 9102   0.599   2.828   2.231  0.4336  0.5632  1.8171
 3046TIP3    H2 9103   0.567   2.975   2.216  2.3545  0.7264 -1.0370
 3047TIP3   OH2 9104   0.610   3.726   1.992 -0.3836  0.3344  0.1800
 3047TIP3    H1 9105   0.555   3.776   2.052 -0.7494 -0.6946  0.7024
 3047TIP3    H2 9106   0.636   3.790   1.925 -2.1047  0.8579 -0.0065
 3048TIP3   OH2 9107   0.006   2.624   1.482 -0.1574  0.4014  0.7642
 3048TIP3    H1 9108   0.058   2.646   1.405 -1.2892 -0.0122 -0.1318
 3048TIP3    H2 9109   0.032   2.688   1.548  0.2758  1.2222 -0.1970
 3049TIP3   OH2 9110   3.543   4.060   2.689  0.1827 -0.3065  0.2757
 3049TIP3    H1 9111   3.586   4.053   2.604  1.8881 -1.5089  1.2254
 3049TIP3    H2 9112   3.452   4.035   2.671  1.1051 -3.1430 -0.7206
 3050TIP3   OH2 9113   3.682   3.390   2.316 -0.4627  0.7130 -0.6885
 3050TIP3    H1 9114   3.766   3.346   2.302 -0.5123  0.6221 -0.7030
 3050TIP3    H2 9115   3.701   3.483   2.302  0.1554  0.9652  1.6630
 3051TIP3   OH2 9116   0.975   4.619   1.898 -0.4546 -0.6594 -0.5053
 3051TIP3    H1 9117   0.923   4.699   1.904  0.2252 -0.2898  0.6150
 3051TIP3    H2 9118   1.066   4.649   1.901 -0.1893 -1.4546 -0.3969
 3052TIP3   OH2 9119   0.925   5.338   2.038  0.1465  0.1735 -0.2180
 3052TIP3    H1 9120   0.932   5.401   2.109 -2.6933 -0.3951  0.6218
 3052TIP3    H2 9121   0.832   5.333   2.019  0.3003 -3.6975 -0.3540
 3053TIP3   OH2 9122   2.314   5.769   3.993 -0.0733 -0.0398  0.3308
 3053TIP3    H1 9123   2.231   5.780   3.947  1.9321  0.8228 -3.2898
 3053TIP3    H2 9124   2.296   5.705   4.062 -3.8735  0.7074  0.0997
 3054TIP3   OH2 9125   7.154   3.274   3.736 -0.1516 -0.3422 -0.0186
 3054TIP3    H1 9126   7.161   3.194   3.788  0.2487 -0.6831 -0.5935
 3054TIP3    H2 9127   7.061   3.293   3.732 -0.5862 -2.7340 -2.8311
 3055TIP3   OH2 9128   3.503   6.103   2.177 -0.2216 -0.1415 -0.3603
 3055TIP3    H1 9129   3.507   6.128   2.085  2.9022 -0.9660 -0.5134
 3055TIP3    H2 9130   3.492   6.008   2.176  0.3478 -0.2201  0.0946
 3056TIP3   OH2 9131   0.213   4.774   1.269 -0.0965 -0.4667 -0.3360
 3056TIP3    H1 9132   0.209   4.721   1.189  0.3988  1.3731 -1.6071
 3056TIP3    H2 9133   0.206   4.710   1.340  2.2721 -2.4620 -1.7967
 3057TIP3   OH2 9134   3.417   5.280   2.904  0.0450  0.0510  0.1460
 3057TIP3    H1 9135   3.378   5.339   2.969  1.9161 -0.3657  1.6987
 3057TIP3    H2 9136   3.369   5.198   2.914 -1.9140  0.9923 -1.3427
 3058TIP3   OH2 9137   2.393   1.593   3.735 -0.0117  0.6139  0.3723
 3058TIP3    H1 9138   2.314   1.636   3.768  1.4215  0.9422  3.5400
 3058TIP3    H2 9139   2.387   1.504   3.768 -0.2015 -0.0520 -1.4150
 3059TIP3   OH2 9140   1.823   3.255   4.296 -1.0356 -0.6162  0.3599
 3059TIP3    H1 9141   1.862   3.181   4.249 -3.1382 -0.4486 -1.7663
 3059TIP3    H2 9142   1.743   3.220   4.334 -1.1750  0.1626  0.7913
 3060TIP3   OH2 9143   4.731   5.607   5.879 -0.2558  0.0191  0.8281
 3060TIP3    H1 9144   4.654   5.551   5.885  0.2230 -0.8299 -0.6221
 3060TIP3    H2 9145   4.803   5.547   5.863  0.2442  1.0284 -0.8830
 3061TIP3   OH2 9146   4.752   4.636   2.673 -0.2925 -0.4038  0.5692
 3061TIP3    H1 9147   4.814   4.583   2.624  1.0579  0.9474  0.7680
 3061TIP3    H2 9148   4.766   4.725   2.641 -2.5229 -0.1542  0.2214
 3062TIP3   OH2 9149   1.568   6.282   1.369 -0.7473  0.3729 -1.0528
 3062TIP3    H1 9150   1.631   6.346   1.333 -2.3234  0.4896 -3.7708
 3062TIP3    H2 9151   1.496   6.335   1.402 -0.2085  0.1572  0.5043
 3063TIP3   OH2 9152   4.256   6.540   5.996 -0.0000 -0.3037 -0.3982
 3063TIP3    H1 9153   4.169   6.573   5.974 -0.3088 -0.7176  0.1830
 3063TIP3    H2 9154   4.313   6.574   5.927 -0.9524 -1.6503 -1.8908
 3064TIP3   OH2 9155   2.794   3.157   0.914 -0.3258  0.4394 -0.0553
 3064TIP3    H1 9156   2.860   3.161   0.846 -0.1431  0.5067  0.1260
 3064TIP3    H2 9157   2.836   3.196   0.991  0.1579 -1.4009  0.6495
 3065TIP3   OH2 9158   2.756   4.593   1.433  0.2805 -0.2159  0.2462
 3065TIP3    H1 9159   2.707   4.538   1.371 -0.7785  0.2818  0.6344
 3065TIP3    H2 9160   2.848   4.583   1.406 -0.2168  0.5234 -1.8540
 3066TIP3   OH2 9161   2.037   5.985   2.554  0.0835  0.2136 -0.5242
 3066TIP3    H1 9162   2.035   6.042   2.631  0.2586 -1.1316  0.5085
 3066TIP3    H2 9163   2.030   5.897   2.590  0.6542 -0.4630 -2.0293
 3067TIP3   OH2 9164   2.433   3.802   3.973  0.0490 -0.2500  0.1270
 3067TIP3    H1 9165   2.472   3.722   4.009 -0.8825 -0.6583  0.2482
 3067TIP3    H2 9166   2.430   3.863   4.047 -0.3670 -0.5246  0.3336
 3068TIP3   OH2 9167   3.366   1.798   0.785 -0.3771  0.4007 -0.0389
 3068TIP3    H1 9168   3.437   1.734   0.788  0.9504  1.8694  0.3109
 3068TIP3    H2 9169   3.312   1.778   0.862 -0.7929 -1.1913 -0.7192
 3069TIP3   OH2 9170   3.789   3.980   1.941  0.3262 -0.2195  0.5223
 3069TIP3    H1 9171   3.874   4.023   1.935 -0.1558  0.8729  1.4057
 3069TIP3    H2 9172   3.791   3.934   2.025  0.6653 -1.5772 -0.2091
 3070TIP3   OH2 9173   0.617   3.267   3.200  0.3031 -0.8300  0.4275
 3070TIP3    H1 9174   0.620   3.222   3.116 -0.7211  0.6647 -0.4436
 3070TIP3    H2 9175   0.524   3.279   3.217  0.5343  2.6489 -0.3498
 3071TIP3   OH2 9176   0.956   4.211   4.890  0.7332 -0.0535  0.9988
 3071TIP3    H1 9177   0.924   4.282   4.946 -0.0908 -0.2403  0.7694
 3071TIP3    H2 9178   0.877   4.161   4.867  0.7987  1.0674 -1.8056
 3072TIP3   OH2 9179   0.350   2.602   1.200  0.5664 -0.6050 -0.0965
 3072TIP3    H1 9180   0.431   2.569   1.239 -0.0361 -1.7579  0.1946
 3072TIP3    H2 9181   0.292   2.526   1.196  0.6334 -0.5869 -3.3042
 3073TIP3   OH2 9182   1.762   4.590   2.400 -0.1927  0.1423 -0.3040
 3073TIP3    H1 9183   1.714   4.665   2.365 -1.1999 -1.3475 -2.1934
 3073TIP3    H2 9184   1.710   4.514   2.374  1.4324 -1.2842  0.5473
 3074TIP3   OH2 9185   2.125   2.966   4.060  0.5972 -0.1036  0.4094
 3074TIP3    H1 9186   2.199   2.951   4.001 -0.3837 -0.3877 -0.7751
 3074TIP3    H2 9187   2.111   3.060   4.058  0.7910 -0.0739  0.4611
 3075TIP3   OH2 9188   0.077   2.525   3.494 -0.2759  1.0341 -0.3561
 3075TIP3    H1 9189   0.151   2.514   3.553  1.2550  0.6234 -2.2992
 3075TIP3    H2 9190   0.077   2.618   3.472 -0.4618  1.0684 -0.2155
 3076TIP3   OH2 9191   1.939   4.648   4.034  0.1760 -0.4759 -0.2833
 3076TIP3    H1 9192   1.870   4.636   4.099  0.8049 -0.0306  0.4845
 3076TIP3    H2 9193   2.000   4.576   4.050  0.3052 -0.3986 -0.4256
 3077TIP3   OH2 9194   3.632   3.202   1.256  0.1628 -0.3280  0.1805
 3077TIP3    H1 9195   3.601   3.206   1.347 -0.8828 -2.3465 -0.0612
 3077TIP3    H2 9196   3.618   3.111   1.230  0.6115  0.1941 -1.9613
 3078TIP3   OH2 9197   1.952   2.766   0.984 -0.0104  0.2711  0.4561
 3078TIP3    H1 9198   1.954   2.857   0.956 -1.3286  1.4415  3.8792
 3078TIP3    H2 9199   1.860   2.749   1.002  0.5154 -0.9962  2.0497
 3079TIP3   OH2 9200   1.531   5.863   2.769 -0.2144 -0.0402 -0.5524
 3079TIP3    H1 9201   1.490   5.947   2.789  0.2153  0.5136 -1.9771
 3079TIP3    H2 9202   1.544   5.864   2.675  2.4646 -0.5048 -0.2299
 3080TIP3   OH2 9203   2.004   3.216   3.784 -0.4901 -0.4147 -1.1239
 3080TIP3    H1 9204   2.010   3.204   3.879 -0.4510 -0.7895 -1.1750
 3080TIP3    H2 9205   2.085   3.178   3.750  0.1184  0.9199 -1.1926
 3081TIP3   OH2 9206   0.351   3.172   3.070  0.1186 -0.1679 -0.0169
 3081TIP3    H1 9207   0.397   3.092   3.098 -0.0175 -0.4130 -0.4941
 3081TIP3    H2 9208   0.327   3.215   3.153  0.1928 -0.6216  0.2442
 3082TIP3   OH2 9209   3.452   4.478   3.855 -0.1686  0.2209 -0.1065
 3082TIP3    H1 9210   3.531   4.503   3.904 -1.1601  0.4253  1.4198
 3082TIP3    H2 9211   3.412   4.561   3.829 -0.4666  0.1309  0.0685
 3083TIP3   OH2 9212   2.262   4.935   2.993 -0.1589 -0.3564 -0.3474
 3083TIP3    H1 9213   2.187   4.889   2.957 -0.4914  0.9486 -1.3866
 3083TIP3    H2 9214   2.234   5.027   2.996  1.1799  0.0596 -0.2210
 3084TIP3   OH2 9215   3.101   3.790   4.419  0.0165  0.1756  0.1137
 3084TIP3    H1 9216   3.031   3.787   4.485 -0.6137  0.7341 -0.5226
 3084TIP3    H2 9217   3.137   3.701   4.419  0.6132  0.4114  1.8391
 3085TIP3   OH2 9218   0.188   5.828   1.768  0.2009 -0.4808  0.6968
 3085TIP3    H1 9219   0.114   5.884   1.743  0.7205  0.4065  1.1489
 3085TIP3    H2 9220   0.223   5.868   1.848  1.9579 -0.1809 -0.2082
 3086TIP3   OH2 9221   1.125   4.084   2.686 -0.0048 -0.2156 -0.3211
 3086TIP3    H1 9222   1.183   4.013   2.658 -0.4741 -0.2941 -1.0946
 3086TIP3    H2 9223   1.112   4.069   2.780 -0.0820 -1.1307 -0.4813
 3087TIP3   OH2 9224   3.341   6.914   2.908  0.4819 -0.2540 -1.0266
 3087TIP3    H1 9225   3.258   6.934   2.864 -1.1192  0.3584  2.1085
 3087TIP3    H2 9226   3.351   6.819   2.899  0.3420 -0.1054 -2.9072
 3088TIP3   OH2 9227   4.155   4.109   3.207  0.3797  0.4696  0.0535
 3088TIP3    H1 9228   4.183   4.177   3.147 -0.1578  0.3039 -0.3937
 3088TIP3    H2 9229   4.209   4.120   3.284  1.7288  0.0898 -0.8282
 3089TIP3   OH2 9230   0.841   0.934   2.442  0.3955 -0.7171  0.5518
 3089TIP3    H1 9231   0.823   0.963   2.532 -1.7079  0.7720 -0.3083
 3089TIP3    H2 9232   0.783   0.859   2.429 -0.8942  0.4153 -0.2719
 3090TIP3   OH2 9233   0.658   3.249   2.556 -0.2975 -0.2562  0.7249
 3090TIP3    H1 9234   0.571   3.263   2.595  0.2692  3.9798  0.7143
 3090TIP3    H2 9235   0.719   3.272   2.625  0.8140 -0.3339 -0.2237
 3091TIP3   OH2 9236   4.704   5.573   0.316 -0.1161 -0.0763 -0.9481
 3091TIP3    H1 9237   4.662   5.490   0.295 -1.2439  0.8415 -2.3580
 3091TIP3    H2 9238   4.636   5.639   0.305  0.4041  0.9362  1.4309
 3092TIP3   OH2 9239   3.107   6.681   4.075 -0.4975 -0.0259  0.5066
 3092TIP3    H1 9240   3.061   6.765   4.076 -0.1659  0.1591  0.4507
 3092TIP3    H2 9241   3.060   6.628   4.011  1.1450  1.1849 -1.7929
 3093TIP3   OH2 9242   3.588   2.445   0.531  0.4192  0.4063 -0.2045
 3093TIP3    H1 9243   3.521   2.509   0.556  0.9732  0.6709  0.6404
 3093TIP3    H2 9244   3.539   2.368   0.503 -0.2495  1.0575 -0.8319
 3094TIP3   OH2 9245   3.498   5.002   3.211 -0.2675  0.1130  0.4420
 3094TIP3    H1 9246   3.459   4.993   3.124  2.2988 -0.1549 -0.7143
 3094TIP3    H2 9247   3.444   4.945   3.267 -0.1747 -2.0216 -1.5520
 3095TIP3   OH2 9248   2.428   3.431   2.623 -0.1656 -0.3582  0.5593
 3095TIP3    H1 9249   2.484   3.498   2.584 -0.5103 -0.6397 -0.4446
 3095TIP3    H2 9250   2.356   3.479   2.662 -0.0819 -0.1029  0.3982
 3096TIP3   OH2 9251   1.683   0.961   3.048 -0.3550 -0.3588 -0.2061
 3096TIP3    H1 9252   1.759   0.949   2.992  1.0499  0.1395  1.5399
 3096TIP3    H2 9253   1.614   0.992   2.989  0.3325 -2.2494 -2.0624
 3097TIP3   OH2 9254   3.374   4.238   5.211  0.4112 -1.0078 -0.3719
 3097TIP3    H1 9255   3.381   4.190   5.294  1.3204 -1.5877 -0.7797
 3097TIP3    H2 9256   3.462   4.274   5.197  0.0236 -0.1485 -0.6349
 3098TIP3   OH2 9257   3.848   4.920   4.303  0.4771 -0.2516  0.6069
 3098TIP3    H1 9258   3.918   4.856   4.315  1.6723  1.2186  1.6998
 3098TIP3    H2 9259   3.812   4.933   4.391  0.1489  0.4632  0.3735
 3099TIP3   OH2 9260   1.490   2.623   3.702 -0.2651 -0.6439  0.0271
 3099TIP3    H1 9261   1.515   2.590   3.616  0.3779  0.1855 -0.1058
 3099TIP3    H2 9262   1.554   2.586   3.763  1.6498  1.8495 -0.3735
 3100TIP3   OH2 9263   3.432   1.200   4.109 -0.1464 -0.2204 -0.0878
 3100TIP3    H1 9264   3.406   1.187   4.018  1.0643  0.3523 -0.5231
 3100TIP3    H2 9265   3.404   1.120   4.153 -2.1089  0.1313 -0.6425
 3101TIP3   OH2 9266   7.359   2.827   3.455 -0.1794  0.0418 -0.3881
 3101TIP3    H1 9267   7.435   2.828   3.397 -0.5743 -1.6972 -0.9726
 3101TIP3    H2 9268   7.284   2.838   3.396 -0.4604  0.2640  0.0108
 3102TIP3   OH2 9269   6.572   2.534   3.387 -0.5203  0.3652 -0.6809
 3102TIP3    H1 9270   6.548   2.622   3.417 -2.5319 -0.3854  0.0247
 3102TIP3    H2 9271   6.663   2.541   3.360 -0.4685  2.5086 -0.0026
 3103TIP3   OH2 9272   1.496   2.478   1.856 -0.3410 -0.0000  0.1021
 3103TIP3    H1 9273   1.457   2.425   1.786 -0.3294  1.1199 -0.7545
 3103TIP3    H2 9274   1.428   2.541   1.879 -0.4340 -0.5207  1.2730
 3104TIP3   OH2 9275   3.348   2.814   1.537 -0.2518  0.2088 -0.2564
 3104TIP3    H1 9276   3.414   2.750   1.564  1.4078  1.2295 -1.7548
 3104TIP3    H2 9277   3.387   2.857   1.461 -1.4241  2.8362  0.5885
 3105TIP3   OH2 9278   0.816   3.022   3.705 -0.6071 -0.2185  0.3045
 3105TIP3    H1 9279   0.911   3.010   3.697 -0.1576  1.9861  2.0484
 3105TIP3    H2 9280   0.796   3.096   3.648 -1.1486 -0.0285  0.7476
 3106TIP3   OH2 9281   2.075   4.042   3.196  0.0472  0.1623  0.3793
 3106TIP3    H1 9282   2.052   4.130   3.227  1.8233  0.1503  1.7814
 3106TIP3    H2 9283   2.158   4.055   3.150  0.2981 -0.7908  0.5719
 3107TIP3   OH2 9284   3.191   2.799   3.025 -0.3712  0.3408  0.4283
 3107TIP3    H1 9285   3.205   2.891   3.046 -0.0928  0.2479  0.6574
 3107TIP3    H2 9286   3.241   2.751   3.091  0.6527  0.0477 -0.5439
 3108TIP3   OH2 9287   2.184   3.383   1.985 -0.2533  0.4537 -0.2717
 3108TIP3    H1 9288   2.197   3.303   2.037 -2.7591  0.0170 -0.2466
 3108TIP3    H2 9289   2.095   3.411   2.006  0.2368  2.6950 -1.0771
 3109TIP3   OH2 9290   1.605   6.907   3.409  1.1941  0.2297  0.8365
 3109TIP3    H1 9291   1.584   6.814   3.402  0.8376  0.2370  1.7721
 3109TIP3    H2 9292   1.694   6.909   3.444  0.7249  0.2551  2.0241
 3110TIP3   OH2 9293   2.258   5.332   3.712 -0.0160  0.0421  0.3793
 3110TIP3    H1 9294   2.238   5.331   3.806 -0.5099 -1.0602  0.2695
 3110TIP3    H2 9295   2.317   5.258   3.699  0.1712  0.2808 -0.1661
 3111TIP3   OH2 9296   7.284   2.102   4.340  0.0040 -0.1076  0.0809
 3111TIP3    H1 9297   7.194   2.098   4.306  0.1404  0.3484 -0.3454
 3111TIP3    H2 9298   7.338   2.069   4.268  0.1851 -0.3538  0.3278
 3112TIP3   OH2 9299   2.917   1.872   4.559  0.6743 -0.2705 -0.4349
 3112TIP3    H1 9300   2.841   1.824   4.592  0.7470 -1.2140 -1.6045
 3112TIP3    H2 9301   2.987   1.807   4.558  1.0095  0.1041 -1.1555
 3113TIP3   OH2 9302   0.871   1.573   2.585  0.3464 -0.5182  0.1603
 3113TIP3    H1 9303   0.807   1.524   2.533 -0.5620  0.2196  0.5709
 3113TIP3    H2 9304   0.930   1.612   2.521  1.0516 -2.0926 -0.1782
 3114TIP3   OH2 9305   6.870   3.339   3.605  0.1697 -0.0474 -0.1185
 3114TIP3    H1 9306   6.806   3.305   3.667 -2.6184  2.4179 -1.5543
 3114TIP3    H2 9307   6.865   3.279   3.531 -1.7854  1.1160 -0.9544
 3115TIP3   OH2 9308   3.798   5.506   1.689 -0.0125 -0.0069  0.0423
 3115TIP3    H1 9309   3.860   5.520   1.618  1.2387 -0.9215  0.9213
 3115TIP3    H2 9310   3.717   5.480   1.646  0.8434 -0.9468 -1.0490
 3116TIP3   OH2 9311   3.261   3.184   2.102 -0.4291  0.6443 -0.3058
 3116TIP3    H1 9312   3.221   3.179   2.189 -2.6843  0.2199 -1.3149
 3116TIP3    H2 9313   3.352   3.209   2.118  0.0173 -2.3377  2.3776
 3117TIP3   OH2 9314   7.048   4.427   4.023 -0.0417  0.0964 -0.0129
 3117TIP3    H1 9315   7.051   4.508   3.973 -0.9117 -0.2098 -0.5797
 3117TIP3    H2 9316   6.987   4.371   3.975  1.7326 -1.4967 -0.5180
 3118TIP3   OH2 9317   1.779   3.595   2.475 -0.3440 -0.2351 -0.4617
 3118TIP3    H1 9318   1.847   3.625   2.535  0.5925  0.0707 -1.6422
 3118TIP3    H2 9319   1.714   3.665   2.475 -0.2474 -0.1477  0.0397
 3119TIP3   OH2 9320   7.311   2.635   4.837  0.1583  0.5527  0.2544
 3119TIP3    H1 9321   7.216   2.631   4.837  0.1953 -0.6348  0.9758
 3119TIP3    H2 9322   7.336   2.617   4.746 -0.3018  0.7710  0.0852
 3120TIP3   OH2 9323   0.267   4.738   4.606 -0.4978 -0.3974  0.1471
 3120TIP3    H1 9324   0.171   4.738   4.605 -0.5166 -0.4401  0.9290
 3120TIP3    H2 9325   0.289   4.788   4.685  0.1341  0.3248 -0.4823
 3121TIP3   OH2 9326   0.144   4.541   5.563 -0.4538 -0.0786  0.0726
 3121TIP3    H1 9327   0.193   4.468   5.601 -1.4217 -0.4565  0.6396
 3121TIP3    H2 9328   0.056   4.533   5.602 -0.7625  0.9818 -0.3853
 3122TIP3   OH2 9329   2.386   3.381   4.530 -0.1325  0.3380  0.6977
 3122TIP3    H1 9330   2.435   3.423   4.459 -1.4352  1.4041  0.4215
 3122TIP3    H2 9331   2.307   3.347   4.488 -0.2522 -0.2505  1.3858
 3123TIP3   OH2 9332   1.838   5.586   3.573 -0.0906  0.3984  1.0277
 3123TIP3    H1 9333   1.784   5.544   3.505  0.6382 -2.1759  1.9732
 3123TIP3    H2 9334   1.893   5.647   3.525 -0.4400 -0.4956 -0.5768
 3124TIP3   OH2 9335   2.317   4.072   3.047 -0.3178  0.1963  0.1863
 3124TIP3    H1 9336   2.277   4.100   2.965 -0.8622 -0.3062  0.2787
 3124TIP3    H2 9337   2.410   4.063   3.026 -0.3056  1.0045 -0.1220
 3125TIP3   OH2 9338   1.632   4.419   2.676 -0.3044  0.4079  0.2884
 3125TIP3    H1 9339   1.720   4.450   2.652 -0.7028  0.1513 -1.5363
 3125TIP3    H2 9340   1.647   4.334   2.717  0.1847 -0.3067 -1.3537
 3126TIP3   OH2 9341   1.598   4.384   2.262 -0.4318 -0.6035 -0.1011
 3126TIP3    H1 9342   1.574   4.293   2.244 -2.0468 -0.7059  2.3304
 3126TIP3    H2 9343   1.528   4.416   2.319 -0.7800  2.6956 -2.2613
 3127TIP3   OH2 9344   2.065   4.515   1.270  0.4540 -0.5212 -0.3780
 3127TIP3    H1 9345   2.110   4.449   1.323  0.8048  0.0428  0.0402
 3127TIP3    H2 9346   2.098   4.501   1.181  2.2443  0.5081  0.0772
 3128TIP3   OH2 9347   0.029   2.559   1.928 -0.4524 -0.4220 -0.3569
 3128TIP3    H1 9348  -0.060   2.538   1.956  0.1451 -2.8286 -0.1836
 3128TIP3    H2 9349   0.080   2.481   1.949  1.3033  0.1506 -2.3049
 3129TIP3   OH2 9350   5.939   3.808   2.097 -0.1796  0.2791 -0.0428
 3129TIP3    H1 9351   6.003   3.746   2.063 -1.2704 -0.8563 -0.0566
 3129TIP3    H2 9352   5.959   3.890   2.052  0.3910 -0.4135 -1.0657
 3130TIP3   OH2 9353   2.852   4.860   4.364  0.3311 -0.0633 -0.2281
 3130TIP3    H1 9354   2.764   4.867   4.328 -0.1118  1.4078  1.0934
 3130TIP3    H2 9355   2.843   4.798   4.436  0.0342  1.2110  0.8598
 3131TIP3   OH2 9356   2.631   5.558   3.659  0.2730 -0.4347 -0.7802
 3131TIP3    H1 9357   2.718   5.589   3.636  0.8790 -0.9872  0.7157
 3131TIP3    H2 9358   2.614   5.595   3.745  0.1327 -2.4836  0.1054
 3132TIP3   OH2 9359   2.592   5.413   2.223 -0.3254  0.0048 -0.2133
 3132TIP3    H1 9360   2.537   5.449   2.294 -0.5368 -0.8027  0.0315
 3132TIP3    H2 9361   2.671   5.384   2.267 -0.9170 -1.5213 -0.1446
 3133TIP3   OH2 9362   2.600   2.278   2.509  0.4225  0.3349  0.6069
 3133TIP3    H1 9363   2.674   2.279   2.448  0.3841 -0.6378  0.5372
 3133TIP3    H2 9364   2.582   2.185   2.523 -1.3193  0.5759 -0.0058
 3134TIP3   OH2 9365   3.926   4.348   4.625  0.4833 -0.0213 -0.1449
 3134TIP3    H1 9366   3.941   4.263   4.583  1.0124  0.6597 -1.3567
 3134TIP3    H2 9367   3.955   4.335   4.716 -2.8642 -2.1978  0.6948
 3135TIP3   OH2 9368   1.876   2.426   1.045 -0.0630 -0.0246  0.2388
 3135TIP3    H1 9369   1.940   2.483   1.088 -0.7828 -0.3362  1.7415
 3135TIP3    H2 9370   1.800   2.483   1.031  0.6802  0.4712 -1.9591
 3136TIP3   OH2 9371   1.304   4.078   4.605 -0.0104  0.3540 -0.5033
 3136TIP3    H1 9372   1.262   4.023   4.539  0.1900  0.9418 -1.1246
 3136TIP3    H2 9373   1.254   4.062   4.685 -0.4637 -0.1034 -0.8753
 3137TIP3   OH2 9374   2.480   5.323   1.235 -0.2121  0.3000  0.1556
 3137TIP3    H1 9375   2.502   5.236   1.201 -1.5275 -0.5597  1.4718
 3137TIP3    H2 9376   2.511   5.383   1.167 -1.5549 -1.3012 -1.9367
 3138TIP3   OH2 9377   2.479   3.765   4.619  0.0543  0.1063  0.2887
 3138TIP3    H1 9378   2.423   3.696   4.655  0.4856 -1.0215 -1.1671
 3138TIP3    H2 9379   2.421   3.815   4.562  0.0295  0.2056  0.4011
 3139TIP3   OH2 9380   2.155   6.266   3.291 -0.3044 -0.1225 -0.0877
 3139TIP3    H1 9381   2.202   6.338   3.248 -0.8690  0.0746 -0.3780
 3139TIP3    H2 9382   2.069   6.265   3.249 -0.3538 -0.8676  0.0306
 3140TIP3   OH2 9383   1.682   3.018   2.080 -0.1173  0.0533  0.7367
 3140TIP3    H1 9384   1.756   3.025   2.140  0.1764 -1.7283  0.5998
 3140TIP3    H2 9385   1.681   3.102   2.033  1.2592  0.4228  1.3618
 3141TIP3   OH2 9386   5.007   0.528   4.950 -0.1705  0.6301 -0.2581
 3141TIP3    H1 9387   4.939   0.477   4.994 -0.0955 -0.0695 -0.9356
 3141TIP3    H2 9388   5.036   0.471   4.878  0.2754  1.4221 -0.7067
 3142TIP3   OH2 9389   3.113   3.746   2.668  0.1339 -0.3140  0.1643
 3142TIP3    H1 9390   3.191   3.723   2.617 -0.1902 -0.6200 -0.2048
 3142TIP3    H2 9391   3.086   3.831   2.633 -0.7156 -1.0129 -0.9555
 3143TIP3   OH2 9392   3.644   2.244   3.254  0.1805 -0.1850  0.0813
 3143TIP3    H1 9393   3.733   2.227   3.285  0.0232 -2.1652 -0.4769
 3143TIP3    H2 9394   3.588   2.205   3.320 -0.2105 -1.2978 -0.8874
 3144TIP3   OH2 9395   0.633   3.449   2.902  0.5713 -0.3160  0.0722
 3144TIP3    H1 9396   0.676   3.403   2.830  0.9653  0.1767 -0.0065
 3144TIP3    H2 9397   0.546   3.410   2.906  0.4336 -0.1376 -0.8805
 3145TIP3   OH2 9398   3.901   3.202   1.166 -0.6318  0.7109  0.0635
 3145TIP3    H1 9399   3.850   3.196   1.247  0.1386  0.4268  0.5353
 3145TIP3    H2 9400   3.844   3.164   1.099 -1.8948  2.3646  0.1679
 3146TIP3   OH2 9401   1.771   3.729   1.931 -0.3685 -0.1337  0.7198
 3146TIP3    H1 9402   1.710   3.661   1.961  1.0377 -0.3279  3.2692
 3146TIP3    H2 9403   1.840   3.681   1.885 -0.2345 -0.2742  1.0667
 3147TIP3   OH2 9404   5.953   6.466   5.913  0.4710  0.1849  0.4292
 3147TIP3    H1 9405   6.001   6.407   5.856  1.3321  1.2872  0.0110
 3147TIP3    H2 9406   5.960   6.426   6.000  0.2481 -0.8114 -0.0043
 3148TIP3   OH2 9407   7.053   2.568   2.222  0.0514  0.1651 -0.3789
 3148TIP3    H1 9408   6.972   2.540   2.265 -0.0292 -1.0968 -1.3175
 3148TIP3    H2 9409   7.025   2.627   2.152  0.1342  1.6639  0.8247
 3149TIP3   OH2 9410   0.702   1.079   3.043 -0.6023  0.1969  0.7090
 3149TIP3    H1 9411   0.629   1.030   3.004 -0.7427  1.3804 -0.5600
 3149TIP3    H2 9412   0.734   1.023   3.113 -0.6528 -1.8017 -0.8242
 3150TIP3   OH2 9413   3.348   3.668   3.073  0.1438  0.0399  0.0132
 3150TIP3    H1 9414   3.389   3.752   3.052 -0.8975  0.1344 -1.6612
 3150TIP3    H2 9415   3.367   3.611   2.999  0.7690 -1.2006  1.0955
 3151TIP3   OH2 9416   2.391   5.385   4.269  0.4134 -0.1368  0.6711
 3151TIP3    H1 9417   2.460   5.350   4.325  2.8122 -0.4672 -2.3552
 3151TIP3    H2 9418   2.333   5.311   4.252  1.4726 -0.8579  0.1269
 3152TIP3   OH2 9419   0.641   2.640   3.445 -0.1167 -0.3293  0.3894
 3152TIP3    H1 9420   0.596   2.646   3.529 -0.2901  1.6561  0.1803
 3152TIP3    H2 9421   0.713   2.579   3.460  1.4040  1.9198  2.7136
 3153TIP3   OH2 9422   6.751   3.412   0.583  0.6405  0.1709  0.1527
 3153TIP3    H1 9423   6.735   3.319   0.571 -0.4235  0.1200  1.8357
 3153TIP3    H2 9424   6.664   3.451   0.591  1.0925  1.2066  0.1666
 3154TIP3   OH2 9425   0.771   6.029   2.673  0.3803  0.2382 -0.2156
 3154TIP3    H1 9426   0.731   6.038   2.760 -0.0265 -0.2975 -0.3461
 3154TIP3    H2 9427   0.710   6.071   2.613  0.9487  1.1314 -0.1664
 3155TIP3   OH2 9428   2.237   1.776   4.191  0.1118 -0.2079 -0.3952
 3155TIP3    H1 9429   2.168   1.726   4.146 -0.7812  0.0971  0.6103
 3155TIP3    H2 9430   2.202   1.865   4.195  0.0481 -0.2913  1.1568
 3156TIP3   OH2 9431   6.813   4.314   2.748  0.3617 -0.0053  0.1175
 3156TIP3    H1 9432   6.771   4.236   2.783 -2.1529  1.4494  0.5352
 3156TIP3    H2 9433   6.862   4.351   2.821 -0.0466 -0.1660  0.4746
 3157TIP3   OH2 9434   7.231   3.925   2.816 -1.0766 -0.3419  0.1432
 3157TIP3    H1 9435   7.167   3.854   2.826 -1.8805  0.0201 -2.1277
 3157TIP3    H2 9436   7.184   4.003   2.847 -0.7090 -0.5475  1.2331
 3158TIP3   OH2 9437   1.748   3.879   3.850  0.2608 -0.2968  0.3091
 3158TIP3    H1 9438   1.827   3.900   3.899  0.3300 -1.6190  0.7796
 3158TIP3    H2 9439   1.778   3.868   3.760 -0.0169  3.0985 -0.2531
 3159TIP3   OH2 9440   2.132   5.221   0.328 -0.0734 -0.0852  0.0134
 3159TIP3    H1 9441   2.037   5.226   0.323 -0.1425  1.6568  2.2620
 3159TIP3    H2 9442   2.162   5.310   0.309  1.0462 -0.3647  0.4495
 3160TIP3   OH2 9443   1.667   3.259   1.938 -0.2599  0.3597 -0.2986
 3160TIP3    H1 9444   1.673   3.305   1.854 -0.0812  1.2728  0.2171
 3160TIP3    H2 9445   1.623   3.320   1.996 -0.2873 -0.2332  0.3095
 3161TIP3   OH2 9446   3.295   4.709   3.822 -0.1124  0.1053 -0.1241
 3161TIP3    H1 9447   3.220   4.721   3.880 -0.0197 -0.1211  0.0432
 3161TIP3    H2 9448   3.264   4.739   3.737 -0.3906  0.0191 -0.0547
 3162TIP3   OH2 9449   1.411   3.765   3.799 -0.0003 -0.2194  0.0122
 3162TIP3    H1 9450   1.478   3.712   3.841 -0.7587  0.3259  1.9795
 3162TIP3    H2 9451   1.333   3.710   3.800 -0.0529 -0.1594 -0.6085
 3163TIP3   OH2 9452   6.997   3.542   2.577  0.7224 -0.3468  0.1687
 3163TIP3    H1 9453   6.950   3.489   2.641  0.0434 -1.4186 -1.1772
 3163TIP3    H2 9454   7.060   3.482   2.537  1.7261  0.5237  0.4155
 3164TIP3   OH2 9455   0.697   4.709   2.827 -0.1699  0.0926 -0.4548
 3164TIP3    H1 9456   0.764   4.640   2.830  0.7422  0.9133 -1.7283
 3164TIP3    H2 9457   0.664   4.707   2.738 -0.7760  0.7225 -0.2488
 3165TIP3   OH2 9458   1.496   1.498   1.270  0.1772  0.2950  0.6832
 3165TIP3    H1 9459   1.422   1.440   1.290  0.3870 -0.1016  0.3035
 3165TIP3    H2 9460   1.454   1.580   1.241 -0.1123  0.0490  0.4039
 3166TIP3   OH2 9461   3.021   4.210   3.376  0.0778  0.7774 -0.0399
 3166TIP3    H1 9462   2.945   4.181   3.425 -0.6160  2.6669  0.0386
 3166TIP3    H2 9463   3.096   4.175   3.425 -0.6816  0.5962  1.0078
 3167TIP3   OH2 9464   0.513   1.717   1.356 -0.0523 -0.0758 -0.1343
 3167TIP3    H1 9465   0.600   1.737   1.389  0.9430 -1.0738 -2.0941
 3167TIP3    H2 9466   0.473   1.803   1.341  0.7521  0.3903  0.3840
 3168TIP3   OH2 9467   2.088   3.312   0.361 -0.3597 -0.1341  0.0404
 3168TIP3    H1 9468   2.068   3.293   0.269  0.4604  1.9126 -0.5810
 3168TIP3    H2 9469   2.018   3.370   0.390  0.7445  1.2579 -0.0423
 3169TIP3   OH2 9470   1.568   3.817   2.503  0.2427 -0.0995 -0.5207
 3169TIP3    H1 9471   1.632   3.888   2.495 -0.9321  1.2436  1.4258
 3169TIP3    H2 9472   1.483   3.861   2.491 -0.4848 -1.2075  0.5012
 3170TIP3   OH2 9473   3.734   5.169   3.917 -0.1176  0.4572 -0.1715
 3170TIP3    H1 9474   3.674   5.137   3.849  0.4596  0.2380 -0.5779
 3170TIP3    H2 9475   3.759   5.091   3.966  1.5456  0.2236 -1.3684
 3171TIP3   OH2 9476   2.476   4.238   3.963  0.5156 -0.1418 -0.1104
 3171TIP3    H1 9477   2.506   4.176   4.030 -1.8103  1.0544  2.1565
 3171TIP3    H2 9478   2.381   4.225   3.959  0.1612  2.3120 -0.5687
 3172TIP3   OH2 9479   2.235   4.682   2.137  0.2553 -0.1112 -1.1690
 3172TIP3    H1 9480   2.318   4.717   2.168  0.4795 -0.3154 -1.5303
 3172TIP3    H2 9481   2.174   4.698   2.209  0.7155 -0.3871 -0.7073
 3173TIP3   OH2 9482   2.111   4.421   3.060  0.2354 -0.4619  0.1179
 3173TIP3    H1 9483   2.159   4.504   3.066 -0.9358  0.3149 -1.0985
 3173TIP3    H2 9484   2.034   4.433   3.115 -0.6853 -0.2023 -1.2021
 3174TIP3   OH2 9485   2.355   4.523   4.120  0.0494  0.0930  0.6887
 3174TIP3    H1 9486   2.410   4.527   4.042  0.1084 -0.4434  0.7052
 3174TIP3    H2 9487   2.288   4.458   4.099  0.2911 -0.3340  1.2339
 3175TIP3   OH2 9488   0.170   5.178   3.356  0.6300 -1.0744 -0.3464
 3175TIP3    H1 9489   0.245   5.141   3.403 -0.7813 -1.6244  1.5331
 3175TIP3    H2 9490   0.102   5.111   3.361 -1.2137  0.8184  1.1881
 3176TIP3   OH2 9491   1.460   4.066   5.707  0.3064  0.1404 -0.3812
 3176TIP3    H1 9492   1.545   4.066   5.752  0.5786  1.7093 -0.8849
 3176TIP3    H2 9493   1.404   4.120   5.762 -0.7967 -1.9843  0.6779
 3177TIP3   OH2 9494   3.267   5.043   3.750  0.5408 -0.8249 -0.3666
 3177TIP3    H1 9495   3.249   5.060   3.843 -0.5500 -1.8062 -0.3935
 3177TIP3    H2 9496   3.181   5.027   3.712  0.9067  0.3506 -1.7163
 3178TIP3   OH2 9497   1.199   3.792   1.920 -0.7653 -0.3035 -0.5799
 3178TIP3    H1 9498   1.142   3.860   1.957  1.2097  0.1229  1.7786
 3178TIP3    H2 9499   1.241   3.833   1.845  0.5162  1.1833  0.9124
 3179TIP3   OH2 9500   2.690   1.222   3.137  0.3273  0.1257  0.1167
 3179TIP3    H1 9501   2.606   1.257   3.108  0.7428  1.7949  0.8733
 3179TIP3    H2 9502   2.681   1.211   3.231  0.1234 -2.1180 -0.1299
 3180TIP3   OH2 9503   1.178   2.739   3.443  0.1525 -0.0780 -0.1506
 3180TIP3    H1 9504   1.093   2.781   3.456  0.9621  0.7478  3.0548
 3180TIP3    H2 9505   1.238   2.788   3.500  3.0294 -0.0222 -3.0519
 3181TIP3   OH2 9506   2.408   2.964   2.801 -0.8409 -0.4985  0.3184
 3181TIP3    H1 9507   2.462   3.022   2.747  2.2243 -0.4231  3.2797
 3181TIP3    H2 9508   2.334   3.018   2.828  0.0513  0.8937  0.0013
 3182TIP3   OH2 9509   2.411   2.982   3.818  0.1880  0.3350 -0.7487
 3182TIP3    H1 9510   2.482   3.003   3.879  1.0775  0.6545 -1.8682
 3182TIP3    H2 9511   2.413   2.886   3.812 -1.0874  0.1692  1.0922
 3183TIP3   OH2 9512   1.812   4.789   5.121 -0.2742 -0.0956  0.2643
 3183TIP3    H1 9513   1.796   4.803   5.027 -0.2531 -0.3566  0.2209
 3183TIP3    H2 9514   1.726   4.797   5.161  0.0728  2.4604  0.5385
 3184TIP3   OH2 9515   1.669   4.142   2.765 -0.2084  0.4051 -0.4634
 3184TIP3    H1 9516   1.737   4.096   2.815  0.3338  1.2575 -0.4078
 3184TIP3    H2 9517   1.651   4.084   2.691 -0.0820 -0.2541  0.0186
 3185TIP3   OH2 9518   2.828   3.512   4.867  0.1661  0.2700 -0.1948
 3185TIP3    H1 9519   2.737   3.488   4.848  0.4625 -0.0500 -1.2561
 3185TIP3    H2 9520   2.879   3.455   4.810  1.0641  0.0001  0.8591
 3186TIP3   OH2 9521   0.492   4.153   1.855  0.4938  0.3709  0.0208
 3186TIP3    H1 9522   0.522   4.148   1.946  1.3955 -0.0104 -0.2841
 3186TIP3    H2 9523   0.398   4.137   1.859  0.6816 -0.5910  0.7907
 3187TIP3   OH2 9524   6.054   4.685   4.353 -0.2100  0.5151 -0.0541
 3187TIP3    H1 9525   6.062   4.771   4.394  0.8431 -0.0853  1.0282
 3187TIP3    H2 9526   6.137   4.672   4.308  0.6017 -0.9349  1.7866
 3188TIP3   OH2 9527   0.932   4.248   2.562 -0.0861 -0.3736 -0.5195
 3188TIP3    H1 9528   1.000   4.197   2.606 -1.2509 -0.6924  0.9585
 3188TIP3    H2 9529   0.860   4.186   2.551 -1.1289  0.6641  0.3663
 3189TIP3   OH2 9530   2.813   5.213   3.474  0.5041  0.1518  0.0137
 3189TIP3    H1 9531   2.726   5.203   3.434  1.4333 -0.6929 -1.8673
 3189TIP3    H2 9532   2.847   5.124   3.481  1.3284  0.5015  0.4743
 3190TIP3   OH2 9533   1.835   5.534   2.013 -0.2042 -0.3329  0.6022
 3190TIP3    H1 9534   1.828   5.440   2.002 -1.0605 -0.1301 -0.6992
 3190TIP3    H2 9535   1.871   5.546   2.101 -1.4728 -1.8201  1.3341
 3191TIP3   OH2 9536   2.595   4.411   0.852 -0.0143 -0.4228  0.4880
 3191TIP3    H1 9537   2.513   4.382   0.893 -0.5729 -1.8819 -1.5324
 3191TIP3    H2 9538   2.583   4.390   0.759  2.0618  0.7505 -0.0680
 3192TIP3   OH2 9539   2.745   4.104   4.912  0.0726  0.6237 -0.1257
 3192TIP3    H1 9540   2.827   4.054   4.916 -0.1781  0.1508 -0.7974
 3192TIP3    H2 9541   2.709   4.095   5.000  0.3890  0.2209 -0.0290
 3193TIP3   OH2 9542   5.110   3.666   2.663  0.1328 -0.7670 -0.1363
 3193TIP3    H1 9543   5.155   3.737   2.617  1.3436 -0.4587  1.4982
 3193TIP3    H2 9544   5.180   3.615   2.703 -0.9210 -0.8849  1.5866
 3194TIP3   OH2 9545   0.413   3.445   2.531  0.1922  0.0516 -0.0082
 3194TIP3    H1 9546   0.421   3.459   2.436 -1.0177  0.3512 -0.0769
 3194TIP3    H2 9547   0.459   3.520   2.569  2.2455 -1.0114 -0.3350
 3195TIP3   OH2 9548   1.747   5.554   0.958 -0.5523 -0.1859  0.0746
 3195TIP3    H1 9549   1.764   5.595   0.874 -1.7116 -1.1714 -0.6497
 3195TIP3    H2 9550   1.784   5.614   1.022 -2.2694  2.0408 -0.9543
 3196TIP3   OH2 9551   5.086   0.236   3.422 -0.1161 -0.0859 -0.3306
 3196TIP3    H1 9552   5.094   0.176   3.496 -0.6312  0.9274  0.5609
 3196TIP3    H2 9553   5.024   0.192   3.363 -2.1317  0.4896  1.2773
 3197TIP3   OH2 9554   2.017   3.757   2.544 -0.1640  0.5439  0.1614
 3197TIP3    H1 9555   2.015   3.794   2.456 -0.5569 -1.3754 -0.6603
 3197TIP3    H2 9556   2.093   3.798   2.586  0.3437  1.0576 -1.2544
 3198TIP3   OH2 9557   2.040   4.918   3.237 -0.3997 -0.9561  0.2299
 3198TIP3    H1 9558   2.133   4.936   3.251 -0.6514  0.3915  0.2383
 3198TIP3    H2 9559   1.995   4.993   3.276 -1.5228 -1.8543  0.7121
 3199TIP3   OH2 9560   3.164   1.673   1.485  0.4734 -0.0228  0.3708
 3199TIP3    H1 9561   3.147   1.729   1.561  0.8518  0.6397 -0.0374
 3199TIP3    H2 9562   3.255   1.693   1.460  0.8333 -1.2880  0.6306
 3200TIP3   OH2 9563   6.032   3.682   1.279  0.7290 -0.6097 -0.0470
 3200TIP3    H1 9564   6.034   3.761   1.333 -2.7556 -1.3801  1.3622
 3200TIP3    H2 9565   6.058   3.612   1.338  0.1495 -1.0213 -0.2803
 3201TIP3   OH2 9566   4.356   5.125   4.628  0.1646  0.4307 -0.3171
 3201TIP3    H1 9567   4.320   5.191   4.569  2.5017  2.8762  0.8820
 3201TIP3    H2 9568   4.421   5.173   4.680  0.6546 -2.4411  1.8086
 3202TIP3   OH2 9569   1.008   5.303   3.651 -0.3969  0.2550  0.1390
 3202TIP3    H1 9570   1.047   5.272   3.569  0.5401 -1.9660  1.3844
 3202TIP3    H2 9571   1.016   5.399   3.646  1.5919  0.0588 -1.4260
 3203TIP3   OH2 9572   2.124   3.123   2.106 -0.3925 -0.5707  0.0927
 3203TIP3    H1 9573   2.031   3.130   2.127 -0.3967  3.1154 -0.8204
 3203TIP3    H2 9574   2.168   3.121   2.191 -1.2236 -1.0909  0.5145
 3204TIP3   OH2 9575   0.906   0.796   4.992 -0.0350 -0.5240 -0.1882
 3204TIP3    H1 9576   0.836   0.811   5.056  0.0946 -0.7600  0.0100
 3204TIP3    H2 9577   0.870   0.829   4.910 -1.8088 -3.9746 -0.8844
 3205TIP3   OH2 9578   3.164   1.730   4.369  0.3608 -0.1536 -0.4109
 3205TIP3    H1 9579   3.144   1.722   4.463  1.8835  0.4892 -0.0143
 3205TIP3    H2 9580   3.114   1.660   4.328 -0.2072 -0.5372  0.9030
 3206TIP3   OH2 9581   3.893   5.506   3.610  0.5225  0.9939  0.6504
 3206TIP3    H1 9582   3.883   5.441   3.541  3.4132 -0.3095  1.3681
 3206TIP3    H2 9583   3.831   5.479   3.678  0.6427 -0.1775  0.3090
 3207TIP3   OH2 9584   0.519   3.992   1.369  0.5996 -0.2851  0.4152
 3207TIP3    H1 9585   0.465   3.991   1.448  0.9093 -1.7416  0.6302
 3207TIP3    H2 9586   0.607   3.969   1.401  1.0035  0.4494 -0.1618
 3208TIP3   OH2 9587   1.883   3.470   0.447 -0.3908 -0.0990 -0.3538
 3208TIP3    H1 9588   1.804   3.469   0.393 -0.3174 -3.7809 -0.5279
 3208TIP3    H2 9589   1.850   3.478   0.537 -0.9038 -0.5259 -0.5029
 3209TIP3   OH2 9590   1.173   3.799   1.453  0.3249 -0.3679 -0.2357
 3209TIP3    H1 9591   1.136   3.884   1.428  0.2494 -0.8247 -1.7741
 3209TIP3    H2 9592   1.110   3.735   1.420  1.3194 -1.0824 -0.7881
 3210TIP3   OH2 9593   2.503   6.720   0.142  0.0285  0.4724 -0.8380
 3210TIP3    H1 9594   2.504   6.757   0.231  2.4152 -1.0930 -0.1541
 3210TIP3    H2 9595   2.575   6.763   0.097  0.6760 -0.8191 -1.0792
 3211TIP3   OH2 9596   2.795   3.396   3.767  0.0241 -0.4625 -0.5943
 3211TIP3    H1 9597   2.743   3.348   3.831 -0.0725 -0.9574 -1.0363
 3211TIP3    H2 9598   2.869   3.430   3.817 -0.7003  0.2249  0.0314
 3212TIP3   OH2 9599   7.020   0.083   2.283  0.4361  0.0304 -0.3963
 3212TIP3    H1 9600   6.958   0.111   2.351 -0.1400 -1.5827 -0.2377
 3212TIP3    H2 9601   6.999   0.138   2.207  1.1385  1.9115  0.7325
 3213TIP3   OH2 9602   2.913   4.897   3.046  0.0527 -0.2216  0.2482
 3213TIP3    H1 9603   2.942   4.851   2.967  0.5609 -1.4174  1.1269
 3213TIP3    H2 9604   2.817   4.899   3.039  0.0357 -1.3210  0.1602
 3214TIP3   OH2 9605   7.166   1.170   4.703 -0.1931  0.3778  0.0531
 3214TIP3    H1 9606   7.132   1.252   4.739  0.0106  0.3007  0.4254
 3214TIP3    H2 9607   7.192   1.193   4.613 -1.8398  0.2688 -0.4734
 3215TIP3   OH2 9608   6.438   5.901   0.444 -0.0962 -0.0440 -0.0661
 3215TIP3    H1 9609   6.435   5.842   0.519  2.1924 -0.8188 -0.5487
 3215TIP3    H2 9610   6.471   5.847   0.372  1.7234  1.7341 -0.6114
 3216TIP3   OH2 9611   1.324   4.643   1.091  0.3658 -0.0014 -0.5951
 3216TIP3    H1 9612   1.371   4.711   1.042  0.7466 -1.3599 -2.1543
 3216TIP3    H2 9613   1.384   4.569   1.091 -0.8981 -1.0311 -0.7004
 3217TIP3   OH2 9614   1.701   4.870   2.905  0.1481 -0.2352  0.1461
 3217TIP3    H1 9615   1.641   4.909   2.969  0.3893  0.9767 -0.3404
 3217TIP3    H2 9616   1.662   4.786   2.882 -1.5480  0.6970 -0.4229
 3218TIP3   OH2 9617   6.485   6.014   0.117 -0.4162 -0.7899 -0.2849
 3218TIP3    H1 9618   6.528   6.069   0.183  1.2360  0.9739 -2.7619
 3218TIP3    H2 9619   6.512   5.925   0.140  1.0201 -0.1044  0.7772
 3219TIP3   OH2 9620   4.523   0.761   4.060 -0.1969  0.6871  0.0029
 3219TIP3    H1 9621   4.530   0.704   3.984 -0.3510  1.6679 -0.7421
 3219TIP3    H2 9622   4.438   0.805   4.051 -0.3328  0.6295  0.8692
 3220TIP3   OH2 9623   2.015   4.403   4.634 -0.4376  0.5019 -0.1428
 3220TIP3    H1 9624   1.984   4.488   4.667  1.3394  0.1405  2.5954
 3220TIP3    H2 9625   1.949   4.341   4.663 -1.4618  0.8545 -1.6773
 3221TIP3   OH2 9626   2.334   4.509   1.934  0.7717 -0.2743 -0.8379
 3221TIP3    H1 9627   2.288   4.562   1.999  0.5652 -0.4683 -0.8238
 3221TIP3    H2 9628   2.303   4.419   1.951 -0.6102 -0.0937 -2.3307
 3222TIP3   OH2 9629   0.942   2.531   2.361  0.1146 -0.0325 -0.3895
 3222TIP3    H1 9630   0.900   2.476   2.427  1.2155  1.3221  1.4787
 3222TIP3    H2 9631   0.927   2.485   2.279 -1.9550 -1.3664  0.6883
 3223TIP3   OH2 9632   2.508   3.728   2.718  0.0906 -0.4857  0.2676
 3223TIP3    H1 9633   2.471   3.698   2.801  0.6583  0.2600  0.8009
 3223TIP3    H2 9634   2.485   3.821   2.714  2.1486  0.0740  0.7560
 3224TIP3   OH2 9635   5.445   0.136   3.581 -0.2174  0.2090 -0.3586
 3224TIP3    H1 9636   5.441   0.065   3.644 -0.9833 -1.3122 -2.0871
 3224TIP3    H2 9637   5.538   0.154   3.570 -0.0924  0.6518  1.3645
 3225TIP3   OH2 9638   0.947   3.170   2.491  0.0551  0.3987  0.4441
 3225TIP3    H1 9639   0.857   3.138   2.500  0.8629 -1.7456  1.1459
 3225TIP3    H2 9640   0.947   3.215   2.406 -1.5046 -0.1868  0.1105
 3226TIP3   OH2 9641   1.339   3.858   1.178  0.2466  0.5739  0.6187
 3226TIP3    H1 9642   1.348   3.841   1.272  2.5697 -2.1643 -0.0243
 3226TIP3    H2 9643   1.260   3.811   1.152  1.2545 -1.2277  0.6951
 3227TIP3   OH2 9644   0.676   3.872   0.435 -0.1328 -0.6780  0.1201
 3227TIP3    H1 9645   0.689   3.823   0.516 -0.1812  1.1167  1.2396
 3227TIP3    H2 9646   0.581   3.884   0.429 -0.0306  0.5417  0.6513
 3228TIP3   OH2 9647   2.112   2.478   4.274  0.1989  0.0185 -0.0145
 3228TIP3    H1 9648   2.099   2.554   4.218 -0.8056  0.7868  1.2246
 3228TIP3    H2 9649   2.040   2.483   4.338  1.6082 -0.5446  1.6457
 3229TIP3   OH2 9650   7.110   5.862   0.693 -0.2590  0.3402 -0.2586
 3229TIP3    H1 9651   7.038   5.830   0.638 -1.1969  2.8992 -0.5661
 3229TIP3    H2 9652   7.069   5.879   0.777  0.4705 -0.2529  0.2250
 3230TIP3   OH2 9653   3.077   1.752   1.730  0.1470  0.0344 -0.0935
 3230TIP3    H1 9654   3.031   1.670   1.748  1.5274 -0.8784 -0.6189
 3230TIP3    H2 9655   3.010   1.820   1.735 -0.8243 -1.0125  1.3495
 3231TIP3   OH2 9656   1.032   2.276   2.919 -0.3389 -0.3131  0.2691
 3231TIP3    H1 9657   1.071   2.192   2.893 -0.7735 -0.5861  0.4888
 3231TIP3    H2 9658   1.107   2.332   2.940 -0.0422 -0.6225  0.0509
 3232TIP3   OH2 9659   1.264   2.377   3.858  0.1775  0.0947  0.0203
 3232TIP3    H1 9660   1.331   2.353   3.794 -0.9141 -0.8749 -0.7880
 3232TIP3    H2 9661   1.191   2.410   3.805 -0.3853  0.1563  0.8208
 3233TIP3   OH2 9662   2.821   2.470   0.136  0.0364 -0.1388  0.0789
 3233TIP3    H1 9663   2.831   2.564   0.121 -0.5910 -0.1821 -0.6651
 3233TIP3    H2 9664   2.734   2.461   0.176 -1.0355 -0.6246 -2.2600
 3234TIP3   OH2 9665   1.500   2.957   2.402  0.7941  0.0856 -0.1982
 3234TIP3    H1 9666   1.579   2.948   2.350  0.5684  0.4137 -0.5961
 3234TIP3    H2 9667   1.484   2.869   2.436 -2.4958 -1.6800 -5.6705
 3235TIP3   OH2 9668   2.520   1.297   4.291  0.2948  0.7010 -0.2527
 3235TIP3    H1 9669   2.563   1.323   4.209 -0.3691 -0.9460 -1.1347
 3235TIP3    H2 9670   2.437   1.258   4.263  0.6954 -1.1585  1.1335
 3236TIP3   OH2 9671   2.185   3.638   2.167 -0.8181  0.1304 -0.2173
 3236TIP3    H1 9672   2.168   3.715   2.221  0.2679  0.7016 -0.6641
 3236TIP3    H2 9673   2.103   3.623   2.120 -1.6713 -0.1943  1.3608
 3237TIP3   OH2 9674   1.641   3.189   3.091 -0.2587  0.6807  0.1528
 3237TIP3    H1 9675   1.609   3.132   3.021 -0.3954  0.0315  0.7360
 3237TIP3    H2 9676   1.563   3.236   3.121 -0.3761  0.2763  0.4900
 3238TIP3   OH2 9677   2.529   3.207   1.963 -0.3326 -0.3246  0.3463
 3238TIP3    H1 9678   2.476   3.185   2.040  0.2364 -0.0124  0.8268
 3238TIP3    H2 9679   2.504   3.297   1.942 -0.5619 -0.4455  0.1066
 3239TIP3   OH2 9680   0.145   6.299   1.369  0.3237 -0.0040 -0.0181
 3239TIP3    H1 9681   0.057   6.284   1.336  0.0633 -0.6879  0.9710
 3239TIP3    H2 9682   0.134   6.313   1.463  1.2451  0.1720  0.0726
 3240TIP3   OH2 9683   2.587   5.945   2.929  0.0888  0.0519 -0.0371
 3240TIP3    H1 9684   2.655   5.936   2.862 -0.6701 -0.3063 -0.7788
 3240TIP3    H2 9685   2.632   5.981   3.005  1.2299 -0.7839 -0.3053
 3241TIP3   OH2 9686   6.618   3.562   5.030 -0.4465 -0.4396 -0.0779
 3241TIP3    H1 9687   6.690   3.551   5.093 -0.0157  0.6669 -0.3747
 3241TIP3    H2 9688   6.568   3.480   5.038  1.4004 -1.6562 -0.6024
 3242TIP3   OH2 9689   2.032   2.863   5.159 -0.0337  0.4512  0.2385
 3242TIP3    H1 9690   2.092   2.932   5.129  0.8224 -1.0184 -1.5093
 3242TIP3    H2 9691   1.962   2.863   5.093 -0.9329  0.7959  1.1808
 3243TIP3   OH2 9692   5.906   5.396   1.871 -0.5830 -0.1395 -0.5253
 3243TIP3    H1 9693   5.921   5.380   1.778  0.8459  0.0928 -0.3577
 3243TIP3    H2 9694   5.926   5.489   1.884  0.2670 -0.4113  0.1969
 3244TIP3   OH2 9695   4.223   4.652   3.624 -0.2616  0.3798  0.5056
 3244TIP3    H1 9696   4.315   4.650   3.597  0.1282 -0.4982  1.8649
 3244TIP3    H2 9697   4.184   4.576   3.580  0.2300 -0.6793  1.8626
 3245TIP3   OH2 9698   4.749   4.256   1.597 -0.2477  0.1164  0.0739
 3245TIP3    H1 9699   4.681   4.271   1.664 -0.5228 -3.2612  0.6376
 3245TIP3    H2 9700   4.702   4.261   1.514 -0.2614  2.4296  0.1835
 3246TIP3   OH2 9701   2.464   2.861   2.007 -0.5847 -0.1411 -0.2560
 3246TIP3    H1 9702   2.468   2.914   2.086 -1.3042 -2.6871  1.5619
 3246TIP3    H2 9703   2.552   2.866   1.970 -0.6427  2.2337 -0.1013
 3247TIP3   OH2 9704   1.786   2.533   2.204  0.3773  0.2217  0.5151
 3247TIP3    H1 9705   1.855   2.568   2.147  0.5683  0.5085  0.9270
 3247TIP3    H2 9706   1.748   2.610   2.246 -0.9536  0.1789 -0.5659
 3248TIP3   OH2 9707   4.594   3.387   2.912  0.0913 -0.2149 -0.0817
 3248TIP3    H1 9708   4.525   3.432   2.864 -0.6086 -0.2706  0.8642
 3248TIP3    H2 9709   4.558   3.372   2.999  1.0418 -0.8552  0.2189
 3249TIP3   OH2 9710   1.217   2.599   1.911  0.1335 -0.4592 -0.2973
 3249TIP3    H1 9711   1.156   2.633   1.845 -0.4757  0.6667  0.8184
 3249TIP3    H2 9712   1.223   2.669   1.976 -1.3572 -2.5581  2.1876
 3250TIP3   OH2 9713   3.326   4.846   2.245  0.5955  0.2088 -0.7140
 3250TIP3    H1 9714   3.311   4.938   2.270  1.7345  0.3036 -0.3454
 3250TIP3    H2 9715   3.252   4.825   2.188 -1.3058  0.4347  1.5707
 3251TIP3   OH2 9716   4.541   6.048   1.631  0.3170  0.3006 -0.8873
 3251TIP3    H1 9717   4.626   6.007   1.645  0.6800  0.7693 -1.7033
 3251TIP3    H2 9718   4.478   5.976   1.639  0.6910  0.1341  0.8047
 3252TIP3   OH2 9719   3.468   5.231   2.063  0.1545 -0.4432  0.1243
 3252TIP3    H1 9720   3.487   5.153   2.010  0.8745 -0.5589  0.5406
 3252TIP3    H2 9721   3.477   5.201   2.153  0.9623  0.2414  0.2812
 3253TIP3   OH2 9722   2.658   4.831   1.176  0.1006  0.0787  0.0007
 3253TIP3    H1 9723   2.681   4.807   1.265 -1.1758  1.8847  0.8547
 3253TIP3    H2 9724   2.669   4.751   1.125 -0.4315 -1.3005  2.0288
 3254TIP3   OH2 9725   5.240   4.749   3.820  0.0010  0.6379  0.0491
 3254TIP3    H1 9726   5.293   4.770   3.897  0.2490  0.3644 -0.0476
 3254TIP3    H2 9727   5.160   4.710   3.856  0.5012 -0.3280  0.1323
 3255TIP3   OH2 9728   3.488   2.685   1.119 -0.2780  0.1189 -0.0918
 3255TIP3    H1 9729   3.440   2.752   1.069 -1.4603  0.9998  2.1301
 3255TIP3    H2 9730   3.569   2.729   1.146 -0.6605  0.3877  0.6350
 3256TIP3   OH2 9731   2.228   2.238   2.657  0.5667 -0.2171  0.0579
 3256TIP3    H1 9732   2.183   2.176   2.599 -0.3983 -0.5858  1.1592
 3256TIP3    H2 9733   2.236   2.318   2.606  0.3491 -0.7452 -0.8178
 3257TIP3   OH2 9734   4.877   4.336   1.929 -0.0400 -0.0519  0.1818
 3257TIP3    H1 9735   4.923   4.269   1.879  0.3687  0.3628 -0.0047
 3257TIP3    H2 9736   4.786   4.327   1.903  0.1246 -0.0385 -0.4203
 3258TIP3   OH2 9737   3.224   3.319   1.824  0.3174  0.3068  0.1794
 3258TIP3    H1 9738   3.161   3.389   1.808  0.1113 -0.2507 -1.5418
 3258TIP3    H2 9739   3.233   3.316   1.919 -3.1012 -0.3277  0.5426
 3259TIP3   OH2 9740   1.489   4.738   1.369 -0.8217  0.3481 -0.0999
 3259TIP3    H1 9741   1.560   4.743   1.434 -0.4233  1.2451 -0.5925
 3259TIP3    H2 9742   1.488   4.647   1.341  0.3173  0.3912 -0.2875
 3260TIP3   OH2 9743   2.373   2.013   2.700  0.5944 -0.4434 -0.7723
 3260TIP3    H1 9744   2.322   2.093   2.687 -0.0723 -0.8301 -0.5407
 3260TIP3    H2 9745   2.420   2.001   2.617 -1.1040 -1.0881 -1.6582
 3261TIP3   OH2 9746   1.931   5.062   2.152  0.6346  0.5283 -0.0532
 3261TIP3    H1 9747   1.935   5.029   2.062  0.2615 -0.9358  0.4512
 3261TIP3    H2 9748   2.020   5.090   2.171  0.8463  0.2948 -0.6852
 3262TIP3   OH2 9749   1.740   4.024   2.512  0.5959  0.1254 -0.4621
 3262TIP3    H1 9750   1.813   4.085   2.517  0.5315  0.2781 -1.4131
 3262TIP3    H2 9751   1.687   4.054   2.439 -1.1173  0.7803  0.9888
 3263TIP3   OH2 9752   3.610   4.598   2.144  0.4702 -0.1050 -0.5691
 3263TIP3    H1 9753   3.598   4.693   2.148 -3.0365 -0.3352 -3.3062
 3263TIP3    H2 9754   3.551   4.564   2.212  2.5546 -0.3619  1.1863
 3264TIP3   OH2 9755   2.738   2.828   1.914  0.0550  0.5026 -0.1282
 3264TIP3    H1 9756   2.833   2.818   1.922  0.1442 -1.2171 -2.6770
 3264TIP3    H2 9757   2.707   2.741   1.888 -2.2689  0.9788  0.9402
 3265TIP3   OH2 9758   3.316   3.733   2.500  0.2541  0.5687 -0.7310
 3265TIP3    H1 9759   3.367   3.651   2.492 -1.1087 -0.6394  2.2800
 3265TIP3    H2 9760   3.377   3.801   2.473  1.6665 -1.3578 -2.6159
 3266TIP3   OH2 9761   1.752   2.842   3.637 -0.1613 -0.3576 -0.0043
 3266TIP3    H1 9762   1.803   2.911   3.594 -1.0022 -0.2152 -0.8021
 3266TIP3    H2 9763   1.672   2.886   3.667 -1.0785 -1.1161 -1.2371
 3267TIP3   OH2 9764   3.384   4.649   0.831 -0.2346  0.0435  0.0546
 3267TIP3    H1 9765   3.371   4.739   0.858 -1.6679  0.0252 -0.4957
 3267TIP3    H2 9766   3.386   4.599   0.913 -2.1115  0.2762  0.2809
 3268TIP3   OH2 9767   4.634   4.423   3.416 -0.3990  0.0667  0.2382
 3268TIP3    H1 9768   4.710   4.411   3.358 -1.4821  0.1159 -1.2224
 3268TIP3    H2 9769   4.647   4.358   3.485  0.8594 -0.0831 -0.1113
 3269TIP3   OH2 9770   4.546   0.586   1.376 -0.1899 -0.1898 -0.7118
 3269TIP3    H1 9771   4.618   0.648   1.361 -0.5070  0.4551  0.3522
 3269TIP3    H2 9772   4.471   0.642   1.397 -1.4108 -0.7769 -3.3260
 3270TIP3   OH2 9773   2.879   5.868   2.798 -0.0538  0.1545 -0.1282
 3270TIP3    H1 9774   2.940   5.914   2.857 -0.1171  0.3492 -0.2124
 3270TIP3    H2 9775   2.928   5.860   2.716 -0.4382  1.0510 -0.4562
 3271TIP3   OH2 9776   3.380   3.812   0.880 -0.5427  0.0804  0.6421
 3271TIP3    H1 9777   3.340   3.727   0.859  1.1743 -0.3623 -0.9961
 3271TIP3    H2 9778   3.472   3.791   0.899  0.2205  1.6906 -1.1140
 3272TIP3   OH2 9779   5.969   5.108   3.632 -0.1471 -0.2826 -0.2392
 3272TIP3    H1 9780   5.971   5.173   3.702  0.1923  0.6047 -1.0657
 3272TIP3    H2 9781   6.057   5.071   3.631 -0.0107  0.0578 -0.5382
 3273TIP3   OH2 9782   3.633   2.742   3.457  0.0762  0.2846  0.2914
 3273TIP3    H1 9783   3.630   2.686   3.379  0.3061 -0.5100  0.8436
 3273TIP3    H2 9784   3.682   2.690   3.521 -2.4167 -0.1931  1.8517
 3274TIP3   OH2 9785   2.324   5.326   2.887 -0.0730  0.3675  0.3819
 3274TIP3    H1 9786   2.336   5.275   2.807 -2.2442 -0.2837  0.4494
 3274TIP3    H2 9787   2.401   5.383   2.890  0.7737 -0.6213 -1.3864
 3275TIP3   OH2 9788   3.847   3.804   3.197  0.1320 -0.4375 -0.1261
 3275TIP3    H1 9789   3.817   3.759   3.277 -0.2502  0.5331  0.2809
 3275TIP3    H2 9790   3.834   3.739   3.128 -0.9005 -0.7913  0.3783
 3276TIP3   OH2 9791   3.367   4.505   0.445  0.6873  0.3355  0.0366
 3276TIP3    H1 9792   3.300   4.573   0.441  1.0039  0.6112 -0.7454
 3276TIP3    H2 9793   3.449   4.551   0.427  0.9352 -0.2104 -0.2518
 3277TIP3   OH2 9794   3.940   3.590   2.561 -0.1203 -0.1474 -0.0310
 3277TIP3    H1 9795   3.889   3.521   2.604 -1.0038 -1.0045 -2.4074
 3277TIP3    H2 9796   3.878   3.662   2.549 -0.2764 -0.4578 -1.1522
 3278TIP3   OH2 9797   3.950   4.384   3.213  0.0931 -0.0153  0.0537
 3278TIP3    H1 9798   3.949   4.303   3.161  0.3849  1.1593 -1.8616
 3278TIP3    H2 9799   3.980   4.451   3.151 -0.7341  1.6681  1.4372
 3279TIP3   OH2 9800   3.196   6.071   4.118 -0.7732 -0.4757  0.0774
 3279TIP3    H1 9801   3.266   6.086   4.055 -1.3285  1.9542  0.0013
 3279TIP3    H2 9802   3.120   6.050   4.064 -0.9015  0.1803  0.0018
 3280TIP3   OH2 9803   2.104   5.000   0.902 -0.1094  0.5184  0.5406
 3280TIP3    H1 9804   2.187   5.046   0.890 -0.1037  0.4884  0.4668
 3280TIP3    H2 9805   2.058   5.011   0.819  0.5511 -0.9544 -0.0295
 3281TIP3   OH2 9806   2.552   3.340   2.330  0.6274 -0.1308  0.0252
 3281TIP3    H1 9807   2.601   3.394   2.268 -0.4513  0.4735 -0.3059
 3281TIP3    H2 9808   2.462   3.344   2.299 -0.0501  0.7806  2.0626
 3282TIP3   OH2 9809   3.374   3.846   2.141 -0.3657  0.1057 -0.9060
 3282TIP3    H1 9810   3.464   3.845   2.106  0.1577  1.6465  0.3444
 3282TIP3    H2 9811   3.382   3.887   2.227 -1.9625 -1.7690  0.1802
 3283TIP3   OH2 9812   1.660   3.752   1.662 -0.1022  0.1439 -0.2892
 3283TIP3    H1 9813   1.611   3.670   1.658 -3.1698  1.6927  2.2760
 3283TIP3    H2 9814   1.679   3.763   1.756  0.0228  2.4598 -0.5635
 3284TIP3   OH2 9815   3.088   3.173   3.426  0.1110 -0.2153  0.1375
 3284TIP3    H1 9816   3.049   3.090   3.452 -0.5805  0.7872  2.4133
 3284TIP3    H2 9817   3.170   3.178   3.475  0.2715  0.3223 -0.1750
 3285TIP3   OH2 9818   4.207   4.986   2.848 -0.2224  0.0996 -0.0225
 3285TIP3    H1 9819   4.266   5.010   2.920  0.0524  0.3319 -0.3255
 3285TIP3    H2 9820   4.165   5.068   2.824  1.2150  0.4176 -1.5082
 3286TIP3   OH2 9821   4.417   4.937   0.423  0.3626 -0.2635 -0.1550
 3286TIP3    H1 9822   4.482   4.995   0.382  1.2790 -1.6396 -0.6559
 3286TIP3    H2 9823   4.399   4.870   0.357 -2.1816  0.5229 -0.3423
 3287TIP3   OH2 9824   3.171   4.735   0.389  0.0503 -0.7261  0.0559
 3287TIP3    H1 9825   3.099   4.711   0.446  0.2087  0.7153  0.8767
 3287TIP3    H2 9826   3.129   4.763   0.307 -0.2137 -1.8657 -0.2066
 3288TIP3   OH2 9827   2.309   4.559   0.752  0.3561 -0.0448 -0.5428
 3288TIP3    H1 9828   2.282   4.635   0.804 -1.7364  0.1554 -1.8538
 3288TIP3    H2 9829   2.379   4.592   0.696  1.2366  0.2453  0.7191
 3289TIP3   OH2 9830   2.934   3.439   0.790 -0.4707 -0.5787 -0.6271
 3289TIP3    H1 9831   2.922   3.476   0.702 -1.4265  0.9449  0.1260
 3289TIP3    H2 9832   2.881   3.495   0.847  1.2458 -0.6966  1.1357
 3290TIP3   OH2 9833   2.919   5.433   1.441 -0.0136  0.2760  0.0195
 3290TIP3    H1 9834   2.959   5.348   1.456 -0.2182 -0.1887 -1.9088
 3290TIP3    H2 9835   2.873   5.454   1.522 -3.0659 -3.1273 -0.7530
 3291TIP3   OH2 9836   4.191   3.735   1.747 -0.3779 -0.5314 -0.0666
 3291TIP3    H1 9837   4.259   3.710   1.684  1.6161 -3.5540  3.0500
 3291TIP3    H2 9838   4.231   3.806   1.798  0.4459 -2.1998  1.6619
 3292TIP3   OH2 9839   2.245   1.999   2.289 -0.1802 -0.1119 -0.1335
 3292TIP3    H1 9840   2.336   1.969   2.280 -0.0523  0.4193 -0.6294
 3292TIP3    H2 9841   2.227   2.046   2.207 -0.0526  2.0583  1.0636
 3293TIP3   OH2 9842   4.130   6.597   4.507 -0.2867 -0.5205  0.4013
 3293TIP3    H1 9843   4.048   6.589   4.458 -0.0943  1.0632 -0.2267
 3293TIP3    H2 9844   4.191   6.636   4.445  0.3351  0.2862  1.4927
 3294TIP3   OH2 9845   4.479   6.338   0.856  0.0570 -0.4823 -0.4584
 3294TIP3    H1 9846   4.479   6.249   0.892  1.4764  0.2801  1.4948
 3294TIP3    H2 9847   4.551   6.338   0.792 -0.5246 -0.9742 -1.1263
 3295TIP3   OH2 9848   1.966   5.343   1.515  0.4716 -0.3739  0.3572
 3295TIP3    H1 9849   1.938   5.385   1.596  0.3631  0.6558 -0.2118
 3295TIP3    H2 9850   1.939   5.403   1.445 -0.9781 -2.0339 -0.5734
 3296TIP3   OH2 9851   3.337   5.935   1.976 -0.2294  0.5785 -0.2585
 3296TIP3    H1 9852   3.374   5.885   2.048  0.1728 -1.0761 -1.5836
 3296TIP3    H2 9853   3.331   5.873   1.903 -2.2062  1.7651 -1.1606
 3297TIP3   OH2 9854   2.619   2.899   0.531 -0.0004 -0.9556 -0.0981
 3297TIP3    H1 9855   2.604   2.922   0.439 -2.5896  0.5739  0.6603
 3297TIP3    H2 9856   2.696   2.843   0.529  1.0626  0.4993 -3.0089
 3298TIP3   OH2 9857   5.786   5.588   2.290 -0.3913  0.7735 -0.2560
 3298TIP3    H1 9858   5.706   5.604   2.340 -0.2624  1.4042 -0.2539
 3298TIP3    H2 9859   5.756   5.553   2.206 -0.5808 -1.0728  0.5573
 3299TIP3   OH2 9860   3.440   3.313   2.649  0.2572 -0.0342 -0.1015
 3299TIP3    H1 9861   3.458   3.220   2.639  1.7025  0.0177  1.6381
 3299TIP3    H2 9862   3.378   3.334   2.579 -1.5094 -2.6755  0.5842
 3300TIP3   OH2 9863   4.677   3.931   2.857 -0.1824 -0.2296  0.1906
 3300TIP3    H1 9864   4.747   3.994   2.876 -0.6882  0.0131  1.2816
 3300TIP3    H2 9865   4.635   3.915   2.941 -1.5548 -0.2595 -0.4862
 3301TIP3   OH2 9866   4.372   3.283   3.050  0.1043  0.2888  0.4398
 3301TIP3    H1 9867   4.326   3.200   3.060  1.3411 -0.5370 -0.6201
 3301TIP3    H2 9868   4.427   3.289   3.128  0.0822  0.0776  0.4714
 3302TIP3   OH2 9869   3.338   2.748   2.032  0.4600  0.4440  0.4547
 3302TIP3    H1 9870   3.300   2.754   1.944  1.8695  0.0608 -0.1977
 3302TIP3    H2 9871   3.282   2.804   2.086 -0.9653 -0.0307 -0.4861
 3303TIP3   OH2 9872   1.059   3.577   2.623  0.2633  0.2829 -0.1792
 3303TIP3    H1 9873   1.038   3.564   2.530  1.6008 -2.4107 -0.1616
 3303TIP3    H2 9874   1.152   3.603   2.623  0.1933  0.5444  0.3996
 3304TIP3   OH2 9875   4.209   5.293   1.091  0.1567 -0.3991  0.0695
 3304TIP3    H1 9876   4.116   5.285   1.067  0.3037  3.2609 -2.0441
 3304TIP3    H2 9877   4.214   5.374   1.141  2.2247 -0.6855  0.3724
 3305TIP3   OH2 9878   2.331   4.476   2.740 -0.0436  0.7260  0.5750
 3305TIP3    H1 9879   2.347   4.397   2.688 -0.5530  0.9793  0.0234
 3305TIP3    H2 9880   2.390   4.542   2.704  0.0413  0.7304  0.7211
 3306TIP3   OH2 9881   3.531   4.793   3.585  0.1823  0.0051  0.6383
 3306TIP3    H1 9882   3.544   4.849   3.662 -1.9679  2.5936 -0.8468
 3306TIP3    H2 9883   3.614   4.798   3.537  1.2137 -0.9073  2.2501
 3307TIP3   OH2 9884   3.535   4.938   3.835  0.4745 -0.3727 -0.1903
 3307TIP3    H1 9885   3.598   4.899   3.896  0.0998 -0.1367  0.3528
 3307TIP3    H2 9886   3.450   4.927   3.879  0.4592  1.9280  0.4214
 3308TIP3   OH2 9887   2.028   3.255   1.518  0.1078  0.3306  0.0562
 3308TIP3    H1 9888   2.081   3.230   1.594  1.1287 -1.0227 -1.0608
 3308TIP3    H2 9889   1.971   3.179   1.504  1.1188 -0.1510 -1.5434
 3309TIP3   OH2 9890   2.762   4.143   1.617 -0.1358  0.1441  0.2508
 3309TIP3    H1 9891   2.852   4.142   1.584 -0.4092 -0.7867 -0.5179
 3309TIP3    H2 9892   2.758   4.071   1.680 -0.5841 -0.4588 -0.4452
 3310TIP3   OH2 9893   3.348   4.322   1.329 -0.6193 -0.1546  0.2919
 3310TIP3    H1 9894   3.263   4.278   1.333 -0.9884  0.5838  0.7730
 3310TIP3    H2 9895   3.380   4.321   1.419 -0.1924 -0.2789  0.1409
 3311TIP3   OH2 9896   4.613   2.003   0.558 -0.0785  0.0284  0.1087
 3311TIP3    H1 9897   4.706   1.978   0.553 -0.0868  0.4410 -3.0448
 3311TIP3    H2 9898   4.566   1.921   0.546 -0.1128  0.1755 -0.7712
 3312TIP3   OH2 9899   3.734   3.667   1.877  0.2749 -0.5749 -0.0733
 3312TIP3    H1 9900   3.722   3.762   1.873  0.4506 -0.5465  0.0803
 3312TIP3    H2 9901   3.791   3.647   1.803 -1.3206 -0.8071 -1.2649
 3313TIP3   OH2 9902   4.788   0.512   0.941  0.3366 -0.0508  0.2664
 3313TIP3    H1 9903   4.785   0.416   0.939  0.4316 -0.0412 -1.4256
 3313TIP3    H2 9904   4.815   0.537   0.852 -0.5818  1.5655  0.4154
 3314TIP3   OH2 9905   3.026   4.211   1.538 -0.3408 -0.1172  0.2491
 3314TIP3    H1 9906   3.062   4.152   1.472 -0.3582  0.9056 -0.6860
 3314TIP3    H2 9907   3.031   4.298   1.498 -0.6958  0.4642  1.4500
 3315TIP3   OH2 9908   2.315   5.090   1.620  0.5468 -0.5351  0.0468
 3315TIP3    H1 9909   2.356   5.176   1.604 -0.2123  0.0240  1.0631
 3315TIP3    H2 9910   2.253   5.080   1.548  1.9048 -1.0408 -1.0769
 3316TIP3   OH2 9911   3.156   3.427   3.309 -0.2735 -0.3341  0.3423
 3316TIP3    H1 9912   3.103   3.354   3.342  0.4356 -1.1641 -0.3255
 3316TIP3    H2 9913   3.237   3.422   3.359  0.3347 -0.8727 -0.6748
 3317TIP3   OH2 9914   4.166   5.563   1.155 -0.6054 -0.0088 -0.5116
 3317TIP3    H1 9915   4.095   5.541   1.215 -0.0317 -0.3787  0.0421
 3317TIP3    H2 9916   4.189   5.653   1.176 -0.2344 -0.2207  0.0052
 3318TIP3   OH2 9917   5.574   2.551   4.013 -0.1633  0.1579 -0.1458
 3318TIP3    H1 9918   5.524   2.587   4.086  0.0673 -0.9756  0.5868
 3318TIP3    H2 9919   5.509   2.535   3.944 -0.7911 -1.1403  0.7360
 3319TIP3   OH2 9920   0.793   0.480   4.351 -0.1209 -0.3929 -0.5407
 3319TIP3    H1 9921   0.803   0.564   4.307  0.4996 -0.2369 -0.0974
 3319TIP3    H2 9922   0.792   0.416   4.279  1.5591 -0.1983 -0.7552
 3320TIP3   OH2 9923   6.201   6.223   2.104  0.0001 -0.2357  0.3750
 3320TIP3    H1 9924   6.175   6.297   2.159 -2.0496  0.3152 -1.2572
 3320TIP3    H2 9925   6.214   6.151   2.166  2.6599  1.5890  2.0625
 3321TIP3   OH2 9926   4.013   3.772   0.984 -0.2661 -0.0198 -0.5493
 3321TIP3    H1 9927   4.080   3.706   0.964  0.8628  0.0924  2.6114
 3321TIP3    H2 9928   3.973   3.741   1.065 -1.7569  1.6721 -0.6141
 3322TIP3   OH2 9929   1.917   4.107   2.105 -0.2673 -0.0151 -0.3110
 3322TIP3    H1 9930   1.951   4.024   2.071 -1.2673 -1.3912  1.9378
 3322TIP3    H2 9931   1.977   4.130   2.175 -2.3456 -1.0466  1.8607
 3323TIP3   OH2 9932   2.224   2.415   2.466  0.2119  0.1315 -0.2466
 3323TIP3    H1 9933   2.135   2.444   2.450 -0.0530 -0.9258 -0.7639
 3323TIP3    H2 9934   2.270   2.431   2.383  0.5815  0.9360  0.1062
 3324TIP3   OH2 9935   6.129   2.805   3.485 -0.0627  0.0347 -0.3134
 3324TIP3    H1 9936   6.083   2.722   3.494 -2.1007  1.2313  0.6843
 3324TIP3    H2 9937   6.059   2.870   3.475  1.5215  1.4996 -2.2397
 3325TIP3   OH2 9938   2.760   3.568   2.730  0.4217 -0.1690 -0.3007
 3325TIP3    H1 9939   2.671   3.594   2.756  0.0722 -1.6774  0.1044
 3325TIP3    H2 9940   2.812   3.647   2.740 -0.4634  0.2127  1.5172
 3326TIP3   OH2 9941   4.031   5.759   0.017 -0.1329 -0.6141  0.0053
 3326TIP3    H1 9942   4.030   5.841   0.065 -0.0254  0.0029 -1.0314
 3326TIP3    H2 9943   4.002   5.782  -0.072  1.0245 -1.4847 -0.6173
 3327TIP3   OH2 9944   6.172   2.496   3.056 -0.1414 -0.4722 -0.1929
 3327TIP3    H1 9945   6.235   2.433   3.091 -0.4446  0.8213  2.7760
 3327TIP3    H2 9946   6.099   2.442   3.025  1.1238 -1.7729 -0.9751
 3328TIP3   OH2 9947   2.457   3.531   1.901 -0.1383  0.1820 -0.5124
 3328TIP3    H1 9948   2.476   3.599   1.967  1.7130 -0.6920 -0.1100
 3328TIP3    H2 9949   2.371   3.498   1.925  0.7377 -0.5051  1.8579
 3329TIP3   OH2 9950   5.348   3.209   2.728  1.0201 -0.4107 -0.1448
 3329TIP3    H1 9951   5.401   3.254   2.661 -0.3638  0.9164 -0.3838
 3329TIP3    H2 9952   5.379   3.246   2.811 -0.7887  1.7979 -0.3959
 3330TIP3   OH2 9953   2.963   5.444   3.396  0.0455 -0.0647  0.6211
 3330TIP3    H1 9954   3.040   5.417   3.446  0.4095 -2.2158 -1.0045
 3330TIP3    H2 9955   2.918   5.362   3.375 -0.4986  0.8173 -1.8906
 3331TIP3   OH2 9956   2.195   4.651   2.489  0.1035 -0.6334 -0.0159
 3331TIP3    H1 9957   2.140   4.684   2.560  0.1433 -0.7540  0.0704
 3331TIP3    H2 9958   2.137   4.648   2.413  0.4617  1.0245 -0.3856
 3332TIP3   OH2 9959   2.473   1.669   0.623 -0.0328 -0.3875 -0.3659
 3332TIP3    H1 9960   2.473   1.763   0.605  0.0727 -0.4108 -0.4830
 3332TIP3    H2 9961   2.422   1.660   0.704 -1.3953 -0.3841 -1.2056
 3333TIP3   OH2 9962   4.591   2.734   2.575 -0.0704 -0.2307  0.3216
 3333TIP3    H1 9963   4.525   2.666   2.559 -1.4220  1.0051  0.5161
 3333TIP3    H2 9964   4.547   2.797   2.632  0.6156  1.6147 -1.1175
 3334TIP3   OH2 9965   2.945   4.544   1.117 -0.2466 -0.0205 -0.5407
 3334TIP3    H1 9966   2.859   4.561   1.080 -0.2066  1.4250  0.0197
 3334TIP3    H2 9967   3.005   4.595   1.063  0.1777 -0.4500 -0.4801
 3335TIP3   OH2 9968   3.626   4.964   0.604  0.3962  0.2507  0.0471
 3335TIP3    H1 9969   3.717   4.994   0.607  0.3425  0.3721  0.4808
 3335TIP3    H2 9970   3.589   4.990   0.689 -0.0786  0.3172 -0.1756
 3336TIP3   OH2 9971   5.626   2.502   2.824 -0.2548  0.3401  0.6561
 3336TIP3    H1 9972   5.635   2.493   2.919 -2.0371  0.5851  0.8589
 3336TIP3    H2 9973   5.685   2.574   2.802 -0.7977  1.1396  1.7636
 3337TIP3   OH2 9974   2.367   2.670   5.328 -0.1967  0.4368  0.0312
 3337TIP3    H1 9975   2.339   2.636   5.413 -1.5837 -1.8393 -1.2681
 3337TIP3    H2 9976   2.365   2.765   5.338  1.7324  0.2388  3.1761
 3338TIP3   OH2 9977   2.668   2.603   1.381 -0.1646  0.1813 -0.1304
 3338TIP3    H1 9978   2.580   2.641   1.375 -0.1121  0.4018  0.4122
 3338TIP3    H2 9979   2.717   2.642   1.308  0.1355  1.8426  0.9303
 3339TIP3   OH2 9980   1.686   3.535   0.289  0.5110 -1.0385 -0.1431
 3339TIP3    H1 9981   1.605   3.582   0.271  1.8075  0.6932 -1.7760
 3339TIP3    H2 9982   1.687   3.463   0.226  0.0598 -1.2608  0.1097
 3340TIP3   OH2 9983   2.083   4.507   0.983  0.0631 -0.0810  0.5771
 3340TIP3    H1 9984   2.116   4.578   0.929 -1.4706 -0.0563 -0.3633
 3340TIP3    H2 9985   1.989   4.523   0.990  0.1763 -0.2828  2.9717
 3341TIP3   OH2 9986   1.989   6.354   3.091 -0.4274 -0.4974 -0.5299
 3341TIP3    H1 9987   2.075   6.394   3.080 -0.5096 -0.4139 -0.8517
 3341TIP3    H2 9988   1.930   6.407   3.038 -0.5519 -0.9936 -0.8899
 3342TIP3   OH2 9989   3.602   3.452   0.275 -0.6737 -0.6531  0.1075
 3342TIP3    H1 9990   3.539   3.469   0.205  1.0905  0.2746 -1.2840
 3342TIP3    H2 9991   3.647   3.372   0.247  0.2976 -0.0663 -0.0186
 3343TIP3   OH2 9992   7.258   1.587   2.441 -0.0076  0.0593 -0.0870
 3343TIP3    H1 9993   7.172   1.552   2.464  0.1551  0.7443  1.6444
 3343TIP3    H2 9994   7.239   1.668   2.393 -0.3351 -0.7766 -1.4092
 3344TIP3   OH2 9995   3.495   4.373   0.738 -0.5799  0.1843 -0.2789
 3344TIP3    H1 9996   3.412   4.331   0.716 -0.6784  0.8569 -1.2464
 3344TIP3    H2 9997   3.499   4.450   0.681 -0.0026  1.0038  0.8452
 3345TIP3   OH2 9998   2.446   5.187   2.236 -0.0334  0.5293  0.1402
 3345TIP3    H1 9999   2.475   5.276   2.214  1.3739 -0.1920 -1.0119
 3345TIP3    H210000   2.360   5.179   2.196 -0.3831  1.5480  0.6773
 3346TIP3   OH210001   5.512   4.966   5.277  0.0506  0.6756 -0.0462
 3346TIP3    H110002   5.467   5.026   5.337  0.9486  0.0159  1.3099
 3346TIP3    H210003   5.445   4.939   5.215 -0.3799  3.0736 -0.6749
 3347TIP3   OH210004   2.253   5.135   1.341 -0.1015  0.2823  0.3037
 3347TIP3    H110005   2.320   5.203   1.341 -0.0104  0.1980  0.9162
 3347TIP3    H210006   2.205   5.148   1.259  0.0079  0.9882  0.3475
 3348TIP3   OH210007   3.085   3.664   3.156 -0.0092  0.2678  0.9101
 3348TIP3    H110008   3.096   3.582   3.204 -1.8226 -0.0622  0.7848
 3348TIP3    H210009   3.172   3.682   3.120  0.1899 -2.1172  0.0824
 3349TIP3   OH210010   4.585   3.819   3.140 -0.5745  0.0279 -0.6932
 3349TIP3    H110011   4.647   3.793   3.208 -1.1377 -0.4590 -0.3606
 3349TIP3    H210012   4.528   3.743   3.130  0.8191 -0.7552 -3.2420
 3350TIP3   OH210013   2.893   3.812   2.151 -0.4191 -0.0222 -0.6035
 3350TIP3    H110014   2.939   3.843   2.228 -0.5604 -1.8823  0.2618
 3350TIP3    H210015   2.813   3.864   2.148  0.9035  2.0022 -1.1178
 3351TIP3   OH210016   2.353   5.082   0.904 -0.0388 -0.4138  0.1057
 3351TIP3    H110017   2.420   5.069   0.837  1.6918  1.0230  1.4981
 3351TIP3    H210018   2.377   5.022   0.975 -0.4145 -0.1426  0.4669
 3352TIP3   OH210019   2.687   4.597   1.046 -0.0200  0.1617 -0.3349
 3352TIP3    H110020   2.677   4.518   1.099  1.6781 -0.2284 -0.5670
 3352TIP3    H210021   2.660   4.571   0.958 -0.0589  0.0189 -0.2811
 3353TIP3   OH210022   4.513   3.698   0.208  0.6048  0.0332 -0.3429
 3353TIP3    H110023   4.439   3.725   0.154 -0.0320  0.4398  0.7107
 3353TIP3    H210024   4.576   3.770   0.200  0.4920  0.1122 -0.5123
 3354TIP3   OH210025   4.499   3.107   1.733 -0.0114  0.1577  0.0921
 3354TIP3    H110026   4.482   3.023   1.776  1.0695 -0.8815 -1.4226
 3354TIP3    H210027   4.593   3.106   1.716 -0.2653  0.9394 -1.4517
 3355TIP3   OH210028   3.184   3.107   1.535  0.0683 -0.3811  0.5156
 3355TIP3    H110029   3.118   3.121   1.603  0.5685  0.1550  0.8901
 3355TIP3    H210030   3.243   3.182   1.542 -0.1383 -0.0840 -0.8120
 3356TIP3   OH210031   3.448   2.492   0.178 -0.7231 -0.3715  0.0160
 3356TIP3    H110032   3.542   2.491   0.199 -0.6713  0.8711 -0.0812
 3356TIP3    H210033   3.405   2.512   0.261 -0.8243  0.1107 -0.1508
 3357TIP3   OH210034   2.715   3.688   1.791  0.2097 -0.6978  0.3654
 3357TIP3    H110035   2.666   3.609   1.813  1.1845 -1.0055  1.4863
 3357TIP3    H210036   2.726   3.684   1.696 -0.5241 -1.4489  0.3098
 3358TIP3   OH210037   3.355   2.964   4.058  0.2313 -0.1922 -0.2787
 3358TIP3    H110038   3.349   2.912   3.978  0.2298 -0.9614  0.2089
 3358TIP3    H210039   3.274   2.944   4.106  0.9911 -1.0499  0.6801
 3359TIP3   OH210040   5.561   4.166   3.963 -0.2562  0.1158  0.1188
 3359TIP3    H110041   5.640   4.218   3.974 -0.4965  0.2883  1.0561
 3359TIP3    H210042   5.528   4.191   3.877  0.5841  0.2077 -0.1831
 3360TIP3   OH210043   3.433   6.172   2.819  0.4902  0.1525  0.1628
 3360TIP3    H110044   3.429   6.204   2.729 -0.7631 -0.5649 -0.0587
 3360TIP3    H210045   3.489   6.094   2.814  1.3075  0.7399  0.2012
 3361TIP3   OH210046   3.913   3.428   1.951  0.0403 -0.5886  0.0740
 3361TIP3    H110047   3.847   3.375   1.906 -1.6298  1.7152 -0.2731
 3361TIP3    H210048   3.874   3.448   2.036  0.6560  0.0732  0.2069
 3362TIP3   OH210049   4.177   3.489   2.389 -0.1622  0.1392  0.4009
 3362TIP3    H110050   4.177   3.394   2.400 -1.1346  0.3153  1.9745
 3362TIP3    H210051   4.216   3.502   2.302  2.9598 -1.5154  1.4624
 3363TIP3   OH210052   3.623   3.341   1.917 -0.5280 -0.4152  0.3396
 3363TIP3    H110053   3.591   3.297   1.839  0.7710 -0.2604 -0.2949
 3363TIP3    H210054   3.622   3.434   1.894  0.1882 -0.3974  0.3853
 3364TIP3   OH210055   0.206   4.546   1.056  0.2781 -0.2186  0.1091
 3364TIP3    H110056   0.276   4.509   1.110  0.2079 -0.2924  0.1485
 3364TIP3    H210057   0.238   4.536   0.966  0.1957 -0.5050  0.1107
 3365TIP3   OH210058   2.576   3.209   2.741 -0.3464 -0.6680  0.0838
 3365TIP3    H110059   2.519   3.286   2.740  1.6583  0.8802 -0.8191
 3365TIP3    H210060   2.637   3.224   2.669  1.5067 -1.9798  1.3232
 3366TIP3   OH210061   5.047   6.584   4.470 -0.2489 -0.0321  0.2993
 3366TIP3    H110062   5.063   6.525   4.544  2.3123 -1.7853 -1.5629
 3366TIP3    H210063   5.053   6.527   4.393 -0.3614  2.2013 -1.3974
 3367TIP3   OH210064   6.061   3.980   4.624  0.1869 -0.2831  0.1581
 3367TIP3    H110065   6.111   4.037   4.683  0.2667 -0.7197  0.5108
 3367TIP3    H210066   6.084   4.011   4.536  0.7057 -0.1690  0.3318
 3368TIP3   OH210067   4.216   6.534   5.424 -0.3262  0.1150 -0.7806
 3368TIP3    H110068   4.266   6.610   5.455  1.7402 -1.9887  1.2198
 3368TIP3    H210069   4.275   6.489   5.365 -1.5945  0.0921 -2.0543
 3369TIP3   OH210070   5.600   3.592   1.177  0.0602  0.2308 -0.4414
 3369TIP3    H110071   5.518   3.634   1.203  0.5864  0.8586  0.2297
 3369TIP3    H210072   5.598   3.595   1.081  0.1066  1.8521 -0.4147
 3370TIP3   OH210073   2.981   3.539   2.381 -0.0181 -0.0913  0.2569
 3370TIP3    H110074   2.999   3.512   2.471  1.3318  0.8074  0.2643
 3370TIP3    H210075   3.055   3.505   2.330 -1.4243 -1.7397 -0.7450
 3371TIP3   OH210076   5.115   5.561   0.571 -0.2697 -0.0688 -0.1587
 3371TIP3    H110077   5.086   5.647   0.600 -0.7768  0.4251 -2.0401
 3371TIP3    H210078   5.185   5.537   0.632 -0.7154  1.2870  0.9005
 3372TIP3   OH210079   2.665   3.144   2.443  0.1015  0.0076  0.0864
 3372TIP3    H110080   2.629   3.218   2.394  1.4329  0.7537  0.2253
 3372TIP3    H210081   2.744   3.179   2.485  0.9655 -1.5923 -0.1751
 3373TIP3   OH210082   4.798   6.641   1.487 -0.4010 -0.2965 -0.4364
 3373TIP3    H110083   4.748   6.569   1.527 -0.5354 -0.6966 -1.3172
 3373TIP3    H210084   4.731   6.699   1.450 -0.2632 -0.0709 -0.3355
 3374TIP3   OH210085   3.749   3.808   1.156 -0.6661 -0.0194 -0.0910
 3374TIP3    H110086   3.689   3.806   1.081 -1.5781 -0.9919  0.6404
 3374TIP3    H210087   3.774   3.900   1.165  0.6337 -0.1114 -2.5027
 3375TIP3   OH210088   4.461   2.256   2.504  0.5356 -0.2130 -0.1562
 3375TIP3    H110089   4.509   2.187   2.458  1.1878 -0.4160  0.8200
 3375TIP3    H210090   4.427   2.214   2.583 -1.2936 -0.0777 -0.8440
 3376TIP3   OH210091   4.181   5.419   0.648 -0.1678  0.1947  0.1489
 3376TIP3    H110092   4.136   5.491   0.692 -1.2082 -0.4148  0.0875
 3376TIP3    H210093   4.263   5.458   0.616 -0.6148  1.2833  0.3121
 3377TIP3   OH210094   2.332   4.875   3.298  0.1081  0.2022  0.1401
 3377TIP3    H110095   2.376   4.888   3.382  1.8090  1.1822 -0.8707
 3377TIP3    H210096   2.379   4.931   3.237 -0.3406 -1.3961 -1.7418
 3378TIP3   OH210097   4.723   4.226   3.019 -0.5981 -0.2275  0.7522
 3378TIP3    H110098   4.806   4.218   2.972 -0.3078  0.0763  1.2118
 3378TIP3    H210099   4.700   4.319   3.014 -2.6992 -0.8487 -2.4117
 3379TIP3   OH210100   2.555   3.409   3.560 -0.1232  0.0152  0.0082
 3379TIP3    H110101   2.578   3.441   3.647  1.8872  1.9951 -1.2137
 3379TIP3    H210102   2.637   3.377   3.523 -1.1867 -1.9479 -0.7378
 3380TIP3   OH210103   5.011   3.160   2.371 -0.0758 -0.5006  0.1106
 3380TIP3    H110104   4.949   3.132   2.438  0.0790  1.2335  1.0166
 3380TIP3    H210105   5.059   3.233   2.411 -1.0681  1.6375 -2.4037
 3381TIP3   OH210106   5.896   2.310   2.580  0.9368 -0.0339  0.6371
 3381TIP3    H110107   5.972   2.302   2.638  1.4860  0.3762 -0.0246
 3381TIP3    H210108   5.845   2.231   2.597  1.7413 -0.5393  0.7509
 3382TIP3   OH210109   2.427   2.736   2.500 -0.2467  0.7316 -0.4093
 3382TIP3    H110110   2.414   2.827   2.524  1.5738  0.7561  0.5664
 3382TIP3    H210111   2.342   2.695   2.513 -0.4855  1.7779  1.4508
 3383TIP3   OH210112   2.419   4.515   1.249  0.4707  0.0640  0.0355
 3383TIP3    H110113   2.488   4.473   1.301 -2.1735 -2.1474  1.9534
 3383TIP3    H210114   2.386   4.585   1.305 -0.1214 -0.1542 -0.0303
 3384TIP3   OH210115   6.004   0.938   1.560 -0.4034  0.4022  0.4898
 3384TIP3    H110116   5.983   1.017   1.510 -0.3505  0.8317  1.1283
 3384TIP3    H210117   6.041   0.972   1.642  0.2698 -0.3012  0.4779
 3385TIP3   OH210118   2.283   3.476   1.541 -0.6305 -0.3808  0.7832
 3385TIP3    H110119   2.244   3.556   1.576 -1.6422 -0.0273 -1.0560
 3385TIP3    H210120   2.248   3.406   1.595 -0.3679  0.3454  1.9096
 3386TIP3   OH210121   2.550   5.346   1.871  0.3575  0.0733  0.1110
 3386TIP3    H110122   2.568   5.436   1.898  0.8143  0.1585 -0.4612
 3386TIP3    H210123   2.633   5.300   1.884  0.2272 -0.1769  0.0583
 3387TIP3   OH210124   4.072   2.059   2.665 -0.5969 -0.3572 -0.2062
 3387TIP3    H110125   4.095   2.142   2.624 -0.8218 -0.4555 -0.5327
 3387TIP3    H210126   4.026   2.010   2.596  1.3912 -1.6007 -0.7094
 3388TIP3   OH210127   4.215   4.491   2.872  0.1132 -0.2873 -0.1891
 3388TIP3    H110128   4.188   4.419   2.814 -1.1334  0.8179 -0.9913
 3388TIP3    H210129   4.172   4.568   2.836  1.1830  0.8161  0.8693
 3389TIP3   OH210130   4.644   3.625   1.331  0.2394  0.1217  0.3613
 3389TIP3    H110131   4.557   3.609   1.366  0.4129  0.4511  0.9393
 3389TIP3    H210132   4.652   3.563   1.258 -0.2196 -0.3779  0.7345
 3390TIP3   OH210133   2.596   4.583   1.827  0.3430 -0.7532 -0.4944
 3390TIP3    H110134   2.527   4.553   1.887  0.8212  0.1256  0.5020
 3390TIP3    H210135   2.586   4.678   1.825 -0.0475 -0.8129 -2.2817
 3391TIP3   OH210136   3.483   2.897   2.384 -0.1119 -0.5742 -0.4378
 3391TIP3    H110137   3.402   2.881   2.335 -0.4216 -1.3074  0.3142
 3391TIP3    H210138   3.546   2.835   2.346  0.1984  0.2179 -1.2428
 3392TIP3   OH210139   4.817   3.015   2.746 -0.2954 -0.1825  0.6274
 3392TIP3    H110140   4.803   3.017   2.652  0.3072  0.9313  0.5478
 3392TIP3    H210141   4.912   3.022   2.757 -0.3822  0.0109  1.3223
 3393TIP3   OH210142   5.395   3.299   2.985  0.3383 -0.2663  0.2174
 3393TIP3    H110143   5.477   3.315   3.031  0.3087  1.5120 -0.2959
 3393TIP3    H210144   5.330   3.287   3.054  0.9401 -1.1987  0.6221
 3394TIP3   OH210145   3.201   3.518   2.218  0.1879 -0.5905  0.9844
 3394TIP3    H110146   3.273   3.580   2.225  1.1923 -1.6892  0.6514
 3394TIP3    H210147   3.145   3.554   2.150  0.7322 -0.0226  0.8341
 3395TIP3   OH210148   2.897   1.816   3.540  0.5157 -0.4836 -0.3626
 3395TIP3    H110149   2.936   1.855   3.462  0.7691  0.4020  0.1971
 3395TIP3    H210150   2.825   1.875   3.563  1.6272  0.3400  1.1638
 3396TIP3   OH210151   2.262   2.767   3.228 -0.2381  0.6653  0.1370
 3396TIP3    H110152   2.239   2.856   3.200  0.1347  0.8541  0.4328
 3396TIP3    H210153   2.220   2.711   3.163  0.8216  1.1143 -0.9617
 3397TIP3   OH210154   2.124   4.281   1.932 -0.1453  0.1326 -0.3287
 3397TIP3    H110155   2.030   4.301   1.933 -0.4758 -1.2960 -1.5489
 3397TIP3    H210156   2.128   4.185   1.934  1.2995  0.1942  0.1005
 3398TIP3   OH210157   4.100   5.412   2.924  0.4028 -0.3731 -0.0068
 3398TIP3    H110158   4.085   5.374   2.837  0.5685 -1.3659  0.3945
 3398TIP3    H210159   4.085   5.340   2.985  0.9201  0.1593  0.7572
 3399TIP3   OH210160   3.463   6.218   1.113 -0.1860 -0.1553  0.1872
 3399TIP3    H110161   3.514   6.298   1.104 -0.5325 -0.1839 -2.2460
 3399TIP3    H210162   3.434   6.219   1.205  2.1326  1.0544  0.9571
 3400TIP3   OH210163   3.110   5.024   3.169 -0.0787 -0.4828 -0.2134
 3400TIP3    H110164   3.030   4.988   3.133 -0.7626  1.1707 -0.4108
 3400TIP3    H210165   3.091   5.037   3.262  1.0054 -2.8922  0.3739
 3401TIP3   OH210166   6.624   5.075   4.115  0.9883  0.3029  0.0195
 3401TIP3    H110167   6.542   5.053   4.071  0.0484  0.8050  1.5119
 3401TIP3    H210168   6.623   5.170   4.123  0.7457  0.1489  1.9160
 3402TIP3   OH210169   3.755   3.595   2.139 -0.2313 -0.1894 -0.3635
 3402TIP3    H110170   3.752   3.620   2.047  2.9736 -0.4029 -0.5953
 3402TIP3    H210171   3.768   3.678   2.185  1.9584 -0.4532 -0.4505
 3403TIP3   OH210172   3.392   3.935   2.906  0.2424 -0.5163  0.4262
 3403TIP3    H110173   3.389   3.998   2.978  0.7242 -0.8507  0.7482
 3403TIP3    H210174   3.348   3.979   2.833  0.3696  0.1005  0.7148
 3404TIP3   OH210175   4.926   3.458   1.606  0.0143  0.3002  0.2049
 3404TIP3    H110176   4.861   3.520   1.642  0.5159  0.1611  1.3941
 3404TIP3    H210177   5.008   3.507   1.608 -0.4409  1.3582 -3.6566
 3405TIP3   OH210178   5.334   4.531   1.490  0.4422  0.0222 -0.3040
 3405TIP3    H110179   5.272   4.468   1.526 -0.2155  0.2548 -1.0251
 3405TIP3    H210180   5.280   4.594   1.442  0.6190  3.4684  3.6525
 3406TIP3   OH210181   3.858   0.235   2.451 -0.7621 -0.1589 -0.4828
 3406TIP3    H110182   3.819   0.312   2.493 -0.4391 -0.0369 -0.4075
 3406TIP3    H210183   3.788   0.170   2.451 -1.6644  0.7503 -2.2356
 3407TIP3   OH210184   4.813   4.603   3.656  0.4431 -0.6198  0.0796
 3407TIP3    H110185   4.781   4.516   3.679  0.6471 -0.4573  0.9973
 3407TIP3    H210186   4.755   4.631   3.585 -1.9310 -0.0730  2.1502
 3408TIP3   OH210187   5.776   4.729   0.285 -0.7443 -0.2119 -0.2731
 3408TIP3    H110188   5.795   4.781   0.362 -1.3427  0.2310 -0.4214
 3408TIP3    H210189   5.858   4.728   0.235 -0.7187  0.5490 -0.2471
 3409TIP3   OH210190   4.065   4.835   0.142  0.3155  0.8476  0.0861
 3409TIP3    H110191   3.983   4.859   0.184  0.8673  0.0420  1.6293
 3409TIP3    H210192   4.108   4.777   0.204  0.6080 -1.3218 -2.1043
 3410TIP3   OH210193   3.944   4.093   0.684  0.3146 -0.4516  0.1497
 3410TIP3    H110194   3.916   4.035   0.755 -1.4491  0.3960  0.1631
 3410TIP3    H210195   3.883   4.076   0.613 -0.0427  1.1658  0.0467
 3411TIP3   OH210196   3.713   2.401   2.252 -0.2217  0.0595 -0.4191
 3411TIP3    H110197   3.755   2.428   2.334 -1.5407 -0.7040  0.5358
 3411TIP3    H210198   3.686   2.483   2.211  1.4058  0.5092 -0.6305
 3412TIP3   OH210199   4.618   4.098   3.252  0.2880 -0.6004  0.4511
 3412TIP3    H110200   4.579   4.014   3.227 -0.2985 -0.1281 -0.2370
 3412TIP3    H210201   4.648   4.136   3.170  0.0850  0.1002  0.6958
 3413TIP3   OH210202   2.609   0.466   3.977 -0.1237 -0.1812 -0.7955
 3413TIP3    H110203   2.595   0.512   4.060 -1.0363  2.1287 -2.1781
 3413TIP3    H210204   2.575   0.378   3.993 -0.2363  0.1988  1.2849
 3414TIP3   OH210205   6.858   4.844   1.022  0.3382 -0.2605  0.3007
 3414TIP3    H110206   6.786   4.898   1.055 -1.5941 -1.4863 -1.7567
 3414TIP3    H210207   6.841   4.757   1.057  0.9442 -0.5167 -0.0387
 3415TIP3   OH210208   5.618   1.919   2.057  0.5339 -0.2663 -0.1300
 3415TIP3    H110209   5.677   1.973   2.110  0.3820 -1.3695  1.2156
 3415TIP3    H210210   5.594   1.975   1.983 -1.2961  2.3133  2.2875
 3416TIP3   OH210211   5.644   2.456   3.094 -0.3960 -0.0933  0.1701
 3416TIP3    H110212   5.631   2.487   3.184 -1.6362 -0.4154  0.1148
 3416TIP3    H210213   5.646   2.361   3.102  1.8924 -0.0609  0.1478
 3417TIP3   OH210214   3.950   2.058   3.265 -0.1608  0.0462  0.0066
 3417TIP3    H110215   4.040   2.026   3.268  0.3648  1.5846  1.1507
 3417TIP3    H210216   3.951   2.139   3.317 -2.2435 -0.0277  0.2036
 3418TIP3   OH210217   4.671   3.895   1.552 -0.7919 -0.0940 -0.4618
 3418TIP3    H110218   4.610   3.940   1.610  0.8599  2.3070 -0.4825
 3418TIP3    H210219   4.729   3.847   1.612 -0.8707  0.0380 -0.2772
 3419TIP3   OH210220   3.598   4.215   2.223  0.1436 -0.0420  0.2988
 3419TIP3    H110221   3.650   4.264   2.287  1.4409 -0.6195 -0.3055
 3419TIP3    H210222   3.589   4.128   2.261  0.4262 -0.2199 -0.0478
 3420TIP3   OH210223   5.229   5.450   3.341 -0.0918  0.7391  0.6506
 3420TIP3    H110224   5.306   5.400   3.367  0.4077  1.1606  0.0207
 3420TIP3    H210225   5.215   5.427   3.249 -0.0967  1.4461  0.4662
 3421TIP3   OH210226   1.953   4.941   0.678  0.0928  0.0888 -0.1357
 3421TIP3    H110227   1.884   4.906   0.735  1.2063  1.2103  1.9617
 3421TIP3    H210228   1.907   4.999   0.617 -1.0706 -0.8332 -0.1507
 3422TIP3   OH210229   3.015   4.001   2.547 -0.2766  0.4576  0.0173
 3422TIP3    H110230   3.063   4.051   2.481 -1.0398  0.3130 -0.6600
 3422TIP3    H210231   2.958   3.943   2.496 -0.8058  0.2812  0.8007
 3423TIP3   OH210232   6.714   5.914   4.490  0.5039  0.4276 -0.6335
 3423TIP3    H110233   6.716   5.840   4.429  0.6039  2.3686 -3.0559
 3423TIP3    H210234   6.621   5.927   4.508  0.4539  0.0317 -0.6043
 3424TIP3   OH210235   2.040   5.755   0.280 -0.1959  0.4129  0.4955
 3424TIP3    H110236   2.007   5.779   0.366  0.3818 -0.5688  0.9970
 3424TIP3    H210237   2.090   5.831   0.251 -1.3345  1.1837  0.5272
 3425TIP3   OH210238   3.622   6.666   1.406  0.6534 -0.1837  0.0921
 3425TIP3    H110239   3.665   6.676   1.320  1.2957 -1.0812  0.2983
 3425TIP3    H210240   3.695   6.656   1.467  0.2053  0.8791  0.8082
 3426TIP3   OH210241   1.875   3.425   4.070  0.2323  0.1256 -0.2856
 3426TIP3    H110242   1.782   3.444   4.087  0.0106 -0.6078 -0.6515
 3426TIP3    H210243   1.912   3.408   4.156  0.0017  0.2863 -0.1517
 3427TIP3   OH210244   4.326   4.716   0.736 -0.3054  0.1345 -0.3718
 3427TIP3    H110245   4.373   4.635   0.719  0.1784  0.2930  0.1952
 3427TIP3    H210246   4.380   4.784   0.694 -1.3461  0.0363 -1.9320
 3428TIP3   OH210247   2.701   3.660   1.244  0.5073 -0.0618 -0.1953
 3428TIP3    H110248   2.786   3.640   1.284  0.5417  0.9221  0.2366
 3428TIP3    H210249   2.708   3.752   1.218 -0.6319  0.1830  0.3582
 3429TIP3   OH210250   4.987   5.567   1.127 -0.2714 -0.4800 -0.5718
 3429TIP3    H110251   4.964   5.538   1.215  1.5084  2.5808  1.0162
 3429TIP3    H210252   4.914   5.623   1.100 -0.6217 -1.0800 -0.8696
 3430TIP3   OH210253   1.659   2.823   5.907  0.4865 -0.0498 -0.1010
 3430TIP3    H110254   1.747   2.791   5.925  0.6926  0.8542  0.4882
 3430TIP3    H210255   1.641   2.888   5.975 -0.6216 -0.1997 -0.2314
 3431TIP3   OH210256   5.280   4.183   2.689  0.3443 -0.5300  0.1006
 3431TIP3    H110257   5.346   4.227   2.635  0.4810  1.4452  1.8229
 3431TIP3    H210258   5.308   4.199   2.779 -2.2813  0.0408  0.8579
 3432TIP3   OH210259   1.514   4.664   2.776  0.8151  0.0925  0.1964
 3432TIP3    H110260   1.428   4.624   2.787  0.8753 -0.4238 -1.1198
 3432TIP3    H210261   1.569   4.595   2.739  1.2659  0.9869 -0.8634
 3433TIP3   OH210262   1.904   5.165   3.284 -0.1379 -0.0101 -0.0257
 3433TIP3    H110263   1.842   5.166   3.212  2.0729 -2.3066 -2.0517
 3433TIP3    H210264   1.976   5.221   3.255  1.1043 -1.5347  0.0350
 3434TIP3   OH210265   3.661   4.000   3.192  0.2015 -0.0013  0.2807
 3434TIP3    H110266   3.699   4.056   3.125  0.4706 -0.2555  0.2153
 3434TIP3    H210267   3.730   3.936   3.212 -0.3371 -0.7193 -0.1264
 3435TIP3   OH210268   6.566   0.787   0.977 -0.0752  0.8439 -0.4067
 3435TIP3    H110269   6.551   0.866   0.925  2.9666  2.3028  0.7744
 3435TIP3    H210270   6.569   0.819   1.068 -2.5996 -1.2393  0.4496
 3436TIP3   OH210271   3.903   4.072   3.060 -0.7161  0.9780  0.0034
 3436TIP3    H110272   3.965   4.142   3.039  1.2131 -0.6388  0.1487
 3436TIP3    H210273   3.947   4.021   3.128 -0.3484 -2.5935 -2.7645
 3437TIP3   OH210274   3.642   3.293   3.663  0.2545  0.9513  0.2652
 3437TIP3    H110275   3.725   3.340   3.654  0.2397  1.2810  1.7470
 3437TIP3    H210276   3.589   3.325   3.590  1.2037  1.2143 -0.3208
 3438TIP3   OH210277   2.469   4.468   1.578 -0.5068 -0.4160 -0.5321
 3438TIP3    H110278   2.424   4.545   1.542 -0.0075 -0.1143 -0.5107
 3438TIP3    H210279   2.522   4.503   1.649  0.5078 -0.6233 -1.1703
 3439TIP3   OH210280   3.417   6.485   2.067  0.5694 -0.2209 -0.1818
 3439TIP3    H110281   3.385   6.534   1.992  1.2830 -1.0926 -1.0661
 3439TIP3    H210282   3.378   6.529   2.143  0.2749  0.9910 -1.0195
 3440TIP3   OH210283   4.424   3.166   2.501  1.3606  0.0016  0.7146
 3440TIP3    H110284   4.473   3.129   2.428  2.7319  0.2362  1.4974
 3440TIP3    H210285   4.377   3.092   2.539  0.9225 -0.1844 -0.1614
 3441TIP3   OH210286   4.643   2.182   4.299 -0.7794 -0.0556 -0.2207
 3441TIP3    H110287   4.715   2.206   4.357 -1.6708 -0.2476  0.9787
 3441TIP3    H210288   4.578   2.251   4.311 -1.0286 -0.1635 -0.9005
 3442TIP3   OH210289   3.795   4.421   0.475  0.6777 -0.3338 -0.1325
 3442TIP3    H110290   3.774   4.387   0.562  1.6800  1.6930  0.9660
 3442TIP3    H210291   3.890   4.408   0.467  0.7780  0.5450 -0.4190
 3443TIP3   OH210292   3.994   4.338   2.720 -0.0124 -0.0929  0.0660
 3443TIP3    H110293   3.909   4.295   2.711  0.7185 -1.5317 -0.0501
 3443TIP3    H210294   3.991   4.410   2.657 -0.4720 -1.2257 -1.2318
 3444TIP3   OH210295   4.184   0.800   0.388 -0.5813  0.0213 -0.2267
 3444TIP3    H110296   4.125   0.819   0.315  0.3985  1.4217 -0.6880
 3444TIP3    H210297   4.271   0.821   0.354 -0.1946  1.4935  1.5964
 3445TIP3   OH210298   5.014   3.024   3.190 -0.0198 -0.0716 -0.1849
 3445TIP3    H110299   5.078   3.095   3.186 -1.5946  1.4024  0.3928
 3445TIP3    H210300   4.963   3.042   3.269 -1.0424 -1.3391 -0.5366
 3446TIP3   OH210301   6.546   2.792   3.492  0.2729  0.5345 -0.8917
 3446TIP3    H110302   6.612   2.760   3.554  2.3406  2.0106 -2.2941
 3446TIP3    H210303   6.495   2.855   3.543  0.0159 -0.4715  0.1402
 3447TIP3   OH210304   3.825   3.960   0.908 -0.7580  0.0343 -0.3245
 3447TIP3    H110305   3.881   3.891   0.944 -0.3577  0.3847 -0.2642
 3447TIP3    H210306   3.783   3.999   0.985 -0.8108  0.0060 -0.3391
 3448TIP3   OH210307   3.936   5.919   1.520 -0.0792 -0.3836  0.6514
 3448TIP3    H110308   3.840   5.927   1.513  0.0760  1.1059  0.1313
 3448TIP3    H210309   3.968   6.008   1.506  1.4763 -1.1559 -0.7967
 3449TIP3   OH210310   2.595   1.590   1.189  0.1925 -0.4018  0.1637
 3449TIP3    H110311   2.637   1.668   1.227 -1.2060 -0.1388  1.2270
 3449TIP3    H210312   2.666   1.526   1.182  0.6213 -0.2870  2.8105
 3450TIP3   OH210313   4.553   1.327   1.385 -0.0174 -0.4873 -0.0715
 3450TIP3    H110314   4.548   1.371   1.300  0.6780 -0.5639 -0.1624
 3450TIP3    H210315   4.486   1.369   1.438  0.2021  0.2392 -0.3596
 3451TIP3   OH210316   5.267   6.060   1.078  0.2358  0.0800 -0.1357
 3451TIP3    H110317   5.191   6.005   1.094 -0.3014  1.0852  0.8362
 3451TIP3    H210318   5.250   6.101   0.993  0.2122 -0.5356 -0.4284
 3452TIP3   OH210319   2.182   2.767   1.698 -0.1179  0.1954  0.1854
 3452TIP3    H110320   2.174   2.804   1.786 -0.7429  0.2244  0.1192
 3452TIP3    H210321   2.209   2.677   1.712 -0.2722  0.1839  0.4118
 3453TIP3   OH210322   3.526   3.647   2.707  0.4178 -0.1440  0.8551
 3453TIP3    H110323   3.558   3.727   2.749 -0.6888  1.1024 -0.6041
 3453TIP3    H210324   3.446   3.625   2.755 -0.2649  0.6788  0.1290
 3454TIP3   OH210325   3.841   5.792   2.228  0.0456 -0.2910 -0.6000
 3454TIP3    H110326   3.912   5.800   2.164  1.1873  0.6163  0.7297
 3454TIP3    H210327   3.850   5.704   2.263  2.1440  0.6356  1.3481
 3455TIP3   OH210328   3.878   4.629   2.259  0.4410 -0.1065 -0.1314
 3455TIP3    H110329   3.882   4.552   2.316 -0.4967  0.3450  0.5634
 3455TIP3    H210330   3.794   4.621   2.214  0.0987  0.7705  0.3399
 3456TIP3   OH210331   7.306   0.883   3.993 -0.6689  0.2578 -0.4115
 3456TIP3    H110332   7.221   0.849   3.965 -1.1465  1.3042 -0.2561
 3456TIP3    H210333   7.342   0.814   4.049 -1.1093 -0.4840 -1.0209
 3457TIP3   OH210334   6.428   4.197   2.750  0.0840 -0.0420 -0.1316
 3457TIP3    H110335   6.384   4.222   2.668  0.1672  1.3780  0.2527
 3457TIP3    H210336   6.511   4.158   2.722 -1.5683 -3.2093 -0.8984
 3458TIP3   OH210337   3.236   3.799   1.890  0.1218 -0.3413  0.4135
 3458TIP3    H110338   3.280   3.844   1.963 -0.7393  0.7235  0.2791
 3458TIP3    H210339   3.185   3.729   1.932  1.1332 -0.9561  0.6546
 3459TIP3   OH210340   5.094   5.255   1.965 -0.4411  0.0785 -0.1471
 3459TIP3    H110341   5.005   5.288   1.969 -0.0598  1.1641 -0.5330
 3459TIP3    H210342   5.148   5.324   2.004  0.2873 -0.3674 -0.3373
 3460TIP3   OH210343   7.272   5.996   1.003  0.3011  0.1188  0.0555
 3460TIP3    H110344   7.360   6.033   1.013  0.1864  0.4398 -0.1123
 3460TIP3    H210345   7.287   5.907   0.970  0.5547  0.2948 -0.3184
 3461TIP3   OH210346   6.320   4.783   0.126  0.2877 -0.6572 -0.3473
 3461TIP3    H110347   6.243   4.733   0.154 -0.5327  0.7178 -0.0730
 3461TIP3    H210348   6.294   4.824   0.043  0.1644  1.0134  0.4872
 3462TIP3   OH210349   7.233   3.747   1.258  0.0488  0.4312  0.4886
 3462TIP3    H110350   7.290   3.713   1.189 -0.0645 -1.3258  1.2454
 3462TIP3    H210351   7.167   3.798   1.211  0.2571 -0.3479 -0.6630
 3463TIP3   OH210352   1.914   0.497   5.767  0.8709 -0.4599 -0.3399
 3463TIP3    H110353   1.999   0.454   5.765  1.2712  0.3597 -1.4406
 3463TIP3    H210354   1.925   0.574   5.711 -1.0550 -1.2240 -1.8154
 3464TIP3   OH210355   1.335   4.848   1.581  0.0866  0.0960  0.0353
 3464TIP3    H110356   1.300   4.931   1.547  1.1984  0.6723  0.2871
 3464TIP3    H210357   1.379   4.808   1.507 -1.1007 -0.6453 -0.2882
 3465TIP3   OH210358   6.307   4.208   0.836  0.0196 -0.0639 -0.5656
 3465TIP3    H110359   6.390   4.171   0.864 -0.2534 -0.7184 -0.6228
 3465TIP3    H210360   6.291   4.279   0.897  0.8709  0.3946 -0.8632
 3466TIP3   OH210361   3.895   1.126   5.724 -0.5972  0.3858  0.1788
 3466TIP3    H110362   3.886   1.125   5.819  0.3184  0.3879  0.2749
 3466TIP3    H210363   3.979   1.082   5.707 -1.9484 -1.9485 -0.7892
 3467TIP3   OH210364   3.609   4.707   1.845 -0.3470 -0.0717  0.0510
 3467TIP3    H110365   3.700   4.723   1.822  0.1579 -1.4591  1.0259
 3467TIP3    H210366   3.593   4.761   1.922 -0.8904  1.5507 -1.1734
 3468TIP3   OH210367   6.656   5.225   0.051 -0.1207 -0.0363 -0.6883
 3468TIP3    H110368   6.725   5.202   0.113 -0.9841  1.0673  0.7292
 3468TIP3    H210369   6.643   5.147  -0.002 -0.8549 -1.7727  1.9540
 3469TIP3   OH210370   1.018   3.579   3.432 -0.0038 -0.4043  0.1160
 3469TIP3    H110371   0.928   3.604   3.454 -0.3318 -2.0331  0.6885
 3469TIP3    H210372   1.070   3.606   3.507  0.1622  1.4455 -0.6355
 3470TIP3   OH210373   4.179   3.465   3.368  0.0468 -0.5488 -0.3646
 3470TIP3    H110374   4.182   3.371   3.386 -1.1909 -0.3008  1.2355
 3470TIP3    H210375   4.086   3.488   3.375  0.6209  1.3080  2.0150
 3471TIP3   OH210376   5.439   4.584   2.027  0.5897  0.6711  0.7019
 3471TIP3    H110377   5.531   4.558   2.036  0.3559 -0.8784 -1.1169
 3471TIP3    H210378   5.436   4.631   1.944 -0.3458  0.2678  0.4987
 3472TIP3   OH210379   6.980   2.443   2.544 -0.2055 -0.2923  0.7844
 3472TIP3    H110380   6.896   2.400   2.559 -1.2443  0.5400 -2.3250
 3472TIP3    H210381   6.956   2.533   2.520  1.5594 -0.1647 -0.5426
 3473TIP3   OH210382   5.327   4.749   3.207  0.3673 -0.4896  0.4769
 3473TIP3    H110383   5.368   4.663   3.201  0.3146 -0.4179 -1.5506
 3473TIP3    H210384   5.298   4.757   3.297  0.6400 -2.4795  0.7506
 3474TIP3   OH210385   5.142   2.680   2.677 -0.0173 -1.3131 -0.0574
 3474TIP3    H110386   5.103   2.642   2.756 -0.1508 -0.0829  0.4802
 3474TIP3    H210387   5.068   2.697   2.619 -0.1136 -0.5602  0.2787
 3475TIP3   OH210388   6.881   4.602   1.745  0.4880  0.3137 -0.3040
 3475TIP3    H110389   6.786   4.597   1.731  0.4621  0.4448 -0.1772
 3475TIP3    H210390   6.910   4.672   1.686  0.2856  1.3149  0.7554
 3476TIP3   OH210391   3.838   4.380   2.404 -0.5512  0.0240 -0.3174
 3476TIP3    H110392   3.818   4.292   2.433  0.6131  0.6899  2.7906
 3476TIP3    H210393   3.812   4.436   2.478  2.3635  1.8512 -0.5778
 3477TIP3   OH210394   4.001   5.103   0.999  0.2448  0.7182  0.8926
 3477TIP3    H110395   4.002   5.013   0.969  0.6228  0.3940  1.8594
 3477TIP3    H210396   4.047   5.152   0.931 -1.0010  0.3857 -0.2164
 3478TIP3   OH210397   3.544   2.832   0.084  0.5165 -0.2519  0.1726
 3478TIP3    H110398   3.590   2.758   0.045  2.3294  0.4048  1.0056
 3478TIP3    H210399   3.604   2.865   0.150 -0.1708  2.0972 -0.3417
 3479TIP3   OH210400   5.438   5.627   1.303  0.5010 -0.2761 -0.3447
 3479TIP3    H110401   5.485   5.657   1.225  0.5362  1.5997  0.3562
 3479TIP3    H210402   5.346   5.639   1.283  0.4715 -0.6212 -0.4179
 3480TIP3   OH210403   5.680   5.148   4.099  0.4133  0.6870 -0.0868
 3480TIP3    H110404   5.614   5.130   4.167  0.7907  0.9253  0.3474
 3480TIP3    H210405   5.763   5.123   4.140  0.6920  1.2482 -0.3035
 3481TIP3   OH210406   5.346   2.707   2.943  0.2424 -0.1954 -0.0495
 3481TIP3    H110407   5.385   2.738   2.861  0.1459 -0.1642 -0.0842
 3481TIP3    H210408   5.355   2.612   2.940  2.2845 -0.0756  0.9258
 3482TIP3   OH210409   0.555   6.268   0.424  0.4567 -0.5213  0.3523
 3482TIP3    H110410   0.626   6.332   0.415  0.8760 -0.9769  0.4131
 3482TIP3    H210411   0.532   6.270   0.517  0.4734 -0.4586  0.3549
 3483TIP3   OH210412   7.237   4.705   1.235 -0.1806  0.1423  0.5335
 3483TIP3    H110413   7.320   4.732   1.275 -0.3407  0.6331  0.5463
 3483TIP3    H210414   7.260   4.680   1.145  0.0582 -0.1972  0.6914
 3484TIP3   OH210415   6.985   4.465   0.735 -0.3035  0.3564  0.1545
 3484TIP3    H110416   7.002   4.471   0.829  3.7146 -0.5906 -0.4172
 3484TIP3    H210417   6.907   4.411   0.728 -0.2583 -0.1538  2.9194
 3485TIP3   OH210418   5.859   4.841   2.519  0.5349 -0.2650 -0.5224
 3485TIP3    H110419   5.864   4.930   2.483 -1.7434  0.3851  0.7100
 3485TIP3    H210420   5.948   4.807   2.510  0.8351  1.1207 -3.5415
 3486TIP3   OH210421   4.151   5.076   2.391 -0.0007 -0.4326 -0.1776
 3486TIP3    H110422   4.094   5.063   2.316  1.3569 -2.2025 -0.9555
 3486TIP3    H210423   4.148   4.992   2.438  1.2407 -0.2508  0.2498
 3487TIP3   OH210424   0.242   3.967   2.518  0.0751  0.2400  0.3820
 3487TIP3    H110425   0.192   4.045   2.543 -0.3028 -0.6496  2.5700
 3487TIP3    H210426   0.188   3.894   2.548  0.5541 -0.8594 -1.4045
 3488TIP3   OH210427   7.080   3.389   0.309 -0.3143  0.5372  0.1106
 3488TIP3    H110428   7.003   3.372   0.256 -0.2233  1.7204 -0.4328
 3488TIP3    H210429   7.147   3.329   0.276 -1.1530 -0.8484  0.9311
 3489TIP3   OH210430   6.375   5.505   0.400  0.1221  0.0935 -0.4981
 3489TIP3    H110431   6.355   5.582   0.453  1.5817  0.3646 -0.3031
 3489TIP3    H210432   6.457   5.528   0.355  2.2384 -2.4512  1.8778
 3490TIP3   OH210433   5.731   4.195   2.887 -0.4865  0.5115  0.1091
 3490TIP3    H110434   5.656   4.169   2.833  0.3196 -0.9473 -0.3306
 3490TIP3    H210435   5.723   4.142   2.966  0.6346 -0.3745 -0.3709
 3491TIP3   OH210436   4.790   5.185   0.536 -0.4692 -0.0289  0.0943
 3491TIP3    H110437   4.700   5.213   0.518 -0.4484  1.5314  2.2225
 3491TIP3    H210438   4.845   5.246   0.486 -0.5337  0.6583  0.8642
 3492TIP3   OH210439   1.023   0.732   5.947  0.2542  0.4259 -0.8768
 3492TIP3    H110440   1.001   0.793   5.876  0.7161  0.8034 -0.6992
 3492TIP3    H210441   1.117   0.715   5.935 -0.1294 -1.2388 -1.6876
 3493TIP3   OH210442   6.507   2.223   3.605  0.1975  0.4308  0.4939
 3493TIP3    H110443   6.541   2.223   3.516  1.4471  4.8803  0.8694
 3493TIP3    H210444   6.585   2.225   3.661 -0.6002 -0.1191  1.6555
 3494TIP3   OH210445   0.339   4.365   3.178  0.2567 -0.1377 -0.7006
 3494TIP3    H110446   0.325   4.321   3.094 -0.4069  0.0088 -0.6689
 3494TIP3    H210447   0.264   4.340   3.231  0.8605 -0.5262 -0.0163
 3495TIP3   OH210448   1.911   3.656   3.552 -0.6210  0.3995  0.1240
 3495TIP3    H110449   1.907   3.587   3.486 -0.9426  0.4373  0.1040
 3495TIP3    H210450   2.002   3.654   3.584 -0.0503  1.3540 -1.3647
 3496TIP3   OH210451   3.360   1.761   1.770  0.4762  0.5565 -0.5190
 3496TIP3    H110452   3.344   1.850   1.740 -1.0393 -0.0249 -1.5078
 3496TIP3    H210453   3.272   1.722   1.776  1.2456 -1.6478 -2.6279
 3497TIP3   OH210454   4.080   4.084   1.991  0.2257  0.1346  0.5346
 3497TIP3    H110455   4.157   4.053   1.944 -0.4723 -3.1246  1.4324
 3497TIP3    H210456   4.055   4.165   1.945  1.8994 -0.8016 -2.1605
 3498TIP3   OH210457   4.456   5.927   2.206 -0.2491  0.7855  0.0605
 3498TIP3    H110458   4.363   5.907   2.194 -0.0819 -1.8369  2.6279
 3498TIP3    H210459   4.463   5.958   2.296  1.3245  1.3579 -0.2375
 3499TIP3   OH210460   3.439   3.463   1.294  0.2192  0.1574 -0.4264
 3499TIP3    H110461   3.490   3.403   1.239  0.1318  2.8330 -3.5513
 3499TIP3    H210462   3.490   3.544   1.294 -0.2719  0.5282  2.7459
 3500TIP3   OH210463   4.865   3.983   0.531  0.7205  0.2151  0.3149
 3500TIP3    H110464   4.908   3.900   0.512  1.1444  0.1583  1.4658
 3500TIP3    H210465   4.774   3.960   0.552  0.8952  0.0055  0.8606
 3501TIP3   OH210466   5.435   5.958   2.676  0.2592 -0.1737  0.6525
 3501TIP3    H110467   5.521   5.983   2.709  0.9220 -1.6492  0.0741
 3501TIP3    H210468   5.426   6.007   2.594  1.0106 -0.8302  0.1689
 3502TIP3   OH210469   3.900   4.679   1.771  0.6441 -0.1281  0.1449
 3502TIP3    H110470   3.959   4.732   1.824  0.9556 -1.5241  1.2322
 3502TIP3    H210471   3.916   4.589   1.801 -0.2286 -0.7771 -1.3064
 3503TIP3   OH210472   2.792   4.493   3.110  0.4331  0.4859  0.6534
 3503TIP3    H110473   2.770   4.552   3.039 -0.6088  0.7163  1.1566
 3503TIP3    H210474   2.721   4.504   3.174  0.9551 -0.2678  1.3833
 3504TIP3   OH210475   6.104   5.328   1.335  0.6305 -0.2438 -0.0272
 3504TIP3    H110476   6.092   5.386   1.260  1.4340 -0.8469 -0.6395
 3504TIP3    H210477   6.074   5.242   1.303 -2.8291  0.2771  1.6135
 3505TIP3   OH210478   1.426   2.652   5.927  0.0711 -0.7622 -0.4182
 3505TIP3    H110479   1.425   2.566   5.885 -0.0674 -0.3610 -1.2565
 3505TIP3    H210480   1.517   2.679   5.926  0.1289 -0.9457 -0.0605
 3506TIP3   OH210481   7.032   6.177   2.422 -0.2028 -0.2424 -0.6371
 3506TIP3    H110482   6.954   6.148   2.469  0.1937 -1.7464 -0.8820
 3506TIP3    H210483   7.096   6.107   2.436  1.2788  1.2150  0.0046
 3507TIP3   OH210484   7.185   4.766   2.637  0.0524  0.2845  0.3414
 3507TIP3    H110485   7.277   4.786   2.654  0.5673 -0.8609 -1.0333
 3507TIP3    H210486   7.137   4.837   2.679  1.6189  1.6259 -0.1131
 3508TIP3   OH210487   4.794   0.553   5.917  0.2955 -0.1208  0.2971
 3508TIP3    H110488   4.733   0.514   5.854  1.8736 -2.6740  0.2805
 3508TIP3    H210489   4.742   0.621   5.961 -1.4688  0.2630 -2.2231
 3509TIP3   OH210490   2.388   1.901   4.799  0.1485  0.2622 -0.7753
 3509TIP3    H110491   2.312   1.950   4.766 -0.3247 -1.1933 -1.8906
 3509TIP3    H210492   2.362   1.874   4.887 -0.7125 -0.3835 -1.2208
 3510TIP3   OH210493   5.013   2.488   2.007 -0.0068  0.0080  0.3512
 3510TIP3    H110494   4.993   2.406   2.052  1.0673  1.4584  3.6476
 3510TIP3    H210495   4.947   2.550   2.038 -2.0108 -0.0018 -3.6073
 3511TIP3   OH210496   6.708   2.949   1.302  0.4298 -0.1733  0.2765
 3511TIP3    H110497   6.783   2.895   1.327 -0.3683 -1.4290 -0.0070
 3511TIP3    H210498   6.710   2.950   1.206  0.2546  0.0336  0.2748
 3512TIP3   OH210499   4.310   3.133   0.916  0.4363  0.0133 -0.0285
 3512TIP3    H110500   4.259   3.157   0.994 -0.7473 -1.8846 -0.1916
 3512TIP3    H210501   4.377   3.073   0.949  0.4553 -0.1384 -0.3469
 3513TIP3   OH210502   5.435   4.270   2.439 -0.0649  0.1426 -0.6391
 3513TIP3    H110503   5.340   4.282   2.444 -0.1613 -0.5145 -0.7760
 3513TIP3    H210504   5.469   4.354   2.407 -0.5990  0.3771 -0.5909
 3514TIP3   OH210505   4.735   2.340   1.628  0.1028  0.1811  0.4405
 3514TIP3    H110506   4.812   2.338   1.570 -1.0597 -1.9734 -1.0679
 3514TIP3    H210507   4.718   2.434   1.640  1.0940  0.6788 -1.7363
 3515TIP3   OH210508   3.940   6.069   6.066  0.0343  0.3505  0.3778
 3515TIP3    H110509   3.894   5.985   6.060  0.2795  0.1428  1.3793
 3515TIP3    H210510   3.921   6.112   5.983 -0.5366 -0.4705  0.0728
 3516TIP3   OH210511   5.746   2.953   2.892 -0.2513  0.1960  0.4406
 3516TIP3    H110512   5.716   3.005   2.967  0.4549 -0.2763  1.0570
 3516TIP3    H210513   5.689   2.979   2.820 -1.1158  0.4520  1.2162
 3517TIP3   OH210514   6.288   4.194   3.739 -0.3395  0.6648  0.1943
 3517TIP3    H110515   6.291   4.260   3.670  0.5818  0.9257  0.4765
 3517TIP3    H210516   6.342   4.231   3.809  0.2462 -0.4262  0.3244
 3518TIP3   OH210517   4.489   4.024   1.701 -0.0985  0.1320  0.0741
 3518TIP3    H110518   4.536   4.099   1.738  0.4337  0.5126 -1.3336
 3518TIP3    H210519   4.427   4.063   1.639 -0.8234 -0.4985  0.4073
 3519TIP3   OH210520   3.498   4.336   2.681  0.1046  0.7251  0.5971
 3519TIP3    H110521   3.514   4.363   2.771 -2.4682  1.9368  0.7596
 3519TIP3    H210522   3.501   4.241   2.682  1.9047  0.7891  1.5797
 3520TIP3   OH210523   2.228   3.215   5.247  0.2146 -0.0821 -0.5278
 3520TIP3    H110524   2.272   3.196   5.164  1.8326  3.8933 -0.6733
 3520TIP3    H210525   2.137   3.234   5.222  0.3841 -0.1763 -1.2227
 3521TIP3   OH210526   6.228   3.245   2.381  0.0524 -0.2320 -0.1350
 3521TIP3    H110527   6.224   3.285   2.468  0.4852 -0.7429  0.1224
 3521TIP3    H210528   6.302   3.185   2.385 -0.3791 -0.8127 -0.6259
 3522TIP3   OH210529   5.372   6.349   2.203 -0.4074  0.2590  0.1864
 3522TIP3    H110530   5.376   6.367   2.297 -0.9759 -0.2407  0.3052
 3522TIP3    H210531   5.456   6.381   2.169  0.9752 -2.1069  1.3020
 3523TIP3   OH210532   4.773   4.629   0.311 -0.1739 -0.2169  0.0452
 3523TIP3    H110533   4.852   4.594   0.351 -0.5044 -1.2930 -0.2248
 3523TIP3    H210534   4.752   4.706   0.363  0.6965 -0.2917  0.5122
 3524TIP3   OH210535   4.716   3.603   0.379 -0.5623  0.1699  0.3212
 3524TIP3    H110536   4.692   3.514   0.403 -1.8494  0.5005  0.3218
 3524TIP3    H210537   4.653   3.628   0.311 -0.2603  1.0894  0.3643
 3525TIP3   OH210538   3.413   1.714   1.426  0.0210  0.6778  0.1485
 3525TIP3    H110539   3.472   1.722   1.500 -0.6208 -0.1174  0.7552
 3525TIP3    H210540   3.463   1.747   1.351  1.1313  0.2345  0.6926
 3526TIP3   OH210541   7.282   0.395   4.758  0.1962  0.1351 -0.1575
 3526TIP3    H110542   7.361   0.375   4.808  0.2220 -1.6453 -0.8679
 3526TIP3    H210543   7.231   0.314   4.760 -0.0615  0.1922 -2.5203
 3527TIP3   OH210544   1.927   0.510   3.532  0.0233  0.3394  0.9778
 3527TIP3    H110545   1.949   0.543   3.446 -1.0205  2.0288  1.3437
 3527TIP3    H210546   1.879   0.428   3.515  1.6052 -0.4121  0.0492
 3528TIP3   OH210547   3.948   3.935   1.595  0.0326 -0.0504  0.3759
 3528TIP3    H110548   3.968   4.025   1.623 -0.5027 -0.0211  0.6591
 3528TIP3    H210549   4.016   3.882   1.636  0.7462  0.3040 -0.3313
 3529TIP3   OH210550   3.757   2.167   3.010  0.1596  0.0231 -0.2475
 3529TIP3    H110551   3.724   2.185   3.098 -1.4883  0.3570 -0.8994
 3529TIP3    H210552   3.761   2.072   3.005  2.4234  0.0228  0.9299
 3530TIP3   OH210553   6.698   5.308   1.175  0.0966  0.0360  0.2989
 3530TIP3    H110554   6.773   5.294   1.232  1.1301  0.8576 -0.8322
 3530TIP3    H210555   6.734   5.349   1.097 -1.9791  4.0014  1.2542
 3531TIP3   OH210556   6.879   3.900   1.636 -0.2552 -0.7259  0.2051
 3531TIP3    H110557   6.823   3.953   1.693  0.3295 -1.0575  1.0968
 3531TIP3    H210558   6.871   3.940   1.550 -1.8900 -0.7771  0.3159
 3532TIP3   OH210559   0.844   4.156   3.878 -0.3033 -0.1059  0.4942
 3532TIP3    H110560   0.751   4.139   3.889 -0.3501 -0.3582 -0.2701
 3532TIP3    H210561   0.887   4.081   3.918 -0.4102  0.2308  1.2601
 3533TIP3   OH210562   4.405   3.575   3.193  0.4756  0.5088  0.5039
 3533TIP3    H110563   4.491   3.544   3.222  0.3173 -0.0057  0.4342
 3533TIP3    H210564   4.343   3.516   3.235  0.1636  0.7557  0.3928
 3534TIP3   OH210565   4.814   5.927   1.668  0.2180  0.1844  0.4985
 3534TIP3    H110566   4.855   6.011   1.646  1.3801 -0.0879  1.5318
 3534TIP3    H210567   4.791   5.889   1.584 -2.1851  2.4283  0.0821
 3535TIP3   OH210568   1.951   4.957   1.900 -0.4095 -0.4732 -0.1989
 3535TIP3    H110569   2.040   4.925   1.913 -0.0209  0.3582 -0.8044
 3535TIP3    H210570   1.910   4.890   1.844  0.1250 -0.3809 -0.7095
 3536TIP3   OH210571   5.176   3.972   1.546  0.0894 -0.0476  0.3598
 3536TIP3    H110572   5.092   4.009   1.573 -0.1265 -1.0998  1.1208
 3536TIP3    H210573   5.238   4.005   1.610 -0.0059 -0.5451  0.7059
 3537TIP3   OH210574   6.987   3.228   0.793 -0.0208 -0.0468 -0.0556
 3537TIP3    H110575   6.941   3.148   0.820  0.8718  0.0647  1.8923
 3537TIP3    H210576   7.077   3.199   0.777  0.3696  0.6155  0.9239
 3538TIP3   OH210577   6.055   3.150   4.376  0.7494 -0.1973  0.0163
 3538TIP3    H110578   5.997   3.143   4.300  1.9540 -1.0158 -0.8415
 3538TIP3    H210579   6.141   3.122   4.344  1.3205 -0.3559  1.6222
 3539TIP3   OH210580   6.021   2.833   0.249 -0.1411 -0.1879  0.0749
 3539TIP3    H110581   5.974   2.751   0.261  1.8425 -1.4055 -0.3101
 3539TIP3    H210582   6.018   2.874   0.336  1.3544 -2.0335  1.0284
 3540TIP3   OH210583   6.587   3.007   3.304 -0.6921 -0.1822  0.2230
 3540TIP3    H110584   6.584   2.935   3.367 -0.4916 -0.7887 -0.4562
 3540TIP3    H210585   6.650   2.978   3.237 -0.1258  0.8895  0.2734
 3541TIP3   OH210586   5.973   4.212   2.108  0.9468  0.2188 -0.2722
 3541TIP3    H110587   5.990   4.177   2.021  1.2839  0.0526 -0.1404
 3541TIP3    H210588   6.048   4.268   2.127  0.5529  0.7871 -0.3622
 3542TIP3   OH210589   3.715   0.049   6.039 -0.2178 -0.4444  0.7022
 3542TIP3    H110590   3.690  -0.043   6.044  0.1941 -0.6293 -0.6615
 3542TIP3    H210591   3.807   0.049   6.012 -0.6612  0.3986 -0.8554
 3543TIP3   OH210592   4.911   4.989   2.298  0.0543  0.1472 -0.2485
 3543TIP3    H110593   4.880   4.938   2.223  0.9450  0.0511 -0.5599
 3543TIP3    H210594   4.997   5.022   2.271  1.4205 -1.7916  1.5783
 3544TIP3   OH210595   3.015   4.480   1.458  0.6762 -0.0143  0.2115
 3544TIP3    H110596   3.018   4.543   1.530  1.5649 -0.0472  0.2180
 3544TIP3    H210597   3.073   4.517   1.392  2.0528 -1.3060  0.6324
 3545TIP3   OH210598   7.056   3.362   3.314  0.3717 -0.3479  0.2399
 3545TIP3    H110599   7.032   3.419   3.241  1.4250 -1.2414 -0.8318
 3545TIP3    H210600   7.002   3.284   3.301  1.8412 -1.2539 -0.6497
 3546TIP3   OH210601   3.642   2.785   1.628 -0.1765  0.2881  0.1106
 3546TIP3    H110602   3.681   2.760   1.712 -0.5854 -0.5359  0.0573
 3546TIP3    H210603   3.595   2.867   1.647 -0.9590 -0.3296  0.8815
 3547TIP3   OH210604   6.033   4.712   1.033 -0.1219 -0.3358 -0.0999
 3547TIP3    H110605   5.943   4.716   1.066 -0.6242  0.4002 -1.5015
 3547TIP3    H210606   6.042   4.622   0.999 -1.0385  0.1961 -1.8298
 3548TIP3   OH210607   5.836   6.143   1.873 -0.0085 -0.3559  0.0582
 3548TIP3    H110608   5.817   6.227   1.914  0.6360 -0.3860  0.4369
 3548TIP3    H210609   5.825   6.079   1.944  0.9738 -0.4246  0.1656
 3549TIP3   OH210610   5.528   5.121   1.097  0.0789 -0.4995  0.5375
 3549TIP3    H110611   5.560   5.058   1.162 -0.9888 -1.1710  0.4265
 3549TIP3    H210612   5.586   5.112   1.022 -0.3146 -1.6429  0.3715
 3550TIP3   OH210613   5.732   3.560   0.157 -0.1937  0.1285  0.2262
 3550TIP3    H110614   5.690   3.539   0.241  0.5931 -2.0077  0.0993
 3550TIP3    H210615   5.820   3.588   0.181  0.1594 -0.8632  0.0828
 3551TIP3   OH210616   6.893   6.422   1.077 -0.1185  0.2571  0.6815
 3551TIP3    H110617   6.949   6.463   1.011 -1.1854  1.2566  0.3874
 3551TIP3    H210618   6.866   6.494   1.134  0.2930 -0.4985  1.8637
 3552TIP3   OH210619   1.331   1.982   4.923  0.6674 -0.5939 -0.3846
 3552TIP3    H110620   1.342   2.045   4.851 -0.0601 -0.7019 -0.5964
 3552TIP3    H210621   1.374   2.023   4.997 -0.0574  0.3027 -0.4450
 3553TIP3   OH210622   3.428   5.295   0.206  0.0345  0.6006 -0.5379
 3553TIP3    H110623   3.438   5.389   0.220 -1.1324  0.9446 -1.9644
 3553TIP3    H210624   3.512   5.257   0.234  1.0177  2.2002 -1.3031
 3554TIP3   OH210625   4.950   5.446   3.477  0.0660  0.8018 -0.1765
 3554TIP3    H110626   4.912   5.505   3.412  0.0823  0.5761 -0.3923
 3554TIP3    H210627   5.042   5.438   3.453  0.0642  0.6891 -0.1497
 3555TIP3   OH210628   0.476   4.024   2.656  0.3401 -0.2436 -0.5369
 3555TIP3    H110629   0.406   4.006   2.593 -0.7192 -0.9572  0.8327
 3555TIP3    H210630   0.453   3.973   2.733  2.7068 -0.9755 -0.2782
 3556TIP3   OH210631   4.610   4.085   3.553  0.8407 -0.5771  0.4880
 3556TIP3    H110632   4.609   3.991   3.573 -1.4424 -0.7279 -0.2403
 3556TIP3    H210633   4.600   4.089   3.458 -3.6834  0.4516  0.9178
 3557TIP3   OH210634   2.569   6.920   5.662 -0.0648 -0.1315 -0.3868
 3557TIP3    H110635   2.605   6.934   5.574 -1.1766 -1.0985 -1.0075
 3557TIP3    H210636   2.587   7.002   5.708  0.9123  0.2245 -1.3738
 3558TIP3   OH210637   6.636   4.333   1.588 -0.3172 -0.0698 -0.0227
 3558TIP3    H110638   6.686   4.261   1.628  1.4508  0.3657 -1.3905
 3558TIP3    H210639   6.691   4.362   1.515 -2.2407  0.9465 -1.0793
 3559TIP3   OH210640   5.562   4.253   1.836  0.2058 -0.2057 -0.0210
 3559TIP3    H110641   5.622   4.289   1.771  0.0492 -0.0084 -0.0569
 3559TIP3    H210642   5.479   4.297   1.819  0.8525  1.9731  2.0996
 3560TIP3   OH210643   0.577   1.811   0.793  0.7275  0.3038 -0.0796
 3560TIP3    H110644   0.484   1.802   0.814  1.1965  0.2013  2.0532
 3560TIP3    H210645   0.601   1.899   0.820  0.8149  1.0686 -2.5006
 3561TIP3   OH210646   3.584   1.590   5.532  0.0211 -0.1346  0.3353
 3561TIP3    H110647   3.622   1.656   5.591 -0.4732  0.4955 -0.0457
 3561TIP3    H210648   3.528   1.537   5.588 -1.1625  1.0228  0.2850
 3562TIP3   OH210649   5.907   5.702   1.867  0.0519 -0.2998 -0.0456
 3562TIP3    H110650   5.912   5.694   1.963 -0.0864  0.2239  0.0099
 3562TIP3    H210651   5.814   5.697   1.847  0.0727 -0.2922 -0.1432
 3563TIP3   OH210652   4.822   1.902   1.864  0.1233 -0.2205 -0.0421
 3563TIP3    H110653   4.821   1.995   1.839  0.7062  0.1031  1.0537
 3563TIP3    H210654   4.905   1.892   1.912 -0.6366 -0.9511  1.1395
 3564TIP3   OH210655   2.699   1.511   5.610 -0.0563 -0.1004  0.2502
 3564TIP3    H110656   2.733   1.447   5.672  0.7752 -1.6759 -1.7740
 3564TIP3    H210657   2.626   1.553   5.656  0.3287 -1.4634  2.1427
 3565TIP3   OH210658   6.734   5.687   3.706 -0.0221 -0.2398 -0.0558
 3565TIP3    H110659   6.738   5.782   3.721  2.8588 -0.4285  0.5854
 3565TIP3    H210660   6.742   5.678   3.611  1.6855  0.0925  0.0465
 3566TIP3   OH210661   5.225   4.573   2.938 -0.2174  0.3348  0.2052
 3566TIP3    H110662   5.318   4.590   2.923 -0.5294  1.1806 -0.8324
 3566TIP3    H210663   5.182   4.608   2.860 -1.4225  0.1050  0.7677
 3567TIP3   OH210664   5.540   4.976   1.363 -0.2677 -0.0314 -0.5282
 3567TIP3    H110665   5.591   4.981   1.444  0.3273  1.0383 -0.9461
 3567TIP3    H210666   5.527   4.883   1.348  0.5782 -0.2773  0.2077
 3568TIP3   OH210667   5.733   4.081   2.249  0.0801 -0.2163 -0.1153
 3568TIP3    H110668   5.816   4.122   2.225 -0.1265  0.1489 -0.2065
 3568TIP3    H210669   5.671   4.112   2.184  0.0538 -1.1646 -0.5427
 3569TIP3   OH210670   5.424   2.937   2.709 -0.2488 -0.4999  0.5143
 3569TIP3    H110671   5.502   2.966   2.662 -0.6423 -0.5391 -0.1783
 3569TIP3    H210672   5.384   3.017   2.741 -0.0142 -0.4673  0.7256
 3570TIP3   OH210673   3.269   0.738   5.727 -0.4376 -0.3557  0.1412
 3570TIP3    H110674   3.338   0.697   5.779 -0.0911 -0.5062 -0.4360
 3570TIP3    H210675   3.315   0.795   5.665 -0.9105  0.8494  0.8776
 3571TIP3   OH210676   4.434   4.456   0.710 -0.3220 -0.6653  0.0255
 3571TIP3    H110677   4.366   4.431   0.772  0.7973 -0.4480  1.3737
 3571TIP3    H210678   4.499   4.386   0.715 -0.9566 -1.4402 -2.0835
 3572TIP3   OH210679   6.012   2.474   0.053 -0.2212  0.9159  0.0124
 3572TIP3    H110680   6.055   2.557   0.033  0.8482 -0.1261 -2.2362
 3572TIP3    H210681   6.081   2.422   0.095 -0.4473  0.6405  0.0379
 3573TIP3   OH210682   7.123   3.417   0.940  0.2700 -0.3092  0.0799
 3573TIP3    H110683   7.122   3.383   1.029 -2.2422 -1.3670 -0.3245
 3573TIP3    H210684   7.064   3.360   0.892 -1.3086  2.5153 -1.4298
 3574TIP3   OH210685   5.037   6.188   0.942  0.0068 -0.1257  0.3231
 3574TIP3    H110686   5.063   6.267   0.989 -2.5386  0.9872 -0.0786
 3574TIP3    H210687   5.050   6.210   0.849  0.3321 -0.5832  0.2552
 3575TIP3   OH210688   5.045   4.666   2.343  0.1200  0.0809  0.0354
 3575TIP3    H110689   5.096   4.652   2.264  0.0146  0.1127 -0.0388
 3575TIP3    H210690   4.962   4.704   2.312 -0.5943 -1.4738 -0.0001
 3576TIP3   OH210691   5.448   1.591   3.027  0.3001 -0.0454  0.1895
 3576TIP3    H110692   5.357   1.615   3.045  0.6570  0.0596  1.9399
 3576TIP3    H210693   5.491   1.595   3.112  1.6234 -1.5305 -0.3861
 3577TIP3   OH210694   0.981   6.368   2.684 -0.2718 -0.2203  0.1702
 3577TIP3    H110695   1.036   6.347   2.759  0.9619  1.9205 -0.0900
 3577TIP3    H210696   0.935   6.449   2.709 -0.1319  0.3066 -1.2229
 3578TIP3   OH210697   4.790   3.021   2.468 -0.1004  0.3961  0.2326
 3578TIP3    H110698   4.708   3.014   2.419 -0.6624  0.8772  1.0696
 3578TIP3    H210699   4.840   2.944   2.444 -1.4664 -0.7142  0.8923
 3579TIP3   OH210700   0.145   4.184   0.464  0.5524 -0.0278 -0.1124
 3579TIP3    H110701   0.197   4.162   0.386 -0.1364  0.3576 -0.6852
 3579TIP3    H210702   0.056   4.195   0.431  0.4439  1.1849  0.5647
 3580TIP3   OH210703   5.370   4.759   4.057  0.3826  0.3919  0.5921
 3580TIP3    H110704   5.305   4.715   4.112  0.3978  0.2167  0.4713
 3580TIP3    H210705   5.454   4.732   4.093  0.3924  0.3197  0.5163
 3581TIP3   OH210706   3.676   5.392   2.051  0.0671 -0.9299  0.1275
 3581TIP3    H110707   3.599   5.335   2.048  0.0479 -0.8325 -2.0013
 3581TIP3    H210708   3.645   5.476   2.018  0.9791 -0.7416 -0.2526
 3582TIP3   OH210709   5.946   5.076   1.657 -0.2776  0.3650  0.0745
 3582TIP3    H110710   5.875   5.135   1.630  0.0754  0.6428 -0.2559
 3582TIP3    H210711   6.022   5.107   1.608 -0.1388 -0.4907 -0.2581
 3583TIP3   OH210712   6.485   5.401   2.008  0.2531 -0.1702  0.2355
 3583TIP3    H110713   6.562   5.442   2.047  0.5231 -0.6590  0.2174
 3583TIP3    H210714   6.457   5.336   2.073 -0.6450  0.5789  0.6169
 3584TIP3   OH210715   6.205   5.726   2.183 -0.7307  0.0794  0.8203
 3584TIP3    H110716   6.224   5.764   2.097 -0.3041 -0.8871  0.4781
 3584TIP3    H210717   6.110   5.730   2.191 -0.7278  0.6688  0.5304
 3585TIP3   OH210718   5.344   6.138   3.688 -0.6492  0.7186  0.4008
 3585TIP3    H110719   5.365   6.097   3.771 -1.4144 -1.5742 -0.4974
 3585TIP3    H210720   5.424   6.132   3.636 -0.0791  2.4206  1.0480
 3586TIP3   OH210721   5.077   2.593   0.723 -0.8441 -1.0783 -0.4694
 3586TIP3    H110722   5.045   2.562   0.807 -0.7451 -0.9791 -0.3942
 3586TIP3    H210723   5.155   2.539   0.705 -0.3915 -0.5475 -0.1091
 3587TIP3   OH210724   6.284   6.237   3.622  0.1212 -0.6376 -0.2987
 3587TIP3    H110725   6.333   6.313   3.591 -0.0688 -0.1323  0.6184
 3587TIP3    H210726   6.230   6.271   3.694  0.0426 -1.6391  0.1276
 3588TIP3   OH210727   0.403   4.411   1.594  0.1629  0.4610 -0.8061
 3588TIP3    H110728   0.452   4.394   1.514 -0.0711 -1.3467 -0.5988
 3588TIP3    H210729   0.407   4.328   1.642 -1.6677  0.8048 -0.0175
 3589TIP3   OH210730   4.586   3.848   4.476  0.5346  0.4072 -0.2835
 3589TIP3    H110731   4.559   3.786   4.543 -0.3906 -0.1894 -1.2035
 3589TIP3    H210732   4.682   3.850   4.483  0.4500  0.3097  1.0058
 3590TIP3   OH210733   3.809   3.014   2.568  0.0329 -0.1246 -0.2960
 3590TIP3    H110734   3.717   3.008   2.594  0.0469  0.2102 -0.1709
 3590TIP3    H210735   3.805   3.033   2.474 -0.0171 -1.1384 -0.5096
 3591TIP3   OH210736   0.189   5.782   5.817  0.2007  0.0052 -0.1580
 3591TIP3    H110737   0.241   5.812   5.891  0.5132 -0.1721 -0.3061
 3591TIP3    H210738   0.193   5.854   5.754  0.1794  0.0359 -0.1243
 3592TIP3   OH210739   4.676   3.581   1.611  0.1006 -0.1343 -0.2567
 3592TIP3    H110740   4.660   3.488   1.594  1.6198 -0.8188  1.8463
 3592TIP3    H210741   4.669   3.622   1.524  2.6114 -2.7076 -1.7802
 3593TIP3   OH210742   6.634   3.305   1.808 -0.1751  0.4185  0.0146
 3593TIP3    H110743   6.683   3.236   1.853  0.2171  0.3879 -0.4577
 3593TIP3    H210744   6.567   3.257   1.759 -0.9691  0.4874  1.0007
 3594TIP3   OH210745   7.166   6.856   3.478  0.4674  0.5142  0.3856
 3594TIP3    H110746   7.166   6.951   3.474  1.3173  0.4738 -1.5321
 3594TIP3    H210747   7.184   6.829   3.388 -1.6118 -1.4802  0.5016
 3595TIP3   OH210748   4.917   4.198   0.691 -0.7119 -0.5677  0.0193
 3595TIP3    H110749   4.877   4.262   0.632 -0.8034 -1.6762 -1.1614
 3595TIP3    H210750   4.936   4.123   0.634  3.1624 -0.0216  0.5205
 3596TIP3   OH210751   6.774   2.162   0.420  0.0908  0.4089  0.4570
 3596TIP3    H110752   6.781   2.128   0.510  1.3437 -1.0506 -0.1762
 3596TIP3    H210753   6.721   2.097   0.374  1.5030 -0.0965 -0.4722
 3597TIP3   OH210754   4.474   0.744   0.786  0.1300 -0.7413 -0.4513
 3597TIP3    H110755   4.417   0.817   0.809 -0.3510 -1.4544  0.7351
 3597TIP3    H210756   4.558   0.784   0.763 -0.7532  0.2995 -1.9048
 3598TIP3   OH210757   5.030   6.537   3.371 -0.2551  0.3062  0.4470
 3598TIP3    H110758   5.067   6.555   3.457 -0.2698  2.8241 -0.0368
 3598TIP3    H210759   5.038   6.620   3.323  0.1044 -1.1417 -2.1126
 3599TIP3   OH210760   5.525   3.549   3.344 -0.2361 -0.0752 -0.1070
 3599TIP3    H110761   5.574   3.625   3.314  0.2851 -0.6387 -0.6974
 3599TIP3    H210762   5.574   3.516   3.419 -1.6670  1.4759  1.5739
 3600TIP3   OH210763   5.091   3.523   0.973 -0.3515  0.0574 -0.3682
 3600TIP3    H110764   5.106   3.614   1.000  1.4938 -0.2569 -0.2632
 3600TIP3    H210765   4.996   3.516   0.964 -0.4936  2.0699 -0.6571
 3601TIP3   OH210766   5.608   2.628   4.855 -0.1185  0.0315 -0.4460
 3601TIP3    H110767   5.532   2.686   4.867 -0.5419 -0.3227 -1.3425
 3601TIP3    H210768   5.634   2.604   4.943  1.2205  3.0494  0.0309
 3602TIP3   OH210769   4.013   2.473   0.413 -0.0995 -0.1302 -0.5684
 3602TIP3    H110770   4.102   2.438   0.417 -0.6306 -1.5941 -1.1337
 3602TIP3    H210771   3.966   2.425   0.481 -0.3328  1.0604  0.1276
 3603TIP3   OH210772   5.860   2.694   4.710 -0.0783  0.2754 -0.0104
 3603TIP3    H110773   5.804   2.765   4.679 -0.1895  0.0929 -0.2325
 3603TIP3    H210774   5.803   2.642   4.768  0.2247  0.8083  0.7800
 3604TIP3   OH210775   5.892   4.612   2.814 -0.1548 -0.0593 -0.1722
 3604TIP3    H110776   5.888   4.621   2.909  0.3008 -0.2989 -0.1310
 3604TIP3    H210777   5.810   4.651   2.783 -0.0822  0.4508  0.2850
 3605TIP3   OH210778   6.583   5.299   3.192 -0.3266 -0.4309 -0.2179
 3605TIP3    H110779   6.531   5.230   3.152 -0.3851  0.1539 -1.1831
 3605TIP3    H210780   6.659   5.309   3.133  0.6174 -0.9387  0.9024
 3606TIP3   OH210781   5.067   3.343   2.592 -0.1151 -0.2440  0.6063
 3606TIP3    H110782   5.149   3.321   2.637  0.3828  1.6732  0.6839
 3606TIP3    H210783   5.004   3.357   2.663  0.0517  0.3991  0.6325
 3607TIP3   OH210784   5.905   3.322   3.324  0.0756 -0.3127 -0.3955
 3607TIP3    H110785   5.948   3.246   3.285 -0.9285  0.0326 -2.2513
 3607TIP3    H210786   5.968   3.394   3.313  0.9340 -0.8248  1.1573
 3608TIP3   OH210787   5.676   4.705   2.662 -0.1453  0.0661  0.5594
 3608TIP3    H110788   5.612   4.777   2.670  1.2671  1.1506  2.5183
 3608TIP3    H210789   5.737   4.735   2.595 -0.7923 -0.2538 -0.1675
 3609TIP3   OH210790   5.437   5.466   1.964  0.5750  0.0872 -0.6553
 3609TIP3    H110791   5.371   5.495   1.902  0.1275  0.3832 -0.0487
 3609TIP3    H210792   5.446   5.372   1.949 -2.2146 -0.5457  1.3300
 3610TIP3   OH210793   5.291   4.503   0.915 -0.3948 -0.0433 -0.7486
 3610TIP3    H110794   5.353   4.432   0.902 -0.1580  0.2981 -1.5521
 3610TIP3    H210795   5.233   4.473   0.985 -0.8189 -1.3738 -1.6426
 3611TIP3   OH210796   5.447   5.279   2.288  0.3301 -0.2402 -0.0475
 3611TIP3    H110797   5.405   5.228   2.356 -0.7045 -0.7563 -1.0713
 3611TIP3    H210798   5.540   5.277   2.311  0.2246 -2.0442  0.2642
 3612TIP3   OH210799   2.968   4.226   3.660 -0.5466  0.3691  0.8269
 3612TIP3    H110800   3.035   4.292   3.645 -1.5321  1.3466  0.6825
 3612TIP3    H210801   3.000   4.175   3.734  0.7449  0.2998  0.2260
 3613TIP3   OH210802   0.602   0.848   2.010 -0.4017 -0.1291  0.3246
 3613TIP3    H110803   0.587   0.909   2.082  0.7199  0.8628 -0.2734
 3613TIP3    H210804   0.697   0.835   2.009 -0.2180  1.1820 -2.0257
 3614TIP3   OH210805   7.033   5.359   1.119  0.0949  0.0334 -0.3234
 3614TIP3    H110806   7.013   5.452   1.109 -1.2353 -0.0606  1.2576
 3614TIP3    H210807   7.029   5.324   1.030 -1.2742  1.1318 -0.7153
 3615TIP3   OH210808   5.450   3.526   3.786  0.3837  0.1802 -0.0704
 3615TIP3    H110809   5.360   3.509   3.759 -0.6839  4.0838  0.6680
 3615TIP3    H210810   5.443   3.555   3.877  2.6928 -1.6346  0.7602
 3616TIP3   OH210811   7.353   1.745   2.676  0.0498 -0.7921 -0.4072
 3616TIP3    H110812   7.409   1.803   2.624 -2.2859  0.3949 -1.7069
 3616TIP3    H210813   7.333   1.672   2.617 -1.7977  0.0530 -0.8433
 3617TIP3   OH210814   5.975   4.011   0.218 -0.7942  0.2288 -0.2017
 3617TIP3    H110815   5.917   4.007   0.142 -0.7559 -0.8197 -0.1827
 3617TIP3    H210816   5.952   3.934   0.270 -0.2539  0.4935  0.4382
 3618TIP3   OH210817   5.036   4.853   2.765 -0.1368  1.1510 -0.2627
 3618TIP3    H110818   4.958   4.902   2.790 -0.0243  1.0080  0.3881
 3618TIP3    H210819   5.062   4.889   2.681  0.9773  3.4256  1.0316
 3619TIP3   OH210820   6.873   3.149   0.028 -0.1823 -0.0387 -0.1319
 3619TIP3    H110821   6.941   3.164  -0.037 -0.2116 -1.3006 -0.4681
 3619TIP3    H210822   6.872   3.228   0.081  0.7756  0.4399 -0.8221
 3620TIP3   OH210823   6.126   4.328   0.395  0.2064 -0.0784  0.3802
 3620TIP3    H110824   6.070   4.277   0.454 -0.7881  0.2261 -0.2911
 3620TIP3    H210825   6.168   4.262   0.340  0.4477 -0.3042  0.8301
 3621TIP3   OH210826   2.390   6.300   5.922  0.1549  0.0722  0.6746
 3621TIP3    H110827   2.380   6.349   5.841  1.2533 -0.6069  0.1174
 3621TIP3    H210828   2.304   6.303   5.964 -0.0533  1.5575  0.1316
 3622TIP3   OH210829   3.812   1.563   5.228 -0.0913 -0.0739  0.1139
 3622TIP3    H110830   3.904   1.570   5.254  0.5782  0.8762 -2.3529
 3622TIP3    H210831   3.792   1.470   5.236  0.6961 -0.1149  1.8743
 3623TIP3   OH210832   4.820   6.130   1.438  0.0335  0.1233  0.2513
 3623TIP3    H110833   4.775   6.180   1.370 -0.4403 -0.6130  0.0129
 3623TIP3    H210834   4.795   6.039   1.421  0.7883 -0.1807  0.7474
 3624TIP3   OH210835   6.248   4.820   3.202  0.3871  0.1617 -0.0079
 3624TIP3    H110836   6.190   4.896   3.198  1.9384  1.4714  1.6206
 3624TIP3    H210837   6.198   4.749   3.162 -1.9131  1.5279  0.3860
 3625TIP3   OH210838   3.075   0.602   5.844 -0.0284 -0.0275  0.1117
 3625TIP3    H110839   3.098   0.614   5.936  2.3873 -1.3457 -0.2842
 3625TIP3    H210840   3.148   0.640   5.795 -1.9528  1.9397 -1.3203
 3626TIP3   OH210841   3.838   0.393   5.285 -0.2414 -0.0548  0.5508
 3626TIP3    H110842   3.933   0.386   5.271 -0.1550  0.2566  0.9627
 3626TIP3    H210843   3.829   0.465   5.347 -0.6331 -1.2110  1.8620
 3627TIP3   OH210844   7.041   2.203   0.347 -0.2778 -0.0296 -0.2135
 3627TIP3    H110845   7.053   2.128   0.290 -2.1808  0.9075 -1.9381
 3627TIP3    H210846   6.948   2.202   0.369 -0.1893  1.3889  0.3349
 3628TIP3   OH210847   7.319   4.194   0.290  0.4533  0.7474 -0.1525
 3628TIP3    H110848   7.318   4.220   0.198 -0.3905  1.4090  0.0435
 3628TIP3    H210849   7.284   4.104   0.289 -0.4026  1.0743 -0.3834
 3629TIP3   OH210850   5.867   2.907   2.503 -0.4772 -0.0487 -0.3030
 3629TIP3    H110851   5.906   2.827   2.538  0.9022  1.1451  0.9406
 3629TIP3    H210852   5.888   2.906   2.410  0.9056 -0.3760  0.0025
 3630TIP3   OH210853   3.796   2.304   5.930 -0.0780 -0.2863  0.4807
 3630TIP3    H110854   3.747   2.363   5.872  2.3552  1.5989  0.2756
 3630TIP3    H210855   3.871   2.276   5.878 -0.4269 -2.4333  1.0980
 3631TIP3   OH210856   0.947   3.711   1.951 -0.3031  0.0669 -0.0198
 3631TIP3    H110857   1.042   3.703   1.952 -0.2602  0.5069 -0.2039
 3631TIP3    H210858   0.927   3.777   2.017 -0.4362  0.3506 -0.3369
 3632TIP3   OH210859   4.335   4.408   1.399  0.0112  0.1009 -0.0866
 3632TIP3    H110860   4.286   4.471   1.347  1.1116  1.6461  0.7082
 3632TIP3    H210861   4.427   4.432   1.385  0.3572 -0.1255  1.7374
 3633TIP3   OH210862   4.043   2.925   2.684  0.2124 -0.0980  0.0770
 3633TIP3    H110863   4.054   2.967   2.770  0.1682 -0.1051  0.0865
 3633TIP3    H210864   3.965   2.968   2.647  0.4048  0.1128 -0.0851
 3634TIP3   OH210865   6.761   3.225   1.124  0.1930 -0.0740  0.2839
 3634TIP3    H110866   6.750   3.135   1.095 -0.6279  0.2672 -0.4884
 3634TIP3    H210867   6.724   3.278   1.053  0.6072  0.8657  0.7567
 3635TIP3   OH210868   5.696   0.996   1.555 -0.6413 -0.5121  0.1361
 3635TIP3    H110869   5.788   0.999   1.530  0.0747 -1.2160  2.5630
 3635TIP3    H210870   5.663   1.085   1.539 -0.0164 -0.6913 -2.3337
 3636TIP3   OH210871   4.772   2.560   0.671  0.2250  0.2875  0.2577
 3636TIP3    H110872   4.863   2.555   0.641 -0.4901 -0.0007 -1.9764
 3636TIP3    H210873   4.739   2.641   0.633 -0.4809  0.3403  0.9869
 3637TIP3   OH210874   6.189   3.285   2.668  0.1250 -0.3174 -0.2684
 3637TIP3    H110875   6.246   3.250   2.736  0.2916  0.2496 -0.1109
 3637TIP3    H210876   6.107   3.238   2.679  0.1729 -0.2786  0.2820
 3638TIP3   OH210877   5.439   3.918   3.349  0.0895 -0.3029 -0.6490
 3638TIP3    H110878   5.388   3.996   3.325 -0.1151 -0.5072 -0.8847
 3638TIP3    H210879   5.445   3.922   3.445  0.4032  0.2003 -0.6871
 3639TIP3   OH210880   5.976   6.292   2.660 -0.4514  0.2546 -0.0671
 3639TIP3    H110881   6.039   6.360   2.685 -0.0838  0.2638 -1.0020
 3639TIP3    H210882   5.909   6.339   2.610 -0.0750 -0.1137 -0.9123
 3640TIP3   OH210883   4.810   4.876   2.541 -0.5643  0.5680 -0.2605
 3640TIP3    H110884   4.835   4.912   2.455  1.5279 -0.0358  0.0504
 3640TIP3    H210885   4.787   4.953   2.593 -1.0016  1.0144 -1.0957
 3641TIP3   OH210886   5.997   5.762   1.607 -0.1704  0.2692 -0.1340
 3641TIP3    H110887   5.981   5.767   1.701 -0.5707  1.8284 -0.2681
 3641TIP3    H210888   5.911   5.777   1.567 -0.3924 -2.4513 -0.7372
 3642TIP3   OH210889   6.741   6.685   2.384  0.2698 -0.4961  0.0322
 3642TIP3    H110890   6.658   6.651   2.352  1.2609 -1.4836 -1.5749
 3642TIP3    H210891   6.794   6.607   2.402  1.8206  0.1441 -1.6480
 3643TIP3   OH210892   7.325   3.910   1.478  0.7085  0.1524  0.5842
 3643TIP3    H110893   7.340   3.852   1.553 -0.6416  0.2209  0.9333
 3643TIP3    H210894   7.315   3.851   1.403 -0.8172 -0.1149  0.9641
 3644TIP3   OH210895   4.599   4.285   1.849  0.1863 -0.2976 -0.5555
 3644TIP3    H110896   4.545   4.364   1.861 -0.2086 -0.1591 -3.0396
 3644TIP3    H210897   4.589   4.237   1.932 -2.8591  0.2833 -0.5102
 3645TIP3   OH210898   6.799   6.178   0.276  0.1952 -0.0855  0.4431
 3645TIP3    H110899   6.831   6.244   0.337 -1.2876  1.1828 -0.1015
 3645TIP3    H210900   6.716   6.149   0.313  0.8571 -1.6926  0.6978
 3646TIP3   OH210901   1.285   0.367   2.139 -0.2334  0.2002  0.1215
 3646TIP3    H110902   1.338   0.440   2.171  0.5344 -0.4976  0.4520
 3646TIP3    H210903   1.213   0.361   2.201 -0.6005  1.0245 -0.2152
 3647TIP3   OH210904   5.955   5.829   0.782  0.3661 -0.0107  0.3827
 3647TIP3    H110905   5.991   5.854   0.866 -0.4656 -0.5973  0.9233
 3647TIP3    H210906   5.884   5.891   0.766  1.1765  0.7433 -0.3803
 3648TIP3   OH210907   5.435   5.221   1.425  0.3046  0.2780 -0.1989
 3648TIP3    H110908   5.492   5.147   1.404 -0.9347 -0.2844 -1.6437
 3648TIP3    H210909   5.411   5.257   1.340 -1.4203  0.5807  0.4025
 3649TIP3   OH210910   7.099   5.839   2.132 -0.4120  0.1739  0.1225
 3649TIP3    H110911   7.132   5.886   2.208 -0.1039 -0.1485  0.1926
 3649TIP3    H210912   7.133   5.750   2.143 -0.8066 -0.0086 -0.1185
 3650TIP3   OH210913   6.331   6.671   0.552  0.2111 -0.0850 -0.4429
 3650TIP3    H110914   6.281   6.669   0.471  0.3058  0.0335 -0.5042
 3650TIP3    H210915   6.334   6.764   0.576 -0.2278 -0.1687 -0.0521
 3651TIP3   OH210916   3.735   1.697   5.864 -0.4057  0.7100 -0.1188
 3651TIP3    H110917   3.646   1.668   5.885 -0.7999  1.2455 -1.0254
 3651TIP3    H210918   3.724   1.756   5.790  0.9404 -0.8321 -1.5803
 3652TIP3   OH210919   6.142   4.363   2.326 -0.2294  0.4451  0.3646
 3652TIP3    H110920   6.136   4.457   2.308 -1.2513  0.3644  0.2767
 3652TIP3    H210921   6.056   4.339   2.358  0.3418 -0.2643  1.3945
 3653TIP3   OH210922   4.803   4.777   1.559 -0.8358  0.2029  0.1533
 3653TIP3    H110923   4.743   4.849   1.538 -0.5702 -0.0300 -1.5361
 3653TIP3    H210924   4.881   4.796   1.506 -0.5152 -0.9773  0.1901
 3654TIP3   OH210925   6.159   2.207   2.009 -0.0374 -0.3964  0.4687
 3654TIP3    H110926   6.106   2.191   2.087  0.3187  0.0170  0.7949
 3654TIP3    H210927   6.247   2.224   2.042 -0.2775  1.6735  0.1122
 3655TIP3   OH210928   2.850   3.934   4.243 -0.3603  0.4076 -0.1692
 3655TIP3    H110929   2.878   3.892   4.324 -1.6490  1.5061  0.8988
 3655TIP3    H210930   2.917   4.000   4.225  1.4147 -1.7546 -1.5950
 3656TIP3   OH210931   5.905   2.697   1.508 -0.4310 -0.2999 -0.1233
 3656TIP3    H110932   5.830   2.684   1.566 -0.4368 -1.9323 -0.4632
 3656TIP3    H210933   5.966   2.627   1.531  1.3030  1.3814  0.5879
 3657TIP3   OH210934   5.127   2.969   0.853 -0.0856 -0.0994 -0.1247
 3657TIP3    H110935   5.067   2.900   0.880 -0.0412  0.6507  2.0148
 3657TIP3    H210936   5.089   3.049   0.889  1.6151  0.5254  0.3315
 3658TIP3   OH210937   5.385   4.705   1.750  0.1852  0.1652  1.3184
 3658TIP3    H110938   5.366   4.668   1.664  0.6948  1.1076  0.7904
 3658TIP3    H210939   5.299   4.720   1.790 -0.0636  0.1476  0.7872
 3659TIP3   OH210940   7.362   5.628   5.662  0.6709  0.0788 -0.3091
 3659TIP3    H110941   7.452   5.631   5.694  0.5325 -3.8915  0.6473
 3659TIP3    H210942   7.322   5.555   5.709 -2.1554 -0.1763 -2.9481
 3660TIP3   OH210943   3.578   3.051   1.526 -0.1932 -0.8124  0.0626
 3660TIP3    H110944   3.552   3.130   1.573  0.8181 -2.4137  3.4752
 3660TIP3    H210945   3.509   3.037   1.461  0.3902  3.6948 -1.7448
 3661TIP3   OH210946   7.310   0.257   0.349 -0.2892 -0.3848 -0.4813
 3661TIP3    H110947   7.231   0.261   0.402 -0.4847 -1.2748 -0.6972
 3661TIP3    H210948   7.287   0.198   0.277  0.4724 -0.4156 -0.6989
 3662TIP3   OH210949   5.765   4.519   0.825  0.5895 -0.0095  0.5372
 3662TIP3    H110950   5.822   4.541   0.751 -0.4190  1.5124  0.2016
 3662TIP3    H210951   5.818   4.540   0.902  0.4145  1.6260  0.2255
 3663TIP3   OH210952   5.191   2.451   2.310 -0.9948  0.0440 -0.1698
 3663TIP3    H110953   5.161   2.395   2.382 -0.1937 -1.3477 -0.8937
 3663TIP3    H210954   5.190   2.394   2.233  0.5407  0.8010 -0.7831
 3664TIP3   OH210955   4.806   6.270   4.987 -0.1563  0.0448  0.4693
 3664TIP3    H110956   4.895   6.301   5.003 -0.2576  0.3705  0.4129
 3664TIP3    H210957   4.814   6.175   4.979  0.1834  0.0741  0.4721
 3665TIP3   OH210958   3.224   0.210   5.692  0.2884 -0.3718 -0.1459
 3665TIP3    H110959   3.213   0.135   5.750  0.3010  0.3839  0.8517
 3665TIP3    H210960   3.192   0.180   5.607 -1.1469 -1.0316  0.6064
 3666TIP3   OH210961   5.475   1.356   3.645  0.1385 -0.4562 -0.3906
 3666TIP3    H110962   5.545   1.388   3.589  1.2061  1.3293  1.9099
 3666TIP3    H210963   5.512   1.279   3.689 -0.2773 -1.1073 -1.1587
 3667TIP3   OH210964   0.198   5.724   2.173  0.7956 -0.3709  0.1423
 3667TIP3    H110965   0.147   5.792   2.129 -0.1179 -1.2603 -0.1779
 3667TIP3    H210966   0.290   5.749   2.157  0.5040  1.5556  1.2256
 3668TIP3   OH210967   6.718   2.061   1.079  0.0348  0.2236 -0.2380
 3668TIP3    H110968   6.791   2.048   1.020  0.9219 -0.0186  0.8952
 3668TIP3    H210969   6.641   2.069   1.022  1.0215  1.1121 -1.4527
 3669TIP3   OH210970   5.449   6.697   0.162  0.2193  0.2452  0.3143
 3669TIP3    H110971   5.542   6.697   0.142  0.3974 -0.2001  1.1260
 3669TIP3    H210972   5.418   6.611   0.134 -0.2394  0.8966 -1.2384
 3670TIP3   OH210973   0.355   4.851   2.273 -0.8475 -0.3818  0.2244
 3670TIP3    H110974   0.388   4.833   2.185 -0.1948 -1.9110  0.7737
 3670TIP3    H210975   0.260   4.845   2.265 -0.9094  1.6312 -0.8363
 3671TIP3   OH210976   1.269   5.270   0.867 -0.0762 -0.2147 -0.1824
 3671TIP3    H110977   1.330   5.205   0.834 -0.2875 -0.1400 -0.7307
 3671TIP3    H210978   1.303   5.294   0.953  0.3453 -0.5893 -0.2439
 3672TIP3   OH210979   3.907   1.802   6.053 -0.0397  0.1969 -0.1482
 3672TIP3    H110980   3.974   1.743   6.086 -1.4184 -0.7646  0.9928
 3672TIP3    H210981   3.862   1.752   5.984 -1.5938 -0.3399  1.2231
 3673TIP3   OH210982   0.091   3.501   1.409 -0.3550  0.6387  0.5218
 3673TIP3    H110983   0.018   3.465   1.358 -0.0410 -0.7107  0.9939
 3673TIP3    H210984   0.066   3.485   1.500  0.0492  1.1298  0.7173
 3674TIP3   OH210985   0.240   2.901   3.374  0.4041  0.6502 -0.1369
 3674TIP3    H110986   0.334   2.921   3.373  0.6888 -0.7416 -1.6999
 3674TIP3    H210987   0.220   2.873   3.285 -1.2497 -0.2788  0.5118
 3675TIP3   OH210988   1.608   3.534   2.070  1.0751 -0.2746 -0.3411
 3675TIP3    H110989   1.621   3.485   2.151  2.3479 -1.8851 -1.4684
 3675TIP3    H210990   1.534   3.592   2.088  0.7339 -1.2835  1.6583
 3676TIP3   OH210991   0.660   4.711   2.535  0.2333  0.5443  0.4243
 3676TIP3    H110992   0.652   4.786   2.476  1.7392 -0.1798 -0.7362
 3676TIP3    H210993   0.754   4.694   2.540  0.0330 -0.1169  2.1352
 3677TIP3   OH210994   5.738   0.076   5.948  0.2533 -0.2309 -0.5338
 3677TIP3    H110995   5.737   0.163   5.988  1.2962  0.0217 -1.0352
 3677TIP3    H210996   5.830   0.049   5.952 -0.2581 -1.8424  0.7376
 3678TIP3   OH210997   6.801   5.607   3.171  0.3323  1.0001  0.1505
 3678TIP3    H110998   6.883   5.559   3.186 -0.4137 -0.5528 -0.6246
 3678TIP3    H210999   6.825   5.674   3.106  0.9222  0.3209 -0.3498
 3679TIP3   OH211000   0.892   3.917   2.804 -0.6846  0.0412  0.0390
 3679TIP3    H111001   0.863   3.832   2.836  0.7489 -0.2049  0.6765
 3679TIP3    H211002   0.913   3.967   2.883  3.0569 -0.6445 -0.4342
 3680TIP3   OH211003   4.573   0.495   5.388 -0.0439 -0.1508 -0.2751
 3680TIP3    H111004   4.590   0.423   5.327  0.2450 -0.1187 -0.2313
 3680TIP3    H211005   4.575   0.574   5.335  0.5265 -0.0929 -0.1705
 3681TIP3   OH211006   5.976   5.512   0.863  0.4532 -0.0386 -0.7623
 3681TIP3    H111007   6.031   5.573   0.814  0.6207  0.4139 -0.0306
 3681TIP3    H211008   5.887   5.527   0.829 -0.0841  3.0472  1.6803
 3682TIP3   OH211009   5.800   5.204   2.931  0.1146 -0.2282 -0.4229
 3682TIP3    H111010   5.791   5.154   2.850 -0.9103 -1.1025  0.2194
 3682TIP3    H211011   5.756   5.151   2.998  1.0491  0.4156  0.7397
 3683TIP3   OH211012   1.475   5.808   0.795  1.0760  0.4246  0.3306
 3683TIP3    H111013   1.468   5.890   0.844  1.1684  1.5413 -1.4620
 3683TIP3    H211014   1.559   5.815   0.749 -0.4431  0.9161 -2.5411
 3684TIP3   OH211015   4.993   6.541   2.625  0.0050  0.4793  0.1929
 3684TIP3    H111016   5.070   6.497   2.590 -0.3122  0.9778 -1.1749
 3684TIP3    H211017   4.969   6.605   2.558 -1.8905 -0.0122  0.3614
 3685TIP3   OH211018   0.075   6.748   1.182 -0.5848  0.1999 -0.1163
 3685TIP3    H111019   0.164   6.773   1.156 -0.7927  1.3331  0.2163
 3685TIP3    H211020   0.067   6.656   1.157  1.1975 -0.3340  1.1793
 3686TIP3   OH211021   6.346   0.769   5.848 -0.0030  0.1167  0.1612
 3686TIP3    H111022   6.438   0.772   5.876  0.4163  1.5083 -1.2763
 3686TIP3    H211023   6.329   0.856   5.814 -2.1601  0.1507  1.2527
 3687TIP3   OH211024   6.510   5.325   1.716 -0.0395 -0.5177  0.6352
 3687TIP3    H111025   6.433   5.344   1.663  1.1502  0.6129 -0.7131
 3687TIP3    H211026   6.486   5.354   1.804 -0.9061  0.4830  0.0805
 3688TIP3   OH211027   3.667   0.420   4.930 -0.5526  0.1313 -0.2408
 3688TIP3    H111028   3.671   0.451   4.840  1.2429 -0.0856 -0.2598
 3688TIP3    H211029   3.577   0.389   4.941 -0.9616  0.7379 -1.7519
 3689TIP3   OH211030   4.535   2.053   5.472 -0.0510  0.1257  0.4591
 3689TIP3    H111031   4.596   1.980   5.483 -0.6753 -0.2236  1.8006
 3689TIP3    H211032   4.473   2.023   5.405 -1.1942 -1.2067  2.0690
 3690TIP3   OH211033   7.228   4.238   0.912  0.0886  1.1912  0.2551
 3690TIP3    H111034   7.284   4.222   0.836  1.2400  1.9764  0.9194
 3690TIP3    H211035   7.261   4.178   0.979 -1.7913 -0.4727 -0.2681
 3691TIP3   OH211036   5.323   0.002   5.580 -0.0114 -0.4110 -0.0638
 3691TIP3    H111037   5.396  -0.011   5.641 -1.0218 -1.1961  0.9991
 3691TIP3    H211038   5.300   0.095   5.589  1.1595 -0.0431 -0.7632
 3692TIP3   OH211039  -0.025   6.318   2.235 -0.6877  0.1820 -0.2152
 3692TIP3    H111040   0.010   6.403   2.264 -0.9926  0.8858 -1.8868
 3692TIP3    H211041   0.049   6.275   2.193 -0.6831 -0.1512  0.1334
 3693TIP3   OH211042   0.513   4.563   2.085 -0.3282  0.1898  0.0905
 3693TIP3    H111043   0.446   4.502   2.113 -1.0104  1.0342  0.3244
 3693TIP3    H211044   0.494   4.579   1.992  1.5714 -2.1443 -0.7593
 3694TIP3   OH211045   6.491   5.005   1.753  0.1349  0.5808  0.2179
 3694TIP3    H111046   6.524   5.076   1.698 -0.0617 -0.1213 -0.8352
 3694TIP3    H211047   6.396   5.004   1.735  0.1940 -0.1847 -0.0779
 3695TIP3   OH211048   2.663   6.582   5.969 -0.0652 -0.0648 -0.1916
 3695TIP3    H111049   2.673   6.674   5.993 -0.9388  0.6441 -2.4617
 3695TIP3    H211050   2.721   6.536   6.030 -1.2272  1.7460  2.3761
 3696TIP3   OH211051   7.101   2.761   2.677  0.1024 -0.5108 -0.1118
 3696TIP3    H111052   7.090   2.819   2.753 -2.8932 -1.5298  0.2711
 3696TIP3    H211053   7.025   2.704   2.679  1.4535 -2.4632 -2.2687
 3697TIP3   OH211054   4.674   5.794   2.998 -0.1582  0.2529 -0.0864
 3697TIP3    H111055   4.626   5.746   3.066 -0.0072 -0.4662 -0.4789
 3697TIP3    H211056   4.749   5.831   3.044  1.1987 -2.1261 -0.2753
 3698TIP3   OH211057   3.051   1.348   5.269 -0.0094 -0.2243  0.2603
 3698TIP3    H111058   3.124   1.360   5.208  0.2892  0.0069  0.6704
 3698TIP3    H211059   3.091   1.343   5.355 -0.7494  3.4964  0.9080
 3699TIP3   OH211060   7.365   3.028   2.158  0.0316  0.1592 -0.2269
 3699TIP3    H111061   7.459   3.030   2.138 -0.0923  0.4268 -0.7827
 3699TIP3    H211062   7.352   2.944   2.202  0.4699 -0.0368 -0.4677
 3700TIP3   OH211063   1.222   4.365   2.523  0.4643 -0.7066 -0.0962
 3700TIP3    H111064   1.238   4.382   2.616 -0.8776 -0.1509  0.0473
 3700TIP3    H211065   1.161   4.292   2.522  1.0601 -1.2016 -0.5646
 3701TIP3   OH211066   0.483   5.311   0.891 -0.2513  0.4113  0.1237
 3701TIP3    H111067   0.526   5.279   0.812  0.9166  2.5011 -0.1218
 3701TIP3    H211068   0.551   5.362   0.936 -0.9504 -0.5952  2.3878
 3702TIP3   OH211069   6.047   6.424   1.445 -0.6349  0.8858  0.9084
 3702TIP3    H111070   6.133   6.462   1.463 -0.5776  1.0440  0.3045
 3702TIP3    H211071   5.986   6.497   1.449 -0.4542  1.1541 -0.7840
 3703TIP3   OH211072   6.040   6.434   3.261  0.0491 -0.4023 -0.3497
 3703TIP3    H111073   5.984   6.457   3.335  0.5623 -0.3048  0.0063
 3703TIP3    H211074   6.023   6.340   3.247 -0.0905 -0.4075 -0.1499
 3704TIP3   OH211075   7.118   5.795   1.845  0.2813  0.5529 -0.2579
 3704TIP3    H111076   7.167   5.868   1.808 -0.4216  0.4949 -1.3216
 3704TIP3    H211077   7.107   5.818   1.937  2.8567  0.2645  0.1583
 3705TIP3   OH211078   6.966   3.788   2.731 -1.0823  0.0040 -0.2374
 3705TIP3    H111079   7.014   3.719   2.686 -2.4793 -1.4570  0.4729
 3705TIP3    H211080   6.875   3.776   2.703 -1.5996  0.5220  1.1622
 3706TIP3   OH211081   7.121   4.100   1.877 -0.0225 -0.1504 -0.8334
 3706TIP3    H111082   7.150   4.090   1.968  0.5883  0.3856 -0.9651
 3706TIP3    H211083   7.101   4.194   1.869 -1.3558 -0.4213 -0.8778
 3707TIP3   OH211084   6.857   3.948   0.463 -0.0689  0.1833  0.1366
 3707TIP3    H111085   6.893   4.017   0.407  2.5432  0.2921  1.8448
 3707TIP3    H211086   6.906   3.870   0.438 -1.0758 -0.4355  0.1045
 3708TIP3   OH211087   6.246   2.667   1.397 -0.2731  0.0423 -0.1074
 3708TIP3    H111088   6.183   2.602   1.427  0.1528 -0.8255 -1.0589
 3708TIP3    H211089   6.290   2.696   1.477 -0.1528 -1.1762  0.2882
 3709TIP3   OH211090   5.696   2.287   1.227 -0.5831 -0.1983  0.4868
 3709TIP3    H111091   5.672   2.378   1.209 -1.0023 -0.6898 -1.5507
 3709TIP3    H211092   5.757   2.264   1.157 -1.0198 -1.7023  0.5778
 3710TIP3   OH211093   5.876   4.104   1.232 -0.5154 -0.3518  0.2518
 3710TIP3    H111094   5.919   4.129   1.314 -2.7590 -2.2337  2.0856
 3710TIP3    H211095   5.856   4.011   1.242 -0.6854 -0.6690 -2.5428
 3711TIP3   OH211096   6.470   4.660   2.541  0.5694 -0.5259  0.3525
 3711TIP3    H111097   6.508   4.718   2.606  0.3680  0.0690 -0.0515
 3711TIP3    H211098   6.497   4.573   2.568  0.3167 -0.3028  1.3383
 3712TIP3   OH211099   0.450   3.256   0.921 -0.6296  0.6136  0.3385
 3712TIP3    H111100   0.534   3.245   0.965  0.4369  1.8599 -1.3267
 3712TIP3    H211101   0.385   3.227   0.986  0.9729  1.0032  2.1801
 3713TIP3   OH211102   1.054   3.855   0.215  0.1218  0.1607  0.8686
 3713TIP3    H111103   0.960   3.844   0.227  0.2295 -0.1310  1.4696
 3713TIP3    H211104   1.093   3.788   0.271  0.6329 -1.4173 -1.2732
 3714TIP3   OH211105   6.407   4.185   1.495  0.3251  0.3929  0.3675
 3714TIP3    H111106   6.330   4.187   1.552  0.5460  1.4906  0.6390
 3714TIP3    H211107   6.471   4.242   1.538  0.1768  1.9881 -1.4033
 3715TIP3   OH211108   0.044   6.234   3.128  0.4334  0.6529 -0.0949
 3715TIP3    H111109   0.063   6.199   3.041  1.1095 -1.3853  0.8403
 3715TIP3    H211110   0.113   6.299   3.142 -0.5712  2.0922 -1.6795
 3716TIP3   OH211111   0.965   4.476   1.107 -0.2814 -0.2333 -0.1440
 3716TIP3    H111112   0.932   4.417   1.039 -1.4791  0.6989 -0.3986
 3716TIP3    H211113   0.989   4.556   1.060 -0.2487  0.0859  0.4105
 3717TIP3   OH211114   6.956   4.387   1.880 -0.0285 -0.0489 -0.0024
 3717TIP3    H111115   7.052   4.390   1.885 -0.0241  0.0724 -0.1773
 3717TIP3    H211116   6.931   4.475   1.855 -0.0795 -0.5918 -1.8872
 3718TIP3   OH211117   4.384   5.020   1.763 -0.4109  0.1814 -0.6975
 3718TIP3    H111118   4.296   5.055   1.755 -0.9109 -1.1247 -0.9225
 3718TIP3    H211119   4.383   4.939   1.713  0.0446 -1.4192  1.8115
 3719TIP3   OH211120   0.838   4.935   1.398  0.6232  0.3716  0.0224
 3719TIP3    H111121   0.833   4.998   1.470 -0.4682 -1.4065  1.5447
 3719TIP3    H211122   0.860   4.852   1.441 -0.0508 -0.7146 -1.7069
 3720TIP3   OH211123   5.999   3.598   2.587 -0.2077 -0.9284  0.1718
 3720TIP3    H111124   5.954   3.645   2.516 -0.6260  1.0069  1.6552
 3720TIP3    H211125   6.078   3.563   2.546 -0.3216  0.3377 -1.2138
 3721TIP3   OH211126   5.573   3.920   1.360  0.3218 -0.0275  0.0511
 3721TIP3    H111127   5.596   3.871   1.439 -1.5652 -1.5623 -0.3141
 3721TIP3    H211128   5.594   4.011   1.381  2.2273 -0.7388  1.3816
 3722TIP3   OH211129   0.317   2.628   0.367  0.0613 -0.0028 -0.0976
 3722TIP3    H111130   0.268   2.555   0.405 -1.2956  0.2778 -1.2473
 3722TIP3    H211131   0.251   2.697   0.356  0.9997  0.8510 -0.4690
 3723TIP3   OH211132   5.411   3.602   3.105 -0.0487  0.3933  0.4060
 3723TIP3    H111133   5.442   3.560   3.185 -1.3879  0.6483  1.0701
 3723TIP3    H211134   5.456   3.555   3.034  0.9216 -0.0202  1.2811
 3724TIP3   OH211135   0.332   3.012   0.151  0.7834  0.0108  0.0678
 3724TIP3    H111136   0.369   2.986   0.235 -1.2518 -0.2080  0.9256
 3724TIP3    H211137   0.406   3.049   0.103  1.7972  0.9646  2.2818
 3725TIP3   OH211138   7.403   2.319   0.718  0.1807 -0.3296 -0.1907
 3725TIP3    H111139   7.461   2.270   0.659 -0.7329 -2.6038  0.7367
 3725TIP3    H211140   7.319   2.323   0.671  0.0769 -0.2197  0.0024
 3726TIP3   OH211141   0.276   6.019   4.871  0.2646 -0.6203 -0.4251
 3726TIP3    H111142   0.205   6.012   4.808  1.2784 -1.1086 -1.5237
 3726TIP3    H211143   0.323   6.099   4.846 -0.8458  0.6111  1.3043
 3727TIP3   OH211144   1.240   4.858   3.759  0.4973 -0.5122  0.3823
 3727TIP3    H111145   1.211   4.785   3.704  0.3396 -0.3126  0.2021
 3727TIP3    H211146   1.159   4.897   3.793  0.5661 -0.1360  0.1128
 3728TIP3   OH211147   0.056   4.983   1.040 -0.0592  0.2929 -0.5619
 3728TIP3    H111148   0.129   5.001   0.981  0.7855  0.4529  0.5107
 3728TIP3    H211149  -0.022   5.000   0.987  0.6414 -1.5801 -2.2491
 3729TIP3   OH211150   0.027   3.411   3.779 -0.4786 -0.1754  0.4915
 3729TIP3    H111151  -0.063   3.384   3.762 -0.3911 -0.1968  0.0566
 3729TIP3    H211152   0.039   3.397   3.872 -1.8772  2.6137  1.1623
 3730TIP3   OH211153   5.979   3.845   3.102 -0.4017  0.3233 -0.0144
 3730TIP3    H111154   5.977   3.922   3.159  1.3095 -0.6645  1.3900
 3730TIP3    H211155   5.938   3.776   3.154  2.1820 -0.8744  0.4997
 3731TIP3   OH211156   6.569   3.789   1.358  0.3480 -0.3998 -0.2450
 3731TIP3    H111157   6.485   3.835   1.360 -0.1616 -1.3267  0.6494
 3731TIP3    H211158   6.553   3.712   1.304  0.8077 -0.2408 -0.6093
 3732TIP3   OH211159   2.990   6.817   2.429  0.1458 -0.3838 -0.2080
 3732TIP3    H111160   3.077   6.789   2.459  0.6219  0.2008 -1.0393
 3732TIP3    H211161   2.930   6.779   2.493  0.9482 -1.5281 -0.1143
 3733TIP3   OH211162   5.004   5.927   3.467  0.2503  0.6205 -0.7302
 3733TIP3    H111163   5.056   5.848   3.458  0.4150  0.6058  0.2871
 3733TIP3    H211164   4.914   5.896   3.480  0.2317  0.6188 -0.8575
 3734TIP3   OH211165   1.973   5.482   4.606  0.4038 -0.3906 -0.0455
 3734TIP3    H111166   2.019   5.398   4.600 -1.9466 -1.6801 -0.6144
 3734TIP3    H211167   1.978   5.506   4.698  1.6321 -0.8315  0.0105
 3735TIP3   OH211168   0.958   4.921   4.603 -0.3480  0.0801  0.2355
 3735TIP3    H111169   0.950   4.831   4.571 -0.0947  0.3814 -0.6771
 3735TIP3    H211170   0.945   4.975   4.526 -0.0789  0.8239  0.7082
 3736TIP3   OH211171   0.367   3.940   3.921 -0.4381 -0.0224 -0.1873
 3736TIP3    H111172   0.285   3.961   3.877 -0.4679 -0.4247 -0.3304
 3736TIP3    H211173   0.377   3.846   3.908 -0.6048 -0.1971  0.9461
 3737TIP3   OH211174   3.616   4.845   2.503  0.1529  0.1746 -0.1366
 3737TIP3    H111175   3.594   4.923   2.554 -1.6729  1.1840 -2.3724
 3737TIP3    H211176   3.532   4.810   2.475  0.9656 -2.4354  0.5155
 3738TIP3   OH211177   0.309   6.581   2.513 -0.2154  0.6002  0.2435
 3738TIP3    H111178   0.352   6.577   2.598 -1.1548  0.9482  0.7429
 3738TIP3    H211179   0.279   6.492   2.497  1.1295  0.2378 -0.3496
 3739TIP3   OH211180   2.035   6.160   2.769 -0.9883 -0.2683 -0.2521
 3739TIP3    H111181   2.055   6.253   2.775 -0.5182 -0.3719 -0.1771
 3739TIP3    H211182   1.982   6.141   2.847  0.7441 -0.5215  0.8897
 3740TIP3   OH211183   7.156   4.852   3.307 -0.2521 -0.4171 -0.5233
 3740TIP3    H111184   7.131   4.821   3.394 -1.6502  0.7371 -0.4723
 3740TIP3    H211185   7.072   4.869   3.263  0.4408  1.4095 -1.1895
 3741TIP3   OH211186   1.487   0.248   3.358  0.1414  0.2357 -0.1428
 3741TIP3    H111187   1.542   0.262   3.436 -1.3932 -2.9482  1.6259
 3741TIP3    H211188   1.403   0.288   3.381 -0.3301 -0.7517 -0.1417
 3742TIP3   OH211189   1.606   5.028   2.039  0.3930 -0.2716  0.5814
 3742TIP3    H111190   1.532   5.043   2.098 -0.4627 -0.8319 -0.3473
 3742TIP3    H211191   1.654   4.956   2.079  1.6346  1.4714  2.3128
 3743TIP3   OH211192   1.941   3.699   4.127 -0.0556  0.0026 -0.5520
 3743TIP3    H111193   1.930   3.635   4.056 -0.7466 -1.5074  0.8841
 3743TIP3    H211194   1.984   3.649   4.197 -0.4114  1.1825  0.5150
 3744TIP3   OH211195   1.047   4.337   3.042 -0.0832  0.0010 -0.0242
 3744TIP3    H111196   1.009   4.262   3.088 -0.2161 -0.5787 -1.0634
 3744TIP3    H211197   1.140   4.333   3.064 -0.6782  1.7871  3.0275
 3745TIP3   OH211198   0.160   5.187   3.054 -0.1748  0.1752 -0.1413
 3745TIP3    H111199   0.104   5.200   3.130 -1.6662 -1.2766 -0.9644
 3745TIP3    H211200   0.249   5.195   3.088 -0.7684 -2.0840  2.1020
 3746TIP3   OH211201   0.302   5.776   0.981  0.1603 -0.6933 -0.2857
 3746TIP3    H111202   0.288   5.681   0.977  1.6196 -1.0644  2.4358
 3746TIP3    H211203   0.391   5.786   1.013  0.1174  1.6173 -0.8314
 3747TIP3   OH211204   0.217   4.759   1.797 -0.7524 -0.1751 -0.2713
 3747TIP3    H111205   0.137   4.752   1.745 -1.2187 -0.0429  0.4157
 3747TIP3    H211206   0.253   4.845   1.775 -1.0224 -0.0619 -0.2681
 3748TIP3   OH211207   0.665   6.782   3.908 -0.3344  0.4392  0.7360
 3748TIP3    H111208   0.579   6.746   3.929  0.2932 -1.6412 -0.1121
 3748TIP3    H211209   0.647   6.869   3.873 -2.0389  0.2839  1.1710
 3749TIP3   OH211210   1.339   6.978   3.492 -0.6721 -0.4310  0.2422
 3749TIP3    H111211   1.382   6.969   3.577  1.4284  1.6786 -0.5415
 3749TIP3    H211212   1.394   6.926   3.433 -0.4442  0.4818 -0.3566
 3750TIP3   OH211213   2.148   5.899   5.313  0.5082 -0.3583  0.6585
 3750TIP3    H111214   2.211   5.893   5.384 -0.4458 -2.8928  1.3529
 3750TIP3    H211215   2.176   5.831   5.251  0.0646  0.3633 -0.3468
 3751TIP3   OH211216   0.113   3.268   5.076 -0.3802 -0.0674  0.4160
 3751TIP3    H111217   0.067   3.332   5.022 -0.7540 -0.1049  0.6908
 3751TIP3    H211218   0.204   3.272   5.045 -0.6001 -0.1204 -0.2400
 3752TIP3   OH211219   6.154   5.540   1.707 -0.3313 -0.4734 -0.2276
 3752TIP3    H111220   6.142   5.601   1.634 -0.8433  2.1122  1.9723
 3752TIP3    H211221   6.234   5.569   1.750 -0.4803 -1.4887  0.7484
 3753TIP3   OH211222   6.802   3.067   2.292 -0.1962 -0.3862  0.0421
 3753TIP3    H111223   6.781   3.009   2.219  0.1216  1.7251 -1.8027
 3753TIP3    H211224   6.872   3.022   2.339  0.0907 -1.4715 -1.3830
 3754TIP3   OH211225   1.779   4.696   2.043 -0.4790  0.3926  0.3898
 3754TIP3    H111226   1.834   4.699   1.964  1.0833 -2.5620  1.2954
 3754TIP3    H211227   1.710   4.634   2.022  0.3655 -0.9841  1.5495
 3755TIP3   OH211228   0.195   4.822   3.370  0.4832  0.1904 -0.0685
 3755TIP3    H111229   0.117   4.875   3.363 -0.5042 -1.1461  0.4880
 3755TIP3    H211230   0.166   4.743   3.416  2.5795  0.5565  1.9862
 3756TIP3   OH211231   1.403   5.607   0.428  0.0493 -0.8515 -0.6264
 3756TIP3    H111232   1.470   5.584   0.364 -1.2010 -0.6595 -2.0248
 3756TIP3    H211233   1.360   5.684   0.391 -0.3155 -0.3893  0.7216
 3757TIP3   OH211234   1.481   4.022   4.197  0.5078  0.0349 -0.5157
 3757TIP3    H111235   1.406   3.982   4.153 -0.9399  0.8708  1.1237
 3757TIP3    H211236   1.542   4.045   4.127 -0.3421 -1.5083 -1.7891
 3758TIP3   OH211237   2.519   6.255   3.278  0.2185 -0.1037  0.3458
 3758TIP3    H111238   2.530   6.289   3.367  0.6305 -0.9026  0.6021
 3758TIP3    H211239   2.457   6.183   3.286  0.7802 -0.6232  0.0958
 3759TIP3   OH211240   0.879   4.495   2.884  0.0736  0.3344 -0.1167
 3759TIP3    H111241   0.809   4.435   2.857 -1.2611  1.3536  0.9661
 3759TIP3    H211242   0.928   4.446   2.950  0.4376 -0.4239 -0.9470
 3760TIP3   OH211243   1.014   5.069   2.617 -0.5530  0.4858 -0.1282
 3760TIP3    H111244   0.974   5.063   2.703 -2.0089  0.1878 -0.8012
 3760TIP3    H211245   0.952   5.026   2.559  1.3060 -1.0624 -1.0381
 3761TIP3   OH211246   1.583   5.823   3.078 -0.9690 -0.1048  0.8049
 3761TIP3    H111247   1.567   5.773   2.998  1.8293  1.1725 -0.6134
 3761TIP3    H211248   1.591   5.756   3.146  1.1960 -1.5394 -0.7841
 3762TIP3   OH211249   1.773   2.979   2.536 -0.0957 -0.0911  0.0017
 3762TIP3    H111250   1.765   2.914   2.467 -1.6266 -2.0213  1.9104
 3762TIP3    H211251   1.713   2.949   2.604 -1.3159  3.6549  0.7085
 3763TIP3   OH211252   7.277   5.468   2.461  0.3109 -0.0432 -0.4781
 3763TIP3    H111253   7.347   5.524   2.426  0.6118 -0.8727 -1.2346
 3763TIP3    H211254   7.323   5.397   2.505 -0.0610 -0.4737 -0.7875
 3764TIP3   OH211255   0.753   4.029   2.600  0.4046 -0.3876 -0.8548
 3764TIP3    H111256   0.666   4.002   2.628  0.4529  1.1402  0.9000
 3764TIP3    H211257   0.811   3.997   2.669  0.8589  1.1766 -0.4854
 3765TIP3   OH211258   1.107   4.493   5.024  0.0740  0.6000  0.3358
 3765TIP3    H111259   1.025   4.459   4.991  0.0687  1.4542 -0.5717
 3765TIP3    H211260   1.084   4.539   5.105 -0.4172  1.2477 -0.1695
 3766TIP3   OH211261   2.725   3.069   5.414  0.3471  0.5730 -0.1111
 3766TIP3    H111262   2.761   3.005   5.476 -0.1732  0.8562  0.4802
 3766TIP3    H211263   2.790   3.071   5.343 -0.2246 -1.5264 -0.7419
 3767TIP3   OH211264   2.378   5.627   2.073 -0.6401  0.1755 -0.5052
 3767TIP3    H111265   2.469   5.612   2.048 -1.2967 -1.5384 -1.9399
 3767TIP3    H211266   2.362   5.718   2.051  0.1301 -0.0719 -2.1474
 3768TIP3   OH211267   0.290   4.825   2.679 -0.1441  0.1453  0.5254
 3768TIP3    H111268   0.342   4.872   2.745  1.9490  1.3465 -1.8971
 3768TIP3    H211269   0.356   4.780   2.625 -1.7842 -0.2482 -1.1777
 3769TIP3   OH211270   2.453   4.531   0.347 -0.4584 -0.9008  0.7044
 3769TIP3    H111271   2.490   4.443   0.347  1.7098 -0.1212 -3.6696
 3769TIP3    H211272   2.375   4.524   0.291  1.4282  0.4486 -2.2633
 3770TIP3   OH211273   3.139   0.289   4.096  0.7240  0.3786  0.2845
 3770TIP3    H111274   3.098   0.219   4.146  1.8994 -0.0915  0.5899
 3770TIP3    H211275   3.069   0.320   4.038 -0.5850  0.7920  2.0467
 3771TIP3   OH211276   2.156   1.808   0.569 -0.4824  0.1981 -0.3742
 3771TIP3    H111277   2.144   1.798   0.474 -3.0710 -0.6497  0.0077
 3771TIP3    H211278   2.129   1.898   0.587  1.6899  0.9410 -0.6530
 3772TIP3   OH211279   4.503   5.226   1.301 -0.5591  0.4251  0.2395
 3772TIP3    H111280   4.546   5.301   1.342  0.5418  0.2445 -0.5688
 3772TIP3    H211281   4.559   5.204   1.226 -1.2870 -0.7093  0.0172
 3773TIP3   OH211282   7.343   5.669   4.127 -0.9041  0.3751  0.4185
 3773TIP3    H111283   7.250   5.691   4.138 -1.0022  0.0620  0.2151
 3773TIP3    H211284   7.383   5.692   4.211 -1.2161  0.2391  0.6053
 3774TIP3   OH211285   0.122   4.634   2.865  0.5864 -0.4775  0.7891
 3774TIP3    H111286   0.195   4.660   2.922  1.3248  1.3213 -0.9392
 3774TIP3    H211287   0.046   4.677   2.903  1.0957  0.8068  0.3893
 3775TIP3   OH211288   0.629   4.325   2.878 -0.0683  0.1516 -0.0038
 3775TIP3    H111289   0.539   4.347   2.901 -1.1937 -1.5364 -2.5267
 3775TIP3    H211290   0.637   4.352   2.786  3.0383  3.2485  1.0628
 3776TIP3   OH211291   7.283   5.473   1.813  0.4799  0.2185 -0.3707
 3776TIP3    H111292   7.205   5.451   1.864  1.0964 -2.8458 -0.6023
 3776TIP3    H211293   7.250   5.521   1.738 -1.2079 -1.1063 -0.5062
 3777TIP3   OH211294   5.532   4.120   3.106 -0.2257 -0.2740  0.3465
 3777TIP3    H111295   5.520   4.039   3.055  1.3004 -1.4136  1.7283
 3777TIP3    H211296   5.444   4.150   3.125 -0.8187 -1.2284 -0.8111
 3778TIP3   OH211297   0.961   4.002   3.076  0.2167 -0.0469  0.4332
 3778TIP3    H111298   0.916   3.955   3.146  0.0638  1.6204  1.4786
 3778TIP3    H211299   1.047   4.023   3.112  1.0017 -1.2045 -0.7283
 3779TIP3   OH211300   0.611   5.628   2.418  0.4190  0.2328 -0.3336
 3779TIP3    H111301   0.699   5.644   2.451 -0.4617 -0.2981  2.4245
 3779TIP3    H211302   0.553   5.669   2.483 -1.3732 -0.3084 -1.5470
 3780TIP3   OH211303   1.091   5.349   3.898  0.0866 -0.4747 -0.1128
 3780TIP3    H111304   1.158   5.409   3.866  0.1984 -1.0003 -0.8935
 3780TIP3    H211305   1.043   5.324   3.819 -0.9852 -0.1579  0.4306
 3781TIP3   OH211306   0.733   6.226   4.827 -0.7385  0.4298  0.5469
 3781TIP3    H111307   0.702   6.315   4.810  1.7615  0.8619 -2.3881
 3781TIP3    H211308   0.828   6.231   4.815 -0.7223 -3.0027 -1.8676
 3782TIP3   OH211309   1.271   5.144   2.700 -0.1712 -0.0534 -0.3420
 3782TIP3    H111310   1.185   5.117   2.668 -0.5049 -0.0894  0.5580
 3782TIP3    H211311   1.321   5.063   2.706 -0.9712 -0.4405  1.7599
 3783TIP3   OH211312   0.147   6.167   2.882 -0.1254  0.4145  0.0403
 3783TIP3    H111313   0.164   6.091   2.826 -0.3168 -0.8854  1.7080
 3783TIP3    H211314   0.234   6.203   2.901 -0.0587  0.8797 -1.0720
 3784TIP3   OH211315   1.189   5.731   1.870 -0.1233  0.0517 -0.0962
 3784TIP3    H111316   1.275   5.742   1.831  0.0296 -0.3815  0.1095
 3784TIP3    H211317   1.141   5.810   1.847 -1.1116 -1.5493 -3.8720
 3785TIP3   OH211318   4.897   0.298   4.081  0.2540 -0.2467 -0.3698
 3785TIP3    H111319   4.846   0.332   4.155 -0.1592 -0.9870 -0.3094
 3785TIP3    H211320   4.834   0.291   4.009  0.2318 -1.2801 -0.2582
 3786TIP3   OH211321   1.354   3.726   4.532 -0.4260 -0.2006  0.1313
 3786TIP3    H111322   1.386   3.736   4.622  0.1905 -0.5920 -0.0372
 3786TIP3    H211323   1.260   3.714   4.541 -0.8126  2.8742  0.5217
 3787TIP3   OH211324   0.565   4.171   3.999  0.0572  0.8192 -0.3350
 3787TIP3    H111325   0.473   4.166   4.025  0.0606  0.7276 -0.3402
 3787TIP3    H211326   0.609   4.209   4.075  0.0694  0.5385 -0.2021
 3788TIP3   OH211327   6.644   5.379   3.443  0.2542 -0.0961 -0.6597
 3788TIP3    H111328   6.598   5.359   3.361 -1.9840 -1.1061  0.7986
 3788TIP3    H211329   6.594   5.451   3.482  1.4817  0.5827 -0.3002
 3789TIP3   OH211330   6.872   4.313   1.430 -0.7636  0.0101  0.5428
 3789TIP3    H111331   6.920   4.345   1.354 -2.8981  2.1833  0.0532
 3789TIP3    H211332   6.847   4.223   1.406 -0.4611  0.2876 -0.8611
 3790TIP3   OH211333   3.976   6.442   5.691  0.7361  0.4900  0.0698
 3790TIP3    H111334   4.043   6.392   5.646  0.4243 -0.9889  1.2131
 3790TIP3    H211335   3.916   6.377   5.727  0.8361  1.5944  2.3812
 3791TIP3   OH211336   6.640   1.271   2.499 -0.7920  0.3687  0.0999
 3791TIP3    H111337   6.652   1.223   2.417 -1.0352  0.2042  0.1590
 3791TIP3    H211338   6.547   1.258   2.520 -1.0168  1.3899 -0.2190
 3792TIP3   OH211339   2.691   6.562   4.439 -0.1087 -0.3113 -0.4258
 3792TIP3    H111340   2.612   6.513   4.418 -0.7137  0.8438 -0.8814
 3792TIP3    H211341   2.759   6.495   4.446 -0.7973 -1.1695 -1.6334
 3793TIP3   OH211342   7.215   6.752   3.201 -0.1202 -0.2062 -0.2408
 3793TIP3    H111343   7.302   6.713   3.200  0.2045  0.5267 -1.4821
 3793TIP3    H211344   7.158   6.685   3.165  0.0352 -0.4440 -0.0408
 3794TIP3   OH211345   1.354   6.283   2.055 -0.0195  0.4962 -0.0245
 3794TIP3    H111346   1.337   6.321   2.141 -0.9331  0.1709 -0.0612
 3794TIP3    H211347   1.289   6.214   2.045  0.3519  0.2456 -0.8015
 3795TIP3   OH211348   1.245   6.393   3.802 -0.5179 -0.0731 -0.4462
 3795TIP3    H111349   1.213   6.335   3.733 -0.1652 -2.4267  1.3056
 3795TIP3    H211350   1.267   6.335   3.875 -1.2970  2.3680  1.8424
 3796TIP3   OH211351   1.093   5.495   4.300  0.1371  0.3781  0.3775
 3796TIP3    H111352   1.069   5.411   4.260 -0.5543  0.2923  0.9587
 3796TIP3    H211353   1.027   5.557   4.269  1.1006  0.8937 -0.6809
 3797TIP3   OH211354   0.620   5.925   1.902  0.1340 -0.1549 -0.5399
 3797TIP3    H111355   0.624   6.018   1.926 -1.7133 -0.1459 -0.2214
 3797TIP3    H211356   0.648   5.922   1.811 -1.4502  0.9427 -1.0852
 3798TIP3   OH211357   1.365   6.503   1.430  0.2488  0.1083  0.6713
 3798TIP3    H111358   1.377   6.583   1.482 -1.1631  0.1896  0.8908
 3798TIP3    H211359   1.361   6.535   1.340  0.4247  0.2054  0.6967
 3799TIP3   OH211360   1.195   6.562   3.173 -0.2869  0.0788  0.0881
 3799TIP3    H111361   1.201   6.603   3.086 -0.7005  1.0801  0.5193
 3799TIP3    H211362   1.106   6.581   3.202 -0.3573 -0.8243  0.4553
 3800TIP3   OH211363   2.045   3.846   2.016  0.1860  0.3443  0.9586
 3800TIP3    H111364   1.980   3.806   1.958  0.2354 -0.0129  1.1440
 3800TIP3    H211365   2.113   3.878   1.957  1.1931 -1.7668  0.9202
 3801TIP3   OH211366   1.278   4.927   4.421  0.1840  0.1521  0.7129
 3801TIP3    H111367   1.348   4.861   4.415  1.6052  1.5826  1.1311
 3801TIP3    H211368   1.203   4.879   4.456  1.5562 -0.9864  2.1603
 3802TIP3   OH211369   7.335   6.019   1.304 -0.0993  0.5376  0.4538
 3802TIP3    H111370   7.309   6.105   1.272 -0.6827  0.6238  1.1503
 3802TIP3    H211371   7.254   5.979   1.337  0.1124 -0.3878 -0.1170
 3803TIP3   OH211372   0.041   5.923   3.313  0.4690  0.1546 -0.0820
 3803TIP3    H111373   0.085   5.842   3.337  0.4908  0.2592  0.2316
 3803TIP3    H211374  -0.042   5.895   3.273  0.3705 -0.0143  0.2397
 3804TIP3   OH211375   7.305   5.040   1.767  0.0672 -0.4093 -0.2498
 3804TIP3    H111376   7.357   4.993   1.831  1.7990 -1.0150 -2.0570
 3804TIP3    H211377   7.368   5.097   1.722 -1.1951  0.3787 -1.0573
 3805TIP3   OH211378   1.717   4.377   3.886  0.2038 -0.2675 -0.3206
 3805TIP3    H111379   1.794   4.362   3.831  0.1090 -1.1227 -0.2344
 3805TIP3    H211380   1.691   4.467   3.867  0.3116 -0.4715 -1.5040
 3806TIP3   OH211381   1.465   3.338   4.598  0.1551  0.0609 -0.3790
 3806TIP3    H111382   1.480   3.284   4.676 -2.1256  0.5882  0.4507
 3806TIP3    H211383   1.449   3.275   4.528 -2.1868 -0.3952  0.5202
 3807TIP3   OH211384   0.741   3.457   2.041 -0.1316 -0.2872 -0.3864
 3807TIP3    H111385   0.737   3.552   2.029  3.5940  0.1365  1.0142
 3807TIP3    H211386   0.718   3.443   2.133  3.8904 -0.1870  0.7326
 3808TIP3   OH211387   6.563   4.235   4.549 -0.3065  0.1451 -0.1756
 3808TIP3    H111388   6.644   4.268   4.588 -1.2517  1.4281  0.7394
 3808TIP3    H211389   6.571   4.140   4.555  2.2912  0.1335 -2.5236
 3809TIP3   OH211390   5.163   2.794   0.542 -0.3318 -0.3424 -0.4023
 3809TIP3    H111391   5.081   2.773   0.587 -1.0820  3.4737  0.1904
 3809TIP3    H211392   5.230   2.788   0.610 -0.8746  1.3829  0.3095
 3810TIP3   OH211393   0.786   6.796   3.643 -0.3221  0.7573  0.1762
 3810TIP3    H111394   0.803   6.889   3.630 -1.9036  0.8083 -1.7709
 3810TIP3    H211395   0.744   6.767   3.561 -1.0055 -1.3725  1.2270
 3811TIP3   OH211396   2.115   3.272   4.440 -0.0376 -0.3000 -0.1735
 3811TIP3    H111397   2.128   3.325   4.361  2.5785  1.0274  1.0894
 3811TIP3    H211398   2.100   3.184   4.407 -1.3526  0.6476 -2.2212
 3812TIP3   OH211399   7.225   0.788   1.400 -0.2193  0.1576  0.5096
 3812TIP3    H111400   7.168   0.711   1.403  0.3465 -0.2705  0.6678
 3812TIP3    H211401   7.285   0.775   1.474 -1.0406  1.4887  1.4143
 3813TIP3   OH211402   0.044   4.768   2.598 -0.9071  0.2782  0.3091
 3813TIP3    H111403   0.131   4.804   2.619  0.0602 -0.4514 -2.2889
 3813TIP3    H211404   0.060   4.675   2.583 -2.5413 -0.2888  1.9218
 3814TIP3   OH211405   0.249   3.006   2.176 -0.4840 -0.2093 -0.0394
 3814TIP3    H111406   0.218   2.997   2.266  0.5646  1.1539  0.4711
 3814TIP3    H211407   0.344   3.010   2.183 -0.3281 -1.3861 -1.3307
 3815TIP3   OH211408   0.433   5.066   1.641 -0.0534 -0.0597  0.0306
 3815TIP3    H111409   0.457   5.134   1.578  1.6686 -1.9743 -1.4464
 3815TIP3    H211410   0.369   5.012   1.594 -0.3293 -0.2952  0.6765
 3816TIP3   OH211411   0.186   3.759   2.909 -0.1109 -0.2566 -0.0836
 3816TIP3    H111412   0.134   3.736   2.832 -0.2262 -1.1450  0.2525
 3816TIP3    H211413   0.169   3.688   2.972  0.3295  0.2268  0.5897
 3817TIP3   OH211414   5.547   4.414   3.087 -0.2837 -0.3282 -0.7734
 3817TIP3    H111415   5.539   4.461   3.004 -0.0386 -0.1673 -0.7045
 3817TIP3    H211416   5.577   4.327   3.062 -0.4898 -0.3694 -0.8782
 3818TIP3   OH211417   0.810   3.852   3.269  0.2417 -0.1569  0.1914
 3818TIP3    H111418   0.759   3.772   3.277 -0.8210  0.4747 -0.2087
 3818TIP3    H211419   0.846   3.867   3.356 -0.9784 -0.1161  0.6880
 3819TIP3   OH211420   5.628   5.314   1.736  0.0308  0.0510  0.0515
 3819TIP3    H111421   5.673   5.295   1.654  2.2651  1.1443  0.9703
 3819TIP3    H211422   5.606   5.407   1.731 -2.1411 -0.4691 -0.3733
 3820TIP3   OH211423   0.157   4.656   3.138  0.5081 -0.4787  0.3269
 3820TIP3    H111424   0.145   4.730   3.198 -0.6126  1.2792 -2.0160
 3820TIP3    H211425   0.117   4.582   3.183 -1.5991  1.1206  1.1594
 3821TIP3   OH211426   0.636   5.832   3.411 -0.0613 -0.1551 -0.1867
 3821TIP3    H111427   0.576   5.774   3.364  1.0772 -1.8066  0.3660
 3821TIP3    H211428   0.579   5.888   3.463 -1.1919 -0.6972 -0.8206
 3822TIP3   OH211429   0.671   5.501   2.173 -0.0755 -0.2944  0.4078
 3822TIP3    H111430   0.626   5.525   2.254  0.0308 -1.3582  0.7905
 3822TIP3    H211431   0.757   5.543   2.181 -0.8325  1.4123 -0.1502
 3823TIP3   OH211432   1.289   5.748   2.348  0.0040 -0.4209  0.3047
 3823TIP3    H111433   1.296   5.810   2.420 -0.2070 -0.5005  0.3926
 3823TIP3    H211434   1.328   5.793   2.274 -2.0614  0.6533 -0.1688
 3824TIP3   OH211435   2.664   5.308   3.916 -0.6167 -0.2696 -0.3117
 3824TIP3    H111436   2.652   5.226   3.963 -0.4452  0.1090  0.3994
 3824TIP3    H211437   2.643   5.376   3.980 -0.9697  0.2386 -0.9548
 3825TIP3   OH211438   1.246   4.937   3.079 -0.1432 -0.8623 -0.3208
 3825TIP3    H111439   1.183   4.912   3.011 -0.5476  0.5764 -0.4871
 3825TIP3    H211440   1.198   4.926   3.161 -0.5577  0.0596 -0.4368
 3826TIP3   OH211441   3.191   0.925   3.362 -0.2383 -0.2628 -0.3809
 3826TIP3    H111442   3.237   0.921   3.278 -0.5073  0.7212 -0.5849
 3826TIP3    H211443   3.154   1.013   3.365  0.5534  0.0469  1.1829
 3827TIP3   OH211444   0.504   4.687   3.459 -0.6441  0.4800 -0.0470
 3827TIP3    H111445   0.581   4.720   3.505 -0.9354  0.9823  0.0762
 3827TIP3    H211446   0.537   4.658   3.374 -0.0562 -0.6747  0.5622
 3828TIP3   OH211447   6.650   4.100   1.895 -0.7509  0.2484  0.2361
 3828TIP3    H111448   6.686   4.095   1.984  0.2519 -0.8218 -0.2136
 3828TIP3    H211449   6.709   4.160   1.849  0.4613 -1.4549 -0.4849
 3829TIP3   OH211450  -0.005   4.708   1.003  0.3380  0.5886 -0.1093
 3829TIP3    H111451   0.076   4.667   1.033  1.7654  2.1352 -1.7182
 3829TIP3    H211452   0.003   4.799   1.030 -0.9710  0.6999 -0.0894
 3830TIP3   OH211453   0.680   6.618   2.940  0.4077 -0.4996  0.2190
 3830TIP3    H111454   0.675   6.523   2.942 -0.0027 -0.5136 -0.8366
 3830TIP3    H211455   0.623   6.647   3.010 -0.3886 -1.0202 -0.2065
 3831TIP3   OH211456   2.038   5.185   2.492  0.0034 -1.0966 -0.0025
 3831TIP3    H111457   2.112   5.128   2.471  0.4975 -1.2147  1.9060
 3831TIP3    H211458   2.055   5.212   2.583 -1.2418  0.5095 -0.2416
 3832TIP3   OH211459   4.504   5.735   3.216  0.7349  0.0389 -0.2288
 3832TIP3    H111460   4.472   5.673   3.281 -1.9972  1.4156 -0.1637
 3832TIP3    H211461   4.519   5.816   3.265  3.2059 -0.2346 -0.5037
 3833TIP3   OH211462   5.038   0.104   4.263 -0.6840  0.2271 -0.3140
 3833TIP3    H111463   4.989   0.129   4.185 -1.6941 -1.3720 -0.2212
 3833TIP3    H211464   5.073   0.017   4.242 -0.3771  0.0923  0.7452
 3834TIP3   OH211465   3.286   3.365   3.065  0.2898  0.7496  0.4785
 3834TIP3    H111466   3.361   3.331   3.116 -0.0730  1.1640  1.2995
 3834TIP3    H211467   3.231   3.409   3.130 -0.3475  1.0083 -0.2304
 3835TIP3   OH211468   2.338   4.684   1.442 -0.0080  0.6621 -0.1967
 3835TIP3    H111469   2.271   4.743   1.408 -0.3967  0.9573  1.0336
 3835TIP3    H211470   2.365   4.725   1.525 -0.4774 -1.0252  0.8094
 3836TIP3   OH211471   2.697   6.407   3.860 -0.2359 -0.4991  0.0547
 3836TIP3    H111472   2.608   6.378   3.837 -0.7221  0.5498  0.5810
 3836TIP3    H211473   2.707   6.383   3.952 -0.1423 -0.2189  0.1189
 3837TIP3   OH211474   2.386   5.765   3.646 -0.0355  0.0141 -0.2193
 3837TIP3    H111475   2.463   5.713   3.669  0.7197  0.8994 -0.7157
 3837TIP3    H211476   2.413   5.815   3.569 -0.8537  0.9033  0.0572
 3838TIP3   OH211477   2.688   6.343   3.079  0.3792 -0.0088 -0.1279
 3838TIP3    H111478   2.743   6.420   3.095  0.0966  0.3524 -0.9125
 3838TIP3    H211479   2.632   6.337   3.157  2.1892 -0.9670  1.1706
 3839TIP3   OH211480   5.164   4.209   2.071  0.2404 -0.3544 -0.1995
 3839TIP3    H111481   5.089   4.238   2.123 -0.9206 -2.1581 -0.8404
 3839TIP3    H211482   5.211   4.147   2.128 -0.5710 -1.6966 -0.9799
 3840TIP3   OH211483   0.029   5.626   3.131  0.0045 -0.5773  0.3701
 3840TIP3    H111484  -0.000   5.585   3.050 -0.8498 -0.4138  0.5879
 3840TIP3    H211485   0.120   5.598   3.141  1.6379  3.1258 -3.0398
 3841TIP3   OH211486   1.897   5.093   3.559 -0.1175  0.1352  0.0674
 3841TIP3    H111487   1.909   5.168   3.617 -1.2162  0.6249 -0.3369
 3841TIP3    H211488   1.911   5.127   3.471 -2.3162  0.2678 -0.2604
 3842TIP3   OH211489   0.820   5.739   2.049  0.0367 -0.2671 -0.7189
 3842TIP3    H111490   0.896   5.742   1.990  0.6845  1.3813  0.1487
 3842TIP3    H211491   0.748   5.771   1.996  0.1455 -0.8959 -1.2588
 3843TIP3   OH211492   2.182   3.771   3.802 -0.6348 -0.1147 -0.1720
 3843TIP3    H111493   2.129   3.693   3.817  0.0816 -0.7292 -0.7724
 3843TIP3    H211494   2.235   3.781   3.881  0.6458 -1.3419 -0.8667
 3844TIP3   OH211495   1.803   6.273   2.507  0.2228 -0.0017 -0.3985
 3844TIP3    H111496   1.761   6.324   2.577  0.4442 -0.2948 -0.0579
 3844TIP3    H211497   1.895   6.300   2.509  0.6165 -1.3942  0.6464
 3845TIP3   OH211498   6.822   6.281   2.717 -0.4884 -0.1538 -0.3509
 3845TIP3    H111499   6.853   6.367   2.687  0.8923 -0.5722 -0.1427
 3845TIP3    H211500   6.727   6.290   2.722 -0.2312  1.9300  1.4312
 3846TIP3   OH211501   3.113   0.724   3.544 -0.1356  0.3313 -0.8016
 3846TIP3    H111502   3.113   0.661   3.473 -0.4242 -0.2132 -0.3258
 3846TIP3    H211503   3.144   0.806   3.505 -0.1178 -0.0137 -1.5012
 3847TIP3   OH211504   3.093   4.558   2.639 -0.0853 -0.0099 -0.0437
 3847TIP3    H111505   3.105   4.492   2.707  1.8243  0.5438  0.1843
 3847TIP3    H211506   3.057   4.510   2.564 -0.4710 -0.9501  0.7434
 3848TIP3   OH211507   3.474   6.350   3.497  0.0722 -0.2568 -0.6301
 3848TIP3    H111508   3.408   6.282   3.485 -0.5093  0.0366  0.8688
 3848TIP3    H211509   3.552   6.302   3.524 -0.6883 -0.2457  1.6949
 3849TIP3   OH211510   3.775   4.917   1.356  0.0173 -0.0688  0.0095
 3849TIP3    H111511   3.775   4.826   1.386 -0.6705  0.3233  1.2146
 3849TIP3    H211512   3.683   4.939   1.344  0.0997  0.8720  0.9892
 3850TIP3   OH211513   6.678   2.078   5.911  0.2836  0.0026  0.3998
 3850TIP3    H111514   6.700   1.988   5.937  0.2198 -0.0289  0.3457
 3850TIP3    H211515   6.734   2.133   5.966  0.5064 -0.0771  0.2574
 3851TIP3   OH211516   2.301   6.822   3.307 -0.6286 -0.1140 -0.1747
 3851TIP3    H111517   2.383   6.824   3.258 -0.0942  0.7926  0.7299
 3851TIP3    H211518   2.322   6.863   3.391 -2.1275  0.6089 -0.1316
 3852TIP3   OH211519   1.260   5.066   1.456  0.7485  0.1550  0.0335
 3852TIP3    H111520   1.196   5.122   1.411  0.8751  0.9343  0.8143
 3852TIP3    H211521   1.318   5.128   1.501  0.1510 -0.6410  1.9328
 3853TIP3   OH211522   2.443   6.261   5.349  0.1746 -0.4187 -0.5177
 3853TIP3    H111523   2.436   6.321   5.424 -0.5559 -0.0139 -0.8973
 3853TIP3    H211524   2.486   6.313   5.281 -0.9574 -0.1272 -1.0317
 3854TIP3   OH211525   2.997   5.104   2.714  0.0969  0.2740  0.5050
 3854TIP3    H111526   2.990   5.199   2.707 -0.8982  0.2101  0.4600
 3854TIP3    H211527   2.907   5.073   2.700  0.5911 -0.7386 -0.4889
 3855TIP3   OH211528   6.601   3.037   4.370 -0.6837  0.6152 -0.0555
 3855TIP3    H111529   6.689   3.037   4.333 -1.0666 -1.3465 -1.0262
 3855TIP3    H211530   6.615   3.019   4.463 -0.0667  0.3218 -0.2039
 3856TIP3   OH211531   1.534   5.259   2.493  0.4636 -0.3120 -0.1061
 3856TIP3    H111532   1.619   5.272   2.451  1.4473  1.3984  2.3239
 3856TIP3    H211533   1.534   5.166   2.517  0.8157 -0.7760 -1.8443
 3857TIP3   OH211534   1.633   5.541   3.803  0.0230  0.4114  0.3285
 3857TIP3    H111535   1.661   5.613   3.746 -2.1109  0.8156 -0.2439
 3857TIP3    H211536   1.670   5.463   3.762  0.2806  0.9295 -0.4447
 3858TIP3   OH211537   6.933   4.675   1.356 -0.0859  0.5754  0.0677
 3858TIP3    H111538   6.981   4.736   1.412  1.8004 -0.6054 -0.2513
 3858TIP3    H211539   6.999   4.637   1.299 -1.4308 -0.9246 -0.5239
 3859TIP3   OH211540   1.554   2.835   1.360  0.0308  0.0703  0.0625
 3859TIP3    H111541   1.634   2.783   1.361 -0.0413 -0.0337  0.3769
 3859TIP3    H211542   1.494   2.787   1.304 -0.4084 -0.7391  1.2139
 3860TIP3   OH211543   2.216   3.671   4.570  0.0612  0.1447 -0.5760
 3860TIP3    H111544   2.226   3.743   4.507  0.5279 -0.3575 -1.0818
 3860TIP3    H211545   2.164   3.606   4.523  0.2497 -0.1527 -0.3669
 3861TIP3   OH211546   2.884   6.666   2.688 -0.0446  0.0776 -0.2282
 3861TIP3    H111547   2.896   6.720   2.766 -0.6990 -0.0270 -0.0523
 3861TIP3    H211548   2.925   6.583   2.711 -0.5800 -0.0838  0.1514
 3862TIP3   OH211549   2.731   5.161   1.963 -0.4159 -0.2208  0.1304
 3862TIP3    H111550   2.758   5.134   2.051  0.2946 -0.7144 -0.2349
 3862TIP3    H211551   2.803   5.134   1.907  0.3063  2.4344 -0.2485
 3863TIP3   OH211552   3.646   5.391   2.718  0.3673 -0.3597  0.6169
 3863TIP3    H111553   3.592   5.339   2.778 -2.4454  0.2014 -1.3629
 3863TIP3    H211554   3.695   5.325   2.668  0.1850 -0.9161  1.1549
 3864TIP3   OH211555   7.269   5.618   2.148 -0.2587 -0.3063  0.1667
 3864TIP3    H111556   7.303   5.553   2.086  1.3992 -0.1285  0.8780
 3864TIP3    H211557   7.276   5.577   2.233 -2.1177 -0.3650  0.3227
 3865TIP3   OH211558   2.362   4.687   3.740 -0.3966 -0.2137  0.0909
 3865TIP3    H111559   2.278   4.643   3.747 -0.5709  0.0028 -0.6304
 3865TIP3    H211560   2.396   4.689   3.830 -1.6570  0.6802  0.5576
 3866TIP3   OH211561   3.703   4.548   2.571 -0.1803  0.0964  0.0896
 3866TIP3    H111562   3.657   4.621   2.530 -0.1697  1.5110  2.4617
 3866TIP3    H211563   3.639   4.478   2.575 -0.2026 -0.0536 -2.1979
 3867TIP3   OH211564   1.829   3.202   3.297 -0.3849  0.0716 -0.2286
 3867TIP3    H111565   1.763   3.200   3.227 -1.0960  1.2151  0.3894
 3867TIP3    H211566   1.903   3.249   3.259 -0.9878  1.1860 -0.0335
 3868TIP3   OH211567   6.778   0.388   0.928 -0.4960 -0.0848  0.0409
 3868TIP3    H111568   6.757   0.480   0.909 -1.0620 -0.2617 -0.1974
 3868TIP3    H211569   6.830   0.359   0.853 -0.2553  0.0622  0.1511
 3869TIP3   OH211570   0.293   4.156   4.093 -0.5761 -0.0785 -0.4638
 3869TIP3    H111571   0.278   4.070   4.055 -0.7142  0.0583 -0.7200
 3869TIP3    H211572   0.258   4.150   4.182  0.3170 -0.5879 -0.1460
 3870TIP3   OH211573   0.806   5.068   2.422 -0.3141  0.5522  0.0455
 3870TIP3    H111574   0.716   5.049   2.393  0.2423 -1.2999 -0.5108
 3870TIP3    H211575   0.812   5.164   2.420 -2.0746  0.6669 -0.5227
 3871TIP3   OH211576   6.158   0.489   2.938  0.3412  0.5748 -0.2351
 3871TIP3    H111577   6.185   0.399   2.957 -0.3122  0.5665  0.6307
 3871TIP3    H211578   6.168   0.535   3.021 -0.0354  1.1317 -0.4985
 3872TIP3   OH211579   3.368   6.610   2.876 -0.3901 -0.0495 -0.6820
 3872TIP3    H111580   3.379   6.605   2.781 -1.7154  0.4108 -0.8635
 3872TIP3    H211581   3.457   6.622   2.910 -0.0430  1.0458 -1.9426
 3873TIP3   OH211582   2.503   0.451   1.705  0.1430 -0.6715  0.1055
 3873TIP3    H111583   2.453   0.529   1.681  0.1277 -0.7220 -0.0287
 3873TIP3    H211584   2.576   0.449   1.643 -1.4551 -2.3569 -1.7935
 3874TIP3   OH211585   1.301   4.398   3.546  0.0977  0.0278 -0.4880
 3874TIP3    H111586   1.362   4.472   3.538  2.6608 -1.5323  2.9793
 3874TIP3    H211587   1.325   4.340   3.474  0.7688  0.7731 -0.8799
 3875TIP3   OH211588   1.921   6.923   0.760  0.2947 -0.6931  0.0758
 3875TIP3    H111589   1.946   6.842   0.805 -1.3097 -1.2001  0.0633
 3875TIP3    H211590   1.971   6.991   0.806  1.0110 -1.5667  0.6332
 3876TIP3   OH211591   2.804   5.899   1.919  0.8805 -0.4175 -0.2429
 3876TIP3    H111592   2.869   5.931   1.981  0.8463 -0.1506 -0.3473
 3876TIP3    H211593   2.751   5.838   1.970  0.1134  0.6946  0.3052
 3877TIP3   OH211594   2.421   6.066   3.871 -0.5420 -0.0764  0.8496
 3877TIP3    H111595   2.398   5.975   3.890 -0.8911 -0.3010 -0.5588
 3877TIP3    H211596   2.516   6.066   3.862 -0.5130 -0.2348  1.1413
 3878TIP3   OH211597   0.923   5.910   2.275 -0.1712  0.8654 -0.1629
 3878TIP3    H111598   0.846   5.954   2.310 -0.7434  1.1974 -1.7705
 3878TIP3    H211599   0.890   5.857   2.202  0.6712 -1.3772  1.0216
 3879TIP3   OH211600   6.405   3.016   3.125  0.1561  0.0863  0.1413
 3879TIP3    H111601   6.362   2.931   3.135  0.0830  0.2682  1.4702
 3879TIP3    H211602   6.455   3.027   3.206  2.1684  0.1901 -1.0949
 3880TIP3   OH211603   2.942   3.730   2.879 -0.7814  0.0984  0.2359
 3880TIP3    H111604   2.986   3.695   2.956 -0.2498  0.7117  0.2080
 3880TIP3    H211605   3.011   3.739   2.813 -0.8401  1.5338  0.3555
 3881TIP3   OH211606   3.138   6.429   3.300  0.0999 -0.7760  0.0381
 3881TIP3    H111607   3.065   6.453   3.243 -0.4980 -1.3074  0.5697
 3881TIP3    H211608   3.216   6.447   3.248 -0.3478  1.3712  0.0710
 3882TIP3   OH211609   4.902   0.085   1.540 -0.0480 -0.1170  0.1086
 3882TIP3    H111610   4.888   0.125   1.454 -1.1308  0.3645  0.4899
 3882TIP3    H211611   4.911   0.159   1.600  0.4905 -0.4474  0.4358
 3883TIP3   OH211612   1.557   4.980   1.747 -0.0274  0.4894  0.6758
 3883TIP3    H111613   1.578   4.979   1.841 -1.2755 -0.2927  0.9565
 3883TIP3    H211614   1.492   4.911   1.737  2.0971 -1.3110 -1.2420
 3884TIP3   OH211615   0.471   4.534   2.383 -0.1138  0.2815  0.1731
 3884TIP3    H111616   0.474   4.562   2.292  1.1339 -1.0363 -0.1941
 3884TIP3    H211617   0.536   4.589   2.427  0.3877 -0.1618 -0.0208
 3885TIP3   OH211618   1.124   5.876   3.460  0.1322  0.2952  0.5125
 3885TIP3    H111619   1.048   5.889   3.403  0.5110  2.1915  0.4159
 3885TIP3    H211620   1.194   5.846   3.402 -0.8393 -2.7276  0.7903
 3886TIP3   OH211621   2.057   4.123   2.353  0.4151  0.1093  0.6145
 3886TIP3    H111622   2.105   4.205   2.345 -1.0716  0.9045 -0.4647
 3886TIP3    H211623   1.997   4.136   2.425 -0.1034  0.1159  0.1850
 3887TIP3   OH211624   1.186   4.640   3.259 -0.1318 -0.1545  0.1979
 3887TIP3    H111625   1.139   4.561   3.285 -0.0704 -0.4319 -0.5292
 3887TIP3    H211626   1.266   4.608   3.217 -0.2936  0.2874 -0.4549
 3888TIP3   OH211627   2.323   6.549   2.813  0.7181 -0.0907 -0.1671
 3888TIP3    H111628   2.330   6.533   2.718 -0.2065 -0.8308 -0.1258
 3888TIP3    H211629   2.361   6.470   2.853 -0.4929 -0.5654  0.0629
 3889TIP3   OH211630   0.965   5.915   1.812 -0.2938  0.2082  0.0996
 3889TIP3    H111631   0.997   6.003   1.790 -0.4948  0.5021  0.9934
 3889TIP3    H211632   0.893   5.900   1.751 -1.0876  1.1725  0.8032
 3890TIP3   OH211633   4.194   6.622   0.363  0.4006 -0.1384  0.1473
 3890TIP3    H111634   4.243   6.648   0.285  2.3221 -0.2899  1.2605
 3890TIP3    H211635   4.160   6.535   0.342  1.4849 -0.4713 -0.2722
 3891TIP3   OH211636   1.345   4.190   3.745  0.0317  0.5458  0.5943
 3891TIP3    H111637   1.421   4.140   3.718  0.2025  0.8446  0.5227
 3891TIP3    H211638   1.327   4.249   3.672  0.8978  1.8184  1.3903
 3892TIP3   OH211639   0.767   3.107   3.407 -0.2270 -0.2223  0.5399
 3892TIP3    H111640   0.720   3.140   3.330 -0.4233 -0.2382  0.6512
 3892TIP3    H211641   0.846   3.160   3.412 -1.4641  1.5385  1.8429
 3893TIP3   OH211642   1.729   6.716   2.009  0.0708  0.2272  0.2013
 3893TIP3    H111643   1.697   6.789   1.955 -0.8271  0.0624  0.5086
 3893TIP3    H211644   1.801   6.679   1.958  0.0341  0.8514 -0.3131
 3894TIP3   OH211645   1.564   5.545   1.978 -1.2673 -0.1992 -0.0193
 3894TIP3    H111646   1.651   5.576   2.002 -1.5796  0.3213  0.4564
 3894TIP3    H211647   1.546   5.474   2.040 -1.7628  0.6436  0.8197
 3895TIP3   OH211648   2.270   6.468   3.116  0.6342 -0.4451 -0.1230
 3895TIP3    H111649   2.332   6.419   3.062  2.6869 -0.7524  2.4067
 3895TIP3    H211650   2.323   6.536   3.157 -0.6987 -0.6475  2.0281
 3896TIP3   OH211651   0.917   4.206   1.571  0.2015 -0.1399 -0.2623
 3896TIP3    H111652   0.934   4.113   1.589  2.1950  0.8301  3.1539
 3896TIP3    H211653   0.998   4.238   1.531 -0.7115  0.0184 -2.0263
 3897TIP3   OH211654   4.473   0.109   0.404 -0.1591 -0.9821  0.3445
 3897TIP3    H111655   4.464   0.204   0.411 -2.0495 -1.1402  0.3649
 3897TIP3    H211656   4.388   0.079   0.371 -0.2670 -2.8607  2.2074
 3898TIP3   OH211657   2.704   4.863   2.454  0.0904 -0.1485  0.1749
 3898TIP3    H111658   2.712   4.922   2.379  1.7106  2.1592  2.0835
 3898TIP3    H211659   2.610   4.847   2.461 -0.1940  0.5529 -1.6296
 3899TIP3   OH211660   6.845   3.852   3.520  0.3408  0.3600  0.3191
 3899TIP3    H111661   6.752   3.862   3.541  0.1823  0.5373 -0.4316
 3899TIP3    H211662   6.858   3.758   3.511  0.9732  0.0899  3.6367
 3900TIP3   OH211663   1.000   6.394   1.237 -0.0636 -0.0777 -0.3281
 3900TIP3    H111664   0.962   6.482   1.240 -0.9119 -0.4214 -0.6912
 3900TIP3    H211665   1.018   6.379   1.144  0.0326 -0.3030 -0.2731
 3901TIP3   OH211666   2.103   1.395   2.024 -0.0003 -0.4555 -0.5873
 3901TIP3    H111667   2.161   1.334   2.071 -0.4238 -0.1733  0.3114
 3901TIP3    H211668   2.104   1.364   1.934  1.3309 -0.6262 -0.5171
 3902TIP3   OH211669   2.246   3.197   0.769 -0.5301  0.6703 -0.0701
 3902TIP3    H111670   2.340   3.207   0.785 -0.6823  2.3506 -0.0867
 3902TIP3    H211671   2.218   3.283   0.738 -1.8762 -0.1208 -1.1149
 3903TIP3   OH211672   4.147   0.053   4.928  0.3941 -0.0050 -0.6937
 3903TIP3    H111673   4.205   0.129   4.929 -1.2039  1.2396 -0.2142
 3903TIP3    H211674   4.077   0.076   4.990 -1.9730 -0.3580 -3.1629
 3904TIP3   OH211675   3.417   5.419   0.823  0.2571 -0.5438 -0.0344
 3904TIP3    H111676   3.512   5.408   0.827  0.6146  1.5892 -1.5685
 3904TIP3    H211677   3.398   5.428   0.730 -1.2559  0.3580  0.3430
 3905TIP3   OH211678   1.423   3.502   0.854  0.3087  0.4241 -0.2210
 3905TIP3    H111679   1.463   3.450   0.785 -0.1916  0.2633 -0.3908
 3905TIP3    H211680   1.477   3.486   0.931  1.0053  0.7915 -0.6353
 3906TIP3   OH211681   6.690   6.471   0.808 -0.4505 -0.0199  0.1216
 3906TIP3    H111682   6.610   6.510   0.771  0.3358 -0.3251 -1.9510
 3906TIP3    H211683   6.755   6.541   0.805 -0.9837  0.6805  3.1659
 3907TIP3   OH211684   2.480   4.930   2.789 -0.1960  0.3554 -0.2132
 3907TIP3    H111685   2.416   4.908   2.856  1.2656  0.7481  1.3368
 3907TIP3    H211686   2.465   5.023   2.771 -0.4201  0.3113 -0.2512
 3908TIP3   OH211687   2.571   3.990   5.619  0.2431 -0.0646 -0.6296
 3908TIP3    H111688   2.547   4.082   5.620 -0.3056 -0.1915 -1.4096
 3908TIP3    H211689   2.492   3.944   5.648  0.8425 -0.2310  0.8039
 3909TIP3   OH211690   2.058   6.483   2.721 -0.0016 -1.2737  0.5595
 3909TIP3    H111691   2.135   6.505   2.775 -0.3166  0.4641  0.3399
 3909TIP3    H211692   1.983   6.508   2.775 -0.3014  3.8169 -1.9076
 3910TIP3   OH211693   3.294   6.469   3.088 -0.6447  0.0861 -0.1604
 3910TIP3    H111694   3.367   6.490   3.146 -0.7891  1.1058 -0.3400
 3910TIP3    H211695   3.306   6.525   3.011 -0.3721 -1.3693 -1.1944
 3911TIP3   OH211696   7.216   6.215   1.606  0.1760  0.5259  0.8260
 3911TIP3    H111697   7.190   6.306   1.590  0.8871  0.7951  1.1739
 3911TIP3    H211698   7.167   6.165   1.542 -0.6718  1.0976  1.0225
 3912TIP3   OH211699   4.981   0.035   1.157  0.8763 -0.5306  0.1754
 3912TIP3    H111700   5.061   0.079   1.127  0.5830 -0.5426 -0.6435
 3912TIP3    H211701   5.010  -0.052   1.183  1.2463 -0.2972  0.5570
 3913TIP3   OH211702   0.729   5.946   1.652 -0.3821 -0.1842 -0.5597
 3913TIP3    H111703   0.760   5.996   1.577 -1.0596  1.2685  0.1060
 3913TIP3    H211704   0.680   5.873   1.614  1.0038 -0.6331 -1.5446
 3914TIP3   OH211705   4.931   6.259   1.725 -0.3434  0.5339 -0.3998
 3914TIP3    H111706   4.863   6.304   1.774 -2.7337 -1.4843 -1.7238
 3914TIP3    H211707   4.946   6.315   1.649 -0.4028  1.0713 -0.0202
 3915TIP3   OH211708   0.808   3.364   1.339 -0.4581  0.0962 -0.0041
 3915TIP3    H111709   0.842   3.355   1.250 -2.3939 -0.8038 -0.6887
 3915TIP3    H211710   0.735   3.302   1.343 -0.8541  0.6591  1.9828
 3916TIP3   OH211711   2.838   5.494   2.086  0.3588 -0.1610 -0.2800
 3916TIP3    H111712   2.851   5.539   2.170  0.3368 -0.8884  0.1139
 3916TIP3    H211713   2.743   5.480   2.081 -0.0001  2.4491 -1.7632
 3917TIP3   OH211714   1.597   4.975   2.441  0.2736  0.0364  0.0760
 3917TIP3    H111715   1.532   4.905   2.445 -0.4867  0.6658 -0.9559
 3917TIP3    H211716   1.653   4.951   2.367  1.2713 -0.5306  0.9913
 3918TIP3   OH211717   2.411   1.629   2.576 -0.5032  0.3324  0.3697
 3918TIP3    H111718   2.496   1.641   2.620 -0.7235 -0.1262  0.9296
 3918TIP3    H211719   2.354   1.695   2.616  0.1007  1.9374 -1.3821
 3919TIP3   OH211720   0.533   6.415   3.585 -0.2111 -0.2878 -0.1547
 3919TIP3    H111721   0.561   6.355   3.516  0.6662 -1.3277  1.0674
 3919TIP3    H211722   0.536   6.502   3.545 -0.2269 -0.9316 -1.5693
 3920TIP3   OH211723   4.566   0.111   2.770 -0.2169 -0.0768  0.5359
 3920TIP3    H111724   4.529   0.038   2.720  2.5536 -1.0643 -0.1582
 3920TIP3    H211725   4.519   0.188   2.739 -0.0257 -0.9714 -2.0565
 3921TIP3   OH211726   5.594   0.376   4.667 -0.5219  0.2478 -0.0006
 3921TIP3    H111727   5.636   0.310   4.611 -0.8675  0.6012 -0.6880
 3921TIP3    H211728   5.504   0.346   4.675 -0.4210  0.0895  0.5408
 3922TIP3   OH211729   3.410   0.247   2.245  0.2174  0.1951  0.1824
 3922TIP3    H111730   3.352   0.173   2.260 -0.0511  0.3560 -0.0405
 3922TIP3    H211731   3.493   0.221   2.284  0.1343 -0.2352  0.0757
 3923TIP3   OH211732   0.307   4.410   2.155 -0.1309 -0.1622  0.1130
 3923TIP3    H111733   0.232   4.425   2.098 -0.0417  0.2097  0.0957
 3923TIP3    H211734   0.275   4.348   2.221 -1.0030  1.3965  1.1944
 3924TIP3   OH211735   6.939   0.357   0.712 -0.6753  0.6998 -0.2083
 3924TIP3    H111736   7.034   0.347   0.718 -0.8722 -0.8680  0.6939
 3924TIP3    H211737   6.909   0.277   0.670 -1.5925  1.2084 -0.5268
 3925TIP3   OH211738   2.781   0.497   3.212  0.2385 -0.2340  0.5715
 3925TIP3    H111739   2.752   0.564   3.150 -0.5598 -0.3849  0.7769
 3925TIP3    H211740   2.794   0.419   3.158 -0.5815 -0.4003  0.5996
 3926TIP3   OH211741   6.423   5.769   1.630 -0.3769 -0.1494  0.0512
 3926TIP3    H111742   6.503   5.730   1.594 -1.7708 -1.2004 -1.9619
 3926TIP3    H211743   6.406   5.718   1.710 -0.6753 -1.8956 -1.0994
 3927TIP3   OH211744   1.058   5.136   1.847  0.5541 -0.1232 -0.7273
 3927TIP3    H111745   1.078   5.055   1.800  2.1332  0.9144 -1.8927
 3927TIP3    H211746   0.985   5.175   1.798  1.7659  0.6289 -1.9737
 3928TIP3   OH211747   1.479   5.494   3.248  0.1755  0.0990  0.0385
 3928TIP3    H111748   1.416   5.527   3.184 -0.6785  2.0923  1.8336
 3928TIP3    H211749   1.432   5.428   3.298 -0.6405  1.8445  1.6164
 3929TIP3   OH211750   1.347   1.674   3.176  0.2164  0.1119  0.3005
 3929TIP3    H111751   1.274   1.621   3.145  0.3377 -0.6827  1.3440
 3929TIP3    H211752   1.352   1.655   3.270 -0.1461  2.4603  0.8273
 3930TIP3   OH211753   1.149   4.971   1.165  0.6087 -0.6792  0.1165
 3930TIP3    H111754   1.245   4.963   1.163  0.7347  0.5859 -2.0358
 3930TIP3    H211755   1.134   5.064   1.185 -0.1400 -0.6986 -0.3437
 3931TIP3   OH211756   0.129   5.786   0.498  0.6750 -0.3462 -0.1137
 3931TIP3    H111757   0.194   5.716   0.505  0.3176 -0.7164 -0.4583
 3931TIP3    H211758   0.136   5.834   0.581 -0.5257 -2.0520  1.0087
 3932TIP3   OH211759   0.519   6.825   1.236 -0.6846  0.3208 -0.1232
 3932TIP3    H111760   0.493   6.794   1.322  0.2715  1.2310  0.5191
 3932TIP3    H211761   0.448   6.883   1.208 -1.7506 -1.2257 -0.6644
 3933TIP3   OH211762   3.446   4.751   2.775 -0.1852 -0.0534 -0.5354
 3933TIP3    H111763   3.355   4.781   2.764 -0.5111 -0.9678 -0.4099
 3933TIP3    H211764   3.457   4.684   2.708  0.4260  0.1026 -0.5918
 3934TIP3   OH211765   3.154   0.199   1.165 -0.2434  0.6779 -0.0481
 3934TIP3    H111766   3.184   0.163   1.249 -1.1791  1.3791  0.5952
 3934TIP3    H211767   3.124   0.287   1.186 -0.4756  0.8593 -1.1294
 3935TIP3   OH211768   0.671   3.806   2.404  0.6143  0.5047  0.1578
 3935TIP3    H111769   0.766   3.797   2.404  0.7341  1.6870  0.8191
 3935TIP3    H211770   0.650   3.840   2.491 -0.4677 -0.2155  0.1949
 3936TIP3   OH211771   3.479   4.505   4.218 -0.5518 -0.6868 -0.3307
 3936TIP3    H111772   3.493   4.472   4.129  3.1786  0.1439 -0.0985
 3936TIP3    H211773   3.385   4.494   4.232 -0.8987 -2.6913 -3.6249
 3937TIP3   OH211774   1.428   4.703   4.323  0.4273 -0.4567 -0.4384
 3937TIP3    H111775   1.440   4.650   4.244  2.5253 -1.8104  0.7443
 3937TIP3    H211776   1.450   4.644   4.395 -0.3238  1.0982  1.0938
 3938TIP3   OH211777   3.755   2.491   3.007 -0.2631 -0.4237  0.5399
 3938TIP3    H111778   3.792   2.403   3.008 -0.8767 -0.6992 -0.3840
 3938TIP3    H211779   3.675   2.483   2.956 -1.1711  0.3339  1.8075
 3939TIP3   OH211780   7.147   3.354   2.433 -0.4846 -0.2343 -0.4008
 3939TIP3    H111781   7.230   3.330   2.475  0.3088  2.0703 -0.6038
 3939TIP3    H211782   7.086   3.285   2.460  1.4643 -1.9575 -0.2322
 3940TIP3   OH211783   5.923   1.162   1.953  1.1103  0.0222 -0.7040
 3940TIP3    H111784   5.870   1.236   1.982  1.1201 -0.2806  0.0965
 3940TIP3    H211785   5.929   1.105   2.030 -0.5134 -1.7611 -1.8721
 3941TIP3   OH211786   7.409   6.212   2.495  0.4317 -0.1857  0.0686
 3941TIP3    H111787   7.385   6.120   2.485  0.5897 -0.1107 -1.0749
 3941TIP3    H211788   7.388   6.252   2.411 -0.2974  0.9834  0.7962
 3942TIP3   OH211789   7.197   4.715   0.169  0.1195 -0.0050 -0.2923
 3942TIP3    H111790   7.227   4.709   0.260  0.4166  0.7180 -0.3374
 3942TIP3    H211791   7.233   4.798   0.137 -2.7037  1.4001 -0.0413
 3943TIP3   OH211792   0.132   5.847   1.374 -0.2027 -0.1399 -0.4525
 3943TIP3    H111793   0.056   5.892   1.338  0.8921  1.4632 -0.8093
 3943TIP3    H211794   0.184   5.821   1.298 -0.8481 -2.1159 -0.2600
 3944TIP3   OH211795   3.053   6.652   3.624 -0.4540  0.3548  0.5290
 3944TIP3    H111796   3.059   6.707   3.545  0.4237  0.3888  0.6127
 3944TIP3    H211797   3.141   6.616   3.634 -0.9722 -0.9067  0.6058
 3945TIP3   OH211798   0.793   6.615   1.481  0.3095 -0.4093  0.6021
 3945TIP3    H111799   0.858   6.606   1.551  0.8385 -0.4956  0.1062
 3945TIP3    H211800   0.845   6.621   1.400 -0.2318  1.4295  0.3699
 3946TIP3   OH211801   3.124   4.274   2.877 -0.0924  0.2271 -0.3860
 3946TIP3    H111802   3.076   4.277   2.960  1.2536  0.7304  0.3856
 3946TIP3    H211803   3.180   4.351   2.879 -0.4109  0.5180 -2.0000
 3947TIP3   OH211804   4.544   0.911   1.861  0.3760 -0.2676 -0.0297
 3947TIP3    H111805   4.505   0.942   1.779 -1.6091 -1.7014  0.3305
 3947TIP3    H211806   4.609   0.846   1.833  1.5163  1.0856 -0.5734
 3948TIP3   OH211807   0.632   3.924   3.894  0.0228 -0.0746  0.3673
 3948TIP3    H111808   0.661   3.867   3.965 -1.1409 -1.6094 -0.3647
 3948TIP3    H211809   0.539   3.939   3.911 -1.0304 -2.9165 -2.4074
 3949TIP3   OH211810   2.192   5.040   2.083 -0.7048 -0.0211 -0.2481
 3949TIP3    H111811   2.239   4.966   2.043 -1.5662 -1.4023  1.2670
 3949TIP3    H211812   2.212   5.114   2.025  1.8713 -0.9601 -0.6412
 3950TIP3   OH211813   1.328   5.995   4.376  0.2207  0.0420  0.1028
 3950TIP3    H111814   1.403   5.937   4.360  0.3458  0.6940 -1.7025
 3950TIP3    H211815   1.363   6.083   4.365 -0.3973  0.4241  1.0938
 3951TIP3   OH211816   6.964   5.422   0.375  0.2062  1.0065  0.4189
 3951TIP3    H111817   6.955   5.450   0.466  0.3792  1.3646  0.3279
 3951TIP3    H211818   7.010   5.495   0.332 -0.0341  0.9168  0.0067
 3952TIP3   OH211819   2.647   1.630   2.725 -0.0653  0.0838  0.2931
 3952TIP3    H111820   2.604   1.650   2.808 -1.0610 -3.2673  0.6424
 3952TIP3    H211821   2.719   1.572   2.748 -1.2329 -2.0676 -1.2958
 3953TIP3   OH211822   1.709   4.792   1.534  0.1715 -0.4449 -0.0304
 3953TIP3    H111823   1.721   4.876   1.578  0.5680 -1.1306  1.2082
 3953TIP3    H211824   1.771   4.793   1.461  1.0821 -0.1623  0.7368
 3954TIP3   OH211825   1.038   5.421   0.828  0.5099 -0.0470 -0.2551
 3954TIP3    H111826   1.060   5.507   0.791 -0.7581 -0.4206 -1.8916
 3954TIP3    H211827   1.121   5.373   0.827  1.0052  0.7974 -0.3092
 3955TIP3   OH211828   3.106   5.090   3.460 -0.1542 -0.2519  0.6459
 3955TIP3    H111829   3.098   5.149   3.535 -0.0489  0.4462  0.1196
 3955TIP3    H211830   3.188   5.044   3.475  2.3371  3.2321 -1.3069
 3956TIP3   OH211831   2.301   3.760   3.564  0.1809 -0.4579  0.6768
 3956TIP3    H111832   2.359   3.836   3.566 -0.1064 -0.2206  0.1148
 3956TIP3    H211833   2.260   3.759   3.650  0.4676 -0.1977  0.8173
 3957TIP3   OH211834   0.586   5.300   3.104 -0.2656  0.2506 -0.1807
 3957TIP3    H111835   0.549   5.251   3.177  1.3454  0.2575  0.6459
 3957TIP3    H211836   0.602   5.233   3.036 -1.1214  0.1452 -0.2845
 3958TIP3   OH211837   4.105   6.293   1.012 -0.4146  0.1547 -0.1006
 3958TIP3    H111838   4.140   6.368   0.964 -0.4087  1.0962  1.3273
 3958TIP3    H211839   4.181   6.238   1.031  0.3007  1.9597  2.5804
 3959TIP3   OH211840   3.731   0.070   2.220  0.8435 -0.0634 -0.6528
 3959TIP3    H111841   3.668   0.062   2.291 -0.0879 -1.0617 -1.5690
 3959TIP3    H211842   3.765   0.159   2.228  0.2458  0.0571  0.6218
 3960TIP3   OH211843   0.899   4.458   3.829 -0.1261  0.0101 -0.3250
 3960TIP3    H111844   0.952   4.490   3.902 -0.9819  1.0484 -0.1435
 3960TIP3    H211845   0.863   4.375   3.860  1.0346 -0.4964 -0.2936
 3961TIP3   OH211846   2.435   5.175   2.661  0.3376 -0.1806 -0.5433
 3961TIP3    H111847   2.476   5.256   2.630 -1.0796  0.3919 -0.9934
 3961TIP3    H211848   2.401   5.134   2.581  0.3532 -0.8108 -0.2241
 3962TIP3   OH211849   1.925   3.104   3.526 -0.4734 -0.3554 -0.4864
 3962TIP3    H111850   1.867   3.164   3.479 -1.3573  0.4355  1.5713
 3962TIP3    H211851   1.942   3.148   3.609  1.1186 -1.7130 -0.0766
 3963TIP3   OH211852   2.920   6.111   3.691 -0.1445  0.4195  0.0263
 3963TIP3    H111853   2.955   6.038   3.640  0.1794 -0.3672  1.3809
 3963TIP3    H211854   2.997   6.149   3.734 -0.1209  2.2954 -1.5647
 3964TIP3   OH211855   1.637   3.270   5.326  0.0090 -0.5613 -0.1612
 3964TIP3    H111856   1.585   3.222   5.391 -0.3954  0.9486  0.6586
 3964TIP3    H211857   1.575   3.332   5.287  0.9858  0.6538  0.1924
 3965TIP3   OH211858   1.177   6.246   2.861  0.1194  0.3207  0.8157
 3965TIP3    H111859   1.231   6.222   2.785 -0.1940 -0.9195  0.9677
 3965TIP3    H211860   1.216   6.198   2.934 -1.1435 -0.5411  0.9391
 3966TIP3   OH211861   3.787   4.787   3.398 -0.4412 -0.1269  0.3104
 3966TIP3    H111862   3.751   4.698   3.393 -0.8493 -0.0359  1.5121
 3966TIP3    H211863   3.793   4.815   3.306 -0.9166 -1.1493 -0.0450
 3967TIP3   OH211864   0.933   6.275   3.774 -0.1793  0.1274  0.1400
 3967TIP3    H111865   0.917   6.369   3.779 -3.3370 -0.3351 -0.4838
 3967TIP3    H211866   0.969   6.262   3.686  1.3716  0.8745  0.6468
 3968TIP3   OH211867   4.684   1.322   5.466  0.6383  0.3666  0.4585
 3968TIP3    H111868   4.656   1.345   5.377 -0.2506  0.8186  0.8464
 3968TIP3    H211869   4.779   1.326   5.463  0.7136 -1.4534 -0.9734
 3969TIP3   OH211870   3.591   5.789   4.537  0.1056  0.1227 -0.3166
 3969TIP3    H111871   3.626   5.871   4.503 -0.5610  0.6171  0.1715
 3969TIP3    H211872   3.561   5.742   4.460  0.1267  0.5148 -0.5672
 3970TIP3   OH211873   1.980   3.724   3.227 -0.4122  0.3386 -1.1511
 3970TIP3    H111874   2.039   3.665   3.273 -0.1671 -0.9634 -3.0984
 3970TIP3    H211875   2.028   3.751   3.149 -1.2153  1.7194 -1.1993
 3971TIP3   OH211876   6.190   0.751   4.418  0.1688 -0.0682 -0.0631
 3971TIP3    H111877   6.119   0.772   4.479  0.0350  1.7300 -0.8006
 3971TIP3    H211878   6.228   0.670   4.452 -0.2133  0.6376  2.1288
 3972TIP3   OH211879   1.285   6.342   0.729  0.2321  0.1719  0.9158
 3972TIP3    H111880   1.242   6.428   0.724 -0.6378 -0.1510  2.5014
 3972TIP3    H211881   1.378   6.362   0.733  0.1220  0.9747 -0.2090
 3973TIP3   OH211882   1.356   6.014   2.373 -0.0802 -0.0425 -0.0721
 3973TIP3    H111883   1.292   6.064   2.323 -0.6677 -1.9174 -1.2358
 3973TIP3    H211884   1.438   6.026   2.325 -0.0950  0.2730 -0.0200
 3974TIP3   OH211885   1.663   0.020   1.755 -0.2226  0.1556  0.3822
 3974TIP3    H111886   1.632  -0.069   1.773 -0.2694 -0.0930 -0.9113
 3974TIP3    H211887   1.641   0.069   1.834  0.2616 -1.0976  1.3113
 3975TIP3   OH211888   4.709   2.961   5.911  0.5053  0.0921 -0.0374
 3975TIP3    H111889   4.724   2.902   5.984  1.2334  0.9153  0.4813
 3975TIP3    H211890   4.683   2.903   5.839  1.2986 -0.8640  0.4308
 3976TIP3   OH211891   3.179   6.895   1.676 -0.4730  0.0732  0.1112
 3976TIP3    H111892   3.197   6.975   1.726 -0.3402 -0.2032  0.5135
 3976TIP3    H211893   3.262   6.876   1.631 -0.2867 -0.2220  0.5696
 3977TIP3   OH211894   3.800   5.672   3.102  0.4683  0.2144  0.2222
 3977TIP3    H111895   3.784   5.632   3.187 -0.0522 -0.0029  0.0250
 3977TIP3    H211896   3.815   5.765   3.122 -0.4958  0.3251  0.4746
 3978TIP3   OH211897   1.478   6.475   1.859 -0.0829  0.0685 -0.5309
 3978TIP3    H111898   1.558   6.435   1.824  0.0534 -0.8619  0.8219
 3978TIP3    H211899   1.451   6.418   1.930 -0.8464  1.4648  0.3310
 3979TIP3   OH211900   0.751   4.914   1.968 -0.2295  0.1006  0.2650
 3979TIP3    H111901   0.697   4.854   1.916 -0.8966  0.6352  0.3213
 3979TIP3    H211902   0.825   4.936   1.911  0.6180 -1.6648  0.6753
 3980TIP3   OH211903   7.090   0.434   0.088 -0.2656 -0.2578 -0.5898
 3980TIP3    H111904   7.050   0.521   0.083  0.0846 -0.0195  0.4681
 3980TIP3    H211905   7.017   0.376   0.106 -0.1567  0.2223  1.6825
 3981TIP3   OH211906   4.339   0.168   3.419  0.0025  0.1055 -0.1109
 3981TIP3    H111907   4.341   0.079   3.455 -0.6218 -0.0345 -0.4189
 3981TIP3    H211908   4.431   0.189   3.403  0.2142 -0.1765  0.7150
 3982TIP3   OH211909   3.566   5.174   0.443 -0.2211  0.0487  0.1358
 3982TIP3    H111910   3.638   5.179   0.379 -0.8755 -0.1343 -0.6194
 3982TIP3    H211911   3.588   5.100   0.499  0.1693 -0.0241 -0.1135
 3983TIP3   OH211912   1.503   5.983   1.567 -0.8586 -0.2635 -0.1152
 3983TIP3    H111913   1.584   5.977   1.618 -0.0451 -1.8572 -1.5395
 3983TIP3    H211914   1.476   6.075   1.575  1.0546  0.2728  0.4217
 3984TIP3   OH211915   0.055   2.974   2.783 -0.1554 -0.1523 -0.5917
 3984TIP3    H111916   0.094   2.888   2.765 -0.1873 -0.6828  1.7072
 3984TIP3    H211917   0.121   3.036   2.752  1.2202 -1.0280  0.4965
 3985TIP3   OH211918   1.385   2.493   1.019 -0.3828 -0.2502 -0.1410
 3985TIP3    H111919   1.309   2.438   1.039 -0.5039 -0.0853 -0.1466
 3985TIP3    H211920   1.386   2.498   0.924 -0.2252 -0.4492 -0.1488
 3986TIP3   OH211921   2.116   5.313   2.255  0.0136 -0.4338 -0.2808
 3986TIP3    H111922   2.092   5.297   2.347  2.6293  0.0331  0.5297
 3986TIP3    H211923   2.055   5.381   2.226 -0.5204 -0.2240  1.2817
 3987TIP3   OH211924   3.428   3.887   3.508 -0.3905  0.0623 -0.5064
 3987TIP3    H111925   3.454   3.857   3.594 -1.3196 -0.4817 -0.4136
 3987TIP3    H211926   3.394   3.809   3.464  0.9911  0.1216 -1.7247
 3988TIP3   OH211927   1.285   6.223   5.052 -0.1419  0.2076 -0.1487
 3988TIP3    H111928   1.292   6.220   4.957 -1.0411 -1.8295 -0.1717
 3988TIP3    H211929   1.212   6.164   5.073 -0.0972  0.8015  1.7859
 3989TIP3   OH211930   1.972   4.428   3.401  0.0519  0.6022  0.0036
 3989TIP3    H111931   2.029   4.505   3.392  0.5271  0.3789  1.0335
 3989TIP3    H211932   2.026   4.364   3.447 -0.3627 -0.3420 -0.8096
 3990TIP3   OH211933   0.689   1.565   6.018  0.4534 -0.3593 -0.6887
 3990TIP3    H111934   0.706   1.600   6.105 -1.1170  0.3805 -0.6636
 3990TIP3    H211935   0.703   1.639   5.958  1.9079 -0.9635 -1.1084
 3991TIP3   OH211936   7.197   6.739   0.853 -0.4678  0.3548 -0.5169
 3991TIP3    H111937   7.273   6.681   0.851  0.7489  1.9461 -1.3500
 3991TIP3    H211938   7.198   6.777   0.941 -1.3470 -0.9734  0.0769
 3992TIP3   OH211939   1.454   6.305   1.012  1.0266 -0.3092 -0.5894
 3992TIP3    H111940   1.370   6.326   0.972  1.3970  0.3344 -1.0344
 3992TIP3    H211941   1.519   6.332   0.947  1.5754 -0.8646 -0.2743
 3993TIP3   OH211942   1.646   5.229   4.659  0.2190 -0.4933 -0.1424
 3993TIP3    H111943   1.687   5.262   4.739 -1.7740  1.1177  0.2809
 3993TIP3    H211944   1.595   5.153   4.687 -0.5705  0.1390  0.1710
 3994TIP3   OH211945   4.379   5.344   2.588  0.1716  0.0276  0.4138
 3994TIP3    H111946   4.404   5.381   2.504 -2.2698 -0.0982 -0.4003
 3994TIP3    H211947   4.442   5.381   2.650  1.5085  0.7327 -1.3246
 3995TIP3   OH211948   0.466   5.752   2.663  0.5713  0.5173  0.0069
 3995TIP3    H111949   0.375   5.737   2.687  0.8733 -1.2351  0.0919
 3995TIP3    H211950   0.509   5.773   2.747  0.2727  1.2696 -0.0234
 3996TIP3   OH211951   0.916   3.442   4.074 -0.3743  0.6107 -0.3979
 3996TIP3    H111952   0.907   3.350   4.100  2.6286  0.1947 -0.7305
 3996TIP3    H211953   0.828   3.466   4.043 -0.8932 -2.5507 -1.5896
 3997TIP3   OH211954   6.766   2.407   3.211  0.3563 -0.0812  0.6986
 3997TIP3    H111955   6.844   2.364   3.247  1.3521  0.0429 -1.2412
 3997TIP3    H211956   6.800   2.484   3.166 -1.0450  0.7074  0.9808
 3998TIP3   OH211957   4.465   3.605   4.032  0.2459  0.0924  0.3400
 3998TIP3    H111958   4.481   3.652   4.114  0.9061 -0.6174  0.6182
 3998TIP3    H211959   4.510   3.656   3.965 -0.9492  1.1035  0.2986
 3999TIP3   OH211960   2.425   4.270   2.251 -0.3398  0.3862 -0.4376
 3999TIP3    H111961   2.494   4.316   2.203 -0.6823  1.1058 -0.2490
 3999TIP3    H211962   2.444   4.177   2.238  0.0843  0.5816 -1.2116
 4000TIP3   OH211963   1.054   4.253   1.879  0.0415  0.3612 -0.1575
 4000TIP3    H111964   1.056   4.212   1.965 -1.2172  1.0574  0.2129
 4000TIP3    H211965   0.961   4.258   1.856  0.3464  0.4020 -1.4514
 4001TIP3   OH211966   0.660   6.942   1.015  0.3877 -0.0466 -0.3594
 4001TIP3    H111967   0.665   7.035   1.034 -0.5037 -0.0651  0.0048
 4001TIP3    H211968   0.632   6.902   1.098  0.8885 -0.6542 -0.4719
 4002TIP3   OH211969   2.422   3.604   2.956 -0.2375  0.1928  0.5695
 4002TIP3    H111970   2.488   3.593   3.025  1.3166 -3.2410 -1.3594
 4002TIP3    H211971   2.363   3.529   2.967  0.7370 -1.0922 -2.5373
 4003TIP3   OH211972   7.257   6.162   4.924  0.2285 -0.4011 -0.1154
 4003TIP3    H111973   7.315   6.131   4.993  1.4318  1.2355 -0.3714
 4003TIP3    H211974   7.201   6.228   4.966 -0.5419 -0.9969 -0.1877
 4004TIP3   OH211975   3.956   0.599   2.844 -0.3503 -0.2689  0.1492
 4004TIP3    H111976   3.874   0.598   2.795 -0.4059  0.2767  0.2273
 4004TIP3    H211977   4.019   0.641   2.786 -0.5481  0.8777  0.7422
 4005TIP3   OH211978   4.400   0.175   2.990 -0.1369 -0.2541  0.1230
 4005TIP3    H111979   4.440   0.146   2.908  2.6839  0.0467  1.3348
 4005TIP3    H211980   4.374   0.094   3.034 -3.2185 -0.3591 -1.7572
 4006TIP3   OH211981   5.236   0.026   4.456  0.1995 -0.2439 -0.0222
 4006TIP3    H111982   5.211  -0.058   4.493  1.4414 -1.2373 -1.3767
 4006TIP3    H211983   5.159   0.057   4.409  0.2772 -1.4537 -0.9617
 4007TIP3   OH211984   4.589   6.685   2.855 -0.3270 -0.3466  0.3413
 4007TIP3    H111985   4.608   6.630   2.779 -1.7019  0.0456 -0.3042
 4007TIP3    H211986   4.497   6.669   2.874 -0.6613  1.4663  0.3515
 4008TIP3   OH211987   0.482   5.780   2.171  0.0188 -0.2660  0.1725
 4008TIP3    H111988   0.531   5.766   2.251  0.5218 -0.6776 -0.2035
 4008TIP3    H211989   0.540   5.749   2.101 -0.4762 -0.0666 -0.3355
 4009TIP3   OH211990   3.069   5.788   1.499  0.1383 -0.1425 -0.5413
 4009TIP3    H111991   3.045   5.821   1.586  0.4071 -0.0550 -0.4976
 4009TIP3    H211992   3.129   5.855   1.465  1.1132 -0.8486 -0.2372
 4010TIP3   OH211993   0.625   4.893   2.318  0.1379 -0.7800  0.3277
 4010TIP3    H111994   0.664   4.842   2.247  0.3957  1.0828 -0.9028
 4010TIP3    H211995   0.531   4.894   2.298 -0.0943 -2.1908  1.2914
 4011TIP3   OH211996   3.874   0.580   2.066 -0.0733 -0.2202 -0.0904
 4011TIP3    H111997   3.964   0.595   2.093  0.4501  0.5104 -2.1403
 4011TIP3    H211998   3.872   0.605   1.973 -2.9087  1.9580  0.4903
 4012TIP3   OH211999   2.240   6.544   2.236  0.5335 -0.3596  0.2443
 4012TIP3    H112000   2.238   6.602   2.312  1.8347  1.8656 -1.3608
 4012TIP3    H212001   2.257   6.457   2.272  1.9265  0.7951  2.4388
 4013TIP3   OH212002   1.995   4.858   2.921  0.1261 -0.0805  0.0282
 4013TIP3    H112003   1.988   4.867   3.016  1.0181  2.3472 -0.1081
 4013TIP3    H212004   1.905   4.867   2.889  0.2372  2.9965  0.3922
 4014TIP3   OH212005   3.188   5.323   2.554  0.1973 -0.6081 -0.5003
 4014TIP3    H112006   3.172   5.385   2.626 -1.6151 -1.7462  0.1158
 4014TIP3    H212007   3.206   5.379   2.478 -1.4357  0.6957  0.0335
 4015TIP3   OH212008   0.367   3.831   1.805 -0.1898  0.0037 -0.3737
 4015TIP3    H112009   0.354   3.885   1.883 -0.0270  0.8301 -0.9214
 4015TIP3    H212010   0.314   3.752   1.822  2.6512 -1.4700  2.1610
 4016TIP3   OH212011   2.171   4.661   3.420 -0.2999 -0.2242 -0.1173
 4016TIP3    H112012   2.134   4.720   3.486 -2.5007  1.1538 -2.4859
 4016TIP3    H212013   2.260   4.693   3.405 -0.2261  0.2177  1.2279
 4017TIP3   OH212014   2.042   4.833   4.621  0.1143  0.3322 -0.0712
 4017TIP3    H112015   2.006   4.834   4.532 -2.1421 -1.0721  0.7822
 4017TIP3    H212016   2.109   4.765   4.619 -2.4142 -2.2721  0.1598
 4018TIP3   OH212017   0.443   4.236   3.463 -0.1854 -0.3482  0.3122
 4018TIP3    H112018   0.446   4.182   3.542  1.4992  0.5469  0.9045
 4018TIP3    H212019   0.444   4.174   3.391 -2.5495 -1.2015  0.9835
 4019TIP3   OH212020   6.956   4.418   0.277 -0.3327 -0.1962  0.3378
 4019TIP3    H112021   6.909   4.491   0.317  0.6369  0.2019  0.7661
 4019TIP3    H212022   7.021   4.460   0.219  0.1395 -0.7082  0.4901
 4020TIP3   OH212023   1.134   5.262   1.199 -0.4280 -0.4087 -0.2853
 4020TIP3    H112024   1.062   5.249   1.260 -1.0307  0.6292 -0.7703
 4020TIP3    H212025   1.144   5.357   1.193  0.5014 -0.5279 -0.7842
 4021TIP3   OH212026   0.209   4.580   1.487 -0.0217 -0.4755  0.1073
 4021TIP3    H112027   0.132   4.524   1.493  0.4587 -0.9823  1.9755
 4021TIP3    H212028   0.276   4.533   1.537  1.2346  0.3936 -0.7320
 4022TIP3   OH212029   3.142   4.761   4.077 -0.1928 -0.6537 -0.0124
 4022TIP3    H112030   3.053   4.736   4.049 -0.0350 -0.1195 -1.0138
 4022TIP3    H212031   3.129   4.834   4.136 -0.4398 -0.7797  0.0921
 4023TIP3   OH212032   5.292   3.693   0.640 -0.1045 -0.4452 -0.4473
 4023TIP3    H112033   5.379   3.694   0.601 -0.2403  0.2244 -0.7323
 4023TIP3    H212034   5.306   3.720   0.731  0.0467 -0.8010 -0.3645
 4024TIP3   OH212035   1.336   4.271   3.018 -0.1775  0.2786  0.4835
 4024TIP3    H112036   1.386   4.344   3.056  0.0644  1.9520 -2.8265
 4024TIP3    H212037   1.396   4.197   3.022  1.1824  1.3248  0.0503
 4025TIP3   OH212038   1.412   0.648   1.209  0.0317 -0.2390 -0.6291
 4025TIP3    H112039   1.344   0.589   1.177  1.1971 -2.2889  0.5304
 4025TIP3    H212040   1.416   0.631   1.303  1.4335  0.5887 -0.5264
 4026TIP3   OH212041   2.851   0.277   0.674 -0.3417  0.5329 -0.1811
 4026TIP3    H112042   2.828   0.244   0.587 -0.6375  1.2192 -0.3622
 4026TIP3    H212043   2.831   0.370   0.671  0.9304  0.8313  0.1898
 4027TIP3   OH212044   2.205   6.215   3.905 -0.2754 -0.2001 -0.3087
 4027TIP3    H112045   2.160   6.171   3.977  0.7422  0.3888  0.7066
 4027TIP3    H212046   2.286   6.164   3.894 -0.3374 -0.1670 -0.9024
 4028TIP3   OH212047   2.963   5.117   3.741  0.4612  0.4692  0.1422
 4028TIP3    H112048   2.925   5.197   3.705  1.9471  0.7096 -0.9026
 4028TIP3    H212049   2.891   5.054   3.737  0.0499  1.0029 -1.5236
 4029TIP3   OH212050  -0.001   5.432   4.361 -0.0316  0.0721  0.1092
 4029TIP3    H112051  -0.004   5.478   4.277 -1.7132  0.2839  0.2676
 4029TIP3    H212052   0.009   5.502   4.426  1.0832 -0.0765  0.0986
 4030TIP3   OH212053   3.076   0.924   1.956  0.1562 -0.0582  0.1287
 4030TIP3    H112054   3.062   0.870   2.035 -0.6772  1.4687  1.0578
 4030TIP3    H212055   3.161   0.895   1.922  0.5977 -0.6412  1.6725
 4031TIP3   OH212056   2.235   4.360   3.585  0.1471 -0.0296 -0.0669
 4031TIP3    H112057   2.304   4.424   3.604  1.4922 -1.4679 -0.0197
 4031TIP3    H212058   2.254   4.330   3.496 -0.1035 -0.7954  0.1312
 4032TIP3   OH212059   1.224   5.115   3.351  0.3288  0.3916  0.2063
 4032TIP3    H112060   1.163   5.043   3.336  0.4767 -0.2838  2.5324
 4032TIP3    H212061   1.184   5.191   3.310 -1.2780 -0.4108  0.2790
 4033TIP3   OH212062   5.029   1.431   2.467  0.2067  0.3431 -0.0593
 4033TIP3    H112063   5.031   1.517   2.507 -0.2147 -0.5480  1.9495
 4033TIP3    H212064   5.110   1.389   2.495 -0.5316 -0.6275  0.6725
 4034TIP3   OH212065   0.024   0.663   4.092  0.4673 -0.3199 -0.4105
 4034TIP3    H112066   0.099   0.670   4.033  0.6332  1.1508 -0.0376
 4034TIP3    H212067  -0.035   0.601   4.048  0.4525  0.9576 -2.2678
 4035TIP3   OH212068   1.681   6.666   1.409  0.0130  0.2108  0.5760
 4035TIP3    H112069   1.590   6.675   1.379  0.4285  1.8633 -0.2230
 4035TIP3    H212070   1.705   6.753   1.438  1.0023 -0.4677  1.8350
 4036TIP3   OH212071   2.225   6.022   1.403 -0.1940 -0.2176 -0.1521
 4036TIP3    H112072   2.193   5.932   1.398  1.0084 -0.6414 -0.4656
 4036TIP3    H212073   2.320   6.013   1.411 -0.0246  1.0402 -0.6209
 4037TIP3   OH212074   5.340   1.019   0.408  0.0075  0.1007 -0.2687
 4037TIP3    H112075   5.352   0.925   0.420 -0.9860 -0.2630 -1.8629
 4037TIP3    H212076   5.385   1.038   0.325 -1.1713  0.7113 -0.7763
 4038TIP3   OH212077   1.828   6.485   2.912 -0.3500 -0.4654  0.3533
 4038TIP3    H112078   1.750   6.512   2.863 -0.3949  0.0335  0.6989
 4038TIP3    H212079   1.811   6.514   3.002  0.5716  0.3491  0.2663
 4039TIP3   OH212080   1.328   5.735   3.743  0.0480 -0.3794  0.0347
 4039TIP3    H112081   1.384   5.712   3.668 -0.3299  0.0540 -0.3877
 4039TIP3    H212082   1.303   5.651   3.780 -1.1047 -0.6593 -1.3383
 4040TIP3   OH212083   2.721   6.411   1.642  0.3086 -0.6955  0.0987
 4040TIP3    H112084   2.631   6.383   1.623 -0.0230 -0.6549  1.5686
 4040TIP3    H212085   2.775   6.335   1.619 -0.0793 -0.6478 -0.9807
 4041TIP3   OH212086   3.151   4.504   2.255 -0.0891  0.2330 -0.2652
 4041TIP3    H112087   3.080   4.452   2.292 -0.6057  0.5300 -0.8187
 4041TIP3    H212088   3.160   4.472   2.165 -0.6375  1.3016 -0.7152
 4042TIP3   OH212089   5.098   4.432   3.168  0.1678 -0.0207 -0.4315
 4042TIP3    H112090   5.126   4.343   3.147  1.0282 -0.2562  1.5840
 4042TIP3    H212091   5.116   4.482   3.089 -0.7224 -1.7096 -1.7346
 4043TIP3   OH212092   3.615   5.055   0.155 -0.1849 -0.2329  0.2178
 4043TIP3    H112093   3.658   4.996   0.217 -0.2038 -0.4344  0.0423
 4043TIP3    H212094   3.529   5.015   0.141 -1.6033  1.7651  2.8860
 4044TIP3   OH212095   6.817   0.855   2.017 -0.0606  0.3584 -0.1510
 4044TIP3    H112096   6.911   0.843   2.028  0.0576  0.2261 -1.2387
 4044TIP3    H212097   6.778   0.811   2.092  0.7562  0.6675  0.4593
 4045TIP3   OH212098   4.376   4.286   0.512 -0.1024  0.4863  0.0733
 4045TIP3    H112099   4.293   4.270   0.556  0.8393 -0.0497  1.6981
 4045TIP3    H212100   4.409   4.367   0.552  0.8714 -0.1375  0.5721
 4046TIP3   OH212101   4.167   6.173   3.393  0.2114 -0.3012 -0.2206
 4046TIP3    H112102   4.240   6.222   3.355  1.0012 -1.8530 -0.7692
 4046TIP3    H212103   4.196   6.150   3.481 -0.9800  1.9300  0.7852
 4047TIP3   OH212104   5.850   0.595   2.109 -0.5468 -0.2367 -0.0861
 4047TIP3    H112105   5.758   0.621   2.104 -0.0500  1.7628  0.8158
 4047TIP3    H212106   5.899   0.673   2.084  0.9121 -1.3417 -0.7532
 4048TIP3   OH212107   5.102   5.856   1.526 -0.5636 -0.2936 -0.2496
 4048TIP3    H112108   5.093   5.950   1.542 -0.2849 -0.1858 -0.7297
 4048TIP3    H212109   5.126   5.849   1.434 -0.8990 -0.8540 -0.2988
 4049TIP3   OH212110   1.441   5.629   2.865 -0.7868 -0.4584 -0.5820
 4049TIP3    H112111   1.473   5.699   2.808 -0.1482 -0.7599 -0.5956
 4049TIP3    H212112   1.499   5.555   2.848  0.6696  0.0528  1.8826
 4050TIP3   OH212113   5.215   1.015   2.736 -0.3533 -0.3725 -0.6041
 4050TIP3    H112114   5.293   1.006   2.791 -0.1756  3.5889 -0.0845
 4050TIP3    H212115   5.142   0.996   2.794  0.0508 -1.0266 -0.2979
 4051TIP3   OH212116   3.992   5.831   2.921 -0.0681  0.5710  0.3111
 4051TIP3    H112117   3.915   5.775   2.908  0.5177  0.1395 -1.3820
 4051TIP3    H212118   3.979   5.869   3.009 -1.1023 -1.1978  0.9455
 4052TIP3   OH212119   4.309   5.773   2.511  0.1221 -0.1268  0.5480
 4052TIP3    H112120   4.262   5.718   2.449 -1.8066  0.7675  1.1606
 4052TIP3    H212121   4.308   5.723   2.593  0.4437 -0.2003  0.5091
 4053TIP3   OH212122   3.844   5.942   3.163  0.5126  0.2185 -0.7615
 4053TIP3    H112123   3.824   6.035   3.159 -0.3454 -0.0104 -2.1272
 4053TIP3    H212124   3.913   5.935   3.229  0.5312  1.8021 -0.5967
 4054TIP3   OH212125   6.957   1.024   1.752 -0.4140  0.0387 -0.3626
 4054TIP3    H112126   6.920   1.102   1.794 -1.0211 -0.0832 -0.6631
 4054TIP3    H212127   6.901   1.009   1.675 -3.6467 -3.7696  2.4968
 4055TIP3   OH212128   2.912   5.366   2.683 -0.2208 -0.4727  0.0507
 4055TIP3    H112129   2.969   5.441   2.667 -0.0585 -0.2618  1.5350
 4055TIP3    H212130   2.876   5.381   2.770  0.1128 -2.3169  0.5373
 4056TIP3   OH212131   4.428   4.214   2.326 -0.2557  0.4577 -0.2512
 4056TIP3    H112132   4.335   4.210   2.351 -0.5504  0.2251 -1.3758
 4056TIP3    H212133   4.474   4.173   2.400 -0.9686  1.2980  0.6808
 4057TIP3   OH212134   3.498   5.530   1.724 -0.0483  0.1570  0.2853
 4057TIP3    H112135   3.504   5.483   1.641  1.1683  0.4520  0.1954
 4057TIP3    H212136   3.429   5.485   1.773 -0.6567 -0.1213 -0.8128
 4058TIP3   OH212137   3.179   6.321   2.526 -0.4462  0.2606 -0.0046
 4058TIP3    H112138   3.198   6.301   2.435 -1.0725  0.6404 -0.2179
 4058TIP3    H212139   3.263   6.348   2.563 -0.5379  1.8623 -0.9319
 4059TIP3   OH212140   4.031   5.996   3.809  0.0895 -0.1079 -0.1546
 4059TIP3    H112141   4.023   5.910   3.768  1.9183 -1.0588  1.3727
 4059TIP3    H212142   4.022   5.979   3.903 -1.4832  1.6561  0.0309
 4060TIP3   OH212143   5.740   6.388   2.496 -0.2673 -0.3669  0.5763
 4060TIP3    H112144   5.783   6.473   2.485  1.0940 -1.3918 -2.4230
 4060TIP3    H212145   5.659   6.409   2.543  1.4604  2.1493  2.6458
 4061TIP3   OH212146   5.543   0.441   1.605  0.4852  0.5532 -0.2625
 4061TIP3    H112147   5.599   0.486   1.542  3.3783 -1.3882  0.8069
 4061TIP3    H212148   5.574   0.471   1.690 -2.7968  2.4724  0.3355
 4062TIP3   OH212149   4.174   3.881   0.737  0.2613 -0.1236  0.6093
 4062TIP3    H112150   4.253   3.839   0.770  1.4849  0.1986 -1.7986
 4062TIP3    H212151   4.118   3.809   0.710  0.7633 -0.2970  0.0268
 4063TIP3   OH212152   3.119   6.127   1.693  0.2166  0.0850 -0.6175
 4063TIP3    H112153   3.103   6.051   1.749 -2.7766  1.0276 -0.0955
 4063TIP3    H212154   3.064   6.113   1.616  1.4312  0.6014 -1.5913
 4064TIP3   OH212155   1.644   4.016   1.532 -0.3138 -0.0630 -0.1535
 4064TIP3    H112156   1.688   4.059   1.605  0.0226  1.1755 -1.0552
 4064TIP3    H212157   1.643   3.924   1.555  0.7975  0.1759  0.8983
 4065TIP3   OH212158   5.826   5.741   1.079 -0.5602  0.2550 -0.0644
 4065TIP3    H112159   5.846   5.648   1.066 -1.1308  0.1691 -0.3548
 4065TIP3    H212160   5.736   5.750   1.048 -0.5857  0.8581  0.1853
 4066TIP3   OH212161   6.487   1.220   3.092  0.0991 -0.0168 -0.2705
 4066TIP3    H112162   6.568   1.203   3.141  1.5471  0.8575 -2.2589
 4066TIP3    H212163   6.430   1.265   3.154  1.6451  0.5362  0.7882
 4067TIP3   OH212164   1.188   6.078   2.183 -0.3291  0.1428 -0.6765
 4067TIP3    H112165   1.126   6.143   2.149 -1.1803 -1.9803 -3.3751
 4067TIP3    H212166   1.133   6.009   2.219  0.5121 -0.2840 -0.1901
 4068TIP3   OH212167   2.445   6.693   1.970  0.2054 -0.0368  0.1945
 4068TIP3    H112168   2.445   6.671   1.877 -0.8624  1.8706 -0.2747
 4068TIP3    H212169   2.362   6.658   2.002 -1.2410  2.6676 -0.4364
 4069TIP3   OH212170   1.354   6.802   3.046 -0.0987 -0.1492  0.2373
 4069TIP3    H112171   1.261   6.825   3.043 -0.2251 -0.7306 -0.1500
 4069TIP3    H212172   1.373   6.796   3.140 -0.0374  1.6324  0.3709
 4070TIP3   OH212173   1.748   2.584   5.098 -0.5927 -0.4488 -0.2047
 4070TIP3    H112174   1.757   2.659   5.156  3.4711  1.5684 -3.2131
 4070TIP3    H212175   1.688   2.612   5.030  0.6227 -0.0266 -1.1173
 4071TIP3   OH212176   6.600   0.837   4.680  0.3391  0.2229  0.0239
 4071TIP3    H112177   6.520   0.882   4.655  1.4818  2.3379  0.1198
 4071TIP3    H212178   6.661   0.853   4.608  1.0334 -0.4391  0.4553
 4072TIP3   OH212179   2.609   6.660   2.240 -0.1887 -0.8018 -0.0911
 4072TIP3    H112180   2.633   6.578   2.196 -0.7783 -1.7590  1.3256
 4072TIP3    H212181   2.621   6.641   2.333  1.3128  1.2676  0.1676
 4073TIP3   OH212182   3.358   5.745   3.583  0.2444  0.4803 -0.2942
 4073TIP3    H112183   3.379   5.788   3.499  0.0029 -1.2897 -1.2835
 4073TIP3    H212184   3.403   5.661   3.578 -2.6227 -1.1041 -0.1215
 4074TIP3   OH212185   3.754   5.586   1.312  0.1011  0.3874 -0.3639
 4074TIP3    H112186   3.679   5.643   1.330 -0.2790 -0.7054  1.6201
 4074TIP3    H212187   3.716   5.506   1.276  0.4211  0.3383 -0.5991
 4075TIP3   OH212188   3.115   5.043   1.305 -0.1383  0.4746 -0.6183
 4075TIP3    H112189   3.129   4.967   1.247 -1.3857  0.0966 -0.4411
 4075TIP3    H212190   3.039   5.018   1.358  0.7132  1.0119  0.8695
 4076TIP3   OH212191   2.111   0.918   5.553 -0.0356  0.5866 -0.6067
 4076TIP3    H112192   2.109   1.008   5.585  0.1676 -0.0334  1.1826
 4076TIP3    H212193   2.200   0.887   5.573 -0.1987 -0.1232 -0.9411
 4077TIP3   OH212194   2.168   6.514   1.763  0.5618  0.0588  0.3758
 4077TIP3    H112195   2.117   6.561   1.697  0.9901  0.8964  0.6229
 4077TIP3    H212196   2.253   6.498   1.720  0.7064  0.2677  0.5789
 4078TIP3   OH212197   4.785   5.560   0.599  0.8894 -0.1247 -0.7114
 4078TIP3    H112198   4.797   5.470   0.568  0.5714 -0.2404 -0.5005
 4078TIP3    H212199   4.760   5.609   0.520 -1.0702 -0.6471 -0.4347
 4079TIP3   OH212200   1.510   5.809   3.941  0.3192 -0.5952 -0.3815
 4079TIP3    H112201   1.429   5.830   3.894  0.3470  0.0021 -0.1741
 4079TIP3    H212202   1.525   5.716   3.923  0.5558 -0.2774 -1.8769
 4080TIP3   OH212203   5.976   0.622   3.400 -0.1301 -0.5202 -0.2887
 4080TIP3    H112204   6.031   0.594   3.327  0.5207  2.2157 -0.9083
 4080TIP3    H212205   6.019   0.701   3.433 -0.2300 -1.8855  3.2988
 4081TIP3   OH212206   4.754   5.855   1.398  0.0077 -0.1636  0.0901
 4081TIP3    H112207   4.733   5.776   1.447  2.4071 -0.7666  0.1588
 4081TIP3    H212208   4.754   5.827   1.306  2.2745 -0.5981  0.2008
 4082TIP3   OH212209   5.117   5.563   2.396  0.0055  0.2246  0.4801
 4082TIP3    H112210   5.040   5.621   2.395 -0.2388 -0.0688  1.6433
 4082TIP3    H212211   5.126   5.534   2.305 -0.4512  1.3220  0.0724
 4083TIP3   OH212212   5.463   0.758   0.416  0.3320 -0.1288  0.0508
 4083TIP3    H112213   5.530   0.704   0.375  2.7403  1.6085  1.5753
 4083TIP3    H212214   5.509   0.804   0.487 -2.4440  1.1834  1.0724
 4084TIP3   OH212215   2.987   5.628   3.172  0.1559  0.0398  0.0832
 4084TIP3    H112216   2.924   5.637   3.100  1.2992 -0.3819 -0.9798
 4084TIP3    H212217   2.968   5.543   3.211 -0.1965  0.0934  0.0293
 4085TIP3   OH212218   3.740   5.184   3.185  0.2724 -0.1818  0.1930
 4085TIP3    H112219   3.760   5.217   3.098 -0.2442  1.0482  0.5300
 4085TIP3    H212220   3.646   5.164   3.182  0.5847 -1.6667 -0.0171
 4086TIP3   OH212221   3.625   0.053   2.471  0.0289  0.4428 -0.2366
 4086TIP3    H112222   3.598  -0.038   2.484  0.4736  0.3027 -0.2796
 4086TIP3    H212223   3.643   0.085   2.559 -1.0819  0.7956 -0.1242
 4087TIP3   OH212224   4.849   6.975   3.036  0.0663 -0.5782  0.4216
 4087TIP3    H112225   4.802   6.899   3.070 -1.3401  0.2250  0.3486
 4087TIP3    H212226   4.834   6.973   2.941  1.7702 -1.3569  0.1616
 4088TIP3   OH212227   5.257   0.737   4.789 -0.1994 -0.1261 -0.2252
 4088TIP3    H112228   5.280   0.655   4.746  0.0270  1.3032 -2.9286
 4088TIP3    H212229   5.173   0.761   4.751 -0.6047  0.5396  1.0745
 4089TIP3   OH212230   4.424   6.015   2.774  0.2253 -0.6793 -0.3626
 4089TIP3    H112231   4.438   5.974   2.859  1.3519 -0.6590 -0.5323
 4089TIP3    H212232   4.338   5.983   2.746 -0.4374 -0.1573  1.0713
 4090TIP3   OH212233   0.693   6.030   2.374 -0.1027  0.1583  0.5144
 4090TIP3    H112234   0.630   6.056   2.307  0.2338  2.5968  1.0806
 4090TIP3    H212235   0.726   6.113   2.409  4.0614 -0.9938 -0.3676
 4091TIP3   OH212236   4.027   5.557   2.129 -0.0924 -0.3166  0.0648
 4091TIP3    H112237   4.105   5.509   2.102  0.4933  0.0430  1.0671
 4091TIP3    H212238   3.977   5.570   2.049  0.0822 -1.9815 -0.3166
 4092TIP3   OH212239   5.804   0.439   0.430  0.4649  0.5810 -0.2537
 4092TIP3    H112240   5.834   0.497   0.500  0.5180 -0.4575  0.5845
 4092TIP3    H212241   5.825   0.351   0.460 -0.6060  0.0419 -1.0295
 4093TIP3   OH212242   4.601   5.915   0.455  0.1449  0.1822  0.3625
 4093TIP3    H112243   4.612   6.004   0.421  1.0089 -0.3187 -0.6997
 4093TIP3    H212244   4.683   5.871   0.433  0.1759 -0.5505  1.9144
 4094TIP3   OH212245   1.779   4.430   1.426  0.0762  0.0477 -0.2034
 4094TIP3    H112246   1.799   4.504   1.483  0.6480  0.1513 -0.5417
 4094TIP3    H212247   1.864   4.398   1.397 -0.1916 -0.4039 -0.4899
 4095TIP3   OH212248   3.633   4.421   1.556 -0.3764 -0.1267 -0.3332
 4095TIP3    H112249   3.584   4.341   1.537 -0.1781 -0.3868  0.2503
 4095TIP3    H212250   3.574   4.472   1.611 -0.4619  0.0842 -0.6199
 4096TIP3   OH212251   3.900   5.648   1.917 -0.4576 -0.2880  0.3014
 4096TIP3    H112252   3.928   5.734   1.886 -0.5356 -0.0288  0.9231
 4096TIP3    H212253   3.874   5.601   1.839 -1.6048  0.6967  0.0757
 4097TIP3   OH212254   2.449   5.892   2.514  0.0252  0.2897  0.1261
 4097TIP3    H112255   2.515   5.955   2.543 -0.4912  0.3566  1.1598
 4097TIP3    H212256   2.451   5.898   2.419  2.6823 -0.8797  0.0514
 4098TIP3   OH212257   5.900   0.437   2.840  0.1705 -0.2357  0.3067
 4098TIP3    H112258   5.984   0.475   2.865  0.6430 -1.7136  0.9824
 4098TIP3    H212259   5.892   0.358   2.893 -1.2955 -0.5172 -0.3072
 4099TIP3   OH212260   3.133   5.259   4.746 -0.4893 -0.4427 -1.2978
 4099TIP3    H112261   3.060   5.319   4.762  0.1239 -0.2246  0.9275
 4099TIP3    H212262   3.211   5.312   4.762  0.0530 -2.0307  1.6578
 4100TIP3   OH212263   6.473   0.869   1.268 -0.3106  0.7719  0.2092
 4100TIP3    H112264   6.480   0.953   1.315 -0.1871  0.5716  0.5473
 4100TIP3    H212265   6.522   0.807   1.323 -0.8621  0.3611  0.2322
 4101TIP3   OH212266   3.867   5.915   1.789  0.0662 -0.1639 -0.0914
 4101TIP3    H112267   3.891   5.896   1.698  2.8810  0.6250  0.4283
 4101TIP3    H212268   3.785   5.964   1.783 -0.2899 -0.9628 -2.1282
 4102TIP3   OH212269   4.626   6.267   4.092 -0.0870 -0.2516  0.0809
 4102TIP3    H112270   4.602   6.193   4.147  3.0935 -2.3771 -1.2500
 4102TIP3    H212271   4.692   6.315   4.142 -2.3053  1.8866  1.0380
 4103TIP3   OH212272   4.051   6.832   2.486 -0.2552  0.2247  0.0002
 4103TIP3    H112273   4.060   6.767   2.415  0.7609  0.5059 -0.1365
 4103TIP3    H212274   4.081   6.914   2.447 -0.7889  0.6198  0.4145
 4104TIP3   OH212275   3.643   4.608   1.165 -0.0587 -0.3788  0.2622
 4104TIP3    H112276   3.615   4.680   1.109  1.7759  0.2030  0.0658
 4104TIP3    H212277   3.638   4.531   1.109  2.4907  0.3074 -1.0078
 4105TIP3   OH212278   2.779   5.584   1.633 -0.0615 -0.0694  0.7355
 4105TIP3    H112279   2.687   5.557   1.640 -0.1082 -0.4625 -1.2580
 4105TIP3    H212280   2.776   5.680   1.635 -0.5928 -0.0638 -0.1308
 4106TIP3   OH212281   3.120   1.293   2.229  0.2027  0.6350 -0.6471
 4106TIP3    H112282   3.092   1.266   2.142 -1.2850  2.2597 -0.7012
 4106TIP3    H212283   3.154   1.382   2.217 -0.7513  1.1824  0.5177
 4107TIP3   OH212284   3.398   4.678   2.465 -0.8058 -0.2111 -0.5038
 4107TIP3    H112285   3.355   4.702   2.383 -1.5437 -1.7982 -0.5920
 4107TIP3    H212286   3.424   4.587   2.453  0.7536  0.1117  0.3385
 4108TIP3   OH212287   2.657   6.605   1.442 -0.0299  0.3087 -0.0487
 4108TIP3    H112288   2.628   6.546   1.512 -1.8580 -0.3363 -1.3026
 4108TIP3    H212289   2.661   6.691   1.484 -3.7277  0.4003  0.2736
 4109TIP3   OH212290   4.765   6.321   2.372 -0.3046  0.1175 -0.0160
 4109TIP3    H112291   4.687   6.294   2.322 -0.3869 -0.2954  0.3348
 4109TIP3    H212292   4.839   6.284   2.324 -0.1942  1.9749 -1.3340
 4110TIP3   OH212293   4.952   2.259   2.147  0.1882 -0.2229 -0.3643
 4110TIP3    H112294   4.976   2.245   2.239 -0.8733  0.3840  0.0050
 4110TIP3    H212295   4.857   2.255   2.146  0.2604 -2.7420 -1.8499
 4111TIP3   OH212296   1.967   6.547   4.070  0.2071 -0.0880  0.1919
 4111TIP3    H112297   1.874   6.569   4.071  0.2909  0.3632 -1.0014
 4111TIP3    H212298   2.012   6.630   4.084  0.4544 -0.0564 -0.7673
 4112TIP3   OH212299   1.215   6.108   1.270 -0.4846  0.3754  0.3525
 4112TIP3    H112300   1.175   6.168   1.332 -1.0369  1.3781 -0.9663
 4112TIP3    H212301   1.294   6.154   1.240 -0.6151  0.2053 -0.2477
 4113TIP3   OH212302   2.771   6.048   3.127  0.2398  0.1078  0.3404
 4113TIP3    H112303   2.758   6.142   3.116 -0.0932  0.1757  1.2862
 4113TIP3    H212304   2.789   6.037   3.220 -0.0620 -0.8027  0.2965
 4114TIP3   OH212305   0.243   0.221   1.659  0.2261 -0.4202  0.2545
 4114TIP3    H112306   0.310   0.257   1.601  0.5785 -0.7685  0.4436
 4114TIP3    H212307   0.194   0.161   1.602 -0.4709  0.4799 -0.1037
 4115TIP3   OH212308   5.342   6.339   3.988 -0.0624  0.2357  0.2274
 4115TIP3    H112309   5.270   6.335   3.926  0.1928  1.0778 -0.1229
 4115TIP3    H212310   5.351   6.431   4.010  0.7619  0.1132  0.4514
 4116TIP3   OH212311   4.741   3.653   2.339  0.3503  0.4705  0.5441
 4116TIP3    H112312   4.721   3.659   2.433  1.8715  0.6476  0.8645
 4116TIP3    H212313   4.799   3.578   2.331  0.9177  0.9730 -0.1362
 4117TIP3   OH212314   4.903   5.711   2.503 -0.5313 -0.0152  0.1724
 4117TIP3    H112315   4.814   5.682   2.522 -0.8765 -0.0623 -1.4815
 4117TIP3    H212316   4.909   5.798   2.542 -1.1087 -0.2402  0.7792
 4118TIP3   OH212317   4.463   5.602   1.107  0.4623 -0.1151  0.2196
 4118TIP3    H112318   4.536   5.546   1.079  0.0459 -1.5137  1.8317
 4118TIP3    H212319   4.385   5.547   1.095 -0.5650  1.9117 -3.0073
 4119TIP3   OH212320   4.029   6.384   0.341  0.0770 -0.0506 -0.4386
 4119TIP3    H112321   4.069   6.298   0.326 -0.4601 -0.4535  0.3789
 4119TIP3    H212322   3.940   6.376   0.306 -0.1794 -0.0335  0.1931
 4120TIP3   OH212323   3.347   6.037   1.331  0.6450 -0.0399 -0.2894
 4120TIP3    H112324   3.349   5.956   1.279  2.6784 -0.0881 -0.1846
 4120TIP3    H212325   3.270   6.084   1.300  0.4789 -1.1808 -1.6569
 4121TIP3   OH212326   1.314   5.103   4.051  0.4312 -0.5025 -0.5293
 4121TIP3    H112327   1.356   5.126   4.134  1.3077 -5.5859  0.5740
 4121TIP3    H212328   1.221   5.094   4.073  0.4878 -0.6986 -0.3705
 4122TIP3   OH212329   6.053   0.819   4.649  0.4103  0.2513 -0.1092
 4122TIP3    H112330   6.112   0.874   4.701  0.0113  0.0839  0.5331
 4122TIP3    H212331   5.968   0.864   4.654 -0.4495 -1.4979  2.2218
 4123TIP3   OH212332   1.047   0.225   1.366 -0.1216  0.3398  0.0983
 4123TIP3    H112333   1.110   0.176   1.313 -0.8904 -0.4875 -0.0452
 4123TIP3    H212334   1.019   0.163   1.433  0.5607  1.2672  1.2526
 4124TIP3   OH212335   4.001   2.702   1.908  0.0522  0.2647 -0.1807
 4124TIP3    H112336   3.914   2.705   1.947 -1.3008  1.1387 -3.0840
 4124TIP3    H212337   3.998   2.627   1.848  1.4592 -0.0133  0.0864
 4125TIP3   OH212338   6.202   3.416   0.981 -0.3546  0.2471  0.3919
 4125TIP3    H112339   6.219   3.432   1.074 -1.3770  2.0835  0.2904
 4125TIP3    H212340   6.126   3.470   0.961  0.2316  0.3578 -1.6692
 4126TIP3   OH212341   0.404   2.288   2.009  0.1345 -0.2888  0.6776
 4126TIP3    H112342   0.457   2.209   2.015 -2.2028 -1.7603  3.5744
 4126TIP3    H212343   0.459   2.357   2.046  1.4231 -0.9901  0.0975
 4127TIP3   OH212344   4.669   6.448   3.539 -0.0640 -0.0171 -0.0921
 4127TIP3    H112345   4.709   6.379   3.592  2.1870  0.6363 -0.8704
 4127TIP3    H212346   4.685   6.420   3.449 -2.3471 -0.2630 -0.4286
 4128TIP3   OH212347   2.957   6.094   1.475 -0.0613  0.5876 -0.0123
 4128TIP3    H112348   2.865   6.114   1.458 -0.4297 -2.9174 -2.8244
 4128TIP3    H212349   3.004   6.139   1.405  0.1270  0.2844 -0.0788
 4129TIP3   OH212350   2.551   5.719   0.639  0.2663  0.3069  0.4629
 4129TIP3    H112351   2.586   5.635   0.669 -1.4735 -0.2546  0.9986
 4129TIP3    H212352   2.591   5.784   0.696  0.7152 -0.2746  0.8160
 4130TIP3   OH212353   2.293   6.551   0.756 -0.2021 -0.0413  0.1740
 4130TIP3    H112354   2.255   6.605   0.687 -1.5451 -0.3925  0.6074
 4130TIP3    H212355   2.380   6.587   0.771 -1.3351  2.4677  0.9442
 4131TIP3   OH212356   4.803   1.047   4.652  0.4589  0.2650 -0.2588
 4131TIP3    H112357   4.832   0.984   4.718  1.4881  2.2027  1.1973
 4131TIP3    H212358   4.710   1.028   4.641  0.2588 -0.1225  1.7530
 4132TIP3   OH212359   1.449   4.515   2.479  0.6357 -0.2056 -0.0721
 4132TIP3    H112360   1.373   4.458   2.473 -0.1221  0.7674  0.2251
 4132TIP3    H212361   1.509   4.469   2.538 -0.2831 -0.3610  0.7513
 4133TIP3   OH212362   7.202   0.780   2.424  0.1167 -0.5678  0.3369
 4133TIP3    H112363   7.168   0.764   2.512 -1.2274 -0.0011 -0.0588
 4133TIP3    H212364   7.297   0.774   2.433 -0.0399 -1.1175  1.7014
 4134TIP3   OH212365   1.007   2.531   5.448 -0.0375 -0.1325 -0.0070
 4134TIP3    H112366   1.031   2.451   5.402 -2.5791 -0.3756 -0.9826
 4134TIP3    H212367   0.990   2.504   5.538  0.6429 -0.3976  0.0463
 4135TIP3   OH212368   7.068   0.252   0.449 -0.2433  0.5635 -0.3706
 4135TIP3    H112369   7.014   0.330   0.457  0.0834  0.6539  1.0867
 4135TIP3    H212370   7.008   0.179   0.462 -0.3469  0.6027 -0.6237
 4136TIP3   OH212371   3.662   6.113   3.575 -0.8331  0.2805  0.0353
 4136TIP3    H112372   3.680   6.138   3.485 -0.8045 -0.0580 -0.0535
 4136TIP3    H212373   3.677   6.019   3.578 -0.9387  0.2708  0.3678
 4137TIP3   OH212374   3.224   5.878   3.805  0.0427 -0.3701  0.1557
 4137TIP3    H112375   3.261   5.948   3.751 -1.4825 -0.2195 -0.6991
 4137TIP3    H212376   3.237   5.799   3.753  0.3564 -0.5081  0.4409
 4138TIP3   OH212377   0.946   2.612   5.884 -0.7458  0.4554  0.0612
 4138TIP3    H112378   0.973   2.556   5.812  1.8849  1.3805  0.2744
 4138TIP3    H212379   0.945   2.700   5.847 -1.6066  0.6664  0.5715
 4139TIP3   OH212380   6.281   1.848   2.582  0.2632  0.5521 -0.5716
 4139TIP3    H112381   6.356   1.824   2.636  0.7252  0.7028 -1.1318
 4139TIP3    H212382   6.246   1.765   2.550  0.4779  0.5084 -0.6908
 4140TIP3   OH212383   2.699   5.762   2.142  0.0462  0.7421 -0.3688
 4140TIP3    H112384   2.740   5.728   2.222 -0.6601 -0.7422 -0.6168
 4140TIP3    H212385   2.639   5.830   2.173 -0.4469 -0.0302  0.4064
 4141TIP3   OH212386   2.592   6.832   1.573 -0.3524 -0.4529  0.4385
 4141TIP3    H112387   2.657   6.868   1.634  0.5135 -1.2219 -0.0118
 4141TIP3    H212388   2.529   6.903   1.560  0.4513  0.3368  0.8063
 4142TIP3   OH212389   1.430   4.968   1.175 -0.2438 -0.0002  0.1383
 4142TIP3    H112390   1.519   5.005   1.176 -0.8115  1.3806  1.2230
 4142TIP3    H212391   1.430   4.904   1.247  0.0501 -0.4405 -0.2513
 4143TIP3   OH212392   2.598   5.097   1.165 -0.3194  0.1923  0.1852
 4143TIP3    H112393   2.615   5.004   1.179 -1.2570 -0.1157 -0.7191
 4143TIP3    H212394   2.671   5.141   1.208 -1.0335 -0.8704  2.6118
 4144TIP3   OH212395   5.811   0.569   2.427 -0.7700 -0.1931 -0.3529
 4144TIP3    H112396   5.797   0.562   2.521 -0.1564 -1.4878 -0.3515
 4144TIP3    H212397   5.878   0.637   2.418 -0.6268 -0.2616  0.1623
 4145TIP3   OH212398   4.912   0.684   4.218  0.2834 -0.5322  0.2472
 4145TIP3    H112399   4.836   0.741   4.224 -1.4171 -2.8828  2.7916
 4145TIP3    H212400   4.985   0.737   4.250 -0.5945  1.2409 -0.6555
 4146TIP3   OH212401   0.702   3.372   5.709  0.4322 -1.0094 -0.1677
 4146TIP3    H112402   0.708   3.352   5.802  2.2041 -0.6304 -0.1942
 4146TIP3    H212403   0.654   3.298   5.671 -0.4412 -1.0785  1.0584
 4147TIP3   OH212404   1.548   3.283   0.668 -0.0356 -0.1967  0.0047
 4147TIP3    H112405   1.582   3.210   0.616  1.1825  0.8158 -0.6742
 4147TIP3    H212406   1.625   3.320   0.711 -0.3687  1.6618 -0.9334
 4148TIP3   OH212407   4.888   1.988   0.584 -0.2330 -0.4677  0.3398
 4148TIP3    H112408   4.888   2.030   0.670 -2.8385 -0.6686  0.4993
 4148TIP3    H212409   4.916   2.056   0.524 -0.0067  0.1702  1.1611
 4149TIP3   OH212410   5.581   2.496   5.173 -0.0355  0.2856 -0.7114
 4149TIP3    H112411   5.562   2.590   5.173  1.0927  0.5367 -1.4071
 4149TIP3    H212412   5.616   2.478   5.260 -0.3028  0.5024 -0.5591
 4150TIP3   OH212413   6.868   4.754   2.255  0.0860 -0.2175 -0.3777
 4150TIP3    H112414   6.870   4.810   2.332 -0.0638  2.2293 -2.1129
 4150TIP3    H212415   6.786   4.776   2.211  0.6273 -0.8936 -1.7585
 4151TIP3   OH212416   5.691   0.529   2.667 -0.3448 -0.0832 -0.1891
 4151TIP3    H112417   5.741   0.574   2.736  1.9759 -0.8477 -1.3143
 4151TIP3    H212418   5.681   0.440   2.700  0.9822 -0.5156 -0.9150
 4152TIP3   OH212419   4.024   1.044   0.806  0.3817  0.1061  0.1821
 4152TIP3    H112420   4.091   1.044   0.874  0.1627  0.8458  0.4034
 4152TIP3    H212421   4.057   1.105   0.739 -0.9573  1.9824  1.1937
 4153TIP3   OH212422   0.735   1.899   5.613 -0.2779 -0.1350  0.4003
 4153TIP3    H112423   0.651   1.886   5.657 -0.1168  0.0902  0.7696
 4153TIP3    H212424   0.775   1.812   5.613 -0.5156 -0.2458  0.2129
 4154TIP3   OH212425   6.540   6.815   1.069 -0.6492  0.2120  0.2685
 4154TIP3    H112426   6.523   6.908   1.051 -1.2852 -0.5924 -3.5641
 4154TIP3    H212427   6.455   6.773   1.057  0.6705 -1.5835 -3.3492
 4155TIP3   OH212428   4.400   4.515   3.303 -0.1509 -0.0445  0.2104
 4155TIP3    H112429   4.409   4.609   3.284 -0.1932  0.3313  1.9242
 4155TIP3    H212430   4.483   4.491   3.345 -0.7937 -0.3419  1.3532
 4156TIP3   OH212431   1.990   5.709   2.657  0.2662 -0.2953 -0.0489
 4156TIP3    H112432   2.075   5.670   2.678 -0.3183 -1.8015 -0.4357
 4156TIP3    H212433   1.961   5.663   2.578 -0.2432  1.2374 -0.7760
 4157TIP3   OH212434   1.613   5.837   2.493  0.2094 -0.1831  0.6297
 4157TIP3    H112435   1.640   5.892   2.419  1.5155 -0.6153  0.7700
 4157TIP3    H212436   1.620   5.748   2.460  1.4475 -0.4090  1.4620
 4158TIP3   OH212437   7.425   0.289   3.339  0.4389 -0.1273 -0.2564
 4158TIP3    H112438   7.332   0.274   3.357  0.8026 -2.0457  0.1926
 4158TIP3    H212439   7.433   0.275   3.244  0.8296 -3.4760  0.1941
 4159TIP3   OH212440   4.112   0.796   1.632  0.0498 -0.6173 -0.4127
 4159TIP3    H112441   4.104   0.891   1.627  2.5510 -0.3324  0.4237
 4159TIP3    H212442   4.049   0.771   1.699 -1.1515  0.3538 -1.1522
 4160TIP3   OH212443   5.343   6.319   0.907  0.3652 -0.3856  0.0670
 4160TIP3    H112444   5.394   6.315   0.988  0.1081  1.3351  0.3496
 4160TIP3    H212445   5.394   6.269   0.844  0.5153 -1.8327  1.3228
 4161TIP3   OH212446   5.511   0.871   1.174 -0.1635  0.4508  0.5736
 4161TIP3    H112447   5.517   0.947   1.233  2.0680 -0.7589  1.9766
 4161TIP3    H212448   5.418   0.848   1.175 -0.3576  1.1914  2.7307
 4162TIP3   OH212449   7.332   1.221   2.859 -1.1436 -0.5814  0.0457
 4162TIP3    H112450   7.333   1.221   2.954 -1.9651 -1.8773  0.0625
 4162TIP3    H212451   7.244   1.249   2.835 -0.6863  0.5686 -0.3544
 4163TIP3   OH212452   3.609   4.652   0.666 -0.0204 -0.3074  0.6246
 4163TIP3    H112453   3.560   4.630   0.746  1.1787 -0.0045  1.4604
 4163TIP3    H212454   3.574   4.736   0.639  1.3388  0.8511  2.3253
 4164TIP3   OH212455   5.346   0.232   4.624 -0.2157  0.1472 -0.2309
 4164TIP3    H112456   5.316   0.205   4.711  1.3689  0.6422  0.4741
 4164TIP3    H212457   5.314   0.163   4.565 -2.4478  0.4913  0.5359
 4165TIP3   OH212458   5.607   1.208   2.618  0.1436  0.0982  0.0668
 4165TIP3    H112459   5.567   1.237   2.699  0.3336  0.8575 -0.1037
 4165TIP3    H212460   5.607   1.286   2.562  0.0369 -0.4083 -0.6485
 4166TIP3   OH212461   4.407   5.098   3.265 -0.3553 -0.0326  0.4381
 4166TIP3    H112462   4.395   5.028   3.201  0.4228 -1.8586  2.2231
 4166TIP3    H212463   4.330   5.154   3.255  0.4659  0.5373 -3.0646
 4167TIP3   OH212464   2.439   5.686   2.872 -0.1039 -0.0376 -0.5335
 4167TIP3    H112465   2.477   5.759   2.922  1.4481 -0.0811 -1.6267
 4167TIP3    H212466   2.401   5.629   2.939 -0.6821  1.3820  0.3905
 4168TIP3   OH212467   3.644   0.129   1.459 -0.0188 -0.0302  0.4434
 4168TIP3    H112468   3.590   0.174   1.523  1.1202 -2.6063  3.3300
 4168TIP3    H212469   3.612   0.039   1.459  2.6391 -1.0238  0.4279
 4169TIP3   OH212470   2.727   5.779   3.303  0.3174  0.2213 -0.4048
 4169TIP3    H112471   2.746   5.843   3.234 -2.3038  0.0299 -1.3709
 4169TIP3    H212472   2.730   5.694   3.258  0.9101 -0.1117  0.2492
 4170TIP3   OH212473   1.401   2.516   4.435 -0.1461 -0.0593 -0.3395
 4170TIP3    H112474   1.435   2.534   4.348 -2.3384 -0.9926 -1.4196
 4170TIP3    H212475   1.448   2.437   4.463  0.6028  0.2752 -0.6246
 4171TIP3   OH212476   3.178   0.114   2.313 -0.1378 -0.0319 -0.6814
 4171TIP3    H112477   3.094   0.124   2.359  0.8513 -0.0775  1.2074
 4171TIP3    H212478   3.172   0.030   2.269 -0.7291 -0.4687  0.2216
 4172TIP3   OH212479   3.846   5.282   1.889  0.0699  0.1655  0.3428
 4172TIP3    H112480   3.843   5.350   1.822  0.1946  0.4722  0.6486
 4172TIP3    H212481   3.799   5.319   1.963  0.2239 -0.0421  0.5436
 4173TIP3   OH212482   4.104   0.986   3.142 -0.0222 -0.5624  0.0571
 4173TIP3    H112483   4.092   1.060   3.201 -0.8875 -0.6797  0.0281
 4173TIP3    H212484   4.099   0.909   3.198  0.2088 -0.6303 -0.0136
 4174TIP3   OH212485   1.371   4.541   5.006  0.3158 -0.4515  0.6396
 4174TIP3    H112486   1.280   4.514   5.000  1.0101 -2.4142 -1.9750
 4174TIP3    H212487   1.367   4.637   5.004 -1.7051 -0.5044  1.0226
 4175TIP3   OH212488   4.576   5.189   3.737 -0.1714  0.6618 -0.1482
 4175TIP3    H112489   4.646   5.203   3.674 -0.4792  0.6212 -0.5003
 4175TIP3    H212490   4.496   5.205   3.687 -0.4130  0.6712  0.2424
 4176TIP3   OH212491   1.682   6.824   2.399  0.2996 -0.6460  0.2140
 4176TIP3    H112492   1.689   6.728   2.398 -2.8244 -0.9716  2.0019
 4176TIP3    H212493   1.602   6.842   2.350 -0.6959  0.8215  2.3275
 4177TIP3   OH212494   1.915   5.460   2.507 -0.7915 -0.2076 -0.2566
 4177TIP3    H112495   1.917   5.365   2.496 -1.1374 -0.2490  0.0229
 4177TIP3    H212496   1.843   5.489   2.452  0.0288  0.0197 -1.2288
 4178TIP3   OH212497   1.891   4.710   1.780  0.9316 -0.2281 -0.5868
 4178TIP3    H112498   1.826   4.744   1.720  1.2635 -0.7888 -1.2737
 4178TIP3    H212499   1.923   4.630   1.739  1.2838 -0.5328  0.2516
 4179TIP3   OH212500   3.286   6.047   2.540  0.2047  0.6586 -0.3912
 4179TIP3    H112501   3.237   6.120   2.579  0.0755  1.3561 -1.8061
 4179TIP3    H212502   3.218   5.983   2.519  0.0897  0.9256 -0.8450
 4180TIP3   OH212503   3.901   6.278   2.679 -0.0479  0.4193  0.1875
 4180TIP3    H112504   3.921   6.192   2.641  0.4324  1.3123 -1.6414
 4180TIP3    H212505   3.833   6.313   2.623 -0.5912  1.0493  1.2307
 4181TIP3   OH212506   0.626   5.053   1.277 -0.5800 -0.0953  0.4979
 4181TIP3    H112507   0.668   4.984   1.327 -0.3258 -0.2684  0.0453
 4181TIP3    H212508   0.625   5.021   1.187 -0.1362  0.6359  0.2260
 4182TIP3   OH212509   2.634   4.891   3.027  0.3541  0.3828 -0.4818
 4182TIP3    H112510   2.630   4.844   2.944  0.4728 -0.2558 -0.1235
 4182TIP3    H212511   2.584   4.972   3.011  0.2216  0.1750 -1.1133
 4183TIP3   OH212512   4.140   5.247   1.630  0.4042  0.2897  0.4152
 4183TIP3    H112513   4.141   5.341   1.646 -0.1585  0.3823 -0.0861
 4183TIP3    H212514   4.177   5.236   1.543  0.9786 -0.0043  0.6885
 4184TIP3   OH212515   5.032   3.171   0.202 -0.1973 -0.5400 -0.1073
 4184TIP3    H112516   5.023   3.214   0.287 -0.9849 -2.0553  0.5901
 4184TIP3    H212517   5.087   3.230   0.151  0.4945  0.2677  1.5425
 4185TIP3   OH212518   1.320   3.893   1.660 -0.3827  0.5076 -0.5451
 4185TIP3    H112519   1.284   3.847   1.584 -1.0044 -0.2259  0.1925
 4185TIP3    H212520   1.392   3.945   1.624 -0.5631  0.0314 -1.6108
 4186TIP3   OH212521   6.322   0.081   1.113 -0.1117  0.0863 -0.5179
 4186TIP3    H112522   6.376   0.096   1.035 -1.5869  0.1092 -1.5574
 4186TIP3    H212523   6.382   0.041   1.176  1.0746 -0.0581 -1.7102
 4187TIP3   OH212524   4.911   0.659   3.216  0.0458  0.7459 -0.4377
 4187TIP3    H112525   4.885   0.579   3.168  1.7567 -0.4744  0.6137
 4187TIP3    H212526   4.975   0.701   3.158 -0.2782  0.9619 -0.6431
 4188TIP3   OH212527   5.537   1.638   0.933  0.2110 -0.2671  0.1079
 4188TIP3    H112528   5.528   1.641   1.028 -1.5989 -0.5285 -0.0328
 4188TIP3    H212529   5.545   1.544   0.913 -1.2517 -0.3612 -0.1221
 4189TIP3   OH212530   5.468   6.703   2.220  0.0915  0.2807 -0.3296
 4189TIP3    H112531   5.559   6.698   2.248  0.1723 -1.6863 -0.8784
 4189TIP3    H212532   5.418   6.690   2.301  0.2989  0.0190 -0.2434
 4190TIP3   OH212533   7.415   0.216   0.742 -0.4847  0.8788 -0.7631
 4190TIP3    H112534   7.379   0.152   0.804  0.4608  0.0871 -1.0012
 4190TIP3    H212535   7.345   0.279   0.728 -1.0555  0.4928  0.3324
 4191TIP3   OH212536   1.465   4.932   2.702  0.0568  0.3946 -0.2610
 4191TIP3    H112537   1.484   4.850   2.748 -0.3129 -0.1008 -0.9906
 4191TIP3    H212538   1.544   4.949   2.651  0.7807  1.3555  1.1340
 4192TIP3   OH212539   5.236   6.358   0.653  0.4929  0.2406 -0.7101
 4192TIP3    H112540   5.191   6.443   0.648 -2.9610 -1.4641  0.0428
 4192TIP3    H212541   5.285   6.362   0.735 -0.9086  0.9448  0.1124
 4193TIP3   OH212542   5.094   5.934   2.296 -0.4114  0.1786 -0.0652
 4193TIP3    H112543   5.050   5.939   2.211 -1.7104  2.4929  0.7082
 4193TIP3    H212544   5.038   5.876   2.348 -0.3567 -0.1285 -0.3439
 4194TIP3   OH212545   3.865   6.342   1.517 -0.3098  0.5696  0.0690
 4194TIP3    H112546   3.829   6.305   1.437 -0.6571  1.2555 -0.1018
 4194TIP3    H212547   3.789   6.376   1.564 -0.2440 -0.9542  1.2863
 4195TIP3   OH212548   3.493   5.830   2.185  0.1857 -0.1379  0.1611
 4195TIP3    H112549   3.465   5.804   2.273 -0.5600 -0.8825 -0.2825
 4195TIP3    H212550   3.535   5.752   2.149  0.6387  0.2168 -0.0809
 4196TIP3   OH212551   5.650   4.750   2.274 -0.0059 -0.2600 -0.1408
 4196TIP3    H112552   5.743   4.766   2.289 -0.3304  0.5509  1.0845
 4196TIP3    H212553   5.617   4.833   2.240 -0.3665 -0.4108 -0.1560
 4197TIP3   OH212554   1.715   4.966   1.216  0.0017  0.9079  0.4255
 4197TIP3    H112555   1.800   4.923   1.218  0.0506  0.9851  0.0974
 4197TIP3    H212556   1.717   5.026   1.290  0.0875  0.6367  0.6449
 4198TIP3   OH212557   2.512   5.693   5.395 -0.0798 -0.6308 -0.0557
 4198TIP3    H112558   2.482   5.782   5.377 -0.0511 -0.3823  1.0835
 4198TIP3    H212559   2.576   5.704   5.465 -1.1326 -1.7022  1.0910
 4199TIP3   OH212560   5.561   6.114   2.130  0.3072  0.7437 -0.2808
 4199TIP3    H112561   5.578   6.189   2.188  0.4229 -0.0920  0.7664
 4199TIP3    H212562   5.468   6.093   2.144  0.0727  1.1524 -1.1371
 4200TIP3   OH212563   4.272   5.361   4.263 -0.2437  0.5434  0.0160
 4200TIP3    H112564   4.289   5.270   4.287 -0.2139  1.0794  2.0898
 4200TIP3    H212565   4.211   5.355   4.189  1.0792 -1.1738 -0.9817
 4201TIP3   OH212566   2.178   4.220   0.935 -0.6113  0.3512 -0.0411
 4201TIP3    H112567   2.139   4.154   0.993  0.9442  0.8591  1.6468
 4201TIP3    H212568   2.119   4.296   0.942 -0.2237  0.5467  1.2085
 4202TIP3   OH212569   4.124   5.177   0.744  0.0228 -0.3666 -0.2605
 4202TIP3    H112570   4.110   5.264   0.708 -2.0791 -0.3729  0.4437
 4202TIP3    H212571   4.164   5.127   0.673 -0.9562  0.5419 -1.4586
 4203TIP3   OH212572   0.524   0.100   1.081 -0.1721  0.5770 -0.0988
 4203TIP3    H112573   0.464   0.047   1.028 -1.1486 -0.9952  2.4722
 4203TIP3    H212574   0.611   0.068   1.057 -0.5229  0.6870 -1.5682
 4204TIP3   OH212575   3.864   6.687   3.135 -0.1675 -0.2846  0.3739
 4204TIP3    H112576   3.867   6.736   3.216 -0.1089 -1.4323  1.0817
 4204TIP3    H212577   3.935   6.622   3.143  0.5041  0.2455 -1.0181
 4205TIP3   OH212578   2.561   4.274   0.570 -0.1162 -0.1283  0.4698
 4205TIP3    H112579   2.467   4.291   0.568  0.1022  1.0530 -1.4091
 4205TIP3    H212580   2.569   4.182   0.546 -0.7170  0.2780 -1.4015
 4206TIP3   OH212581   4.308   4.344   3.082 -0.2030  0.0890 -1.1717
 4206TIP3    H112582   4.292   4.421   3.027 -0.7485  0.4335 -0.5292
 4206TIP3    H212583   4.357   4.377   3.157 -0.3266 -0.2087 -0.9578
 4207TIP3   OH212584   3.042   5.113   2.059  0.1003  0.3345 -0.2187
 4207TIP3    H112585   3.051   5.148   1.970  2.0177 -2.2408 -1.0878
 4207TIP3    H212586   3.107   5.043   2.064 -2.1764 -1.7088  2.1569
 4208TIP3   OH212587   2.713   4.260   2.985 -0.0990  0.6861 -0.0937
 4208TIP3    H112588   2.707   4.350   3.017  1.4851  0.6980  0.2142
 4208TIP3    H212589   2.776   4.218   3.044  2.7174  0.6241 -2.9945
 4209TIP3   OH212590   2.532   5.205   3.367  0.5061  0.1347 -0.2857
 4209TIP3    H112591   2.474   5.194   3.291 -1.3450 -2.4743  1.4118
 4209TIP3    H212592   2.497   5.281   3.413  0.3178  0.4088 -0.8687
 4210TIP3   OH212593   5.197   5.517   1.422 -0.2404 -0.1539 -0.3432
 4210TIP3    H112594   5.190   5.445   1.359 -0.9830 -0.6445  0.2817
 4210TIP3    H212595   5.289   5.542   1.420 -0.3647  0.2212 -2.0473
 4211TIP3   OH212596   4.615   6.145   0.027  0.0934  0.3478  0.3130
 4211TIP3    H112597   4.591   6.062  -0.013 -0.6007  0.3650  0.6778
 4211TIP3    H212598   4.710   6.147   0.025  0.1098 -0.4481  0.2789
 4212TIP3   OH212599   2.799   6.439   1.277  0.0750  0.1092 -0.1259
 4212TIP3    H112600   2.735   6.370   1.258  1.0737 -0.6567 -0.7532
 4212TIP3    H212601   2.752   6.500   1.334 -1.2810 -0.3269 -0.7589
 4213TIP3   OH212602   5.429   0.370   3.274 -0.4916  0.0338  0.3437
 4213TIP3    H112603   5.363   0.399   3.212 -0.0981  1.1672  0.4450
 4213TIP3    H212604   5.395   0.288   3.309 -2.0055  0.7779  0.6513
 4214TIP3   OH212605   2.990   2.387   2.649 -0.3446 -0.2279  0.6137
 4214TIP3    H112606   3.078   2.421   2.635 -0.7719  0.4376 -0.6204
 4214TIP3    H212607   2.964   2.420   2.734  0.2136  0.4397  0.5280
 4215TIP3   OH212608   7.217   1.106   1.641 -0.3498  0.1424  0.0235
 4215TIP3    H112609   7.177   1.155   1.569  2.0048 -1.2122 -2.2757
 4215TIP3    H212610   7.151   1.040   1.665 -0.9705  0.2999 -1.2222
 4216TIP3   OH212611   4.565   5.064   2.345 -0.5147 -0.0101  0.1706
 4216TIP3    H112612   4.493   5.059   2.407 -1.3206  0.2709 -0.7353
 4216TIP3    H212613   4.627   5.125   2.386 -1.1308  0.3309  0.6000
 4217TIP3   OH212614   5.952   1.046   2.211  0.3494  0.5163 -0.1823
 4217TIP3    H112615   6.047   1.054   2.213  0.3984 -0.1156  0.1619
 4217TIP3    H212616   5.927   1.033   2.302  0.1097 -1.2026 -0.4689
 4218TIP3   OH212617   3.243   2.010   2.596  0.3769 -0.3093  0.4271
 4218TIP3    H112618   3.159   2.044   2.629  0.4545  0.4644 -0.1664
 4218TIP3    H212619   3.294   1.991   2.675 -0.0991 -0.1311  0.7795
 4219TIP3   OH212620   1.435   3.965   2.138  0.1525  0.0046 -0.1626
 4219TIP3    H112621   1.417   3.871   2.147  0.2738 -0.0646 -0.6217
 4219TIP3    H212622   1.421   3.983   2.045 -2.8005  1.0853  0.4672
 4220TIP3   OH212623   3.650   6.412   1.681  0.1380 -0.7165 -0.1298
 4220TIP3    H112624   3.608   6.340   1.729 -0.2345 -0.7115 -0.4376
 4220TIP3    H212625   3.607   6.491   1.713  1.1702 -0.5529  0.8478
 4221TIP3   OH212626   6.301   3.422   1.240  0.3355 -0.0958 -0.3040
 4221TIP3    H112627   6.236   3.421   1.311 -1.3869 -0.1235 -1.8541
 4221TIP3    H212628   6.384   3.435   1.285 -0.8471  1.0372  1.6423
 4222TIP3   OH212629   6.374   0.600   0.847 -0.0395 -0.1254  0.7860
 4222TIP3    H112630   6.433   0.602   0.922  0.8901 -0.7187  0.0872
 4222TIP3    H212631   6.315   0.527   0.865 -1.3381  1.2182  2.0524
 4223TIP3   OH212632   2.661   6.070   2.601 -0.0528  0.4052 -0.7798
 4223TIP3    H112633   2.665   6.136   2.670  0.4340 -0.8908  0.4532
 4223TIP3    H212634   2.752   6.051   2.581 -0.1899  0.6233 -1.6712
 4224TIP3   OH212635   6.059   6.131   1.588  0.0711  1.1279  0.0752
 4224TIP3    H112636   5.975   6.091   1.608  0.2793  0.9206  0.5465
 4224TIP3    H212637   6.106   6.132   1.671  0.2844  1.8420 -0.0486
 4225TIP3   OH212638   2.755   0.226   2.176  0.1471 -0.6151 -0.2719
 4225TIP3    H112639   2.721   0.308   2.211  3.0193  0.9816 -1.1072
 4225TIP3    H212640   2.684   0.163   2.190 -2.2505  2.0602  0.0546
 4226TIP3   OH212641   6.367   1.300   2.552  0.2762  1.1323 -0.1114
 4226TIP3    H112642   6.309   1.294   2.477  0.6906  1.5712 -0.4699
 4226TIP3    H212643   6.351   1.387   2.589  0.0402  0.9015  0.3388
 4227TIP3   OH212644   3.042   5.211   2.973  0.1945 -0.0341  0.1791
 4227TIP3    H112645   3.083   5.148   3.032  0.5961 -0.5692 -0.6426
 4227TIP3    H212646   3.032   5.162   2.891 -0.0614  0.7833 -0.2797
 4228TIP3   OH212647   4.015   5.572   0.789 -0.4210 -0.0974 -0.8849
 4228TIP3    H112648   3.937   5.580   0.733 -1.6340  0.5287  0.8447
 4228TIP3    H212649   3.984   5.597   0.876  0.9748 -2.8307  0.4402
 4229TIP3   OH212650   5.149   5.070   2.192 -0.1215  0.3989  0.0457
 4229TIP3    H112651   5.212   5.017   2.143 -1.3768 -1.0316 -0.0795
 4229TIP3    H212652   5.132   5.146   2.136  0.2727 -0.0184 -0.6471
 4230TIP3   OH212653   2.932   5.116   0.414  0.9007 -0.2559 -0.1547
 4230TIP3    H112654   2.864   5.056   0.384  1.8252 -0.8163 -1.1434
 4230TIP3    H212655   3.009   5.062   0.428  1.4291  0.5258  0.0331
 4231TIP3   OH212656   0.713   4.581   1.229  0.4443  0.8917  0.4752
 4231TIP3    H112657   0.783   4.550   1.171 -1.4483 -1.5902 -0.5532
 4231TIP3    H212658   0.741   4.554   1.317  0.5958 -0.4530  0.0228
 4232TIP3   OH212659   2.542   4.642   0.585 -0.7472  0.1717  0.4708
 4232TIP3    H112660   2.511   4.640   0.495 -0.7709  2.3657  0.3982
 4232TIP3    H212661   2.541   4.735   0.609 -2.6815 -0.5237  3.4023
 4233TIP3   OH212662   3.972   5.405   1.287  0.0085  0.3629  0.2028
 4233TIP3    H112663   3.899   5.421   1.347  1.5513  0.6163  2.0791
 4233TIP3    H212664   3.949   5.324   1.242 -0.9207 -0.1741  1.5951
 4234TIP3   OH212665   3.734   6.032   2.340 -0.1800  0.4554 -0.1885
 4234TIP3    H112666   3.782   5.957   2.304  1.6122  2.3377 -1.7875
 4234TIP3    H212667   3.672   6.056   2.270  0.8839  1.9349 -0.6261
 4235TIP3   OH212668   1.876   1.637   6.015 -0.0515 -0.3365  0.0095
 4235TIP3    H112669   1.818   1.680   5.953 -0.0373  1.0427  0.9324
 4235TIP3    H212670   1.956   1.618   5.965 -0.4542 -0.2329 -0.6768
 4236TIP3   OH212671   5.694   4.144   5.167 -0.4628 -0.4652  0.1725
 4236TIP3    H112672   5.606   4.178   5.154  0.7251  2.5020 -0.7222
 4236TIP3    H212673   5.725   4.187   5.247  0.6832 -0.2495 -0.3674
 4237TIP3   OH212674   3.943   4.767   1.140  0.6175  0.7335  0.1061
 4237TIP3    H112675   3.869   4.779   1.199  0.0477 -1.5505 -0.1034
 4237TIP3    H212676   4.013   4.819   1.178 -0.7358  1.9591  0.9673
 4238TIP3   OH212677   4.416   5.086   2.576 -0.0903  0.2294  0.7521
 4238TIP3    H112678   4.396   5.179   2.585 -1.2568 -0.0238  0.8464
 4238TIP3    H212679   4.331   5.043   2.569  0.4674 -0.7179 -0.4551
 4239TIP3   OH212680   4.452   6.463   1.891 -0.3149 -0.0836  0.3587
 4239TIP3    H112681   4.426   6.397   1.827 -0.6160  0.1155  0.2743
 4239TIP3    H212682   4.412   6.544   1.859 -1.7878 -0.2878  1.6445
 4240TIP3   OH212683   4.624   6.825   2.173 -0.4488  0.3403 -0.5200
 4240TIP3    H112684   4.671   6.851   2.093  0.4934 -0.3633 -0.2100
 4240TIP3    H212685   4.612   6.906   2.222 -0.5539  0.6951 -1.1328
 4241TIP3   OH212686   5.086   6.526   3.080 -0.3195  0.2134 -0.0270
 4241TIP3    H112687   5.112   6.498   3.168  2.3954 -0.5848 -1.0029
 4241TIP3    H212688   5.029   6.456   3.048  2.2420 -1.7757 -0.4940
 4242TIP3   OH212689   2.871   5.692   3.524 -0.1657  0.1290  0.3264
 4242TIP3    H112690   2.898   5.605   3.494  1.6870  0.0186  2.1426
 4242TIP3    H212691   2.814   5.725   3.454  0.4796 -1.8370 -1.1970
 4243TIP3   OH212692   6.846   0.973   4.811 -0.1730  0.2950 -0.2083
 4243TIP3    H112693   6.903   0.900   4.839  0.0792  0.6757  0.2853
 4243TIP3    H212694   6.766   0.930   4.781  0.3599 -0.2498 -0.8711
 4244TIP3   OH212695   5.087   0.529   3.415 -0.1413 -0.4903  0.4258
 4244TIP3    H112696   5.087   0.436   3.434 -0.1787 -0.6141 -0.1978
 4244TIP3    H212697   5.016   0.541   3.352  1.9255 -0.5397 -1.9816
 4245TIP3   OH212698   6.118   5.908   0.574 -0.1425 -0.4487 -0.0706
 4245TIP3    H112699   6.066   5.901   0.654  0.7051 -2.6259  0.3313
 4245TIP3    H212700   6.164   5.992   0.583 -1.4517  0.1941  0.8519
 4246TIP3   OH212701   5.138   6.562   1.875  0.3751  0.2875  0.2205
 4246TIP3    H112702   5.044   6.555   1.895  0.3154 -2.1093 -0.6955
 4246TIP3    H212703   5.161   6.651   1.899 -2.3574  1.2164 -0.4102
 4247TIP3   OH212704   2.273   0.591   5.959  0.7435 -0.1977  0.0189
 4247TIP3    H112705   2.271   0.684   5.980  0.2264  0.3478 -2.2532
 4247TIP3    H212706   2.359   0.576   5.921  1.6478 -1.1440  2.3823
 4248TIP3   OH212707   4.908   6.911   1.123 -0.3381  0.2999  0.4891
 4248TIP3    H112708   4.893   6.955   1.206  0.6206 -0.1742  0.9150
 4248TIP3    H212709   4.985   6.856   1.138  0.3194  0.8082 -0.9404
 4249TIP3   OH212710   5.424   6.560   0.403  0.1678  0.4203 -1.1823
 4249TIP3    H112711   5.415   6.616   0.326  1.2936 -1.1053 -2.4499
 4249TIP3    H212712   5.377   6.480   0.381  2.9339 -1.1831 -1.4793
 4250TIP3   OH212713   7.037   6.468   2.590 -0.1695 -0.0067 -0.8335
 4250TIP3    H112714   6.971   6.531   2.620 -1.2328 -1.7412  0.6031
 4250TIP3    H212715   7.014   6.450   2.499 -0.3203  1.1126 -1.0152
 4251TIP3   OH212716   5.828   4.641   2.009  0.5546  0.4068  0.0122
 4251TIP3    H112717   5.905   4.619   1.956  1.4307  1.1082  0.9682
 4251TIP3    H212718   5.863   4.695   2.080 -0.9685  1.4641 -0.0326
 4252TIP3   OH212719   0.065   0.260   3.781 -0.2048 -0.2517  0.4301
 4252TIP3    H112720   0.081   0.309   3.700  0.0071  0.0145  0.6344
 4252TIP3    H212721   0.002   0.313   3.829  0.3266  0.0186  0.8304
 4253TIP3   OH212722   6.680   1.051   0.520 -0.0480 -0.2702  0.6794
 4253TIP3    H112723   6.667   1.039   0.426 -0.8370 -1.8837  0.9703
 4253TIP3    H212724   6.774   1.065   0.530 -0.3675  3.4981 -0.6728
 4254TIP3   OH212725   0.551   0.293   3.513  0.0815  0.4978 -0.4525
 4254TIP3    H112726   0.549   0.213   3.461  1.6045 -0.0261  0.2443
 4254TIP3    H212727   0.566   0.363   3.449 -1.5433  0.2679 -1.0922
 4255TIP3   OH212728   1.013   1.489   1.564 -0.4505  0.1068  0.4674
 4255TIP3    H112729   0.949   1.529   1.623  0.3008  0.4705  1.0396
 4255TIP3    H212730   0.960   1.449   1.495 -1.2080  2.1124 -0.1339
 4256TIP3   OH212731   7.372   5.077   0.466  0.1120  0.6502 -0.3192
 4256TIP3    H112732   7.320   4.997   0.472 -0.3288  0.8153 -1.7689
 4256TIP3    H212733   7.427   5.076   0.545 -1.9991  0.4376  1.1737
 4257TIP3   OH212734   4.783   3.623   5.969 -0.2023 -0.3037 -0.3802
 4257TIP3    H112735   4.863   3.674   5.968  0.4607 -1.2103  2.5839
 4257TIP3    H212736   4.806   3.541   5.924  0.4104 -0.3799  0.0684
 4258TIP3   OH212737   0.112   6.730   2.034 -0.1305 -0.1825  0.5208
 4258TIP3    H112738   0.138   6.807   1.983  1.3217 -1.4069 -0.6606
 4258TIP3    H212739   0.047   6.686   1.978  1.8118 -1.7803 -0.5511
 4259TIP3   OH212740   4.705   6.345   1.847  0.2940 -0.6258 -0.1180
 4259TIP3    H112741   4.627   6.401   1.844  0.7445 -0.0148 -0.3310
 4259TIP3    H212742   4.674   6.264   1.889 -0.1240  0.1438  1.0749
 4260TIP3   OH212743   5.927   6.226   2.310  0.0141 -0.3112 -0.3116
 4260TIP3    H112744   5.985   6.299   2.286 -1.5349  0.3978 -2.0533
 4260TIP3    H212745   5.882   6.257   2.389  2.3836 -1.1005  1.3866
 4261TIP3   OH212746   0.068   6.265   1.631  0.1768 -0.4605 -0.0569
 4261TIP3    H112747   0.045   6.292   1.719  0.9348  2.5822 -0.7390
 4261TIP3    H212748  -0.014   6.233   1.593 -0.2202 -1.4465  1.5813
 4262TIP3   OH212749   6.730   0.036   2.752  0.1856  0.8040  0.4357
 4262TIP3    H112750   6.760   0.016   2.841 -0.5358 -2.0738  0.0853
 4262TIP3    H212751   6.634   0.040   2.760  0.2323  3.0485  0.2297
 4263TIP3   OH212752   1.877   5.641   5.538 -0.1383  1.0015  0.4663
 4263TIP3    H112753   1.897   5.557   5.580  0.3452  0.8513 -0.0568
 4263TIP3    H212754   1.874   5.620   5.444  1.8473  1.9434  0.1773
 4264TIP3   OH212755   4.597   6.786   1.384  0.4597  0.1095 -0.0309
 4264TIP3    H112756   4.539   6.831   1.445  2.1883  0.4723  1.3883
 4264TIP3    H212757   4.578   6.825   1.299  0.1817  1.7748  0.7868
 4265TIP3   OH212758   3.868   1.348   5.492 -0.1094 -0.0841 -0.1349
 4265TIP3    H112759   3.853   1.433   5.532  2.6710  0.6774 -0.5641
 4265TIP3    H212760   3.844   1.285   5.559 -0.2347  1.0834  0.9429
 4266TIP3   OH212761   5.094   6.107   1.452  0.0134 -0.3279  0.2429
 4266TIP3    H112762   5.143   6.188   1.439 -1.2965  0.7183  1.6671
 4266TIP3    H212763   5.002   6.133   1.446 -0.4310 -1.5860  1.3311
 4267TIP3   OH212764   6.200   5.802   1.903  0.1118  0.1729 -0.1433
 4267TIP3    H112765   6.206   5.896   1.888 -0.4794  0.2333 -0.0243
 4267TIP3    H212766   6.116   5.777   1.866  1.1514 -0.6781 -2.0126
 4268TIP3   OH212767   6.239   1.138   0.273  0.1305  0.1031 -0.3271
 4268TIP3    H112768   6.285   1.124   0.356  0.5504 -0.1521 -0.5977
 4268TIP3    H212769   6.216   1.049   0.243 -0.5454  0.2271 -0.1934
 4269TIP3   OH212770   1.605   1.626   1.923 -0.4522 -0.1723 -0.1666
 4269TIP3    H112771   1.604   1.561   1.994 -0.8797  0.2513  0.2181
 4269TIP3    H212772   1.571   1.705   1.963  0.5819  0.4482 -0.4958
 4270TIP3   OH212773   5.053   6.525   1.470  0.3838 -0.1322  0.5736
 4270TIP3    H112774   5.111   6.602   1.474 -0.0887  0.2141  0.8710
 4270TIP3    H212775   4.968   6.559   1.498  0.2350 -0.8268  0.9646
 4271TIP3   OH212776   4.534   6.131   1.978 -0.3169 -0.0909 -0.0996
 4271TIP3    H112777   4.546   6.047   2.023 -0.2145 -0.1100 -0.1601
 4271TIP3    H212778   4.455   6.120   1.926 -0.8299  0.1790  0.6292
 4272TIP3   OH212779   5.940   1.157   0.324  0.1180 -1.0195  0.2231
 4272TIP3    H112780   5.958   1.099   0.398 -0.3381 -0.2493  0.9380
 4272TIP3    H212781   5.990   1.237   0.343 -0.1855 -0.7318 -0.1867
 4273TIP3   OH212782   4.215   5.740   1.942 -0.5498  0.4866 -0.4793
 4273TIP3    H112783   4.180   5.771   2.025 -0.3500  0.5667 -0.4245
 4273TIP3    H212784   4.199   5.646   1.942  1.0123  0.2087  0.4049
 4274TIP3   OH212785   7.041   5.067   1.727  0.0950 -0.3570  0.4508
 4274TIP3    H112786   7.036   5.153   1.685 -0.6742 -0.7343 -0.2455
 4274TIP3    H212787   7.133   5.056   1.749  0.2135  0.6041  0.4482
 4275TIP3   OH212788   2.220   4.756   0.917  0.3581 -0.4487  0.8247
 4275TIP3    H112789   2.168   4.837   0.915  2.1147  0.6888  0.4800
 4275TIP3    H212790   2.266   4.759   1.000 -1.4038 -2.3156  1.9243
 4276TIP3   OH212791   0.519   0.733   0.470  0.0137 -0.0406  0.6114
 4276TIP3    H112792   0.550   0.645   0.449  2.7594  1.7254 -3.2193
 4276TIP3    H212793   0.439   0.744   0.418 -0.0688 -0.0909  0.7268
 4277TIP3   OH212794   2.237   1.322   1.568  0.1753 -0.3713 -0.0345
 4277TIP3    H112795   2.190   1.264   1.508 -1.6693  0.6477  0.4065
 4277TIP3    H212796   2.173   1.343   1.636  1.0190  1.6883  0.1395
 4278TIP3   OH212797   7.365   0.306   2.814 -0.3048 -0.1811  0.4472
 4278TIP3    H112798   7.423   0.303   2.738  0.8266  0.8463  1.2469
 4278TIP3    H212799   7.296   0.243   2.794 -1.2931  1.7068 -2.4599
 4279TIP3   OH212800   3.535   2.645   5.243 -0.8602  1.2468 -0.3882
 4279TIP3    H112801   3.539   2.639   5.147 -0.2950  0.8253 -0.3449
 4279TIP3    H212802   3.442   2.637   5.264 -0.9448  0.8935 -0.8800
 4280TIP3   OH212803   6.497   2.675   0.854  0.1804  0.2829  0.0300
 4280TIP3    H112804   6.432   2.655   0.786  0.2477  0.1585  0.0014
 4280TIP3    H212805   6.467   2.758   0.892  0.8194  0.9931 -0.9925
 4281TIP3   OH212806   5.559   6.262   1.888 -0.1631  0.0482  0.0190
 4281TIP3    H112807   5.537   6.225   1.973  1.1760  1.8125  1.1472
 4281TIP3    H212808   5.500   6.337   1.878 -0.7816 -0.5428 -0.9349
 4282TIP3   OH212809   2.371   3.899   5.933 -0.1877  0.9843  0.1018
 4282TIP3    H112810   2.313   3.876   6.006 -0.1883  1.1419  0.1522
 4282TIP3    H212811   2.325   3.969   5.886 -0.6406  0.1837 -0.6444
 4283TIP3   OH212812   5.931   6.161   1.318 -0.4759  0.3601 -0.1479
 4283TIP3    H112813   5.846   6.119   1.331  0.0256 -1.1828 -1.6249
 4283TIP3    H212814   5.983   6.096   1.271  1.1769  1.6905 -0.2170
 4284TIP3   OH212815   1.390   0.293   0.818  0.2496  0.1527  0.5239
 4284TIP3    H112816   1.442   0.348   0.877  2.0179 -1.1664  0.2287
 4284TIP3    H212817   1.435   0.297   0.734  0.1058 -1.3225  0.3590
 4285TIP3   OH212818   0.101   0.650   0.343  0.5675  0.3067 -0.4831
 4285TIP3    H112819   0.010   0.647   0.316 -0.4752  0.7370  2.8010
 4285TIP3    H212820   0.116   0.742   0.366  1.1647 -0.1927  1.1516
 4286TIP3   OH212821   5.606   1.868   4.054  0.2126  0.5823 -0.1366
 4286TIP3    H112822   5.630   1.802   4.119  0.3837  0.3252 -0.4621
 4286TIP3    H212823   5.654   1.844   3.975 -0.0437  0.8572 -0.3810
 4287TIP3   OH212824   3.842   3.663   5.331 -0.1235  0.7053 -0.3945
 4287TIP3    H112825   3.905   3.735   5.334  0.2958  0.3725 -1.1015
 4287TIP3    H212826   3.764   3.697   5.374  0.8731  0.7821  1.4302
 4288TIP3   OH212827   3.759   4.951   1.769 -0.3664  0.0235  0.3972
 4288TIP3    H112828   3.817   4.887   1.727 -1.1102  0.2448 -1.0080
 4288TIP3    H212829   3.814   5.028   1.780  0.2691 -0.5390  1.2315
 4289TIP3   OH212830   4.723   4.480   2.896  0.5628  0.1019  0.3817
 4289TIP3    H112831   4.715   4.513   2.806  1.0616 -0.7357  0.0238
 4289TIP3    H212832   4.790   4.535   2.936 -0.2841  1.0452  0.5122
 4290TIP3   OH212833   0.469   0.007   1.982 -0.2059  0.0215  0.3080
 4290TIP3    H112834   0.450   0.088   1.936  0.6883  0.6126  0.9702
 4290TIP3    H212835   0.459   0.029   2.075 -1.8756 -1.1284  0.4265
 4291TIP3   OH212836   4.271   6.231   0.186  0.3172  0.0613  0.1412
 4291TIP3    H112837   4.322   6.296   0.139  3.0955 -2.5535 -0.6452
 4291TIP3    H212838   4.312   6.226   0.273 -0.0749 -0.3817  0.3055
 4292TIP3   OH212839   4.253   4.378   4.516 -0.0502 -0.2093  0.2572
 4292TIP3    H112840   4.288   4.380   4.605 -1.7647  2.1932  0.9106
 4292TIP3    H212841   4.161   4.399   4.525 -0.7645 -2.1275 -1.9077
 4293TIP3   OH212842   5.413   4.892   0.745 -0.1260  0.1960 -0.0608
 4293TIP3    H112843   5.503   4.861   0.733  1.5071  4.6362 -0.0107
 4293TIP3    H212844   5.394   4.876   0.838  0.3462 -1.3349 -0.2189
 4294TIP3   OH212845   3.165   2.543   5.892  0.3959  0.3770 -0.5913
 4294TIP3    H112846   3.210   2.535   5.976  0.4588 -2.8480 -0.8872
 4294TIP3    H212847   3.230   2.582   5.833  1.2422  0.0881  0.1499
 4295TIP3   OH212848   6.022   4.670   0.643  0.0947  0.1257 -0.3053
 4295TIP3    H112849   6.056   4.734   0.705 -0.4572  0.3106 -0.1872
 4295TIP3    H212850   6.071   4.590   0.661  0.4854  0.3932 -0.1627
 4296TIP3   OH212851   7.171   6.287   2.746 -0.5483  0.0155 -0.2413
 4296TIP3    H112852   7.249   6.302   2.694  0.2428 -0.4505  0.7934
 4296TIP3    H212853   7.106   6.347   2.710  0.3006  0.4410 -1.0731
 4297TIP3   OH212854   5.803   3.357   4.324 -0.3388 -0.1813 -0.0568
 4297TIP3    H112855   5.894   3.373   4.351 -0.0434  0.4797 -1.4150
 4297TIP3    H212856   5.750   3.400   4.390  0.3012 -1.6484  1.4659
 4298TIP3   OH212857   6.563   4.902   1.443 -0.0184  0.0104 -0.5173
 4298TIP3    H112858   6.502   4.939   1.507 -0.6007 -1.3808 -0.2491
 4298TIP3    H212859   6.628   4.970   1.429 -1.1401  1.1734 -0.1250
 4299TIP3   OH212860   3.016   2.293   5.494 -0.3501  0.1717 -0.4753
 4299TIP3    H112861   2.963   2.354   5.445  0.0471 -0.4696 -1.7191
 4299TIP3    H212862   3.100   2.290   5.447 -0.3312 -1.2376 -0.3861
 4300TIP3   OH212863   5.455   4.913   2.587  0.4971 -0.0128  0.4144
 4300TIP3    H112864   5.441   4.851   2.515  0.4198  0.3728  0.0962
 4300TIP3    H212865   5.369   4.921   2.628  0.6006 -0.4419  0.7220
 4301TIP3   OH212866   5.945   5.377   1.566 -0.4665 -0.1266 -0.1645
 4301TIP3    H112867   5.954   5.363   1.471 -0.3222 -0.5690 -0.0894
 4301TIP3    H212868   6.018   5.433   1.589 -0.6275  0.1624 -0.3522
 4302TIP3   OH212869   4.388   5.101   0.977 -0.4031  0.7474  0.1656
 4302TIP3    H112870   4.325   5.161   1.016 -1.0934  0.5683 -0.6749
 4302TIP3    H212871   4.425   5.149   0.902 -0.5142  0.3524 -0.1448
 4303TIP3   OH212872   5.500   5.603   2.397  0.3450 -0.2465  0.1899
 4303TIP3    H112873   5.448   5.540   2.447  1.2706  0.7970  2.5260
 4303TIP3    H212874   5.449   5.617   2.317 -1.1693 -1.9412  0.8205
 4304TIP3   OH212875   4.844   5.804   0.424  0.2561 -0.7563  0.1156
 4304TIP3    H112876   4.815   5.734   0.365  0.8267  0.0124 -1.0870
 4304TIP3    H212877   4.933   5.825   0.395  0.5555 -0.3674  1.2644
 4305TIP3   OH212878   3.526   4.995   1.920  0.8266  0.3792  0.1116
 4305TIP3    H112879   3.445   4.952   1.892  0.1358  1.8183 -0.1364
 4305TIP3    H212880   3.592   4.965   1.858  0.6606 -1.3789  0.7513
 4306TIP3   OH212881   5.923   4.448   1.505  0.1615 -0.4566  0.2462
 4306TIP3    H112882   6.000   4.489   1.545 -0.0313  0.1907 -0.0496
 4306TIP3    H212883   5.887   4.515   1.447  1.6116 -2.0682 -2.6245
 4307TIP3   OH212884   6.560   5.742   0.250  0.2901 -0.0094 -0.1612
 4307TIP3    H112885   6.549   5.657   0.209  0.6548 -0.0674 -0.1390
 4307TIP3    H212886   6.651   5.743   0.279  0.7185  0.9777 -1.4961
 4308TIP3   OH212887   1.056   5.992   2.874 -0.5957 -0.4673  0.0502
 4308TIP3    H112888   1.028   5.947   2.794  1.3260 -0.7858 -0.4722
 4308TIP3    H212889   1.094   6.074   2.844  0.3855 -0.7100  0.5987
 4309TIP3   OH212890   3.008   4.740   2.236 -0.1678 -0.4386  0.0582
 4309TIP3    H112891   3.079   4.678   2.252 -0.1083 -0.4703 -0.3306
 4309TIP3    H212892   3.039   4.823   2.274 -0.4836 -0.7805  1.0955
 4310TIP3   OH212893   6.943   6.654   4.765 -0.5350  0.3679 -0.2394
 4310TIP3    H112894   6.924   6.576   4.713 -1.4501  1.3308 -1.4043
 4310TIP3    H212895   7.012   6.698   4.716  2.3823 -1.3818  2.1836
 4311TIP3   OH212896   1.838   0.659   1.013 -0.3589 -0.6572  0.0949
 4311TIP3    H112897   1.812   0.603   1.086 -1.4831 -0.6271 -0.2798
 4311TIP3    H212898   1.861   0.598   0.943  2.4778 -0.7410  1.0262
 4312TIP3   OH212899   4.871   5.961   0.729  0.0818  0.0970  0.0394
 4312TIP3    H112900   4.890   5.870   0.705  0.5323  0.4879 -1.0925
 4312TIP3    H212901   4.871   6.008   0.646  1.4719  1.4311  0.7796
 4313TIP3   OH212902   4.370   1.401   2.780  0.5326 -0.4482 -0.0218
 4313TIP3    H112903   4.436   1.446   2.727  1.5617 -0.4516  1.2392
 4313TIP3    H212904   4.320   1.348   2.716  0.6628  0.8344 -1.2062
 4314TIP3   OH212905   3.528   5.111   2.297 -0.4964  0.3995  0.0485
 4314TIP3    H112906   3.608   5.159   2.318 -0.5046  0.9486 -1.1088
 4314TIP3    H212907   3.473   5.119   2.375  0.5443  0.0844  0.8138
 4315TIP3   OH212908   3.396   5.103   1.427  0.2434 -0.2096 -0.4419
 4315TIP3    H112909   3.313   5.072   1.390 -0.5446  1.2109  0.1249
 4315TIP3    H212910   3.432   5.025   1.471 -0.5544 -0.9561 -1.0874
 4316TIP3   OH212911   6.372   4.186   3.149  0.2218  0.4179 -0.3612
 4316TIP3    H112912   6.419   4.136   3.082  1.4462  1.4778 -0.3144
 4316TIP3    H212913   6.302   4.230   3.101 -0.4540 -0.8019 -0.5106
 4317TIP3   OH212914   5.597   5.815   0.459  0.0324 -0.1612 -0.1541
 4317TIP3    H112915   5.561   5.739   0.505  4.5919 -1.4881  1.5002
 4317TIP3    H212916   5.545   5.889   0.490 -2.5442 -2.1709  0.5102
 4318TIP3   OH212917   6.625   6.250   1.998  0.1721  0.8045  0.0982
 4318TIP3    H112918   6.682   6.258   2.074 -0.8008  1.0638  0.8003
 4318TIP3    H212919   6.609   6.156   1.989  0.0083  0.8042  0.4124
 4319TIP3   OH212920   4.716   5.023   5.676  0.5353  0.0768 -0.3278
 4319TIP3    H112921   4.706   5.117   5.692  1.3806 -0.0676  1.0620
 4319TIP3    H212922   4.738   5.017   5.583  0.3557  1.2403 -0.4500
 4320TIP3   OH212923   6.303   6.533   2.545  0.1653  0.7086 -0.3857
 4320TIP3    H112924   6.246   6.503   2.475  0.2710  0.0172 -0.1842
 4320TIP3    H212925   6.244   6.559   2.616  0.0470  1.7824 -0.8761
 4321TIP3   OH212926   5.692   6.062   1.404  0.1974  0.7714  0.8798
 4321TIP3    H112927   5.672   6.042   1.496 -0.1022 -0.5075  0.5406
 4321TIP3    H212928   5.606   6.060   1.360  0.6878 -1.8525 -0.0374
 4322TIP3   OH212929   5.367   3.091   5.850 -0.2337 -0.4045 -0.3431
 4322TIP3    H112930   5.389   3.183   5.860 -0.7077 -0.5332  2.4835
 4322TIP3    H212931   5.449   3.049   5.824  0.3735  0.5992 -0.0743
 4323TIP3   OH212932   4.862   6.904   0.368  0.3028 -0.2527  0.6488
 4323TIP3    H112933   4.890   6.956   0.293 -1.3066 -0.1752  0.0978
 4323TIP3    H212934   4.938   6.904   0.426  0.8540  1.4127 -0.0387
 4324TIP3   OH212935   0.310   1.401   3.513 -0.2894 -0.1554  0.1115
 4324TIP3    H112936   0.290   1.457   3.437  2.3049  0.1087 -0.4088
 4324TIP3    H212937   0.337   1.462   3.581 -0.7509 -0.5448  0.6436
 4325TIP3   OH212938   0.982   3.814   5.264  0.7543 -0.0005  1.0411
 4325TIP3    H112939   1.024   3.868   5.198  1.1506 -1.2466  0.2504
 4325TIP3    H212940   0.927   3.874   5.314 -0.0509  0.8677 -0.8362
 4326TIP3   OH212941   6.302   0.449   4.022 -0.0798 -0.6761  0.3441
 4326TIP3    H112942   6.279   0.447   4.115  1.1860 -2.2666  0.6351
 4326TIP3    H212943   6.397   0.458   4.020 -0.0577 -1.0381 -0.8066
 4327TIP3   OH212944   7.117   4.263   2.906 -0.2598 -0.0545 -0.2689
 4327TIP3    H112945   7.065   4.342   2.894  1.6262  1.0398 -1.4043
 4327TIP3    H212946   7.180   4.285   2.974  2.1167  0.3903 -2.5638
 4328TIP3   OH212947   2.609   4.081   5.990  0.8033  0.0990  0.6994
 4328TIP3    H112948   2.528   4.036   5.966  1.1529  0.2583 -0.8038
 4328TIP3    H212949   2.633   4.043   6.075 -1.5050  0.9505  1.7558
 4329TIP3   OH212950   1.023   0.417   0.138 -0.4271  0.0907 -0.2567
 4329TIP3    H112951   0.934   0.414   0.103  0.3411  1.2098 -2.4085
 4329TIP3    H212952   1.024   0.495   0.194 -0.6282  0.4379 -0.7315
 4330TIP3   OH212953   5.839   3.814   4.658 -0.0194 -0.4626 -0.0981
 4330TIP3    H112954   5.815   3.822   4.750  0.3736  0.7088 -0.0901
 4330TIP3    H212955   5.915   3.872   4.648 -0.8352  0.3843 -1.4475
 4331TIP3   OH212956   0.441   0.406   1.487 -0.2083  0.2645 -0.4502
 4331TIP3    H112957   0.356   0.450   1.478 -0.4172 -0.1513 -0.4822
 4331TIP3    H212958   0.492   0.466   1.542 -0.1677  1.0157 -1.2984
 4332TIP3   OH212959   5.268   4.912   2.850  0.1493 -0.0086 -0.2495
 4332TIP3    H112960   5.268   4.978   2.919  1.8923 -0.0815 -0.1642
 4332TIP3    H212961   5.176   4.884   2.843 -0.2502  0.9480  1.1134
 4333TIP3   OH212962   6.949   1.548   2.831  0.2759 -0.6966  0.8957
 4333TIP3    H112963   6.903   1.600   2.765  0.8645 -0.6574  0.5173
 4333TIP3    H212964   7.037   1.585   2.834  0.1030 -0.3591  2.0786
 4334TIP3   OH212965   5.455   6.622   0.689 -0.1051  0.6073 -0.2207
 4334TIP3    H112966   5.535   6.604   0.739 -0.9297 -2.1033  0.1897
 4334TIP3    H212967   5.476   6.597   0.599 -0.6027 -0.5244 -0.0327
 4335TIP3   OH212968   2.243   3.032   6.067  0.0010 -0.2162 -0.4995
 4335TIP3    H112969   2.161   3.079   6.051 -0.1165 -0.6096 -1.0616
 4335TIP3    H212970   2.291   3.040   5.985  0.4574 -0.1325 -0.2246
 4336TIP3   OH212971   5.989   5.779   0.364 -0.1127 -0.0170  0.2067
 4336TIP3    H112972   6.018   5.843   0.429  1.4590 -0.0428 -0.4377
 4336TIP3    H212973   6.037   5.699   0.385  1.9525  0.5325 -2.1418
 4337TIP3   OH212974   4.208   4.885   2.602 -0.4389 -0.1407 -0.2291
 4337TIP3    H112975   4.212   4.902   2.696 -0.6890 -0.2399 -0.1992
 4337TIP3    H212976   4.244   4.797   2.592 -0.0080  0.0424 -0.2756
 4338TIP3   OH212977   1.261   1.835   5.453 -0.5137  0.1746  0.3082
 4338TIP3    H112978   1.330   1.897   5.474  0.5701 -0.0627 -2.3909
 4338TIP3    H212979   1.212   1.876   5.382 -1.1939 -1.0293  0.0554
 4339TIP3   OH212980   4.772   6.888   2.556  0.0613  0.4508  0.2279
 4339TIP3    H112981   4.695   6.857   2.508 -0.3893  1.6059  0.1921
 4339TIP3    H212982   4.846   6.843   2.515 -0.6070 -0.8038  0.3838
 4340TIP3   OH212983   5.892   4.806   1.747  0.6848  0.2758 -0.0902
 4340TIP3    H112984   5.904   4.894   1.712 -0.3524  0.7943  0.8460
 4340TIP3    H212985   5.805   4.807   1.787 -0.0872 -1.6990 -1.6241
 4341TIP3   OH212986   5.899   1.162   1.432 -0.6870 -0.4001 -0.0582
 4341TIP3    H112987   5.862   1.238   1.478  1.8173  1.7276 -1.3776
 4341TIP3    H212988   5.869   1.171   1.342  1.9528  0.7155 -0.8834
 4342TIP3   OH212989   3.525   4.848   1.499 -0.1517  0.3142  0.1877
 4342TIP3    H112990   3.476   4.767   1.484 -0.2593  0.4166 -0.0145
 4342TIP3    H212991   3.539   4.850   1.594  2.0579 -1.2297 -0.0619
 4343TIP3   OH212992   3.745   6.711   1.158 -0.1200 -0.0738 -0.6591
 4343TIP3    H112993   3.726   6.793   1.113  0.3589 -0.5670 -1.7659
 4343TIP3    H212994   3.840   6.709   1.165 -0.2216  0.4314  1.2116
 4344TIP3   OH212995   5.233   4.738   1.329  0.0457  0.7883  0.4159
 4344TIP3    H112996   5.242   4.832   1.313 -0.3194  0.5396 -1.2981
 4344TIP3    H212997   5.150   4.715   1.288  1.2795 -0.7372 -1.2287
 4345TIP3   OH212998   5.789   5.176   0.485 -0.2131  0.1739  0.6672
 4345TIP3    H112999   5.819   5.254   0.532  0.7270 -1.0075  2.0293
 4345TIP3    H213000   5.825   5.187   0.397  0.9912  0.6653  1.2088
 4346TIP3   OH213001   6.899   0.105   1.979 -0.1613 -0.1042 -0.4670
 4346TIP3    H113002   6.901   0.180   1.919 -2.3396 -0.7188 -1.3279
 4346TIP3    H213003   6.975   0.052   1.953  0.3671  0.9109 -1.0195
 4347TIP3   OH213004   3.217   4.691   1.535 -0.0040 -0.3660  0.5221
 4347TIP3    H113005   3.203   4.719   1.444 -1.6317  1.0060  1.1633
 4347TIP3    H213006   3.283   4.622   1.529  0.5104  0.2601 -1.6257
 4348TIP3   OH213007   4.333   6.130   1.051 -0.1892 -0.6645  0.0898
 4348TIP3    H113008   4.348   6.038   1.031  3.6566  0.4036 -2.5114
 4348TIP3    H213009   4.352   6.138   1.145 -0.9954 -2.5713  0.4295
 4349TIP3   OH213010   4.999   0.252   1.734  0.0016 -0.4413 -0.0533
 4349TIP3    H113011   5.077   0.305   1.719  0.3796 -0.7539  0.7711
 4349TIP3    H213012   5.032   0.169   1.769 -0.7278 -0.3954  0.7685
 4350TIP3   OH213013   1.178   2.473   0.507  0.0162 -0.0144  0.1719
 4350TIP3    H113014   1.156   2.562   0.481  0.9446 -0.0789 -0.8717
 4350TIP3    H213015   1.243   2.444   0.442  0.2415 -1.1963  0.9054
 4351TIP3   OH213016   3.643   3.372   5.489  0.6466  0.2618  0.4507
 4351TIP3    H113017   3.712   3.340   5.431  1.2470  0.2887  1.1393
 4351TIP3    H213018   3.685   3.441   5.541 -1.2695  4.1538 -2.8407
 4352TIP3   OH213019   4.335   6.248   2.323  0.1784  0.5265  0.0764
 4352TIP3    H113020   4.415   6.252   2.270  0.7227 -0.2975  0.8224
 4352TIP3    H213021   4.354   6.182   2.389 -0.5035  1.5364  1.2832
 4353TIP3   OH213022   3.310   4.893   1.744 -0.0526 -0.1228 -0.4757
 4353TIP3    H113023   3.279   4.963   1.687 -1.9621 -0.8902 -0.4138
 4353TIP3    H213024   3.293   4.813   1.695  1.7213 -0.5940 -0.3600
 4354TIP3   OH213025   5.127   5.007   1.802  0.1181  0.2493 -1.0394
 4354TIP3    H113026   5.091   5.079   1.854  3.5865  1.1334  0.2330
 4354TIP3    H213027   5.174   5.050   1.731  0.1333 -0.8265 -1.6810
 4355TIP3   OH213028   0.247   6.091   3.388 -0.2703  0.3335 -0.0591
 4355TIP3    H113029   0.191   6.157   3.430 -0.6554 -0.6599  1.0249
 4355TIP3    H213030   0.187   6.020   3.366  0.2057  0.1816 -0.8768
 4356TIP3   OH213031   6.250   6.606   2.069  0.0997  0.1845 -0.6861
 4356TIP3    H113032   6.214   6.577   2.153 -2.3342  2.8429 -0.7459
 4356TIP3    H213033   6.225   6.538   2.007 -2.6039  0.6616 -0.1918
 4357TIP3   OH213034   5.395   5.586   0.048 -0.6846 -0.5710 -0.0396
 4357TIP3    H113035   5.448   5.649   0.096  0.0361 -1.7272  0.7001
 4357TIP3    H213036   5.351   5.638  -0.020  0.9288  0.4784 -0.2937
 4358TIP3   OH213037   5.989   5.164   3.361 -0.1718  0.6682  0.1419
 4358TIP3    H113038   6.016   5.167   3.453 -0.7985  3.6646  0.2969
 4358TIP3    H213039   5.941   5.082   3.352 -0.7132  0.6810  2.6816
 4359TIP3   OH213040   5.770   0.831   1.800 -0.0275 -0.4483  0.2221
 4359TIP3    H113041   5.793   0.890   1.728  0.1142 -1.6613 -0.7386
 4359TIP3    H213042   5.835   0.851   1.868  1.6873 -1.3133 -1.1003
 4360TIP3   OH213043   7.060   5.736   2.549 -0.0458  0.1430  0.9236
 4360TIP3    H113044   6.986   5.769   2.499  0.1558 -0.7121  0.0468
 4360TIP3    H213045   7.136   5.782   2.513  0.0249 -0.0352  0.8423
 4361TIP3   OH213046   3.480   2.875   6.003 -0.1784 -0.3029 -0.5412
 4361TIP3    H113047   3.402   2.919   5.970  0.0529 -0.9339 -1.9336
 4361TIP3    H213048   3.551   2.906   5.947  0.6694  0.6596  1.0377
 4362TIP3   OH213049   6.059   4.178   2.549  0.4064  0.1473  0.8068
 4362TIP3    H113050   6.051   4.227   2.631  1.0196 -0.3971  1.1971
 4362TIP3    H213051   5.999   4.223   2.489 -0.0198  0.5770  1.5335
 4363TIP3   OH213052   6.765   0.463   4.349  0.6093 -0.3047 -0.0525
 4363TIP3    H113053   6.782   0.464   4.443  2.2217 -0.5726 -0.3398
 4363TIP3    H213054   6.826   0.527   4.313 -0.1877 -0.0120 -0.8944
 4364TIP3   OH213055   4.745   5.062   3.112  0.0768 -1.0453 -0.1245
 4364TIP3    H113056   4.816   5.019   3.159 -0.4590 -1.7980  0.0013
 4364TIP3    H213057   4.704   4.992   3.061 -1.7661 -1.0115  1.2506
 4365TIP3   OH213058   3.427   5.568   2.655  0.0848  0.1229  0.4253
 4365TIP3    H113059   3.465   5.498   2.603 -1.5756 -0.3510 -0.1761
 4365TIP3    H213060   3.490   5.583   2.726  1.0969 -1.0163 -0.2296
 4366TIP3   OH213061   5.549   6.356   1.486  0.4694 -0.3556  0.2910
 4366TIP3    H113062   5.455   6.355   1.470  0.7326  0.7958 -1.4369
 4366TIP3    H213063   5.566   6.278   1.539 -1.2809 -1.1764 -0.3392
 4367TIP3   OH213064   7.229   5.208   2.236  0.2591 -0.6411 -0.1253
 4367TIP3    H113065   7.282   5.188   2.159  1.0182 -0.6081  0.3840
 4367TIP3    H213066   7.158   5.264   2.203  1.9786  1.4244 -0.3885
 4368TIP3   OH213067   4.202   5.469   1.921  0.3901 -0.2888  0.3445
 4368TIP3    H113068   4.209   5.509   1.834  0.5629  0.8278  0.8621
 4368TIP3    H213069   4.198   5.375   1.904 -0.8240 -0.0136 -0.9401
 4369TIP3   OH213070   4.411   4.974   1.244 -0.0170 -0.3386  0.0068
 4369TIP3    H113071   4.402   4.992   1.150  2.1381 -0.1147 -0.1832
 4369TIP3    H213072   4.459   5.049   1.278 -2.1709  0.3410  1.6106
 4370TIP3   OH213073   5.531   2.955   2.355 -1.1262  0.1767  0.0253
 4370TIP3    H113074   5.439   2.954   2.329 -0.5998 -1.1521 -1.8725
 4370TIP3    H213075   5.571   3.022   2.298 -0.6008 -0.4415 -0.3417
 4371TIP3   OH213076   5.030   5.347   3.941 -0.1308 -0.2574  0.1026
 4371TIP3    H113077   5.012   5.272   3.884 -0.5211  0.2323 -0.4162
 4371TIP3    H213078   5.023   5.310   4.030  0.5187 -1.0218 -0.1553
 4372TIP3   OH213079   5.685   2.880   0.233 -0.1627 -0.3051 -0.3030
 4372TIP3    H113080   5.593   2.870   0.211  0.1194  1.2321 -2.3448
 4372TIP3    H213081   5.697   2.974   0.244  1.1051 -0.5148  0.2523
 4373TIP3   OH213082   2.866   2.042   5.556 -0.3128  0.6290  0.6765
 4373TIP3    H113083   2.891   2.133   5.543 -0.0715  0.4996  0.2089
 4373TIP3    H213084   2.946   1.998   5.583 -0.4146  0.5392  0.8363
 4374TIP3   OH213085   5.745   6.664   0.687  0.2979  0.5399  0.4507
 4374TIP3    H113086   5.831   6.645   0.649  0.0750  0.6250 -0.1000
 4374TIP3    H213087   5.730   6.757   0.668 -0.6418  0.1312 -0.9365
 4375TIP3   OH213088   4.085   4.956   1.270 -0.4998 -0.5428  0.2106
 4375TIP3    H113089   4.172   4.923   1.293 -0.2098  0.3680  0.4676
 4375TIP3    H213090   4.099   5.049   1.254 -1.4689 -0.3488  0.4543
 4376TIP3   OH213091   0.062   2.551   0.027 -0.1996  0.3260  0.1969
 4376TIP3    H113092   0.123   2.623   0.013 -0.4182  0.7095  1.1311
 4376TIP3    H213093  -0.021   2.594   0.047 -0.7454 -0.1902 -0.9438
 4377TIP3   OH213094   3.583   1.008   1.480  0.5682  0.4350 -0.1449
 4377TIP3    H113095   3.599   0.941   1.546 -1.4291 -1.4546 -1.4633
 4377TIP3    H213096   3.582   1.091   1.528  0.8722 -0.7188  1.8979
 4378TIP3   OH213097   1.674   1.507   1.009 -0.1865  0.3391  0.3960
 4378TIP3    H113098   1.750   1.449   1.015 -0.2578  0.1729 -0.2894
 4378TIP3    H213099   1.610   1.456   0.959 -0.1061  1.1721 -0.5598
 4379TIP3   OH213100   0.526   5.123   3.321  0.0379  0.3840  0.0278
 4379TIP3    H113101   0.503   5.053   3.382 -2.3871  1.1969  0.0921
 4379TIP3    H213102   0.547   5.198   3.377 -0.5096  0.6392 -0.1131
 4380TIP3   OH213103   3.072   0.772   2.222  0.5784  0.8495 -0.3821
 4380TIP3    H113104   3.093   0.827   2.297 -0.6950  2.1977 -1.0077
 4380TIP3    H213105   2.992   0.725   2.248  1.6779 -0.7787  0.1690
 4381TIP3   OH213106   4.217   6.942   1.092  0.1810  0.0140 -0.1611
 4381TIP3    H113107   4.187   7.031   1.076 -1.6874 -0.1291  2.2658
 4381TIP3    H213108   4.188   6.923   1.182  0.7973 -2.9246 -0.5477
 4382TIP3   OH213109   4.153   5.227   2.727 -0.1650 -0.0418 -0.2225
 4382TIP3    H113110   4.107   5.218   2.644 -1.0354  0.4140  0.2036
 4382TIP3    H213111   4.239   5.263   2.703 -0.1558 -0.5641 -0.9841
 4383TIP3   OH213112   5.361   5.001   2.013 -0.0596 -0.1881 -0.6378
 4383TIP3    H113113   5.388   5.083   1.970 -0.4427 -0.4548 -1.3830
 4383TIP3    H213114   5.312   4.953   1.947  2.6270 -2.3337 -1.1666
 4384TIP3   OH213115   6.791   5.558   1.668 -0.4697  0.3667 -0.2104
 4384TIP3    H113116   6.744   5.614   1.730 -0.7057 -0.5201  0.4145
 4384TIP3    H213117   6.728   5.542   1.597 -0.6587  0.2707 -0.0203
 4385TIP3   OH213118   6.961   6.484   2.256  0.4839  0.4855  0.2112
 4385TIP3    H113119   6.999   6.399   2.230 -0.1320  0.4058 -0.4492
 4385TIP3    H213120   6.923   6.518   2.175 -0.3002  0.8536  0.7321
 4386TIP3   OH213121   4.785   6.200   3.620 -0.0945  0.0460  0.0371
 4386TIP3    H113122   4.879   6.190   3.608 -0.1704  0.0632 -0.5774
 4386TIP3    H213123   4.762   6.135   3.686  0.2607 -0.3262 -0.2032
 4387TIP3   OH213124   5.111   5.378   0.952 -0.2393  0.6132  0.3158
 4387TIP3    H113125   5.056   5.433   1.008  0.0099 -0.2447  1.4328
 4387TIP3    H213126   5.191   5.364   1.002 -0.6136 -1.4065  0.4320
 4388TIP3   OH213127   1.226   0.952   4.773  1.0303  0.1951 -0.0025
 4388TIP3    H113128   1.205   1.023   4.835 -0.6346 -1.5834  1.5345
 4388TIP3    H213129   1.273   0.887   4.825  2.3914  0.0541 -1.3656
 4389TIP3   OH213130   4.241   5.559   3.110 -0.0853  0.0892  0.0929
 4389TIP3    H113131   4.174   5.578   3.044 -1.0162 -0.1120  0.9581
 4389TIP3    H213132   4.193   5.517   3.181  1.2937 -1.7659 -0.0559
 4390TIP3   OH213133   4.366   5.134   3.533  0.2449 -0.2340 -0.0244
 4390TIP3    H113134   4.310   5.075   3.585  2.9265 -1.9223  1.0643
 4390TIP3    H213135   4.356   5.103   3.443 -0.0679 -0.9619  0.2531
 4391TIP3   OH213136   5.712   5.233   2.268 -0.2060 -0.1396 -0.1095
 4391TIP3    H113137   5.702   5.155   2.214  0.2304 -0.0340 -0.3505
 4391TIP3    H213138   5.695   5.306   2.208  1.3503  0.0202 -0.3836
 4392TIP3   OH213139   4.996   4.270   1.224 -0.9939 -0.0966 -0.1025
 4392TIP3    H113140   4.971   4.246   1.135 -2.5643  2.8463 -0.5352
 4392TIP3    H213141   4.913   4.280   1.271 -0.1840 -1.4970  1.6738
 4393TIP3   OH213142   0.331   1.497   1.939  0.4451 -0.1675 -0.4616
 4393TIP3    H113143   0.240   1.509   1.967 -0.0985 -2.7719 -0.9929
 4393TIP3    H213144   0.382   1.502   2.019 -0.5433 -2.1814  0.3182
 4394TIP3   OH213145   6.414   3.112   0.333  0.0049 -0.3466  0.3628
 4394TIP3    H113146   6.402   3.115   0.428  1.3502  2.3543  0.5009
 4394TIP3    H213147   6.496   3.064   0.320 -0.8419 -1.8536  0.4647
 4395TIP3   OH213148   6.247   6.804   2.401 -0.3322  0.1962 -0.1938
 4395TIP3    H113149   6.246   6.728   2.343  2.2353 -0.0289 -0.0266
 4395TIP3    H213150   6.309   6.780   2.471 -1.3649  1.4881  1.1983
 4396TIP3   OH213151   5.184   6.953   2.882  0.1717  0.4477  0.4303
 4396TIP3    H113152   5.145   6.878   2.836  0.6765 -0.1176  0.9196
 4396TIP3    H213153   5.206   7.015   2.812  1.1989 -0.5282 -0.1285
 4397TIP3   OH213154   6.657   0.550   1.982 -0.0612 -0.1542 -0.0755
 4397TIP3    H113155   6.647   0.592   2.067  0.8322 -0.8781  0.4001
 4397TIP3    H213156   6.574   0.566   1.937 -0.1494  1.1204  0.5298
 4398TIP3   OH213157   0.150  -0.002   3.808 -0.4602 -0.2309  0.3978
 4398TIP3    H113158   0.091  -0.059   3.758 -0.1519  0.4106 -0.7099
 4398TIP3    H213159   0.117   0.087   3.792 -1.1804 -0.1059  2.4354
 4399TIP3   OH213160   1.456   0.171   0.564  0.3009  0.7077  0.0743
 4399TIP3    H113161   1.382   0.118   0.594  0.4068  1.9731  2.7240
 4399TIP3    H213162   1.418   0.228   0.496 -0.8770  0.4482  0.4991
 4400TIP3   OH213163   4.576   6.301   2.182  0.0832 -0.0775 -0.6741
 4400TIP3    H113164   4.566   6.251   2.101 -0.5884  1.7990 -1.7590
 4400TIP3    H213165   4.578   6.392   2.155  1.4848  0.5230  1.2808
 4401TIP3   OH213166   1.287   2.024   1.610 -0.5878  0.1255 -0.0379
 4401TIP3    H113167   1.278   1.984   1.697 -1.0162 -0.2194 -0.2397
 4401TIP3    H213168   1.370   1.990   1.577 -0.2487  0.5338  0.3759
 4402TIP3   OH213169   6.264   6.748   1.097  0.1123  0.1150  0.4403
 4402TIP3    H113170   6.276   6.755   1.192  0.8513 -0.2017  0.3786
 4402TIP3    H213171   6.226   6.832   1.071  0.6067  0.4904  0.9168
 4403TIP3   OH213172   5.797   5.655   0.605  0.3700 -0.3982 -0.0680
 4403TIP3    H113173   5.751   5.700   0.535 -1.2187 -1.1476  0.4780
 4403TIP3    H213174   5.861   5.719   0.637 -1.0122  1.0226 -0.1199
 4404TIP3   OH213175   1.349   2.274   4.784 -0.0001  0.3791 -0.1838
 4404TIP3    H113176   1.399   2.275   4.702 -1.1651 -0.2182 -0.9192
 4404TIP3    H213177   1.410   2.307   4.850  1.3813 -0.4030 -1.0433
 4405TIP3   OH213178   3.989   6.601   1.187  0.3275 -0.0062 -0.3237
 4405TIP3    H113179   4.032   6.566   1.265  0.4045 -0.9282 -0.7750
 4405TIP3    H213180   4.046   6.576   1.114  0.0270  0.4609 -0.7218
 4406TIP3   OH213181   5.493   5.450   0.293  0.3743 -0.1422 -0.1057
 4406TIP3    H113182   5.581   5.481   0.273  0.4367 -1.2796 -1.7037
 4406TIP3    H213183   5.437   5.493   0.228 -0.1456 -0.0308  0.4096
 4407TIP3   OH213184   6.678   4.333   0.195 -0.5504  0.0135 -0.2622
 4407TIP3    H113185   6.759   4.358   0.239 -0.6749  0.2421 -0.1589
 4407TIP3    H213186   6.615   4.319   0.267 -1.1475  1.7559 -0.3983
 4408TIP3   OH213187   5.203   2.929   0.306 -0.4741 -0.5114 -0.0875
 4408TIP3    H113188   5.160   3.008   0.337 -0.6197 -0.5950 -0.0776
 4408TIP3    H213189   5.189   2.865   0.375 -1.0584 -0.7876 -0.4601
 4409TIP3   OH213190   5.891   5.381   0.609 -0.2556 -0.2756  0.2592
 4409TIP3    H113191   5.854   5.469   0.611  1.0772  0.4204 -2.8374
 4409TIP3    H213192   5.972   5.388   0.660 -0.1409  0.3200  0.0014
 4410TIP3   OH213193   1.134   1.114   0.662 -0.0043  0.0002  0.1178
 4410TIP3    H113194   1.078   1.175   0.711  0.3299 -0.9886  1.7951
 4410TIP3    H213195   1.201   1.169   0.622  0.5375  0.7014  1.9445
 4411TIP3   OH213196   2.480   0.944   4.946  0.3286 -0.3272 -0.0646
 4411TIP3    H113197   2.537   0.870   4.923  0.6069  0.5088 -2.1220
 4411TIP3    H213198   2.476   0.997   4.867 -1.3117  0.9489  0.8427
 4412TIP3   OH213199   1.287  -0.000   0.768 -1.1154 -0.2632 -0.5198
 4412TIP3    H113200   1.214  -0.061   0.758 -0.2993 -1.6446  1.6417
 4412TIP3    H213201   1.254   0.068   0.826 -1.0340 -0.3293 -0.3950
 4413TIP3   OH213202   5.501   5.425   3.472 -0.7829 -0.0319  0.3319
 4413TIP3    H113203   5.541   5.512   3.476  0.0530 -0.4351  0.9348
 4413TIP3    H213204   5.550   5.373   3.536 -0.7204 -1.1830 -0.6433
 4414TIP3   OH213205   5.979   5.408   2.779 -0.0528  0.3727  0.2315
 4414TIP3    H113206   5.918   5.339   2.805  0.0769 -0.1146 -0.7485
 4414TIP3    H213207   5.927   5.489   2.781 -0.7627 -0.0551 -0.7052
 4415TIP3   OH213208   1.550   0.720   3.030 -0.3714 -0.4668  0.1996
 4415TIP3    H113209   1.464   0.761   3.045 -0.4584 -0.4328 -0.4020
 4415TIP3    H213210   1.613   0.791   3.045 -0.4166 -0.6338  1.2055
 4416TIP3   OH213211   0.202   5.877   0.739  0.3920  0.7494  0.3843
 4416TIP3    H113212   0.249   5.853   0.819  0.6777  0.1338  0.0352
 4416TIP3    H213213   0.242   5.960   0.712  1.6293 -0.0239 -0.1849
 4417TIP3   OH213214   6.910   4.848   1.598 -0.2424  0.6853 -0.5077
 4417TIP3    H113215   6.846   4.896   1.547 -0.8342  0.5526  0.0960
 4417TIP3    H213216   6.947   4.913   1.658 -1.1095  0.3856  0.3728
 4418TIP3   OH213217   3.456   1.396   5.663 -0.2622 -0.1429  0.7471
 4418TIP3    H113218   3.398   1.354   5.726  1.5457 -0.7230  2.0710
 4418TIP3    H213219   3.495   1.324   5.615 -2.5539  0.3325 -1.9546
 4419TIP3   OH213220   2.026   0.684   2.990 -0.4950  0.2380  0.1867
 4419TIP3    H113221   2.103   0.635   2.959 -1.3191  0.4356 -2.3098
 4419TIP3    H213222   1.953   0.624   2.976 -1.2638  1.4359 -1.0406
 4420TIP3   OH213223   5.986   6.201   1.007 -0.1726  0.6634 -0.4175
 4420TIP3    H113224   6.011   6.110   1.020  1.7038  0.7636 -2.9454
 4420TIP3    H213225   6.042   6.250   1.068 -0.2823  0.2241  0.0369
 4421TIP3   OH213226   4.522   2.537   5.407  0.1053  0.2991  0.3103
 4421TIP3    H113227   4.606   2.510   5.445  0.3213  0.8772  0.2455
 4421TIP3    H213228   4.542   2.557   5.316 -0.0035  0.9206  0.4214
 4422TIP3   OH213229   1.012   1.424   2.198  0.1601  0.3863 -0.3860
 4422TIP3    H113230   0.968   1.367   2.260 -2.1427  2.3016 -0.1654
 4422TIP3    H213231   1.030   1.504   2.247  4.5243 -0.4963 -0.3030
 4423TIP3   OH213232   1.743   0.779   0.311 -0.5869 -0.0706  0.0594
 4423TIP3    H113233   1.815   0.745   0.365 -0.5360 -0.2736 -0.1343
 4423TIP3    H213234   1.693   0.835   0.370 -0.3343 -0.0209  0.2266
 4424TIP3   OH213235   6.726   6.691   3.168 -0.4149 -0.2104  0.4347
 4424TIP3    H113236   6.644   6.738   3.152 -0.0792  0.7949  1.5643
 4424TIP3    H213237   6.781   6.754   3.212  0.6953 -1.1391  0.3992
 4425TIP3   OH213238   4.997   5.858   2.052 -0.1399  0.5822 -0.2282
 4425TIP3    H113239   5.025   5.912   1.978 -2.1762  1.1224 -0.6514
 4425TIP3    H213240   4.906   5.835   2.031  0.4106 -2.2768  0.3834
 4426TIP3   OH213241   7.395   5.878   2.127 -0.5823  0.2443 -0.1878
 4426TIP3    H113242   7.362   5.923   2.205 -0.0624 -1.3488  0.9791
 4426TIP3    H213243   7.334   5.806   2.113 -0.2133  0.0448 -0.7891
 4427TIP3   OH213244   7.391   6.357   1.901  0.1867  0.4355  0.0178
 4427TIP3    H113245   7.350   6.436   1.937  1.6037 -0.3321  3.5386
 4427TIP3    H213246   7.422   6.309   1.978  0.7341 -2.8159 -2.1327
 4428TIP3   OH213247   0.401   4.881   3.105  0.1939 -0.0985  0.2058
 4428TIP3    H113248   0.332   4.818   3.130  0.3180 -0.5608 -0.6117
 4428TIP3    H213249   0.482   4.840   3.136  0.0261  0.8598  1.9681
 4429TIP3   OH213250   1.819   5.648   2.933 -0.0562  0.0518  0.2015
 4429TIP3    H113251   1.771   5.566   2.942 -0.1387  0.0850  0.0696
 4429TIP3    H213252   1.845   5.652   2.841 -1.0016  0.6904 -0.0487
 4430TIP3   OH213253   1.482   6.134   2.777 -0.3510  0.7232 -0.5391
 4430TIP3    H113254   1.507   6.163   2.689  0.5354  1.6108 -0.0004
 4430TIP3    H213255   1.505   6.208   2.834 -0.7936  0.0983  0.4507
 4431TIP3   OH213256   6.976   6.029   0.932 -0.3653 -0.0461  0.4459
 4431TIP3    H113257   7.064   6.054   0.962 -0.0781 -0.5545  0.0362
 4431TIP3    H213258   6.946   6.105   0.882  0.1808 -0.1818 -0.1096
 4432TIP3   OH213259   1.991   6.502   2.078 -0.2743 -0.0002  0.2288
 4432TIP3    H113260   1.914   6.534   2.125  0.5326  1.6415  0.4825
 4432TIP3    H213261   2.065   6.529   2.133  0.4221 -3.1764  0.9306
 4433TIP3   OH213262   4.130   2.089   1.401 -0.4408  0.0595  0.6706
 4433TIP3    H113263   4.174   2.092   1.316 -0.8549  1.9929  0.5053
 4433TIP3    H213264   4.070   2.016   1.395 -0.8841  0.5473 -0.9211
 4434TIP3   OH213265   0.341   5.875   3.937  0.1662  0.3970 -0.2823
 4434TIP3    H113266   0.307   5.965   3.935  1.8815  1.0743 -0.1049
 4434TIP3    H213267   0.424   5.880   3.889  0.4923 -1.0091  0.1110
 4435TIP3   OH213268   4.711   1.037   2.946 -0.0848  0.0669 -0.1157
 4435TIP3    H113269   4.641   1.098   2.969 -0.6357 -0.2436 -0.9411
 4435TIP3    H213270   4.676   0.950   2.967  0.4316 -0.0181  0.4043
 4436TIP3   OH213271   2.396   0.191   2.989  0.5180  0.0707  0.1129
 4436TIP3    H113272   2.470   0.226   2.939  0.7511 -2.5573 -1.5032
 4436TIP3    H213273   2.321   0.242   2.960  1.3984  1.6733  0.5658
 4437TIP3   OH213274   2.708   5.500   3.154  0.4333 -0.4931  0.0437
 4437TIP3    H113275   2.746   5.549   3.082  1.7230  1.2792  1.8498
 4437TIP3    H213276   2.747   5.413   3.148  2.1315  0.2620 -0.1851
 4438TIP3   OH213277   2.616   5.405   2.806  0.3901 -0.2492  0.3084
 4438TIP3    H113278   2.584   5.419   2.717  0.8494  0.3819  0.2394
 4438TIP3    H213279   2.626   5.493   2.843 -0.7227 -0.5301  1.3172
 4439TIP3   OH213280   1.954   5.810   3.429  0.0042 -0.1083  0.0206
 4439TIP3    H113281   2.025   5.870   3.408  0.7142 -0.3304  1.6738
 4439TIP3    H213282   1.917   5.785   3.345  0.5059  1.6709 -0.7370
 4440TIP3   OH213283   1.370   5.812   3.288 -0.1330 -0.7363 -0.5266
 4440TIP3    H113284   1.348   5.812   3.195 -1.0219  0.4334 -0.3212
 4440TIP3    H213285   1.421   5.892   3.301 -1.2569 -0.1520  0.2779
 4441TIP3   OH213286   3.039   1.079   2.859 -0.1877 -0.2363  0.2092
 4441TIP3    H113287   3.022   1.171   2.840  2.5442  0.5668  1.4213
 4441TIP3    H213288   2.989   1.031   2.793 -0.2729  2.1361 -1.5071
 4442TIP3   OH213289   1.402   6.114   3.785 -0.0613 -0.1417  0.4299
 4442TIP3    H113290   1.313   6.079   3.788  0.2122 -0.7603  2.0687
 4442TIP3    H213291   1.448   6.056   3.725 -0.8917  0.5169 -0.8623
 4443TIP3   OH213292   6.532   5.291   2.262 -0.2391  0.5314  0.0139
 4443TIP3    H113293   6.562   5.203   2.240 -1.8381  0.1854 -0.9297
 4443TIP3    H213294   6.588   5.319   2.335  0.4791 -1.1427  0.1221
 4444TIP3   OH213295   4.712   2.205   1.252 -0.0927  0.6505  0.1714
 4444TIP3    H113296   4.739   2.151   1.326 -1.0210 -0.9732 -0.6469
 4444TIP3    H213297   4.624   2.236   1.276 -0.5214 -0.1327 -0.3871
 4445TIP3   OH213298   4.746   6.590   2.408  0.5162 -0.1844  0.3558
 4445TIP3    H113299   4.720   6.621   2.321  2.0667 -1.0718 -0.4498
 4445TIP3    H213300   4.788   6.505   2.391  2.8712  0.6600  1.6822
 4446TIP3   OH213301   5.601   4.235   1.229 -0.3291 -0.3685  0.2608
 4446TIP3    H113302   5.682   4.199   1.195  0.2741  1.6325 -0.5236
 4446TIP3    H213303   5.534   4.206   1.168  0.4511  1.4687 -1.5379
 4447TIP3   OH213304   0.450   6.385   2.077  0.1795  0.1345 -0.6335
 4447TIP3    H113305   0.429   6.469   2.117  0.1875 -0.2477  0.2035
 4447TIP3    H213306   0.505   6.406   2.002 -0.7751  0.9466 -1.1106
 4448TIP3   OH213307   3.795   1.214   3.064 -0.1124  0.0183 -0.2053
 4448TIP3    H113308   3.795   1.121   3.042 -0.1182  0.3815 -1.7645
 4448TIP3    H213309   3.807   1.259   2.981 -0.1785  1.4255  0.5262
 4449TIP3   OH213310   1.851   6.884   3.092  0.1931 -0.0799 -0.1892
 4449TIP3    H113311   1.909   6.840   3.155  0.9889  1.5258  0.2263
 4449TIP3    H213312   1.769   6.836   3.097  0.8076 -1.0581  0.7930
 4450TIP3   OH213313   4.379   0.227   1.970  0.0147 -0.0126  0.6778
 4450TIP3    H113314   4.362   0.146   2.019  0.1477  0.3635  1.3437
 4450TIP3    H213315   4.473   0.228   1.956 -0.0641 -0.3066  0.0769
 4451TIP3   OH213316   3.205   0.528   1.539  0.1248 -0.0839  0.3463
 4451TIP3    H113317   3.236   0.439   1.557  0.0838 -0.1402  0.1471
 4451TIP3    H213318   3.258   0.584   1.595  0.4228 -0.1997  0.1835
 4452TIP3   OH213319   0.462   6.193   0.966  0.1206  0.4276 -0.0701
 4452TIP3    H113320   0.427   6.201   1.055 -0.0472  0.9763 -0.1814
 4452TIP3    H213321   0.554   6.173   0.977 -0.4018 -1.9736  0.2398
 4453TIP3   OH213322   2.413   6.779   2.747  0.3799  0.3246  0.2131
 4453TIP3    H113323   2.375   6.700   2.784  0.7120 -0.3439 -0.8402
 4453TIP3    H213324   2.383   6.850   2.804  1.9641 -0.8100  2.5190
 4454TIP3   OH213325   5.416   1.086   1.394 -0.0235  0.3843 -0.1916
 4454TIP3    H113326   5.343   1.133   1.435 -0.3944 -0.1998 -0.1700
 4454TIP3    H213327   5.435   1.014   1.454  0.4034  0.3843 -0.3260
 4455TIP3   OH213328   4.879   6.143   0.036 -0.0857 -0.2664  0.0784
 4455TIP3    H113329   4.930   6.137  -0.044  0.9622 -0.2180  0.7322
 4455TIP3    H213330   4.944   6.145   0.106 -0.9539  0.5486  0.8850
 4456TIP3   OH213331   5.197   0.908   1.141  0.3701  0.4290 -0.1474
 4456TIP3    H113332   5.183   0.999   1.116 -0.7316  0.2120 -0.3358
 4456TIP3    H213333   5.115   0.881   1.182  0.4477 -0.6822 -0.7044
 4457TIP3   OH213334   4.337   6.547   3.120 -0.0276  0.0209 -0.4813
 4457TIP3    H113335   4.315   6.541   3.027 -0.6943 -0.4894 -0.2939
 4457TIP3    H213336   4.346   6.641   3.136  0.9594  0.0689 -1.2545
 4458TIP3   OH213337   3.715   6.279   2.466 -0.4690 -0.3409  0.7652
 4458TIP3    H113338   3.688   6.334   2.393  1.5394 -0.4076 -0.0672
 4458TIP3    H213339   3.725   6.192   2.429 -0.6844 -0.6474  1.4127
 4459TIP3   OH213340   4.893   6.518   1.972  0.1050 -0.0172  0.0727
 4459TIP3    H113341   4.800   6.506   1.992  0.0412  1.0259  0.4369
 4459TIP3    H213342   4.938   6.489   2.051 -0.0213  1.5131  0.7247
 4460TIP3   OH213343   0.798   0.600   1.134  0.3730 -0.8527  0.3535
 4460TIP3    H113344   0.888   0.629   1.124  0.0771  0.7705  2.1949
 4460TIP3    H213345   0.749   0.653   1.070  0.5915 -1.1243 -0.0423
 4461TIP3   OH213346   5.244   0.886   2.219 -0.3001 -0.5655  0.3992
 4461TIP3    H113347   5.273   0.937   2.294  0.7785  0.6545 -0.8058
 4461TIP3    H213348   5.175   0.939   2.179  2.3146  1.1323 -2.1260
 4462TIP3   OH213349   0.147   0.699   2.263  0.9031  0.0424  0.0450
 4462TIP3    H113350   0.235   0.671   2.238  1.3638  0.1269  1.5212
 4462TIP3    H213351   0.118   0.634   2.326  0.3457  0.6118  0.3863
 4463TIP3   OH213352   4.505   6.771   0.779 -0.1878 -0.0577 -0.4853
 4463TIP3    H113353   4.579   6.823   0.750 -1.2367  1.1603 -1.0290
 4463TIP3    H213354   4.501   6.698   0.717 -0.2658  0.6206 -1.2946
 4464TIP3   OH213355   0.278   0.263   0.830  0.3838  0.1927 -0.2870
 4464TIP3    H113356   0.262   0.293   0.920  1.0057  2.1630 -0.8032
 4464TIP3    H213357   0.190   0.255   0.792  0.2038  1.5435 -0.1743
 4465TIP3   OH213358   4.089   6.608   1.761 -0.2033 -0.0498 -0.2973
 4465TIP3    H113359   4.074   6.568   1.847 -0.9627 -1.2226 -0.9530
 4465TIP3    H213360   4.183   6.624   1.757 -0.0202 -0.9341  0.3624
 4466TIP3   OH213361   4.755   1.348   2.453  0.0157  0.6060  0.2382
 4466TIP3    H113362   4.841   1.306   2.456 -0.2706 -0.0056 -0.2071
 4466TIP3    H213363   4.731   1.360   2.545 -0.1587 -0.7093  0.3612
 4467TIP3   OH213364   4.566   5.976   0.812 -0.1262  0.0047 -0.0487
 4467TIP3    H113365   4.659   5.958   0.797 -0.2893 -0.9744  0.0633
 4467TIP3    H213366   4.548   5.937   0.898 -0.2881  1.5052  0.6092
 4468TIP3   OH213367   5.501   1.919   2.524  0.3705 -0.2634 -0.4242
 4468TIP3    H113368   5.456   1.882   2.448  1.7757  0.4575 -1.6489
 4468TIP3    H213369   5.504   1.848   2.588  0.1753 -1.2437 -1.4923
 4469TIP3   OH213370   2.976   5.270   2.265  0.6718 -0.1831  0.5345
 4469TIP3    H113371   2.989   5.223   2.182  1.0838 -0.0058  0.4974
 4469TIP3    H213372   3.034   5.346   2.259  1.6113 -0.8053  1.4728
 4470TIP3   OH213373   4.405   6.392   1.431 -0.3466 -0.2172 -0.2297
 4470TIP3    H113374   4.464   6.453   1.388  0.5283 -0.0227  1.2278
 4470TIP3    H213375   4.318   6.420   1.403  0.0797  1.3201 -0.0627
 4471TIP3   OH213376   5.682   0.023   2.020  0.0333 -0.1855 -0.2090
 4471TIP3    H113377   5.651   0.084   2.087 -2.3712 -0.1164 -1.3290
 4471TIP3    H213378   5.749   0.072   1.972  0.4079  0.4305  0.9284
 4472TIP3   OH213379   3.655   6.460   2.245  0.5913  0.4254  0.3547
 4472TIP3    H113380   3.710   6.534   2.220 -0.8142  0.1771 -3.9256
 4472TIP3    H213381   3.576   6.470   2.192  0.4242 -4.1963 -0.5056
 4473TIP3   OH213382   4.054   6.914   3.716 -0.4956  0.0914 -0.0864
 4473TIP3    H113383   4.031   7.000   3.751  1.9229  1.0904 -0.8422
 4473TIP3    H213384   4.033   6.853   3.786  1.1762  1.7082  1.9102
 4474TIP3   OH213385   7.134   0.220   2.710 -0.1150  0.1609 -0.2078
 4474TIP3    H113386   7.066   0.232   2.643 -0.7638 -0.7920  0.2541
 4474TIP3    H213387   7.130   0.126   2.731 -0.2250  0.5206  1.4835
 4475TIP3   OH213388   5.519   5.332   3.161  0.6355 -0.3944 -0.3547
 4475TIP3    H113389   5.613   5.325   3.147  0.7261 -0.0050  0.0516
 4475TIP3    H213390   5.497   5.422   3.135  0.5713 -0.1154  0.6506
 4476TIP3   OH213391   2.191   0.156   3.440  0.0013  0.5564  0.0092
 4476TIP3    H113392   2.200   0.251   3.449 -0.4032  0.6272 -0.2672
 4476TIP3    H213393   2.194   0.141   3.345 -1.8883  0.5145 -0.0696
 4477TIP3   OH213394   4.704   6.256   1.229  0.2023 -0.1942 -1.0028
 4477TIP3    H113395   4.645   6.332   1.227  0.0200 -0.3443 -1.3814
 4477TIP3    H213396   4.735   6.248   1.138  0.9696  0.0103 -0.7630
 4478TIP3   OH213397   0.921   0.942   1.265  0.0336 -0.6729 -0.3180
 4478TIP3    H113398   0.932   0.854   1.302 -0.5008 -0.4875  0.2780
 4478TIP3    H213399   0.827   0.959   1.269  0.1566  0.0141 -0.2457
 4479TIP3   OH213400   6.357   6.830   1.712  0.2716 -0.4515  0.1416
 4479TIP3    H113401   6.337   6.851   1.803  1.9595  1.7161  0.0749
 4479TIP3    H213402   6.291   6.878   1.662  1.6850  1.5872  0.1388
 4480TIP3   OH213403   5.742   4.891   0.505  0.4730 -0.4392 -0.1952
 4480TIP3    H113404   5.653   4.899   0.471  0.4454 -0.8995 -0.2403
 4480TIP3    H213405   5.776   4.980   0.505  0.1831 -0.3274 -0.6358
 4481TIP3   OH213406   6.113   5.807   2.600 -0.1150 -0.4002 -0.3128
 4481TIP3    H113407   6.021   5.821   2.625 -0.0654 -1.0885  0.2789
 4481TIP3    H213408   6.112   5.722   2.557  0.1717 -0.1972 -0.7185
 4482TIP3   OH213409   0.124   0.921   2.911 -0.3575  0.3801 -0.1043
 4482TIP3    H113410   0.218   0.902   2.913 -0.6753 -1.4834 -1.0759
 4482TIP3    H213411   0.118   1.009   2.874  0.9848  0.3580 -0.4115
 4483TIP3   OH213412   4.798   2.743   5.662 -0.5036  0.4724 -0.5053
 4483TIP3    H113413   4.730   2.686   5.697 -1.0231  0.9890 -0.6658
 4483TIP3    H213414   4.876   2.723   5.714 -0.5885 -0.6211 -0.7784
 4484TIP3   OH213415   4.974   5.679   0.771  0.3625  0.3536 -0.7155
 4484TIP3    H113416   4.920   5.626   0.713  0.0062  0.3935 -0.4235
 4484TIP3    H213417   4.922   5.687   0.851  0.9514  0.1114 -0.3143
 4485TIP3   OH213418   5.526   6.770   1.385  0.3155 -0.1980  0.8545
 4485TIP3    H113419   5.549   6.812   1.468  0.7963  0.2435  0.5013
 4485TIP3    H213420   5.600   6.789   1.327  0.6325 -1.7087  0.7417
 4486TIP3   OH213421   4.109   4.829   1.909  0.3814  0.0658  0.1890
 4486TIP3    H113422   4.175   4.851   1.974 -0.1499 -0.0558  0.7819
 4486TIP3    H213423   4.102   4.907   1.854  2.7865 -0.8274 -1.4207
 4487TIP3   OH213424   0.359   0.613   0.261  0.3803  0.6345 -0.4096
 4487TIP3    H113425   0.268   0.596   0.286  0.1695  1.3884 -0.6325
 4487TIP3    H213426   0.398   0.527   0.248 -0.3504  0.3157 -0.4786
 4488TIP3   OH213427   4.343   6.398   3.364  0.4172 -0.6090  0.1312
 4488TIP3    H113428   4.437   6.385   3.373  0.3411 -1.9886 -0.8649
 4488TIP3    H213429   4.332   6.437   3.277 -0.2878 -5.2944 -2.0094
 4489TIP3   OH213430   4.864   2.344   4.107  0.3350 -0.2666 -0.0067
 4489TIP3    H113431   4.861   2.252   4.133  0.0081  0.7428  3.6747
 4489TIP3    H213432   4.784   2.382   4.143 -0.4330  1.1674 -2.9927
 4490TIP3   OH213433   4.140   4.234   2.363 -0.5558  0.3961  0.0900
 4490TIP3    H113434   4.056   4.247   2.407  0.4048  1.1502  1.7211
 4490TIP3    H213435   4.173   4.322   2.348 -0.2726  0.1176 -1.0293
 4491TIP3   OH213436   3.781   0.041   4.115  0.0014 -0.0159 -0.3868
 4491TIP3    H113437   3.697   0.010   4.149 -0.2487  1.5211  0.4639
 4491TIP3    H213438   3.845  -0.024   4.143 -0.8095 -0.8270 -0.4263
 4492TIP3   OH213439   2.089   6.589   0.189 -0.6074 -0.3539 -0.3998
 4492TIP3    H113440   2.008   6.539   0.203 -1.7364  1.8302  1.1109
 4492TIP3    H213441   2.133   6.588   0.274 -1.1682  2.0733 -0.0400
 4493TIP3   OH213442   1.619   0.261   5.930 -0.4081 -0.0473 -0.4544
 4493TIP3    H113443   1.611   0.321   6.004 -0.3266 -0.3581 -0.1934
 4493TIP3    H213444   1.596   0.175   5.965  0.2914 -0.3099 -0.6201
 4494TIP3   OH213445   5.350   2.741   0.881 -0.0026  0.2354 -0.0177
 4494TIP3    H113446   5.303   2.825   0.876  0.7784  0.7132  0.4819
 4494TIP3    H213447   5.413   2.754   0.952  0.1392 -0.7728  0.0356
 4495TIP3   OH213448   3.595   3.691   0.966 -0.0595 -0.4057 -0.5066
 4495TIP3    H113449   3.654   3.638   0.911 -0.8211 -0.5816 -1.1654
 4495TIP3    H213450   3.534   3.627   1.004 -0.3148 -0.1280 -0.4504
 4496TIP3   OH213451   0.695   0.538   5.161 -0.0254  0.1185 -0.1211
 4496TIP3    H113452   0.608   0.540   5.200 -0.1778 -1.8537 -0.3238
 4496TIP3    H213453   0.725   0.629   5.164 -1.0739  0.4115  2.2187
 4497TIP3   OH213454   1.723   0.341   4.290  0.0781 -0.0130 -0.5344
 4497TIP3    H113455   1.762   0.397   4.224  2.4659 -0.1127  0.7624
 4497TIP3    H213456   1.639   0.382   4.311 -0.0206  0.8182 -2.5249
 4498TIP3   OH213457   0.802   0.706   4.212  0.0272 -0.5676 -0.1472
 4498TIP3    H113458   0.887   0.742   4.188  0.3869 -2.1202 -1.2246
 4498TIP3    H213459   0.775   0.758   4.288  1.4300  0.6448 -0.4511
 4499TIP3   OH213460   1.714   0.545   5.186  0.3497 -0.3541 -0.0090
 4499TIP3    H113461   1.673   0.521   5.269  1.6055 -0.2486  0.6503
 4499TIP3    H213462   1.786   0.603   5.210 -0.0291  0.6480 -1.2704
 4500TIP3   OH213463   6.296   5.438   3.155  0.0099  0.0645 -0.0877
 4500TIP3    H113464   6.391   5.425   3.161 -0.0634 -0.9108 -0.7965
 4500TIP3    H213465   6.272   5.392   3.075 -1.1579 -0.2144  0.4262
 4501TIP3   OH213466   1.584   1.383   4.704 -0.0304  0.3267 -0.3080
 4501TIP3    H113467   1.527   1.306   4.711  0.7172 -0.1604  0.5171
 4501TIP3    H213468   1.536   1.452   4.751  0.3565 -0.2713  1.0078
 4502TIP3   OH213469   3.417   2.218   0.474  0.1443  0.4843  0.4338
 4502TIP3    H113470   3.330   2.203   0.513  1.0397 -0.9311  1.9911
 4502TIP3    H213471   3.431   2.140   0.420  0.3117  0.8679 -0.0691
 4503TIP3   OH213472   7.327   1.918   5.496  0.0786 -0.3750 -0.0126
 4503TIP3    H113473   7.275   1.928   5.576 -0.6959 -0.0966 -0.5446
 4503TIP3    H213474   7.369   2.004   5.484  1.6810 -0.9689  1.0999
 4504TIP3   OH213475   2.512   0.893   4.499  0.4587 -0.1057 -0.2278
 4504TIP3    H113476   2.572   0.924   4.431 -0.1587  1.4239 -0.1057
 4504TIP3    H213477   2.569   0.869   4.572  1.0167 -0.0267 -0.6376
 4505TIP3   OH213478   4.921   4.013   1.142 -0.0667 -0.3416 -0.1226
 4505TIP3    H113479   4.966   4.084   1.186  2.6794 -1.5498 -0.8501
 4505TIP3    H213480   4.901   3.950   1.212  0.4733 -0.3600  0.0114
 4506TIP3   OH213481   0.294   1.919   3.587 -0.0102  0.1597  0.1827
 4506TIP3    H113482   0.366   1.861   3.613 -1.5983 -1.3738  1.2980
 4506TIP3    H213483   0.294   1.988   3.653  1.1397  0.7732 -0.4610
 4507TIP3   OH213484   5.101   4.755   0.232  0.2770  0.1362 -0.3593
 4507TIP3    H113485   5.094   4.673   0.183 -0.3203  0.2293 -0.4313
 4507TIP3    H213486   5.192   4.758   0.260  0.5035 -0.1532 -1.0538
 4508TIP3   OH213487   7.359   4.918   0.189 -0.1195 -0.2809  0.2580
 4508TIP3    H113488   7.398   4.912   0.102  0.4278 -1.1404  0.5546
 4508TIP3    H213489   7.432   4.938   0.248  0.1222 -3.0685  0.9784
 4509TIP3   OH213490   2.429   3.296   0.357 -0.2611 -0.2612  0.8766
 4509TIP3    H113491   2.349   3.245   0.341 -0.3291  0.1854 -0.2559
 4509TIP3    H213492   2.471   3.302   0.272  2.0078 -2.1645  1.8146
 4510TIP3   OH213493   4.760   2.961   2.108  0.0609 -0.2806 -0.8749
 4510TIP3    H113494   4.779   2.903   2.181 -0.3058 -0.4743 -0.9331
 4510TIP3    H213495   4.728   3.042   2.149  0.8144 -0.0247 -0.7854
 4511TIP3   OH213496   1.556   1.685   5.383 -0.4718  0.5368 -0.5015
 4511TIP3    H113497   1.501   1.660   5.458 -1.5930  0.8723 -1.2037
 4511TIP3    H213498   1.615   1.611   5.371 -0.2778  0.4798  0.7150
 4512TIP3   OH213499   0.487   1.918   3.116 -0.1212  0.4439  0.6728
 4512TIP3    H113500   0.401   1.947   3.147 -0.5502 -0.5801  0.4877
 4512TIP3    H213501   0.484   1.822   3.124  0.1460  0.2239 -1.5084
 4513TIP3   OH213502   2.173   2.089   3.495  0.0497  0.3284  0.1155
 4513TIP3    H113503   2.100   2.143   3.467  1.4523  0.9777 -2.3873
 4513TIP3    H213504   2.140   1.999   3.492 -1.5624  0.8244  2.0166
 4514TIP3   OH213505   5.366   4.739   2.407  0.0143  0.5335 -0.8989
 4514TIP3    H113506   5.292   4.710   2.355  0.8031 -0.2700 -1.5864
 4514TIP3    H213507   5.442   4.728   2.350  0.6514  1.4523 -0.2428
 4515TIP3   OH213508   0.650   5.085   4.261  0.1597  0.2075  0.2870
 4515TIP3    H113509   0.605   5.008   4.228  0.6764  0.4592 -1.0116
 4515TIP3    H213510   0.628   5.087   4.355  0.1342 -1.5023  0.3354
 4516TIP3   OH213511   3.999   3.951   1.305  0.4211 -0.4233 -0.2558
 4516TIP3    H113512   3.975   3.939   1.397 -1.8326  0.4062 -0.7040
 4516TIP3    H213513   3.975   4.041   1.285  1.0646 -0.5343 -1.6253
 4517TIP3   OH213514   4.618   3.950   0.129  0.2727  0.0692 -0.2455
 4517TIP3    H113515   4.639   4.001   0.051  1.7582 -0.6797 -0.3648
 4517TIP3    H213516   4.601   4.015   0.197 -1.0402  0.7239 -1.1968
 4518TIP3   OH213517   1.584   6.496   5.816  0.1194  0.3075  0.2776
 4518TIP3    H113518   1.606   6.562   5.882 -2.8039  0.1525  1.4824
 4518TIP3    H213519   1.646   6.425   5.831  0.1597  0.7325  2.1543
 4519TIP3   OH213520   3.564   2.808   4.510  0.7271 -0.3871 -0.4193
 4519TIP3    H113521   3.630   2.755   4.466  0.3298  0.5112 -2.1368
 4519TIP3    H213522   3.490   2.748   4.523  0.7117 -0.5576 -1.2994
 4520TIP3   OH213523   3.938   5.523   0.105 -0.3670  0.4611 -0.0011
 4520TIP3    H113524   3.893   5.497   0.024 -0.9908  1.7710 -0.0783
 4520TIP3    H213525   3.993   5.597   0.079 -0.7740  1.0550  0.8273
 4521TIP3   OH213526   4.798   4.637   0.049 -0.6625 -0.1931  0.2619
 4521TIP3    H113527   4.785   4.642   0.144 -0.4821 -0.4316  0.3015
 4521TIP3    H213528   4.796   4.727   0.019  0.3782 -0.0341  0.6443
 4522TIP3   OH213529   0.614   5.396   3.409  0.2926 -0.0909 -0.0541
 4522TIP3    H113530   0.537   5.441   3.443 -0.5069 -0.0539 -1.8979
 4522TIP3    H213531   0.662   5.463   3.361  0.2205 -0.6697 -0.9527
 4523TIP3   OH213532   7.272   2.180   4.633 -0.4096 -0.5838  0.6820
 4523TIP3    H113533   7.303   2.145   4.549 -0.7657 -0.2309  0.4046
 4523TIP3    H213534   7.345   2.233   4.666 -0.7901  0.4093 -0.0631
 4524TIP3   OH213535   2.032   0.328   5.496 -0.3084 -0.6250 -0.2275
 4524TIP3    H113536   2.102   0.264   5.507 -0.6231 -0.6683  1.7697
 4524TIP3    H213537   2.076   0.408   5.468  0.4010 -0.9704 -0.0903
 4525TIP3   OH213538   1.999   0.870   4.369 -0.3107  0.4471  0.4117
 4525TIP3    H113539   1.943   0.818   4.426 -1.2412  0.2112 -0.6811
 4525TIP3    H213540   2.019   0.811   4.295 -0.0319  1.1013 -0.0394
 4526TIP3   OH213541   1.738   0.457   4.896  0.0945 -0.1475 -0.3863
 4526TIP3    H113542   1.725   0.482   4.987 -1.2628  0.5082 -0.7434
 4526TIP3    H213543   1.651   0.434   4.864  1.0178 -3.7445 -0.5748
 4527TIP3   OH213544   2.605   5.475   0.280 -0.1125 -0.1285 -0.7397
 4527TIP3    H113545   2.696   5.451   0.294  0.4096  2.1234 -0.0663
 4527TIP3    H213546   2.562   5.393   0.256  1.8809 -1.3912 -0.1246
 4528TIP3   OH213547   3.745   4.118   0.076  0.8837  0.1954 -0.6817
 4528TIP3    H113548   3.715   4.048   0.134  1.4960  0.2522 -0.2835
 4528TIP3    H213549   3.735   4.198   0.128 -1.8524  0.6915 -1.9039
 4529TIP3   OH213550   6.946   6.640   3.487  0.1138 -0.3992 -0.4900
 4529TIP3    H113551   6.963   6.727   3.524 -1.6690 -0.4641  0.5133
 4529TIP3    H213552   6.896   6.658   3.407 -0.6424 -0.5239 -0.0454
 4530TIP3   OH213553   4.370   5.662   0.265 -0.7660  0.0924 -0.2577
 4530TIP3    H113554   4.277   5.641   0.258 -1.0271  0.9792  0.5334
 4530TIP3    H213555   4.377   5.753   0.237  0.0973 -0.4299 -1.8181
 4531TIP3   OH213556   2.019   2.900   3.379 -0.0448  0.5498 -0.1381
 4531TIP3    H113557   2.077   2.942   3.315 -0.4127 -1.6383 -1.9537
 4531TIP3    H213558   1.992   2.972   3.436 -0.0850  2.6673 -2.7016
 4532TIP3   OH213559   1.510   0.497   3.949  0.3018  0.3792  0.0533
 4532TIP3    H113560   1.535   0.587   3.969 -0.0299  0.8096 -1.4254
 4532TIP3    H213561   1.580   0.465   3.892  0.8555 -0.5870  1.2509
 4533TIP3   OH213562   0.785   0.006   2.273 -0.1602 -0.8453  0.6227
 4533TIP3    H113563   0.854   0.017   2.207  1.0158 -4.1120  1.1839
 4533TIP3    H213564   0.707   0.043   2.233  1.4924  1.3117 -0.7727
 4534TIP3   OH213565   7.372   0.672   3.590 -0.4483 -0.5394 -0.2002
 4534TIP3    H113566   7.315   0.720   3.650  0.2747  1.0297 -0.7174
 4534TIP3    H213567   7.325   0.673   3.506  0.0426  0.2184 -0.4741
 4535TIP3   OH213568   0.948   1.605   5.091 -0.1128 -0.1532 -0.1170
 4535TIP3    H113569   0.988   1.690   5.075 -0.7112  0.0710 -0.4466
 4535TIP3    H213570   1.022   1.546   5.107  0.2865  0.4865  0.4144
 4536TIP3   OH213571   2.012   1.431   4.367  0.4758  0.3442  0.2190
 4536TIP3    H113572   1.928   1.459   4.403  0.5646  2.7216 -1.2805
 4536TIP3    H213573   1.999   1.340   4.342 -2.0017  1.0011 -0.9665
 4537TIP3   OH213574   5.048   4.490   0.153  0.1551 -0.2813  0.2983
 4537TIP3    H113575   5.073   4.418   0.094  1.3437  0.2739  0.1165
 4537TIP3    H213576   4.967   4.524   0.116  0.8509  0.0034 -0.9875
 4538TIP3   OH213577   5.762   6.082   0.747 -0.4916  0.4781  0.2748
 4538TIP3    H113578   5.784   6.168   0.784  0.3978 -0.4556  1.9425
 4538TIP3    H213579   5.820   6.073   0.671  0.2998  0.8299  0.8292
 4539TIP3   OH213580   6.803   6.747   4.229 -0.0839  0.7521  0.2508
 4539TIP3    H113581   6.880   6.710   4.273 -0.9324  0.1022  1.2303
 4539TIP3    H213582   6.833   6.830   4.194  0.4722  1.5856  2.6360
 4540TIP3   OH213583   1.410   6.266   5.608  0.1035 -0.1280  0.4725
 4540TIP3    H113584   1.354   6.201   5.651 -1.8665  1.5960  0.5942
 4540TIP3    H213585   1.400   6.345   5.660  3.0378  0.1316  0.7238
 4541TIP3   OH213586   7.308   6.664   3.693 -0.6827  0.5244 -0.0035
 4541TIP3    H113587   7.350   6.611   3.626 -1.1568 -0.0416  0.1417
 4541TIP3    H213588   7.250   6.723   3.645 -2.7586 -1.4381  0.0252
 4542TIP3   OH213589   1.083   2.006   3.159  0.6517 -0.4850  0.0740
 4542TIP3    H113590   1.133   1.971   3.232  1.3521  0.3269 -0.0069
 4542TIP3    H213591   1.015   1.941   3.143 -0.8618  0.3376  2.8613
 4543TIP3   OH213592   5.631   2.701   1.660  1.0754  0.0764  0.8898
 4543TIP3    H113593   5.659   2.744   1.741 -1.3517  1.6841  0.9122
 4543TIP3    H213594   5.569   2.633   1.689 -0.7734  1.4815  0.3379
 4544TIP3   OH213595   6.353   5.970   5.873 -0.0409 -0.0156 -0.2303
 4544TIP3    H113596   6.306   5.890   5.848  1.3642 -0.0948 -2.8372
 4544TIP3    H213597   6.438   5.939   5.904 -0.1935  0.3582  0.5570
 4545TIP3   OH213598   1.998   0.539   0.677  0.1926 -0.1879  0.1329
 4545TIP3    H113599   1.987   0.475   0.747  0.0268  0.0858  0.3610
 4545TIP3    H213600   2.082   0.581   0.697  0.3485 -0.4076 -0.0727
 4546TIP3   OH213601   3.831   5.150   1.203 -0.7966  0.0758 -0.1275
 4546TIP3    H113602   3.898   5.132   1.136 -1.2696 -1.2969 -0.2482
 4546TIP3    H213603   3.823   5.068   1.252 -0.6582  0.9897  1.4436
 4547TIP3   OH213604   0.842   1.522   5.342 -0.0933 -0.3942  0.1233
 4547TIP3    H113605   0.830   1.511   5.248  1.1914  3.0677 -0.5334
 4547TIP3    H213606   0.934   1.504   5.358 -0.5156 -1.9401  0.9062
 4548TIP3   OH213607   0.099   5.989   4.142 -0.0830 -0.4332 -0.0016
 4548TIP3    H113608   0.115   6.002   4.235 -0.8146 -2.9204  0.5171
 4548TIP3    H213609   0.122   6.073   4.101 -0.2955  0.8557  2.4593
 4549TIP3   OH213610   1.845   0.230   5.356 -0.5755 -0.4263  0.0908
 4549TIP3    H113611   1.919   0.283   5.387 -0.9898 -1.7089  3.4735
 4549TIP3    H213612   1.769   0.287   5.367 -0.3870  0.1027 -1.2697
 4550TIP3   OH213613   1.893   1.300   4.979 -0.4097 -0.3647  0.1186
 4550TIP3    H113614   1.932   1.279   5.064  0.5988 -1.2814 -0.5512
 4550TIP3    H213615   1.801   1.275   4.988 -0.0913 -1.3886  0.6357
 4551TIP3   OH213616   2.177   0.593   5.522  0.6020 -0.6920  0.5730
 4551TIP3    H113617   2.120   0.582   5.598  0.9324 -1.2917  0.7425
 4551TIP3    H213618   2.154   0.679   5.486 -0.9765 -1.2981  0.1373
 4552TIP3   OH213619   2.078   2.601   3.387 -0.2616  0.3198  0.2616
 4552TIP3    H113620   2.122   2.676   3.348  0.8002 -0.2490  0.3676
 4552TIP3    H213621   2.130   2.525   3.360 -0.9402 -0.3172  0.7165
 4553TIP3   OH213622   0.962   1.172   4.637 -0.0654 -0.4425 -0.2706
 4553TIP3    H113623   1.050   1.157   4.603 -0.8958 -1.8129 -1.9152
 4553TIP3    H213624   0.973   1.239   4.704  2.0412  0.2727 -1.2947
 4554TIP3   OH213625   1.139   1.761   4.163 -0.2916  0.1751 -0.3736
 4554TIP3    H113626   1.123   1.671   4.193 -0.8776  0.7711  1.1507
 4554TIP3    H213627   1.082   1.771   4.087 -0.0109 -0.8335 -0.7342
 4555TIP3   OH213628   0.428   6.717   2.304  0.3360 -0.1575  0.2083
 4555TIP3    H113629   0.361   6.683   2.362  0.0093 -1.7467 -1.0688
 4555TIP3    H213630   0.507   6.721   2.357 -0.0992 -1.0120  0.9219
 4556TIP3   OH213631   2.694   0.184   3.911  0.6149 -0.3510 -0.6311
 4556TIP3    H113632   2.631   0.125   3.870 -1.3421  0.5079  1.0398
 4556TIP3    H213633   2.727   0.237   3.839 -0.0431 -1.3024 -1.6460
 4557TIP3   OH213634   2.984   1.097   5.645  0.3415 -0.5396  0.2940
 4557TIP3    H113635   2.910   1.157   5.640  1.4133  0.7766  0.0641
 4557TIP3    H213636   3.036   1.128   5.720  0.2769 -1.8994  0.9213
 4558TIP3   OH213637   1.890   1.210   3.757  0.0858 -0.1152  0.3829
 4558TIP3    H113638   1.869   1.288   3.706  1.9773 -0.2288 -0.5845
 4558TIP3    H213639   1.872   1.235   3.848 -2.0541  0.5067 -0.1841
 4559TIP3   OH213640   3.390   0.066   4.420  0.8804 -0.1921  0.0236
 4559TIP3    H113641   3.419   0.058   4.511 -0.9797 -0.2765  0.6397
 4559TIP3    H213642   3.316   0.127   4.424  0.9721  0.0273 -1.4797
 4560TIP3   OH213643   2.773   0.963   2.405 -0.3435  0.2491 -0.1995
 4560TIP3    H113644   2.688   1.005   2.391 -1.4002 -1.0995  1.8179
 4560TIP3    H213645   2.756   0.870   2.386  0.3716 -0.2012  1.2781
 4561TIP3   OH213646   3.183   0.092   3.283 -0.7888  0.6139  0.3648
 4561TIP3    H113647   3.212   0.081   3.192  0.3099  0.5731  0.7139
 4561TIP3    H213648   3.118   0.024   3.296  0.1705 -0.3827  0.0682
 4562TIP3   OH213649   1.401   4.918   5.406 -0.5430 -0.3420  0.3698
 4562TIP3    H113650   1.393   5.010   5.381 -1.2121 -0.5523 -0.2097
 4562TIP3    H213651   1.333   4.905   5.473 -1.2463 -0.6978 -0.3963
 4563TIP3   OH213652   3.006   1.323   4.435  0.3613  0.4076 -0.1365
 4563TIP3    H113653   2.912   1.306   4.445  0.1098  0.4412 -2.2501
 4563TIP3    H213654   3.048   1.242   4.462 -0.1467  0.9552  2.5089
 4564TIP3   OH213655   2.395   1.568   5.580 -0.4238  0.3241 -0.6497
 4564TIP3    H113656   2.400   1.549   5.486  0.5090 -1.5552 -0.2326
 4564TIP3    H213657   2.330   1.507   5.614  1.5657 -1.2207  0.4608
 4565TIP3   OH213658   4.297   4.729   0.282 -0.4369 -0.3911 -0.2613
 4565TIP3    H113659   4.255   4.716   0.367  0.5105 -0.6983  0.1728
 4565TIP3    H213660   4.335   4.643   0.261  2.8763  0.7030  0.9682
 4566TIP3   OH213661   4.791   3.759   0.772  0.2168 -0.1912  0.1067
 4566TIP3    H113662   4.857   3.823   0.798 -0.7640  0.8934 -0.0394
 4566TIP3    H213663   4.809   3.743   0.679  1.7497 -1.7134  0.6157
 4567TIP3   OH213664   4.216   4.585   1.948  0.0012 -0.1886 -0.1614
 4567TIP3    H113665   4.171   4.667   1.928 -1.6244 -0.9037  0.4588
 4567TIP3    H213666   4.292   4.585   1.890 -0.6429  1.1757 -1.0547
 4568TIP3   OH213667   2.650   0.655   4.383 -0.0012 -0.3312  0.1004
 4568TIP3    H113668   2.654   0.639   4.478 -1.4037 -1.3868  0.0041
 4568TIP3    H213669   2.690   0.741   4.371  0.9623 -0.5532  1.5506
 4569TIP3   OH213670   5.056   5.904   1.024 -0.0091 -0.2858 -0.1978
 4569TIP3    H113671   5.041   5.988   0.982  0.3907  0.0267  0.2813
 4569TIP3    H213672   5.032   5.839   0.958  2.6571  0.1814 -1.7071
 4570TIP3   OH213673   3.638   3.882   0.682  0.2800  0.3454  0.1067
 4570TIP3    H113674   3.640   3.874   0.777  0.7423 -1.7818 -0.0462
 4570TIP3    H213675   3.688   3.961   0.663 -0.7340  1.3902  1.6717
 4571TIP3   OH213676   6.391   6.244   5.634  0.2555  0.1157  0.5405
 4571TIP3    H113677   6.360   6.242   5.544  2.5967 -0.2336 -0.2866
 4571TIP3    H213678   6.384   6.154   5.664 -2.0080  0.4975  1.2683
 4572TIP3   OH213679   0.042   6.487   4.882 -0.0730  0.1127 -0.8247
 4572TIP3    H113680   0.042   6.577   4.849  0.6629  0.1909 -0.6030
 4572TIP3    H213681  -0.041   6.479   4.929  0.4268  1.0723  0.2426
 4573TIP3   OH213682   7.027   1.774   5.755  0.0638  0.1776  0.3841
 4573TIP3    H113683   7.109   1.823   5.760 -0.2324  0.5572  1.7664
 4573TIP3    H213684   7.038   1.702   5.818  0.4043 -1.4295 -1.4530
 4574TIP3   OH213685   4.756   3.936   2.171  0.4983 -0.0699  0.6469
 4574TIP3    H113686   4.695   3.863   2.161  1.2462 -0.4937 -1.1042
 4574TIP3    H213687   4.709   4.011   2.137  0.8027 -0.3376 -0.4051
 4575TIP3   OH213688   4.135   0.396   5.176  0.2464  0.0845 -0.2473
 4575TIP3    H113689   4.202   0.372   5.240  2.3856 -0.2267 -2.4962
 4575TIP3    H213690   4.107   0.313   5.139 -1.1897  0.2413  0.4841
 4576TIP3   OH213691   4.945   3.848   2.351 -0.0345 -0.0349  0.5939
 4576TIP3    H113692   4.866   3.865   2.299  0.9246 -3.7336 -2.3237
 4576TIP3    H213693   4.913   3.801   2.428 -0.9144  0.4698  0.5455
 4577TIP3   OH213694   0.411   6.698   3.947  0.3201 -0.1728  0.4178
 4577TIP3    H113695   0.347   6.648   3.896  1.9056 -0.6663 -1.1373
 4577TIP3    H213696   0.358   6.758   4.000 -1.4456 -0.9892 -0.3772
 4578TIP3   OH213697   0.388   2.309   3.049 -0.1059 -0.3013  0.4496
 4578TIP3    H113698   0.374   2.398   3.019  0.7951 -0.1727  0.3968
 4578TIP3    H213699   0.470   2.282   3.008 -0.1634 -1.0139  0.7823
 4579TIP3   OH213700   1.610   5.826   4.754  0.3182 -0.4019 -0.0208
 4579TIP3    H113701   1.588   5.852   4.664  2.8644 -1.0404 -0.8665
 4579TIP3    H213702   1.615   5.908   4.802 -1.2278 -0.0657 -0.4014
 4580TIP3   OH213703   5.065   3.638   0.163  0.0669  0.1988  0.2915
 4580TIP3    H113704   5.109   3.623   0.247  1.0119  2.2632  0.1938
 4580TIP3    H213705   5.042   3.731   0.164 -1.0836 -0.0574 -1.1980
 4581TIP3   OH213706   5.632   1.375   3.235 -0.1719  0.1089 -0.4946
 4581TIP3    H113707   5.572   1.327   3.179 -1.1609 -0.3343  0.9013
 4581TIP3    H213708   5.660   1.311   3.301  1.1473  0.5502 -0.5934
 4582TIP3   OH213709   6.269   2.855   0.587 -0.3251 -0.5551 -0.6075
 4582TIP3    H113710   6.254   2.775   0.638 -0.6747 -0.2134 -0.1713
 4582TIP3    H213711   6.324   2.827   0.514  0.5998 -0.9561  0.2301
 4583TIP3   OH213712   3.219   0.545   5.422 -0.3801 -0.4974 -0.2738
 4583TIP3    H113713   3.254   0.622   5.377 -0.5228  0.5955  1.4576
 4583TIP3    H213714   3.284   0.526   5.489 -0.7043 -1.4712 -0.2278
 4584TIP3   OH213715   6.087   6.545   4.658 -0.2724  0.1050  0.6842
 4584TIP3    H113716   6.096   6.452   4.677 -3.1618 -0.5281 -0.6215
 4584TIP3    H213717   6.141   6.559   4.580  1.0079 -0.2216  1.5009
 4585TIP3   OH213718   5.652   1.911   1.134  0.5975  0.3708 -0.0408
 4585TIP3    H113719   5.717   1.954   1.078 -0.4416  1.2603 -0.5698
 4585TIP3    H213720   5.575   1.902   1.079  0.1762 -0.4613  0.6728
 4586TIP3   OH213721   1.042   6.232   3.517  0.5123 -0.5865  0.1173
 4586TIP3    H113722   0.999   6.201   3.437  1.4798 -0.4932 -0.4478
 4586TIP3    H213723   1.120   6.279   3.486  1.3506 -1.2590  1.1392
 4587TIP3   OH213724   6.168   6.594   4.395 -1.0110 -0.5668  0.3846
 4587TIP3    H113725   6.109   6.667   4.376 -0.8526 -1.1423 -2.5721
 4587TIP3    H213726   6.254   6.634   4.404 -1.4278 -0.0290  2.0273
 4588TIP3   OH213727   7.202   6.343   4.168 -0.1384  0.4301  0.2785
 4588TIP3    H113728   7.124   6.395   4.188 -0.5405 -0.2122  0.3985
 4588TIP3    H213729   7.220   6.294   4.248  0.7927  1.0853  0.4710
 4589TIP3   OH213730   2.595   0.242   5.635  0.3302  0.0708  0.4073
 4589TIP3    H113731   2.566   0.332   5.620 -1.0510 -0.4004  0.1380
 4589TIP3    H213732   2.676   0.234   5.586 -0.1850  0.8123 -0.5856
 4590TIP3   OH213733   6.101   3.818   0.868 -0.5934 -0.5358  0.1162
 4590TIP3    H113734   6.061   3.745   0.914  0.5410 -0.5036  1.1781
 4590TIP3    H213735   6.089   3.893   0.927  1.2010 -0.5748  0.5706
 4591TIP3   OH213736   0.844   0.101   5.720  0.2403  0.0139  0.2406
 4591TIP3    H113737   0.915   0.046   5.754  0.4397 -0.4918 -0.9900
 4591TIP3    H213738   0.876   0.190   5.730  1.2573 -0.2274 -0.7500
 4592TIP3   OH213739   0.966   5.591   3.666 -0.4686  0.4290  0.2708
 4592TIP3    H113740   1.015   5.673   3.664  2.2814 -1.1153  1.4988
 4592TIP3    H213741   0.940   5.581   3.757 -0.3070 -0.3374  0.2348
 4593TIP3   OH213742   3.749   2.382   4.255  0.5262  0.3901 -0.1158
 4593TIP3    H113743   3.766   2.320   4.184 -0.5250 -0.5632  0.4662
 4593TIP3    H213744   3.681   2.341   4.308 -2.4236  3.3421 -1.3979
 4594TIP3   OH213745   0.778   6.082   4.533  0.8427 -0.7304  0.1570
 4594TIP3    H113746   0.829   6.103   4.454  2.3734 -3.6923  0.2991
 4594TIP3    H213747   0.834   6.109   4.606  0.8328 -1.0086  0.2686
 4595TIP3   OH213748   4.127   0.334   4.862 -0.0094  0.0903  0.0727
 4595TIP3    H113749   4.073   0.413   4.874  1.5434  0.7347  3.3474
 4595TIP3    H213750   4.179   0.352   4.784  0.1711  2.2540  0.6593
 4596TIP3   OH213751   1.882   1.690   4.550 -0.2670 -0.3063  0.3829
 4596TIP3    H113752   1.860   1.770   4.502 -0.1110 -0.3640  0.2134
 4596TIP3    H213753   1.934   1.721   4.625 -0.1916 -0.2502  0.3078
 4597TIP3   OH213754   4.693   2.650   0.951  0.2647  0.0322  0.1444
 4597TIP3    H113755   4.614   2.609   0.984  1.9628 -3.1973  0.3891
 4597TIP3    H213756   4.712   2.605   0.869  1.1195  1.6900 -0.5972
 4598TIP3   OH213757   7.043   3.260   1.180  0.2909  0.1120  0.5931
 4598TIP3    H113758   7.056   3.269   1.274 -1.9811 -1.1992  1.0620
 4598TIP3    H213759   6.949   3.266   1.168  0.3903 -1.7046 -1.3743
 4599TIP3   OH213760   1.314   6.833   4.430  0.6127  0.4132  0.0042
 4599TIP3    H113761   1.309   6.741   4.404  3.2689  0.3952 -0.5738
 4599TIP3    H213762   1.241   6.875   4.383 -0.6992 -1.3768  0.3630
 4600TIP3   OH213763   7.067   4.867   4.220  0.5646 -0.1705 -0.1974
 4600TIP3    H113764   7.000   4.926   4.186  2.0860  0.1748 -2.7669
 4600TIP3    H213765   7.031   4.779   4.208  0.4730  0.0249 -1.4193
 4601TIP3   OH213766   3.420   1.945   4.700  0.7725  0.3433 -0.4758
 4601TIP3    H113767   3.352   1.908   4.644  0.8100  1.4246 -1.2542
 4601TIP3    H213768   3.477   1.871   4.720 -0.7305 -0.6288  0.3503
 4602TIP3   OH213769   0.422   5.809   4.914  0.6695 -0.3118  0.1382
 4602TIP3    H113770   0.493   5.840   4.858 -0.5937  0.5361 -1.0146
 4602TIP3    H213771   0.365   5.886   4.925  0.0479 -0.9212  1.2433
 4603TIP3   OH213772   2.620   1.143   5.084  0.1553  1.0063 -0.0477
 4603TIP3    H113773   2.547   1.111   5.030  1.4308 -1.5110 -0.3483
 4603TIP3    H213774   2.666   1.205   5.028  0.2058  0.0396 -1.1006
 4604TIP3   OH213775   2.327   0.241   3.712  0.2824 -0.3095 -0.4490
 4604TIP3    H113776   2.336   0.286   3.628 -1.4857  0.7527 -0.0923
 4604TIP3    H213777   2.244   0.194   3.705 -0.2828  0.4393  0.9846
 4605TIP3   OH213778   5.369   4.084   0.391 -0.2145  0.2899 -0.1921
 4605TIP3    H113779   5.375   4.172   0.428  1.5264 -0.4366  1.3092
 4605TIP3    H213780   5.275   4.067   0.385 -0.5752  2.5741 -1.3046
 4606TIP3   OH213781   0.929   6.164   5.341 -0.1747  0.8257  0.1165
 4606TIP3    H113782   0.973   6.084   5.311  0.4007  1.6093 -1.2076
 4606TIP3    H213783   0.863   6.133   5.403 -1.4447 -0.9078 -1.9949
 4607TIP3   OH213784   2.807   0.582   5.942  0.0772 -0.2194 -0.4134
 4607TIP3    H113785   2.890   0.609   5.903 -0.4055  1.0141 -0.5921
 4607TIP3    H213786   2.832   0.525   6.015  0.9948 -2.7781 -2.6404
 4608TIP3   OH213787   6.927   3.326   1.418  0.0533  0.1124 -0.1686
 4608TIP3    H113788   6.929   3.380   1.339 -0.9081  0.7829  0.2537
 4608TIP3    H213789   6.842   3.345   1.458  0.9209  0.5100  1.5414
 4609TIP3   OH213790   6.114   0.258   3.314  0.0990  0.1434  0.4053
 4609TIP3    H113791   6.037   0.220   3.272 -0.2501  2.1656 -0.8400
 4609TIP3    H213792   6.084   0.288   3.399 -0.0868 -0.5290  0.5824
 4610TIP3   OH213793   3.935   2.225   5.144  0.6444 -0.3061  0.4866
 4610TIP3    H113794   4.027   2.225   5.118  0.2206 -1.8088 -1.1583
 4610TIP3    H213795   3.919   2.313   5.177  2.3853  0.3259 -0.2925
 4611TIP3   OH213796   4.637   2.988   0.159  0.0733  0.4837  0.4498
 4611TIP3    H113797   4.575   3.061   0.160 -0.8422 -0.2405  3.7478
 4611TIP3    H213798   4.596   2.923   0.101 -0.8487  1.1648  0.3192
 4612TIP3   OH213799   3.619   0.894   4.356  0.3648 -0.0243  0.0199
 4612TIP3    H113800   3.566   0.883   4.277 -0.3785  0.4191  0.4476
 4612TIP3    H213801   3.697   0.941   4.326 -0.1108  0.5218 -0.3814
 4613TIP3   OH213802   0.289   6.491   5.177 -0.3181 -0.4257  0.3953
 4613TIP3    H113803   0.323   6.559   5.118  1.6372 -1.5138  0.2627
 4613TIP3    H213804   0.246   6.429   5.118  1.0489 -1.1653  0.1721
 4614TIP3   OH213805   2.302   6.704   4.700 -0.1091  0.3708 -0.0700
 4614TIP3    H113806   2.231   6.648   4.667 -0.5788  0.8378  0.1446
 4614TIP3    H213807   2.325   6.759   4.626 -1.4042  1.6636  0.4598
 4615TIP3   OH213808   2.895   2.413   4.016 -0.2118 -0.2066  0.0419
 4615TIP3    H113809   2.827   2.479   4.028  1.0507  0.9765  0.8743
 4615TIP3    H213810   2.864   2.336   4.065 -2.0132 -0.5060 -1.5116
 4616TIP3   OH213811   1.090   0.735   5.184 -0.0333 -0.2098 -0.1576
 4616TIP3    H113812   1.034   0.777   5.119 -0.4246 -2.5158 -1.3619
 4616TIP3    H213813   1.163   0.699   5.134  0.9009  0.0337  0.9995
 4617TIP3   OH213814   1.817   1.907   4.363 -0.5055 -0.3330  0.1676
 4617TIP3    H113815   1.787   1.985   4.316 -1.1992 -1.6083 -1.5248
 4617TIP3    H213816   1.738   1.855   4.377  0.2177 -1.6145 -0.3923
 4618TIP3   OH213817   3.301   0.725   4.487 -0.7124 -0.2538  0.4394
 4618TIP3    H113818   3.225   0.740   4.432  0.3690 -0.4562 -1.1416
 4618TIP3    H213819   3.342   0.811   4.495 -0.6563 -0.2975  0.6165
 4619TIP3   OH213820   1.441   3.117   4.800 -0.3596 -0.5049 -0.2158
 4619TIP3    H113821   1.346   3.112   4.790 -0.7120  1.5746  1.5944
 4619TIP3    H213822   1.473   3.029   4.780 -2.6692 -1.2125 -0.8409
 4620TIP3   OH213823   1.503   3.313   3.789  0.1821 -0.1281 -0.1483
 4620TIP3    H113824   1.556   3.357   3.722  0.1142 -1.3256 -0.9979
 4620TIP3    H213825   1.567   3.266   3.842  0.0708 -0.7088 -0.5251
 4621TIP3   OH213826   2.169   1.211   4.056 -0.3704  0.1265  0.0949
 4621TIP3    H113827   2.194   1.219   3.964 -1.1711  0.2799 -0.1105
 4621TIP3    H213828   2.110   1.137   4.059 -1.5516  1.0558  0.2279
 4622TIP3   OH213829   4.164   1.353   3.607 -0.5612  0.8886 -0.0988
 4622TIP3    H113830   4.104   1.420   3.578  1.3531  2.9085  0.4767
 4622TIP3    H213831   4.249   1.379   3.571  0.1041 -1.5708 -0.4064
 4623TIP3   OH213832   6.578   4.836   0.238  0.3706  0.4280  0.1645
 4623TIP3    H113833   6.496   4.809   0.197  0.6692 -1.5121  0.7772
 4623TIP3    H213834   6.581   4.787   0.321  0.6717  2.8237  1.6237
 4624TIP3   OH213835   5.433   3.969   2.387  0.3538 -0.1338 -0.4040
 4624TIP3    H113836   5.525   3.947   2.400  0.1576 -1.1169 -0.6381
 4624TIP3    H213837   5.430   4.064   2.395  1.0182 -0.2616  1.9744
 4625TIP3   OH213838   5.164   3.582   0.421 -0.2977 -0.1895 -0.4388
 4625TIP3    H113839   5.233   3.518   0.406  1.0539  1.0549  0.3435
 4625TIP3    H213840   5.193   3.633   0.496 -2.2903  0.0782  0.1965
 4626TIP3   OH213841   2.555   2.748   4.721 -0.0093 -0.0138  0.0589
 4626TIP3    H113842   2.622   2.813   4.743  0.7937 -0.7081 -0.3345
 4626TIP3    H213843   2.559   2.685   4.792 -1.9235  1.2124  1.3176
 4627TIP3   OH213844   0.666   5.746   5.974  0.6759  0.3521  0.5058
 4627TIP3    H113845   0.742   5.802   5.956 -0.0480  0.4985 -2.3237
 4627TIP3    H213846   0.594   5.807   5.987  0.3436  0.1311 -0.2985
 4628TIP3   OH213847   6.804   5.900   5.828 -0.5507 -0.2220  0.2969
 4628TIP3    H113848   6.725   5.906   5.881  0.1363  2.0063  1.1308
 4628TIP3    H213849   6.869   5.861   5.887 -0.0936  1.2073  0.7514
 4629TIP3   OH213850   7.174   6.109   4.675  0.1234 -0.7327 -0.0147
 4629TIP3    H113851   7.082   6.130   4.661  0.7766  2.1421 -0.4273
 4629TIP3    H213852   7.192   6.138   4.764  1.0071  0.3131 -0.5150
 4630TIP3   OH213853   3.641   1.715   5.112 -0.2712 -0.1350 -0.2759
 4630TIP3    H113854   3.619   1.658   5.038 -1.3530 -0.4876  0.3143
 4630TIP3    H213855   3.714   1.670   5.155 -0.3273 -0.4595 -0.5154
 4631TIP3   OH213856   3.068   0.559   3.304  0.2303  0.2123 -0.3846
 4631TIP3    H113857   2.992   0.583   3.251  0.0578  0.5445  0.0136
 4631TIP3    H213858   3.140   0.554   3.240  0.4119  2.4786 -0.3986
 4632TIP3   OH213859   6.402   2.864   1.026 -0.1443 -0.6186  0.0322
 4632TIP3    H113860   6.308   2.854   1.041 -0.1294  0.9653  1.3200
 4632TIP3    H213861   6.442   2.831   1.106  0.3127  0.3690  0.2146
 4633TIP3   OH213862   1.230   4.838   5.625 -0.0928  0.0248 -0.0610
 4633TIP3    H113863   1.211   4.867   5.715  0.3581 -1.0967  0.4065
 4633TIP3    H213864   1.144   4.819   5.588 -0.3717  1.5656 -0.2539
 4634TIP3   OH213865   2.167   0.387   5.771  0.4086  0.2948 -0.0374
 4634TIP3    H113866   2.217   0.333   5.709  0.9800 -0.5781  1.1632
 4634TIP3    H213867   2.233   0.428   5.826 -0.1565 -0.0651  0.9187
 4635TIP3   OH213868   2.018   6.076   5.651  0.7497 -0.0310  0.0110
 4635TIP3    H113869   1.973   6.079   5.566 -2.5050  0.9008  1.7055
 4635TIP3    H213870   2.046   5.984   5.659  0.1510 -0.3745 -1.5589
 4636TIP3   OH213871   1.061   6.380   4.435 -0.6115  0.3300 -0.6612
 4636TIP3    H113872   1.143   6.404   4.393 -1.0751  0.3279 -1.5850
 4636TIP3    H213873   1.037   6.297   4.394 -2.1456  1.3779 -1.9113
 4637TIP3   OH213874   0.995   6.140   4.799 -0.5788 -0.1801  0.6559
 4637TIP3    H113875   1.076   6.136   4.749  0.3651  1.2962  2.0310
 4637TIP3    H213876   0.978   6.050   4.825 -0.6998 -0.8664 -1.6843
 4638TIP3   OH213877   5.030   1.848   4.199  0.0323  0.3288 -0.2187
 4638TIP3    H113878   5.121   1.823   4.181  0.4221  1.1543  0.5470
 4638TIP3    H213879   5.022   1.840   4.294 -0.8007 -0.0737 -0.3268
 4639TIP3   OH213880   1.029   6.606   3.507  0.2849  0.6572  0.4195
 4639TIP3    H113881   1.059   6.691   3.474 -0.4447  1.2500  1.2605
 4639TIP3    H213882   0.954   6.584   3.451  0.5112  0.5315  0.1628
 4640TIP3   OH213883   3.650   0.844   5.180  0.7785  0.2182  0.4278
 4640TIP3    H113884   3.601   0.893   5.114  0.1295 -0.2685  0.5502
 4640TIP3    H213885   3.681   0.766   5.133 -0.1711 -0.4125  0.8539
 4641TIP3   OH213886   5.136   5.902   0.038 -0.2072  0.4164 -0.3953
 4641TIP3    H113887   5.114   5.820  -0.007 -0.3706  0.3631 -0.2178
 4641TIP3    H213888   5.102   5.970  -0.019 -1.2809  0.3218  0.1156
 4642TIP3   OH213889   2.777   0.069   4.471  0.3024  0.5588  0.2015
 4642TIP3    H113890   2.762   0.164   4.465 -1.9768  0.2560  0.6220
 4642TIP3    H213891   2.733   0.033   4.394  0.8343 -0.1985  0.2492
 4643TIP3   OH213892   0.330   6.650   5.965  0.0345  0.0797 -0.3800
 4643TIP3    H113893   0.314   6.662   5.871 -0.7444  0.0888 -0.2455
 4643TIP3    H213894   0.292   6.728   6.005 -1.2098 -0.7758  0.1086
 4644TIP3   OH213895   2.240   0.054   3.179 -0.8386  0.0005 -0.3652
 4644TIP3    H113896   2.254  -0.041   3.182 -0.0750  0.1400  0.4698
 4644TIP3    H213897   2.260   0.078   3.088 -3.0961 -0.9423 -1.1558
 4645TIP3   OH213898   1.686   6.109   4.744 -0.0656 -0.1253 -0.0799
 4645TIP3    H113899   1.677   6.197   4.782  1.0462 -0.4629  1.0096
 4645TIP3    H213900   1.669   6.121   4.651 -0.0901  1.2284  0.0888
 4646TIP3   OH213901   7.218   6.955   5.795 -0.4024 -0.3795  0.7656
 4646TIP3    H113902   7.159   6.976   5.867  1.0204  2.3423  1.2312
 4646TIP3    H213903   7.301   6.932   5.838  0.3207  0.8000  0.0456
 4647TIP3   OH213904  -0.005   6.770   4.856 -0.3433  0.1135 -0.0880
 4647TIP3    H113905  -0.013   6.822   4.936 -0.4044  1.2189 -0.7954
 4647TIP3    H213906   0.068   6.811   4.809 -0.8157 -0.0452 -0.9596
 4648TIP3   OH213907   4.010   0.844   4.560  0.3539  0.1097 -0.0841
 4648TIP3    H113908   4.007   0.907   4.632  0.5712  1.3269 -1.1354
 4648TIP3    H213909   3.918   0.816   4.549  0.4049 -0.5478  1.0481
 4649TIP3   OH213910   4.127   1.305   4.392 -0.0815  0.4198  0.1508
 4649TIP3    H113911   4.129   1.310   4.296  1.8820  0.9788  0.1968
 4649TIP3    H213912   4.095   1.390   4.420  1.2376  0.9828  0.0162
 4650TIP3   OH213913   4.955   2.258   5.902 -0.0542 -0.6698 -0.0797
 4650TIP3    H113914   4.894   2.300   5.964  0.4487  0.5894 -0.4227
 4650TIP3    H213915   5.002   2.194   5.955  0.1573  0.1932  0.7951
 4651TIP3   OH213916   3.402   2.348   5.923 -0.5638  0.5352 -0.1470
 4651TIP3    H113917   3.440   2.300   5.997 -0.1734  1.6669  0.4043
 4651TIP3    H213918   3.409   2.440   5.949 -1.2375  0.8899 -1.2156
 4652TIP3   OH213919   4.558   4.156   2.100  0.1455 -0.6431 -0.3331
 4652TIP3    H113920   4.534   4.236   2.147 -2.4782 -0.7413 -1.4438
 4652TIP3    H213921   4.517   4.085   2.150  0.1678 -1.0531 -0.8907
 4653TIP3   OH213922   2.522   6.527   5.380 -0.0628 -0.2973 -0.0494
 4653TIP3    H113923   2.475   6.572   5.450 -0.5069  0.8885 -1.0768
 4653TIP3    H213924   2.615   6.541   5.401 -0.1900  0.9337 -0.2251
 4654TIP3   OH213925   3.248   0.744   4.999 -0.1187  0.9572 -0.5572
 4654TIP3    H113926   3.154   0.763   5.001 -0.6974 -1.7597  0.9702
 4654TIP3    H213927   3.257   0.673   4.935  0.7723  0.7020 -0.1579
 4655TIP3   OH213928   0.591   3.021   1.614  0.2885 -0.1719 -0.6110
 4655TIP3    H113929   0.585   3.032   1.709 -0.0360 -1.5945 -0.4634
 4655TIP3    H213930   0.685   3.023   1.596  0.2939  2.6048 -0.5920
 4656TIP3   OH213931   4.885   0.525   3.653  0.3961  0.0003 -0.6897
 4656TIP3    H113932   4.981   0.527   3.657  0.3377  0.4958  0.5627
 4656TIP3    H213933   4.859   0.617   3.644  0.0301 -0.1287 -0.9902
 4657TIP3   OH213934   4.506   1.201   5.677 -0.4557 -0.3748 -0.4253
 4657TIP3    H113935   4.562   1.247   5.615 -1.4002  0.4054 -0.7294
 4657TIP3    H213936   4.566   1.157   5.736  0.4720  0.4814 -0.7108
 4658TIP3   OH213937   1.254   0.691   3.434 -0.2557  0.1675 -0.1263
 4658TIP3    H113938   1.345   0.674   3.460  0.1144  1.4209 -0.5481
 4658TIP3    H213939   1.212   0.719   3.516 -0.7052 -2.0387  0.4279
 4659TIP3   OH213940   1.473   1.771   4.805  0.3507 -0.1555  0.4305
 4659TIP3    H113941   1.567   1.786   4.813  0.5245 -0.6395 -0.5768
 4659TIP3    H213942   1.434   1.859   4.804  0.7980  0.0458  0.7104
 4660TIP3   OH213943   4.775   3.116   0.746 -0.4263  0.3260 -0.3750
 4660TIP3    H113944   4.715   3.054   0.787 -1.0352  0.5201 -0.9631
 4660TIP3    H213945   4.802   3.073   0.664  0.3898  0.1555 -0.0252
 4661TIP3   OH213946   4.769   5.303   0.155 -0.3830 -0.2441 -0.2600
 4661TIP3    H113947   4.772   5.301   0.060  0.1429 -0.8822 -0.2355
 4661TIP3    H213948   4.845   5.355   0.181 -0.8651  0.4415 -0.2024
 4662TIP3   OH213949   1.777   1.973   5.801 -0.0119 -0.1532 -0.0480
 4662TIP3    H113950   1.763   1.879   5.801 -0.2201 -0.1271  0.7256
 4662TIP3    H213951   1.872   1.984   5.802  0.0536 -0.3414 -2.2714
 4663TIP3   OH213952   4.857   3.429   0.109  0.2022  0.4867  0.0829
 4663TIP3    H113953   4.918   3.362   0.140 -0.5623  0.6530  2.0475
 4663TIP3    H213954   4.911   3.508   0.100  1.0012 -0.2589 -1.7629
 4664TIP3   OH213955   4.171   4.457   1.629  0.1427 -0.4593  0.3185
 4664TIP3    H113956   4.214   4.422   1.551  0.5636 -2.7339  1.5427
 4664TIP3    H213957   4.152   4.548   1.606  3.6994  0.0259 -1.0412
 4665TIP3   OH213958   5.311   1.009   3.823 -0.4270 -0.0974 -0.3429
 4665TIP3    H113959   5.391   0.963   3.799 -0.7269 -0.6378 -0.2977
 4665TIP3    H213960   5.244   0.941   3.827 -0.8704  0.3417 -0.2928
 4666TIP3   OH213961   1.893   6.846   3.987  0.0982 -0.0292 -0.0128
 4666TIP3    H113962   1.822   6.898   4.025 -0.3704 -0.5753 -0.1367
 4666TIP3    H213963   1.943   6.909   3.935  0.4428  0.6177  1.0845
 4667TIP3   OH213964   1.872   0.135   4.431  0.1988  0.2885  0.0500
 4667TIP3    H113965   1.805   0.159   4.366  0.0602  0.9579  0.4372
 4667TIP3    H213966   1.876   0.210   4.490  1.6228  0.4443 -0.2281
 4668TIP3   OH213967   5.518   4.379   0.844 -0.0557  0.9409 -0.1715
 4668TIP3    H113968   5.600   4.429   0.851  1.1018 -1.0567  1.0594
 4668TIP3    H213969   5.507   4.366   0.749  1.3212  0.8358 -0.3328
 4669TIP3   OH213970   3.764   0.044   5.040  0.4251  0.0389 -0.2362
 4669TIP3    H113971   3.729  -0.043   5.059 -0.7835  0.7911  1.1239
 4669TIP3    H213972   3.735   0.062   4.951 -0.8504 -0.2416  0.1050
 4670TIP3   OH213973   7.327   4.467   0.014 -0.8533 -0.2784 -0.3274
 4670TIP3    H113974   7.233   4.488   0.020 -0.6683  0.9771 -1.5090
 4670TIP3    H213975   7.371   4.548   0.039 -0.0548 -1.3871  1.9209
 4671TIP3   OH213976   2.023   2.722   4.113 -0.2092 -0.6677 -0.0358
 4671TIP3    H113977   1.972   2.749   4.190  0.1034  1.3541 -0.5194
 4671TIP3    H213978   2.035   2.802   4.062  2.0927 -1.4094 -0.7413
 4672TIP3   OH213979   1.001   1.093   3.999  0.3666  0.5879  0.2698
 4672TIP3    H113980   0.919   1.143   3.995  0.9605  1.5562  0.0516
 4672TIP3    H213981   0.978   1.006   3.965 -0.0347  1.5749 -2.0467
 4673TIP3   OH213982   7.037   6.865   3.895 -0.5869 -0.0108 -0.1481
 4673TIP3    H113983   6.995   6.903   3.971  1.0713 -0.9919  1.3241
 4673TIP3    H213984   7.003   6.775   3.891  0.0099 -0.2547  0.0234
 4674TIP3   OH213985   2.922   0.458   3.938  0.0401  0.2700 -0.7593
 4674TIP3    H113986   2.916   0.407   3.857  0.8099 -0.5602 -0.3061
 4674TIP3    H213987   2.855   0.420   3.995  0.4693 -0.1073 -0.4987
 4675TIP3   OH213988   6.437   2.170   0.148  0.1002 -0.2135  0.0202
 4675TIP3    H113989   6.365   2.230   0.168  0.5104 -0.1818  1.5397
 4675TIP3    H213990   6.479   2.207   0.071  1.0285  2.1187  1.5788
 4676TIP3   OH213991   4.751   1.128   5.772 -0.4244 -0.5286  0.2410
 4676TIP3    H113992   4.749   1.222   5.752 -1.0905 -0.2463  1.5391
 4676TIP3    H213993   4.843   1.109   5.792 -0.3306 -0.0899  0.2287
 4677TIP3   OH213994   0.489   6.876   4.580 -0.1968  0.0664  0.1415
 4677TIP3    H113995   0.533   6.840   4.503 -0.7860 -1.2754  0.4174
 4677TIP3    H213996   0.442   6.953   4.548  3.7940  2.6929  0.1620
 4678TIP3   OH213997   3.034   0.304   5.864 -0.8819 -0.0764 -0.1648
 4678TIP3    H113998   3.117   0.277   5.826 -0.3286  0.1373  0.8929
 4678TIP3    H213999   3.033   0.399   5.855  0.5676  0.2811  2.9845
 4679TIP3   OH214000   2.555   0.401   2.850  0.1296  0.7615  0.6159
 4679TIP3    H114001   2.572   0.372   2.761 -2.1045  0.9060  0.1262
 4679TIP3    H214002   2.522   0.490   2.841 -0.4008  0.6685  1.5685
 4680TIP3   OH214003   1.808   1.979   5.133 -0.0983 -0.2853  0.0938
 4680TIP3    H114004   1.842   1.894   5.104 -0.3079  0.2161 -1.6808
 4680TIP3    H214005   1.886   2.033   5.144 -0.0485 -0.3441  0.0350
 4681TIP3   OH214006   1.090   6.857   3.373 -0.3905  0.3598 -0.2375
 4681TIP3    H114007   1.079   6.913   3.296  1.8997 -0.5047 -1.2427
 4681TIP3    H214008   1.173   6.885   3.411 -2.4520  2.1826  3.1831
 4682TIP3   OH214009   3.384   0.427   3.583 -0.2891 -0.1114  0.4209
 4682TIP3    H114010   3.309   0.384   3.542  0.0941 -1.3216  0.9370
 4682TIP3    H214011   3.453   0.360   3.581  0.2823  0.4343  1.3793
 4683TIP3   OH214012   5.612   4.073   0.596  0.1239 -0.0632  0.3175
 4683TIP3    H114013   5.608   4.168   0.589  0.4019 -0.0078  0.8937
 4683TIP3    H214014   5.573   4.041   0.514  0.7497  0.5452 -0.2206
 4684TIP3   OH214015   1.356   3.436   4.011 -0.7377 -0.4704  0.6302
 4684TIP3    H114016   1.329   3.525   3.988 -0.9161 -1.0275 -1.4762
 4684TIP3    H214017   1.408   3.408   3.935 -1.0847 -2.3334  1.0779
 4685TIP3   OH214018   0.958   5.786   3.885  0.1502 -0.3842 -0.0119
 4685TIP3    H114019   1.040   5.795   3.835  1.6378  0.9651  2.5730
 4685TIP3    H214020   0.913   5.869   3.871  0.6908  0.1016  1.0213
 4686TIP3   OH214021   4.461   0.532   4.246 -0.1344  0.1530 -0.1933
 4686TIP3    H114022   4.380   0.487   4.223  0.1787 -0.2200 -0.5687
 4686TIP3    H214023   4.470   0.601   4.180 -0.9638  1.2080  0.7765
 4687TIP3   OH214024   3.400   0.193   4.160  0.5806  0.0877  0.2388
 4687TIP3    H114025   3.320   0.239   4.136  0.9495  0.1346 -0.9554
 4687TIP3    H214026   3.398   0.189   4.255 -0.3535  0.9583  0.2667
 4688TIP3   OH214027   0.609   5.660   5.437  0.0728 -0.2057  0.1766
 4688TIP3    H114028   0.530   5.657   5.383  0.8049  0.4407 -0.9445
 4688TIP3    H214029   0.576   5.665   5.527 -1.1952  1.8295 -0.3687
 4689TIP3   OH214030   1.574   6.590   4.731 -0.0641  0.0438  0.3267
 4689TIP3    H114031   1.664   6.621   4.729  0.0723 -0.4127 -0.8548
 4689TIP3    H214032   1.522   6.669   4.747  0.4835  0.4401  0.1637
 4690TIP3   OH214033   5.133   5.011   1.444 -0.1940 -0.0614 -0.1329
 4690TIP3    H114034   5.191   5.014   1.368  0.5571  0.0822  0.4394
 4690TIP3    H214035   5.107   4.919   1.450  2.4806 -0.8028  1.4339
 4691TIP3   OH214036   3.615   0.236   5.190  0.3505  0.2707 -0.3954
 4691TIP3    H114037   3.669   0.164   5.155 -0.5236 -0.0227 -1.1600
 4691TIP3    H214038   3.679   0.301   5.220  1.1552 -0.7061  0.0759
 4692TIP3   OH214039   3.322   0.779   5.301  0.6410 -0.0759  0.0576
 4692TIP3    H114040   3.291   0.867   5.324 -1.0587 -1.1589  2.0708
 4692TIP3    H214041   3.291   0.765   5.212 -1.5711  0.2882  0.7425
 4693TIP3   OH214042   0.681   2.528   5.989 -0.1291  0.3986 -0.1876
 4693TIP3    H114043   0.653   2.608   6.032 -0.6790  0.7304 -1.1480
 4693TIP3    H214044   0.775   2.541   5.973 -0.3500  1.1348 -0.9328
 4694TIP3   OH214045   0.950   1.960   4.970  0.0795  0.6561 -0.2842
 4694TIP3    H114046   0.984   1.958   4.881  2.1272  1.7023  0.4497
 4694TIP3    H214047   1.013   1.911   5.022 -0.9767  0.2595  0.6490
 4695TIP3   OH214048   6.881   3.963   0.910 -0.0488  0.4050 -0.7392
 4695TIP3    H114049   6.803   3.914   0.882 -0.7853  0.2536  1.4757
 4695TIP3    H214050   6.936   3.967   0.832 -1.7509 -0.5183 -2.0235
 4696TIP3   OH214051   6.258   2.613   0.710 -0.6597  0.0977  0.1637
 4696TIP3    H114052   6.191   2.596   0.776  0.8768 -1.4107  1.3745
 4696TIP3    H214053   6.240   2.547   0.642 -0.6522 -0.0368  0.2909
 4697TIP3   OH214054   1.969   5.417   4.165  0.3379  0.6757 -0.6869
 4697TIP3    H114055   2.035   5.376   4.108 -0.3229 -0.5018 -0.6013
 4697TIP3    H214056   1.902   5.350   4.177 -0.9553  1.9074 -0.8747
 4698TIP3   OH214057   3.449   2.382   3.444 -0.7329  0.1736 -0.6685
 4698TIP3    H114058   3.435   2.441   3.518 -1.2892 -0.1706 -0.4930
 4698TIP3    H214059   3.487   2.303   3.483  0.3491  0.5480 -0.9514
 4699TIP3   OH214060   1.116   1.587   5.846  0.0476  0.6878 -0.1345
 4699TIP3    H114061   1.173   1.654   5.808  0.4420  1.7545  2.2407
 4699TIP3    H214062   1.044   1.636   5.886  0.2480 -0.2927  1.4662
 4700TIP3   OH214063   5.419   3.478  -0.005 -0.2764 -0.2375  0.6113
 4700TIP3    H114064   5.348   3.543  -0.012 -0.1271 -0.2455 -1.2620
 4700TIP3    H214065   5.400   3.430   0.075 -0.2343  2.3087  2.2223
 4701TIP3   OH214066   0.366   5.887   5.991  0.0167  0.1566  0.0955
 4701TIP3    H114067   0.405   5.933   6.065  0.8864  0.5150 -0.5632
 4701TIP3    H214068   0.361   5.953   5.922 -3.0019  0.4645  0.5456
 4702TIP3   OH214069   4.449   2.088   4.909 -0.2680  0.0537 -0.2607
 4702TIP3    H114070   4.497   2.157   4.864 -1.2734  0.4865 -0.6895
 4702TIP3    H214071   4.474   2.097   5.001  0.9471 -0.1300 -0.5687
 4703TIP3   OH214072   3.145   1.049   4.526  0.0284 -0.3300 -0.0335
 4703TIP3    H114073   3.232   1.037   4.488  0.3315 -2.6380  1.2566
 4703TIP3    H214074   3.143   0.988   4.600 -2.8817 -0.7715 -0.4078
 4704TIP3   OH214075   6.723   6.561   4.955 -0.5969  0.0738  0.2999
 4704TIP3    H114076   6.674   6.490   4.912 -0.9723  1.2519 -1.2941
 4704TIP3    H214077   6.801   6.572   4.901 -0.4462  0.7483  0.6548
 4705TIP3   OH214078   5.385   0.268   4.054 -0.3296 -0.0182  0.0414
 4705TIP3    H114079   5.334   0.343   4.085 -1.9230 -0.6376 -1.0276
 4705TIP3    H214080   5.391   0.211   4.131 -1.5607 -0.0967  0.0974
 4706TIP3   OH214081   3.549   1.826   4.041  0.0966  0.1525 -0.1641
 4706TIP3    H114082   3.633   1.781   4.030  1.3808  1.5715  3.1270
 4706TIP3    H214083   3.490   1.760   4.077  0.7925  0.0095  0.7306
 4707TIP3   OH214084   3.263   2.849   3.806 -0.2932 -0.6923  0.0791
 4707TIP3    H114085   3.277   2.798   3.727  0.3559 -0.3499 -0.0253
 4707TIP3    H214086   3.256   2.939   3.775  0.7382 -0.4701  0.4948
 4708TIP3   OH214087   1.336   0.849   2.200 -0.1181 -0.4040 -0.4218
 4708TIP3    H114088   1.256   0.896   2.175  0.2582  0.6977  0.4024
 4708TIP3    H214089   1.406   0.914   2.189  0.5443 -1.0907 -0.2743
 4709TIP3   OH214090   1.763   2.665   3.862  0.4260 -0.1319 -0.5784
 4709TIP3    H114091   1.744   2.582   3.818  1.2048 -0.4036 -0.4065
 4709TIP3    H214092   1.773   2.728   3.791  0.9402 -0.4151 -0.7610
 4710TIP3   OH214093   7.065   2.463   4.585  0.1108 -0.7395  0.3813
 4710TIP3    H114094   7.025   2.378   4.602  2.2893 -1.4092  2.2940
 4710TIP3    H214095   7.025   2.521   4.650 -1.2098 -0.3121 -0.7794
 4711TIP3   OH214096   3.189   2.067   5.741 -0.5097 -0.4184 -0.0125
 4711TIP3    H114097   3.224   2.058   5.830 -0.0566 -0.7572 -0.2256
 4711TIP3    H214098   3.119   2.131   5.750 -0.5247 -0.5174  0.6084
 4712TIP3   OH214099   6.151   1.073   4.895  0.3612 -0.0976 -0.1447
 4712TIP3    H114100   6.192   0.988   4.877 -2.2093 -1.0415 -1.9725
 4712TIP3    H214101   6.176   1.128   4.821 -0.7020 -0.3391 -0.6994
 4713TIP3   OH214102   7.323   2.650   0.810 -0.1149  0.5764 -0.0962
 4713TIP3    H114103   7.355   2.681   0.895  1.0948 -2.0472  0.4800
 4713TIP3    H214104   7.253   2.588   0.833  1.0970 -1.1406 -0.9087
 4714TIP3   OH214105   4.590   0.635   5.062 -0.2893 -0.1448 -0.3084
 4714TIP3    H114106   4.513   0.592   5.025  1.3751 -2.3447 -1.3301
 4714TIP3    H214107   4.664   0.584   5.030  1.6003  1.7193  0.9238
 4715TIP3   OH214108   5.059   0.050   4.795 -0.1291 -0.1338 -0.7538
 4715TIP3    H114109   5.124   0.049   4.866  0.5735  0.2661 -1.3897
 4715TIP3    H214110   5.089  -0.017   4.734  1.1819  1.9066 -2.3837
 4716TIP3   OH214111   3.319   3.660   5.621  0.0550 -0.3969  0.8725
 4716TIP3    H114112   3.319   3.752   5.646  0.7255  0.1019 -0.9017
 4716TIP3    H214113   3.229   3.631   5.635  0.0557  0.2738  2.3065
 4717TIP3   OH214114   7.333   5.487   0.880 -0.0367 -0.2829  0.1458
 4717TIP3    H114115   7.378   5.569   0.864  0.6057 -0.5967  0.3405
 4717TIP3    H214116   7.241   5.506   0.861 -0.0207  0.6995  1.0074
 4718TIP3   OH214117   3.731   0.497   2.462 -0.5736  0.0492 -0.5838
 4718TIP3    H114118   3.694   0.552   2.531  0.6467 -0.3106  0.3812
 4718TIP3    H214119   3.821   0.529   2.453  0.6252 -2.7184  1.0191
 4719TIP3   OH214120   0.404   6.905   5.657 -0.3366  0.4652 -0.5323
 4719TIP3    H114121   0.398   6.829   5.715 -0.5041  0.2575 -0.8201
 4719TIP3    H214122   0.354   6.880   5.579 -1.5470  1.3768 -0.0763
 4720TIP3   OH214123   4.220   1.656   5.766 -0.2868  0.4703  0.2582
 4720TIP3    H114124   4.204   1.605   5.846 -0.2277  2.5923  1.6640
 4720TIP3    H214125   4.219   1.591   5.696  0.0662 -1.5035  2.0191
 4721TIP3   OH214126   6.290   0.102   1.930 -0.5187 -0.0133 -0.3837
 4721TIP3    H114127   6.333   0.103   2.015  0.1909 -0.3041 -0.7383
 4721TIP3    H214128   6.301   0.012   1.899  0.0930  0.3447 -1.2198
 4722TIP3   OH214129   3.740   6.659   4.751 -0.1552 -0.2852  0.3523
 4722TIP3    H114130   3.720   6.606   4.673  0.7898 -1.3962  0.8549
 4722TIP3    H214131   3.680   6.625   4.818  0.3691 -0.6365  0.6421
 4723TIP3   OH214132   2.413   6.699   5.584  0.1308 -0.0772 -0.3588
 4723TIP3    H114133   2.351   6.749   5.531 -0.5433 -0.3679  0.1524
 4723TIP3    H214134   2.458   6.765   5.638 -0.5510  0.0087  0.1036
 4724TIP3   OH214135   0.766   6.496   3.345 -0.5416 -0.3744 -0.5149
 4724TIP3    H114136   0.756   6.407   3.378 -0.2091 -0.4844 -0.7048
 4724TIP3    H214137   0.701   6.503   3.275  0.5886 -1.0406 -1.6583
 4725TIP3   OH214138   2.028   1.153   5.675  0.0007 -0.0655  0.2797
 4725TIP3    H114139   2.036   1.242   5.709  1.2752 -0.4825  1.1071
 4725TIP3    H214140   1.985   1.104   5.745  0.0776 -0.2848  0.1744
 4726TIP3   OH214141   4.785   2.995   0.513 -0.6155  0.1109  0.0359
 4726TIP3    H114142   4.692   3.010   0.493 -0.3434  0.8889 -0.6768
 4726TIP3    H214143   4.830   3.013   0.431  0.1327 -0.6914  0.2659
 4727TIP3   OH214144   5.552   4.520   2.825 -0.5803 -0.1705  0.6607
 4727TIP3    H114145   5.487   4.484   2.765 -0.3040  0.8600 -0.2735
 4727TIP3    H214146   5.616   4.563   2.768  0.3164 -0.1909  1.6316
 4728TIP3   OH214147   1.451   0.880   5.897 -0.1545  0.1197 -0.0834
 4728TIP3    H114148   1.445   0.970   5.929 -0.1735  0.3937 -0.8600
 4728TIP3    H214149   1.499   0.887   5.814 -2.4503 -0.2843 -1.4707
 4729TIP3   OH214150   1.931   0.837   3.923  0.1747 -0.2733 -0.1433
 4729TIP3    H114151   1.907   0.814   3.834 -0.2720 -3.1061  0.6584
 4729TIP3    H214152   1.856   0.888   3.956 -0.1714 -0.2308 -0.9938
 4730TIP3   OH214153   1.600   0.767   4.779 -0.0886 -0.3296  0.2349
 4730TIP3    H114154   1.599   0.671   4.790  1.3125 -0.3768  0.0804
 4730TIP3    H214155   1.511   0.794   4.797 -0.5331 -1.6957  0.1579
 4731TIP3   OH214156   4.236   0.717   4.461 -0.0715  0.3694  0.2345
 4731TIP3    H114157   4.149   0.748   4.483 -0.9557 -1.5825 -0.4052
 4731TIP3    H214158   4.245   0.734   4.367 -0.1998 -0.3771  0.0773
 4732TIP3   OH214159   5.637   5.005   2.145  0.1360  0.0805 -0.2786
 4732TIP3    H114160   5.691   5.005   2.066  0.2495 -0.0305 -0.2009
 4732TIP3    H214161   5.548   5.012   2.112  0.2672  1.5069 -0.3669
 4733TIP3   OH214162   2.462   3.131   4.642  0.0389 -0.2755 -0.1337
 4733TIP3    H114163   2.446   3.215   4.598  0.3856 -0.4303 -0.5657
 4733TIP3    H214164   2.378   3.109   4.683 -1.1095 -1.3815 -2.8877
 4734TIP3   OH214165   6.709   6.855   4.817  0.1470 -0.4211 -0.2346
 4734TIP3    H114166   6.786   6.798   4.816 -1.4077 -2.6169  0.8495
 4734TIP3    H214167   6.708   6.892   4.906  0.7824  0.8347 -0.7305
 4735TIP3   OH214168   0.797   1.068   3.508 -0.0795 -0.1067 -0.7110
 4735TIP3    H114169   0.756   1.119   3.578  0.7811 -2.4414  1.6101
 4735TIP3    H214170   0.813   0.982   3.548  0.5680 -1.4725 -3.7645
 4736TIP3   OH214171   2.897   3.004   4.960  0.5422 -0.3862  0.0308
 4736TIP3    H114172   2.873   2.929   5.014 -0.5914 -0.6697 -0.8460
 4736TIP3    H214173   2.831   3.007   4.891 -0.2547  2.2552  0.8357
 4737TIP3   OH214174   5.317   2.123   2.543 -0.8954 -0.4393  0.9034
 4737TIP3    H114175   5.391   2.064   2.530  0.2038  1.2349 -0.6642
 4737TIP3    H214176   5.353   2.195   2.594 -1.2277  0.7785 -0.5480
 4738TIP3   OH214177   0.979   6.696   3.872 -0.3798 -0.7153 -0.3712
 4738TIP3    H114178   1.067   6.660   3.856 -0.3480 -1.1094  0.6589
 4738TIP3    H214179   0.995   6.776   3.921 -0.5547 -0.3389 -0.9299
 4739TIP3   OH214180   4.751   5.270   0.870  0.1787  0.0380 -0.2561
 4739TIP3    H114181   4.764   5.245   0.778 -0.8564  1.7395 -0.9068
 4739TIP3    H214182   4.692   5.346   0.865 -2.1069 -1.5312  1.9796
 4740TIP3   OH214183   0.244   0.820   3.531 -0.1341  0.6067 -0.2782
 4740TIP3    H114184   0.226   0.862   3.616 -1.4356  1.9252 -1.1864
 4740TIP3    H214185   0.164   0.771   3.512  0.5150 -0.4489 -0.3075
 4741TIP3   OH214186   2.979   1.693   5.211 -0.0813  0.0127  0.3401
 4741TIP3    H114187   2.948   1.771   5.258 -0.3003 -0.4554  0.9903
 4741TIP3    H214188   3.049   1.659   5.267 -0.0514 -0.3132  0.0997
 4742TIP3   OH214189   0.442   3.611   4.965  0.1253 -0.0100  0.3045
 4742TIP3    H114190   0.536   3.630   4.970  0.3707 -1.2617  0.6015
 4742TIP3    H214191   0.403   3.692   4.933  1.2733  0.6210  0.4753
 4743TIP3   OH214192   0.757   1.151   4.473  0.4335 -0.2175  1.0930
 4743TIP3    H114193   0.731   1.242   4.459  1.7490 -0.0809 -0.5391
 4743TIP3    H214194   0.826   1.156   4.539 -0.5947 -0.1907  2.1829
 4744TIP3   OH214195   3.635   1.553   3.964 -0.5097 -0.0865  0.3894
 4744TIP3    H114196   3.639   1.504   4.046 -2.6759 -1.2892 -0.1693
 4744TIP3    H214197   3.702   1.512   3.909  0.3227  0.1219  1.2381
 4745TIP3   OH214198   2.820   2.765   5.064 -0.1942 -0.4406 -0.0147
 4745TIP3    H114199   2.765   2.771   5.142  0.0351 -2.6088  0.3525
 4745TIP3    H214200   2.781   2.694   5.013  0.1319  0.4230 -1.4893
 4746TIP3   OH214201   2.790   0.218   5.972 -0.1256 -0.4966 -0.0174
 4746TIP3    H114202   2.724   0.270   5.925 -0.0438 -1.7210 -1.5023
 4746TIP3    H214203   2.873   0.242   5.931 -0.0267 -1.4107 -0.3481
 4747TIP3   OH214204   4.621   0.409   4.659 -0.2045 -0.1580  0.5278
 4747TIP3    H114205   4.571   0.472   4.607 -0.4613 -0.1456  0.7900
 4747TIP3    H214206   4.639   0.337   4.599 -1.9458 -0.9183  0.8811
 4748TIP3   OH214207   5.313   1.949   4.056  0.6199 -0.2680 -0.3066
 4748TIP3    H114208   5.318   2.030   4.106 -1.3611 -1.2427  1.5402
 4748TIP3    H214209   5.384   1.895   4.091  1.2342  0.2316 -0.7657
 4749TIP3   OH214210   4.595   0.576   5.672  0.3802 -0.6066  0.2004
 4749TIP3    H114211   4.642   0.659   5.681  0.1551 -0.3313 -0.9827
 4749TIP3    H214212   4.599   0.557   5.578 -1.7413 -0.6520  0.0978
 4750TIP3   OH214213   5.995   1.246   3.889 -0.3695  0.3830 -0.4316
 4750TIP3    H114214   5.917   1.268   3.940 -1.2383 -0.8167 -1.2228
 4750TIP3    H214215   5.998   1.312   3.820  0.6808  1.8753  0.9969
 4751TIP3   OH214216   4.667   6.746   5.904 -0.1651  0.5365  0.0642
 4751TIP3    H114217   4.608   6.720   5.833 -0.5011  0.9260  0.1978
 4751TIP3    H214218   4.637   6.833   5.929  0.8417  0.9872 -0.2633
 4752TIP3   OH214219   3.208   1.456   3.500  0.4025  0.1709  0.5024
 4752TIP3    H114220   3.187   1.542   3.536 -0.7031  0.2727 -0.3566
 4752TIP3    H214221   3.123   1.411   3.496  0.6555 -0.1719 -1.1177
 4753TIP3   OH214222   2.310   5.814   5.660 -0.0547  0.2252  0.0239
 4753TIP3    H114223   2.336   5.905   5.675 -0.7876  0.6489 -1.2412
 4753TIP3    H214224   2.383   5.776   5.611 -0.0617  0.3245 -0.0634
 4754TIP3   OH214225   4.074   0.672   5.099 -0.2670  0.2163 -0.0173
 4754TIP3    H114226   4.108   0.728   5.169 -0.0798  0.3572 -0.2197
 4754TIP3    H214227   4.125   0.591   5.107 -0.2607  0.2240  0.0228
 4755TIP3   OH214228   1.357   5.562   5.759  0.1143 -0.1108  0.4003
 4755TIP3    H114229   1.388   5.652   5.751 -0.6834  0.2752  1.5390
 4755TIP3    H214230   1.436   5.509   5.763  0.5890  0.5844  0.1613
 4756TIP3   OH214231   6.835   0.955   2.880 -0.1023  1.0177 -0.1351
 4756TIP3    H114232   6.824   0.889   2.810  2.5106  0.9527 -0.5509
 4756TIP3    H214233   6.839   1.038   2.833 -1.4374  1.2735  0.2145
 4757TIP3   OH214234   3.364   1.580   4.259 -0.0676  0.1592 -0.1096
 4757TIP3    H114235   3.327   1.533   4.186  0.1026 -1.9218  1.1087
 4757TIP3    H214236   3.291   1.630   4.296  0.1586  2.3783 -2.5225
 4758TIP3   OH214237   2.997   0.807   5.310 -0.5584 -0.2895 -0.6835
 4758TIP3    H114238   2.990   0.751   5.388  1.0728  0.1900 -0.1716
 4758TIP3    H214239   2.917   0.860   5.312 -0.7115 -0.5478  0.4587
 4759TIP3   OH214240   5.741   0.664   3.638  0.0016 -0.6869  0.4680
 4759TIP3    H114241   5.830   0.657   3.604  0.1139 -0.2486  0.6735
 4759TIP3    H214242   5.697   0.586   3.605  0.3646 -0.7264  0.0699
 4760TIP3   OH214243   3.558   5.964   2.564 -0.6956  0.0581 -0.0193
 4760TIP3    H114244   3.468   5.972   2.534  0.1507  1.8903 -2.2465
 4760TIP3    H214245   3.609   6.016   2.501  2.0812 -2.0793  0.3629
 4761TIP3   OH214246   5.777   1.608   5.503 -0.3307 -0.0545  0.0517
 4761TIP3    H114247   5.851   1.548   5.504 -0.2336  0.0651  0.2794
 4761TIP3    H214248   5.700   1.553   5.518 -0.6210 -0.5970 -3.1540
 4762TIP3   OH214249   7.297   2.062   5.117 -0.0017 -0.0263  0.4535
 4762TIP3    H114250   7.287   2.048   5.211 -1.5231 -0.1680  0.2914
 4762TIP3    H214251   7.257   1.984   5.077 -1.6390  1.1956 -0.3366
 4763TIP3   OH214252   5.203   0.681   5.079 -0.6416  0.3285 -0.1035
 4763TIP3    H114253   5.125   0.642   5.039 -0.1896 -0.0223 -0.6443
 4763TIP3    H214254   5.209   0.768   5.040 -1.2309  0.6747  0.5582
 4764TIP3   OH214255   6.244   1.240   4.159 -0.6164 -0.4293  0.0032
 4764TIP3    H114256   6.188   1.179   4.110 -1.7669 -0.5735  1.4567
 4764TIP3    H214257   6.273   1.189   4.235  0.1938  0.1517  0.0786
 4765TIP3   OH214258   5.502   0.554   5.542  0.6519  0.0947  0.2994
 4765TIP3    H114259   5.574   0.602   5.500 -0.0479 -0.3704 -1.4386
 4765TIP3    H214260   5.489   0.477   5.487 -0.6958 -0.2050  1.0306
 4766TIP3   OH214261   0.456   5.055   0.009  0.1195  0.0155 -0.5468
 4766TIP3    H114262   0.491   4.981  -0.040 -0.1834 -0.3967 -0.1457
 4766TIP3    H214263   0.384   5.018   0.060  0.8162  0.3167  0.6790
 4767TIP3   OH214264   6.943   4.623   0.499  0.5380  0.2687 -0.1435
 4767TIP3    H114265   6.956   4.704   0.548  2.1061 -0.1832  0.2212
 4767TIP3    H214266   6.946   4.554   0.566 -0.6305 -0.1103 -0.4690
 4768TIP3   OH214267   4.124   0.976   5.649 -0.2004  0.1808 -0.2292
 4768TIP3    H114268   4.185   0.940   5.713  1.6596  0.9003 -1.5628
 4768TIP3    H214269   4.179   1.024   5.587 -2.2552  2.1448 -0.6104
 4769TIP3   OH214270   2.355   5.478   0.011  0.1488  0.0302 -0.5112
 4769TIP3    H114271   2.378   5.418   0.083  0.8929  0.7992 -0.1025
 4769TIP3    H214272   2.342   5.421  -0.064  0.3349 -0.7023  0.0050
 4770TIP3   OH214273   5.956   2.390   5.267  0.4271  0.2733 -0.5063
 4770TIP3    H114274   5.937   2.422   5.179 -1.3546 -2.0869 -1.0238
 4770TIP3    H214275   5.872   2.393   5.312  0.9023 -0.5323  0.4539
 4771TIP3   OH214276   4.494   1.085   4.743 -0.0124  0.0302  0.2536
 4771TIP3    H114277   4.402   1.095   4.768 -0.6473  0.1053 -1.9856
 4771TIP3    H214278   4.529   1.174   4.744 -0.3912  0.1915 -0.4120
 4772TIP3   OH214279   3.858   1.873   3.081  0.6758 -0.4557 -0.3740
 4772TIP3    H114280   3.911   1.794   3.075 -0.0352 -1.1603  1.9266
 4772TIP3    H214281   3.902   1.927   3.145 -0.2501 -0.1408  0.0110
 4773TIP3   OH214282   1.242   6.665   3.853 -0.3167  0.1418  0.7095
 4773TIP3    H114283   1.327   6.703   3.834  0.0512  0.6112  3.1576
 4773TIP3    H214284   1.244   6.579   3.809  0.5935  0.9846 -0.9529
 4774TIP3   OH214285   7.230   1.239   5.180  0.3550 -0.3336 -0.0703
 4774TIP3    H114286   7.269   1.185   5.112 -0.9659 -1.7434  0.2659
 4774TIP3    H214287   7.271   1.208   5.261 -0.5849 -1.0224  0.1504
 4775TIP3   OH214288   6.706   0.570   5.338 -0.6621 -0.1872 -0.3152
 4775TIP3    H114289   6.768   0.525   5.395 -0.3588  0.5007 -0.1044
 4775TIP3    H214290   6.707   0.661   5.367 -1.4713 -0.0907 -0.5682
 4776TIP3   OH214291   4.467   3.387   5.598  0.7167  0.2982 -0.5122
 4776TIP3    H114292   4.441   3.296   5.612  1.6710  0.2031  0.6792
 4776TIP3    H214293   4.415   3.437   5.661  0.1192  0.6051 -1.2300
 4777TIP3   OH214294   3.987   0.840   4.905  0.1688 -0.2001 -0.2728
 4777TIP3    H114295   4.044   0.791   4.964 -0.8614 -1.6804 -0.4758
 4777TIP3    H214296   3.900   0.805   4.921 -0.8770  2.7627  0.7851
 4778TIP3   OH214297   5.613   0.148   3.078 -0.6890  0.0621  0.4446
 4778TIP3    H114298   5.536   0.149   3.136  0.3873  2.0791  1.8850
 4778TIP3    H214299   5.591   0.210   3.009 -0.0417  1.2383  1.2891
 4779TIP3   OH214300   5.419   1.712   0.262 -0.0675 -0.1761  0.2820
 4779TIP3    H114301   5.418   1.647   0.332 -1.7364 -0.9013 -0.3910
 4779TIP3    H214302   5.329   1.744   0.257  0.6421  1.9235  0.3363
 4780TIP3   OH214303   1.835   6.657   3.805  0.2227 -0.3121  0.3426
 4780TIP3    H114304   1.917   6.611   3.789  0.0375 -0.7596  0.6966
 4780TIP3    H214305   1.853   6.714   3.880 -0.0341 -1.0147  0.9356
 4781TIP3   OH214306   0.944   6.759   5.404 -0.0879 -0.1091  0.0949
 4781TIP3    H114307   0.906   6.735   5.488  0.2223  4.0367  1.5079
 4781TIP3    H214308   1.035   6.783   5.425  0.8887 -1.8185 -1.9341
 4782TIP3   OH214309   3.600   2.293   4.478 -0.2021  0.0120 -0.1867
 4782TIP3    H114310   3.586   2.206   4.440 -0.5253 -0.7784  1.6787
 4782TIP3    H214311   3.564   2.286   4.566 -0.8962  2.2749 -0.2635
 4783TIP3   OH214312   7.205   1.047   4.956 -0.2554 -0.0194  0.3406
 4783TIP3    H114313   7.168   1.092   4.880 -1.4486 -0.6754  0.5189
 4783TIP3    H214314   7.260   0.978   4.919 -0.7279 -0.2547  0.0718
 4784TIP3   OH214315   4.430   6.028   2.497  0.1560  0.3475  0.0395
 4784TIP3    H114316   4.476   6.054   2.576 -0.3052 -0.1454  0.4716
 4784TIP3    H214317   4.397   5.940   2.515 -0.7246  0.5856 -0.3614
 4785TIP3   OH214318   3.662   1.053   5.581  0.0834  0.5595  0.2827
 4785TIP3    H114319   3.725   1.047   5.510 -0.1146  0.5755  0.1072
 4785TIP3    H214320   3.716   1.069   5.659  0.3942 -0.5498  0.3138
 4786TIP3   OH214321   4.181   1.094   2.883  0.1080 -0.2398  0.1457
 4786TIP3    H114322   4.196   1.179   2.924 -4.0006  0.6418  0.0446
 4786TIP3    H214323   4.155   1.037   2.956  1.0737 -0.9381 -0.0484
 4787TIP3   OH214324   3.973   1.403   3.156  0.3857  0.0082  0.3100
 4787TIP3    H114325   3.915   1.327   3.149 -1.7248  1.7448 -1.6333
 4787TIP3    H214326   4.060   1.369   3.133 -0.7649 -1.5447 -1.8952
 4788TIP3   OH214327   5.279   1.670   4.702  0.0097 -0.8422  0.0465
 4788TIP3    H114328   5.206   1.631   4.750  0.5677 -1.0826  0.7139
 4788TIP3    H214329   5.257   1.763   4.695 -0.2376 -0.8673  0.4775
 4789TIP3   OH214330   5.333   6.310   0.289 -0.1467 -0.0533 -0.4451
 4789TIP3    H114331   5.315   6.220   0.262  0.6802 -0.3489 -0.0447
 4789TIP3    H214332   5.338   6.360   0.208 -2.4129 -0.0129 -0.5819
 4790TIP3   OH214333   3.374   4.418   5.613  0.5502  0.7025  0.2651
 4790TIP3    H114334   3.342   4.371   5.690  1.5264  0.5269  0.5710
 4790TIP3    H214335   3.300   4.420   5.553  0.1087 -0.0875  0.7812
 4791TIP3   OH214336   6.396   0.177   3.257  0.4098 -0.1626  0.2448
 4791TIP3    H114337   6.310   0.206   3.288 -0.8103 -0.8901 -2.3338
 4791TIP3    H214338   6.389   0.177   3.162  3.3581 -0.0478 -0.0362
 4792TIP3   OH214339   4.166   1.666   4.978  0.3050 -0.3868  0.1772
 4792TIP3    H114340   4.119   1.584   4.968  1.5701 -1.0515 -0.4181
 4792TIP3    H214341   4.188   1.693   4.889 -0.6512  0.9392  0.3182
 4793TIP3   OH214342   4.351   1.934   5.311 -0.2809  0.4120  0.2874
 4793TIP3    H114343   4.390   1.850   5.287  2.1197  2.0549 -1.8480
 4793TIP3    H214344   4.263   1.931   5.273 -0.3669 -1.2911  0.5812
 4794TIP3   OH214345   4.163   3.789   4.858 -0.2230  0.5337 -0.2797
 4794TIP3    H114346   4.091   3.742   4.816  0.4676  0.0278 -0.9100
 4794TIP3    H214347   4.241   3.763   4.809  0.8712 -1.3822  2.3061
 4795TIP3   OH214348   4.734   1.126   3.377 -0.4696 -0.1515  0.2257
 4795TIP3    H114349   4.815   1.152   3.334 -0.1788 -0.0902  0.8031
 4795TIP3    H214350   4.735   1.030   3.374 -0.2075 -0.1610  0.5295
 4796TIP3   OH214351   1.123   5.514   1.149 -0.2827 -0.1907 -0.0269
 4796TIP3    H114352   1.032   5.539   1.134 -0.7042 -0.5404  1.7819
 4796TIP3    H214353   1.170   5.597   1.157 -0.8004  0.0146  0.9697
 4797TIP3   OH214354   5.393   0.621   3.742 -0.9899 -0.1333 -0.4727
 4797TIP3    H114355   5.376   0.620   3.836  1.3231 -0.4913 -0.0191
 4797TIP3    H214356   5.383   0.530   3.714  1.5650 -0.6244  0.0933
 4798TIP3   OH214357   6.708   1.239   5.418  0.0504  0.2581  0.6418
 4798TIP3    H114358   6.786   1.183   5.419 -0.5202 -0.5589  1.7519
 4798TIP3    H214359   6.635   1.177   5.412 -0.5544  0.9382  0.9409
 4799TIP3   OH214360   4.893   2.562   4.772  0.3254 -0.1567  0.0537
 4799TIP3    H114361   4.980   2.539   4.738 -0.4988 -0.4010 -1.9866
 4799TIP3    H214362   4.840   2.484   4.759 -0.5929  0.4846 -0.1227
 4800TIP3   OH214363   4.160   0.192   5.878 -0.2124 -0.4301  0.4844
 4800TIP3    H114364   4.192   0.201   5.968  0.1581 -0.7685  0.3889
 4800TIP3    H214365   4.198   0.266   5.831  1.1498 -1.3050  0.1732
 4801TIP3   OH214366   6.415   1.418   4.104 -0.3745 -0.1623  0.3407
 4801TIP3    H114367   6.370   1.483   4.050  1.3064 -1.2306 -2.5256
 4801TIP3    H214368   6.348   1.353   4.125 -0.9209 -0.1198 -1.1910
 4802TIP3   OH214369   6.864   1.105   5.917  0.0091 -0.1710  0.2491
 4802TIP3    H114370   6.780   1.080   5.879 -0.2670  0.4232  0.4689
 4802TIP3    H214371   6.852   1.196   5.946  0.0881 -0.7442  2.1503
 4803TIP3   OH214372   2.127   6.283   6.001  0.5527  0.0484  0.0482
 4803TIP3    H114373   2.056   6.219   5.989  1.2267 -0.7221  0.0783
 4803TIP3    H214374   2.090   6.366   5.972  0.6242 -0.9257 -3.0407
 4804TIP3   OH214375   6.825   3.899   0.035 -0.0214 -0.2284 -0.3618
 4804TIP3    H114376   6.826   3.993   0.053 -0.3788  0.0466 -1.7367
 4804TIP3    H214377   6.807   3.892  -0.059 -0.3548 -1.6822 -0.2083
 4805TIP3   OH214378   4.187   1.052   4.477  0.0844  0.6140 -0.1647
 4805TIP3    H114379   4.126   0.979   4.474  0.0562  0.6705 -0.9080
 4805TIP3    H214380   4.131   1.129   4.487 -0.0072  0.7259 -1.4971
 4806TIP3   OH214381   2.641   0.727   5.439 -0.5311 -0.9157  0.0992
 4806TIP3    H114382   2.660   0.712   5.347 -2.8690  0.8503 -0.7208
 4806TIP3    H214383   2.724   0.758   5.476  0.1370 -0.5637 -1.6622
 4807TIP3   OH214384   2.913   1.993   4.301  0.0399 -0.3904 -0.0622
 4807TIP3    H114385   2.923   1.963   4.392  0.8125 -0.3467 -0.1317
 4807TIP3    H214386   2.930   1.915   4.248 -2.5429 -0.9656 -0.1322
 4808TIP3   OH214387   0.089   3.662   0.457 -0.0260  0.4059 -0.1294
 4808TIP3    H114388   0.155   3.725   0.486 -0.6005  0.9692 -0.0315
 4808TIP3    H214389   0.126   3.622   0.378 -0.0021  1.4371 -0.6409
 4809TIP3   OH214390   4.283   0.975   3.478 -0.4760 -0.4791 -0.6012
 4809TIP3    H114391   4.210   0.928   3.519 -0.6864 -3.0114 -3.7221
 4809TIP3    H214392   4.244   1.056   3.446 -1.1784 -0.3244  0.5940
 4810TIP3   OH214393   0.281   2.383   0.061  0.2231 -0.1368  0.1340
 4810TIP3    H114394   0.207   2.444   0.063  2.2004  2.4004 -1.0212
 4810TIP3    H214395   0.261   2.324  -0.012 -0.3190  0.9983 -0.6528
 4811TIP3   OH214396   6.199   2.348   4.491  0.2424  0.0241 -0.4119
 4811TIP3    H114397   6.161   2.261   4.497  0.7863 -0.1926 -0.1385
 4811TIP3    H214398   6.196   2.383   4.580  3.5425 -1.2065  0.2636
 4812TIP3   OH214399   4.692   0.151   3.105 -0.1281 -0.0468 -0.5817
 4812TIP3    H114400   4.719   0.105   3.026 -0.3995  0.3108 -0.8824
 4812TIP3    H214401   4.597   0.140   3.108 -0.1139 -0.0905 -0.2879
 4813TIP3   OH214402   0.164   5.340   0.577  0.2316 -0.0309  0.3613
 4813TIP3    H114403   0.239   5.281   0.571  0.6007  0.4432  0.1910
 4813TIP3    H214404   0.117   5.312   0.655  0.5097 -0.4291  0.3871
 4814TIP3   OH214405   4.973   1.742   4.981  0.4274  0.4834  0.1200
 4814TIP3    H114406   4.996   1.829   5.013 -0.5641  0.5427  0.6999
 4814TIP3    H214407   5.028   1.682   5.031  3.0170  0.9063 -2.1083
 4815TIP3   OH214408   6.322   0.188   2.220 -0.1889  0.3454 -0.2761
 4815TIP3    H114409   6.237   0.145   2.207 -0.3565  0.6060 -0.0581
 4815TIP3    H214410   6.305   0.281   2.205 -0.1561  0.5177  0.6987
 4816TIP3   OH214411   1.376   5.259   5.815 -0.4246  0.8374  0.0887
 4816TIP3    H114412   1.430   5.191   5.854  0.3405  0.0320 -2.2851
 4816TIP3    H214413   1.393   5.337   5.868  1.0480 -0.0722  0.9681
 4817TIP3   OH214414   5.028   1.067   2.083 -0.1959 -0.2173  0.4796
 4817TIP3    H114415   5.069   1.073   1.996 -0.2537 -1.7760  0.3439
 4817TIP3    H214416   5.031   1.157   2.116  0.3290  0.2939 -0.9056
 4818TIP3   OH214417   4.745   2.240   5.373  0.1016 -0.0606 -0.2284
 4818TIP3    H114418   4.684   2.182   5.418 -0.9107  1.1607  0.0005
 4818TIP3    H214419   4.783   2.294   5.442  1.4710 -0.8082 -0.3672
 4819TIP3   OH214420   4.183   6.240   4.843  0.2730 -0.6838 -0.1116
 4819TIP3    H114421   4.215   6.316   4.795  0.9717 -0.2987  0.9415
 4819TIP3    H214422   4.258   6.181   4.848 -0.7070 -2.1840 -2.3293
 4820TIP3   OH214423   2.844   2.224   4.216  0.1080 -0.1151  0.3301
 4820TIP3    H114424   2.762   2.232   4.265 -0.9822 -1.5067 -1.2327
 4820TIP3    H214425   2.886   2.146   4.251  0.5920  0.3768  0.8581
 4821TIP3   OH214426   5.911   1.214   4.968  0.4711  0.2636  0.1172
 4821TIP3    H114427   5.839   1.243   4.911  0.1818  2.2386  1.4217
 4821TIP3    H214428   5.963   1.156   4.913 -1.8573 -0.8292 -1.0006
 4822TIP3   OH214429   6.946   6.625   4.444 -0.2765 -0.0757  0.2755
 4822TIP3    H114430   7.027   6.582   4.414 -0.7484  0.5443 -1.9789
 4822TIP3    H214431   6.975   6.710   4.477 -0.0369  0.2981 -0.8758
 4823TIP3   OH214432   6.439   2.386   3.075  0.0801  0.0623  0.6969
 4823TIP3    H114433   6.454   2.443   3.150 -0.2058 -0.3997  1.1018
 4823TIP3    H214434   6.518   2.394   3.023  0.3007  0.3382  1.0745
 4824TIP3   OH214435   4.785   1.971   5.702  0.6680  0.1189 -0.1991
 4824TIP3    H114436   4.746   1.969   5.615 -1.3557 -0.7757  0.7021
 4824TIP3    H214437   4.711   1.961   5.762  2.1277 -0.2268  1.5958
 4825TIP3   OH214438   4.064   1.801   4.001 -0.7667  0.6934  0.0663
 4825TIP3    H114439   4.152   1.820   4.034 -0.7561 -0.7725  0.9194
 4825TIP3    H214440   4.079   1.756   3.917 -0.7095  0.4390  0.2141
 4826TIP3   OH214441   5.426   2.288   5.123 -0.1835 -0.1279 -0.3448
 4826TIP3    H114442   5.443   2.261   5.213  2.7777 -0.5118 -0.9887
 4826TIP3    H214443   5.465   2.375   5.116 -2.5655  0.9629 -0.5975
 4827TIP3   OH214444   5.455   1.530   5.155 -0.1188  0.0621  0.2553
 4827TIP3    H114445   5.454   1.574   5.070 -2.0504  1.4987  0.9808
 4827TIP3    H214446   5.546   1.536   5.184  0.3756  0.3433 -1.3010
 4828TIP3   OH214447   6.530   0.322   5.546  0.3107 -0.1364  0.0539
 4828TIP3    H114448   6.617   0.361   5.554 -0.0129  0.2421  2.0026
 4828TIP3    H214449   6.541   0.253   5.481  1.5127  1.4266 -1.4545
 4829TIP3   OH214450   4.949   6.832   3.312  0.2446  0.5988  0.2643
 4829TIP3    H114451   4.982   6.914   3.276 -0.2408  0.7051  0.0619
 4829TIP3    H214452   4.877   6.807   3.253  1.4109 -0.7811 -0.6150
 4830TIP3   OH214453   2.759   6.007   5.703  0.0339  0.2146  0.2988
 4830TIP3    H114454   2.706   6.050   5.770  1.1898  0.1199  1.3090
 4830TIP3    H214455   2.849   6.016   5.735  0.4637 -1.2315 -0.4509
 4831TIP3   OH214456   0.409   5.619   0.587  0.4750 -0.4364  0.1306
 4831TIP3    H114457   0.472   5.610   0.658  1.0747  1.1665 -0.1711
 4831TIP3    H214458   0.451   5.577   0.512  2.2741  2.7042 -0.6979
 4832TIP3   OH214459   2.970   1.319   3.518  0.6396 -0.5954 -0.0031
 4832TIP3    H114460   2.981   1.242   3.462 -0.6507  0.1072 -1.2414
 4832TIP3    H214461   2.916   1.379   3.467 -0.2437  0.2255  1.8335
 4833TIP3   OH214462   4.295   1.404   5.642  0.3114  0.0246 -0.1057
 4833TIP3    H114463   4.219   1.350   5.619 -0.7794  1.8660 -0.9352
 4833TIP3    H214464   4.357   1.342   5.680 -0.9814 -1.7809 -0.8387
 4834TIP3   OH214465   4.147   1.060   5.239 -0.0769  0.6532 -0.1054
 4834TIP3    H114466   4.082   1.077   5.306  0.5427  0.0592  0.6484
 4834TIP3    H214467   4.155   0.965   5.236  1.2057  0.7438  0.2488
 4835TIP3   OH214468   1.696   1.279   3.507  0.2182 -0.0518 -0.1714
 4835TIP3    H114469   1.711   1.189   3.479 -0.1519 -0.2710  0.3318
 4835TIP3    H214470   1.753   1.332   3.450 -1.1205 -0.4079 -1.8973
 4836TIP3   OH214471   6.622   4.453   0.651 -0.2176 -0.0009 -0.3012
 4836TIP3    H114472   6.684   4.392   0.611  0.3882  0.8082 -0.6104
 4836TIP3    H214473   6.537   4.424   0.619 -0.0725 -1.5006  0.6200
 4837TIP3   OH214474   5.852   0.679   4.809 -0.0632 -0.3463 -0.4038
 4837TIP3    H114475   5.759   0.671   4.827 -0.1165 -1.8300 -1.2759
 4837TIP3    H214476   5.860   0.758   4.757 -1.0825 -1.2740 -1.9928
 4838TIP3   OH214477   5.155   1.403   3.723  0.0072  0.4923  0.0922
 4838TIP3    H114478   5.086   1.442   3.778  0.8097  0.8719  0.8607
 4838TIP3    H214479   5.216   1.364   3.786  1.2755  1.4861 -0.4761
 4839TIP3   OH214480   0.388   5.425   0.032  0.7411 -0.0211 -0.3371
 4839TIP3    H114481   0.475   5.456   0.005  0.7208  0.3206 -0.0256
 4839TIP3    H214482   0.404   5.370   0.108  0.5001  1.8792  1.1318
 4840TIP3   OH214483   4.182   1.308   4.134 -0.3517  0.1211  0.3011
 4840TIP3    H114484   4.198   1.373   4.065 -0.8537  1.1781  1.1554
 4840TIP3    H214485   4.098   1.268   4.110 -0.6802  0.7044  0.4487
 4841TIP3   OH214486   4.773   2.256   5.661  0.4547 -0.4892  0.3728
 4841TIP3    H114487   4.828   2.284   5.733  0.6408  1.2267 -0.4125
 4841TIP3    H214488   4.783   2.160   5.658  2.5264 -0.3024  0.9081
 4842TIP3   OH214489   6.161   0.130   4.265 -0.1375  0.5566 -0.0559
 4842TIP3    H114490   6.175   0.065   4.197 -1.8805 -1.3534  1.3557
 4842TIP3    H214491   6.112   0.200   4.221  1.7024  0.9308 -1.5630
 4843TIP3   OH214492   7.242   5.859   0.051 -0.0663  0.0254 -1.4506
 4843TIP3    H114493   7.261   5.844   0.143  2.0535  0.3404 -1.8143
 4843TIP3    H214494   7.148   5.841   0.043  0.1941 -2.4591  0.2694
 4844TIP3   OH214495   2.955   6.332   4.768  0.1065  0.2101  0.1894
 4844TIP3    H114496   2.997   6.381   4.839 -1.8460  1.2982  0.6362
 4844TIP3    H214497   2.884   6.285   4.810 -0.0474 -0.4473 -0.7884
 4845TIP3   OH214498   1.102   6.889   4.298  0.1583 -0.6884 -0.1442
 4845TIP3    H114499   1.043   6.961   4.316  0.1679 -0.6321 -0.3410
 4845TIP3    H214500   1.065   6.815   4.346 -0.7258 -0.9588 -1.2007
 4846TIP3   OH214501   4.518   1.724   3.812 -0.0295  0.0007 -0.2286
 4846TIP3    H114502   4.513   1.659   3.881 -1.2660  0.9787  0.6269
 4846TIP3    H214503   4.608   1.759   3.818  0.2985 -0.8812 -0.0224
 4847TIP3   OH214504   3.957   1.069   4.764  0.2216 -0.1594  0.0399
 4847TIP3    H114505   3.939   1.135   4.830 -2.1005  0.7764 -1.4741
 4847TIP3    H214506   3.970   0.988   4.814  0.1430  0.8520  1.7303
 4848TIP3   OH214507   2.979   6.282   5.066  0.5179  0.1342  0.5483
 4848TIP3    H114508   2.993   6.224   5.140 -0.3409 -0.9379 -0.1169
 4848TIP3    H214509   2.885   6.274   5.047  0.9869 -0.6332 -1.5040
 4849TIP3   OH214510   3.499   0.644   5.827  0.3537 -0.0749 -0.4552
 4849TIP3    H114511   3.526   0.605   5.744  2.0234 -1.2082  0.6049
 4849TIP3    H214512   3.576   0.693   5.857 -0.1144  0.0168  0.6131
 4850TIP3   OH214513   2.420   6.074   5.718  0.5604  0.0280 -0.5150
 4850TIP3    H114514   2.338   6.118   5.738 -1.0776 -3.5739  1.2170
 4850TIP3    H214515   2.488   6.131   5.755 -1.3529  1.5827  0.7095
 4851TIP3   OH214516   4.309   0.766   1.866  0.2800 -0.0612 -0.3712
 4851TIP3    H114517   4.393   0.806   1.883 -0.6497  1.8256 -0.1397
 4851TIP3    H214518   4.284   0.797   1.779 -0.0924 -0.7677 -0.5251
 4852TIP3   OH214519   2.673   0.843   2.874  0.4877 -0.2308  0.3349
 4852TIP3    H114520   2.683   0.920   2.817  0.2782 -0.2445  0.2805
 4852TIP3    H214521   2.733   0.859   2.946  0.6678 -0.1565  0.1704
 4853TIP3   OH214522   5.948   3.403   5.193 -0.3149 -0.4756 -0.6412
 4853TIP3    H114523   5.961   3.457   5.271  0.1755  2.0256 -2.3879
 4853TIP3    H214524   5.981   3.317   5.217 -1.0822 -0.0231  2.2295
 4854TIP3   OH214525   4.893   2.813   2.330 -0.4077 -0.3987 -0.0707
 4854TIP3    H114526   4.981   2.820   2.293 -0.4898  1.2286  0.0066
 4854TIP3    H214527   4.902   2.750   2.402  1.1918  1.4317  1.3913
 4855TIP3   OH214528   6.749   3.813   0.700  0.2038  0.4051  0.1577
 4855TIP3    H114529   6.822   3.750   0.695  0.8468  1.1511 -0.0547
 4855TIP3    H214530   6.761   3.868   0.622  0.3097  1.4898  0.9279
 4856TIP3   OH214531   5.792   2.167   5.510 -0.7044  0.1551  0.4836
 4856TIP3    H114532   5.832   2.087   5.476 -1.1676 -0.2505  0.8841
 4856TIP3    H214533   5.797   2.159   5.605 -0.1962  0.8898  0.5263
 4857TIP3   OH214534   4.476   2.204   3.814 -0.0235 -0.0195 -0.1619
 4857TIP3    H114535   4.431   2.126   3.844  0.2468 -1.5269 -3.4355
 4857TIP3    H214536   4.408   2.256   3.770  0.4290  0.0532 -0.7832
 4858TIP3   OH214537   7.343   0.606   3.245  0.0940 -0.4399  0.0932
 4858TIP3    H114538   7.296   0.674   3.197 -1.0623 -1.1318  0.2115
 4858TIP3    H214539   7.371   0.544   3.178  0.1194 -0.4439  0.1074
 4859TIP3   OH214540   4.015   0.224   4.509 -0.1864  0.2292  0.3986
 4859TIP3    H114541   4.099   0.270   4.507  0.2432 -0.5503  0.3988
 4859TIP3    H214542   3.951   0.289   4.478  0.5442  0.5680 -0.4223
 4860TIP3   OH214543   2.007   6.612   5.103 -0.3290 -0.2671  0.3157
 4860TIP3    H114544   1.950   6.659   5.043  1.5920  1.6630 -0.0635
 4860TIP3    H214545   2.004   6.521   5.073 -3.2141 -0.2219  0.3543
 4861TIP3   OH214546   3.217   2.162   4.973 -0.4198  0.7407 -0.1444
 4861TIP3    H114547   3.257   2.075   4.973 -1.3892  0.2722 -1.7644
 4861TIP3    H214548   3.126   2.146   4.998 -1.2270  0.9579 -2.8602
 4862TIP3   OH214549   2.503   1.326   3.745  0.6506 -0.0696 -0.1344
 4862TIP3    H114550   2.410   1.303   3.744  0.3505  0.9663  1.8796
 4862TIP3    H214551   2.549   1.242   3.745 -0.3823 -0.6847  3.2466
 4863TIP3   OH214552   4.272   0.111   0.099 -0.4984  0.3024  0.1890
 4863TIP3    H114553   4.302   0.197   0.129 -2.3130  0.7898  0.6830
 4863TIP3    H214554   4.249   0.124   0.007  0.0368  0.1231  0.0269
 4864TIP3   OH214555   4.882   1.410   3.589  0.1078 -0.5415 -0.5125
 4864TIP3    H114556   4.858   1.502   3.583  0.0846 -0.2174  3.3738
 4864TIP3    H214557   4.972   1.410   3.620 -0.6881 -1.7729  1.9369
 4865TIP3   OH214558   2.008   5.428   5.643  0.5754 -0.2179  0.3075
 4865TIP3    H114559   1.981   5.375   5.567 -1.0731  2.7253 -1.2457
 4865TIP3    H214560   2.103   5.436   5.634  0.4834 -0.5028 -1.0474
 4866TIP3   OH214561   7.229   6.184   4.415  0.3016 -0.0284 -0.0471
 4866TIP3    H114562   7.136   6.166   4.401  0.0422 -0.1152  1.6457
 4866TIP3    H214563   7.243   6.165   4.508  2.2709 -1.1201 -0.5450
 4867TIP3   OH214564   4.848   3.576   2.601  0.2061  0.8712 -0.0153
 4867TIP3    H114565   4.822   3.488   2.629  0.2425  0.9540  0.2846
 4867TIP3    H214566   4.929   3.593   2.649  0.0938  1.1475  0.0769
 4868TIP3   OH214567   2.396   5.952   4.903 -0.2795  0.4966 -0.4444
 4868TIP3    H114568   2.389   6.013   4.976 -0.0721  0.0077 -0.0138
 4868TIP3    H214569   2.332   5.984   4.839 -0.9157  0.5615  0.2100
 4869TIP3   OH214570   0.082   1.186   3.909 -0.5064 -0.1078 -0.5820
 4869TIP3    H114571   0.057   1.226   3.993 -1.2309 -1.9789  0.1183
 4869TIP3    H214572   0.005   1.200   3.853 -0.1667  0.8111 -0.8322
 4870TIP3   OH214573   6.735   4.587   1.140 -0.1988  0.0784  0.6202
 4870TIP3    H114574   6.688   4.507   1.161  0.8109 -0.9269 -0.8367
 4870TIP3    H214575   6.779   4.612   1.221 -0.3863 -0.9488  1.0375
 4871TIP3   OH214576   2.180   0.448   4.754  0.0810  0.9303  0.0596
 4871TIP3    H114577   2.134   0.517   4.801  0.5805  1.6633 -0.5253
 4871TIP3    H214578   2.222   0.492   4.680  1.3722  0.2113  0.3351
 4872TIP3   OH214579   5.301   2.576   5.294 -0.2609  0.2200 -0.0636
 4872TIP3    H114580   5.345   2.588   5.210 -0.2318 -0.8182 -0.2115
 4872TIP3    H214581   5.344   2.500   5.333 -0.1976  0.7617  0.9459
 4873TIP3   OH214582   1.366   6.099   0.493 -0.1826  0.1181 -0.2456
 4873TIP3    H114583   1.394   6.181   0.453 -2.0395  0.5927 -0.6316
 4873TIP3    H214584   1.393   6.106   0.584  0.0736  0.9495 -0.3793
 4874TIP3   OH214585   3.011   6.018   5.813  0.1405  0.6466 -0.1474
 4874TIP3    H114586   3.071   6.057   5.877  0.9814 -1.6793  0.5150
 4874TIP3    H214587   3.066   6.004   5.735  0.1849 -0.5152  0.0982
 4875TIP3   OH214588   5.048   1.114   5.809  0.3355 -0.1592  0.1249
 4875TIP3    H114589   5.057   1.019   5.808 -0.0865 -0.2302  1.4597
 4875TIP3    H214590   5.132   1.147   5.778  1.2931 -0.9448  1.8311
 4876TIP3   OH214591   3.287   5.870   5.769 -0.0583  0.1851  0.2765
 4876TIP3    H114592   3.367   5.839   5.726  1.4637  0.5540  2.7165
 4876TIP3    H214593   3.313   5.954   5.808 -2.7624  2.2691 -2.2005
 4877TIP3   OH214594   3.778   2.513   5.321 -0.0437 -0.1406  0.2489
 4877TIP3    H114595   3.801   2.504   5.414 -0.1109  2.9386  0.6207
 4877TIP3    H214596   3.695   2.561   5.322 -0.3080 -0.5347 -1.4271
 4878TIP3   OH214597   2.450   1.829   5.582 -0.6578  0.8262  0.5038
 4878TIP3    H114598   2.443   1.877   5.664  0.8168  1.0072  0.5245
 4878TIP3    H214599   2.442   1.737   5.607 -2.1007  0.9706  0.6201
 4879TIP3   OH214600   5.045   0.850   5.722  0.0858 -0.0354  0.0947
 4879TIP3    H114601   5.115   0.813   5.669  1.3125  0.4035  1.3653
 4879TIP3    H214602   4.964   0.827   5.675  1.0492 -0.8308 -1.2142
 4880TIP3   OH214603   2.886   2.595   4.687  0.5121  0.1794  0.0446
 4880TIP3    H114604   2.848   2.662   4.630 -1.5284 -0.7416  0.2888
 4880TIP3    H214605   2.941   2.542   4.629 -1.0874 -0.3909 -0.9555
 4881TIP3   OH214606   7.245   5.012   0.877 -0.2025 -0.2732 -0.7884
 4881TIP3    H114607   7.167   5.061   0.854 -0.8741 -0.9430  0.0314
 4881TIP3    H214608   7.246   4.939   0.815 -1.7773 -1.8363  0.9681
 4882TIP3   OH214609   6.567   0.618   4.265 -0.2675  0.1940  0.8420
 4882TIP3    H114610   6.618   0.544   4.300 -0.0502 -0.3303 -0.5433
 4882TIP3    H214611   6.544   0.590   4.176  0.7365  2.2442 -0.0815
 4883TIP3   OH214612   1.318   5.186   0.435 -0.4813 -0.5319  0.7597
 4883TIP3    H114613   1.257   5.127   0.478 -0.3946 -1.3365 -0.2158
 4883TIP3    H214614   1.279   5.204   0.349 -0.5561  0.9083  1.0701
 4884TIP3   OH214615   2.922   1.958   2.091  0.0835  0.0966  0.1851
 4884TIP3    H114616   2.946   2.049   2.071  1.1633 -0.1307  0.4137
 4884TIP3    H214617   2.880   1.963   2.177 -0.5469  0.4799 -0.1436
 4885TIP3   OH214618   2.579   6.132   3.560  0.1593 -0.0204 -0.1235
 4885TIP3    H114619   2.488   6.117   3.585  0.5558 -3.7681 -0.6158
 4885TIP3    H214620   2.627   6.135   3.643 -0.2762  1.2195  0.0973
 4886TIP3   OH214621   6.023   6.831   4.329 -0.5020 -0.5052  0.0178
 4886TIP3    H114622   5.957   6.880   4.281 -0.7729 -1.6553 -0.7956
 4886TIP3    H214623   6.007   6.853   4.421 -1.6818 -0.3685 -0.2123
 4887TIP3   OH214624   6.662   2.788   2.678  0.2402 -0.0869  0.3205
 4887TIP3    H114625   6.594   2.814   2.616  0.5150 -0.4287 -0.1274
 4887TIP3    H214626   6.646   2.842   2.755 -0.1235  0.3200 -0.0376
 4888TIP3   OH214627   6.301   0.872   4.769 -0.3778  0.5262 -0.2878
 4888TIP3    H114628   6.266   0.804   4.711  0.3464 -0.4766  0.4329
 4888TIP3    H214629   6.364   0.826   4.824 -0.0027  1.7594  0.3244
 4889TIP3   OH214630   6.460   0.989   1.669  0.4240 -0.7284 -0.2848
 4889TIP3    H114631   6.493   1.065   1.622 -0.9891 -0.5300 -0.9887
 4889TIP3    H214632   6.402   0.946   1.607 -1.1434 -0.7057  1.1338
 4890TIP3   OH214633   5.060   6.735   5.491 -0.3168 -0.3550 -0.6716
 4890TIP3    H114634   5.026   6.824   5.484  2.2643  0.7834  0.7650
 4890TIP3    H214635   5.138   6.734   5.434 -0.2646 -1.6729 -0.5994
 4891TIP3   OH214636   2.705   6.642   3.103  0.2594 -0.2819  0.4148
 4891TIP3    H114637   2.793   6.679   3.107  0.0860 -0.0119  2.0675
 4891TIP3    H214638   2.691   6.622   3.010  1.3326  1.4247 -0.1241
 4892TIP3   OH214639   2.648   3.484   0.346 -0.4074  0.4318  0.5984
 4892TIP3    H114640   2.605   3.425   0.408 -1.5507  0.6711  0.0566
 4892TIP3    H214641   2.647   3.435   0.263  1.0889  0.1223  0.7571
 4893TIP3   OH214642   5.022   1.988   5.059  0.3665  0.0865  0.0130
 4893TIP3    H114643   5.116   1.985   5.074  0.1619 -0.4595  1.2538
 4893TIP3    H214644   4.993   2.070   5.098  0.1891 -0.1855  0.4553
 4894TIP3   OH214645   1.278   5.575   4.469  0.0492  0.2704 -0.7774
 4894TIP3    H114646   1.218   5.531   4.409  0.0833 -0.6338 -0.1646
 4894TIP3    H214647   1.344   5.614   4.412  0.3212 -0.9499 -1.3154
 4895TIP3   OH214648   6.220   1.502   4.817 -0.1282 -0.2137 -0.3272
 4895TIP3    H114649   6.208   1.587   4.859  1.1558 -0.5676  0.8183
 4895TIP3    H214650   6.242   1.523   4.726 -4.2696  0.5345 -1.2426
 4896TIP3   OH214651   4.865   1.764   5.325 -0.1166  0.0190 -0.0368
 4896TIP3    H114652   4.886   1.684   5.373  0.2294 -0.8439 -1.5929
 4896TIP3    H214653   4.950   1.804   5.307 -0.2285  0.1766 -0.2105
 4897TIP3   OH214654   2.505   0.156   4.873 -0.2338 -0.1173  0.0533
 4897TIP3    H114655   2.522   0.111   4.790 -1.5250  0.6697 -0.6579
 4897TIP3    H214656   2.409   0.163   4.877 -0.2601 -1.2139  2.1838
 4898TIP3   OH214657   4.451   1.465   4.438 -0.1593 -0.2973 -0.1066
 4898TIP3    H114658   4.445   1.390   4.378 -1.3651 -0.6943  0.4774
 4898TIP3    H214659   4.465   1.540   4.381  0.8656 -0.9460 -0.7226
 4899TIP3   OH214660   2.670   0.670   5.079  0.0694  0.7425 -0.5053
 4899TIP3    H114661   2.693   0.691   4.988  0.3183  1.2110 -0.3350
 4899TIP3    H214662   2.579   0.639   5.074 -0.1529  1.4359 -0.8201
 4900TIP3   OH214663   1.533   6.907   3.870  0.5781 -0.1540  0.1427
 4900TIP3    H114664   1.546   6.959   3.791  1.6156  2.0134  1.6766
 4900TIP3    H214665   1.605   6.932   3.928  1.3829 -3.6458  0.8135
 4901TIP3   OH214666   4.415   0.564   3.487  0.5477  0.0101 -1.0648
 4901TIP3    H114667   4.329   0.560   3.444 -0.0410  0.1682  0.0921
 4901TIP3    H214668   4.412   0.497   3.555  0.6910  1.2085  0.1440
 4902TIP3   OH214669   4.208   2.892   4.136 -0.2786  0.3255 -0.0253
 4902TIP3    H114670   4.184   2.969   4.084 -0.7965  0.9821  1.1828
 4902TIP3    H214671   4.125   2.846   4.151  0.2132 -1.2772 -1.9890
 4903TIP3   OH214672   4.259   1.377   4.606  0.6167 -0.4764 -0.2977
 4903TIP3    H114673   4.327   1.416   4.551  1.0289 -0.0482  0.4948
 4903TIP3    H214674   4.207   1.324   4.546  0.5246  0.6782 -1.2608
 4904TIP3   OH214675   1.898   0.104   5.636  0.0993  0.5428  0.1872
 4904TIP3    H114676   1.924   0.041   5.569  0.0985  0.4201  0.3023
 4904TIP3    H214677   1.909   0.190   5.595 -0.5358  0.4438 -0.1980
 4905TIP3   OH214678   6.679   2.655   3.720 -0.0808  0.7258  0.1433
 4905TIP3    H114679   6.728   2.588   3.673  0.6284  0.8153  0.7394
 4905TIP3    H214680   6.746   2.714   3.754 -0.4825  0.0875  2.1422
 4906TIP3   OH214681   4.939   0.435   3.057 -0.6568 -0.0922  0.6115
 4906TIP3    H114682   4.977   0.467   2.975  0.1332 -1.3994  0.4585
 4906TIP3    H214683   4.846   0.423   3.036 -1.0027  2.2310  0.7282
 4907TIP3   OH214684   0.144   2.970   4.688  0.4501 -0.8820 -0.5373
 4907TIP3    H114685   0.231   2.950   4.723  0.8311 -0.5788 -1.3082
 4907TIP3    H214686   0.154   3.055   4.646 -0.1398 -1.0140 -0.9479
 4908TIP3   OH214687   4.319   1.895   4.116 -0.6927 -0.1009  0.2724
 4908TIP3    H114688   4.352   1.947   4.189  1.1732 -0.3632 -0.3359
 4908TIP3    H214689   4.345   1.805   4.138  2.4815  0.1643 -2.0075
 4909TIP3   OH214690   3.017   6.691   4.539  0.2669  0.1689  0.6524
 4909TIP3    H114691   3.097   6.721   4.495  0.7949 -0.5604  1.1030
 4909TIP3    H214692   2.996   6.607   4.496  1.4344 -1.1303  2.5424
 4910TIP3   OH214693   6.835   0.489   3.526 -0.0327  0.4800 -0.3414
 4910TIP3    H114694   6.850   0.400   3.556 -0.9956  0.3421 -0.2590
 4910TIP3    H214695   6.918   0.516   3.487  0.4535 -0.2260  0.2037
 4911TIP3   OH214696   1.801   2.188   4.178  1.0588 -0.4818 -0.0890
 4911TIP3    H114697   1.712   2.190   4.143  0.3175  1.2842  1.8091
 4911TIP3    H214698   1.851   2.136   4.115 -1.0102 -0.3327 -1.8807
 4912TIP3   OH214699   5.940   2.424   3.378  0.0765 -0.0881  0.0361
 4912TIP3    H114700   5.892   2.343   3.398 -1.7999  0.9588 -0.1674
 4912TIP3    H214701   6.032   2.400   3.391 -0.4816 -2.1001  0.5420
 4913TIP3   OH214702   4.253   0.933   2.183 -0.0891  0.3148 -0.2614
 4913TIP3    H114703   4.320   0.983   2.228 -1.2744  0.9720  0.7877
 4913TIP3    H214704   4.298   0.897   2.106  1.1833  1.6412 -0.1636
 4914TIP3   OH214705   6.759   3.610   3.745 -0.2571  0.5321  0.0221
 4914TIP3    H114706   6.699   3.538   3.767  0.2457 -0.0100 -0.3459
 4914TIP3    H214707   6.795   3.585   3.660  0.0311  1.1573 -0.0407
 4915TIP3   OH214708   2.648   6.588   2.842  0.1779 -0.4343  0.2040
 4915TIP3    H114709   2.564   6.607   2.800  0.4947  0.9484  0.1783
 4915TIP3    H214710   2.713   6.632   2.788  0.7440  0.0602  1.2652
 4916TIP3   OH214711   1.976   5.462   0.458  0.1992 -0.0258  0.1681
 4916TIP3    H114712   2.039   5.455   0.530 -0.2037 -0.3966  0.4923
 4916TIP3    H214713   2.018   5.519   0.394  0.6799  0.0803  0.5769
 4917TIP3   OH214714   2.295   6.580   0.010 -0.2768  0.3453 -0.1023
 4917TIP3    H114715   2.221   6.564   0.068  1.0295 -1.6475  1.1008
 4917TIP3    H214716   2.357   6.630   0.064  0.9776 -1.5809  0.3164
 4918TIP3   OH214717   6.499   0.199   3.805  0.0367  0.2219 -0.2350
 4918TIP3    H114718   6.575   0.199   3.864 -0.4953  2.0572  0.4800
 4918TIP3    H214719   6.534   0.231   3.722  0.0942  0.9035  0.0464
 4919TIP3   OH214720   7.228   0.345   5.261  0.2010  0.3442  0.2184
 4919TIP3    H114721   7.217   0.391   5.178  1.1023  0.2317  0.0270
 4919TIP3    H214722   7.323   0.344   5.276  0.0929 -0.1766  0.9395
 4920TIP3   OH214723   1.246   3.926   0.020 -0.1841  0.6560 -0.2110
 4920TIP3    H114724   1.193   3.914   0.100 -1.0984  1.4526 -0.6892
 4920TIP3    H214725   1.316   3.986   0.047 -0.6660  1.1679 -0.0761
 4921TIP3   OH214726   1.230   1.524   3.642  0.3770  0.0725 -0.1150
 4921TIP3    H114727   1.159   1.523   3.577  0.1615 -0.3814  0.1267
 4921TIP3    H214728   1.185   1.522   3.726  0.6947 -3.4891  0.0574
 4922TIP3   OH214729   4.425   5.819   0.648 -0.0351 -0.2129  0.0116
 4922TIP3    H114730   4.457   5.853   0.565 -1.6948 -0.2757 -0.6691
 4922TIP3    H214731   4.456   5.882   0.713  1.6271 -0.3925 -0.6010
 4923TIP3   OH214732   6.813   1.607   5.111 -0.2206 -0.1079 -0.0308
 4923TIP3    H114733   6.751   1.677   5.132 -0.3239 -0.5907  1.3027
 4923TIP3    H214734   6.892   1.629   5.161  0.7297  0.5124 -1.7275
 4924TIP3   OH214735   5.195   0.860   3.306  0.5462  0.3478 -0.9977
 4924TIP3    H114736   5.237   0.784   3.346 -2.3019 -0.7408  0.0849
 4924TIP3    H214737   5.117   0.823   3.263 -0.9757  2.6660 -0.3082
 4925TIP3   OH214738   5.902   2.528   5.000  0.7186  0.6808 -0.3723
 4925TIP3    H114739   5.955   2.472   4.943  1.2722 -0.6632  1.4212
 4925TIP3    H214740   5.962   2.597   5.028  0.1908  1.8962 -2.1212
 4926TIP3   OH214741   5.855   0.210   2.166 -0.4521  0.6759 -0.3573
 4926TIP3    H114742   5.929   0.150   2.151 -1.6447 -0.5945 -1.3128
 4926TIP3    H214743   5.895   0.288   2.203  1.0664 -1.0378  1.7821
 4927TIP3   OH214744   6.626   3.601   4.416 -0.0527  0.0999 -0.5351
 4927TIP3    H114745   6.677   3.541   4.362 -1.0096  1.0651 -2.5419
 4927TIP3    H214746   6.538   3.600   4.379 -0.7168  0.8342  0.9646
 4928TIP3   OH214747   2.981   5.986   5.179 -0.5159 -0.0993  0.2202
 4928TIP3    H114748   2.922   5.919   5.214  0.4112 -2.0688 -1.8270
 4928TIP3    H214749   3.066   5.967   5.221  0.0229 -0.9522 -1.2413
 4929TIP3   OH214750   2.838   3.597   1.002 -0.2382 -0.0753  0.2593
 4929TIP3    H114751   2.772   3.594   1.071 -2.2099  1.5945 -1.4888
 4929TIP3    H214752   2.892   3.674   1.022  1.0428 -1.2768  1.5287
 4930TIP3   OH214753   7.150   0.951   2.848 -0.3995  0.6512  0.1448
 4930TIP3    H114754   7.221   1.013   2.862 -0.8646  0.8497  1.6454
 4930TIP3    H214755   7.098   0.955   2.928 -1.6988 -0.0229 -0.6467
 4931TIP3   OH214756   6.745   1.322   1.236  0.0244 -0.9366  0.4233
 4931TIP3    H114757   6.691   1.265   1.290 -2.7475  0.9681 -0.2670
 4931TIP3    H214758   6.757   1.401   1.289 -1.6726  0.4414 -1.1785
 4932TIP3   OH214759   5.902   1.799   3.931  0.7400 -0.1540  0.1891
 4932TIP3    H114760   5.927   1.890   3.916 -2.7459  1.1091  1.4216
 4932TIP3    H214761   5.949   1.774   4.011  0.1174  1.2741  1.0236
 4933TIP3   OH214762   7.314   1.863   3.052  0.3332  0.0793 -0.0746
 4933TIP3    H114763   7.408   1.872   3.061  0.6303 -2.3200 -0.4417
 4933TIP3    H214764   7.302   1.786   2.997 -1.8326  0.7456 -0.6019
 4934TIP3   OH214765   5.862   2.080   5.764  0.0081 -0.7348  0.0169
 4934TIP3    H114766   5.880   2.045   5.852 -1.9696  0.2998  0.8610
 4934TIP3    H214767   5.887   2.009   5.705  0.7402 -1.6970  1.4470
 4935TIP3   OH214768   6.804   0.659   2.279 -0.4391  0.0732  0.2026
 4935TIP3    H114769   6.778   0.605   2.354 -0.7904  0.9833  0.7373
 4935TIP3    H214770   6.896   0.637   2.266 -0.0527  0.7553  1.6390
 4936TIP3   OH214771   5.015   6.828   4.572 -0.2032 -0.1477  0.0204
 4936TIP3    H114772   4.935   6.804   4.619  0.4741 -0.5677  0.9478
 4936TIP3    H214773   5.026   6.759   4.506  0.0985 -0.7711  0.7248
 4937TIP3   OH214774   0.576   2.307   3.615  0.0461 -0.1366  0.0421
 4937TIP3    H114775   0.558   2.218   3.585  1.0663 -0.4499  0.3363
 4937TIP3    H214776   0.652   2.335   3.564 -0.7723  0.8736 -0.6389
 4938TIP3   OH214777   2.460   4.835   0.148 -0.8343  0.1487  0.0874
 4938TIP3    H114778   2.399   4.887   0.201  0.0075 -0.1166  1.3382
 4938TIP3    H214779   2.407   4.763   0.114 -1.9253  1.5776 -1.3432
 4939TIP3   OH214780   0.833   1.630   5.663  0.2702 -0.3241  0.2646
 4939TIP3    H114781   0.796   1.547   5.692 -1.3169  1.2144  2.7702
 4939TIP3    H214782   0.904   1.605   5.604 -1.6312 -3.4190 -0.8261
 4940TIP3   OH214783   7.014   6.046   0.399  0.0812  0.3438  0.1263
 4940TIP3    H114784   7.099   6.061   0.357 -0.1406 -1.2186 -0.9457
 4940TIP3    H214785   6.950   6.073   0.334 -0.2478 -0.0109  0.3024
 4941TIP3   OH214786   7.157   5.139   0.105 -0.3298 -0.1330  0.5010
 4941TIP3    H114787   7.220   5.188   0.053 -1.6104  1.3029  0.2735
 4941TIP3    H214788   7.209   5.098   0.174  0.9035  0.6703  0.0543
 4942TIP3   OH214789   6.394   6.393   3.110  0.1289  0.2458  0.1586
 4942TIP3    H114790   6.488   6.388   3.093  0.3237 -1.9719  1.6607
 4942TIP3    H214791   6.354   6.340   3.042 -0.1254  1.9655 -1.0477
 4943TIP3   OH214792   5.574   0.343   2.362  0.0681 -0.1183 -0.9916
 4943TIP3    H114793   5.641   0.407   2.385 -0.2015  0.2186 -1.1512
 4943TIP3    H214794   5.512   0.391   2.309 -1.2903  0.0453  0.6986
 4944TIP3   OH214795   3.779   6.912   4.611  0.1026 -0.1006  0.1252
 4944TIP3    H114796   3.754   6.882   4.523  0.4587 -1.3338  0.4418
 4944TIP3    H214797   3.778   6.833   4.665  0.8433  0.4944  1.0261
 4945TIP3   OH214798   6.429   1.822   4.661 -0.8603  0.3594 -0.1784
 4945TIP3    H114799   6.503   1.866   4.619 -0.3890 -0.3391 -0.0923
 4945TIP3    H214800   6.358   1.887   4.659  0.0557  1.4156  0.6723
 4946TIP3   OH214801   7.018   3.814   2.002  0.3017  0.0675 -0.1485
 4946TIP3    H114802   7.037   3.822   1.908  1.3248 -1.0099 -0.0362
 4946TIP3    H214803   7.080   3.873   2.044  0.5945 -0.2901 -0.0755
 4947TIP3   OH214804   6.643   2.229   3.981  0.1790 -0.0915  0.5554
 4947TIP3    H114805   6.666   2.174   3.907 -0.1639  1.0932 -0.4414
 4947TIP3    H214806   6.579   2.177   4.031 -1.0359 -0.1354 -1.0061
 4948TIP3   OH214807   5.657   3.068   2.637 -0.1949  0.7832  0.0243
 4948TIP3    H114808   5.605   3.139   2.600 -0.5252  0.6583  0.2504
 4948TIP3    H214809   5.705   3.031   2.562 -1.1324  0.3018 -0.3389
 4949TIP3   OH214810   7.186   3.449   3.542 -0.4070 -0.2270  0.1283
 4949TIP3    H114811   7.160   3.401   3.621 -0.4712 -0.1296  0.1652
 4949TIP3    H214812   7.132   3.412   3.472  0.6677 -1.3278 -0.1379
 4950TIP3   OH214813   2.550   5.286   0.673  0.1086  0.4785 -0.7488
 4950TIP3    H114814   2.561   5.239   0.591 -1.7948  0.8270 -1.2255
 4950TIP3    H214815   2.460   5.321   0.670 -0.0742  0.3312  1.5517
 4951TIP3   OH214816   2.515   0.067   1.313  0.2645 -0.0237 -0.0993
 4951TIP3    H114817   2.558   0.133   1.259  1.1251 -1.0638 -0.7049
 4951TIP3    H214818   2.554  -0.016   1.285 -0.5039 -0.7465  0.9404
 4952TIP3   OH214819   6.670   0.578   2.891 -0.1263  0.4911  0.6075
 4952TIP3    H114820   6.702   0.644   2.829 -0.2080  1.3710  1.4902
 4952TIP3    H214821   6.673   0.496   2.842 -1.2473  1.3445 -0.9360
 4953TIP3   OH214822   5.236   1.748   3.851 -0.3183  0.3491  0.3632
 4953TIP3    H114823   5.282   1.824   3.886 -0.1587  0.0147  0.8749
 4953TIP3    H214824   5.252   1.678   3.914 -0.6157 -0.0637 -0.0127
 4954TIP3   OH214825   0.022   0.899   4.863  0.5016  0.3535 -0.5164
 4954TIP3    H114826  -0.000   0.835   4.796  0.6491  0.9412 -1.1268
 4954TIP3    H214827   0.104   0.867   4.901  0.2595 -0.1393 -0.3940
 4955TIP3   OH214828   5.672   2.882   5.422  0.4770  0.2780 -0.6316
 4955TIP3    H114829   5.693   2.935   5.345  0.5176  2.7671  1.0374
 4955TIP3    H214830   5.576   2.883   5.426  0.4679 -0.0330 -0.7805
 4956TIP3   OH214831   5.181   0.133   2.326 -0.0401 -0.2758 -0.0632
 4956TIP3    H114832   5.218   0.213   2.364  3.0621 -1.0425 -1.3265
 4956TIP3    H214833   5.172   0.073   2.401  0.7792  0.1234  0.3687
 4957TIP3   OH214834   0.203   0.959   4.084  0.1574 -0.1974 -0.6400
 4957TIP3    H114835   0.274   1.002   4.131 -1.3493 -1.0393  2.6012
 4957TIP3    H214836   0.155   1.030   4.042  1.2710  0.6386 -0.5043
 4958TIP3   OH214837   3.626   6.024   4.297 -0.5834  0.4231 -0.0196
 4958TIP3    H114838   3.645   6.046   4.206 -0.9311 -0.5326 -0.3324
 4958TIP3    H214839   3.685   6.079   4.348 -0.8012  1.3919 -0.7986
 4959TIP3   OH214840   0.458   2.584   2.092  0.0377 -0.0846 -0.5502
 4959TIP3    H114841   0.537   2.621   2.132 -0.7334  1.8276 -0.7225
 4959TIP3    H214842   0.392   2.589   2.161  0.1694 -2.1501 -0.2394
 4960TIP3   OH214843   6.222   2.827   4.946  0.8251  0.1973  0.3518
 4960TIP3    H114844   6.202   2.750   5.000 -0.3701  1.3715  1.6055
 4960TIP3    H214845   6.276   2.792   4.875 -1.0048 -2.0900  0.0195
 4961TIP3   OH214846   7.040   1.738   5.199 -0.2039 -0.1847 -0.6148
 4961TIP3    H114847   7.135   1.742   5.209 -0.1861 -0.5447 -0.6124
 4961TIP3    H214848   7.015   1.825   5.169  0.3553 -0.6319 -2.4427
 4962TIP3   OH214849   4.440   6.571   0.992 -0.7970  0.0583  0.1300
 4962TIP3    H114850   4.470   6.501   0.933 -1.6221 -0.5495  0.4174
 4962TIP3    H214851   4.475   6.651   0.954  0.3787 -0.5400 -0.0668
 4963TIP3   OH214852   2.335   6.304   2.308 -0.3626  0.0823  0.6302
 4963TIP3    H114853   2.264   6.240   2.309 -1.0302  0.8049  0.2483
 4963TIP3    H214854   2.398   6.269   2.244 -0.8490 -0.0652  0.2246
 4964TIP3   OH214855   6.792   3.268   2.520  0.3439  0.2954 -0.2618
 4964TIP3    H114856   6.864   3.218   2.558 -0.5502  0.2700  1.4597
 4964TIP3    H214857   6.753   3.210   2.455  0.1153 -0.7967  0.8194
 4965TIP3   OH214858   5.334   1.252   4.810 -0.0938  0.5514  0.0984
 4965TIP3    H114859   5.394   1.247   4.885  0.4114 -0.8881 -0.3830
 4965TIP3    H214860   5.277   1.175   4.820 -0.9377  1.1305 -0.2276
 4966TIP3   OH214861   5.707   6.543   4.386  0.0202 -0.0588 -0.1824
 4966TIP3    H114862   5.733   6.473   4.446  1.9933  1.0932  0.3257
 4966TIP3    H214863   5.759   6.527   4.307 -0.1798  0.3403 -0.3946
 4967TIP3   OH214864   6.829   5.251   0.651  0.2147  0.4528 -0.1810
 4967TIP3    H114865   6.742   5.215   0.632  0.3040 -1.2316  2.2798
 4967TIP3    H214866   6.890   5.190   0.608  0.3109 -1.5605  2.6750
 4968TIP3   OH214867   6.696   1.608   1.859 -0.2776  0.3039 -0.1068
 4968TIP3    H114868   6.738   1.590   1.774  1.1516  1.2074  0.3879
 4968TIP3    H214869   6.603   1.616   1.838 -0.1722 -1.3066 -1.3021
 4969TIP3   OH214870   6.460   1.123   3.428 -0.3948 -0.3436 -0.0140
 4969TIP3    H114871   6.485   1.157   3.513 -0.0834  0.7065 -0.5107
 4969TIP3    H214872   6.400   1.190   3.392 -0.9013 -1.0033 -0.4094
 4970TIP3   OH214873   5.281   0.271   5.603  0.9892 -0.0927 -0.7920
 4970TIP3    H114874   5.321   0.354   5.628  1.2840 -0.9263  1.6460
 4970TIP3    H214875   5.189   0.292   5.589  0.8153  0.4602  0.9981
 4971TIP3   OH214876   7.364   1.240   3.140  0.5667  0.1348  0.0679
 4971TIP3    H114877   7.330   1.152   3.156  0.0306  0.4018  0.4584
 4971TIP3    H214878   7.425   1.256   3.213  0.2705  0.2778  0.2883
 4972TIP3   OH214879   7.344   6.016   0.562 -0.2588  0.0420 -0.5510
 4972TIP3    H114880   7.258   5.996   0.599 -0.2672 -0.5953 -0.9045
 4972TIP3    H214881   7.369   5.936   0.516 -0.5095  1.0243 -2.4436
 4973TIP3   OH214882   3.615   6.638   2.971 -0.6586 -0.6632 -0.1829
 4973TIP3    H114883   3.703   6.675   2.969 -0.6918 -0.6033 -1.9862
 4973TIP3    H214884   3.613   6.583   3.049  1.3043 -1.4871 -0.6914
 4974TIP3   OH214885   6.965   0.650   4.301 -0.2947 -0.1992  0.7259
 4974TIP3    H114886   7.000   0.566   4.271  0.7846  1.3351 -2.5780
 4974TIP3    H214887   7.037   0.688   4.351  0.2817 -0.0476 -0.1953
 4975TIP3   OH214888   5.622   1.099   3.718  0.2143  0.2104  0.8389
 4975TIP3    H114889   5.625   1.124   3.810  1.3659  0.7154  0.6709
 4975TIP3    H214890   5.585   1.011   3.718 -3.6206  1.7261  1.4640
 4976TIP3   OH214891   5.971   2.145   4.452 -0.7777 -0.0490 -0.5343
 4976TIP3    H114892   5.877   2.128   4.455 -0.8077  0.0663 -0.8220
 4976TIP3    H214893   6.008   2.070   4.405 -0.7648  0.0678 -0.7121
 4977TIP3   OH214894   5.160   3.022   5.387 -0.1680  0.1362 -0.8498
 4977TIP3    H114895   5.087   3.039   5.447  1.0285  2.0127  0.1109
 4977TIP3    H214896   5.119   2.982   5.311 -1.6920 -2.5688  1.3024
 4978TIP3   OH214897   5.954   2.078   4.858 -0.4505 -0.1911  0.2779
 4978TIP3    H114898   5.987   2.005   4.911 -0.2768 -0.1264  0.2602
 4978TIP3    H214899   6.012   2.151   4.879  1.9075 -1.1138 -2.6824
 4979TIP3   OH214900   6.250   2.284   5.803 -0.1398 -0.8041 -0.3135
 4979TIP3    H114901   6.320   2.257   5.862 -0.4105 -0.7680  0.0191
 4979TIP3    H214902   6.286   2.269   5.715 -0.4501 -2.6393 -0.1376
 4980TIP3   OH214903   6.852   1.350   6.016  0.1241 -0.1696 -0.8865
 4980TIP3    H114904   6.834   1.410   5.944  0.2964  1.2777  0.2536
 4980TIP3    H214905   6.889   1.406   6.085 -0.8942 -1.3616  0.6600
 4981TIP3   OH214906   2.737   6.681   5.688 -0.6724  0.2772 -0.6280
 4981TIP3    H114907   2.709   6.649   5.774  1.3715  0.1232  0.0214
 4981TIP3    H214908   2.730   6.776   5.695  0.0176  0.2976 -0.0671
 4982TIP3   OH214909   5.785   1.653   1.757  0.5245 -0.8099 -0.4405
 4982TIP3    H114910   5.807   1.730   1.704 -0.1386 -0.3713 -0.0851
 4982TIP3    H214911   5.842   1.584   1.724  2.0725  0.1804  0.1286
 4983TIP3   OH214912   7.172   2.228   4.928  0.0899  0.0881  0.6218
 4983TIP3    H114913   7.227   2.236   4.850  0.5214  1.2456  1.0327
 4983TIP3    H214914   7.224   2.177   4.990  0.3416  0.4035  0.6746
 4984TIP3   OH214915   5.408   3.400   4.200 -0.6057  0.5218  0.3314
 4984TIP3    H114916   5.403   3.324   4.142 -1.1473  0.7222  0.1207
 4984TIP3    H214917   5.500   3.427   4.195  0.2779 -1.8507  2.6056
 4985TIP3   OH214918   6.383   2.700   2.555  0.6012  0.2225  0.2916
 4985TIP3    H114919   6.325   2.666   2.623  1.9902  0.4289  1.6050
 4985TIP3    H214920   6.328   2.758   2.504 -1.3753 -2.5907 -0.9135
 4986TIP3   OH214921   6.968   2.724   4.408 -0.3204  0.6278 -0.1364
 4986TIP3    H114922   6.989   2.630   4.404 -0.8358  0.4224  1.6794
 4986TIP3    H214923   7.020   2.757   4.481 -0.2417  1.7460 -0.6870
 4987TIP3   OH214924   6.711   2.068   4.744  0.0734  0.2888  0.6994
 4987TIP3    H114925   6.783   2.128   4.767  0.8169 -0.8989  1.4920
 4987TIP3    H214926   6.749   2.010   4.678 -0.7652  0.9075 -0.3528
 4988TIP3   OH214927   6.636   1.821   3.749  0.3528 -0.0336 -0.0524
 4988TIP3    H114928   6.626   1.866   3.665 -0.7689 -0.1206  0.0259
 4988TIP3    H214929   6.547   1.798   3.775  0.9234 -2.6213 -0.2549
 4989TIP3   OH214930   5.936   0.892   3.069  0.1792  0.0869  0.4385
 4989TIP3    H114931   6.006   0.946   3.033  2.4532 -2.9024  0.2229
 4989TIP3    H214932   5.941   0.906   3.163  1.6179 -0.7340  0.4947
 4990TIP3   OH214933   3.130   0.533   3.045  0.2425 -0.5840 -0.3188
 4990TIP3    H114934   3.207   0.541   2.989  0.2133  1.1425 -0.1412
 4990TIP3    H214935   3.059   0.512   2.984  0.4231  0.1602 -0.7907
 4991TIP3   OH214936   5.546   1.247   2.879 -0.0789 -0.4400  0.1958
 4991TIP3    H114937   5.468   1.231   2.931  0.2847  2.7092  1.8398
 4991TIP3    H214938   5.615   1.198   2.923  0.0897  1.6778  2.4189
 4992TIP3   OH214939   0.055   3.981   4.026  0.5036 -0.4911 -0.4948
 4992TIP3    H114940   0.095   3.987   3.940 -0.2160 -1.6476 -0.9243
 4992TIP3    H214941  -0.037   4.005   4.012 -0.0742 -2.5323 -0.4410
 4993TIP3   OH214942   7.305   2.906   4.877 -0.1422  0.0550  0.3234
 4993TIP3    H114943   7.315   2.812   4.861 -3.2241 -0.2372 -0.2644
 4993TIP3    H214944   7.359   2.947   4.810  0.5750 -1.2940  0.0468
 4994TIP3   OH214945   0.610   1.369   2.738 -0.3053  0.0798  0.1231
 4994TIP3    H114946   0.704   1.353   2.740 -0.3838 -0.2800  1.1713
 4994TIP3    H214947   0.600   1.462   2.757 -0.2242 -0.1293  1.1869
 4995TIP3   OH214948   5.074   0.042   3.631 -0.1693 -0.4395  0.5608
 4995TIP3    H114949   5.120  -0.041   3.645  1.6152  0.2764 -0.8210
 4995TIP3    H214950   5.114   0.103   3.693  0.1362 -0.0355 -0.0281
 4996TIP3   OH214951   5.374   2.446   3.857 -0.1157 -0.5650  0.7095
 4996TIP3    H114952   5.410   2.391   3.787  0.3742 -0.4612  0.8804
 4996TIP3    H214953   5.290   2.405   3.880 -1.6808  0.9766 -1.9217
 4997TIP3   OH214954   5.239   0.492   4.700 -0.6365 -0.4446  0.0803
 4997TIP3    H114955   5.179   0.515   4.629  0.1149 -1.5860 -0.9323
 4997TIP3    H214956   5.281   0.411   4.671 -0.3539 -0.9463  1.8482
 4998TIP3   OH214957   0.760   3.267   5.196 -0.2394 -0.2126 -0.5354
 4998TIP3    H114958   0.740   3.265   5.289 -1.3490  2.0250 -0.6948
 4998TIP3    H214959   0.786   3.177   5.175 -0.7640 -0.9263  1.7401
 4999TIP3   OH214960   1.179   0.493   2.577  0.6316 -1.0955 -0.2086
 4999TIP3    H114961   1.162   0.410   2.532 -0.3965 -0.9826 -0.0392
 4999TIP3    H214962   1.274   0.495   2.590  0.9790 -1.0044 -2.6137
 5000TIP3   OH214963   0.647   1.177   4.743  0.0689 -0.2996 -0.0357
 5000TIP3    H114964   0.688   1.223   4.670  2.4450 -1.5335  0.4493
 5000TIP3    H214965   0.719   1.161   4.804 -1.3154 -1.8382  1.2392
 5001TIP3   OH214966   5.399   6.469   2.903  0.7293 -0.2542 -0.0163
 5001TIP3    H114967   5.343   6.393   2.886  1.3769 -0.6383 -0.4509
 5001TIP3    H214968   5.355   6.516   2.973 -1.3415  0.6801 -1.9047
 5002TIP3   OH214969   0.315   0.812   5.728  0.4930  0.3120  0.0835
 5002TIP3    H114970   0.327   0.886   5.669 -2.2713  0.9979  0.3313
 5002TIP3    H214971   0.316   0.735   5.671  1.7507  0.6310 -0.3549
 5003TIP3   OH214972   6.172   1.563   2.827 -0.0142 -0.0452 -0.4537
 5003TIP3    H114973   6.262   1.535   2.845  0.5898  1.4145 -1.1053
 5003TIP3    H214974   6.168   1.571   2.732 -1.3210 -1.6498 -0.5509
 5004TIP3   OH214975   7.098   1.450   5.054 -0.8755  0.2744  0.4593
 5004TIP3    H114976   7.112   1.535   5.095 -2.5200  0.1779  1.2622
 5004TIP3    H214977   7.140   1.387   5.113 -0.4268  0.4376  0.3179
 5005TIP3   OH214978   6.405   0.860   5.154 -0.4765 -0.3940  0.5128
 5005TIP3    H114979   6.447   0.814   5.081  0.0139 -0.8224  1.0625
 5005TIP3    H214980   6.477   0.891   5.208 -0.8484 -0.6802  1.1839
 5006TIP3   OH214981   4.056   1.552   4.444 -0.5024  0.0226  0.3020
 5006TIP3    H114982   3.999   1.559   4.521  0.9848 -0.0711  1.4192
 5006TIP3    H214983   4.111   1.630   4.447  0.8561 -0.9124  0.4095
 5007TIP3   OH214984   4.071   6.036   0.563  0.4758 -0.7766  0.2216
 5007TIP3    H114985   4.131   6.004   0.496 -0.3565 -0.1319 -0.8588
 5007TIP3    H214986   4.127   6.088   0.622  0.8683  0.4987 -1.2257
 5008TIP3   OH214987   5.271   0.780   5.593  0.7375 -0.4351  0.2166
 5008TIP3    H114988   5.287   0.697   5.549  0.0566 -0.7838  0.6309
 5008TIP3    H214989   5.358   0.819   5.601  1.0419 -1.0378 -0.1119
 5009TIP3   OH214990   6.307   0.527   5.580 -0.2779  0.2248 -0.2621
 5009TIP3    H114991   6.261   0.592   5.633 -0.9277 -1.2296  1.0198
 5009TIP3    H214992   6.326   0.571   5.498 -0.4843  2.0999  0.6727
 5010TIP3   OH214993   5.729   5.392   3.918 -0.2714  0.3240 -0.1049
 5010TIP3    H114994   5.648   5.429   3.885 -0.7819 -1.8359 -1.3773
 5010TIP3    H214995   5.702   5.317   3.970  0.8222  0.5428  0.7936
 5011TIP3   OH214996   6.809   1.790   2.940  0.5768 -0.2258  0.1514
 5011TIP3    H114997   6.804   1.700   2.972 -0.1234  0.6651  2.6498
 5011TIP3    H214998   6.899   1.818   2.959  0.2591  0.1891  1.1003
 5012TIP3   OH214999   3.591   5.928   2.825  0.1245 -0.0880  0.0039
 5012TIP3    H115000   3.574   5.924   2.731 -1.0502 -0.8484  0.2460
 5012TIP3    H215001   3.628   5.842   2.847 -1.7063 -0.7415  0.6336
 5013TIP3   OH215002   5.261   1.439   3.484  0.4246 -0.0618  0.1602
 5013TIP3    H115003   5.215   1.407   3.561  1.2730 -0.1075  0.6603
 5013TIP3    H215004   5.350   1.403   3.492  0.4959 -0.1482 -0.8834
 5014TIP3   OH215005   4.556   2.589   5.131  0.5917  0.1973 -0.4424
 5014TIP3    H115006   4.612   2.517   5.102  1.0665  1.0120 -1.5608
 5014TIP3    H215007   4.506   2.614   5.053 -1.3653 -0.5283  0.5333
 5015TIP3   OH215008   4.346   1.227   5.161  0.2118 -0.0223 -0.2543
 5015TIP3    H115009   4.275   1.187   5.212  0.3268  1.0851  0.7736
 5015TIP3    H215010   4.333   1.192   5.072 -1.0959 -0.5074  0.1070
 5016TIP3   OH215011   4.190   6.911   2.002 -0.1502  0.0262 -0.1924
 5016TIP3    H115012   4.177   6.924   1.908  0.4649  0.2319 -0.2503
 5016TIP3    H215013   4.271   6.957   2.021  0.1425 -0.6995  0.2921
 5017TIP3   OH215014   0.571   5.012   0.302 -0.8259  0.6278  0.3699
 5017TIP3    H115015   0.494   4.956   0.308 -0.6816  0.4126  0.2376
 5017TIP3    H215016   0.631   4.977   0.369  0.1939 -0.8473 -1.2579
 5018TIP3   OH215017   6.751   2.097   5.070  0.4370  0.5460 -0.6878
 5018TIP3    H115018   6.710   2.014   5.048  0.5355  0.5593 -0.9257
 5018TIP3    H215019   6.771   2.138   4.985  1.5599  0.2254 -0.5880
 5019TIP3   OH215020   6.776   1.853   5.622  0.0460  0.7722  0.3625
 5019TIP3    H115021   6.851   1.798   5.646 -0.4438 -0.1522 -0.1973
 5019TIP3    H215022   6.814   1.939   5.607  0.9508  0.3938  0.4426
 5020TIP3   OH215023   7.225   1.210   3.815  0.0925  0.2414  0.5183
 5020TIP3    H115024   7.167   1.136   3.833  0.3165 -0.5040 -1.5911
 5020TIP3    H215025   7.166   1.278   3.781  0.0849  0.4736  1.0013
 5021TIP3   OH215026   5.590   1.212   5.632 -0.1987 -0.5692 -0.1068
 5021TIP3    H115027   5.647   1.215   5.709 -0.7726 -0.5270  0.3199
 5021TIP3    H215028   5.650   1.205   5.558  0.3841 -0.0217  0.3047
 5022TIP3   OH215029   0.546   5.769   1.080  0.5926  0.1124  0.0168
 5022TIP3    H115030   0.564   5.689   1.130  2.1444 -1.1341 -2.3982
 5022TIP3    H215031   0.538   5.838   1.145  2.6273 -1.4250  1.9566
 5023TIP3   OH215032   2.250   4.115   3.712  0.1123 -0.1759 -0.6496
 5023TIP3    H115033   2.333   4.084   3.676 -0.0929 -1.8155  0.2468
 5023TIP3    H215034   2.234   4.198   3.667  2.2661  0.1920 -0.7674
 5024TIP3   OH215035   1.657   4.322   4.913 -0.1854 -0.0342  0.4287
 5024TIP3    H115036   1.742   4.294   4.880 -0.5451  0.7385 -1.2006
 5024TIP3    H215037   1.600   4.245   4.900  0.0380 -0.2385  0.6583
 5025TIP3   OH215038   0.568   0.802   4.613 -0.0297 -0.1470 -0.2194
 5025TIP3    H115039   0.525   0.763   4.536  0.1305  2.2369 -1.5654
 5025TIP3    H215040   0.517   0.882   4.630  1.3449  0.5322  0.7385
 5026TIP3   OH215041   5.837   4.497   4.498  0.6560 -0.2378  0.6937
 5026TIP3    H115042   5.889   4.577   4.507  0.4774  0.0265 -0.5155
 5026TIP3    H215043   5.776   4.499   4.572  0.7077  0.6988  0.7134
 5027TIP3   OH215044   6.179   1.742   4.928 -0.1993 -0.4754 -0.5327
 5027TIP3    H115045   6.249   1.806   4.938 -1.1761  0.6959 -1.0971
 5027TIP3    H215046   6.103   1.781   4.970 -0.8820 -1.1238 -1.1335
 5028TIP3   OH215047   6.997   1.256   3.327  0.2810  0.0492  0.2236
 5028TIP3    H115048   6.917   1.232   3.375  0.5807 -0.0313  0.6840
 5028TIP3    H215049   7.018   1.344   3.359  0.0504  0.3107 -0.3301
 5029TIP3   OH215050   4.518   1.574   2.642 -0.3375  0.4856 -0.0450
 5029TIP3    H115051   4.608   1.602   2.626 -0.1668 -0.0423 -0.0178
 5029TIP3    H215052   4.465   1.638   2.596  0.1260 -0.8679 -2.5981
 5030TIP3   OH215053   0.898   1.484   1.829  0.2339 -0.6565 -0.0914
 5030TIP3    H115054   0.928   1.565   1.789  2.1762 -1.6881 -0.7502
 5030TIP3    H215055   0.847   1.440   1.760 -0.1070 -0.4061 -0.0027
 5031TIP3   OH215056   6.419   1.735   3.984  0.0902  0.0630 -0.0310
 5031TIP3    H115057   6.351   1.670   4.001 -0.5219  0.6124 -0.3570
 5031TIP3    H215058   6.372   1.818   3.975  0.6985  0.2891 -1.3287
 5032TIP3   OH215059   5.375   6.937   0.019  0.6753 -0.1177  0.4037
 5032TIP3    H115060   5.426   6.998   0.071  0.1974 -1.4749  2.5335
 5032TIP3    H215061   5.393   6.851   0.058 -1.0268 -0.9669 -0.6110
 5033TIP3   OH215062   6.874   2.497   6.002  0.0200 -0.0023 -0.1920
 5033TIP3    H115063   6.951   2.521   6.053  1.3440 -0.0018 -2.1460
 5033TIP3    H215064   6.822   2.578   5.999  0.3994  0.2676  0.3478
 5034TIP3   OH215065   2.129   5.476   0.684  0.2977  0.2770 -0.0484
 5034TIP3    H115066   2.196   5.434   0.739  0.9744  0.5358 -0.6673
 5034TIP3    H215067   2.071   5.520   0.746  0.4823 -0.2671  0.5154
 5035TIP3   OH215068   2.545   5.096   0.456  0.1426 -0.5619 -0.0154
 5035TIP3    H115069   2.607   5.094   0.383  1.5108  1.0293  1.0654
 5035TIP3    H215070   2.556   5.012   0.500  0.1214 -1.0674 -0.9625
 5036TIP3   OH215071   7.128   2.502   3.679  0.0422 -0.1976 -0.1152
 5036TIP3    H115072   7.083   2.497   3.763  1.5285 -0.7757  0.6534
 5036TIP3    H215073   7.171   2.587   3.680 -0.6909  0.1831 -0.6798
 5037TIP3   OH215074   7.170   1.444   5.790  0.0260  0.1397 -0.1454
 5037TIP3    H115075   7.143   1.423   5.701  0.7155  0.9307 -0.5424
 5037TIP3    H215076   7.260   1.410   5.797  0.2845  0.8325 -0.0311
 5038TIP3   OH215077   3.002   5.856   1.059 -0.4859 -0.2091 -0.3246
 5038TIP3    H115078   3.003   5.795   0.984 -1.2066  0.4379 -0.8646
 5038TIP3    H215079   2.965   5.804   1.131  1.2737 -1.1919 -0.0954
 5039TIP3   OH215080   2.084   1.554   5.338  0.1022  0.1313 -0.5202
 5039TIP3    H115081   2.074   1.460   5.348  3.2369 -0.0473  1.9918
 5039TIP3    H215082   2.153   1.565   5.272 -0.1006  0.6373 -0.6529
 5040TIP3   OH215083   3.756   5.630   0.687 -0.4090 -0.0571  0.2198
 5040TIP3    H115084   3.701   5.628   0.765 -0.2620  0.2314  0.3323
 5040TIP3    H215085   3.695   5.618   0.614 -0.5794 -0.0668  0.3648
 5041TIP3   OH215086   5.471   4.851   0.433  0.0918 -0.3128 -0.5667
 5041TIP3    H115087   5.423   4.915   0.381  0.9205  1.2010  0.4784
 5041TIP3    H215088   5.426   4.852   0.518  0.2034 -1.0135 -0.4989
 5042TIP3   OH215089   3.862   3.491   1.121  0.3337  0.7897 -0.2207
 5042TIP3    H115090   3.909   3.408   1.119 -0.2680  0.4488 -0.1898
 5042TIP3    H215091   3.875   3.524   1.210  2.1455  1.6424 -0.7746
 5043TIP3   OH215092   1.512   0.188   4.100  0.0188 -0.1311 -0.2219
 5043TIP3    H115093   1.518   0.281   4.079 -0.9177  0.1705  0.8149
 5043TIP3    H215094   1.444   0.183   4.168 -0.9890 -1.7506 -1.3359
 5044TIP3   OH215095   1.581   5.898   1.928 -0.3865 -0.4375 -0.2325
 5044TIP3    H115096   1.651   5.854   1.977 -1.6272 -0.2047  1.8217
 5044TIP3    H215097   1.591   5.990   1.952 -1.3486 -0.4026  0.0251
 5045TIP3   OH215098   0.838   2.781   4.489 -0.4286 -0.8319 -0.0109
 5045TIP3    H115099   0.855   2.688   4.476  2.4202 -0.0473 -2.3115
 5045TIP3    H215100   0.912   2.813   4.541 -1.4781  0.1463  0.9388
 5046TIP3   OH215101   0.074   2.208   6.001 -0.1330  0.2848 -0.1197
 5046TIP3    H115102   0.089   2.215   5.907  1.3655 -0.4016  0.0515
 5046TIP3    H215103   0.036   2.121   6.013  3.0691 -1.1710  0.2521
 5047TIP3   OH215104   7.136   0.982   1.247  0.0539  0.3907  0.2373
 5047TIP3    H115105   7.178   0.921   1.308  0.6178  0.5475  0.0022
 5047TIP3    H215106   7.203   1.002   1.183  0.2919  2.3313  1.0717
 5048TIP3   OH215107   4.252   4.362   0.889 -0.9096 -0.5027 -0.9049
 5048TIP3    H115108   4.259   4.270   0.913  0.8559  0.3770  2.3384
 5048TIP3    H215109   4.198   4.400   0.958  0.9811  1.4289 -0.4297
 5049TIP3   OH215110   0.857   2.932   4.254 -0.1858  0.0631  0.0127
 5049TIP3    H115111   0.841   2.890   4.338 -1.2707 -1.0778 -0.7452
 5049TIP3    H215112   0.842   2.863   4.189 -0.1267  1.1249 -1.1559
 5050TIP3   OH215113   6.248   2.865   5.841  0.1560 -0.3666 -0.2562
 5050TIP3    H115114   6.164   2.888   5.800  0.1077 -1.0679 -0.5621
 5050TIP3    H215115   6.225   2.842   5.931  0.0254 -0.5262 -0.3308
 5051TIP3   OH215116   3.922   5.364   0.545  0.0338 -0.3954  0.0730
 5051TIP3    H115117   3.877   5.433   0.497  0.9312 -1.2718 -2.0743
 5051TIP3    H215118   4.003   5.405   0.576  0.2257 -0.2736 -0.5802
 5052TIP3   OH215119   7.022   2.583   3.943 -0.1635 -0.0589 -0.3414
 5052TIP3    H115120   6.943   2.535   3.966 -0.6011  1.7483  2.1144
 5052TIP3    H215121   6.991   2.672   3.925  1.1832  0.4069 -0.3870
 5053TIP3   OH215122   3.830   6.712   1.623  0.2123  0.2351 -0.0370
 5053TIP3    H115123   3.894   6.641   1.628  1.0233  1.0788  2.2075
 5053TIP3    H215124   3.757   6.682   1.676 -0.1619  0.3515 -0.4883
 5054TIP3   OH215125   0.281   3.268   5.297 -0.3735  0.5846  0.2238
 5054TIP3    H115126   0.224   3.332   5.341 -1.5457 -2.2855  3.0745
 5054TIP3    H215127   0.221   3.214   5.245  0.2761  0.2051 -0.1390
 5055TIP3   OH215128   2.128   1.807   3.512  0.3126  0.1840 -0.1104
 5055TIP3    H115129   2.164   1.762   3.588  0.2121  1.2262  0.5762
 5055TIP3    H215130   2.199   1.806   3.447  0.6580 -0.0725  0.2705
 5056TIP3   OH215131   1.510   1.935   5.459  0.1498  0.3870  0.2202
 5056TIP3    H115132   1.551   1.853   5.431 -0.0526  0.3465  0.0398
 5056TIP3    H215133   1.558   2.003   5.412 -1.3227  0.2097 -1.5976
 5057TIP3   OH215134   2.862   4.222   0.878  0.8603 -0.1280 -0.4938
 5057TIP3    H115135   2.838   4.303   0.923 -1.9668 -0.6758 -0.8893
 5057TIP3    H215136   2.868   4.246   0.785  1.2968 -0.1045 -0.4593
 5058TIP3   OH215137   3.843   3.055   4.157 -0.1294  0.5053 -0.7535
 5058TIP3    H115138   3.849   3.146   4.187 -1.1311  1.2707 -2.7740
 5058TIP3    H215139   3.913   3.047   4.092 -0.8596  0.2025 -1.5034
 5059TIP3   OH215140   0.155   3.048   5.546 -0.1526 -0.4461  0.0954
 5059TIP3    H115141   0.066   3.026   5.575 -0.4887 -0.4596 -0.9200
 5059TIP3    H215142   0.189   3.104   5.616 -0.5443 -1.3489  1.0297
 5060TIP3   OH215143   0.818   0.788   3.565 -0.3375  0.2675 -0.7302
 5060TIP3    H115144   0.723   0.801   3.577 -0.0765  1.4861  0.1141
 5060TIP3    H215145   0.836   0.704   3.606 -0.6595  1.1536  1.2903
 5061TIP3   OH215146   1.883   0.255   4.036 -0.0781  0.2322 -0.4847
 5061TIP3    H115147   1.826   0.325   4.004 -1.0374  0.3526  1.4370
 5061TIP3    H215148   1.960   0.300   4.070 -0.4117  0.2974  0.1733
 5062TIP3   OH215149   0.003   6.914   5.087 -0.0264 -0.4321  0.5330
 5062TIP3    H115150  -0.033   7.000   5.109 -0.8709 -1.1423  2.0111
 5062TIP3    H215151   0.072   6.900   5.152 -0.5491 -1.2787  0.9136
 5063TIP3   OH215152   1.086   1.892   4.403 -0.2607 -0.0211  0.3909
 5063TIP3    H115153   1.021   1.958   4.380  1.3542  1.7370  0.7338
 5063TIP3    H215154   1.107   1.850   4.319 -1.5574 -0.3677  0.2261
 5064TIP3   OH215155   1.551   6.311   0.451  0.1459  0.5751 -0.1848
 5064TIP3    H115156   1.568   6.363   0.373 -0.3559  0.0867 -0.6278
 5064TIP3    H215157   1.611   6.345   0.517 -0.1896  1.7161 -0.4646
 5065TIP3   OH215158   7.313   4.462   5.861 -0.1269 -0.4573  0.2633
 5065TIP3    H115159   7.369   4.393   5.897  1.3758  0.5663 -0.0457
 5065TIP3    H215160   7.310   4.528   5.930 -1.2786 -0.6688  0.4198
 5066TIP3   OH215161   3.141   6.480   0.400  0.1906 -0.1958 -0.2927
 5066TIP3    H115162   3.106   6.544   0.339  0.8327  0.9779  0.5472
 5066TIP3    H215163   3.107   6.396   0.369 -0.5632  0.5309 -1.4725
 5067TIP3   OH215164   1.490   1.391   5.893 -0.4140  0.5274 -0.5657
 5067TIP3    H115165   1.397   1.403   5.909 -0.3943 -0.7644  0.6639
 5067TIP3    H215166   1.529   1.388   5.980  0.5415 -0.5914 -1.0215
 5068TIP3   OH215167   1.807   3.060   5.325 -0.3425  0.2259 -0.4363
 5068TIP3    H115168   1.740   3.128   5.330 -0.6070 -0.2044  2.3916
 5068TIP3    H215169   1.875   3.099   5.269 -2.2147  1.2475 -2.0876
 5069TIP3   OH215170   0.572   2.063   3.533 -0.7196 -0.1560 -0.1498
 5069TIP3    H115171   0.569   1.977   3.573 -0.7588  0.1207  0.4548
 5069TIP3    H215172   0.502   2.062   3.468 -0.9337 -0.4710  0.0851
 5070TIP3   OH215173   0.739   1.902   5.325  0.0591 -0.1354 -0.1052
 5070TIP3    H115174   0.831   1.929   5.315  0.2068 -0.5494  0.1094
 5070TIP3    H215175   0.721   1.914   5.418 -0.7597  1.9851 -0.5233
 5071TIP3   OH215176   4.993   1.233   0.601  0.7664 -0.7410  0.0915
 5071TIP3    H115177   4.998   1.265   0.691 -1.0876  0.9985 -0.3698
 5071TIP3    H215178   5.048   1.293   0.551  0.5936 -0.7854 -0.1529
 5072TIP3   OH215179   0.280   1.916   5.839  0.7760  0.3428  0.1402
 5072TIP3    H115180   0.309   1.889   5.926 -0.5354  2.0114  1.1345
 5072TIP3    H215181   0.356   1.962   5.802  0.8547  0.9228  1.0024
 5073TIP3   OH215182   7.291   2.252   3.241  0.3641  0.4083  0.2203
 5073TIP3    H115183   7.315   2.248   3.334  1.3922 -0.4784 -0.0802
 5073TIP3    H215184   7.363   2.299   3.200  2.0154 -2.9107 -0.8098
 5074TIP3   OH215185   1.855   3.363   5.440  0.0158 -0.7203 -0.1801
 5074TIP3    H115186   1.856   3.456   5.419 -0.2962 -1.1463 -2.2142
 5074TIP3    H215187   1.778   3.328   5.394  0.9007 -2.2125 -0.5884
 5075TIP3   OH215188   7.266   4.110   4.588 -0.3569 -0.3065  0.0397
 5075TIP3    H115189   7.288   4.174   4.520 -0.8859  0.0345  0.1902
 5075TIP3    H215190   7.258   4.162   4.668 -0.3617 -0.6211  0.2434
 5076TIP3   OH215191   6.089   6.799   3.145 -0.6431  0.0250 -0.1374
 5076TIP3    H115192   6.111   6.849   3.224 -2.8128 -1.2673  1.3438
 5076TIP3    H215193   6.010   6.750   3.169 -1.3356 -0.4137 -3.1287
 5077TIP3   OH215194   3.233   5.064   4.036 -0.7317  0.7012 -0.2077
 5077TIP3    H115195   3.165   5.031   4.095 -0.2482 -0.6107 -0.3541
 5077TIP3    H215196   3.308   5.081   4.094  0.4416 -2.5719 -0.6646
 5078TIP3   OH215197   1.171   3.540   5.623  0.2535  0.0421  0.5368
 5078TIP3    H115198   1.238   3.486   5.580 -0.1354  1.2809 -1.6748
 5078TIP3    H215199   1.216   3.623   5.640 -0.7240  0.9193 -1.0619
 5079TIP3   OH215200   6.782   3.320   5.202  0.4573  0.4431  0.0590
 5079TIP3    H115201   6.727   3.242   5.195  0.5765  0.0938  2.7013
 5079TIP3    H215202   6.822   3.328   5.115 -1.0498 -1.3063 -0.8418
 5080TIP3   OH215203   0.430   2.501   4.934  0.5746  0.6861  0.3830
 5080TIP3    H115204   0.446   2.534   5.023 -1.4666  0.2172  0.9584
 5080TIP3    H215205   0.341   2.530   4.914  0.8791  0.4354 -1.3600
 5081TIP3   OH215206   0.709   1.446   3.579 -0.2868 -0.2088 -0.1484
 5081TIP3    H115207   0.630   1.499   3.595 -0.1889  0.1088 -0.7161
 5081TIP3    H215208   0.699   1.371   3.638 -1.4782 -0.6520 -0.8811
 5082TIP3   OH215209   1.416   3.047   2.999 -0.5121 -0.2315  0.0037
 5082TIP3    H115210   1.332   3.040   3.046  0.1468 -1.8781  0.9695
 5082TIP3    H215211   1.391   3.056   2.907 -1.7739  0.0838  0.3614
 5083TIP3   OH215212   3.128   3.514   1.570 -0.6148 -0.1866 -0.3479
 5083TIP3    H115213   3.050   3.468   1.601 -0.5013 -0.0146  0.2114
 5083TIP3    H215214   3.104   3.548   1.484 -0.5218 -1.7368 -0.9979
 5084TIP3   OH215215   3.618   6.476   0.055 -0.3768  0.0564  0.3934
 5084TIP3    H115216   3.560   6.470   0.131 -0.0058  1.8582  0.8484
 5084TIP3    H215217   3.611   6.568   0.027  0.0129 -0.4260 -1.3362
 5085TIP3   OH215218   0.619   2.448   4.500 -0.7978 -0.2453  0.2379
 5085TIP3    H115219   0.689   2.442   4.435  0.2286  0.2308  1.2923
 5085TIP3    H215220   0.655   2.502   4.570 -1.8660 -0.8094  1.2411
 5086TIP3   OH215221   3.161   4.848   2.003 -0.0883  0.2514 -0.2989
 5086TIP3    H115222   3.172   4.881   1.914 -0.7110 -1.4141 -1.0131
 5086TIP3    H215223   3.078   4.801   2.001 -0.5652  0.9940  1.4169
 5087TIP3   OH215224   4.136   4.625   0.563 -0.8400  0.2721 -0.0343
 5087TIP3    H115225   4.197   4.661   0.627 -0.3542  0.1181 -0.4118
 5087TIP3    H215226   4.057   4.606   0.614 -0.0999 -0.8239  0.7410
 5088TIP3   OH215227   0.206   2.762   2.801  0.6143 -0.1823  0.0864
 5088TIP3    H115228   0.171   2.677   2.773 -1.4966  0.6591  0.0907
 5088TIP3    H215229   0.297   2.760   2.773  0.5666 -2.4174 -0.0108
 5089TIP3   OH215230   0.115   1.143   4.953 -0.0150 -0.3670  0.5111
 5089TIP3    H115231   0.031   1.100   4.936  0.6107 -1.1734 -0.5453
 5089TIP3    H215232   0.181   1.076   4.936  0.8532  0.2813  1.2812
 5090TIP3   OH215233   2.741   5.276   1.629 -0.0584  0.2306 -0.3797
 5090TIP3    H115234   2.672   5.335   1.597  1.6388  2.7319  0.3831
 5090TIP3    H215235   2.767   5.314   1.713  2.6673 -0.2763 -0.9539
 5091TIP3   OH215236   2.313   2.957   5.384 -0.5000  0.0532  0.1262
 5091TIP3    H115237   2.254   3.001   5.445 -0.3861 -1.0016  1.0235
 5091TIP3    H215238   2.362   3.028   5.343 -1.3693  0.8464  0.4444
 5092TIP3   OH215239   1.458   2.352   5.812  0.3104  0.3506 -0.1368
 5092TIP3    H115240   1.502   2.287   5.757 -0.3784  0.4918 -0.8639
 5092TIP3    H215241   1.396   2.395   5.753 -1.1222 -0.1500  0.9822
 5093TIP3   OH215242   3.619   6.022   1.794  0.3262 -0.3072 -0.1411
 5093TIP3    H115243   3.575   6.026   1.709  1.5139  1.9778 -0.7091
 5093TIP3    H215244   3.558   6.063   1.855 -0.1520 -1.1337 -0.0589
 5094TIP3   OH215245   0.791   2.906   5.599 -0.0073 -0.3178 -0.4152
 5094TIP3    H115246   0.818   2.831   5.547  2.4735  2.3013 -3.1173
 5094TIP3    H215247   0.869   2.930   5.650 -0.5151  0.8696 -0.1640
 5095TIP3   OH215248   3.439   3.542   0.078 -0.2411 -0.0198 -0.1739
 5095TIP3    H115249   3.516   3.546   0.021  0.9856  0.0024  1.4237
 5095TIP3    H215250   3.424   3.633   0.104 -1.6530  0.1603 -1.5294
 5096TIP3   OH215251   2.042   0.541   3.773  0.0767  0.5165  0.5144
 5096TIP3    H115252   2.026   0.523   3.680 -2.9930  0.0308  1.0848
 5096TIP3    H215253   2.006   0.629   3.787  1.3427  0.9548  1.0530
 5097TIP3   OH215254   0.143   1.849   3.358  0.1521  0.3365  0.0229
 5097TIP3    H115255   0.176   1.863   3.447  0.0018  0.9468 -0.0156
 5097TIP3    H215256   0.170   1.927   3.310  1.0871 -0.4171 -0.7273
 5098TIP3   OH215257   1.799   2.501   5.799  0.7316  0.0353  0.0009
 5098TIP3    H115258   1.795   2.590   5.766  0.1968  0.5214  1.3304
 5098TIP3    H215259   1.762   2.506   5.887 -2.4131 -2.0665 -1.0707
 5099TIP3   OH215260   6.024   2.088   3.946 -0.1391 -0.4462 -0.5453
 5099TIP3    H115261   6.100   2.034   3.927  0.9227  0.7710  0.1266
 5099TIP3    H215262   6.033   2.165   3.890 -1.2612 -0.6214 -0.9906
 5100TIP3   OH215263   0.493   1.248   2.367  0.4344 -0.4477 -0.1600
 5100TIP3    H115264   0.427   1.217   2.429  0.8553 -1.2537 -0.1002
 5100TIP3    H215265   0.442   1.287   2.296 -0.0895 -0.4995  0.1827
 5101TIP3   OH215266   0.416   2.595   3.998 -0.2974 -0.2482 -0.2498
 5101TIP3    H115267   0.370   2.619   4.079 -0.1950 -1.2939  0.1216
 5101TIP3    H215268   0.368   2.518   3.966  0.8393 -0.9965 -0.1635
 5102TIP3   OH215269   2.530   1.158   5.578 -0.5079  0.1965 -0.2131
 5102TIP3    H115270   2.541   1.225   5.511  2.3298 -0.1811 -0.2083
 5102TIP3    H215271   2.495   1.082   5.531 -1.7630  1.0191 -0.6106
 5103TIP3   OH215272   3.391   5.361   0.541  0.1938 -0.1560 -0.1622
 5103TIP3    H115273   3.469   5.311   0.520  0.1859 -0.8831  1.4730
 5103TIP3    H215274   3.319   5.299   0.531 -0.1146  0.3228 -0.9758
 5104TIP3   OH215275   0.178   3.445   5.987  0.1011  0.2644  0.7496
 5104TIP3    H115276   0.125   3.507   6.039  0.7043  3.1113 -1.8932
 5104TIP3    H215277   0.117   3.412   5.921  0.1773 -0.8366  1.2268
 5105TIP3   OH215278   0.613   2.090   5.899  0.1021  0.1243 -0.8969
 5105TIP3    H115279   0.550   2.155   5.869 -0.6803 -0.1279  0.1665
 5105TIP3    H215280   0.693   2.140   5.915  0.0229  0.5342 -1.7520
 5106TIP3   OH215281   1.973   3.935   5.883 -0.4825  0.6639 -0.3958
 5106TIP3    H115282   1.944   3.975   5.801 -0.3643  0.1041 -0.7129
 5106TIP3    H215283   2.062   3.906   5.865 -0.1968  1.1711  0.1534
 5107TIP3   OH215284   0.375   2.061   3.821  0.2636  0.3140  0.1985
 5107TIP3    H115285   0.344   2.045   3.910  0.3976  0.2699  0.2382
 5107TIP3    H215286   0.414   2.148   3.824  2.0215 -0.4478  0.6724
 5108TIP3   OH215287   7.331   2.529   5.884  0.2520  0.1208  0.4228
 5108TIP3    H115288   7.274   2.606   5.874  0.7118  0.8089  2.8171
 5108TIP3    H215289   7.410   2.552   5.834 -0.4369  0.3166 -0.6010
 5109TIP3   OH215290   1.740   1.445   4.476  0.3195 -0.6307  0.3303
 5109TIP3    H115291   1.780   1.529   4.499  0.8446 -1.3621  2.2090
 5109TIP3    H215292   1.686   1.423   4.552 -0.2819 -1.7158 -0.4063
 5110TIP3   OH215293   1.007   2.889   5.837 -0.4964  0.1020 -0.1661
 5110TIP3    H115294   1.091   2.932   5.854  0.8864 -2.5325 -0.0506
 5110TIP3    H215295   0.944   2.936   5.891  0.8879  2.1610 -0.3078
 5111TIP3   OH215296   2.561   0.006   4.670 -0.0742  0.1907  0.5739
 5111TIP3    H115297   2.506   0.025   4.594 -0.7885 -0.7307  0.8552
 5111TIP3    H215298   2.646  -0.018   4.632 -0.6086 -0.8756  0.0233
 5112TIP3   OH215299   0.029   0.141   5.624 -0.4558  0.1375 -0.0284
 5112TIP3    H115300   0.102   0.196   5.595 -0.1293  0.0194  0.5625
 5112TIP3    H215301  -0.011   0.109   5.542  0.6683 -0.4745 -0.3411
 5113TIP3   OH215302   2.788   5.911   1.650 -0.0773  0.0636 -0.3835
 5113TIP3    H115303   2.855   5.966   1.608 -1.4156  1.4805 -0.6826
 5113TIP3    H215304   2.823   5.894   1.737  1.0774  0.0835 -0.8327
 5114TIP3   OH215305   7.069   5.743   0.355  0.0255 -0.2357  0.2282
 5114TIP3    H115306   7.044   5.830   0.386  0.1768 -0.7770  1.8730
 5114TIP3    H215307   7.143   5.718   0.411  1.8942 -0.2100 -2.1303
 5115TIP3   OH215308   1.058   4.015   5.126  1.0319 -0.1287 -0.0909
 5115TIP3    H115309   0.974   4.016   5.080  1.1874 -0.4178 -0.3874
 5115TIP3    H215310   1.072   4.106   5.153  0.5070 -0.1272  0.1761
 5116TIP3   OH215311   7.269   5.699   1.547  0.0502 -0.0262 -0.3658
 5116TIP3    H115312   7.351   5.746   1.559 -0.9457  1.2727  1.7020
 5116TIP3    H215313   7.203   5.767   1.535 -0.9725 -0.9727 -0.2889
 5117TIP3   OH215314   3.517   6.108   1.531 -0.2368 -0.0808 -0.1583
 5117TIP3    H115315   3.569   6.170   1.481 -2.0607  1.0497 -0.7079
 5117TIP3    H215316   3.443   6.087   1.474 -2.0192  0.7464  1.7607
 5118TIP3   OH215317   0.816   3.877   6.031 -0.0027  0.4741  0.0356
 5118TIP3    H115318   0.767   3.835   5.960  1.2966  0.8209 -1.0830
 5118TIP3    H215319   0.763   3.861   6.109 -1.5472  0.2376 -1.0297
 5119TIP3   OH215320   1.669   0.605   5.916 -0.5634 -0.0601  0.3394
 5119TIP3    H115321   1.756   0.585   5.880 -0.0621  0.7781  1.0697
 5119TIP3    H215322   1.630   0.665   5.851 -0.3364  0.0895  0.3402
 5120TIP3   OH215323   2.328   2.399   5.125  0.2344 -0.3306 -0.0863
 5120TIP3    H115324   2.337   2.347   5.046 -0.5571 -0.8720  0.1707
 5120TIP3    H215325   2.249   2.365   5.168  0.7610 -0.1791  1.0278
 5121TIP3   OH215326   0.276   3.310   5.668  0.0352  0.4374  0.3794
 5121TIP3    H115327   0.324   3.333   5.589 -0.0931 -0.4530  0.0487
 5121TIP3    H215328   0.344   3.283   5.730  0.1001  0.7463  0.4443
 5122TIP3   OH215329   2.008   2.408   5.268 -0.0000 -0.6160 -0.1585
 5122TIP3    H115330   2.027   2.454   5.186  1.4474  0.0456  0.5260
 5122TIP3    H215331   1.971   2.324   5.241 -0.4381 -0.0079 -1.4662
 5123TIP3   OH215332   2.729   4.985   0.285 -0.9352  0.1564 -0.6943
 5123TIP3    H115333   2.782   4.993   0.205  2.4338  0.8884  1.4679
 5123TIP3    H215334   2.711   4.892   0.293 -0.7376 -0.0030 -1.9582
 5124TIP3   OH215335   4.391   6.137   3.932 -0.4370 -0.8083  0.0424
 5124TIP3    H115336   4.412   6.075   3.862  0.7477 -2.2045  1.6022
 5124TIP3    H215337   4.474   6.149   3.979 -1.4786 -0.7582  1.8938
 5125TIP3   OH215338   2.891   5.845   0.482  0.1508 -0.3551 -0.1181
 5125TIP3    H115339   2.982   5.874   0.481 -0.1221  0.5380 -0.8721
 5125TIP3    H215340   2.857   5.875   0.566 -0.0462  1.3063 -0.7706
 5126TIP3   OH215341   3.602   4.477   0.004  0.1982  0.0648 -0.0334
 5126TIP3    H115342   3.573   4.399  -0.043  1.3263 -0.5881  0.3331
 5126TIP3    H215343   3.522   4.513   0.042 -0.3880 -0.6939 -0.5283
 5127TIP3   OH215344   0.251   3.709   4.244  0.2818  0.0114  0.9356
 5127TIP3    H115345   0.162   3.743   4.239  0.9872  1.6779 -0.4766
 5127TIP3    H215346   0.282   3.736   4.330  0.6586  2.5733  0.0406
 5128TIP3   OH215347   5.264   4.414   4.130  0.3300  0.2521  0.1738
 5128TIP3    H115348   5.359   4.410   4.118  0.2213 -0.0661 -0.5868
 5128TIP3    H215349   5.234   4.324   4.116 -0.2721  0.6592 -1.2416
 5129TIP3   OH215350   2.025   0.843   2.475  0.2349 -0.1564  0.2334
 5129TIP3    H115351   1.959   0.907   2.450 -1.1012 -1.9094 -0.8627
 5129TIP3    H215352   1.992   0.805   2.556  1.0254  0.5392  0.8844
 5130TIP3   OH215353   3.811   6.738   0.528 -0.3282 -0.3158  0.4269
 5130TIP3    H115354   3.824   6.802   0.597 -0.5489 -0.5999  0.7367
 5130TIP3    H215355   3.766   6.665   0.571  1.3674 -1.3744  0.4440
 5131TIP3   OH215356   0.851   3.611   4.337  0.0814  0.0073 -0.1986
 5131TIP3    H115357   0.846   3.554   4.261  0.6848 -1.2473  0.6892
 5131TIP3    H215358   0.830   3.554   4.412  0.4402  0.9942  0.6692
 5132TIP3   OH215359   2.117   4.749   0.375 -0.0813 -0.0300  0.5345
 5132TIP3    H115360   2.113   4.692   0.452  2.7704  0.5925  1.1838
 5132TIP3    H215361   2.066   4.702   0.308 -1.9169 -0.9645  2.5209
 5133TIP3   OH215362   2.699   2.861   4.173  0.6780 -0.0096 -0.0494
 5133TIP3    H115363   2.634   2.864   4.243  0.5185 -1.2997 -0.1262
 5133TIP3    H215364   2.666   2.923   4.107 -0.4365 -0.5844 -0.0511
 5134TIP3   OH215365   3.156   5.805   0.142 -0.7604 -0.1482 -0.2292
 5134TIP3    H115366   3.067   5.802   0.176 -1.6727  1.3610 -2.3124
 5134TIP3    H215367   3.152   5.868   0.070  1.5343 -1.5605 -1.6814
 5135TIP3   OH215368   0.479   2.467   2.691  0.1414 -0.4130 -0.4035
 5135TIP3    H115369   0.394   2.431   2.665 -0.2046 -1.0550  1.5414
 5135TIP3    H215370   0.542   2.402   2.661 -0.4088 -2.2180  2.1788
 5136TIP3   OH215371   6.311   2.931   3.650 -0.1592  0.0822 -0.7761
 5136TIP3    H115372   6.249   2.996   3.682 -0.6479 -0.6974 -0.1016
 5136TIP3    H215373   6.257   2.872   3.597  0.1661 -0.1188 -0.8829
 5137TIP3   OH215374   6.649   1.830   5.136  0.2228 -0.4795  0.5938
 5137TIP3    H115375   6.574   1.854   5.082  1.1661 -1.0885 -1.0295
 5137TIP3    H215376   6.623   1.853   5.225 -0.6536  2.3011 -0.3224
 5138TIP3   OH215377   1.144   1.867   5.752 -0.2183 -0.2591  0.0674
 5138TIP3    H115378   1.125   1.840   5.663 -2.3049 -0.6020  0.5903
 5138TIP3    H215379   1.059   1.890   5.789  0.7374  0.8502  1.6550
 5139TIP3   OH215380   1.147   3.660   3.909  0.8429  0.4372  0.1097
 5139TIP3    H115381   1.072   3.715   3.883  0.3366  0.4145  1.4958
 5139TIP3    H215382   1.114   3.570   3.900  0.1552  0.4517  2.2792
 5140TIP3   OH215383   0.251   1.883   5.434 -0.5251 -0.1611 -0.1732
 5140TIP3    H115384   0.178   1.930   5.394 -1.6568 -1.3364  0.4931
 5140TIP3    H215385   0.295   1.839   5.361 -0.2465  0.8449 -0.6199
 5141TIP3   OH215386   4.697   6.919   0.624  0.4019 -0.2114 -0.0458
 5141TIP3    H115387   4.617   6.967   0.600  0.3032  0.1280  0.9523
 5141TIP3    H215388   4.756   6.933   0.550 -0.6930 -0.9986 -1.0903
 5142TIP3   OH215389   0.274   4.384   5.737 -0.2518  0.1895  0.2086
 5142TIP3    H115390   0.219   4.305   5.737 -1.1079  0.7806  0.8101
 5142TIP3    H215391   0.278   4.411   5.829 -0.7933  1.4114 -0.1122
 5143TIP3   OH215392   3.671   4.856   0.353  0.3435  0.2478 -0.3321
 5143TIP3    H115393   3.744   4.813   0.398 -1.2259 -1.8610  0.2668
 5143TIP3    H215394   3.620   4.896   0.424 -0.1241  0.0820 -0.5786
 5144TIP3   OH215395   3.838   6.944   0.724 -0.3739 -0.0388 -0.1869
 5144TIP3    H115396   3.895   6.918   0.797 -0.5736 -0.4466 -0.1739
 5144TIP3    H215397   3.849   7.039   0.717  0.7727 -0.1893 -0.5706
 5145TIP3   OH215398   6.552   6.999   4.567 -0.0642 -0.4969 -0.0420
 5145TIP3    H115399   6.572   6.972   4.478  1.6950  1.2687 -0.2327
 5145TIP3    H215400   6.619   6.958   4.621  0.7829  0.9425  0.0404
 5146TIP3   OH215401   3.166   2.402   3.488 -0.2524  0.3848 -0.5949
 5146TIP3    H115402   3.251   2.414   3.446 -1.3698  1.7691 -2.5236
 5146TIP3    H215403   3.134   2.491   3.504 -1.1259 -0.1246  0.5718
 5147TIP3   OH215404   3.911   3.629   4.831  0.3937  0.3581  0.6122
 5147TIP3    H115405   3.881   3.564   4.767  1.2521 -2.8569  3.3090
 5147TIP3    H215406   3.850   3.702   4.822 -0.8315 -0.9482 -2.2919
 5148TIP3   OH215407   2.574   1.300   5.305 -0.2837  0.2476 -0.6469
 5148TIP3    H115408   2.556   1.240   5.233  1.2274 -1.0410  0.0433
 5148TIP3    H215409   2.665   1.283   5.330  0.2665  2.9517 -0.5661
 5149TIP3   OH215410   2.712   5.158   0.885  0.4028 -0.7368 -0.0069
 5149TIP3    H115411   2.645   5.184   0.823  2.4225  0.8479 -1.5896
 5149TIP3    H215412   2.678   5.186   0.970  0.5467  3.2937 -1.1582
 5150TIP3   OH215413   3.058   3.937   5.227 -0.1638  0.0083  0.1112
 5150TIP3    H115414   3.000   3.972   5.294 -0.2432 -0.0651  0.0801
 5150TIP3    H215415   3.056   3.842   5.239  0.6221  0.0505  0.6642
 5151TIP3   OH215416   6.943   3.035   4.722 -0.4822 -0.0218 -0.0177
 5151TIP3    H115417   6.999   3.094   4.671 -0.4162 -0.0317  0.0427
 5151TIP3    H215418   6.970   2.947   4.695  0.7866 -0.0664  1.3145
 5152TIP3   OH215419   5.575   0.323   0.188  0.6582  0.0268  0.0451
 5152TIP3    H115420   5.556   0.275   0.269 -1.6902  2.2384  0.8558
 5152TIP3    H215421   5.530   0.273   0.120  1.3256 -0.9687  0.3181
 5153TIP3   OH215422   6.888   5.959   5.559 -0.6144  0.7999  0.4765
 5153TIP3    H115423   6.849   5.957   5.646 -0.8613  1.5229  0.3903
 5153TIP3    H215424   6.818   5.991   5.502  0.1053  2.1530  0.3305
 5154TIP3   OH215425   4.675   0.950   0.389 -0.5129  0.0657 -0.0311
 5154TIP3    H115426   4.727   0.881   0.347 -0.9347 -0.8368  0.9134
 5154TIP3    H215427   4.672   0.925   0.481 -1.1160  1.0766  0.2288
 5155TIP3   OH215428   5.843   1.139   1.166 -0.2333 -0.9016 -0.0897
 5155TIP3    H115429   5.792   1.168   1.091 -1.0077  0.3529  0.9016
 5155TIP3    H215430   5.915   1.089   1.128 -0.5211 -0.1430 -1.6717
 5156TIP3   OH215431   7.031   0.739   3.498 -0.1641  0.3159 -0.0171
 5156TIP3    H115432   6.973   0.792   3.553  0.2790  0.5020  0.2772
 5156TIP3    H215433   7.083   0.803   3.449 -0.1883  0.1491 -0.2635
 5157TIP3   OH215434   0.449   6.334   0.098 -0.0887 -0.3280 -0.0920
 5157TIP3    H115435   0.479   6.255   0.142  0.2330 -0.2772 -0.2189
 5157TIP3    H215436   0.359   6.346   0.128  0.1958 -0.1805  0.7138
 5158TIP3   OH215437   2.623   1.862   4.163  0.3989  0.6436 -0.4813
 5158TIP3    H115438   2.571   1.782   4.160  0.0981  0.8590 -1.4456
 5158TIP3    H215439   2.714   1.833   4.161  0.2966  0.3003 -0.0429
 5159TIP3   OH215440   3.904   6.683   0.255 -0.0412  0.3258  0.7444
 5159TIP3    H115441   3.974   6.627   0.289  0.4167  0.6585  0.3611
 5159TIP3    H215442   3.866   6.724   0.333 -0.4334 -0.5783  1.0337
 5160TIP3   OH215443   0.881   4.021   4.507  0.2137 -0.0243  0.0416
 5160TIP3    H115444   0.964   3.976   4.497 -0.7995 -1.9956  0.1203
 5160TIP3    H215445   0.853   4.043   4.418  1.0836  1.1840  0.0562
 5161TIP3   OH215446   6.785   0.665   0.879 -0.4591  0.1286  0.0858
 5161TIP3    H115447   6.862   0.677   0.934  0.1314  2.4263 -1.1708
 5161TIP3    H215448   6.712   0.696   0.931 -0.1243  0.7688  0.1724
 5162TIP3   OH215449   4.226   6.795   5.558 -0.0953 -0.1344  0.0697
 5162TIP3    H115450   4.182   6.873   5.526  1.5436  0.6027 -0.4404
 5162TIP3    H215451   4.160   6.750   5.612 -0.8346  1.9225  0.9194
 5163TIP3   OH215452   6.982   1.788   3.248 -0.1432  0.4546  0.2377
 5163TIP3    H115453   6.998   1.792   3.153 -0.8908  0.1271  0.0929
 5163TIP3    H215454   7.028   1.708   3.276  0.1806  0.6162  0.1766
 5164TIP3   OH215455   7.101   2.304   5.228 -0.4708  0.4174  0.5945
 5164TIP3    H115456   7.177   2.319   5.284  0.7515  0.1706 -0.9947
 5164TIP3    H215457   7.068   2.392   5.209  0.5522  0.6149 -0.2781
 5165TIP3   OH215458   6.828   1.773   3.957  0.3870 -0.4149  0.4626
 5165TIP3    H115459   6.866   1.859   3.971 -0.2234 -0.3558  1.8368
 5165TIP3    H215460   6.756   1.788   3.897  0.7276 -0.0752  0.1376
 5166TIP3   OH215461   7.266   1.782   5.865 -0.7501  0.3545  0.3062
 5166TIP3    H115462   7.348   1.746   5.832 -1.3090 -0.4873 -0.1917
 5166TIP3    H215463   7.217   1.705   5.895 -2.6692  0.5079 -2.3426
 5167TIP3   OH215464   6.231   2.012   4.660 -0.0300 -0.1305  0.2062
 5167TIP3    H115465   6.223   2.037   4.752 -1.7523 -2.7922  0.8642
 5167TIP3    H215466   6.143   2.023   4.625  0.2938 -0.4894 -0.7318
 5168TIP3   OH215467   0.684   1.714   3.848  0.1703 -0.4031 -0.1694
 5168TIP3    H115468   0.631   1.697   3.769  0.9444 -0.3034 -0.7167
 5168TIP3    H215469   0.620   1.724   3.918 -0.5664  0.2783 -0.9308
 5169TIP3   OH215470   4.201   5.439   0.168 -0.2874 -0.0705 -0.2415
 5169TIP3    H115471   4.128   5.449   0.107  0.4579  0.3741 -1.0806
 5169TIP3    H215472   4.190   5.351   0.205 -2.3488  0.7396  1.1346
 5170TIP3   OH215473   0.483   3.374   5.464  0.4974  0.3353 -0.0817
 5170TIP3    H115474   0.570   3.339   5.484 -0.5056 -2.0190  0.3714
 5170TIP3    H215475   0.464   3.341   5.376 -0.0817  0.5259 -0.0297
 5171TIP3   OH215476   1.968   1.571   4.939 -0.3909  0.1269  0.6018
 5171TIP3    H115477   1.929   1.486   4.958 -0.4714 -0.2761 -1.2781
 5171TIP3    H215478   2.048   1.550   4.892 -0.1042  1.0823  0.6653
 5172TIP3   OH215479   2.469   5.800   1.801 -0.2113 -0.5692 -0.9664
 5172TIP3    H115480   2.373   5.793   1.805 -0.1902 -0.7905 -0.8325
 5172TIP3    H215481   2.489   5.804   1.708 -0.3646 -0.3198 -0.9917
 5173TIP3   OH215482   3.169   6.653   1.373 -0.1560 -0.0652  0.1923
 5173TIP3    H115483   3.112   6.589   1.415 -2.7801  1.1672 -1.3499
 5173TIP3    H215484   3.113   6.729   1.357  2.1654  1.5577 -0.5565
 5174TIP3   OH215485   4.956   4.920   0.049 -0.4411  0.0829  0.6323
 5174TIP3    H115486   5.017   4.879   0.110 -1.1171  1.7068  2.4063
 5174TIP3    H215487   5.012   4.953  -0.022  0.2653 -2.5053 -0.1060
 5175TIP3   OH215488   4.150   5.860   2.184 -0.3550 -0.1859  0.5277
 5175TIP3    H115489   4.095   5.915   2.129 -0.0780 -0.9474 -0.5218
 5175TIP3    H215490   4.129   5.887   2.274  1.4827  3.2898 -0.0064
 5176TIP3   OH215491   6.155   2.461   5.983  0.3590  0.0329 -0.1013
 5176TIP3    H115492   6.203   2.411   5.916  2.1206  2.1147 -0.4192
 5176TIP3    H215493   6.080   2.497   5.936  1.5979  1.4982 -0.9798
 5177TIP3   OH215494   4.010   5.094   1.791  0.0812  0.4174  0.1638
 5177TIP3    H115495   4.069   5.143   1.734 -1.9952  1.1136 -1.4370
 5177TIP3    H215496   3.963   5.161   1.841  0.2664 -0.1191  1.0851
 5178TIP3   OH215497   2.546   5.163   2.990  0.5368  0.4763  0.8488
 5178TIP3    H115498   2.492   5.216   3.049 -1.0081  0.3755 -0.4401
 5178TIP3    H215499   2.587   5.226   2.932  0.1649  0.4148  0.5123
 5179TIP3   OH215500   0.787   1.265   4.028 -0.5678  0.2729 -0.2741
 5179TIP3    H115501   0.833   1.331   4.080  0.2997 -1.5780  1.3434
 5179TIP3    H215502   0.695   1.275   4.053 -0.0108 -1.4199  2.5878
 5180TIP3   OH215503   3.135   4.978   0.513  0.1928 -0.2734  0.1284
 5180TIP3    H115504   3.195   4.906   0.496  2.6324  1.5098  0.9420
 5180TIP3    H215505   3.108   4.966   0.604 -1.9844 -1.9355 -0.6683
 5181TIP3   OH215506   1.575   4.155   3.973  0.2042  0.2453 -0.4565
 5181TIP3    H115507   1.529   4.137   3.891  0.7553  0.6061 -0.8418
 5181TIP3    H215508   1.633   4.228   3.953  0.4661  0.2233  0.2091
 5182TIP3   OH215509   6.998   4.186   5.435  0.8065 -0.0817 -0.1575
 5182TIP3    H115510   7.012   4.092   5.419  1.2355  0.3818 -2.7793
 5182TIP3    H215511   7.039   4.229   5.360  3.0817  2.3976  2.4303
 5183TIP3   OH215512   3.625   5.940   0.725  0.3828  0.4534 -0.3373
 5183TIP3    H115513   3.719   5.933   0.741  0.0325 -1.5714  0.9779
 5183TIP3    H215514   3.607   5.872   0.659 -0.3440  0.0441  0.2776
 5184TIP3   OH215515   1.573   2.109   4.024  0.3981 -0.3456 -0.0577
 5184TIP3    H115516   1.621   2.027   4.008 -0.1455 -0.8254  0.7595
 5184TIP3    H215517   1.597   2.165   3.950  0.5113 -1.3648 -0.8090
 5185TIP3   OH215518   4.628   6.177   0.342  0.1529 -0.2205 -0.4107
 5185TIP3    H115519   4.640   6.171   0.248  0.9333 -1.2060 -0.2667
 5185TIP3    H215520   4.605   6.268   0.358 -1.1412 -0.3153 -1.6648
 5186TIP3   OH215521   5.162   0.291   0.295  0.0166 -0.1880  0.1278
 5186TIP3    H115522   5.215   0.347   0.352  2.2921 -0.3767 -1.6827
 5186TIP3    H215523   5.148   0.343   0.216 -0.5274 -1.0058 -0.3269
 5187TIP3   OH215524   1.404   1.301   3.539 -0.0468  0.0375 -0.2543
 5187TIP3    H115525   1.499   1.310   3.545 -0.1507  0.7445  0.4148
 5187TIP3    H215526   1.369   1.374   3.590 -0.9366 -0.8345  0.4186
 5188TIP3   OH215527   2.357   1.655   4.640 -1.0543 -0.2820 -0.0939
 5188TIP3    H115528   2.446   1.689   4.642 -0.9589 -0.5747  1.2471
 5188TIP3    H215529   2.356   1.595   4.565 -0.4101  0.4620 -0.7055
 5189TIP3   OH215530   3.536   6.700   0.655 -0.6500  0.2633  0.5046
 5189TIP3    H115531   3.514   6.753   0.732  0.0374  1.0745  0.1607
 5189TIP3    H215532   3.456   6.700   0.603 -0.4963  1.4536  0.2435
 5190TIP3   OH215533   3.366   5.780   0.334  0.3664 -0.0390 -0.3947
 5190TIP3    H115534   3.431   5.758   0.268 -1.0430 -0.3005 -1.7130
 5190TIP3    H215535   3.284   5.788   0.286 -0.7635 -0.6257  1.3810
 5191TIP3   OH215536   0.474   1.411   5.038  0.3502 -0.1740 -0.3922
 5191TIP3    H115537   0.397   1.405   5.095  0.1634 -0.1894 -0.6437
 5191TIP3    H215538   0.529   1.478   5.079 -0.2188  0.4927 -0.7020
 5192TIP3   OH215539   7.025   5.897   4.208  0.0039  0.7390  0.0347
 5192TIP3    H115540   7.046   5.809   4.241  0.0196  0.8102  0.2135
 5192TIP3    H215541   6.984   5.881   4.122 -1.0949  0.4885  0.5973
 5193TIP3   OH215542   1.757   3.016   4.669 -1.0311 -0.1950 -0.2785
 5193TIP3    H115543   1.712   2.986   4.748 -1.8277 -2.3516 -1.5146
 5193TIP3    H215544   1.687   3.026   4.604 -0.2780  0.6774 -0.9663
 5194TIP3   OH215545   3.786   4.023   0.471 -0.5052 -0.2773 -0.0844
 5194TIP3    H115546   3.702   4.007   0.426 -0.3147 -3.2966  0.5505
 5194TIP3    H215547   3.852   4.011   0.402 -0.4375 -0.7366  0.0621
 5195TIP3   OH215548   2.077   1.352   3.523 -0.2307  0.0984 -0.4552
 5195TIP3    H115549   2.085   1.260   3.548  1.4440  0.3101 -0.1344
 5195TIP3    H215550   2.080   1.351   3.427  0.1708 -0.1663 -0.4428
 5196TIP3   OH215551   2.367   0.868   5.983 -0.1612  0.1486  0.0822
 5196TIP3    H115552   2.394   0.882   5.893 -2.3021  2.4052 -0.2560
 5196TIP3    H215553   2.337   0.954   6.013 -1.3621 -0.9967  2.2880
 5197TIP3   OH215554   4.183   3.349   0.067 -0.0530 -1.1296  0.2916
 5197TIP3    H115555   4.260   3.342   0.124  1.1144  0.8481 -1.0112
 5197TIP3    H215556   4.217   3.382  -0.016 -2.4681  0.9285  0.0668
 5198TIP3   OH215557   1.194   1.485   4.185  0.4459 -0.1165 -0.3317
 5198TIP3    H115558   1.274   1.443   4.216  1.7226  0.8251 -2.2584
 5198TIP3    H215559   1.128   1.417   4.189  1.7039 -1.3433 -0.1838
 5199TIP3   OH215560   0.680   1.622   5.047  0.4466  0.0776  0.0986
 5199TIP3    H115561   0.671   1.690   4.980 -0.0652  0.4994  0.5898
 5199TIP3    H215562   0.773   1.619   5.066  0.3105  1.7452  1.1954
 5200TIP3   OH215563   1.787   0.356   4.646  0.0619 -0.3577  0.0394
 5200TIP3    H115564   1.702   0.314   4.659 -0.0193 -0.4388 -0.7646
 5200TIP3    H215565   1.811   0.390   4.733 -1.3052  0.6443  0.0341
 5201TIP3   OH215566   0.663   2.476   5.252  0.4070  0.0062 -0.1647
 5201TIP3    H115567   0.678   2.429   5.334 -2.8219 -0.4155  0.2189
 5201TIP3    H215568   0.569   2.490   5.249  0.6953  1.6336 -2.9455
 5202TIP3   OH215569   1.190   6.718   5.120  0.3749 -1.0297 -0.0803
 5202TIP3    H115570   1.247   6.642   5.103  1.4338 -0.0769 -0.8573
 5202TIP3    H215571   1.130   6.719   5.046 -1.2708 -2.5476  1.1717
 5203TIP3   OH215572   5.429   6.739   4.977  0.0267  0.6644  0.3983
 5203TIP3    H115573   5.396   6.678   4.910 -2.4273 -0.6036  2.7028
 5203TIP3    H215574   5.360   6.803   4.988  0.2978  0.7217  1.8834
 5204TIP3   OH215575   0.595   0.243   4.997  0.4906 -0.1198  0.0275
 5204TIP3    H115576   0.567   0.157   4.966 -0.6136  0.6084 -1.0749
 5204TIP3    H215577   0.689   0.246   4.979  0.6735 -1.3727  0.7610
 5205TIP3   OH215578   0.435   6.257   4.881 -0.8604  0.5768  0.3436
 5205TIP3    H115579   0.514   6.234   4.831 -1.4753  1.3270 -1.0075
 5205TIP3    H215580   0.452   6.345   4.912 -1.6075  1.1695 -0.8924
 5206TIP3   OH215581   3.631   6.074   0.061  0.1902  0.1234  0.2412
 5206TIP3    H115582   3.564   6.069   0.129 -0.4533  1.7315 -0.2576
 5206TIP3    H215583   3.586   6.111  -0.014  1.4135  0.3127 -0.4084
 5207TIP3   OH215584   0.720   6.067   5.494 -0.1346 -0.1321 -0.2424
 5207TIP3    H115585   0.628   6.094   5.505 -1.3329 -2.1006 -4.3209
 5207TIP3    H215586   0.733   5.996   5.557 -0.9408  1.1098  1.3577
 5208TIP3   OH215587   1.593   3.595   5.891 -0.7286  0.3322 -0.1368
 5208TIP3    H115588   1.612   3.664   5.956 -0.1030 -0.3175  0.3758
 5208TIP3    H215589   1.660   3.606   5.824 -0.3928 -0.0171  0.1384
 5209TIP3   OH215590   1.801   6.194   0.099 -0.1374  0.5143  0.0784
 5209TIP3    H115591   1.825   6.160   0.185  0.3585  0.6147 -0.0166
 5209TIP3    H215592   1.710   6.168   0.087 -0.1848  0.4417  0.6039
 5210TIP3   OH215593   1.933   6.617   0.840 -0.3188 -0.3327  0.6045
 5210TIP3    H115594   1.887   6.574   0.768  1.9351  0.0316 -1.1334
 5210TIP3    H215595   2.006   6.559   0.860  0.4424  0.7300  0.9773
 5211TIP3   OH215596   3.359   6.254   1.703  0.2458 -0.0921  0.0190
 5211TIP3    H115597   3.268   6.225   1.712  0.3214  0.1697  1.8858
 5211TIP3    H215598   3.399   6.188   1.647 -1.1380 -0.0948 -1.0110
 5212TIP3   OH215599   0.801   1.054   5.278  0.2547  0.4546  0.4062
 5212TIP3    H115600   0.889   1.079   5.306  0.3544  0.7446 -0.1563
 5212TIP3    H215601   0.803   1.063   5.183 -0.2205 -0.0678  0.3486
 5213TIP3   OH215602   2.319   6.491   1.426 -0.2102 -0.5610  0.9350
 5213TIP3    H115603   2.265   6.414   1.406 -1.4815  0.6261 -0.3932
 5213TIP3    H215604   2.383   6.495   1.355 -1.6263  0.8905 -0.3102
 5214TIP3   OH215605   1.094   5.073   5.102  0.6277 -0.0339 -0.1593
 5214TIP3    H115606   1.111   5.113   5.017 -0.2136  1.3819  0.3212
 5214TIP3    H215607   1.101   4.979   5.086 -1.3693  0.1217 -2.2100
 5215TIP3   OH215608   1.749   6.043   1.692 -0.0057 -0.2577  0.0019
 5215TIP3    H115609   1.766   6.135   1.670 -1.6727 -0.2143 -1.1660
 5215TIP3    H215610   1.831   6.012   1.731  1.0109  1.3540 -0.8111
 5216TIP3   OH215611   1.419   1.405   4.394 -0.0790 -0.0776 -0.2127
 5216TIP3    H115612   1.512   1.409   4.416 -0.1338 -0.4022  0.0750
 5216TIP3    H215613   1.374   1.448   4.467  0.0881  3.4903 -2.0618
 5217TIP3   OH215614   1.820   4.636   5.895  0.8973  0.7352 -0.0864
 5217TIP3    H115615   1.912   4.625   5.921  0.0553 -1.4105  2.2410
 5217TIP3    H215616   1.798   4.555   5.848 -0.0108  0.8399  0.1409
 5218TIP3   OH215617   1.522   4.960  -0.016  0.1930 -0.1108  0.3020
 5218TIP3    H115618   1.562   5.043   0.008 -1.8604  0.9443  0.1092
 5218TIP3    H215619   1.545   4.901   0.056 -0.3087  1.2468  1.5968
 5219TIP3   OH215620   0.380   2.538   5.214  0.0820 -0.2845  0.0216
 5219TIP3    H115621   0.325   2.616   5.207  1.7175  0.8572 -0.5001
 5219TIP3    H215622   0.331   2.479   5.270 -1.1668  1.1455  0.4742
 5220TIP3   OH215623   0.393   2.164   5.623 -0.4851 -0.1140  0.3767
 5220TIP3    H115624   0.447   2.227   5.671 -3.8783  1.5462  2.1791
 5220TIP3    H215625   0.387   2.201   5.535  1.6223 -0.5355  0.0349
 5221TIP3   OH215626   1.597   2.127   5.263 -0.7512  0.3573 -0.4767
 5221TIP3    H115627   1.667   2.070   5.232 -0.6730 -0.9157  1.8920
 5221TIP3    H215628   1.641   2.209   5.285 -0.5398  0.6731 -2.0692
 5222TIP3   OH215629   2.863   1.527   5.038  0.4508  0.1019  0.3633
 5222TIP3    H115630   2.905   1.583   5.103 -0.9075  2.4377 -0.6917
 5222TIP3    H215631   2.776   1.566   5.025 -1.6298 -3.8548  1.6012
 5223TIP3   OH215632   0.533   2.310   4.783 -0.0596  0.1143 -0.1137
 5223TIP3    H115633   0.472   2.271   4.720 -0.6224  0.1228  0.4242
 5223TIP3    H215634   0.477   2.357   4.845  0.4539 -0.2681  0.6547
 5224TIP3   OH215635   3.652   4.299   0.278  0.2442 -0.3173 -0.6938
 5224TIP3    H115636   3.623   4.363   0.212 -0.8376  0.0313  0.1111
 5224TIP3    H215637   3.691   4.352   0.348 -1.6194 -0.4537  0.4649
 5225TIP3   OH215638   4.370   4.847   1.555 -0.9482  0.2555  0.5942
 5225TIP3    H115639   4.375   4.898   1.474  1.0037 -0.5490  0.1754
 5225TIP3    H215640   4.310   4.776   1.535 -2.4906  1.4961  0.7003
 5226TIP3   OH215641   0.755   2.747   3.758 -0.8651  0.8017  0.3901
 5226TIP3    H115642   0.787   2.825   3.713  1.0878  1.1073  2.2216
 5226TIP3    H215643   0.780   2.760   3.850  0.2296 -2.3249  0.5938
 5227TIP3   OH215644   7.125   2.989   3.747  0.0967 -0.1829  0.1163
 5227TIP3    H115645   7.053   2.936   3.780  0.4212 -0.6746  0.0433
 5227TIP3    H215646   7.193   2.925   3.724 -0.1011  0.1541 -1.4485
 5228TIP3   OH215647   6.490   5.641   3.060 -0.0940 -0.1127 -0.1716
 5228TIP3    H115648   6.409   5.672   3.021 -0.5853 -0.9836  0.1422
 5228TIP3    H215649   6.476   5.648   3.154  0.0652 -0.5987 -0.1120
 5229TIP3   OH215650   0.237   2.370   3.920 -0.0900  0.2304  0.1651
 5229TIP3    H115651   0.234   2.321   4.002 -0.8316  1.9868  1.2126
 5229TIP3    H215652   0.177   2.443   3.933 -1.0616 -0.0655 -2.3543
 5230TIP3   OH215653   7.008   2.622   4.835  0.3580  0.5592  0.1488
 5230TIP3    H115654   6.959   2.540   4.844  2.9780 -1.0112  1.0344
 5230TIP3    H215655   6.959   2.686   4.887 -1.3184 -0.6535  0.0816
 5231TIP3   OH215656   1.023   2.529   3.732 -0.1924  0.3389  0.0255
 5231TIP3    H115657   1.008   2.495   3.644 -1.4837  0.2313  0.2723
 5231TIP3    H215658   1.060   2.616   3.719  0.3120  0.0271 -0.6196
 5232TIP3   OH215659   5.812   1.431   1.555  0.2433 -0.2736  0.0780
 5232TIP3    H115660   5.815   1.491   1.480  0.0917 -0.1777  0.1503
 5232TIP3    H215661   5.733   1.379   1.542 -0.4671  0.6119  0.8488
 5233TIP3   OH215662   1.968   5.096   1.399  0.2989  0.0960 -0.1626
 5233TIP3    H115663   2.008   5.132   1.320 -1.3919 -0.1555 -1.1530
 5233TIP3    H215664   1.955   5.172   1.456 -1.6715  0.8498 -1.5559
 5234TIP3   OH215665   6.280   2.042   3.567 -0.4983  0.1563 -0.2202
 5234TIP3    H115666   6.236   2.067   3.486  1.5527 -0.3149 -1.5292
 5234TIP3    H215667   6.359   2.097   3.569  0.0652 -0.6636  0.8490
 5235TIP3   OH215668   2.427   4.248   0.263  0.3432  0.3119  0.0724
 5235TIP3    H115669   2.364   4.254   0.335  0.1444 -2.3363  0.1549
 5235TIP3    H215670   2.500   4.197   0.299  0.4976 -0.5573 -1.4178
 5236TIP3   OH215671   1.937   3.062   5.571  0.0168 -0.8514  0.2334
 5236TIP3    H115672   2.011   3.119   5.548  0.9138 -1.9476  0.3747
 5236TIP3    H215673   1.881   3.063   5.493  0.2308 -0.1203  0.0797
 5237TIP3   OH215674   3.229   1.816   3.059  0.0982  0.1622  0.1023
 5237TIP3    H115675   3.227   1.768   3.142 -0.1766 -0.7247 -0.4127
 5237TIP3    H215676   3.291   1.888   3.075 -0.5343  0.4531  1.3103
 5238TIP3   OH215677   4.284   2.640   3.012  0.1261 -0.1674 -0.0368
 5238TIP3    H115678   4.286   2.717   3.069 -0.3204 -0.9405  1.0244
 5238TIP3    H215679   4.264   2.567   3.070 -0.9036 -0.8869 -1.2699
 5239TIP3   OH215680   5.433   6.052   0.469 -0.0157 -0.6029  0.0132
 5239TIP3    H115681   5.353   6.073   0.515  0.2457 -1.3801  0.8343
 5239TIP3    H215682   5.406   6.038   0.378 -0.8560 -1.1835  0.3499
 5240TIP3   OH215683   3.143   4.402   5.499 -0.1572  0.4173  0.0996
 5240TIP3    H115684   3.074   4.344   5.532  0.5209  0.7419  2.1552
 5240TIP3    H215685   3.129   4.404   5.405 -1.6472 -1.2134  0.2557
 5241TIP3   OH215686   1.036   1.862   1.818  0.2854 -0.3117  0.3580
 5241TIP3    H115687   0.983   1.806   1.874  3.5767 -1.1617  2.7561
 5241TIP3    H215688   1.038   1.946   1.863  2.0805 -0.6897  1.0174
 5242TIP3   OH215689   5.390   4.778   0.994 -0.7724  0.4189 -0.0167
 5242TIP3    H115690   5.394   4.692   0.952 -0.1226  0.5085 -0.1356
 5242TIP3    H215691   5.428   4.764   1.081 -0.2285  0.6949 -0.2112
 5243TIP3   OH215692   3.752   2.549   3.633 -0.3179  0.3587 -0.4357
 5243TIP3    H115693   3.727   2.457   3.625  1.7496 -0.5988  2.8747
 5243TIP3    H215694   3.699   2.581   3.706  1.2873  0.8405  0.5494
 5244TIP3   OH215695   4.715   1.436   5.759 -0.2053  0.4143 -0.4487
 5244TIP3    H115696   4.646   1.412   5.821 -0.2750  1.0761 -0.2732
 5244TIP3    H215697   4.669   1.482   5.689 -0.2935 -1.3291 -1.5771
 5245TIP3   OH215698   6.161   2.500   5.441  0.2375  0.1492 -0.2279
 5245TIP3    H115699   6.214   2.439   5.492 -1.1376  0.5963  1.7986
 5245TIP3    H215700   6.107   2.445   5.385  0.6411 -0.4203 -0.0599
 5246TIP3   OH215701   1.086   0.922   3.575 -0.5379  0.3399 -0.4980
 5246TIP3    H115702   0.992   0.912   3.556 -0.7928 -1.8709  1.6956
 5246TIP3    H215703   1.108   0.845   3.627  1.9201  2.1453  1.2201
 5247TIP3   OH215704   2.281   1.520   4.416 -0.2782  0.3963 -0.0409
 5247TIP3    H115705   2.189   1.542   4.401 -0.2293  0.0871 -0.8187
 5247TIP3    H215706   2.294   1.440   4.366  1.0779  1.8004 -1.9673
 5248TIP3   OH215707   4.403   2.500   2.823  0.1955 -0.1256  0.2194
 5248TIP3    H115708   4.368   2.532   2.740  1.5341 -1.8777 -1.0415
 5248TIP3    H215709   4.363   2.556   2.889  1.0193  2.9394 -1.7841
 5249TIP3   OH215710   1.929   0.743   5.650 -0.0530 -0.2475 -0.0237
 5249TIP3    H115711   1.965   0.831   5.636 -1.1344  0.0121 -1.2451
 5249TIP3    H215712   1.839   0.749   5.618 -0.4949 -1.4915  0.9676
 5250TIP3   OH215713   3.960   3.717   5.727 -0.1161  0.1280 -0.8591
 5250TIP3    H115714   3.946   3.802   5.767  1.7330 -0.1111  0.3883
 5250TIP3    H215715   4.015   3.735   5.650  3.4084 -0.2270  1.4237
 5251TIP3   OH215716   1.801   1.949   0.444 -0.3247  0.3788  0.6517
 5251TIP3    H115717   1.770   1.866   0.409  0.2872  0.0044  0.9898
 5251TIP3    H215718   1.891   1.957   0.411 -0.1140  0.5300  1.2588
 5252TIP3   OH215719   2.712   0.395   4.724  0.4137  0.3999  0.4900
 5252TIP3    H115720   2.648   0.384   4.795  0.2505  2.4368  0.6905
 5252TIP3    H215721   2.714   0.489   4.708  1.4907  0.1009 -1.2731
 5253TIP3   OH215722   4.342   3.508   5.830 -0.3380  0.2319 -0.0037
 5253TIP3    H115723   4.251   3.477   5.831 -0.5945  0.9394 -1.0956
 5253TIP3    H215724   4.376   3.483   5.916 -1.8359  0.7432  0.7632
 5254TIP3   OH215725   0.640   1.957   4.138  0.3474  0.2666  0.1793
 5254TIP3    H115726   0.564   2.002   4.101 -0.7067 -0.7409  1.1162
 5254TIP3    H215727   0.683   2.024   4.192  0.7919  1.1703 -1.2638
 5255TIP3   OH215728   4.870   2.805   4.596  0.5627 -0.1024 -0.2437
 5255TIP3    H115729   4.891   2.736   4.660 -0.6127  0.3281  0.6096
 5255TIP3    H215730   4.952   2.852   4.585  1.8997 -2.7380 -2.2038
 5256TIP3   OH215731   6.128   1.321   1.400 -0.3429  0.2654 -0.0388
 5256TIP3    H115732   6.049   1.270   1.416 -0.1430  0.3388  1.1876
 5256TIP3    H215733   6.154   1.297   1.311 -0.2088 -1.8204  0.5305
 5257TIP3   OH215734   0.746   2.113   4.681  0.0952 -0.2330  0.2120
 5257TIP3    H115735   0.682   2.049   4.650  0.5400 -0.1866 -0.8302
 5257TIP3    H215736   0.829   2.065   4.685  0.1521 -0.0911  0.7946
 5258TIP3   OH215737   6.996   2.549   5.422 -0.0422  0.4686 -0.3269
 5258TIP3    H115738   6.914   2.527   5.467 -0.3010 -0.0039 -1.0157
 5258TIP3    H215739   6.968   2.604   5.348  0.3674  1.1515  0.0192
 5259TIP3   OH215740   6.898   6.150   4.612  0.3146 -0.2246  0.1405
 5259TIP3    H115741   6.895   6.212   4.684 -1.1932 -0.8743  0.6570
 5259TIP3    H215742   6.829   6.087   4.631  1.0046 -1.3675 -1.0062
 5260TIP3   OH215743   5.717   4.974   0.018  0.0720  0.2302  0.0142
 5260TIP3    H115744   5.668   4.932   0.089  1.3873 -0.2478  0.6618
 5260TIP3    H215745   5.754   4.901  -0.032 -1.7645  0.5434 -1.8389
 5261TIP3   OH215746   4.185   5.322   5.674 -0.0392  0.3686  0.3110
 5261TIP3    H115747   4.093   5.335   5.698 -0.1080 -0.1658  0.3322
 5261TIP3    H215748   4.182   5.277   5.590  0.2003 -0.1186  0.5623
 5262TIP3   OH215749   2.916   2.133   4.731 -0.1795  0.1464  0.2576
 5262TIP3    H115750   2.905   2.047   4.690  0.0593  1.2895 -2.3026
 5262TIP3    H215751   2.953   2.114   4.817 -0.6535 -2.3511 -0.0620
 5263TIP3   OH215752   3.404   2.044   5.215  0.5340  0.3664 -0.8210
 5263TIP3    H115753   3.457   2.000   5.148  0.0524 -2.5930  0.6798
 5263TIP3    H215754   3.464   2.054   5.289  0.2503  1.0787 -0.6867
 5264TIP3   OH215755   2.574   1.682   3.530  0.0392  0.3364  0.2926
 5264TIP3    H115756   2.507   1.658   3.595  0.9022 -0.4911  0.8936
 5264TIP3    H215757   2.601   1.771   3.555  0.7972 -0.2089  1.4454
 5265TIP3   OH215758   0.932   2.091   4.298 -0.5745  0.2044 -0.1323
 5265TIP3    H115759   0.955   2.122   4.210  1.6812 -1.2474 -0.1063
 5265TIP3    H215760   0.929   2.170   4.352  2.1947  0.7492 -0.6757
 5266TIP3   OH215761   3.534   0.043   3.743 -0.3162  0.1306  0.2846
 5266TIP3    H115762   3.567   0.120   3.791 -0.1769  0.0591  0.3019
 5266TIP3    H215763   3.506  -0.017   3.812  4.3311 -2.0090  0.4385
 5267TIP3   OH215764   2.390   2.417   4.657 -0.1331 -0.3669 -0.2982
 5267TIP3    H115765   2.380   2.500   4.705 -0.1714 -1.8257  2.3286
 5267TIP3    H215766   2.375   2.440   4.566 -1.8519  2.2259  0.5782
 5268TIP3   OH215767   4.564   3.082   5.602 -0.0823  0.2661 -1.1854
 5268TIP3    H115768   4.572   3.099   5.696 -0.4622 -0.8544 -0.9447
 5268TIP3    H215769   4.648   3.111   5.565  1.8477 -3.2611  0.1106
 5269TIP3   OH215770   0.005   2.677   0.401 -0.0833 -0.1993  0.2527
 5269TIP3    H115771  -0.015   2.698   0.310  0.3832 -0.1826  0.1523
 5269TIP3    H215772   0.050   2.593   0.398  0.1337 -0.0939  0.4458
 5270TIP3   OH215773   3.658   2.785   4.103  0.6882  0.3812 -0.0247
 5270TIP3    H115774   3.610   2.867   4.096  0.2766  0.0620 -0.9137
 5270TIP3    H215775   3.632   2.750   4.189  0.1376  0.7107 -0.0544
 5271TIP3   OH215776   1.432   1.808   2.936 -0.6470  0.2318  0.1720
 5271TIP3    H115777   1.438   1.765   3.022 -1.1745  0.9085  0.5554
 5271TIP3    H215778   1.343   1.788   2.906 -1.8808  3.2676  1.5652
 5272TIP3   OH215779   2.171   3.832   5.638 -0.8118 -0.2553  0.2096
 5272TIP3    H115780   2.090   3.867   5.602 -1.0553 -0.4500  0.5580
 5272TIP3    H215781   2.234   3.903   5.627 -0.8641 -0.3378 -0.6451
 5273TIP3   OH215782   6.767   4.245   0.513  0.9820 -0.1824 -0.0268
 5273TIP3    H115783   6.715   4.166   0.529  0.8094  0.3171  2.0949
 5273TIP3    H215784   6.851   4.213   0.480  0.7661 -1.2375  0.4382
 5274TIP3   OH215785   3.129   3.155   4.961  0.1710 -0.3764 -0.3800
 5274TIP3    H115786   3.145   3.158   4.867  0.0979 -0.6124 -0.3982
 5274TIP3    H215787   3.037   3.128   4.969 -0.0623  0.4219 -0.2620
 5275TIP3   OH215788   1.216   0.716   0.829  0.1009 -0.2442  0.2469
 5275TIP3    H115789   1.274   0.786   0.859  0.8417 -0.4808 -0.5937
 5275TIP3    H215790   1.132   0.734   0.871  1.0437 -0.4809  2.2906
 5276TIP3   OH215791   4.386   3.424   4.968  0.0271  0.1367  0.0377
 5276TIP3    H115792   4.388   3.331   4.944  0.8061 -0.0157  0.6645
 5276TIP3    H215793   4.399   3.424   5.063 -1.2716  0.8237  0.2235
 5277TIP3   OH215794   1.997   0.611   4.863 -0.2953 -0.3030  0.0851
 5277TIP3    H115795   1.912   0.569   4.854 -0.8441  0.5298  1.2770
 5277TIP3    H215796   2.004   0.633   4.956  0.7392  0.6208 -0.1952
 5278TIP3   OH215797   3.591   1.673   2.852 -0.3600  0.1762  0.3355
 5278TIP3    H115798   3.619   1.663   2.943 -0.8519 -0.1265  0.4590
 5278TIP3    H215799   3.592   1.584   2.816 -1.3417  0.1247  0.4028
 5279TIP3   OH215800   3.536   2.617   4.960  0.5162  0.1909 -0.2745
 5279TIP3    H115801   3.495   2.531   4.949  1.6267 -0.2424 -1.1518
 5279TIP3    H215802   3.619   2.611   4.912  1.1250  1.3962  0.5793
 5280TIP3   OH215803   3.697   4.016   5.989  0.4618 -0.0148  0.2947
 5280TIP3    H115804   3.621   3.959   6.003  0.8479 -0.4764  0.4963
 5280TIP3    H215805   3.732   3.989   5.904  0.1276  0.5151 -0.0189
 5281TIP3   OH215806   2.338   1.420   5.019 -0.1416 -0.0847  0.2108
 5281TIP3    H115807   2.383   1.346   4.977 -0.6283  0.4083 -1.2334
 5281TIP3    H215808   2.260   1.433   4.965  0.1355  1.7189  0.2307
 5282TIP3   OH215809   6.595   6.905   0.344  0.0935  0.1755 -0.2232
 5282TIP3    H115810   6.527   6.850   0.308 -0.4347  0.4366  0.3670
 5282TIP3    H215811   6.646   6.847   0.401  0.2083  0.0467 -0.4537
 5283TIP3   OH215812   4.592   3.597   4.642  0.6580 -1.2753 -0.0684
 5283TIP3    H115813   4.597   3.502   4.654 -0.5685 -1.2490  0.7472
 5283TIP3    H215814   4.677   3.630   4.671  0.1746 -1.8777  2.0600
 5284TIP3   OH215815   0.603   4.073   5.458 -0.9282 -0.0281 -0.2778
 5284TIP3    H115816   0.509   4.081   5.476 -0.3649  2.4624  2.0268
 5284TIP3    H215817   0.617   4.129   5.382 -1.1150  0.8003  0.2813
 5285TIP3   OH215818   1.931   3.554   5.857  0.0453 -0.3702  0.0105
 5285TIP3    H115819   1.909   3.483   5.796 -1.1959 -0.2527  0.2966
 5285TIP3    H215820   1.870   3.624   5.834  0.9883  0.4586  0.0064
 5286TIP3   OH215821   1.699   3.447   2.755 -0.4510  0.1618  0.0261
 5286TIP3    H115822   1.702   3.542   2.750 -0.2362  0.0944 -1.1292
 5286TIP3    H215823   1.755   3.425   2.829  0.5264  0.8533 -0.5062
 5287TIP3   OH215824   4.307   4.336   4.803 -0.5900  0.9826 -0.5861
 5287TIP3    H115825   4.215   4.321   4.828  0.2643  0.1606  2.2983
 5287TIP3    H215826   4.334   4.411   4.856  1.4767 -1.2116  1.6331
 5288TIP3   OH215827   4.590   3.964   0.855 -0.5206 -0.1739  0.0587
 5288TIP3    H115828   4.660   3.899   0.845 -0.7932 -0.3122 -1.0780
 5288TIP3    H215829   4.511   3.913   0.872 -0.7754 -0.1633 -1.0507
 5289TIP3   OH215830   7.348   1.478   0.987 -0.5504 -0.3274  0.0599
 5289TIP3    H115831   7.407   1.513   1.055  0.6996 -2.6219  0.2080
 5289TIP3    H215832   7.337   1.551   0.925  1.7251  0.4437  0.5143
 5290TIP3   OH215833   3.930   4.230   1.381 -0.8282 -0.7334  0.2232
 5290TIP3    H115834   3.930   4.320   1.348 -0.9521 -0.7774  0.1010
 5290TIP3    H215835   3.968   4.236   1.469 -1.5790 -0.4385  0.5330
 5291TIP3   OH215836   6.978   6.108   0.073  0.2445  0.3394  0.0660
 5291TIP3    H115837   6.911   6.130   0.138 -0.8581  0.1779 -1.0004
 5291TIP3    H215838   6.979   6.012   0.071  0.7361  0.3366  0.3017
 5292TIP3   OH215839   4.018   2.281   5.755 -0.4941 -0.1533  0.1487
 5292TIP3    H115840   3.999   2.253   5.665  0.5215 -1.3584  0.2892
 5292TIP3    H215841   4.109   2.310   5.752 -1.2079  2.1684  0.2539
 5293TIP3   OH215842   4.560   5.114   0.198 -0.6800  0.0508 -0.0767
 5293TIP3    H115843   4.492   5.115   0.131  0.6882 -0.6277 -1.5057
 5293TIP3    H215844   4.592   5.204   0.202 -0.2619 -0.0585 -0.8684
 5294TIP3   OH215845   3.177   1.682   4.946 -0.9133 -0.0743 -0.4157
 5294TIP3    H115846   3.198   1.742   5.017 -0.1456 -0.8794  0.0447
 5294TIP3    H215847   3.247   1.695   4.881  0.5802 -2.1124  0.7206
 5295TIP3   OH215848   3.352   4.142   5.464  0.2099  0.1870 -0.2223
 5295TIP3    H115849   3.281   4.081   5.481  0.2561  0.3455  0.5703
 5295TIP3    H215850   3.347   4.206   5.535  0.4858  0.8046 -0.7510
 5296TIP3   OH215851   0.010   2.190   3.800  0.2771 -0.0625  0.3704
 5296TIP3    H115852  -0.063   2.231   3.755  0.0504  0.0737  0.8597
 5296TIP3    H215853   0.072   2.261   3.815  0.5619 -0.1979 -0.1383
 5297TIP3   OH215854   3.735   3.008   3.836 -0.0800 -0.0659 -0.1407
 5297TIP3    H115855   3.806   2.978   3.780  1.2798  1.1805  0.8790
 5297TIP3    H215856   3.769   3.000   3.925 -1.5650 -0.3573  0.4294
 5298TIP3   OH215857   3.771   6.945   0.034 -0.0898  0.3296 -0.4624
 5298TIP3    H115858   3.823   6.873  -0.001  1.2767  1.9522 -1.8098
 5298TIP3    H215859   3.703   6.901   0.086  2.8552 -1.8188  1.7693
 5299TIP3   OH215860   4.666   1.791   2.487 -0.8702  0.3011 -0.3408
 5299TIP3    H115861   4.759   1.798   2.468 -0.7112  1.2487  0.6988
 5299TIP3    H215862   4.623   1.839   2.416 -0.6591 -1.1593 -1.4829
 5300TIP3   OH215863   2.894   2.913   5.827 -0.1003 -0.1395  0.2529
 5300TIP3    H115864   2.877   2.819   5.829  1.0259 -0.3558  0.4230
 5300TIP3    H215865   2.988   2.920   5.846 -0.1133  0.9990 -0.0703
 5301TIP3   OH215866   2.184   1.306   5.390 -0.0163 -0.3835 -0.4372
 5301TIP3    H115867   2.184   1.306   5.486  0.1339  0.4575 -0.4258
 5301TIP3    H215868   2.265   1.352   5.366 -0.4760  0.1752 -0.9524
 5302TIP3   OH215869   1.835   2.217   4.954 -0.3062 -0.4881 -0.2444
 5302TIP3    H115870   1.887   2.194   4.877  0.7629  0.6379  0.1161
 5302TIP3    H215871   1.879   2.174   5.027 -0.2509 -0.0581 -0.0227
 5303TIP3   OH215872   6.676   6.750   0.833 -0.1383  0.0023 -0.5095
 5303TIP3    H115873   6.613   6.795   0.778 -1.3712 -1.6505 -0.4964
 5303TIP3    H215874   6.638   6.754   0.921 -0.3253 -1.1333 -0.5290
 5304TIP3   OH215875   2.292   1.754   3.297 -0.0542 -0.8509 -0.4548
 5304TIP3    H115876   2.382   1.766   3.328 -0.4594 -1.0134  0.8278
 5304TIP3    H215877   2.284   1.812   3.222  0.1578  1.5617  1.3529
 5305TIP3   OH215878   2.676   3.023   4.805 -0.3096 -0.1380 -0.4414
 5305TIP3    H115879   2.604   3.061   4.755 -0.3845  1.7702  1.0195
 5305TIP3    H215880   2.637   3.002   4.890  0.4051 -0.9519 -0.3114
 5306TIP3   OH215881   3.877   4.650   0.674  0.1874  0.0794 -0.1020
 5306TIP3    H115882   3.783   4.655   0.658  0.0586  0.4518  0.7517
 5306TIP3    H215883   3.887   4.584   0.743  0.6018 -0.3725 -0.5871
 5307TIP3   OH215884   5.040   2.987   4.376 -0.1116  0.2177  0.4764
 5307TIP3    H115885   4.979   2.939   4.320  0.4292  1.6027 -1.3469
 5307TIP3    H215886   4.988   3.057   4.414 -0.2380 -0.1037  0.8964
 5308TIP3   OH215887   1.897   3.148   4.867 -0.0136 -0.1717 -0.3032
 5308TIP3    H115888   1.896   3.219   4.803 -0.8323 -0.0046 -0.1119
 5308TIP3    H215889   1.893   3.068   4.814 -2.3746 -0.0063 -0.4334
 5309TIP3   OH215890   1.159   2.830   5.073  0.1307  0.2454  0.2635
 5309TIP3    H115891   1.181   2.811   4.982 -0.9550  3.1027 -0.6286
 5309TIP3    H215892   1.154   2.925   5.078 -3.3132  0.0253  2.4721
 5310TIP3   OH215893   2.525   2.059   4.507 -0.0685 -0.2794 -0.0337
 5310TIP3    H115894   2.581   2.080   4.582  0.1521 -0.0768 -0.2535
 5310TIP3    H215895   2.555   2.117   4.437  1.6372 -2.4162 -1.1467
 5311TIP3   OH215896   2.794   0.211   5.128 -0.2880 -0.3812  0.0306
 5311TIP3    H115897   2.800   0.124   5.088  1.2974 -0.7414  1.0337
 5311TIP3    H215898   2.883   0.245   5.126 -0.6299  0.5988  1.0452
 5312TIP3   OH215899   1.887   0.811   3.188 -0.0596 -0.2713  0.2561
 5312TIP3    H115900   1.874   0.906   3.193 -1.6685 -0.4819  0.0652
 5312TIP3    H215901   1.924   0.796   3.101  0.4075  0.1899  0.3681
 5313TIP3   OH215902   1.865   3.018   4.171  0.2080 -0.0831  0.2076
 5313TIP3    H115903   1.949   2.998   4.130  0.6673  0.3224  0.9372
 5313TIP3    H215904   1.884   3.016   4.265 -0.6201 -0.0726  0.3772
 5314TIP3   OH215905   1.086   3.638   4.510 -0.4588 -0.0474  0.5253
 5314TIP3    H115906   1.035   3.617   4.589 -1.1119 -0.0758  0.1052
 5314TIP3    H215907   1.093   3.555   4.464 -1.9647  0.3772 -0.5202
 5315TIP3   OH215908   3.956   4.008   4.629  0.1275 -0.2397  0.3022
 5315TIP3    H115909   4.011   3.943   4.585  1.5265  1.6549 -0.7988
 5315TIP3    H215910   3.988   4.008   4.720  0.7731 -0.4216  0.0809
 5316TIP3   OH215911   3.001   1.077   4.232  0.0861 -0.1168  0.1313
 5316TIP3    H115912   2.977   1.154   4.283  1.1442 -0.0886  0.5894
 5316TIP3    H215913   3.064   1.109   4.168  0.3664 -0.5506  0.1852
 5317TIP3   OH215914   3.173   3.729   5.913 -0.4982  0.0484 -0.0412
 5317TIP3    H115915   3.167   3.678   5.993 -1.7778  1.5858  0.8760
 5317TIP3    H215916   3.083   3.735   5.881 -0.2056  0.7475 -0.7508
 5318TIP3   OH215917   2.333   4.829   4.131  0.2577  0.1020  0.0418
 5318TIP3    H115918   2.248   4.864   4.158 -0.4631 -0.7881 -1.0295
 5318TIP3    H215919   2.322   4.734   4.133  0.7662 -0.0132 -1.4939
 5319TIP3   OH215920   0.936   3.050   5.230 -0.2629  0.1492  0.3170
 5319TIP3    H115921   0.975   3.108   5.296  1.1798  0.9749 -1.2002
 5319TIP3    H215922   0.946   2.962   5.266 -1.1996  0.7192  2.0300
 5320TIP3   OH215923   1.302   0.988   0.181 -0.0406 -0.2068  0.0813
 5320TIP3    H115924   1.221   1.025   0.214  0.0989 -0.0049  0.1969
 5320TIP3    H215925   1.277   0.946   0.098 -0.5243 -1.3326  0.7891
 5321TIP3   OH215926   3.103   1.892   5.530  0.4747 -0.0363 -0.3241
 5321TIP3    H115927   3.158   1.935   5.595  2.8406  0.8568 -2.8132
 5321TIP3    H215928   3.138   1.804   5.522 -0.4796 -0.4813  0.3603
 5322TIP3   OH215929   2.906   0.686   5.551  0.2740 -0.8413 -0.0452
 5322TIP3    H115930   2.979   0.653   5.603 -0.0585 -0.9360  0.3647
 5322TIP3    H215931   2.861   0.607   5.522 -0.4971 -0.7540  0.8976
 5323TIP3   OH215932   3.579   3.989   3.907 -0.2574  0.3243  0.0046
 5323TIP3    H115933   3.577   3.928   3.834 -1.0374 -1.1309  1.2118
 5323TIP3    H215934   3.670   3.986   3.938  0.6230  2.5550 -2.1808
 5324TIP3   OH215935   3.437   5.083   4.217 -0.2548  0.0192 -0.6234
 5324TIP3    H115936   3.443   4.990   4.194  0.2251 -0.1254  0.0869
 5324TIP3    H215937   3.375   5.086   4.290 -1.6940  0.4681 -1.8387
 5325TIP3   OH215938   4.257   2.998   5.872  0.5239  0.1289  0.3852
 5325TIP3    H115939   4.303   3.082   5.867  1.5092 -0.5208 -1.7610
 5325TIP3    H215940   4.320   2.938   5.912  0.5353 -0.0706  0.0699
 5326TIP3   OH215941   3.196   3.112   3.760  0.0750  0.1951  0.2259
 5326TIP3    H115942   3.173   3.184   3.819  1.6538  2.1479 -1.4612
 5326TIP3    H215943   3.230   3.156   3.682 -0.3752 -2.3712 -1.4562
 5327TIP3   OH215944   0.815   2.351   4.896 -0.0899  0.1868 -0.5098
 5327TIP3    H115945   0.802   2.446   4.893  1.2672  0.3663 -1.0837
 5327TIP3    H215946   0.908   2.339   4.875 -0.3986 -1.3126 -1.0685
 5328TIP3   OH215947   3.932   2.050   3.876  0.5499 -0.4919 -0.0304
 5328TIP3    H115948   3.885   1.969   3.894 -0.3170 -0.0248 -0.2056
 5328TIP3    H215949   3.994   2.027   3.806  2.4142 -1.7686  1.9519
 5329TIP3   OH215950   0.196   2.338   4.411  0.6247 -0.0143 -0.3635
 5329TIP3    H115951   0.236   2.265   4.458 -0.4576  0.7576  1.8034
 5329TIP3    H215952   0.134   2.376   4.473  0.9510  2.5877 -1.5749
 5330TIP3   OH215953   4.780   3.913   4.141 -0.2169 -0.0357  0.1270
 5330TIP3    H115954   4.830   3.993   4.158 -0.8663  0.2494  0.7323
 5330TIP3    H215955   4.729   3.933   4.062  0.3038 -0.1756 -0.2442
 5331TIP3   OH215956   4.418   5.856   1.054 -0.0674  0.4012  0.1919
 5331TIP3    H115957   4.352   5.820   0.995 -0.6303 -0.4009  1.2794
 5331TIP3    H215958   4.461   5.779   1.092  1.4913  0.9183 -0.4769
 5332TIP3   OH215959   4.304   4.027   5.386  0.0260  0.2957 -0.3016
 5332TIP3    H115960   4.321   4.076   5.466 -0.9361  1.1402 -0.6085
 5332TIP3    H215961   4.243   4.081   5.337 -1.1353 -1.2627 -0.6069
 5333TIP3   OH215962   2.541   1.644   4.915  0.6043 -0.1317 -0.6049
 5333TIP3    H115963   2.453   1.612   4.894 -0.3315  1.3802  0.8643
 5333TIP3    H215964   2.536   1.670   5.007  2.3201  0.8831 -0.7702
 5334TIP3   OH215965   1.616   3.472   4.156 -0.6936  0.8985 -0.2640
 5334TIP3    H115966   1.524   3.481   4.131 -0.9265  0.5253  0.4468
 5334TIP3    H215967   1.624   3.522   4.237 -0.6016 -0.2427  0.4434
 5335TIP3   OH215968   1.143   3.655   5.111  0.3410  0.1287 -0.3026
 5335TIP3    H115969   1.101   3.710   5.176 -1.1584  0.1371 -1.2644
 5335TIP3    H215970   1.133   3.566   5.144 -0.3807  0.1372 -0.4962
 5336TIP3   OH215971   2.973   4.246   3.112  0.6307 -0.0036 -0.5793
 5336TIP3    H115972   2.977   4.222   3.205  0.5104  0.0610 -0.5571
 5336TIP3    H215973   2.940   4.336   3.113  1.1812  0.1959 -0.6551
 5337TIP3   OH215974   2.046   2.810   5.428 -0.3451  0.3853 -0.1459
 5337TIP3    H115975   2.029   2.845   5.341  0.0473  1.6161  0.2609
 5337TIP3    H215976   2.130   2.849   5.453 -0.2103 -0.3560  0.5786
 5338TIP3   OH215977   1.095   2.640   4.286  0.3126  0.6774  0.3062
 5338TIP3    H115978   1.098   2.706   4.217  0.2910  0.7175  0.3433
 5338TIP3    H215979   1.162   2.577   4.262  1.8303  1.8420  1.4194
 5339TIP3   OH215980   3.421   3.585   4.295 -0.0835  0.4150 -0.6471
 5339TIP3    H115981   3.427   3.664   4.241  0.1451 -0.0162 -1.2536
 5339TIP3    H215982   3.332   3.586   4.330  0.1617  1.3406 -0.0412
 5340TIP3   OH215983   2.200   4.242   5.315 -0.0108  0.6386 -0.1251
 5340TIP3    H115984   2.107   4.261   5.303 -0.0141  0.1230 -0.8975
 5340TIP3    H215985   2.243   4.275   5.236  0.4741  0.9283  0.2524
 5341TIP3   OH215986   1.393   3.163   4.233 -0.6663  0.0955 -0.1188
 5341TIP3    H115987   1.467   3.199   4.184 -0.9747  0.7463 -0.1179
 5341TIP3    H215988   1.325   3.150   4.167 -0.1504 -1.6190 -0.3155
 5342TIP3   OH215989   1.170   2.933   2.415 -0.2097  0.3131 -0.3557
 5342TIP3    H115990   1.243   2.938   2.478 -0.7850  1.7512  0.2182
 5342TIP3    H215991   1.147   3.025   2.398 -1.7968 -0.1313 -0.6462
 5343TIP3   OH215992   0.848   2.459   3.922 -0.4467 -0.0152 -0.0631
 5343TIP3    H115993   0.908   2.490   3.854 -1.2616 -1.2787 -1.3850
 5343TIP3    H215994   0.904   2.439   3.997  0.9298 -2.1234 -1.6022
 5344TIP3   OH215995   4.233   1.480   3.933  0.2852  0.1776  0.6472
 5344TIP3    H115996   4.300   1.448   3.873 -0.3720 -1.2953  0.6907
 5344TIP3    H215997   4.170   1.527   3.877  0.1523 -0.4073  0.3066
 5345TIP3   OH215998   2.027   6.497   4.614  0.0948 -0.2564 -0.1618
 5345TIP3    H115999   2.016   6.402   4.611 -1.7218 -0.0489 -0.7943
 5345TIP3    H216000   2.079   6.518   4.536 -0.4855 -0.6231 -0.6559
 5346TIP3   OH216001   2.433   1.141   4.538 -0.4819 -0.0836  0.2189
 5346TIP3    H116002   2.434   1.049   4.512 -2.3285  0.1975 -0.9971
 5346TIP3    H216003   2.399   1.187   4.461  1.3479  1.7373  0.4716
 5347TIP3   OH216004   2.176   0.590   2.126 -0.3595  0.0086  0.0268
 5347TIP3    H116005   2.165   0.680   2.159  0.5232 -0.2456  1.0512
 5347TIP3    H216006   2.262   0.591   2.084  0.7791 -0.9776  2.2365
 5348TIP3   OH216007   2.204   3.593   5.778  0.4287 -0.2151 -0.0303
 5348TIP3    H116008   2.127   3.557   5.822  0.5858  1.4532  1.6642
 5348TIP3    H216009   2.169   3.665   5.725  0.5383 -0.8603 -0.9998
 5349TIP3   OH216010   3.963   0.037   4.723  0.3299 -0.5890  0.0126
 5349TIP3    H116011   4.023   0.051   4.796  2.1522 -2.3205 -1.0769
 5349TIP3    H216012   3.994   0.097   4.655  1.6581 -2.3284 -0.9771
 5350TIP3   OH216013   4.080   4.766   4.313  0.6443  0.1307 -0.1384
 5350TIP3    H116014   4.172   4.740   4.303  0.3978 -0.9036  0.1789
 5350TIP3    H216015   4.040   4.692   4.359 -0.9889 -0.7058 -2.7954
 5351TIP3   OH216016   6.591   4.059   0.645  0.7116 -0.0430  0.3835
 5351TIP3    H116017   6.506   4.088   0.611 -0.2926 -2.9407  0.3160
 5351TIP3    H216018   6.591   4.087   0.736  0.2116  1.0504  0.0590
 5352TIP3   OH216019   2.160   0.845   2.233  0.5335  0.0254  0.3264
 5352TIP3    H116020   2.108   0.825   2.311  0.3034 -2.0174 -0.3144
 5352TIP3    H216021   2.108   0.909   2.184 -2.3464 -3.3238 -1.2285
 5353TIP3   OH216022   6.076   5.635   0.050 -0.5523 -0.5562  0.1938
 5353TIP3    H116023   6.098   5.562   0.107 -1.9851 -0.1420  1.2981
 5353TIP3    H216024   6.160   5.662   0.012  0.2258 -1.6708  1.0864
 5354TIP3   OH216025   5.544   3.917   4.503  0.1833  0.0081 -0.5149
 5354TIP3    H116026   5.613   3.929   4.439  0.5121 -1.8387 -0.5230
 5354TIP3    H216027   5.529   3.822   4.506 -0.8594  0.1940  1.0357
 5355TIP3   OH216028   1.096   1.345   5.693  0.3148  0.3991 -0.3758
 5355TIP3    H116029   1.175   1.305   5.729 -0.8916  0.1022  2.0304
 5355TIP3    H216030   1.086   1.427   5.742 -0.8942  0.4208 -0.6448
 5356TIP3   OH216031   0.893   1.573   4.443  0.2694  0.2712  0.1416
 5356TIP3    H116032   0.832   1.605   4.377  0.4917  1.9562  0.7502
 5356TIP3    H216033   0.844   1.576   4.525 -0.2355 -2.4701 -0.0034
 5357TIP3   OH216034   5.908   1.338   0.592 -0.3160 -0.7451 -0.1286
 5357TIP3    H116035   5.823   1.379   0.574  0.7384  0.8244 -1.6581
 5357TIP3    H216036   5.966   1.412   0.610  0.4599 -1.8761  2.1330
 5358TIP3   OH216037   6.558   6.466   0.459 -0.4856  0.2373 -0.4267
 5358TIP3    H116038   6.513   6.382   0.458  0.4331 -0.2591 -0.6051
 5358TIP3    H216039   6.488   6.531   0.454 -1.3019 -0.4637  1.6107
 5359TIP3   OH216040   6.566   6.454   1.059 -0.1461  0.1900  0.1326
 5359TIP3    H116041   6.631   6.384   1.063 -1.3786 -1.0832 -1.4046
 5359TIP3    H216042   6.574   6.488   0.970 -2.5142 -0.9185 -0.5390
 5360TIP3   OH216043   2.261   3.151   3.690 -0.4795 -0.2181 -0.5463
 5360TIP3    H116044   2.309   3.083   3.737  0.3897  0.5457 -0.3102
 5360TIP3    H216045   2.308   3.161   3.607 -0.8193 -0.1501 -0.7325
 5361TIP3   OH216046   2.138   4.823   5.772  0.1780 -0.4176  0.2374
 5361TIP3    H116047   2.172   4.772   5.845 -0.4653 -0.6518  0.3710
 5361TIP3    H216048   2.077   4.764   5.727 -0.3017  0.1140  0.1873
 5362TIP3   OH216049   0.223   1.856   1.932  0.3071 -0.4114 -0.5268
 5362TIP3    H116050   0.316   1.877   1.943 -0.0786  2.4469 -2.2139
 5362TIP3    H216051   0.204   1.879   1.841 -1.6691 -2.5758 -0.6895
 5363TIP3   OH216052   4.299   4.869   4.587  0.4638 -0.9246 -0.4628
 5363TIP3    H116053   4.350   4.864   4.506  0.0375  2.0920 -0.9664
 5363TIP3    H216054   4.295   4.962   4.607 -2.4947 -1.3352  1.0695
 5364TIP3   OH216055   2.536   2.285   4.330 -0.1010 -0.0007  0.3709
 5364TIP3    H116056   2.511   2.371   4.298  1.1677  0.3287  0.2166
 5364TIP3    H216057   2.576   2.302   4.415  0.9555 -0.3288 -0.0524
 5365TIP3   OH216058   3.402   3.282   5.412  0.3145  0.2914  0.2026
 5365TIP3    H116059   3.497   3.297   5.409  0.5097 -0.8455  0.5264
 5365TIP3    H216060   3.378   3.294   5.504  0.2174  0.1653  0.1942
 5366TIP3   OH216061   2.071   4.542   5.959  0.0678  0.2133  0.2485
 5366TIP3    H116062   2.159   4.506   5.945  0.4947  1.0068  0.8070
 5366TIP3    H216063   2.087   4.635   5.979 -0.8847  0.3188  0.5207
 5367TIP3   OH216064   1.331   4.424   3.899 -0.2750  0.6213 -0.0243
 5367TIP3    H116065   1.322   4.334   3.868 -2.4068  0.9282 -0.3865
 5367TIP3    H216066   1.292   4.477   3.830 -0.5281  1.6912  0.9175
 5368TIP3   OH216067   2.125   1.800   4.664 -0.3647  0.1477  0.1656
 5368TIP3    H116068   2.216   1.771   4.666 -0.0409  1.0638 -0.5074
 5368TIP3    H216069   2.117   1.848   4.582 -1.0147  1.4533  0.9633
 5369TIP3   OH216070   2.453   0.993   4.043  0.0306  0.5109 -0.1794
 5369TIP3    H116071   2.515   1.045   4.094  0.5289  1.3985 -1.6492
 5369TIP3    H216072   2.419   0.928   4.105  0.5109  1.6434  1.2991
 5370TIP3   OH216073   2.944   1.742   6.056 -0.1333 -0.5544 -0.3820
 5370TIP3    H116074   2.970   1.831   6.080  0.3893 -0.9079  0.3941
 5370TIP3    H216075   3.000   1.720   5.982  0.5711 -0.6706  0.1790
 5371TIP3   OH216076   2.561   2.948   4.388 -0.4293 -0.3729  0.0848
 5371TIP3    H116077   2.486   2.926   4.443 -0.6557  1.8890  0.7169
 5371TIP3    H216078   2.588   3.035   4.417  1.1294 -0.2730 -1.5616
 5372TIP3   OH216079   1.460   3.138   5.474 -0.7716  0.0979  0.2977
 5372TIP3    H116080   1.386   3.081   5.456 -0.8901  0.3064  0.1156
 5372TIP3    H216081   1.500   3.102   5.553  0.0639 -1.1294 -0.6742
 5373TIP3   OH216082   0.244   2.327   2.582  0.1167 -0.3186  0.1750
 5373TIP3    H116083   0.251   2.233   2.595  2.3392 -0.4026 -1.3799
 5373TIP3    H216084   0.233   2.338   2.488  0.8752  1.0223  0.2244
 5374TIP3   OH216085   2.247   2.619   4.768  0.1699 -0.3150 -0.3214
 5374TIP3    H116086   2.245   2.648   4.859 -2.1561 -0.4739 -0.3007
 5374TIP3    H216087   2.208   2.692   4.719 -0.1260 -0.9066 -0.9811
 5375TIP3   OH216088   4.323   3.192   4.382 -0.3941 -0.3475  0.0928
 5375TIP3    H116089   4.266   3.216   4.454 -0.8890  0.0570 -0.4323
 5375TIP3    H216090   4.285   3.235   4.305  1.2629  0.9087 -0.0679
 5376TIP3   OH216091   4.717   3.441   5.627 -0.8760  0.0031  0.2850
 5376TIP3    H116092   4.694   3.530   5.652 -2.3371 -0.3329  0.1653
 5376TIP3    H216093   4.634   3.400   5.603 -0.2242 -1.3894  0.3440
 5377TIP3   OH216094   5.714   5.043   0.908 -0.0137 -0.0660 -0.3684
 5377TIP3    H116095   5.809   5.038   0.903  0.0347  0.4313 -0.0200
 5377TIP3    H216096   5.683   4.974   0.849  0.5583 -0.0860 -0.6501
 5378TIP3   OH216097   4.832   1.462   4.401  0.1597 -0.1049 -0.4619
 5378TIP3    H116098   4.810   1.377   4.363  0.4365 -0.6782  0.6264
 5378TIP3    H216099   4.854   1.517   4.326  0.5128 -1.1529 -1.1417
 5379TIP3   OH216100   5.164   5.283   0.117  0.3529  0.3783 -0.0544
 5379TIP3    H116101   5.245   5.259   0.073  1.3469  2.0495  0.8180
 5379TIP3    H216102   5.189   5.352   0.179 -1.7400  0.9890  0.1710
 5380TIP3   OH216103   4.220   1.696   4.712  0.2218 -0.3992 -0.8668
 5380TIP3    H116104   4.242   1.605   4.692  0.2486 -0.2165 -1.6568
 5380TIP3    H216105   4.214   1.739   4.627 -0.6255  0.1495 -0.5326
 5381TIP3   OH216106   4.095   2.359   5.445 -0.2514  0.1389 -0.0484
 5381TIP3    H116107   4.083   2.268   5.474  0.9245 -0.0844 -0.2266
 5381TIP3    H216108   4.027   2.408   5.491  0.4626 -0.4940  1.7461
 5382TIP3   OH216109   3.607   3.225   4.501  0.1250  0.2340  0.1722
 5382TIP3    H116110   3.601   3.316   4.527 -1.9570 -0.1674  1.2153
 5382TIP3    H216111   3.698   3.212   4.476  0.5044  2.4917  0.3616
 5383TIP3   OH216112   1.997   0.659   5.146 -0.0312  0.0734 -0.0940
 5383TIP3    H116113   2.090   0.641   5.155  0.3479  1.1657 -1.5980
 5383TIP3    H216114   1.984   0.743   5.189 -0.3567 -0.1762  0.2955
 5384TIP3   OH216115   4.958   3.953   0.851 -0.8165  0.1555 -0.6010
 5384TIP3    H116116   5.003   4.017   0.796 -0.1832  0.2698  0.0280
 5384TIP3    H216117   4.947   3.998   0.935 -1.6456 -0.0603 -0.5900
 5385TIP3   OH216118   1.848   2.489   4.047 -0.6089  0.0293 -0.5787
 5385TIP3    H116119   1.842   2.574   4.004 -1.9648 -0.2693 -0.9834
 5385TIP3    H216120   1.935   2.456   4.023  0.0835  1.4561 -0.0959
 5386TIP3   OH216121   0.991   4.284   4.453  0.1466  0.4275 -0.2905
 5386TIP3    H116122   1.028   4.263   4.367 -0.0618  0.4481 -0.3843
 5386TIP3    H216123   0.970   4.198   4.491 -0.3479  0.4472 -0.5179
 5387TIP3   OH216124   6.907   4.278   4.895 -0.0933 -0.2771  0.4738
 5387TIP3    H116125   6.857   4.197   4.878 -0.5167  0.6850 -3.3704
 5387TIP3    H216126   6.998   4.249   4.898 -0.3661 -1.1343  0.7541
 5388TIP3   OH216127   3.674   3.799   4.364  0.4841 -0.1418 -0.1729
 5388TIP3    H116128   3.603   3.795   4.300  0.5910  0.0334 -0.3041
 5388TIP3    H216129   3.654   3.877   4.416 -0.1446 -0.8492  0.6528
 5389TIP3   OH216130   2.911   3.051   3.989  0.1341 -0.4100 -0.1543
 5389TIP3    H116131   2.825   3.068   3.949  0.3593 -1.4929 -1.1471
 5389TIP3    H216132   2.954   3.136   3.991 -0.5420 -0.0495 -0.6741
 5390TIP3   OH216133   5.983   6.344   0.646 -0.3132  0.0755 -0.4029
 5390TIP3    H116134   5.928   6.368   0.720  0.7600  0.3894  0.2936
 5390TIP3    H216135   6.005   6.427   0.604 -1.9109 -0.1820 -1.7981
 5391TIP3   OH216136   4.860   2.656   2.576 -0.1560  0.1987 -0.4389
 5391TIP3    H116137   4.769   2.683   2.586 -0.9933 -2.8493  0.8534
 5391TIP3    H216138   4.883   2.615   2.660  1.7723 -0.7730 -1.3960
 5392TIP3   OH216139   3.752   4.676   2.851 -0.0749 -0.0055  0.4818
 5392TIP3    H116140   3.714   4.647   2.934 -1.2666 -1.9488 -0.7082
 5392TIP3    H216141   3.736   4.604   2.791  3.0101  0.3160 -0.8120
 5393TIP3   OH216142   2.466   1.617   4.190  0.0211 -0.0309 -0.2058
 5393TIP3    H116143   2.386   1.668   4.196 -0.0999 -0.0504 -1.3862
 5393TIP3    H216144   2.467   1.562   4.268 -0.9793  0.1618 -0.0600
 5394TIP3   OH216145   4.131   3.786   2.415  0.0377  0.2244  0.2709
 5394TIP3    H116146   4.131   3.860   2.476  0.1918  1.3295 -1.0314
 5394TIP3    H216147   4.103   3.824   2.332 -1.0494 -1.4374 -0.1538
 5395TIP3   OH216148   3.407   2.499   3.671  0.0402  0.4574  0.0455
 5395TIP3    H116149   3.449   2.569   3.721  0.0804 -0.1385  0.8450
 5395TIP3    H216150   3.314   2.523   3.669  0.2024  1.0603 -0.5549
 5396TIP3   OH216151   3.542   3.337   4.164 -0.0930 -0.2805  0.2024
 5396TIP3    H116152   3.597   3.283   4.220 -0.8395 -2.5118 -1.1299
 5396TIP3    H216153   3.549   3.425   4.200  0.5586 -1.3973  2.9114
 5397TIP3   OH216154   1.592   1.773   4.434 -0.0950  0.1314 -0.0189
 5397TIP3    H116155   1.554   1.778   4.346 -0.8343  0.9330  0.3262
 5397TIP3    H216156   1.526   1.727   4.486  1.2245 -2.1593 -0.3209
 5398TIP3   OH216157   3.313   3.469   4.743  0.2990 -0.3326 -0.2501
 5398TIP3    H116158   3.387   3.522   4.771 -0.3983  0.4861  0.0425
 5398TIP3    H216159   3.236   3.522   4.761 -0.3817 -1.2523 -0.3862
 5399TIP3   OH216160   2.572   3.016   5.058  0.9726  0.4999 -0.2736
 5399TIP3    H116161   2.586   2.928   5.095 -1.2220  0.4485  0.4971
 5399TIP3    H216162   2.607   3.075   5.124  1.3280  0.2535 -0.2377
 5400TIP3   OH216163   3.869   3.078   4.611 -0.5137 -0.7404  0.4081
 5400TIP3    H116164   3.919   3.046   4.686  0.6921 -0.8547 -0.4415
 5400TIP3    H216165   3.889   3.017   4.541  2.3131  2.1474 -1.4152
 5401TIP3   OH216166   4.217   1.948   3.255 -0.0718 -0.3402 -0.3693
 5401TIP3    H116167   4.289   1.944   3.318 -0.6204  2.2013  0.4848
 5401TIP3    H216168   4.260   1.965   3.171  0.4148  0.2195 -0.0168
 5402TIP3   OH216169   3.423   3.179   4.950  0.1278  0.2753  0.1104
 5402TIP3    H116170   3.329   3.195   4.938 -0.3728 -2.0117  0.7872
 5402TIP3    H216171   3.456   3.261   4.986 -1.6067  1.1224 -0.1431
 5403TIP3   OH216172   6.359   6.264   0.423  0.2176 -0.1112 -0.0122
 5403TIP3    H116173   6.304   6.227   0.492  1.1515 -4.3729 -1.3903
 5403TIP3    H216174   6.297   6.291   0.356 -0.4584 -0.7202  0.3477
 5404TIP3   OH216175   4.474   3.983   1.347  0.3123  0.1533 -0.0029
 5404TIP3    H116176   4.526   3.935   1.412  0.3845 -1.4938 -1.2618
 5404TIP3    H216177   4.536   4.001   1.276 -0.3284  0.0370 -0.5837
 5405TIP3   OH216178   5.665   6.283   0.125 -0.5416 -0.0940 -0.1894
 5405TIP3    H116179   5.677   6.203   0.175 -0.6241  1.0573  1.7350
 5405TIP3    H216180   5.747   6.331   0.136  0.4046 -0.9247 -3.2625
 5406TIP3   OH216181   3.313   1.977   3.380  0.2689  0.2607  0.2316
 5406TIP3    H116182   3.252   2.011   3.445  0.9778  0.1576  0.9604
 5406TIP3    H216183   3.291   1.884   3.372 -0.1950  0.3998 -0.0993
 5407TIP3   OH216184   3.882   5.017   0.656 -0.6310 -0.2063  0.3448
 5407TIP3    H116185   3.950   5.075   0.621 -1.3550  2.1353  2.6906
 5407TIP3    H216186   3.918   4.985   0.738 -1.4730 -0.6998  0.5270
 5408TIP3   OH216187   2.788   1.045   3.730  0.2709 -0.3833 -0.4323
 5408TIP3    H116188   2.856   1.106   3.759 -0.0213  0.8886 -2.2975
 5408TIP3    H216189   2.832   0.991   3.664 -0.1623 -0.4597 -0.6567
 5409TIP3   OH216190   5.481   4.287   5.964  0.1138 -0.7376 -0.3971
 5409TIP3    H116191   5.492   4.264   6.057  0.4965  1.7883  0.2301
 5409TIP3    H216192   5.394   4.325   5.959  0.7685  0.7875 -0.6737
 5410TIP3   OH216193   5.319   0.709   4.419  0.0165  0.4448 -0.3179
 5410TIP3    H116194   5.243   0.714   4.477  1.1120 -1.6378  1.3681
 5410TIP3    H216195   5.383   0.768   4.458  1.0512 -1.5652  1.1241
 5411TIP3   OH216196   7.033   6.224   5.315 -0.4802 -0.0103 -0.0839
 5411TIP3    H116197   6.955   6.235   5.370 -0.4685 -1.3148  0.2045
 5411TIP3    H216198   7.017   6.143   5.267 -0.5767  1.1979 -2.1671
 5412TIP3   OH216199   4.663   4.059   6.028  0.2226  0.6532  0.1307
 5412TIP3    H116200   4.588   4.052   5.970  0.3676  1.1794 -0.1230
 5412TIP3    H216201   4.661   3.979   6.080  0.0058  0.2513 -0.4964
 5413TIP3   OH216202   1.933   1.739   5.166 -0.4723 -0.1080 -0.3511
 5413TIP3    H116203   1.922   1.676   5.094 -1.2130 -1.6975  1.1116
 5413TIP3    H216204   1.949   1.684   5.243 -0.8607  1.5237  0.9170
 5414TIP3   OH216205   2.137   1.109   1.036 -0.4323  0.3785 -0.1249
 5414TIP3    H116206   2.083   1.030   1.039 -0.4118  0.3217 -1.0735
 5414TIP3    H216207   2.227   1.077   1.037 -0.4175  0.4285  0.3327
 5415TIP3   OH216208   2.862   2.863   5.540 -0.3071 -0.6389  0.1687
 5415TIP3    H116209   2.955   2.845   5.523 -0.4051  0.1127 -1.1659
 5415TIP3    H216210   2.860   2.895   5.630  1.0437  1.6176 -0.5623
 5416TIP3   OH216211   3.768   5.745   0.203  0.0201  0.0584  0.2736
 5416TIP3    H116212   3.815   5.678   0.153  0.2133 -1.5051  2.4903
 5416TIP3    H216213   3.832   5.815   0.217  0.1443  0.2382 -1.0778
 5417TIP3   OH216214   5.403   3.445   5.245 -0.0741 -0.2519  0.3020
 5417TIP3    H116215   5.488   3.424   5.284 -0.7022 -3.0602  0.3117
 5417TIP3    H216216   5.339   3.418   5.311 -0.9904  0.8480 -0.1274
 5418TIP3   OH216217   4.973   0.736   6.053 -0.4543  0.1490  0.1670
 5418TIP3    H116218   4.930   0.656   6.021  3.3251 -1.3092 -1.6729
 5418TIP3    H216219   4.918   0.807   6.021 -2.0892 -1.6245 -1.1096
 5419TIP3   OH216220   3.621   6.846   0.270 -0.1263 -0.6412  0.1840
 5419TIP3    H116221   3.527   6.831   0.261 -0.2718 -1.1764  2.4499
 5419TIP3    H216222   3.649   6.784   0.337  1.6181  0.3821  0.4246
 5420TIP3   OH216223   3.943   2.744   4.147  0.3182 -0.0221  0.0713
 5420TIP3    H116224   3.947   2.685   4.072 -0.6305  0.6389 -0.5119
 5420TIP3    H216225   3.855   2.783   4.143 -0.1656 -0.8134  2.1654
 5421TIP3   OH216226   3.702   2.986   5.854 -0.1847  0.0063 -0.0641
 5421TIP3    H116227   3.655   3.055   5.806 -0.5217  0.6131  1.1298
 5421TIP3    H216228   3.794   3.007   5.841 -0.2776  0.3872 -0.1201
 5422TIP3   OH216229   3.220   3.907   5.621  0.3624  0.2293  0.3139
 5422TIP3    H116230   3.256   3.984   5.666 -0.9138  0.9778  0.0698
 5422TIP3    H216231   3.127   3.909   5.640 -0.1555  0.3803 -2.0743
 5423TIP3   OH216232   2.060   3.539   2.700  0.4900  0.3826 -0.2166
 5423TIP3    H116233   2.051   3.629   2.667  0.6076  0.5870  0.3006
 5423TIP3    H216234   2.049   3.484   2.623  1.6874  0.8969 -0.7802
 5424TIP3   OH216235   5.592   4.549   0.103 -0.6623  0.9668 -0.1239
 5424TIP3    H116236   5.630   4.610   0.167 -0.0226  0.7415 -0.2873
 5424TIP3    H216237   5.588   4.465   0.149  1.3235  0.4290 -0.9203
 5425TIP3   OH216238   4.097   2.530   3.370  0.2908 -0.9080  0.1771
 5425TIP3    H116239   4.161   2.601   3.372 -1.0668  0.4051 -1.3307
 5425TIP3    H216240   4.136   2.464   3.313 -0.0804  0.3036 -1.5249
 5426TIP3   OH216241   1.252   2.068   4.503  0.7938 -0.3453  0.0524
 5426TIP3    H116242   1.337   2.030   4.528  2.2662  1.6816 -1.6177
 5426TIP3    H216243   1.208   1.997   4.456  2.2999 -0.9355 -0.5305
 5427TIP3   OH216244   3.464   2.869   4.918  0.4032 -0.1040 -0.0982
 5427TIP3    H116245   3.373   2.876   4.948  0.2619 -1.3931 -0.2339
 5427TIP3    H216246   3.491   2.781   4.942  0.3980 -1.0843 -3.5123
 5428TIP3   OH216247   3.980   4.082   4.250 -0.3019  0.1143 -0.1612
 5428TIP3    H116248   4.004   4.092   4.158  1.0445  0.0762  0.1714
 5428TIP3    H216249   3.990   4.169   4.287 -2.4236  0.4860 -0.3864
 5429TIP3   OH216250   4.763   0.786   3.410  0.0599 -0.0610 -0.1970
 5429TIP3    H116251   4.786   0.802   3.501 -2.7423 -2.5309  1.0323
 5429TIP3    H216252   4.832   0.727   3.378  0.4987  0.0071  0.6199
 5430TIP3   OH216253   2.480   0.970   2.376  0.3360  0.1432  0.0895
 5430TIP3    H116254   2.435   0.922   2.446  1.9067 -1.3171  0.1242
 5430TIP3    H216255   2.462   0.920   2.297  1.5103 -0.2253  0.0391
 5431TIP3   OH216256   1.325   0.928   4.371 -0.2583 -0.0460  0.3066
 5431TIP3    H116257   1.415   0.898   4.386 -0.1487  0.3881  0.5098
 5431TIP3    H216258   1.303   0.893   4.284  0.6782  1.1873 -0.4448
 5432TIP3   OH216259   6.430   5.142   0.896  0.0282 -0.0544  0.6449
 5432TIP3    H116260   6.335   5.156   0.901 -0.3529 -0.9481 -2.5923
 5432TIP3    H216261   6.463   5.215   0.845  0.9675 -0.1731  1.0725
 5433TIP3   OH216262   5.051   2.246   5.171 -0.1521 -0.2867 -0.2787
 5433TIP3    H116263   5.052   2.218   5.262  0.8758  0.3217 -0.0924
 5433TIP3    H216264   5.108   2.322   5.169 -2.3403  1.3913 -0.9001
 5434TIP3   OH216265   7.310   1.395   2.171 -0.1669  0.1540 -0.6119
 5434TIP3    H116266   7.232   1.436   2.135 -0.1698  1.0069  0.3546
 5434TIP3    H216267   7.284   1.366   2.258  1.1497  2.2139  0.4954
 5435TIP3   OH216268   0.042   2.809   5.837  0.5980  0.7304  0.0471
 5435TIP3    H116269   0.100   2.884   5.848 -0.2890  1.4546 -0.1834
 5435TIP3    H216270   0.096   2.733   5.861  1.5733  1.4119  0.0208
 5436TIP3   OH216271   1.902   2.135   5.422  0.1689 -0.1042  0.3653
 5436TIP3    H116272   1.866   2.051   5.451  1.1878 -0.8025 -0.3275
 5436TIP3    H216273   1.914   2.185   5.502 -1.9384 -0.0106  0.6318
 5437TIP3   OH216274   3.780   1.776   5.427 -0.4274  0.1505  0.3766
 5437TIP3    H116275   3.732   1.718   5.367 -1.6858  1.1135  0.4221
 5437TIP3    H216276   3.827   1.837   5.370 -0.0375 -0.1774  0.3458
 5438TIP3   OH216277   4.534   3.978   5.259  0.3859  0.0352 -0.5659
 5438TIP3    H116278   4.521   3.946   5.170 -0.7664 -0.5196 -0.2127
 5438TIP3    H216279   4.448   3.970   5.300  0.9385  0.1441  0.6361
 5439TIP3   OH216280   1.109   2.197   5.785  0.3170  0.1266 -0.1354
 5439TIP3    H116281   1.134   2.139   5.712  0.4298 -2.8393  2.1387
 5439TIP3    H216282   1.192   2.218   5.828  0.5476  3.9973 -2.2832
 5440TIP3   OH216283   3.183   1.369   5.517 -0.0570 -0.4915 -0.2575
 5440TIP3    H116284   3.273   1.337   5.515  0.7873  1.7931 -0.2651
 5440TIP3    H216285   3.163   1.379   5.610  0.5736  1.3642 -0.3182
 5441TIP3   OH216286   1.379   3.404   5.493  0.3616  0.4581 -0.4479
 5441TIP3    H116287   1.345   3.396   5.404 -0.9897  0.5950  0.0528
 5441TIP3    H216288   1.411   3.316   5.513  1.5648  0.6526 -1.4108
 5442TIP3   OH216289   1.828   1.577   3.954  0.1852  0.0111  0.3486
 5442TIP3    H116290   1.741   1.579   3.913  0.3528 -1.5158 -0.0883
 5442TIP3    H216291   1.845   1.669   3.977  0.0396  0.9118 -2.8720
 5443TIP3   OH216292   3.561   4.476   5.426  0.6382  0.6973  0.0672
 5443TIP3    H116293   3.511   4.551   5.394  2.2291  1.9942  0.5516
 5443TIP3    H216294   3.515   4.449   5.506 -0.0877  0.9950 -0.2449
 5444TIP3   OH216295   4.626   2.622   3.977  0.3263 -1.0983  0.7530
 5444TIP3    H116296   4.642   2.536   4.017  0.0460 -1.6871 -0.3959
 5444TIP3    H216297   4.617   2.604   3.884  0.2997  0.1910  0.5002
 5445TIP3   OH216298   3.038   6.149   1.006 -0.1108  0.1602  0.0603
 5445TIP3    H116299   3.018   6.058   0.984  0.0304 -0.4041  2.1722
 5445TIP3    H216300   2.961   6.198   0.976  0.2549 -0.4716 -2.0405
 5446TIP3   OH216301   3.385   3.030   4.534 -0.4688 -0.3044 -0.0583
 5446TIP3    H116302   3.458   3.054   4.592 -1.5234  0.4413  0.9816
 5446TIP3    H216303   3.427   2.983   4.462  1.4592  3.1294 -1.2884
 5447TIP3   OH216304   6.876   3.450   1.891 -0.4127  0.3234  0.8756
 5447TIP3    H116305   6.806   3.390   1.866 -0.4082 -0.2021  2.0818
 5447TIP3    H216306   6.938   3.445   1.819 -0.9376 -0.2866  0.4555
 5448TIP3   OH216307   6.104   3.664   4.399  0.0195 -0.6217 -0.1772
 5448TIP3    H116308   6.134   3.582   4.438  1.1301 -0.0900  0.1109
 5448TIP3    H216309   6.184   3.704   4.363 -0.8132 -0.6432 -2.1525
 5449TIP3   OH216310   4.495   1.445   5.292 -0.1093 -0.3436 -0.5951
 5449TIP3    H116311   4.462   1.513   5.233 -3.7751 -0.4435  1.1812
 5449TIP3    H216312   4.447   1.366   5.267  0.3321 -1.0328  0.6799
 5450TIP3   OH216313   3.694   3.856   5.761  0.0472  0.9478  0.3385
 5450TIP3    H116314   3.641   3.909   5.702 -1.3168 -1.1223 -0.3305
 5450TIP3    H216315   3.661   3.767   5.750  0.7666  0.2845  3.1302
 5451TIP3   OH216316   3.396   2.818   3.539  0.6668  0.0385  0.2244
 5451TIP3    H116317   3.349   2.830   3.457 -0.3857 -2.5077  0.3897
 5451TIP3    H216318   3.480   2.781   3.514  0.7629  0.2746  0.2057
 5452TIP3   OH216319   5.673   3.498   4.125  0.3354  0.3003 -0.1871
 5452TIP3    H116320   5.740   3.480   4.191 -1.4046 -1.3023  1.1918
 5452TIP3    H216321   5.697   3.444   4.051  0.3389 -0.6300  0.4806
 5453TIP3   OH216322   6.303   2.190   5.495 -0.0713 -0.2343 -0.3884
 5453TIP3    H116323   6.268   2.118   5.442 -2.3744  0.9965 -0.6050
 5453TIP3    H216324   6.381   2.218   5.449 -0.3023 -1.2410 -1.4192
 5454TIP3   OH216325   3.745   1.596   3.054  0.0241  0.0441  0.0722
 5454TIP3    H116326   3.804   1.522   3.038  0.9880  0.7648  0.2596
 5454TIP3    H216327   3.733   1.597   3.149 -2.5569 -1.8209 -0.1823
 5455TIP3   OH216328   1.403   0.819   4.962 -0.4669 -0.5394  0.2260
 5455TIP3    H116329   1.482   0.849   5.006 -2.3916 -0.1639  3.6351
 5455TIP3    H216330   1.390   0.730   4.993 -1.3511 -0.5875 -0.2605
 5456TIP3   OH216331   4.906   2.664   4.113  0.1532 -0.7533 -0.6952
 5456TIP3    H116332   4.859   2.741   4.080  1.5585  0.4410  0.0179
 5456TIP3    H216333   4.866   2.646   4.198  1.2710  0.6073  0.1680
 5457TIP3   OH216334   4.073   0.215   3.307  0.3242  0.0100  0.0540
 5457TIP3    H116335   4.168   0.222   3.316  0.4427 -1.0736 -0.2767
 5457TIP3    H216336   4.055   0.122   3.312 -0.9388  0.3169  2.0407
 5458TIP3   OH216337   4.439   3.157   5.359  0.1520  0.0625  0.2189
 5458TIP3    H116338   4.370   3.095   5.336  0.5729  0.2142 -1.4851
 5458TIP3    H216339   4.466   3.130   5.448 -0.4921 -1.4321 -0.0148
 5459TIP3   OH216340   5.727   1.960   5.111  0.2381  0.4478 -0.0833
 5459TIP3    H116341   5.693   1.961   5.200  1.0586  0.6948  0.2312
 5459TIP3    H216342   5.652   1.983   5.056 -0.6422 -1.2035  0.4046
 5460TIP3   OH216343   3.967   4.130   5.558  0.4286  0.0935 -0.5343
 5460TIP3    H116344   3.909   4.157   5.487 -0.1952  0.6227  0.1716
 5460TIP3    H216345   3.913   4.072   5.613  0.8027 -0.0426 -0.3033
 5461TIP3   OH216346   6.781   5.396   0.932 -0.3186  0.4575 -0.0088
 5461TIP3    H116347   6.709   5.418   0.873  0.3134  2.6999  0.0080
 5461TIP3    H216348   6.823   5.480   0.950  0.0960 -0.3130  2.8515
 5462TIP3   OH216349   2.319   1.558   0.853  0.6188 -0.4882  0.1374
 5462TIP3    H116350   2.320   1.588   0.943 -1.3510  0.4490 -0.1391
 5462TIP3    H216351   2.251   1.610   0.810  1.8127 -0.6057 -1.9964
 5463TIP3   OH216352   4.310   2.083   5.804  0.0272 -0.2499  0.2736
 5463TIP3    H116353   4.242   2.029   5.765 -1.5888  0.4556  2.0152
 5463TIP3    H216354   4.329   2.150   5.737 -1.6554  0.0904  0.1166
 5464TIP3   OH216355   1.928   2.299   4.486 -0.2343  0.2662  0.2795
 5464TIP3    H116356   1.988   2.263   4.421 -0.6374  1.6983 -0.8941
 5464TIP3    H216357   1.864   2.229   4.501  1.2112 -0.9546  0.9097
 5465TIP3   OH216358   3.612   3.059   3.306  0.0460 -0.0925 -0.4517
 5465TIP3    H116359   3.634   2.986   3.364 -0.7144 -1.4310 -1.8376
 5465TIP3    H216360   3.694   3.079   3.260  0.5180  0.6342  0.6754
 5466TIP3   OH216361   6.364   2.373   5.230 -0.3801 -0.4913 -0.3046
 5466TIP3    H116362   6.420   2.429   5.284 -1.0946  0.9706 -1.0504
 5466TIP3    H216363   6.417   2.356   5.152 -0.5590  0.0292 -0.5450
 5467TIP3   OH216364   6.023   3.014   4.983  0.5254 -0.2894  0.1317
 5467TIP3    H116365   6.043   3.068   5.059  0.8837  0.5295 -0.5254
 5467TIP3    H216366   6.100   2.957   4.973  1.1399  0.6256 -0.4796
 5468TIP3   OH216367   4.948   5.430   4.516  0.1731 -0.0377  0.6713
 5468TIP3    H116368   4.861   5.469   4.508  0.3333  0.3729  0.8913
 5468TIP3    H216369   4.935   5.352   4.569 -0.2324 -0.5654 -0.2069
 5469TIP3   OH216370   4.663   1.276   2.730  0.2680 -0.7377 -0.0495
 5469TIP3    H116371   4.574   1.242   2.716 -0.1298  0.2231  0.1360
 5469TIP3    H216372   4.696   1.228   2.806 -0.7314  0.1177  0.9433
 5470TIP3   OH216373   6.773   4.374   4.673 -0.0317  0.0881 -0.3267
 5470TIP3    H116374   6.831   4.354   4.747 -0.3877 -0.1361 -0.1028
 5470TIP3    H216375   6.831   4.381   4.598  0.3247  0.2213 -0.0403
 5471TIP3   OH216376   4.310   3.968   2.761 -0.0567 -0.3609 -0.0245
 5471TIP3    H116377   4.264   3.923   2.832 -0.0315 -2.0996 -1.0822
 5471TIP3    H216378   4.369   4.028   2.806 -0.7983 -0.6648  1.4115
 5472TIP3   OH216379   4.267   2.684   5.115 -0.1216 -0.2613 -0.4062
 5472TIP3    H116380   4.301   2.602   5.150 -0.2480 -0.2702 -0.3055
 5472TIP3    H216381   4.172   2.676   5.121 -0.1162  0.1599  0.2063
 5473TIP3   OH216382   0.873   3.167   5.890  0.1420  0.2085  0.0419
 5473TIP3    H116383   0.935   3.195   5.822 -0.3464  0.5222 -0.2726
 5473TIP3    H216384   0.839   3.249   5.926  2.0392  0.1181  2.1986
 5474TIP3   OH216385   4.988   0.536   0.354 -0.3162 -0.2921 -0.3761
 5474TIP3    H116386   5.030   0.520   0.269 -0.7918  0.0876 -0.6848
 5474TIP3    H216387   5.061   0.540   0.416  0.0864  0.0560 -0.8662
 5475TIP3   OH216388   5.733   2.359   5.853  0.7642 -0.1334 -0.1203
 5475TIP3    H116389   5.644   2.351   5.821  0.5503  0.7644  0.2434
 5475TIP3    H216390   5.764   2.269   5.860  0.4881 -0.3732 -1.9004
 5476TIP3   OH216391   2.827   3.396   1.969 -0.9572 -0.3256  0.2623
 5476TIP3    H116392   2.878   3.353   2.038 -0.1696 -0.2962 -0.2897
 5476TIP3    H216393   2.736   3.381   1.993 -0.7092 -2.9411 -0.2929
 5477TIP3   OH216394   4.429   1.809   4.871 -0.0195 -0.0276  0.4636
 5477TIP3    H116395   4.351   1.773   4.830  1.6049 -0.0336 -2.8734
 5477TIP3    H216396   4.412   1.903   4.875  0.1165  0.0903 -1.1417
 5478TIP3   OH216397   2.860   2.984   3.025 -0.3636 -0.0639  0.2809
 5478TIP3    H116398   2.926   3.012   2.962 -0.0695 -1.9937 -0.2936
 5478TIP3    H216399   2.784   3.038   3.005  0.2687  0.5131 -0.6117
 5479TIP3   OH216400   4.641   1.851   4.143 -0.4425  0.0312 -0.2513
 5479TIP3    H116401   4.591   1.831   4.222  1.3386  1.3507  1.2647
 5479TIP3    H216402   4.600   1.931   4.109  1.5517  2.0713  1.9148
 5480TIP3   OH216403   4.907   4.136   5.936 -0.1467 -0.1276  0.2247
 5480TIP3    H116404   4.911   4.077   5.861 -0.7538  0.9747 -0.6935
 5480TIP3    H216405   4.820   4.122   5.974 -0.1358 -0.1231  0.2512
 5481TIP3   OH216406   4.774   2.865   3.962  0.4698  0.2228 -0.5301
 5481TIP3    H116407   4.780   2.895   3.871 -0.1304  1.2466 -0.2391
 5481TIP3    H216408   4.681   2.849   3.976  0.5063  0.5036  0.0374
 5482TIP3   OH216409   6.122   6.069   0.305 -0.3762  0.2013  0.3977
 5482TIP3    H116410   6.107   6.022   0.223 -0.2601  0.1007  0.4334
 5482TIP3    H216411   6.200   6.028   0.341 -1.1135 -0.5506  1.1493
 5483TIP3   OH216412   5.919   5.271   4.869  0.1628  0.3392  0.0781
 5483TIP3    H116413   5.830   5.284   4.902 -0.0398 -2.4152  0.7903
 5483TIP3    H216414   5.960   5.214   4.934  2.0152  0.4918 -0.9254
 5484TIP3   OH216415   3.703   3.448   2.703  0.1963  0.3110  0.0555
 5484TIP3    H116416   3.645   3.397   2.647 -0.1145  0.1513  0.5267
 5484TIP3    H216417   3.656   3.530   2.718  0.8105  0.8557 -0.9240
 5485TIP3   OH216418   1.910   2.321   5.636 -0.9601 -0.2072  0.0301
 5485TIP3    H116419   1.849   2.367   5.694 -0.7045  0.4044 -0.1812
 5485TIP3    H216420   1.968   2.389   5.603  0.1128 -0.8530  0.5452
 5486TIP3   OH216421   5.678   0.772   5.685  0.1872 -0.1136  0.0254
 5486TIP3    H116422   5.769   0.804   5.686  0.2406 -0.2512 -0.3246
 5486TIP3    H216423   5.678   0.705   5.617 -0.3983  0.5226 -0.5983
 5487TIP3   OH216424   5.693   5.560   4.664  0.5112  0.5163  0.3528
 5487TIP3    H116425   5.717   5.484   4.610  2.2259  0.8095  0.6818
 5487TIP3    H216426   5.769   5.618   4.660  0.4932  0.7566  2.7381
 5488TIP3   OH216427   3.429   4.646   4.648  0.1796  0.7634  0.4251
 5488TIP3    H116428   3.520   4.663   4.670  0.0592  0.5970  1.0708
 5488TIP3    H216429   3.379   4.685   4.719 -0.2939  1.5954 -0.3624
 5489TIP3   OH216430   4.322   5.592   3.889  0.2729 -0.9958 -0.9057
 5489TIP3    H116431   4.380   5.624   3.959  0.3445 -0.8368 -1.0381
 5489TIP3    H216432   4.364   5.512   3.859  1.1453 -0.1858 -1.9134
 5490TIP3   OH216433   3.039   0.973   0.340 -0.1462 -0.5739 -0.1709
 5490TIP3    H116434   3.091   0.945   0.265  0.3810 -0.5644  0.1851
 5490TIP3    H216435   3.067   1.062   0.358  0.0665 -0.7307  0.3145
 5491TIP3   OH216436   6.276   1.273   5.623  0.4688 -0.2471  0.2219
 5491TIP3    H116437   6.358   1.305   5.661  0.4910 -0.5389  0.4143
 5491TIP3    H216438   6.298   1.254   5.532  1.1219 -2.2616  0.7798
 5492TIP3   OH216439   4.034   2.575   5.233  0.0182 -0.3170  0.1870
 5492TIP3    H116440   3.970   2.588   5.162  0.3491 -1.1242 -0.2601
 5492TIP3    H216441   3.983   2.537   5.304  0.0436 -1.2266 -0.2692
 5493TIP3   OH216442   5.386   3.962   4.965  0.2858  0.1828 -0.3622
 5493TIP3    H116443   5.323   3.968   4.893 -0.7284 -0.5220  0.4553
 5493TIP3    H216444   5.382   4.048   5.008 -2.8607 -0.9911  1.9153
 5494TIP3   OH216445   3.257   6.127   4.688  0.3709 -0.3253  0.2074
 5494TIP3    H116446   3.294   6.051   4.734  1.3186 -0.6684 -1.1075
 5494TIP3    H216447   3.199   6.089   4.623 -0.4252  0.1457  0.6325
 5495TIP3   OH216448   6.385   1.875   2.946 -0.0824  0.0047 -0.7615
 5495TIP3    H116449   6.411   1.818   2.874  0.6376  0.7401 -1.0988
 5495TIP3    H216450   6.382   1.818   3.022  2.2785 -0.1711 -0.7721
 5496TIP3   OH216451   4.580   2.802   3.512 -0.3813 -0.1313 -0.3317
 5496TIP3    H116452   4.566   2.892   3.483 -0.3991  0.2728  0.9011
 5496TIP3    H216453   4.661   2.775   3.470  0.4402  0.9945  0.5192
 5497TIP3   OH216454   4.189   3.231   3.683 -0.0586  0.1967  0.6324
 5497TIP3    H116455   4.284   3.237   3.691 -0.2042  0.0333  2.5424
 5497TIP3    H216456   4.157   3.318   3.710 -0.5522 -0.3122  1.7102
 5498TIP3   OH216457   6.195   2.020   4.277 -0.5159 -0.1158 -0.0818
 5498TIP3    H116458   6.263   1.964   4.316 -1.0751 -1.2273 -0.6850
 5498TIP3    H216459   6.161   1.968   4.203 -0.5977  1.2818 -1.0461
 5499TIP3   OH216460   5.520   3.199   4.862  0.2421  0.1651 -0.1143
 5499TIP3    H116461   5.490   3.124   4.810 -0.6145  0.5900 -0.2325
 5499TIP3    H216462   5.610   3.176   4.887  0.5208 -0.2182 -1.4329
 5500TIP3   OH216463   4.614   1.331   3.227 -0.1011  0.1593  0.3561
 5500TIP3    H116464   4.687   1.375   3.184 -0.0929 -0.4707 -0.2702
 5500TIP3    H216465   4.655   1.277   3.295 -0.2402  2.8241  2.6881
 5501TIP3   OH216466   3.475   3.045   3.642 -0.2449 -0.2868 -0.1064
 5501TIP3    H116467   3.435   2.963   3.613 -0.9504  0.5470 -1.5668
 5501TIP3    H216468   3.451   3.108   3.574  2.7630  0.4636 -0.5377
 5502TIP3   OH216469   3.887   2.918   5.149 -0.4892 -0.2595  0.2297
 5502TIP3    H116470   3.956   2.952   5.206 -0.4465 -0.2419  0.1667
 5502TIP3    H216471   3.809   2.914   5.206 -0.1230 -1.5225  0.6461
 5503TIP3   OH216472   2.886   3.072   4.455 -0.5115 -0.2626 -0.4248
 5503TIP3    H116473   2.972   3.031   4.458 -0.5478 -0.4147 -1.2405
 5503TIP3    H216474   2.875   3.112   4.541  1.7314  2.5577 -1.4038
 5504TIP3   OH216475   1.529   6.306   0.165  0.0345  0.2766 -0.1480
 5504TIP3    H116476   1.501   6.395   0.143  1.2945  0.4250 -1.2298
 5504TIP3    H216477   1.449   6.263   0.196 -1.0190  1.1947 -1.5112
 5505TIP3   OH216478   6.019   0.517   4.615 -0.1913 -0.3094 -0.4801
 5505TIP3    H116479   5.967   0.593   4.640 -1.9092 -0.4424 -3.4028
 5505TIP3    H216480   5.976   0.484   4.536  2.2407 -2.5798 -0.9085
 5506TIP3   OH216481   4.423   0.201   4.954  0.2959  0.2053  0.2457
 5506TIP3    H116482   4.518   0.213   4.956  0.1554  1.2924  0.4054
 5506TIP3    H216483   4.388   0.281   4.992 -0.6885 -0.2408  0.2845
 5507TIP3   OH216484   5.358   1.520   2.399  0.3856 -0.0387  0.1790
 5507TIP3    H116485   5.361   1.615   2.389 -1.4639  0.1299  0.9838
 5507TIP3    H216486   5.340   1.507   2.492 -0.4972 -1.1518 -0.1401
 5508TIP3   OH216487   5.115   1.310   5.992  0.5896  0.4662  0.0330
 5508TIP3    H116488   5.100   1.229   5.943  1.3994 -0.5479  1.4283
 5508TIP3    H216489   5.062   1.376   5.947 -0.4629 -0.9420 -0.8196
 5509TIP3   OH216490   5.485   5.459   3.828  0.0774 -0.3734 -0.2538
 5509TIP3    H116491   5.465   5.369   3.800 -0.1977 -1.5089  3.3742
 5509TIP3    H216492   5.424   5.513   3.778 -0.0145 -2.2186 -2.2313
 5510TIP3   OH216493   4.979   5.819   3.824 -0.2282 -0.1728  0.0317
 5510TIP3    H116494   5.021   5.801   3.909  0.4781  0.3020 -0.2131
 5510TIP3    H216495   5.009   5.747   3.768 -0.0770 -0.0688 -0.0229
 5511TIP3   OH216496   4.610   3.621   4.945 -0.3422  0.4410  0.5549
 5511TIP3    H116497   4.672   3.620   5.018 -0.4911 -0.7786  0.6720
 5511TIP3    H216498   4.545   3.554   4.967 -0.2924 -0.0641 -0.7764
 5512TIP3   OH216499   6.672   2.260   5.706 -0.0060 -0.3784  0.4324
 5512TIP3    H116500   6.678   2.201   5.781 -1.9828 -1.1182  0.0288
 5512TIP3    H216501   6.629   2.338   5.741 -0.3858 -0.4880  0.2142
 5513TIP3   OH216502   2.784   1.348   3.731  0.5854  0.0545  0.1225
 5513TIP3    H116503   2.841   1.320   3.660 -0.6900 -0.6218 -0.6492
 5513TIP3    H216504   2.700   1.367   3.689  0.8527  3.2547  0.8955
 5514TIP3   OH216505   5.314   2.940   5.004 -0.1396 -0.0762 -0.0290
 5514TIP3    H116506   5.229   2.896   5.011 -0.5013  0.2893 -1.7709
 5514TIP3    H216507   5.319   2.966   4.912  1.4027  0.8413  0.3048
 5515TIP3   OH216508   4.644   1.817   5.494  0.5213 -0.2578 -0.7411
 5515TIP3    H116509   4.571   1.756   5.505  1.0309 -1.2266 -2.5789
 5515TIP3    H216510   4.708   1.769   5.441  1.6819  1.2561 -0.7529
 5516TIP3   OH216511   6.484   4.631   5.610  0.1533  0.0115 -0.0273
 5516TIP3    H116512   6.403   4.677   5.590 -0.4119 -0.9726 -0.0112
 5516TIP3    H216513   6.516   4.599   5.525  0.3817  0.1565  0.0021
 5517TIP3   OH216514   5.560   2.580   5.479 -0.5048  0.3837 -0.2319
 5517TIP3    H116515   5.597   2.619   5.558 -0.1065  0.1514 -0.3036
 5517TIP3    H216516   5.486   2.637   5.456  1.2249  2.1806 -1.4267
 5518TIP3   OH216517   4.090   4.629   5.302 -0.3235  0.5884  0.4530
 5518TIP3    H116518   4.076   4.586   5.387 -1.5700  1.2384  0.5953
 5518TIP3    H216519   4.185   4.638   5.295 -0.2168  0.7709  1.9133
 5519TIP3   OH216520   4.904   1.855   4.701 -0.0256 -0.1180 -0.2895
 5519TIP3    H116521   4.941   1.777   4.661 -1.7243 -1.6384  1.0198
 5519TIP3    H216522   4.897   1.833   4.794 -1.5029  1.1712 -0.0725
 5520TIP3   OH216523   4.997   1.591   4.616 -0.3611  0.6072 -0.4804
 5520TIP3    H116524   5.031   1.522   4.673 -1.7149  0.8365  0.6311
 5520TIP3    H216525   4.937   1.546   4.557  0.6882  0.4445 -1.4430
 5521TIP3   OH216526   3.916   3.363   3.957 -0.3360 -0.4840  0.5915
 5521TIP3    H116527   3.939   3.338   4.046  0.7629  0.2759  0.5254
 5521TIP3    H216528   3.974   3.436   3.936 -1.9262  0.6366 -0.0412
 5522TIP3   OH216529   2.570   2.220   5.089  0.1833  0.4285  0.4294
 5522TIP3    H116530   2.622   2.142   5.071 -0.0615 -0.2065  2.3654
 5522TIP3    H216531   2.529   2.241   5.005  1.3718 -0.6826 -0.4494
 5523TIP3   OH216532   4.192   2.774   4.850 -0.0356 -0.0979 -0.5781
 5523TIP3    H116533   4.247   2.721   4.907 -1.2206 -0.3387  0.3383
 5523TIP3    H216534   4.111   2.788   4.899 -0.6303  0.6362 -1.7307
 5524TIP3   OH216535   1.235   5.302   0.157  0.0786  0.2385  0.1905
 5524TIP3    H116536   1.173   5.371   0.181  1.3068  0.8158  1.7832
 5524TIP3    H216537   1.306   5.348   0.113  2.0131  0.3431  3.3152
 5525TIP3   OH216538   4.831   2.466   3.560  0.6641 -0.0822  0.1569
 5525TIP3    H116539   4.758   2.511   3.604  0.2850  0.5522 -1.1088
 5525TIP3    H216540   4.909   2.502   3.602  0.2699 -0.3765  1.1574
 5526TIP3   OH216541   2.156   1.978   0.927 -1.3040  0.0506  0.5098
 5526TIP3    H116542   2.165   2.073   0.920 -0.1643  0.1253  2.5749
 5526TIP3    H216543   2.064   1.965   0.953 -1.3074  0.6278  0.7941
 5527TIP3   OH216544   2.971   2.670   2.393  0.0313 -0.4104  0.2595
 5527TIP3    H116545   2.913   2.736   2.431  1.4218  1.4065 -0.7021
 5527TIP3    H216546   3.043   2.662   2.456 -0.0044 -0.7795  0.2497
 5528TIP3   OH216547   3.843   0.155   0.838  0.7622 -0.5687  0.5479
 5528TIP3    H116548   3.807   0.205   0.764 -0.4789  1.5391  2.5129
 5528TIP3    H216549   3.934   0.138   0.813  0.7763  1.3841 -0.8517
 5529TIP3   OH216550   4.046   4.309   4.875  0.4116 -0.5775  0.0032
 5529TIP3    H116551   4.038   4.390   4.925 -0.9964 -0.9722  0.4425
 5529TIP3    H216552   4.009   4.241   4.932 -0.3553 -1.1850 -1.1920
 5530TIP3   OH216553   3.878   0.910   4.017 -0.2562  0.6040 -0.3610
 5530TIP3    H116554   3.863   0.958   4.098  0.4839 -2.2512  1.5431
 5530TIP3    H216555   3.925   0.831   4.044  0.5039 -0.1428 -3.6437
 5531TIP3   OH216556   6.531   2.406   4.239  0.2554  0.2131  0.1046
 5531TIP3    H116557   6.597   2.363   4.184  1.2682  0.8472  0.8081
 5531TIP3    H216558   6.508   2.340   4.304  2.2619  0.9095  1.5621
 5532TIP3   OH216559   5.146   3.467   4.210 -0.0005 -0.5880  0.3549
 5532TIP3    H116560   5.239   3.444   4.204 -0.4846 -2.3309 -1.0066
 5532TIP3    H216561   5.105   3.391   4.252 -0.8972 -0.1076  0.3602
 5533TIP3   OH216562   4.977   5.546   3.720  0.3967  0.3505 -0.5240
 5533TIP3    H116563   4.977   5.456   3.753  1.2938 -0.0669 -1.6274
 5533TIP3    H216564   4.966   5.537   3.625 -1.3180  1.4933 -0.4608
 5534TIP3   OH216565   0.091   5.465   0.294 -0.6806  0.2284 -0.2631
 5534TIP3    H116566   0.102   5.459   0.389 -1.9730 -0.9137 -0.1774
 5534TIP3    H216567   0.120   5.380   0.261 -0.8797  0.3799 -0.8330
 5535TIP3   OH216568   3.198   2.111   3.121 -0.6206  0.5927 -0.2504
 5535TIP3    H116569   3.264   2.087   3.187 -0.4122 -2.4538 -1.4999
 5535TIP3    H216570   3.126   2.149   3.172 -0.1105 -0.9468  1.6823
 5536TIP3   OH216571   4.965   2.305   3.231  0.6968  0.0316  0.7965
 5536TIP3    H116572   5.031   2.334   3.169  0.3830  0.7109  0.7805
 5536TIP3    H216573   5.012   2.245   3.289  1.1762  0.0127  0.3949
 5537TIP3   OH216574   3.888   2.240   4.516  0.4936 -0.3678  0.6955
 5537TIP3    H116575   3.949   2.232   4.443  1.5535 -0.3872  1.5657
 5537TIP3    H216576   3.802   2.222   4.478  0.7763  1.6129 -0.9780
 5538TIP3   OH216577   4.337   3.679   4.501  0.6446  0.4238  0.0174
 5538TIP3    H116578   4.426   3.655   4.472  0.1625 -0.6047 -0.6365
 5538TIP3    H216579   4.331   3.644   4.590 -0.1661 -2.2215 -1.0452
 5539TIP3   OH216580   2.101   6.734   4.395 -0.1680  0.0492 -0.1662
 5539TIP3    H116581   2.024   6.784   4.420 -0.6592 -0.2649 -1.0373
 5539TIP3    H216582   2.174   6.781   4.436 -0.8704 -0.0384  1.2223
 5540TIP3   OH216583   5.364   1.821   2.775  0.1134 -0.6424 -0.3257
 5540TIP3    H116584   5.447   1.843   2.818  1.3537 -1.8305 -2.0465
 5540TIP3    H216585   5.305   1.799   2.847  1.6058 -0.8035  0.8765
 5541TIP3   OH216586   4.328   2.990   3.519 -0.5730  0.4049  0.0824
 5541TIP3    H116587   4.244   3.037   3.516 -1.6628 -1.5224 -1.2500
 5541TIP3    H216588   4.312   2.917   3.578  0.1682  0.0313 -0.1761
 5542TIP3   OH216589   4.827   4.097   2.483 -0.0766 -0.3899  1.0343
 5542TIP3    H116590   4.905   4.139   2.519  0.4976 -0.8644  0.3608
 5542TIP3    H216591   4.854   4.006   2.467 -0.5337 -0.3693  0.1161
 5543TIP3   OH216592   0.297   4.915   0.175  0.0677 -0.3513 -0.0901
 5543TIP3    H116593   0.284   4.881   0.264 -1.7250 -1.4601 -0.7300
 5543TIP3    H216594   0.265   4.845   0.118  0.4474  0.6629 -1.5867
 5544TIP3   OH216595   5.520   0.960   5.520 -0.0268 -0.5319 -0.1699
 5544TIP3    H116596   5.576   1.006   5.458  0.5118 -1.0807 -0.1057
 5544TIP3    H216597   5.579   0.895   5.561 -0.2617  0.1133  1.2233
 5545TIP3   OH216598   4.316   0.919   3.972 -0.1176  0.7783  0.1389
 5545TIP3    H116599   4.343   1.005   3.938  0.2992  0.4488 -0.3727
 5545TIP3    H216600   4.285   0.872   3.895 -1.8179  1.0197  0.6711
 5546TIP3   OH216601   5.661   5.065   4.844 -0.4478  0.2883 -0.1519
 5546TIP3    H116602   5.639   5.156   4.824 -3.0557 -0.5610 -1.3363
 5546TIP3    H216603   5.711   5.035   4.768 -0.1087  0.5538 -0.0326
 5547TIP3   OH216604   5.343   3.015   4.736  0.0748 -0.1558 -0.7148
 5547TIP3    H116605   5.265   3.070   4.746  0.4370  0.2362 -0.0101
 5547TIP3    H216606   5.328   2.966   4.655 -0.5957  0.4231 -0.9420
 5548TIP3   OH216607   3.957   2.513   3.952 -0.2198 -0.3471 -0.2915
 5548TIP3    H116608   4.006   2.472   3.880  0.5842  0.3315 -0.1415
 5548TIP3    H216609   3.875   2.464   3.957  0.3154 -1.2964 -0.7620
 5549TIP3   OH216610   4.166   3.156   3.189 -0.5768  0.1305  0.2459
 5549TIP3    H116611   4.145   3.249   3.187  2.6153  0.9008 -1.1403
 5549TIP3    H216612   4.120   3.122   3.265 -3.7939  2.3246 -0.6296
 5550TIP3   OH216613   6.529   1.958   5.347  0.0852 -0.3082 -1.0861
 5550TIP3    H116614   6.433   1.961   5.348 -0.0120 -2.4031  0.3862
 5550TIP3    H216615   6.557   2.048   5.367 -1.5523  0.3900 -1.8751
 5551TIP3   OH216616   0.879   5.108   0.372 -0.4491  0.0181 -0.0713
 5551TIP3    H116617   0.865   5.197   0.339 -1.0631 -0.3039 -0.6822
 5551TIP3    H216618   0.918   5.061   0.298 -0.0673 -0.2035  0.2719
 5552TIP3   OH216619   3.513   3.186   3.946 -0.0394  0.1617 -0.0472
 5552TIP3    H116620   3.526   3.241   4.023 -0.0417  1.7566 -1.1636
 5552TIP3    H216621   3.458   3.114   3.977  0.4368  0.4638  1.5655
 5553TIP3   OH216622   4.136   1.665   3.769  0.0154 -0.3461  0.7671
 5553TIP3    H116623   4.059   1.655   3.713 -0.1910 -0.3189  1.0441
 5553TIP3    H216624   4.203   1.699   3.710 -0.1766 -0.3936  0.5166
 5554TIP3   OH216625   4.781   1.661   3.668 -0.1099  0.9065  0.3232
 5554TIP3    H116626   4.836   1.713   3.727 -1.2629  1.4219  0.9756
 5554TIP3    H216627   4.718   1.619   3.726 -1.6456  1.9044 -0.5873
 5555TIP3   OH216628   4.590   0.932   4.940  0.5165  0.3735  0.3972
 5555TIP3    H116629   4.565   0.980   4.861  0.5460 -0.0797  0.1081
 5555TIP3    H216630   4.578   0.840   4.916  3.0660  0.1118  0.0420
 5556TIP3   OH216631   4.117   3.517   3.805  0.2789  0.8029  0.0615
 5556TIP3    H116632   4.143   3.594   3.755  1.3983 -0.1155 -0.7811
 5556TIP3    H216633   4.196   3.491   3.851 -0.5254  1.1413  1.6924
 5557TIP3   OH216634   4.428   4.532   5.948 -0.0116 -0.3642 -0.3816
 5557TIP3    H116635   4.394   4.442   5.947  1.8160 -1.0964  0.4672
 5557TIP3    H216636   4.441   4.552   6.041  2.1322 -0.2346 -0.6940
 5558TIP3   OH216637   4.592   3.262   4.302  0.1169 -0.0711  0.3866
 5558TIP3    H116638   4.502   3.239   4.327 -0.2410  0.8212 -0.0661
 5558TIP3    H216639   4.609   3.211   4.223 -0.6387  1.1441 -0.5614
 5559TIP3   OH216640   6.161   2.214   5.175  0.2246 -0.4560 -0.2779
 5559TIP3    H116641   6.100   2.280   5.209  0.2630  0.7793 -2.5007
 5559TIP3    H216642   6.248   2.253   5.185  0.4821 -1.2657  0.7738
 5560TIP3   OH216643   4.907   3.710   4.280  0.4789  0.1790  0.1718
 5560TIP3    H116644   4.996   3.706   4.244  1.1696 -0.0627  1.8688
 5560TIP3    H216645   4.877   3.799   4.258  0.8971  0.0438 -0.9617
 5561TIP3   OH216646   0.189   3.599   5.312  0.7044 -0.0065 -0.4923
 5561TIP3    H116647   0.156   3.635   5.395 -0.9868  1.0808 -1.6044
 5561TIP3    H216648   0.110   3.570   5.266  1.7024 -1.4043 -1.3773
 5562TIP3   OH216649   3.628   0.934   3.933 -0.1220 -0.1605 -0.6385
 5562TIP3    H116650   3.711   0.954   3.975 -0.2098  0.4322 -0.7408
 5562TIP3    H216651   3.600   0.851   3.972 -1.5037  1.6652  2.4753
 5563TIP3   OH216652   3.097   1.657   4.614  0.3870  0.2427 -0.8630
 5563TIP3    H116653   3.186   1.659   4.649 -0.0627 -0.4467  0.3568
 5563TIP3    H216654   3.053   1.588   4.664 -1.7232  2.6223  0.7622
 5564TIP3   OH216655   4.598   2.922   4.695 -0.2289 -0.1619  0.3774
 5564TIP3    H116656   4.677   2.898   4.646  0.5354 -0.0702  1.5558
 5564TIP3    H216657   4.628   2.987   4.758 -0.8970 -1.4012  1.9935
 5565TIP3   OH216658   4.349   1.946   3.838 -1.1835 -0.1630 -0.0645
 5565TIP3    H116659   4.340   1.907   3.925  0.2355  1.8965  1.0385
 5565TIP3    H216660   4.420   1.896   3.798 -1.2514 -0.5435  0.2825
 5566TIP3   OH216661   4.332   2.494   5.667 -0.0189  0.2391 -0.3022
 5566TIP3    H116662   4.332   2.406   5.630 -0.3673 -0.4205  1.2046
 5566TIP3    H216663   4.424   2.512   5.686  0.2043  0.7319 -1.8016
 5567TIP3   OH216664   5.364   1.477   4.540 -0.2699  0.4857 -0.0675
 5567TIP3    H116665   5.290   1.421   4.514 -0.2517  1.0691 -1.4188
 5567TIP3    H216666   5.325   1.542   4.598 -0.5855  0.0282  0.2357
 5568TIP3   OH216667   5.137   2.341   4.078 -0.2460  0.6015 -0.1715
 5568TIP3    H116668   5.157   2.408   4.144 -1.2609  1.3078 -0.5733
 5568TIP3    H216669   5.042   2.330   4.083  0.0548 -1.9162  0.9401
 5569TIP3   OH216670   2.902   1.828   4.948  0.1157  0.0691  0.4481
 5569TIP3    H116671   2.864   1.808   4.863  0.7190 -0.8075  0.3838
 5569TIP3    H216672   2.977   1.769   4.956  0.5448  0.7059  1.2406
 5570TIP3   OH216673   3.832   2.296   0.580  0.0177  0.4066 -0.0171
 5570TIP3    H116674   3.749   2.335   0.552  0.2303 -0.4242 -1.8985
 5570TIP3    H216675   3.810   2.206   0.604  0.6275 -0.3457 -2.1664
 5571TIP3   OH216676   3.755   1.886   2.800 -0.4328  0.1306  0.5138
 5571TIP3    H116677   3.820   1.872   2.868 -0.3564 -1.4378  0.1551
 5571TIP3    H216678   3.687   1.821   2.818 -0.7564  0.1697 -0.4836
 5572TIP3   OH216679   4.302   3.798   5.765 -0.5170  0.4490  0.3057
 5572TIP3    H116680   4.273   3.801   5.674 -2.8021  1.1529  1.0296
 5572TIP3    H216681   4.290   3.706   5.790  0.8579  0.0883 -0.3196
 5573TIP3   OH216682   5.010   1.898   5.547 -0.6226  0.0665  0.0215
 5573TIP3    H116683   4.941   1.920   5.610 -1.5494 -1.2888 -0.4863
 5573TIP3    H216684   5.024   1.804   5.559 -0.7223 -0.1889 -1.6730
 5574TIP3   OH216685   4.756   3.388   4.863  0.2268  0.1161 -0.4253
 5574TIP3    H116686   4.712   3.470   4.885  0.6477  0.3156 -0.3205
 5574TIP3    H216687   4.707   3.354   4.788 -0.1188  0.3218 -0.2961
 5575TIP3   OH216688   6.086   2.295   3.782 -0.0379 -0.5617  0.3677
 5575TIP3    H116689   6.165   2.346   3.763  0.5443 -0.9317  1.6997
 5575TIP3    H216690   6.029   2.357   3.828  0.3632 -0.8868  1.3168
 5576TIP3   OH216691   4.825   2.413   5.163 -0.4197  0.8188 -0.3172
 5576TIP3    H116692   4.828   2.384   5.254  0.1450  0.7880 -0.3453
 5576TIP3    H216693   4.868   2.342   5.114 -1.4669  0.4398 -0.7072
 5577TIP3   OH216694   3.026   0.414   5.271 -1.0660 -0.3402  0.6167
 5577TIP3    H116695   3.088   0.463   5.324 -0.1475 -0.2300 -0.5440
 5577TIP3    H216696   3.058   0.423   5.182 -2.4191 -0.7813  0.0704
 5578TIP3   OH216697   3.625   1.208   4.674 -0.1871  0.5669  0.4070
 5578TIP3    H116698   3.571   1.246   4.605 -1.1568 -1.2240  0.1430
 5578TIP3    H216699   3.566   1.152   4.724  1.0373 -0.0533  1.2164
 5579TIP3   OH216700   4.951   4.413   5.807  0.4235 -0.1205 -0.3692
 5579TIP3    H116701   5.018   4.348   5.786  1.1502 -0.6259  3.1613
 5579TIP3    H216702   4.912   4.380   5.888 -0.7360  2.6947  0.2372
 5580TIP3   OH216703   4.328   2.680   3.960 -0.0798 -0.2938  0.2071
 5580TIP3    H116704   4.416   2.652   3.986  0.1241 -0.0041 -0.1610
 5580TIP3    H216705   4.274   2.663   4.037  0.5962  0.9391  0.9801
 5581TIP3   OH216706   5.129   3.447   4.639  0.3756  0.2763 -0.6610
 5581TIP3    H116707   5.056   3.460   4.578  1.2986  1.0605 -1.6071
 5581TIP3    H216708   5.193   3.397   4.590  1.4088  1.4772 -0.5641
 5582TIP3   OH216709   2.029   2.425   4.777  0.4612  0.4984 -0.3068
 5582TIP3    H116710   2.120   2.448   4.761  0.4324  0.2269 -0.8891
 5582TIP3    H216711   2.026   2.330   4.771 -0.1943  0.6098 -2.1925
 5583TIP3   OH216712   4.796   3.409   5.331 -0.4378 -0.0058 -0.1019
 5583TIP3    H116713   4.786   3.470   5.405 -4.4287 -0.6850  0.0321
 5583TIP3    H216714   4.799   3.323   5.372  0.4252 -0.2201 -0.5964
 5584TIP3   OH216715   1.923   2.323   3.232 -0.1538  0.0221  0.2198
 5584TIP3    H116716   1.878   2.401   3.199  0.6594  0.3457 -0.1499
 5584TIP3    H216717   1.857   2.276   3.281 -0.5932  1.0789  0.6666
 5585TIP3   OH216718   0.922   6.835   0.427 -0.7493  0.2530  0.1605
 5585TIP3    H116719   0.931   6.870   0.338  0.4378 -1.4472 -0.3961
 5585TIP3    H216720   1.002   6.863   0.471 -1.3193  1.0590  0.7110
 5586TIP3   OH216721   4.084   4.888   5.003 -0.1924 -0.8705 -0.3060
 5586TIP3    H116722   4.066   4.980   4.981 -1.4293 -0.3799  2.5200
 5586TIP3    H216723   4.176   4.876   4.982 -0.1024  0.9221 -1.0427
 5587TIP3   OH216724   6.654   1.639   3.264  0.4222  0.0242 -0.4237
 5587TIP3    H116725   6.723   1.593   3.215  1.1008  0.1345  0.4051
 5587TIP3    H216726   6.622   1.574   3.326 -1.9400 -0.7837 -2.4359
 5588TIP3   OH216727   6.946   3.531   4.225  0.2769  0.0991 -0.0229
 5588TIP3    H116728   6.901   3.476   4.289 -0.5975  0.9506  0.1075
 5588TIP3    H216729   6.932   3.486   4.141 -0.1954 -0.0178  0.1191
 5589TIP3   OH216730   2.274   6.163   0.434  0.0079  0.1238  0.1224
 5589TIP3    H116731   2.317   6.199   0.356  1.0479 -1.8732 -0.2612
 5589TIP3    H216732   2.341   6.107   0.474 -1.1016 -0.2547  1.4627
 5590TIP3   OH216733   6.481   3.160   4.856  0.5548  0.4750 -0.1420
 5590TIP3    H116734   6.495   3.218   4.782 -2.2382  3.3241  1.4401
 5590TIP3    H216735   6.399   3.114   4.835  0.3292  0.4928  0.6890
 5591TIP3   OH216736   4.958   3.058   5.592  0.3222  0.7272 -0.0855
 5591TIP3    H116737   4.940   2.967   5.613  0.4670  0.1711 -2.2779
 5591TIP3    H216738   4.985   3.097   5.676  2.6664 -1.8171  0.4240
 5592TIP3   OH216739   4.896   2.506   3.869  0.1419  0.2546  0.2301
 5592TIP3    H116740   4.895   2.583   3.926 -1.4609 -0.5238  1.2932
 5592TIP3    H216741   4.888   2.432   3.929  0.1900 -0.6775 -0.8937
 5593TIP3   OH216742   6.189   2.989   5.428  0.1690 -0.1786  0.2027
 5593TIP3    H116743   6.186   2.902   5.389 -0.9952  0.2441 -0.6874
 5593TIP3    H216744   6.118   2.988   5.493 -1.1202  0.7062 -1.1491
 5594TIP3   OH216745   5.318   5.252   4.116 -0.2548 -0.0483 -0.1594
 5594TIP3    H116746   5.374   5.180   4.147  0.9127  0.9697  0.1203
 5594TIP3    H216747   5.241   5.248   4.174  0.0811 -0.6890  0.2549
 5595TIP3   OH216748   6.225   2.698   4.596 -0.2181  0.2711  0.4398
 5595TIP3    H116749   6.313   2.699   4.558 -0.6638  1.5144 -0.6252
 5595TIP3    H216750   6.217   2.612   4.637  1.6393  0.2903  0.8987
 5596TIP3   OH216751   4.771   2.657   4.346  0.2330  0.3132 -0.2053
 5596TIP3    H116752   4.706   2.605   4.393  0.2730  0.5750  0.1376
 5596TIP3    H216753   4.801   2.722   4.409  0.4629  0.5126 -0.5161
 5597TIP3   OH216754   1.129   6.295   0.038  0.2087 -0.0653 -0.1209
 5597TIP3    H116755   1.171   6.223   0.086  0.6662  0.3932  0.1689
 5597TIP3    H216756   1.040   6.263   0.021  1.1992 -1.8225 -2.3788
 5598TIP3   OH216757   5.160   2.072   4.380 -0.2691 -0.3341  0.1343
 5598TIP3    H116758   5.137   2.158   4.414 -1.0430 -0.1191 -0.8938
 5598TIP3    H216759   5.233   2.089   4.319 -0.1858 -0.4518  0.1999
 5599TIP3   OH216760   5.206   3.847   3.906  0.0653 -0.1589  0.0374
 5599TIP3    H116761   5.239   3.842   3.996 -0.6076  1.2310  0.3841
 5599TIP3    H216762   5.275   3.893   3.858  0.1513 -0.3435 -0.0156
 5600TIP3   OH216763   5.398   2.137   2.954 -0.6228 -0.3287  0.3985
 5600TIP3    H116764   5.381   2.116   3.046 -0.6531 -0.9922  0.2457
 5600TIP3    H216765   5.318   2.110   2.909 -1.2733  1.5135  0.3904
 5601TIP3   OH216766   4.505   1.560   5.547  0.0273  0.0859 -0.1600
 5601TIP3    H116767   4.509   1.530   5.456  1.4916 -0.6368  0.1268
 5601TIP3    H216768   4.434   1.510   5.586  1.2968 -1.7546 -0.1544
 5602TIP3   OH216769   4.105   1.923   5.741  0.2262 -0.0416  0.1136
 5602TIP3    H116770   4.133   1.832   5.732  1.6697  0.5191 -1.3217
 5602TIP3    H216771   4.066   1.927   5.828 -0.6568 -2.2370 -0.1260
 5603TIP3   OH216772   0.195   5.575   0.768  0.0490  0.1717 -0.3796
 5603TIP3    H116773   0.264   5.637   0.746  0.8349 -0.4061  0.4032
 5603TIP3    H216774   0.190   5.516   0.692 -0.8235  1.2893 -1.1979
 5604TIP3   OH216775   3.040   1.531   4.254 -0.7007  0.4986  0.3644
 5604TIP3    H116776   3.018   1.467   4.321  0.8385 -0.1677  0.2357
 5604TIP3    H216777   3.065   1.479   4.178  1.8332  1.2378  0.6718
 5605TIP3   OH216778   4.562   2.690   5.852  0.0511 -0.0397 -0.0541
 5605TIP3    H116779   4.565   2.604   5.810 -1.8712 -0.0970 -0.1251
 5605TIP3    H216780   4.517   2.674   5.935 -1.2670  1.0671 -0.5337
 5606TIP3   OH216781   6.230   4.083   0.262 -0.5025  0.4469  0.1458
 5606TIP3    H116782   6.245   4.101   0.169 -0.1136  0.3869  0.1935
 5606TIP3    H216783   6.142   4.046   0.266  0.1405 -1.1789 -0.4127
 5607TIP3   OH216784   3.622   2.983   4.726  0.2345 -0.8407  0.6872
 5607TIP3    H116785   3.582   2.915   4.671  0.0963  0.2738 -0.6310
 5607TIP3    H216786   3.686   3.025   4.669  0.0079  0.4174  1.3402
 5608TIP3   OH216787   0.255   6.524   0.600 -0.3874 -0.1227 -0.2584
 5608TIP3    H116788   0.287   6.614   0.594  0.7017 -0.5227 -0.4283
 5608TIP3    H216789   0.327   6.475   0.638 -0.4390 -1.2180 -1.5397
 5609TIP3   OH216790   4.326   2.373   4.970 -0.4089 -0.2414  0.2315
 5609TIP3    H116791   4.303   2.382   5.063 -1.8872 -0.0436 -0.1450
 5609TIP3    H216792   4.251   2.329   4.931 -0.3376  0.7984 -1.1124
 5610TIP3   OH216793   4.393   2.012   3.050  0.6394  0.0152  0.4731
 5610TIP3    H116794   4.319   1.985   2.996 -0.6422  0.3834  2.0186
 5610TIP3    H216795   4.433   2.085   3.002 -0.5545  0.4182  0.0841
 5611TIP3   OH216796   6.265   5.394   5.462  0.5963 -0.0927 -0.0542
 5611TIP3    H116797   6.259   5.338   5.539 -0.1144 -0.3185 -0.2736
 5611TIP3    H216798   6.332   5.458   5.485 -0.2270  0.3786  1.1018
 5612TIP3   OH216799   3.481   1.709   3.741  0.6624 -0.1031 -0.2744
 5612TIP3    H116800   3.404   1.759   3.770  1.3139  0.7368  0.0395
 5612TIP3    H216801   3.508   1.660   3.818 -1.2695 -2.6627 -1.1650
 5613TIP3   OH216802   4.701   4.292   4.638  0.0277  0.3959  0.1992
 5613TIP3    H116803   4.656   4.377   4.631 -0.0430  0.3865  0.4948
 5613TIP3    H216804   4.691   4.252   4.552 -1.2036  0.0643  0.4827
 5614TIP3   OH216805   6.832   1.264   1.792  0.5478  0.2989  0.0652
 5614TIP3    H116806   6.789   1.307   1.718  0.3309  1.1636  0.6952
 5614TIP3    H216807   6.909   1.317   1.810 -0.1516  0.9032  1.3568
 5615TIP3   OH216808   4.847   3.918   4.480 -0.0131  0.3811  0.1082
 5615TIP3    H116809   4.940   3.914   4.504  0.0751  0.7774 -0.1787
 5615TIP3    H216810   4.843   3.980   4.407 -0.6757  1.3646  0.9627
 5616TIP3   OH216811   3.881   2.521   5.581 -0.5011 -0.1188 -0.0416
 5616TIP3    H116812   3.966   2.564   5.594 -0.8758  1.0586 -1.4203
 5616TIP3    H216813   3.833   2.537   5.662  0.8412 -1.4355  1.0609
 5617TIP3   OH216814   4.929   3.104   5.913  0.3262  0.2139 -0.6098
 5617TIP3    H116815   5.002   3.042   5.906 -0.0355 -0.4749  1.3789
 5617TIP3    H216816   4.852   3.049   5.924  0.2843  0.9724  3.6790
 5618TIP3   OH216817   5.839   3.309   5.683 -0.3338  0.5033  0.5548
 5618TIP3    H116818   5.760   3.327   5.632  1.2818  1.2090 -1.7753
 5618TIP3    H216819   5.859   3.392   5.726 -0.1978  0.6675  0.1803
 5619TIP3   OH216820   5.136   2.634   4.305  0.3015 -0.8396  0.2683
 5619TIP3    H116821   5.097   2.646   4.219 -0.6351 -0.1014  0.7917
 5619TIP3    H216822   5.120   2.716   4.351  3.0183 -0.2988  0.2896
 5620TIP3   OH216823   1.944   0.079   0.992  0.2190 -0.3222 -0.1617
 5620TIP3    H116824   1.969   0.087   1.084  1.8813 -0.1691 -0.6086
 5620TIP3    H216825   1.966  -0.012   0.970  0.0878 -0.2741 -0.4854
 5621TIP3   OH216826   3.642   2.579   3.234  0.5122 -0.5572  0.3065
 5621TIP3    H116827   3.695   2.554   3.158  0.3296 -2.4668  0.7595
 5621TIP3    H216828   3.621   2.495   3.276 -2.7994  0.1444  0.1892
 5622TIP3   OH216829   4.349   1.347   2.287  0.1967  0.3769  0.2413
 5622TIP3    H116830   4.403   1.418   2.253  2.4350 -1.6579 -0.6409
 5622TIP3    H216831   4.412   1.285   2.325 -1.7819 -0.5516  2.1545
 5623TIP3   OH216832   4.676   5.342   3.958  0.1835 -0.2135 -0.1123
 5623TIP3    H116833   4.630   5.290   3.892  0.0642  0.0106 -0.2067
 5623TIP3    H216834   4.704   5.420   3.910  0.8706 -0.4577 -0.1193
 5624TIP3   OH216835   3.574   3.127   2.939 -0.1754  0.2204 -0.3285
 5624TIP3    H116836   3.650   3.144   2.994 -0.7778 -1.3730  1.0457
 5624TIP3    H216837   3.541   3.214   2.916  0.8560  0.9175  0.7405
 5625TIP3   OH216838   2.782   5.319   5.435  0.2700  0.1483 -0.0360
 5625TIP3    H116839   2.709   5.283   5.385  0.0190  1.0985 -0.3735
 5625TIP3    H216840   2.764   5.413   5.438  2.1527  0.5855 -1.2671
 5626TIP3   OH216841   6.055   1.455   4.156  0.1950  0.3480  0.4231
 5626TIP3    H116842   5.981   1.453   4.217  0.5338 -0.4904  0.8083
 5626TIP3    H216843   6.119   1.394   4.193  0.2695 -0.4070 -0.9278
 5627TIP3   OH216844   4.613   1.016   5.979  0.5411  0.2616  0.0043
 5627TIP3    H116845   4.664   1.068   5.918 -0.0769  0.7584 -0.0940
 5627TIP3    H216846   4.537   0.987   5.929  1.6292 -2.0350 -0.4042
 5628TIP3   OH216847   2.888   1.729   4.123 -0.9742 -0.0751  0.5017
 5628TIP3    H116848   2.957   1.679   4.167 -0.5567  0.4581  0.4564
 5628TIP3    H216849   2.867   1.677   4.045  0.6350  0.6330 -0.4418
 5629TIP3   OH216850   4.536   2.093   4.062 -0.1538  0.0353 -1.1607
 5629TIP3    H116851   4.524   2.156   3.991 -0.3269 -0.9997 -2.0631
 5629TIP3    H216852   4.582   2.142   4.130 -0.4429  1.1826 -1.7780
 5630TIP3   OH216853   6.888   2.842   4.958  0.0510 -0.1898  0.0360
 5630TIP3    H116854   6.937   2.923   4.944 -1.2486  0.7111  0.6433
 5630TIP3    H216855   6.797   2.870   4.965 -0.6588 -1.9367 -1.9126
 5631TIP3   OH216856   5.045   1.326   5.167  0.2385  0.2429 -0.6400
 5631TIP3    H116857   4.956   1.342   5.134  0.0614  0.0980 -0.2460
 5631TIP3    H216858   5.083   1.265   5.104  0.0841  0.3637 -0.8529
 5632TIP3   OH216859   6.553   0.099   5.099  0.6645 -1.0350  0.0523
 5632TIP3    H116860   6.505   0.155   5.037  2.2847 -1.1541 -1.3285
 5632TIP3    H216861   6.496   0.022   5.110 -0.1661 -0.4987 -0.4010
 5633TIP3   OH216862   4.052   4.273   2.978  0.6776 -0.3944 -0.0087
 5633TIP3    H116863   4.138   4.314   2.987  0.6064  0.0534 -1.2740
 5633TIP3    H216864   4.024   4.296   2.890 -0.3919 -1.2191  0.1107
 5634TIP3   OH216865   4.867   3.385   3.511 -0.2016 -0.6053 -0.3892
 5634TIP3    H116866   4.887   3.327   3.584 -1.5633 -1.3995 -0.6315
 5634TIP3    H216867   4.775   3.409   3.523 -0.2232 -0.1170 -1.4154
 5635TIP3   OH216868   6.362   4.163   1.228 -0.0809 -0.2081  0.5223
 5635TIP3    H116869   6.332   4.173   1.318 -0.2899  2.4826  0.1750
 5635TIP3    H216870   6.446   4.118   1.235 -0.2901 -0.3690  2.0258
 5636TIP3   OH216871   4.051   3.107   2.916 -0.5898  0.2772  0.7425
 5636TIP3    H116872   4.080   3.155   2.994 -1.9658 -1.2374  2.2088
 5636TIP3    H216873   3.997   3.170   2.868  1.4775  1.7098  0.2067
 5637TIP3   OH216874   2.703   1.791   4.748  0.4834 -0.3805  0.5300
 5637TIP3    H116875   2.653   1.721   4.790 -0.1732 -0.7908 -0.8985
 5637TIP3    H216876   2.638   1.861   4.735  1.2025  0.6321  2.2252
 5638TIP3   OH216877   1.949   6.085   5.950 -0.6704 -0.4995  0.0949
 5638TIP3    H116878   2.029   6.035   5.970 -1.5018 -1.5967  0.7125
 5638TIP3    H216879   1.938   6.075   5.855  0.7801  0.9671 -0.2649
 5639TIP3   OH216880   3.023   2.784   3.945 -0.3170 -0.4203  0.0903
 5639TIP3    H116881   2.988   2.871   3.967 -0.0413 -0.3737  0.3470
 5639TIP3    H216882   3.113   2.801   3.918 -0.4187 -0.5688 -0.3389
 5640TIP3   OH216883   6.756   2.577   5.568 -0.3943 -0.4681  0.6598
 5640TIP3    H116884   6.787   2.661   5.602 -0.2960  0.5899 -1.9304
 5640TIP3    H216885   6.707   2.538   5.641 -1.7497  2.5223  1.4386
 5641TIP3   OH216886   7.117   4.184   4.143 -0.4364  0.5696  0.0309
 5641TIP3    H116887   7.080   4.271   4.128 -0.0384  0.8738  0.7814
 5641TIP3    H216888   7.198   4.200   4.192 -1.0893 -0.3185  1.4386
 5642TIP3   OH216889   6.804   3.390   4.641 -0.1122  0.1488  0.1414
 5642TIP3    H116890   6.796   3.477   4.680 -0.4771  0.2181 -0.0944
 5642TIP3    H216891   6.751   3.394   4.562  1.2829  0.2699 -0.8057
 5643TIP3   OH216892   6.956   5.399   2.724  0.2249  0.2595 -0.4546
 5643TIP3    H116893   6.980   5.316   2.682 -0.2026  0.0428 -0.2747
 5643TIP3    H216894   6.880   5.430   2.674  0.9523  1.0079 -1.1067
 5644TIP3   OH216895   2.304   6.278   0.179  0.3783 -0.0099  0.0758
 5644TIP3    H116896   2.237   6.289   0.111 -0.0557  1.8944  0.7849
 5644TIP3    H216897   2.314   6.364   0.218  2.0076 -0.6555  1.1723
 5645TIP3   OH216898   0.024   4.117   3.162  0.4605  0.3437 -0.4577
 5645TIP3    H116899   0.072   4.068   3.095  2.3035  0.7641  0.5109
 5645TIP3    H216900   0.007   4.202   3.122  2.5716  1.0073 -0.0452
 5646TIP3   OH216901   0.567   6.090   0.206  0.3541 -0.1752 -0.0322
 5646TIP3    H116902   0.587   6.004   0.243 -0.4178 -0.0621  0.6653
 5646TIP3    H216903   0.561   6.148   0.282 -1.8252 -0.0523 -0.2629
 5647TIP3   OH216904   6.225   5.090   2.709  0.2973  0.1075  0.4876
 5647TIP3    H116905   6.134   5.078   2.684  0.1214  0.8362  0.7419
 5647TIP3    H216906   6.269   5.115   2.628  0.6590 -2.1471 -0.0293
 5648TIP3   OH216907   6.484   1.539   3.474  0.1863 -0.1873 -0.1925
 5648TIP3    H116908   6.430   1.609   3.510 -1.0530 -1.6814  0.9803
 5648TIP3    H216909   6.558   1.532   3.535 -0.8694 -1.3658  1.0150
 5649TIP3   OH216910   1.787   2.744   5.629 -0.1230 -0.7999  0.3495
 5649TIP3    H116911   1.758   2.821   5.677 -1.1033 -1.5579  0.9877
 5649TIP3    H216912   1.865   2.773   5.581  0.7351  0.0267  2.2025
 5650TIP3   OH216913   4.723   3.207   3.807 -0.0377 -0.4008 -0.4952
 5650TIP3    H116914   4.637   3.221   3.768 -0.0396 -1.4843 -0.9129
 5650TIP3    H216915   4.757   3.130   3.762  0.3684 -1.1033  0.9708
 5651TIP3   OH216916   0.071   2.506   2.744  0.3217 -0.4252 -0.1827
 5651TIP3    H116917   0.122   2.432   2.712  0.5527 -0.1049 -0.5670
 5651TIP3    H216918  -0.013   2.499   2.699  0.5181 -0.1790 -0.5896
 5652TIP3   OH216919   6.863   2.244   4.346 -0.6057 -0.2013 -0.5089
 5652TIP3    H116920   6.932   2.209   4.402 -0.7776 -1.0212 -0.8091
 5652TIP3    H216921   6.806   2.292   4.406 -0.0722  0.0342 -0.1798
 5653TIP3   OH216922   6.211   4.592   3.065  0.9462  0.0704  0.2102
 5653TIP3    H116923   6.204   4.509   3.018  0.9176  0.9992 -1.4916
 5653TIP3    H216924   6.282   4.579   3.128  0.3473 -1.5143  0.5775
 5654TIP3   OH216925   1.233   2.956   5.404 -0.1894 -0.0272 -0.6188
 5654TIP3    H116926   1.271   2.873   5.431 -0.8370  0.0935  0.7415
 5654TIP3    H216927   1.174   2.934   5.332 -2.3908 -1.1626  1.4609
 5655TIP3   OH216928   4.503   2.442   4.798 -0.2279  0.4401 -0.1008
 5655TIP3    H116929   4.518   2.536   4.809  0.5460  0.5787 -2.1647
 5655TIP3    H216930   4.436   2.421   4.864 -0.3636  2.4090  0.4368
 5656TIP3   OH216931   6.014   2.833   4.015 -1.0715 -0.0619  0.5590
 5656TIP3    H116932   6.059   2.749   4.007  0.4144  0.7815 -0.2076
 5656TIP3    H216933   5.922   2.810   4.025 -0.7565 -1.7725 -0.2816
 5657TIP3   OH216934   0.521   3.635   2.689 -0.1208 -0.3714  0.7155
 5657TIP3    H116935   0.557   3.600   2.771 -1.1756 -1.4356  0.7373
 5657TIP3    H216936   0.493   3.724   2.712 -0.5817 -0.7291  1.5605
 5658TIP3   OH216937   4.819   1.126   5.023  0.1280  0.1339  0.4370
 5658TIP3    H116938   4.764   1.050   5.043  1.4773 -1.0706 -0.3116
 5658TIP3    H216939   4.787   1.195   5.082 -0.1730 -1.4219  2.1487
 5659TIP3   OH216940   5.765   1.152   4.196  0.2806  0.0654  0.3634
 5659TIP3    H116941   5.686   1.190   4.157  0.1349  1.4689  1.9684
 5659TIP3    H216942   5.778   1.070   4.148  0.0609  1.6538 -2.5147
 5660TIP3   OH216943   6.609   1.116   4.545 -0.2254  0.3032  0.0242
 5660TIP3    H116944   6.657   1.058   4.486 -0.9520  0.3659 -0.6482
 5660TIP3    H216945   6.676   1.157   4.599  0.5994  1.1879 -1.6081
 5661TIP3   OH216946   5.922   5.541   5.973 -0.0576  0.3509  0.1595
 5661TIP3    H116947   5.988   5.498   5.918 -0.3250  2.2710 -1.7468
 5661TIP3    H216948   5.840   5.529   5.924 -0.5921  0.6590  0.9738
 5662TIP3   OH216949   4.605   2.215   5.120 -0.2018  0.0246 -0.3498
 5662TIP3    H116950   4.540   2.274   5.157 -1.7668 -1.4046 -0.7168
 5662TIP3    H216951   4.672   2.208   5.187 -1.8842 -0.7484  1.3092
 5663TIP3   OH216952   6.526   3.874   3.114  0.8941  0.0487  0.0109
 5663TIP3    H116953   6.567   3.792   3.084 -1.1938 -0.5883 -1.1786
 5663TIP3    H216954   6.489   3.913   3.035  0.2454  1.2168  0.8743
 5664TIP3   OH216955   6.967   1.097   4.109  0.1414 -0.5462  0.0688
 5664TIP3    H116956   6.896   1.135   4.161  1.3730  0.7283  0.8572
 5664TIP3    H216957   6.925   1.068   4.028 -0.8747  2.4526 -0.5406
 5665TIP3   OH216958   5.891   3.493   4.895  0.2638 -0.3906 -0.0191
 5665TIP3    H116959   5.902   3.435   4.970 -1.9827 -0.5061  0.2599
 5665TIP3    H216960   5.929   3.576   4.924  2.3977 -1.3441  0.0157
 5666TIP3   OH216961   5.591   2.333   4.238  0.1373 -0.0347  0.4348
 5666TIP3    H116962   5.665   2.373   4.193 -0.3447 -1.0321 -1.2655
 5666TIP3    H216963   5.619   2.329   4.330  2.7704 -1.6783 -0.3773
 5667TIP3   OH216964   6.464   1.533   4.366 -0.0179  0.6625 -0.3333
 5667TIP3    H116965   6.524   1.485   4.424  0.7455  2.2122  0.2176
 5667TIP3    H216966   6.466   1.485   4.284 -0.0462 -0.7955  0.5018
 5668TIP3   OH216967   6.562   4.502   4.972  0.1150  0.5429 -0.1744
 5668TIP3    H116968   6.511   4.583   4.977 -0.0617  0.4055  0.2031
 5668TIP3    H216969   6.597   4.502   4.883 -1.7494 -0.0965 -0.9268
 5669TIP3   OH216970   6.627   1.855   4.199  0.0541 -0.0999  0.3990
 5669TIP3    H116971   6.691   1.851   4.128 -0.6831  0.8875 -0.3443
 5669TIP3    H216972   6.563   1.787   4.178  0.4786 -0.6198  0.7715
 5670TIP3   OH216973   4.965   3.910   5.219  0.2025 -0.5474 -0.2102
 5670TIP3    H116974   4.882   3.898   5.263  0.2520 -0.8974 -0.2104
 5670TIP3    H216975   4.948   3.975   5.151 -0.1102 -0.7442 -0.3198
 5671TIP3   OH216976   6.889   2.666   5.201  0.4711 -0.7955 -0.1593
 5671TIP3    H116977   6.919   2.732   5.138  0.6516  0.4040  1.1496
 5671TIP3    H216978   6.805   2.636   5.166  0.0341  0.6571 -0.4129
 5672TIP3   OH216979   7.419   3.687   5.530  0.8890 -0.1600 -0.0966
 5672TIP3    H116980   7.394   3.776   5.553 -1.6706 -1.0903  0.8460
 5672TIP3    H216981   7.347   3.654   5.477  2.2458 -1.3723 -1.2357
 5673TIP3   OH216982   6.454   4.656   6.047 -0.5782  0.0318  0.2792
 5673TIP3    H116983   6.400   4.578   6.034  0.2373 -0.4129 -0.5255
 5673TIP3    H216984   6.397   4.729   6.021 -0.6506 -0.4656 -1.0226
 5674TIP3   OH216985   6.151   1.534   3.099  0.1924  0.4782 -0.3236
 5674TIP3    H116986   6.146   1.626   3.124  0.2803  0.5486 -0.5623
 5674TIP3    H216987   6.144   1.534   3.004 -1.4362  0.1044 -0.2123
 5675TIP3   OH216988   6.367   2.647   4.199  0.1602  0.1963  0.3351
 5675TIP3    H116989   6.397   2.556   4.205 -0.9286 -0.2469 -0.8676
 5675TIP3    H216990   6.446   2.697   4.181  0.8074 -0.4679  1.2608
 5676TIP3   OH216991   5.054   0.956   0.683 -0.1461 -0.1933 -0.0441
 5676TIP3    H116992   5.030   0.953   0.776  3.4133  1.5591  1.0021
 5676TIP3    H216993   5.035   1.047   0.657  0.9131 -0.0860 -0.4393
 5677TIP3   OH216994   5.181   5.596   4.378  0.1889 -0.1775  0.3469
 5677TIP3    H116995   5.103   5.625   4.424 -0.2721 -0.8381 -0.0115
 5677TIP3    H216996   5.187   5.503   4.397  1.2513 -0.0040  0.8900
 5678TIP3   OH216997   7.261   2.868   3.976 -0.2927  0.1018  0.3533
 5678TIP3    H116998   7.251   2.788   3.924  0.2432 -1.0522  1.9834
 5678TIP3    H216999   7.195   2.860   4.045 -1.0056  1.6198 -0.1266
 5679TIP3   OH217000   0.183   4.071   4.343  0.4313 -0.0533 -0.3796
 5679TIP3    H117001   0.199   4.099   4.434 -0.2848  0.1321 -0.3103
 5679TIP3    H217002   0.201   3.977   4.344  2.1667  0.2551 -0.4527
 5680TIP3   OH217003   0.916   5.224   1.007  0.5821 -0.4774  0.3431
 5680TIP3    H117004   0.975   5.208   1.081  0.7048 -0.3309  0.2770
 5680TIP3    H217005   0.962   5.289   0.954 -0.0079  0.2756  0.7325
 5681TIP3   OH217006   5.777   4.547   4.973  0.1704  0.0090 -0.8131
 5681TIP3    H117007   5.731   4.597   5.041 -0.0639  0.6320 -1.4287
 5681TIP3    H217008   5.731   4.463   4.969  0.2371 -0.0633 -0.1469
 5682TIP3   OH217009   6.348   2.166   4.014  0.2181 -0.3921  0.4411
 5682TIP3    H117010   6.310   2.137   4.097 -2.4390  0.5039 -0.3999
 5682TIP3    H217011   6.325   2.259   4.009  1.2882 -0.1864 -0.7985
 5683TIP3   OH217012   7.076   2.176   2.461 -0.0983  0.5870  0.4179
 5683TIP3    H117013   7.105   2.136   2.542 -0.5883  0.0342  0.3247
 5683TIP3    H217014   7.062   2.268   2.483  1.9486  0.9243  0.4016
 5684TIP3   OH217015   0.070   1.252   3.400  0.2377  0.2061 -0.1960
 5684TIP3    H117016   0.098   1.163   3.424 -0.5503 -0.2027 -0.7493
 5684TIP3    H217017   0.139   1.309   3.433 -0.3764 -0.4195  2.2997
 5685TIP3   OH217018   6.237   5.686   4.963 -0.4555  0.3873 -0.0241
 5685TIP3    H117019   6.303   5.753   4.941  1.1488 -0.7541  1.2314
 5685TIP3    H217020   6.221   5.640   4.881  0.9278  0.1459 -0.1615
 5686TIP3   OH217021   5.580   6.512   4.130 -0.6734  0.4736 -0.0403
 5686TIP3    H117022   5.537   6.540   4.211 -1.8225 -1.0543 -0.1085
 5686TIP3    H217023   5.586   6.592   4.078 -0.3973  1.3647  1.3354
 5687TIP3   OH217024   6.400   5.077   5.752  0.9331 -0.0199 -0.0167
 5687TIP3    H117025   6.336   5.047   5.817  0.7120  1.2249  0.3514
 5687TIP3    H217026   6.473   5.017   5.761  1.1581  0.4886  1.8105
 5688TIP3   OH217027   2.096   6.386   0.821 -0.8030 -0.2691  0.5406
 5688TIP3    H117028   2.123   6.347   0.905  1.0109 -0.1147  0.0465
 5688TIP3    H217029   2.173   6.435   0.792 -1.7991  0.5841 -0.6891
 5689TIP3   OH217030   5.544   5.379   4.337 -0.0491  0.1646  0.0583
 5689TIP3    H117031   5.482   5.351   4.404  2.4529 -1.4979  1.7975
 5689TIP3    H217032   5.498   5.367   4.254 -1.8528 -1.5804  1.2689
 5690TIP3   OH217033   5.554   3.294   3.232 -0.4599 -0.2193 -0.2633
 5690TIP3    H117034   5.522   3.206   3.248 -3.5194  0.7999 -0.5363
 5690TIP3    H217035   5.561   3.334   3.318  0.3894 -0.5275 -0.1829
 5691TIP3   OH217036   4.400   2.773   5.475  0.5640 -0.2236  0.4128
 5691TIP3    H117037   4.436   2.687   5.452  0.1968 -0.6101  1.2749
 5691TIP3    H217038   4.368   2.809   5.393  0.4089 -1.0549  0.1135
 5692TIP3   OH217039   5.484   5.170   2.647 -1.0448  0.1593  0.4081
 5692TIP3    H117040   5.542   5.162   2.722 -1.0304 -0.6860  0.3060
 5692TIP3    H217041   5.489   5.085   2.603 -2.2818  0.1141  0.3431
 5693TIP3   OH217042   7.258   2.463   2.567  0.6084 -0.0960 -0.3068
 5693TIP3    H117043   7.166   2.440   2.556  0.5385 -0.3568  0.7399
 5693TIP3    H217044   7.264   2.553   2.536  0.4451 -0.7680 -2.3760
 5694TIP3   OH217045   7.042   2.136   3.086 -0.5314 -0.1755 -0.0601
 5694TIP3    H117046   7.127   2.148   3.129 -0.0693 -1.5846 -0.5445
 5694TIP3    H217047   7.038   2.204   3.019  1.4511 -1.8193 -1.9144
 5695TIP3   OH217048   5.788   3.629   5.438  0.0462 -0.0694  0.5143
 5695TIP3    H117049   5.751   3.697   5.383 -1.2293  0.3590  1.8770
 5695TIP3    H217050   5.812   3.674   5.520  0.6926 -0.9349  0.8098
 5696TIP3   OH217051   7.194   3.636   4.202  0.7951  0.0953 -0.0503
 5696TIP3    H117052   7.104   3.626   4.234  0.8343 -0.1959 -0.0272
 5696TIP3    H217053   7.186   3.636   4.107  0.8926 -1.1658 -0.0690
 5697TIP3   OH217054   6.370   4.829   3.967 -0.6017  0.0032  0.3171
 5697TIP3    H117055   6.360   4.922   3.983  1.0402  0.1849  0.3432
 5697TIP3    H217056   6.444   4.822   3.907 -0.5064 -1.2981  0.5547
 5698TIP3   OH217057   4.892   0.920   0.194  0.5906 -0.0571  0.0918
 5698TIP3    H117058   4.953   0.965   0.253  0.3233  0.8610 -0.3334
 5698TIP3    H217059   4.819   0.981   0.183 -0.4603 -1.1948  0.6667
 5699TIP3   OH217060   6.855   1.179   2.690  0.3764  0.1373  0.1262
 5699TIP3    H117061   6.920   1.125   2.644 -1.0669 -1.3380 -0.2472
 5699TIP3    H217062   6.786   1.194   2.625  0.3169  1.6656  0.5201
 5700TIP3   OH217063   0.522   5.585   1.285  0.0647  0.1130 -0.0131
 5700TIP3    H117064   0.537   5.491   1.271 -1.8852 -0.1216 -0.7375
 5700TIP3    H217065   0.469   5.589   1.365 -0.4730  0.5508 -0.3917
 5701TIP3   OH217066   6.007   2.884   2.953  0.1057 -0.2038  0.2572
 5701TIP3    H117067   5.938   2.918   2.896 -0.9545 -3.7022 -0.6982
 5701TIP3    H217068   5.959   2.837   3.022  1.4026  3.1638  3.5804
 5702TIP3   OH217069   5.141   2.810   4.035 -0.2191  0.1942  0.4116
 5702TIP3    H117070   5.068   2.750   4.026 -0.5733  0.1157  3.2282
 5702TIP3    H217071   5.100   2.896   4.046  0.1682  0.3848  0.3833
 5703TIP3   OH217072   6.216   2.657   3.978  0.2282 -0.3114 -0.1374
 5703TIP3    H117073   6.270   2.650   3.899 -0.5225 -0.1296 -0.6745
 5703TIP3    H217074   6.279   2.667   4.049  0.9511 -1.4809 -0.5951
 5704TIP3   OH217075   5.049   6.132   3.647 -0.1291  0.1234  0.3755
 5704TIP3    H117076   5.144   6.126   3.642  0.0836  3.5250 -1.3148
 5704TIP3    H217077   5.017   6.047   3.617  2.3393 -0.2801 -1.1702
 5705TIP3   OH217078   3.510   0.736   0.376 -0.1239 -0.5828 -0.0921
 5705TIP3    H117079   3.543   0.710   0.462 -1.1910 -3.6753 -0.5505
 5705TIP3    H217080   3.455   0.812   0.394  1.2665  0.0384  1.6679
 5706TIP3   OH217081   0.825   3.682   2.928  0.3312 -1.2335  0.7065
 5706TIP3    H117082   0.768   3.691   3.004 -0.3503 -1.3010  0.2088
 5706TIP3    H217083   0.801   3.597   2.890  0.8494 -1.3199  0.5657
 5707TIP3   OH217084   6.015   1.407   5.470  0.0024 -0.0949 -0.0575
 5707TIP3    H117085   6.044   1.439   5.556  2.9060 -1.6526 -0.3857
 5707TIP3    H217086   6.076   1.448   5.408 -1.9482  0.8530 -1.3864
 5708TIP3   OH217087   5.683   0.841   2.564  0.0352  0.2296 -0.7334
 5708TIP3    H117088   5.625   0.903   2.519 -0.3642  0.4955  0.1403
 5708TIP3    H217089   5.630   0.762   2.573 -0.5662  0.7919  0.9509
 5709TIP3   OH217090   6.654   2.979   4.974  0.2256 -0.4347  0.1544
 5709TIP3    H117091   6.638   3.000   5.066 -0.2709 -0.3472  0.0517
 5709TIP3    H217092   6.594   3.036   4.926 -0.2725 -1.2364 -0.1815
 5710TIP3   OH217093   5.726   0.915   0.984 -0.3198  0.4036 -0.2733
 5710TIP3    H117094   5.818   0.910   1.012 -0.3821 -0.1772 -0.1600
 5710TIP3    H217095   5.676   0.890   1.062 -0.5007 -1.1538 -0.8762
 5711TIP3   OH217096   6.431   3.537   2.562  0.1986  0.6633  0.0346
 5711TIP3    H117097   6.443   3.451   2.602 -0.3207  0.6622  0.1847
 5711TIP3    H217098   6.336   3.549   2.557  0.2410  0.5268 -1.4769
 5712TIP3   OH217099   3.839   3.599   4.302  0.5102 -0.2903 -0.3204
 5712TIP3    H117100   3.837   3.695   4.304  0.3852 -0.2911 -0.4204
 5712TIP3    H217101   3.791   3.573   4.381  1.8410 -0.2571  0.5045
 5713TIP3   OH217102   6.167   6.851   5.629  0.0486 -0.0513 -0.1460
 5713TIP3    H117103   6.257   6.836   5.602 -0.4601 -0.1212 -1.8672
 5713TIP3    H217104   6.116   6.839   5.549 -1.5221 -0.3724  0.8869
 5714TIP3   OH217105   6.257   2.075   1.745  0.2968  0.0942 -0.3151
 5714TIP3    H117106   6.237   2.084   1.838 -1.3954 -0.9928 -0.5607
 5714TIP3    H217107   6.217   1.992   1.720  0.7552  0.3804 -2.0148
 5715TIP3   OH217108   6.179   3.903   4.229  0.0014  0.1468  1.0253
 5715TIP3    H117109   6.190   3.963   4.155 -0.9777  0.3611  1.0413
 5715TIP3    H217110   6.184   3.960   4.306 -1.4011  0.2986  1.0242
 5716TIP3   OH217111   4.280   1.400   0.859  0.3730  0.0112  0.3868
 5716TIP3    H117112   4.187   1.405   0.840  0.4247  1.0891  0.4368
 5716TIP3    H217113   4.304   1.487   0.890  1.6963  0.1719 -1.0175
 5717TIP3   OH217114   5.142   4.015   4.825 -0.4608 -0.4485  0.2279
 5717TIP3    H117115   5.100   4.100   4.837 -1.4143 -0.8141 -0.4646
 5717TIP3    H217116   5.106   3.982   4.743  0.0940 -1.4112  0.3691
 5718TIP3   OH217117   0.165   5.600   0.033 -0.3264 -0.3746 -0.0109
 5718TIP3    H117118   0.118   5.560   0.106 -0.6599  0.3329  0.1707
 5718TIP3    H217119   0.237   5.540   0.014 -0.9974 -1.2039  0.0530
 5719TIP3   OH217120   6.199   2.559   5.051  0.3338 -0.3393 -0.1751
 5719TIP3    H117121   6.282   2.561   5.004  1.4621  1.6792  1.7878
 5719TIP3    H217122   6.216   2.507   5.129 -0.7559 -1.3923 -0.6253
 5720TIP3   OH217123   5.173   4.240   2.406 -0.0316  0.0126  0.5585
 5720TIP3    H117124   5.109   4.262   2.474 -0.8018  1.3835 -0.5723
 5720TIP3    H217125   5.128   4.262   2.324  1.1330 -0.9833 -0.3492
 5721TIP3   OH217126   6.206   1.493   5.297 -0.5622  0.2617  0.6215
 5721TIP3    H117127   6.261   1.424   5.333  0.5284  1.8314  2.0191
 5721TIP3    H217128   6.200   1.472   5.204  1.8706 -0.3123  0.5533
 5722TIP3   OH217129   6.882   3.261   4.934  0.8086  0.2951 -0.0737
 5722TIP3    H117130   6.843   3.252   4.847 -0.0476  0.7830  0.2606
 5722TIP3    H217131   6.947   3.190   4.938  1.9369  1.2134 -1.6782
 5723TIP3   OH217132   0.686   2.987   3.974  0.2949  1.3728  0.3892
 5723TIP3    H117133   0.763   3.044   3.976  0.6952  0.8174  1.0798
 5723TIP3    H217134   0.702   2.923   4.043 -0.2113  0.5030 -0.2883
 5724TIP3   OH217135   7.049   0.662   1.000  0.1647 -0.4162 -0.4025
 5724TIP3    H117136   7.031   0.731   1.064  0.3253 -1.1358  0.4374
 5724TIP3    H217137   7.136   0.684   0.967  0.8768 -1.0519  0.9933
 5725TIP3   OH217138   5.693   1.713   5.847  0.1012  0.3499  0.1502
 5725TIP3    H117139   5.785   1.713   5.876  0.5446  0.9060 -1.1839
 5725TIP3    H217140   5.651   1.645   5.899  1.0860  0.6577  1.3741
 5726TIP3   OH217141   0.153   2.788   1.278 -0.0259 -1.0981 -0.5853
 5726TIP3    H117142   0.222   2.722   1.277 -1.0820 -2.2260 -0.8695
 5726TIP3    H217143   0.192   2.863   1.323  1.5085 -1.5615 -1.1210
 5727TIP3   OH217144   5.898   4.368   0.093  0.0843  0.0569  0.6665
 5727TIP3    H117145   5.882   4.344   0.184  3.7716 -1.6530  0.9240
 5727TIP3    H217146   5.891   4.286   0.044  0.5891  0.5518 -0.2638
 5728TIP3   OH217147   7.350   4.366   3.039  0.1085  0.3055  0.2277
 5728TIP3    H117148   7.331   4.454   3.071 -2.6568  0.5257 -1.7995
 5728TIP3    H217149   7.377   4.379   2.948  0.0059 -0.8771  0.0198
 5729TIP3   OH217150   0.045   3.896   4.595 -0.2260 -0.0502  0.0974
 5729TIP3    H117151   0.009   3.815   4.559  0.4202 -0.3957  0.2120
 5729TIP3    H217152  -0.031   3.946   4.624 -0.5905 -0.9428  0.7143
 5730TIP3   OH217153   1.650   5.622   4.319  0.1762 -0.1928  0.7871
 5730TIP3    H117154   1.690   5.551   4.370  1.3810  0.6766  1.0766
 5730TIP3    H217155   1.593   5.578   4.256  0.6004 -1.3899  1.2381
 5731TIP3   OH217156   5.991   3.707   4.152 -0.4535  0.0579 -0.4412
 5731TIP3    H117157   6.049   3.782   4.144 -2.3392  1.3745 -2.2396
 5731TIP3    H217158   6.020   3.662   4.232  2.5170  1.0715 -0.9021
 5732TIP3   OH217159   4.627   0.614   2.861 -0.1661  0.2000  0.1870
 5732TIP3    H117160   4.624   0.682   2.929 -1.5295  0.5703 -0.2068
 5732TIP3    H217161   4.633   0.532   2.909  1.6092  0.5928  0.6694
 5733TIP3   OH217162   4.500   2.243   4.583  0.3708  0.4732  0.5246
 5733TIP3    H117163   4.503   2.148   4.596 -1.9792  0.6051  2.2416
 5733TIP3    H217164   4.516   2.280   4.670  1.5071  1.6929 -0.1696
 5734TIP3   OH217165   5.609   4.487   4.674 -0.6747 -0.0441  0.0684
 5734TIP3    H117166   5.562   4.405   4.665  1.8947 -1.7985  1.9191
 5734TIP3    H217167   5.613   4.503   4.769 -1.3751  2.3704 -0.2611
 5735TIP3   OH217168   6.078   4.061   5.358  0.3147 -0.1917 -0.1143
 5735TIP3    H117169   6.109   3.993   5.298 -0.5586  0.1104 -0.9168
 5735TIP3    H217170   6.154   4.118   5.370 -0.2026  1.1620 -2.9476
 5736TIP3   OH217171   4.667   2.851   5.134 -0.5744 -0.1433  0.3024
 5736TIP3    H117172   4.613   2.779   5.167 -0.8709  0.5499  1.3363
 5736TIP3    H217173   4.743   2.854   5.192 -0.9610  0.8902  0.7753
 5737TIP3   OH217174   6.384   1.152   3.747  0.1808  0.5533 -0.2907
 5737TIP3    H117175   6.388   1.093   3.822  0.2963  0.7421 -0.1464
 5737TIP3    H217176   6.290   1.165   3.732  0.1602  1.1831  0.3586
 5738TIP3   OH217177   0.555   2.967   3.664  0.1005  0.2258  0.0093
 5738TIP3    H117178   0.527   2.901   3.728  0.2854  0.1553  0.0162
 5738TIP3    H217179   0.649   2.976   3.678 -0.0507  1.0721  0.5471
 5739TIP3   OH217180   6.080   3.954   2.845 -0.1069 -0.7119  0.4005
 5739TIP3    H117181   6.027   4.032   2.827 -0.0517 -0.3487  1.7551
 5739TIP3    H217182   6.048   3.922   2.930 -0.4620 -2.4552 -0.3602
 5740TIP3   OH217183   7.105   4.208   5.169 -0.0915  0.0504  0.3451
 5740TIP3    H117184   7.063   4.284   5.129  2.3800  0.0856 -2.3803
 5740TIP3    H217185   7.064   4.132   5.127  1.3672  0.0534 -1.1452
 5741TIP3   OH217186   5.487   2.957   1.661 -0.3570 -0.2006 -0.4140
 5741TIP3    H117187   5.542   2.894   1.615  1.5382  0.7397  0.4968
 5741TIP3    H217188   5.527   2.964   1.748  0.0873  2.9523 -0.7982
 5742TIP3   OH217189   3.807   1.411   5.899 -0.3419 -0.1820  0.6611
 5742TIP3    H117190   3.757   1.363   5.832  1.7140 -0.8252 -0.4512
 5742TIP3    H217191   3.776   1.501   5.893 -1.1258 -0.5102 -0.2421
 5743TIP3   OH217192   5.913   2.957   3.439 -0.2835  0.5653  0.2666
 5743TIP3    H117193   5.818   2.952   3.426 -0.2193  1.8706 -0.7582
 5743TIP3    H217194   5.944   3.013   3.368  0.9949  1.8674  1.8173
 5744TIP3   OH217195   6.015   2.977   5.660  0.7955  0.6511  0.3043
 5744TIP3    H117196   6.069   3.055   5.670  0.5933  1.1696 -2.2815
 5744TIP3    H217197   5.927   3.005   5.685  1.1128  0.6503  1.4550
 5745TIP3   OH217198   6.427   3.175   1.661  0.1439  0.5782 -0.3059
 5745TIP3    H117199   6.464   3.134   1.583  1.6036  0.7434  0.2916
 5745TIP3    H217200   6.342   3.211   1.632 -0.9478 -2.4164 -0.9464
 5746TIP3   OH217201   0.107   0.632   0.647  0.5326  0.0636 -0.1325
 5746TIP3    H117202   0.201   0.615   0.658  0.1641 -1.7461  0.4920
 5746TIP3    H217203   0.094   0.634   0.553  0.8667 -1.8436 -0.2451
 5747TIP3   OH217204   6.117   2.341   0.704 -0.2532 -0.1386 -0.4386
 5747TIP3    H117205   6.088   2.395   0.631  2.0833  1.2993 -0.3557
 5747TIP3    H217206   6.074   2.257   0.691 -0.5072  0.3611 -3.0196
 5748TIP3   OH217207   6.786   0.152   4.319 -0.1055 -0.4287 -0.0234
 5748TIP3    H117208   6.811   0.163   4.411 -0.6364 -0.6618  0.1536
 5748TIP3    H217209   6.807   0.061   4.299  1.5175  0.0666 -0.6126
 5749TIP3   OH217210   0.401   3.041   4.892  0.5220  0.4892  0.2019
 5749TIP3    H117211   0.404   3.126   4.935 -0.7862 -1.0505  3.4868
 5749TIP3    H217212   0.437   2.980   4.957 -0.1479 -1.7182 -1.4251
 5750TIP3   OH217213   6.348   4.295   2.515 -0.5195 -0.4132 -0.4461
 5750TIP3    H117214   6.267   4.281   2.465 -1.5109  0.5454  0.8635
 5750TIP3    H217215   6.414   4.315   2.448 -1.5558 -0.3613 -1.4722
 5751TIP3   OH217216   6.876   2.494   3.602 -0.0967  0.0447 -0.0773
 5751TIP3    H117217   6.865   2.519   3.510  2.2176 -1.2336 -0.7392
 5751TIP3    H217218   6.971   2.494   3.616 -0.2442 -2.8560  1.4055
 5752TIP3   OH217219   7.004   1.373   4.815  0.1303 -0.5855 -0.1945
 5752TIP3    H117220   7.051   1.388   4.897 -0.1516 -0.7321 -0.0078
 5752TIP3    H217221   6.962   1.457   4.796  0.0232 -0.6138 -0.0812
 5753TIP3   OH217222   6.873   3.118   4.335  0.0811  0.0737  0.1576
 5753TIP3    H117223   6.925   3.058   4.389 -0.7466  0.1690  1.0731
 5753TIP3    H217224   6.899   3.098   4.246 -0.5437 -2.0172  0.4125
 5754TIP3   OH217225   6.046   5.864   4.766  0.2794 -0.1672 -0.1362
 5754TIP3    H117226   5.995   5.914   4.703 -0.3311  0.2808  0.7002
 5754TIP3    H217227   6.006   5.777   4.764 -1.5710  0.5949  1.6502
 5755TIP3   OH217228   5.064   3.410   3.325 -0.0273  0.3392 -0.2737
 5755TIP3    H117229   5.001   3.398   3.396  0.2894  1.0928  0.1426
 5755TIP3    H217230   5.115   3.487   3.351 -1.6832  2.3056 -2.6163
 5756TIP3   OH217231   6.604   1.254   3.629  0.0948  0.0852 -0.0398
 5756TIP3    H117232   6.532   1.232   3.689 -0.5539  0.6170 -0.6128
 5756TIP3    H217233   6.616   1.348   3.640 -0.7584  0.3884 -1.5180
 5757TIP3   OH217234   5.939   5.029   4.190  0.3025 -0.1294 -0.0738
 5757TIP3    H117235   5.912   4.939   4.173 -1.0416  0.2752 -0.1331
 5757TIP3    H217236   5.984   5.024   4.275 -0.5941 -0.7047  0.3797
 5758TIP3   OH217237   5.170   5.600   1.947 -0.1382  0.1542 -0.0556
 5758TIP3    H117238   5.147   5.642   1.864 -0.5179  1.5646  0.7426
 5758TIP3    H217239   5.098   5.623   2.006  0.4106 -0.3684  0.8225
 5759TIP3   OH217240   6.000   2.489   3.979  0.0783 -0.1576 -0.3905
 5759TIP3    H117241   5.957   2.562   4.024 -0.9308 -0.9371 -0.0754
 5759TIP3    H217242   6.093   2.505   3.991 -0.1716 -0.4647  2.1798
 5760TIP3   OH217243   6.527   3.327   2.252  0.5445 -0.4631 -0.3394
 5760TIP3    H117244   6.531   3.258   2.318 -0.1363 -1.7233 -1.5844
 5760TIP3    H217245   6.436   3.329   2.223  0.4992  1.1191 -0.1673
 5761TIP3   OH217246   7.042   2.879   4.139 -0.5179 -0.3867  0.1528
 5761TIP3    H117247   6.977   2.871   4.069  1.5859 -0.2490 -1.8842
 5761TIP3    H217248   7.009   2.824   4.210 -2.6764 -0.5524 -0.9450
 5762TIP3   OH217249   6.183   3.423   4.489 -0.0063 -0.0079 -0.1017
 5762TIP3    H117250   6.110   3.363   4.502  0.0756 -0.1309 -0.2042
 5762TIP3    H217251   6.223   3.431   4.576 -0.1418  0.0603 -0.0463
 5763TIP3   OH217252   4.231   1.800   4.457 -0.0101 -0.3219 -0.4632
 5763TIP3    H117253   4.309   1.844   4.422  0.8775 -1.1273  0.4392
 5763TIP3    H217254   4.159   1.830   4.402  0.9055  0.6507 -1.1446
 5764TIP3   OH217255   2.031   1.276   0.449  0.0090 -0.0902 -0.9544
 5764TIP3    H117256   2.018   1.255   0.542  1.5679 -0.8870 -0.8895
 5764TIP3    H217257   1.962   1.228   0.403  0.1008 -0.8614 -0.3089
 5765TIP3   OH217258   5.794   3.314   1.094  0.5008  0.1668 -0.1974
 5765TIP3    H117259   5.711   3.362   1.086 -0.5818 -1.9302 -2.3360
 5765TIP3    H217260   5.786   3.266   1.176 -0.7466 -0.6032 -0.7536
 5766TIP3   OH217261   6.353   0.662   0.154  0.2298 -0.4878  0.1499
 5766TIP3    H117262   6.261   0.656   0.180 -0.4992 -0.0535 -2.2106
 5766TIP3    H217263   6.374   0.574   0.121  0.2122 -0.2044 -0.6411
 5767TIP3   OH217264   0.385   4.861   0.857  0.1261 -0.0419 -0.5486
 5767TIP3    H117265   0.452   4.851   0.925  0.4294  0.5110 -0.7662
 5767TIP3    H217266   0.344   4.946   0.877  1.3211  0.8993 -2.0324
 5768TIP3   OH217267   3.203   0.626   0.725 -0.2143  0.0769 -0.2172
 5768TIP3    H117268   3.170   0.638   0.636  1.0148  0.4612 -0.6302
 5768TIP3    H217269   3.132   0.657   0.781 -1.2344 -0.7482 -1.0497
 5769TIP3   OH217270   5.001   5.340   1.624 -0.3259  0.1656 -0.3317
 5769TIP3    H117271   5.032   5.429   1.637  1.1853 -0.2396 -1.1422
 5769TIP3    H217272   5.080   5.287   1.620 -1.2284 -1.3284  0.8856
 5770TIP3   OH217273   3.724   1.313   0.058  0.4126  0.5917 -0.2408
 5770TIP3    H117274   3.680   1.235   0.092  1.8160 -0.7726 -1.4938
 5770TIP3    H217275   3.721   1.375   0.131 -1.7490 -0.1831  0.3939
 5771TIP3   OH217276   0.566   1.157   1.860 -0.3758 -0.3803 -0.3337
 5771TIP3    H117277   0.615   1.151   1.942  1.4356 -0.2200 -1.3802
 5771TIP3    H217278   0.477   1.127   1.883  0.7208 -2.7102  1.1416
 5772TIP3   OH217279   6.852   2.859   5.651  0.0027 -0.2310 -0.0837
 5772TIP3    H117280   6.845   2.932   5.590 -0.1172 -1.0037 -0.9922
 5772TIP3    H217281   6.811   2.892   5.732  0.0471  0.7389 -0.4548
 5773TIP3   OH217282   1.132   6.878   0.585  0.1944  0.4729  0.7354
 5773TIP3    H117283   1.136   6.964   0.627 -0.7456  1.1552 -0.5638
 5773TIP3    H217284   1.158   6.817   0.654 -0.5064  1.6594  2.0806
 5774TIP3   OH217285   0.298   3.099   2.687  0.2172 -0.0351 -0.2823
 5774TIP3    H117286   0.383   3.058   2.675  0.5358  0.3789  0.5537
 5774TIP3    H217287   0.311   3.163   2.757 -1.1909 -1.1388  1.0204
 5775TIP3   OH217288   0.352   6.672   0.270  0.0299 -0.6430 -0.2746
 5775TIP3    H117289   0.285   6.707   0.211 -0.1857 -1.6919 -0.6489
 5775TIP3    H217290   0.426   6.652   0.213  1.2382  1.9137  0.3370
 5776TIP3   OH217291   6.493   2.058   0.928 -0.1395  0.5123 -0.6630
 5776TIP3    H117292   6.410   2.010   0.935  0.5428 -0.9269 -2.1001
 5776TIP3    H217293   6.477   2.125   0.862 -0.4188  0.8320 -0.2773
 5777TIP3   OH217294   3.087   5.861   1.766  0.3258  0.4371 -0.1760
 5777TIP3    H117295   3.063   5.784   1.819 -1.7584  1.6718  0.7232
 5777TIP3    H217296   3.172   5.838   1.730 -0.0693 -2.1642  0.3725
 5778TIP3   OH217297   7.124   4.065   2.346 -0.3532  0.3992  0.0511
 5778TIP3    H117298   7.159   4.098   2.428 -0.3068  0.2389  0.0961
 5778TIP3    H217299   7.033   4.042   2.366 -0.1680 -0.1964  0.2082
 5779TIP3   OH217300   0.431   6.719   0.538 -0.2548  0.0908  0.2589
 5779TIP3    H117301   0.457   6.809   0.559 -2.5573  0.7859  0.2825
 5779TIP3    H217302   0.410   6.722   0.445 -0.8867 -0.2681  0.3852
 5780TIP3   OH217303   5.664   3.047   5.179  0.0253 -0.1929  0.0792
 5780TIP3    H117304   5.589   3.107   5.174 -1.4468 -1.9593  0.2455
 5780TIP3    H217305   5.701   3.047   5.091 -1.5821 -1.0170 -0.6197
 5781TIP3   OH217306   6.624   2.946   5.258 -0.0204 -0.3199  0.2948
 5781TIP3    H117307   6.558   2.986   5.315  0.3510 -0.8033  1.0668
 5781TIP3    H217308   6.575   2.882   5.206 -0.1962 -0.5607  0.7518
 5782TIP3   OH217309   5.326   1.897   5.365  0.1162 -0.0226  0.0615
 5782TIP3    H117310   5.418   1.871   5.369 -0.5493 -2.4539  0.4005
 5782TIP3    H217311   5.282   1.840   5.428 -1.8419  0.0840 -1.1578
 5783TIP3   OH217312   7.074   0.946   5.179  0.0797 -0.4990  0.2706
 5783TIP3    H117313   7.033   1.029   5.202 -0.5813 -0.0480 -2.3647
 5783TIP3    H217314   7.122   0.964   5.098 -0.0643 -2.6733 -0.3502
 5784TIP3   OH217315   4.887   2.639   5.045  0.4547  0.3373 -0.3259
 5784TIP3    H117316   4.891   2.615   4.953  3.0228  0.9241 -0.3970
 5784TIP3    H217317   4.871   2.556   5.091 -1.1105  0.0881 -1.2668
 5785TIP3   OH217318   0.320   2.974   4.408  0.2379  0.0394 -0.3415
 5785TIP3    H117319   0.412   2.976   4.435  0.9388  0.0976 -2.5522
 5785TIP3    H217320   0.274   3.029   4.471  1.4455 -1.3573  1.7755
 5786TIP3   OH217321   5.626   2.154   4.018 -0.0183  0.1221  1.0637
 5786TIP3    H117322   5.596   2.204   4.094 -0.5452 -1.3292  1.8146
 5786TIP3    H217323   5.619   2.063   4.044  0.7274 -0.3663 -0.3885
 5787TIP3   OH217324   0.082   0.790   2.518  0.3754  0.4134 -0.3568
 5787TIP3    H117325   0.118   0.744   2.594 -0.9310 -1.5343 -0.8823
 5787TIP3    H217326   0.159   0.813   2.465  1.2250  1.0475  1.1072
 5788TIP3   OH217327   5.963   1.660   5.872 -0.6582  1.1379 -0.5777
 5788TIP3    H117328   6.020   1.714   5.928 -1.3156  0.2351  1.0007
 5788TIP3    H217329   6.021   1.628   5.803  0.7362  0.4250  0.8805
 5789TIP3   OH217330   6.115   3.168   5.212 -0.1838  0.1666 -0.1391
 5789TIP3    H117331   6.114   3.105   5.284 -1.4797  2.2062  1.7055
 5789TIP3    H217332   6.207   3.181   5.192  0.1250 -1.7669 -0.0849
 5790TIP3   OH217333   0.542   3.729   4.660  0.8586  0.0219  0.2213
 5790TIP3    H117334   0.628   3.689   4.673  0.3843 -1.3361 -0.7815
 5790TIP3    H217335   0.516   3.757   4.748  1.5172 -1.2167  0.8214
 5791TIP3   OH217336   6.156   2.740   5.291  0.6913 -0.5567  0.0129
 5791TIP3    H117337   6.070   2.764   5.257  1.4118 -0.7499 -2.0056
 5791TIP3    H217338   6.142   2.656   5.334 -0.5892  0.5172  1.7634
 5792TIP3   OH217339   5.730   2.916   4.618  0.2074 -0.6683 -0.2520
 5792TIP3    H117340   5.676   2.917   4.539  0.8781 -1.3472 -0.7236
 5792TIP3    H217341   5.806   2.969   4.595  0.0890 -0.3177  0.1651
 5793TIP3   OH217342   4.561   0.981   2.250 -0.3772  0.2301 -0.0865
 5793TIP3    H117343   4.654   0.960   2.247 -0.0817  1.4176  0.4249
 5793TIP3    H217344   4.525   0.928   2.321  0.0652  0.3435  0.2211
 5794TIP3   OH217345   5.591   2.734   2.156  0.4433  0.0023 -0.9180
 5794TIP3    H117346   5.546   2.663   2.202 -0.0984  0.3488 -0.9083
 5794TIP3    H217347   5.607   2.801   2.222 -0.4680  0.5624 -1.2567
 5795TIP3   OH217348   5.312   2.996   4.462 -0.0499 -0.3034 -0.6623
 5795TIP3    H117349   5.323   3.075   4.514  2.5758 -0.0057 -1.6039
 5795TIP3    H217350   5.218   2.994   4.440 -0.4297  1.6704  0.6908
 5796TIP3   OH217351   0.866   5.234   5.060  0.8209  0.0378  0.2731
 5796TIP3    H117352   0.781   5.195   5.044  0.4432  1.2186 -0.6350
 5796TIP3    H217353   0.923   5.160   5.083 -0.4126 -0.7567  0.7721
 5797TIP3   OH217354   3.525   1.088   0.077 -0.3848 -0.6040 -0.1877
 5797TIP3    H117355   3.446   1.035   0.090 -0.9809  0.2267 -0.3589
 5797TIP3    H217356   3.528   1.104  -0.017 -0.1485 -0.4282 -0.1508
 5798TIP3   OH217357   1.877   6.744   0.529  0.2271 -0.1803 -0.1224
 5798TIP3    H117358   1.912   6.791   0.605 -0.0690 -1.1850  0.6448
 5798TIP3    H217359   1.846   6.813   0.470  3.1567  0.7431 -0.6626
 5799TIP3   OH217360   1.145   3.333   3.291  0.3612  0.1398 -0.5364
 5799TIP3    H117361   1.235   3.363   3.278  0.4156  0.4727  0.5612
 5799TIP3    H217362   1.139   3.252   3.241  2.4282 -1.9667  2.4728
 5800TIP3   OH217363   6.936   3.589   3.509 -0.2341 -0.7467 -0.3951
 5800TIP3    H117364   6.986   3.600   3.428  1.4764  0.1079  0.7507
 5800TIP3    H217365   6.945   3.496   3.530  1.6352 -0.4211  0.2752
 5801TIP3   OH217366   6.158   3.738   3.721  0.0969 -0.3748 -0.0082
 5801TIP3    H117367   6.175   3.787   3.802 -0.8637 -0.4317  0.2388
 5801TIP3    H217368   6.200   3.790   3.652  0.4524 -0.0365  0.4572
 5802TIP3   OH217369   7.135   0.758   3.156 -0.3067 -0.1523  0.4062
 5802TIP3    H117370   7.148   0.849   3.184  0.1444  0.5490 -1.9355
 5802TIP3    H217371   7.050   0.758   3.113  0.2417 -0.5335 -0.7060
 5803TIP3   OH217372   6.685   3.873   3.806 -0.2564  0.6889 -0.0004
 5803TIP3    H117373   6.715   3.783   3.792 -0.5913  0.4621  0.7284
 5803TIP3    H217374   6.637   3.895   3.726 -2.4366 -0.7068  0.8940
 5804TIP3   OH217375   6.721   2.996   3.633  0.6957  0.7433  0.3196
 5804TIP3    H117376   6.730   2.973   3.725 -1.8270 -1.6546  0.0163
 5804TIP3    H217377   6.758   2.922   3.585  1.1772  1.5756 -0.6197
 5805TIP3   OH217378   6.154   3.197   3.601  0.3686 -0.1794  0.2858
 5805TIP3    H117379   6.101   3.159   3.671  0.3629 -1.5624 -0.4385
 5805TIP3    H217380   6.126   3.288   3.595 -0.6072 -0.4175  1.1386
 5806TIP3   OH217381   0.229   0.833   5.978  0.0965  0.0180 -0.4022
 5806TIP3    H117382   0.276   0.847   5.896 -0.3240 -0.3948 -0.7140
 5806TIP3    H217383   0.181   0.914   5.993 -0.0507 -0.0107 -0.7145
 5807TIP3   OH217384   1.027   2.821   4.700 -0.5972  0.1314 -0.3220
 5807TIP3    H117385   1.064   2.736   4.722 -1.6027 -1.0848 -3.1151
 5807TIP3    H217386   0.943   2.823   4.747 -0.7158 -0.5626 -0.4985
 5808TIP3   OH217387   6.181   2.328   1.327  0.3510 -0.0857  0.0645
 5808TIP3    H117388   6.120   2.308   1.398  1.0599 -0.7653  0.4949
 5808TIP3    H217389   6.225   2.245   1.309  1.3810  0.4641 -0.0062
 5809TIP3   OH217390   4.233   5.913   0.382  0.3827  0.1055 -0.4324
 5809TIP3    H117391   4.317   5.926   0.338  0.8532  0.5838  0.5907
 5809TIP3    H217392   4.214   5.820   0.369  0.6061  0.2028 -1.4777
 5810TIP3   OH217393   6.604   0.811   3.834  0.2155 -0.4593  0.2474
 5810TIP3    H117394   6.573   0.880   3.892  0.6382  0.3984 -0.5376
 5810TIP3    H217395   6.524   0.775   3.794 -0.0549 -0.8884  1.1571
 5811TIP3   OH217396   0.798   4.111   4.263  0.3108  0.0655  0.5068
 5811TIP3    H117397   0.734   4.179   4.279 -0.5314 -0.5260 -0.3213
 5811TIP3    H217398   0.871   4.155   4.220  0.3219  0.6677  1.1334
 5812TIP3   OH217399   2.815   6.669  -0.008  0.1244  0.0117 -0.2367
 5812TIP3    H117400   2.783   6.759  -0.005  1.7265  0.5615  1.3532
 5812TIP3    H217401   2.870   6.660   0.070 -1.8353 -3.0785  0.8640
 5813TIP3   OH217402   6.504   2.703   2.980  0.6047 -0.7834 -0.2730
 5813TIP3    H117403   6.541   2.772   2.927 -0.4941 -0.0333 -0.0896
 5813TIP3    H217404   6.442   2.748   3.038  0.6597 -1.7771  0.5706
 5814TIP3   OH217405   6.240   4.069   4.013  0.0165 -0.0036  0.0360
 5814TIP3    H117406   6.226   4.163   4.026 -0.2423  0.3867 -2.7432
 5814TIP3    H217407   6.335   4.058   4.014  0.0571  0.3473  0.0140
 5815TIP3   OH217408   4.015   2.115   5.520  0.2782  0.6079  0.4699
 5815TIP3    H117409   4.034   2.073   5.604  1.6884  1.1031  0.4071
 5815TIP3    H217410   3.951   2.057   5.478  0.8071 -0.4987  1.1799
 5816TIP3   OH217411   4.824   1.441   1.891  0.0475  0.3194  0.0029
 5816TIP3    H117412   4.799   1.529   1.864  0.4548  0.2273 -0.6946
 5816TIP3    H217413   4.823   1.443   1.986  0.2576  1.1328 -0.0143
 5817TIP3   OH217414   0.714   4.291   3.159 -0.2993  0.3906  0.1588
 5817TIP3    H117415   0.721   4.281   3.064  1.9453  0.4844  0.2741
 5817TIP3    H217416   0.639   4.238   3.184 -0.4385 -0.2550 -1.5736
 5818TIP3   OH217417   2.207  -0.019   1.715 -0.1803 -0.3894  0.0644
 5818TIP3    H117418   2.218   0.051   1.651  0.7807 -0.1956  0.4249
 5818TIP3    H217419   2.286  -0.014   1.770 -0.9443 -0.6130  1.1982
 5819TIP3   OH217420   4.560   3.099   3.465 -0.2342  0.0150  0.2018
 5819TIP3    H117421   4.471   3.069   3.446 -0.2305 -0.0876  0.3494
 5819TIP3    H217422   4.547   3.174   3.523 -0.2209 -0.0498  0.2884
 5820TIP3   OH217423   5.014   2.654   5.806  0.1624  0.0949 -0.5073
 5820TIP3    H117424   5.100   2.694   5.819  0.8016 -1.1685 -0.7997
 5820TIP3    H217425   4.978   2.644   5.894  0.5280  0.1648 -0.3510
 5821TIP3   OH217426   6.298   5.545   3.745  0.1089 -0.1488 -0.2769
 5821TIP3    H117427   6.228   5.532   3.809 -0.6453 -0.5975 -1.1974
 5821TIP3    H217428   6.323   5.637   3.757 -0.5698 -0.0091  0.1209
 5822TIP3   OH217429   5.686   3.023   3.278  0.3155  0.0896  0.1677
 5822TIP3    H117430   5.718   3.075   3.205 -0.7025 -0.1200 -0.4263
 5822TIP3    H217431   5.622   2.963   3.240 -1.8521  1.4474  1.5628
 5823TIP3   OH217432   7.312   0.169   2.320 -0.3022 -0.0923  0.0172
 5823TIP3    H117433   7.335   0.115   2.244 -0.4590  0.4914 -0.4516
 5823TIP3    H217434   7.218   0.156   2.331  0.0212 -1.5875  1.2333
 5824TIP3   OH217435   5.962   3.145   4.109  0.4160 -0.4203  0.1502
 5824TIP3    H117436   5.887   3.178   4.059  1.0516 -0.5123 -0.8710
 5824TIP3    H217437   5.984   3.062   4.068  0.1003 -1.1734  1.4511
 5825TIP3   OH217438   7.191   3.663   3.935 -0.4001 -0.3563 -0.1691
 5825TIP3    H117439   7.143   3.582   3.917 -0.1278 -0.3679 -0.8276
 5825TIP3    H217440   7.130   3.733   3.911 -0.4782 -0.3633  0.0029
 5826TIP3   OH217441   6.971   1.536   2.455 -0.1449 -0.0000 -1.1029
 5826TIP3    H117442   6.950   1.613   2.507 -0.6520 -0.3099 -0.8441
 5826TIP3    H217443   6.908   1.537   2.383 -0.1130 -0.1362 -1.1337
 5827TIP3   OH217444   0.086   5.009   2.808 -0.6771  0.1140 -0.4503
 5827TIP3    H117445   0.151   5.055   2.863 -1.3948 -0.5158  0.9605
 5827TIP3    H217446   0.138   4.948   2.756  0.0498  0.8903 -0.6466
 5828TIP3   OH217447   7.285   3.694   3.558 -0.1450 -0.0477 -0.0032
 5828TIP3    H117448   7.363   3.684   3.613  0.3320 -0.3448 -0.7279
 5828TIP3    H217449   7.250   3.606   3.550 -1.1929  0.2413  1.2285
 5829TIP3   OH217450   0.652   4.989   4.521  0.3222  0.7931  0.5274
 5829TIP3    H117451   0.619   4.900   4.531  0.5733  0.3456 -2.1232
 5829TIP3    H217452   0.731   4.992   4.574 -0.3021 -0.2142  1.5256
 5830TIP3   OH217453   6.428   4.614   3.609 -0.0376  0.4224 -0.5331
 5830TIP3    H117454   6.351   4.660   3.576 -1.5946 -0.4822  1.7280
 5830TIP3    H217455   6.415   4.523   3.580 -0.4960  0.0011  0.9782
 5831TIP3   OH217456   6.386   4.262   4.925 -0.0593  0.4451 -0.6082
 5831TIP3    H117457   6.331   4.268   5.003  1.3479 -1.4618  0.5865
 5831TIP3    H217458   6.431   4.346   4.921  1.8066 -0.3221  2.2035
 5832TIP3   OH217459   6.901   0.721   3.019  0.3911  0.1911 -0.0715
 5832TIP3    H117460   6.814   0.700   3.055 -0.1038  2.0846 -0.1285
 5832TIP3    H217461   6.893   0.811   2.988  2.6978  0.7644  0.9107
 5833TIP3   OH217462   6.142   1.193   5.881 -0.6456 -0.5167  0.0183
 5833TIP3    H117463   6.068   1.238   5.841  0.4726 -0.2907 -1.8908
 5833TIP3    H217464   6.185   1.260   5.934  1.8134  1.2023 -3.9037
 5834TIP3   OH217465   5.683   3.192   1.342  0.4831  0.2553  0.2001
 5834TIP3    H117466   5.747   3.171   1.410  0.1607 -0.0191  0.4198
 5834TIP3    H217467   5.617   3.245   1.387 -0.1828 -0.6551  0.3002
 5835TIP3   OH217468   6.406   3.108   3.963  0.1383  0.2616  0.0123
 5835TIP3    H117469   6.415   3.115   3.868 -1.6175  1.3736 -0.0916
 5835TIP3    H217470   6.490   3.073   3.993  0.4938 -0.6631 -2.0064
 5836TIP3   OH217471   7.262   2.526   4.078 -0.1646 -0.5043 -0.3732
 5836TIP3    H117472   7.216   2.470   4.141 -0.8542 -1.4579 -1.6656
 5836TIP3    H217473   7.196   2.543   4.010  1.2449 -1.5805 -2.0777
 5837TIP3   OH217474   5.537   4.648   4.460 -0.0149 -0.4698 -0.8627
 5837TIP3    H117475   5.476   4.698   4.514 -2.0805 -1.9916 -1.6941
 5837TIP3    H217476   5.559   4.571   4.513 -2.8631 -2.4982 -2.4818
 5838TIP3   OH217477   4.542   3.134   2.827 -0.5525 -0.1531 -0.2691
 5838TIP3    H117478   4.530   3.228   2.841 -0.2582 -0.1268 -0.1838
 5838TIP3    H217479   4.636   3.124   2.811 -0.4104 -0.5686  0.7827
 5839TIP3   OH217480   6.692   1.405   4.935  0.1978 -0.1841  0.6470
 5839TIP3    H117481   6.722   1.474   4.995 -0.0413 -0.4064  1.0215
 5839TIP3    H217482   6.628   1.449   4.879  0.2282 -0.0411  0.7245
 5840TIP3   OH217483   6.094   4.042   3.261  0.2175  0.5799  0.6469
 5840TIP3    H117484   6.083   4.112   3.326  0.0068  0.3232  0.8884
 5840TIP3    H217485   6.189   4.032   3.253  0.3500  3.2975 -1.9836
 5841TIP3   OH217486   5.358   2.926   3.915 -0.1712 -0.3549 -0.1425
 5841TIP3    H117487   5.268   2.909   3.943  0.2522 -3.9749 -0.7932
 5841TIP3    H217488   5.379   2.853   3.857  2.5283  1.4988 -1.5885
 5842TIP3   OH217489   5.658   3.787   2.119 -0.7174  0.1624 -0.0321
 5842TIP3    H117490   5.741   3.781   2.072 -0.5945 -0.7443  0.2840
 5842TIP3    H217491   5.668   3.865   2.174 -0.0289  0.0067  0.0784
 5843TIP3   OH217492   0.667   3.707   1.172 -0.4689 -0.6529  0.2667
 5843TIP3    H117493   0.678   3.672   1.260 -0.5571  1.3458  1.0985
 5843TIP3    H217494   0.748   3.756   1.155 -0.8406 -0.2423 -0.3808
 5844TIP3   OH217495   0.274   5.144   0.843  0.5596  0.1813 -0.4153
 5844TIP3    H117496   0.204   5.203   0.816 -0.6340 -0.6077  0.9099
 5844TIP3    H217497   0.350   5.201   0.856  0.0005  1.1205 -1.2612
 5845TIP3   OH217498   4.916   2.605   2.857 -0.2460  0.1189 -0.2811
 5845TIP3    H117499   4.971   2.615   2.935 -0.6724 -0.4156  0.0816
 5845TIP3    H217500   4.826   2.609   2.890 -0.4345  0.7393 -0.8495
 5846TIP3   OH217501   1.677   5.844   0.624  0.4038 -0.3008  0.3547
 5846TIP3    H117502   1.634   5.854   0.539  0.3886  0.1195  0.4121
 5846TIP3    H217503   1.709   5.931   0.645  1.6297 -0.6905  0.1315
 5847TIP3   OH217504   4.119   3.255   5.222 -0.4455  0.4538  0.3464
 5847TIP3    H117505   4.120   3.318   5.294 -0.5020  0.8100  0.0398
 5847TIP3    H217506   4.211   3.234   5.207 -0.6094 -2.9864  3.4137
 5848TIP3   OH217507   0.493   3.076   2.348 -0.0977 -0.4343 -0.0514
 5848TIP3    H117508   0.432   3.063   2.422 -1.5437  0.7726 -1.0201
 5848TIP3    H217509   0.559   3.137   2.382  0.2411 -1.2556  0.8020
 5849TIP3   OH217510   0.123   3.467   4.683 -0.2272  0.0533 -0.0715
 5849TIP3    H117511   0.196   3.409   4.660 -0.5614  0.1101 -1.2978
 5849TIP3    H217512   0.165   3.542   4.726  0.5632  0.6159 -1.7539
 5850TIP3   OH217513   1.350   4.784   4.726 -1.0313 -0.4111  0.0374
 5850TIP3    H117514   1.271   4.758   4.774 -1.6773 -1.8892 -1.7934
 5850TIP3    H217515   1.375   4.706   4.677  1.6736 -0.0041  0.6902
 5851TIP3   OH217516   0.889   3.365   2.681  0.2784 -0.0423  0.7413
 5851TIP3    H117517   0.939   3.436   2.640 -1.5804  1.0085  0.2394
 5851TIP3    H217518   0.924   3.286   2.641 -0.4345  0.8622 -1.7884
 5852TIP3   OH217519   6.419   3.455   1.936  0.3424 -0.5261 -0.6082
 5852TIP3    H117520   6.457   3.528   1.985 -0.6162 -1.2605  1.2930
 5852TIP3    H217521   6.491   3.421   1.883  0.9428  1.4006 -1.0365
 5853TIP3   OH217522   6.003   2.957   1.401  0.6058  0.3772  0.4267
 5853TIP3    H117523   5.965   3.029   1.451 -1.1319  0.5648 -1.1254
 5853TIP3    H217524   5.955   2.879   1.430  1.9333 -0.0566  1.5161
 5854TIP3   OH217525   1.178   1.718   2.907  0.0542  0.2696 -0.0184
 5854TIP3    H117526   1.169   1.661   2.984  0.2791  1.0386  0.5787
 5854TIP3    H217527   1.144   1.665   2.835 -1.6219  0.1133  0.8484
 5855TIP3   OH217528   0.499   1.455   4.775  0.0666 -0.3884 -0.1092
 5855TIP3    H117529   0.500   1.438   4.869  0.1767 -1.8191 -0.3678
 5855TIP3    H217530   0.416   1.419   4.744 -0.0645  0.2642 -0.5394
 5856TIP3   OH217531   5.409   4.209   3.447 -0.0734 -0.4953 -0.7308
 5856TIP3    H117532   5.501   4.191   3.425 -0.3334 -2.7610 -0.1145
 5856TIP3    H217533   5.360   4.178   3.371 -0.4793 -1.5968 -0.0284
 5857TIP3   OH217534   7.324   0.713   1.646  0.5835  0.4019  0.3676
 5857TIP3    H117535   7.370   0.794   1.671 -1.1197  2.1920 -2.1082
 5857TIP3    H217536   7.241   0.717   1.692  0.3807  0.1953  0.0220
 5858TIP3   OH217537   2.694   3.014   3.695  0.1449  0.7205 -0.1204
 5858TIP3    H117538   2.662   2.947   3.756  2.4196 -0.1436  0.1626
 5858TIP3    H217539   2.684   3.096   3.742 -0.3063  0.3036  0.5141
 5859TIP3   OH217540   5.844   0.197   1.828  0.2882 -0.8284  0.1206
 5859TIP3    H117541   5.925   0.240   1.855  0.8120 -1.2753 -0.7081
 5859TIP3    H217542   5.775   0.254   1.859  0.8893 -1.0256  1.8666
 5860TIP3   OH217543   0.982   4.504   4.101 -0.0253  0.4031 -0.5288
 5860TIP3    H117544   1.041   4.566   4.144 -0.9301  0.8181  0.1340
 5860TIP3    H217545   0.999   4.421   4.145  0.0730  0.5262 -0.3331
 5861TIP3   OH217546   0.502   4.720   4.238  0.0263 -0.1343  0.4210
 5861TIP3    H117547   0.592   4.688   4.225 -0.4035 -1.7547  1.3735
 5861TIP3    H217548   0.459   4.652   4.289 -1.8677  0.4802 -0.3117
 5862TIP3   OH217549   6.858   5.152   5.575 -0.1409  0.2046 -0.0102
 5862TIP3    H117550   6.918   5.116   5.640  0.5397  0.6438 -0.3947
 5862TIP3    H217551   6.789   5.085   5.566  0.6293 -0.5958 -0.0490
 5863TIP3   OH217552   1.707   3.885   4.747 -0.1564  0.0907  0.1844
 5863TIP3    H117553   1.771   3.952   4.722  0.5800 -0.2186  1.1747
 5863TIP3    H217554   1.734   3.806   4.700 -0.3451  0.1924 -0.0946
 5864TIP3   OH217555   5.967   1.695   0.504 -0.3453  0.0282 -0.3078
 5864TIP3    H117556   6.018   1.760   0.456 -1.2294  0.2968 -0.9021
 5864TIP3    H217557   5.949   1.627   0.440  0.7138 -0.8937  0.3563
 5865TIP3   OH217558   3.634   3.247   5.762  0.0821  0.4511 -0.4719
 5865TIP3    H117559   3.657   3.274   5.673 -0.9753  0.7723 -0.6540
 5865TIP3    H217560   3.542   3.270   5.771  0.7264  2.4386  1.4771
 5866TIP3   OH217561   1.230   3.937   3.159 -0.1789  0.1911  0.1420
 5866TIP3    H117562   1.204   3.856   3.115 -1.1234  0.9227 -0.6594
 5866TIP3    H217563   1.288   3.908   3.230 -0.6184 -1.1958 -0.0540
 5867TIP3   OH217564   2.454   5.016   5.166 -0.1795  0.1005  0.4839
 5867TIP3    H117565   2.498   4.931   5.166 -0.4577 -0.0533  2.0355
 5867TIP3    H217566   2.361   4.995   5.174 -0.2870  0.5230  0.3190
 5868TIP3   OH217567   1.834   3.472   4.454  0.1995 -0.0906 -0.3063
 5868TIP3    H117568   1.818   3.403   4.389  1.6359 -1.0956  0.3790
 5868TIP3    H217569   1.911   3.442   4.502  0.5073  1.7400  0.3793
 5869TIP3   OH217570   2.040   4.942   4.857  0.0550 -0.4056  0.5212
 5869TIP3    H117571   2.111   4.891   4.897  1.6556  0.9394 -0.5582
 5869TIP3    H217572   2.030   4.903   4.769  1.2295  1.0737 -0.2777
 5870TIP3   OH217573   6.890   5.384   3.908  0.2792  0.4053  0.3259
 5870TIP3    H117574   6.898   5.306   3.853  1.7821 -0.7756  2.1784
 5870TIP3    H217575   6.979   5.417   3.917 -0.0131  0.9011  1.6038
 5871TIP3   OH217576   5.698   0.623   1.448  0.6176  0.7154 -0.3133
 5871TIP3    H117577   5.792   0.610   1.449  0.6869  1.1533 -0.6736
 5871TIP3    H217578   5.686   0.712   1.413  0.2240  2.1158  3.1823
 5872TIP3   OH217579   5.519   1.391   1.717 -0.7499  0.1109  0.1202
 5872TIP3    H117580   5.589   1.368   1.777 -0.1572 -0.0785 -0.6397
 5872TIP3    H217581   5.529   1.486   1.705  1.6641 -0.4490 -2.8164
 5873TIP3   OH217582   3.009   4.053   4.990  0.2921 -0.3156 -0.3183
 5873TIP3    H117583   3.045   4.142   4.995 -0.3163 -0.0429 -0.6854
 5873TIP3    H217584   3.041   4.010   5.069  0.2096  0.3740  0.0968
 5874TIP3   OH217585   1.312   3.661   5.874  0.1337  0.4449 -0.4793
 5874TIP3    H117586   1.273   3.601   5.938 -0.0398  2.6378  1.5646
 5874TIP3    H217587   1.401   3.629   5.863  0.5144  0.6199  1.7109
 5875TIP3   OH217588   7.181   3.159   5.784  0.6839  0.5232 -0.0778
 5875TIP3    H117589   7.198   3.076   5.740 -0.9407  0.6573 -0.9809
 5875TIP3    H217590   7.169   3.134   5.876 -0.7327 -0.3707 -0.4918
 5876TIP3   OH217591   1.932   3.034   4.432 -0.3168  0.8848 -0.1500
 5876TIP3    H117592   1.965   2.946   4.450 -0.7494  0.6795 -0.3475
 5876TIP3    H217593   1.894   3.063   4.515 -1.3524  0.3598 -0.4266
 5877TIP3   OH217594   1.762   3.969   5.300 -0.1487  0.6071  0.1358
 5877TIP3    H117595   1.713   4.050   5.310  2.2435  1.9836  1.4543
 5877TIP3    H217596   1.768   3.955   5.206  0.0475  2.4156 -0.1438
 5878TIP3   OH217597   1.043   0.199   0.423 -0.1608 -0.7715  0.3853
 5878TIP3    H117598   1.102   0.275   0.424  0.0592 -0.9105 -0.6962
 5878TIP3    H217599   1.041   0.173   0.331  0.6669 -2.7656  0.9004
 5879TIP3   OH217600   3.470   4.096   3.344  0.1974 -0.0675 -0.0436
 5879TIP3    H117601   3.442   4.020   3.396 -1.3293  0.5400  0.0405
 5879TIP3    H217602   3.545   4.064   3.294  1.0608 -0.9550  1.7514
 5880TIP3   OH217603   0.554   4.794   5.421  0.0319  0.8122  0.7221
 5880TIP3    H117604   0.608   4.723   5.456 -0.4072  0.1671  0.1002
 5880TIP3    H217605   0.617   4.862   5.398  0.4099  0.8510  1.8375
 5881TIP3   OH217606   4.701   0.531   0.349 -0.4598 -0.1983 -0.1601
 5881TIP3    H117607   4.790   0.523   0.315 -0.3814 -1.7342  0.3624
 5881TIP3    H217608   4.712   0.562   0.439 -0.4813  0.0589 -0.2449
 5882TIP3   OH217609   3.925   5.911   0.779  0.6021 -0.6684  0.0468
 5882TIP3    H117610   4.015   5.932   0.802  0.7521 -0.5775 -0.6300
 5882TIP3    H217611   3.925   5.900   0.684 -0.3460  0.5778 -0.1146
 5883TIP3   OH217612   5.753   5.508   0.162  0.2661  0.3290 -0.0727
 5883TIP3    H117613   5.760   5.603   0.175 -0.7826  0.5468 -1.0714
 5883TIP3    H217614   5.782   5.494   0.072  0.0728 -0.2550 -0.0432
 5884TIP3   OH217615   0.184   4.115   5.315 -0.4482 -1.0094  0.2585
 5884TIP3    H117616   0.201   4.206   5.291  0.9123 -1.4007 -0.3290
 5884TIP3    H217617   0.091   4.112   5.335 -0.0392  1.0723  2.7106
 5885TIP3   OH217618   0.466   2.861   5.094 -0.1262 -0.1682  0.5090
 5885TIP3    H117619   0.435   2.895   5.178  0.7120  0.2499  0.6489
 5885TIP3    H217620   0.553   2.827   5.113  1.1894  2.3662 -0.7542
 5886TIP3   OH217621   0.319   3.142   1.124  0.2521  0.7372  0.5172
 5886TIP3    H117622   0.257   3.183   1.184 -2.4969 -0.6982 -1.2513
 5886TIP3    H217623   0.332   3.054   1.158 -1.0480  0.0354 -0.7770
 5887TIP3   OH217624   0.259   5.151   5.192 -0.1556 -0.4029 -0.0218
 5887TIP3    H117625   0.274   5.190   5.105  1.0465  0.6490  0.6364
 5887TIP3    H217626   0.219   5.221   5.243  1.7472 -0.0813  1.0835
 5888TIP3   OH217627   3.607   5.060   0.891 -0.0051  0.6186 -0.2279
 5888TIP3    H117628   3.570   5.075   0.978 -0.2066  0.3340 -0.2629
 5888TIP3    H217629   3.626   5.147   0.857  0.6207  0.7077  0.3413
 5889TIP3   OH217630   6.148   0.262   1.185 -0.0324 -0.0767 -0.1914
 5889TIP3    H117631   6.223   0.203   1.175 -0.4462 -0.6461  0.0780
 5889TIP3    H217632   6.088   0.215   1.242 -0.4192  0.5560 -0.0770
 5890TIP3   OH217633   6.293   3.362   5.503 -0.5645  0.0368 -0.3663
 5890TIP3    H117634   6.351   3.408   5.442  0.8046 -0.2493  0.6680
 5890TIP3    H217635   6.206   3.368   5.464  0.3055 -0.2847 -2.4227
 5891TIP3   OH217636   2.554   5.267   5.274  0.2607  0.2517  0.2988
 5891TIP3    H117637   2.489   5.337   5.269 -0.1897 -0.1231  0.8448
 5891TIP3    H217638   2.504   5.186   5.264  0.6419 -0.0424  0.7209
 5892TIP3   OH217639   1.543   4.713   5.554  0.7065  0.5078 -0.2995
 5892TIP3    H117640   1.486   4.701   5.630  1.9168 -1.5655  0.3273
 5892TIP3    H217641   1.493   4.771   5.496 -2.4250 -1.8516 -0.1272
 5893TIP3   OH217642   2.563   3.560   3.193  0.2590 -0.2015 -0.0501
 5893TIP3    H117643   2.534   3.617   3.263 -1.8810 -1.9676  0.5620
 5893TIP3    H217644   2.640   3.515   3.228 -1.9322 -2.5016  1.9472
 5894TIP3   OH217645   0.940   4.598   4.741  0.4740 -0.1497  0.2087
 5894TIP3    H117646   0.946   4.636   4.653  0.4494 -1.1103 -0.2149
 5894TIP3    H217647   0.994   4.519   4.737  0.0720 -0.4641  0.9157
 5895TIP3   OH217648   3.501   6.029   4.864  0.1184 -0.2561  0.4720
 5895TIP3    H117649   3.577   6.018   4.807  0.8663  0.3981  1.3237
 5895TIP3    H217650   3.494   6.124   4.877 -0.3710 -0.3607  1.0147
 5896TIP3   OH217651   6.209   3.489   5.025 -0.1516 -0.2072 -0.5389
 5896TIP3    H117652   6.119   3.504   5.057  0.1450 -0.3617  0.3884
 5896TIP3    H217653   6.257   3.567   5.053  0.4668 -1.0411  0.7474
 5897TIP3   OH217654   6.313   2.324   0.953 -0.2034 -0.0859  0.0666
 5897TIP3    H117655   6.354   2.307   0.868  1.6262  4.3664 -0.0497
 5897TIP3    H217656   6.230   2.365   0.931 -0.3912 -0.2629  0.4461
 5898TIP3   OH217657   0.436   5.509   3.801  0.3601 -0.1600 -0.4710
 5898TIP3    H117658   0.487   5.590   3.811 -0.5891  0.5261 -1.1534
 5898TIP3    H217659   0.434   5.493   3.707 -1.4941  0.3509 -0.5335
 5899TIP3   OH217660   0.058   2.987   5.100 -0.6582  0.0217  0.3753
 5899TIP3    H117661  -0.004   2.966   5.030  0.3448 -0.3346 -0.4312
 5899TIP3    H217662   0.073   3.081   5.091  0.2075 -0.1973 -0.5153
 5900TIP3   OH217663   0.577   2.396   5.500 -0.4514  0.3048 -0.1347
 5900TIP3    H117664   0.557   2.412   5.592  0.6606  1.3500 -0.0624
 5900TIP3    H217665   0.610   2.306   5.498  1.0440  0.8036  0.7540
 5901TIP3   OH217666   7.313   4.393   5.575 -0.0119 -0.2792  0.1455
 5901TIP3    H117667   7.315   4.302   5.545 -1.0607 -0.1196 -0.4506
 5901TIP3    H217668   7.313   4.387   5.671  0.6113 -0.8765  0.1111
 5902TIP3   OH217669   1.857   3.701   5.193 -0.1107  0.3304  0.1428
 5902TIP3    H117670   1.878   3.775   5.137  1.4450  1.6434  2.4010
 5902TIP3    H217671   1.761   3.703   5.200 -0.0543  2.4177  0.5652
 5903TIP3   OH217672   7.090   3.484   5.580 -0.1891  0.1801  0.5785
 5903TIP3    H117673   7.092   3.473   5.675  2.3164  0.5928  0.6257
 5903TIP3    H217674   7.123   3.401   5.546  1.0812  0.8355  0.1782
 5904TIP3   OH217675   0.477   4.139   3.734  0.9276 -0.6853 -0.8857
 5904TIP3    H117676   0.393   4.102   3.763 -0.6670  1.9222 -2.0226
 5904TIP3    H217677   0.531   4.140   3.813 -0.7553 -0.6207  0.2957
 5905TIP3   OH217678   2.219   6.577   1.060  0.4739 -0.1879 -0.5480
 5905TIP3    H117679   2.235   6.647   1.123 -1.0688 -0.2865 -0.0211
 5905TIP3    H217680   2.211   6.621   0.976  0.7489  0.1273 -0.4101
 5906TIP3   OH217681   1.976   4.281   5.044  0.3945 -0.3896  0.3638
 5906TIP3    H117682   1.941   4.299   5.131  2.1857  0.3141  0.9648
 5906TIP3    H217683   1.991   4.368   5.006 -1.3376 -0.6885 -1.0585
 5907TIP3   OH217684   2.069   5.119   4.515 -0.0405 -0.0525 -0.4061
 5907TIP3    H117685   2.046   5.033   4.552  0.8161 -0.2504 -0.3125
 5907TIP3    H217686   2.100   5.169   4.591 -0.5918  0.3647 -0.4532
 5908TIP3   OH217687   0.737   6.132   0.983  0.0635  0.1419 -0.3322
 5908TIP3    H117688   0.759   6.152   1.074 -0.4093 -0.1973 -0.1402
 5908TIP3    H217689   0.810   6.080   0.951  0.5742  0.8668 -0.3697
 5909TIP3   OH217690   5.256   6.769   0.769  0.1712  0.2136 -0.2721
 5909TIP3    H117691   5.303   6.776   0.852 -0.4986 -0.2788  0.1584
 5909TIP3    H217692   5.306   6.706   0.718  0.0770 -0.1764  0.1148
 5910TIP3   OH217693   7.332   1.354   1.806  0.4492 -0.2038  0.0479
 5910TIP3    H117694   7.335   1.439   1.761  0.9874  0.3806  1.1709
 5910TIP3    H217695   7.299   1.293   1.740 -0.6768  1.0294 -0.5496
 5911TIP3   OH217696   5.565   1.967   0.568  0.0169  0.2866 -0.6435
 5911TIP3    H117697   5.622   1.896   0.598 -0.2175 -0.1392 -1.1970
 5911TIP3    H217698   5.481   1.951   0.612  0.5808  1.4534  0.9178
 5912TIP3   OH217699   7.208   3.764   4.771  0.6011 -0.0689 -0.1738
 5912TIP3    H117700   7.243   3.726   4.690  1.3760  1.3687 -0.5238
 5912TIP3    H217701   7.120   3.793   4.747  0.8109  0.3119 -0.4985
 5913TIP3   OH217702   3.587   6.671   1.764 -0.7084  0.3179  0.1464
 5913TIP3    H117703   3.613   6.747   1.817  1.2859  0.1496 -0.5488
 5913TIP3    H217704   3.492   6.672   1.766 -0.6910  2.0257  1.3161
 5914TIP3   OH217705   5.610   0.587   0.270 -0.0162  0.4460  0.5371
 5914TIP3    H117706   5.586   0.508   0.221  2.3057  0.6633 -1.0374
 5914TIP3    H217707   5.685   0.561   0.323  0.1084  1.3252  0.8009
 5915TIP3   OH217708   7.040   3.125   5.423  0.0992  0.1256  0.2640
 5915TIP3    H117709   7.007   3.178   5.351 -0.7846  1.9498  1.9712
 5915TIP3    H217710   6.978   3.053   5.430 -0.5268  0.6422  0.0251
 5916TIP3   OH217711   0.440   4.946   5.172 -0.9774  0.2778  0.0247
 5916TIP3    H117712   0.384   5.019   5.197  0.0653  1.4018 -0.8598
 5916TIP3    H217713   0.450   4.895   5.253 -2.0769  0.8672  0.5387
 5917TIP3   OH217714   0.090   0.927   0.364  0.3561  0.6636  0.4845
 5917TIP3    H117715   0.061   1.001   0.310 -1.5959  1.6721  2.7935
 5917TIP3    H217716   0.162   0.963   0.417  0.2814  0.5429  0.6691
 5918TIP3   OH217717   1.302   5.487   5.221 -0.3820 -0.5904  0.1130
 5918TIP3    H117718   1.370   5.421   5.208 -0.1291 -0.1899 -0.6146
 5918TIP3    H217719   1.226   5.454   5.174 -0.3668 -0.5304  0.0468
 5919TIP3   OH217720   1.402   5.210   5.339  0.3083 -0.8241 -0.2113
 5919TIP3    H117721   1.438   5.251   5.260 -1.5010  0.3220 -0.4792
 5919TIP3    H217722   1.466   5.228   5.407 -0.4940  2.6121 -0.2917
 5920TIP3   OH217723   0.031   3.493   4.925  0.5708 -0.0335  0.3284
 5920TIP3    H117724   0.049   3.469   4.835 -0.6153  0.2477  0.0095
 5920TIP3    H217725   0.042   3.588   4.927 -1.1178  0.1926  0.0476
 5921TIP3   OH217726   2.992   6.554   1.050  0.1513 -0.3087 -0.0664
 5921TIP3    H117727   2.960   6.500   1.123  0.4908 -2.0589 -1.1826
 5921TIP3    H217728   3.078   6.518   1.030 -0.6247 -0.9317 -2.4231
 5922TIP3   OH217729   7.410   6.213   3.524 -0.3910  0.3302 -0.2231
 5922TIP3    H117730   7.430   6.305   3.543  0.7154 -0.0676  0.5595
 5922TIP3    H217731   7.337   6.192   3.583 -0.8837  0.8084 -0.6616
 5923TIP3   OH217732   0.135   4.680   4.967 -0.2854 -0.3421 -0.0198
 5923TIP3    H117733   0.043   4.672   4.991 -0.4805 -0.8215 -0.8972
 5923TIP3    H217734   0.160   4.767   4.998 -0.5046 -0.9416  1.9262
 5924TIP3   OH217735   1.312   3.068   4.460  0.4190  0.1213  0.7365
 5924TIP3    H117736   1.360   3.092   4.380  1.5418 -2.4227  0.6029
 5924TIP3    H217737   1.309   2.973   4.458 -2.1779  0.1200  2.2367
 5925TIP3   OH217738   6.345   4.663   4.739  0.6439  0.2845  0.8045
 5925TIP3    H117739   6.336   4.746   4.693 -1.3315 -0.8480 -0.9503
 5925TIP3    H217740   6.438   4.641   4.733  0.8192  1.3572 -0.5149
 5926TIP3   OH217741   1.519   6.053   4.050 -0.6550 -0.5443 -0.1073
 5926TIP3    H117742   1.523   5.966   4.009 -0.6023  0.3331 -2.0305
 5926TIP3    H217743   1.441   6.093   4.011 -0.9584  0.0952  1.1483
 5927TIP3   OH217744   2.642   2.039   0.308  0.4196  0.1278  0.4103
 5927TIP3    H117745   2.639   1.948   0.338 -0.1891 -0.8268 -2.3636
 5927TIP3    H217746   2.550   2.062   0.296  0.6592 -0.2043 -2.4891
 5928TIP3   OH217747   0.165   3.036   5.874 -0.0348  0.1988  0.1524
 5928TIP3    H117748   0.072   3.050   5.890 -0.3071 -1.5592  0.1366
 5928TIP3    H217749   0.208   3.082   5.947 -0.9103  0.7122  0.3577
 5929TIP3   OH217750   2.397   3.993   4.933  0.1735 -0.3729  0.6575
 5929TIP3    H117751   2.399   4.020   5.025  0.2177 -0.3390  0.6463
 5929TIP3    H217752   2.407   3.898   4.936  0.5322 -0.3343  0.6685
 5930TIP3   OH217753   2.085   4.936   4.157  0.8225 -0.0542  0.2126
 5930TIP3    H117754   2.024   4.928   4.083  0.9820  1.8022 -0.1560
 5930TIP3    H217755   2.032   4.916   4.234  0.4998 -1.4051 -0.3384
 5931TIP3   OH217756   2.602   6.452   0.462  0.5692  0.1853 -0.2317
 5931TIP3    H117757   2.694   6.469   0.481  0.3278  1.2617 -0.0208
 5931TIP3    H217758   2.593   6.357   0.471  1.3171  0.2464  1.2444
 5932TIP3   OH217759   6.608   4.650   5.346 -0.2373  0.2625 -0.4553
 5932TIP3    H117760   6.668   4.724   5.335 -0.0028  0.2782  0.8833
 5932TIP3    H217761   6.539   4.666   5.282 -0.2237  1.6731 -0.1454
 5933TIP3   OH217762   4.159   6.893   0.504  0.6939  0.5904  0.2170
 5933TIP3    H117763   4.078   6.878   0.553  0.0535  2.9673 -0.0294
 5933TIP3    H217764   4.170   6.814   0.452 -1.2419  0.0435  0.5729
 5934TIP3   OH217765   2.535   2.398   5.319 -0.1161 -0.1158 -0.1548
 5934TIP3    H117766   2.520   2.341   5.243  1.0064 -0.3863 -0.1832
 5934TIP3    H217767   2.479   2.474   5.303 -1.3826 -1.0589 -0.2727
 5935TIP3   OH217768   2.606   3.354   4.889  0.9288  0.6604  0.1665
 5935TIP3    H117769   2.586   3.363   4.982  2.4810 -0.1052  0.5862
 5935TIP3    H217770   2.616   3.260   4.875 -0.7781  0.6357 -1.1175
 5936TIP3   OH217771   1.272   3.868   4.055 -0.0092  0.0153 -0.1928
 5936TIP3    H117772   1.206   3.803   4.078 -1.9593  1.6954 -0.9448
 5936TIP3    H217773   1.319   3.830   3.981  0.8029 -1.7873  1.2214
 5937TIP3   OH217774   0.180   6.389   4.664  0.1472 -0.4121 -0.0957
 5937TIP3    H117775   0.119   6.402   4.736 -0.2502 -1.9454 -0.1348
 5937TIP3    H217776   0.124   6.362   4.591  0.6011  0.6610 -0.8490
 5938TIP3   OH217777   0.394   4.517   4.391  0.0045 -0.3847 -0.0830
 5938TIP3    H117778   0.399   4.435   4.440  0.8018  0.0855  0.6360
 5938TIP3    H217779   0.304   4.548   4.404  0.1327 -0.3976  0.8786
 5939TIP3   OH217780   2.449   4.501   4.372 -0.1653  0.5644 -0.3651
 5939TIP3    H117781   2.396   4.434   4.415 -0.4261  0.7240 -0.4410
 5939TIP3    H217782   2.419   4.501   4.281  0.9187 -0.3225 -0.7414
 5940TIP3   OH217783   1.380   3.637   4.249 -0.1908 -0.3565  0.1626
 5940TIP3    H117784   1.290   3.663   4.230 -0.1869  0.6709  1.5194
 5940TIP3    H217785   1.372   3.551   4.291 -0.4741 -0.6505 -0.4839
 5941TIP3   OH217786   2.649   5.311   5.778  0.1605 -0.2251 -0.0633
 5941TIP3    H117787   2.620   5.371   5.709 -1.4899  0.5294  1.2412
 5941TIP3    H217788   2.743   5.324   5.783  0.3649 -0.5573 -2.4138
 5942TIP3   OH217789   2.028   3.408   2.458  0.5946  0.3692 -0.2407
 5942TIP3    H117790   1.986   3.489   2.429  0.1430  0.6200  1.0559
 5942TIP3    H217791   1.956   3.354   2.490  1.1053  0.2539  0.7317
 5943TIP3   OH217792   2.318   6.845   1.015 -0.2315 -0.5784 -0.0051
 5943TIP3    H117793   2.356   6.905   1.078  0.8789 -0.6170 -0.6275
 5943TIP3    H217794   2.383   6.839   0.944 -0.9932 -1.3280 -0.6621
 5944TIP3   OH217795   1.441   2.733   2.535 -0.7404 -0.7162 -0.4759
 5944TIP3    H117796   1.456   2.687   2.618 -2.2048  1.3095  0.9401
 5944TIP3    H217797   1.350   2.713   2.513 -1.3220  1.2545  0.0325
 5945TIP3   OH217798   7.057   3.905   4.170 -0.2875  0.2936  0.4641
 5945TIP3    H117799   7.101   3.989   4.175  0.1579  0.0614  0.4834
 5945TIP3    H217800   7.098   3.852   4.238  0.0296 -0.2165 -0.1174
 5946TIP3   OH217801   0.483   2.743   2.722  0.1452  0.3548 -0.5439
 5946TIP3    H117802   0.521   2.735   2.810 -0.1148 -1.8867 -0.6292
 5946TIP3    H217803   0.494   2.657   2.682 -1.1842  0.8929 -2.1457
 5947TIP3   OH217804   7.351   0.968   1.007 -0.0514 -0.1258  0.2839
 5947TIP3    H117805   7.290   0.921   0.951 -1.0097  0.2808  0.9628
 5947TIP3    H217806   7.371   0.906   1.078  0.6853 -0.4235 -0.1835
 5948TIP3   OH217807   0.087   1.309   5.601  0.4184  0.4654  0.7961
 5948TIP3    H117808   0.018   1.255   5.562  0.0709  1.5138 -0.0703
 5948TIP3    H217809   0.165   1.287   5.551  0.8798 -1.2161  2.2131
 5949TIP3   OH217810   0.286   4.510   4.740  0.0932  0.6932 -0.2022
 5949TIP3    H117811   0.316   4.585   4.688  1.7831  0.2315  0.0889
 5949TIP3    H217812   0.203   4.540   4.778 -0.7355  1.3620 -2.4243
 5950TIP3   OH217813   3.325   6.650   0.499  0.4448 -0.1451  0.2093
 5950TIP3    H117814   3.354   6.671   0.410 -0.5340  0.6021  0.0597
 5950TIP3    H217815   3.262   6.579   0.488 -0.0643  0.2996  0.2632
 5951TIP3   OH217816   3.460   6.409   0.545 -0.2356  0.1000 -0.4042
 5951TIP3    H117817   3.424   6.420   0.632 -0.7698  0.9349 -0.7306
 5951TIP3    H217818   3.463   6.497   0.508  0.9933 -0.1060 -0.8338
 5952TIP3   OH217819   0.116   2.539   5.011 -0.2275 -0.3926  0.5489
 5952TIP3    H117820   0.046   2.573   4.954 -1.1230 -1.2554  1.1113
 5952TIP3    H217821   0.130   2.609   5.075  1.1797  0.8199 -1.0394
 5953TIP3   OH217822   5.939   3.460   0.550  0.4704 -0.3026  0.5246
 5953TIP3    H117823   5.867   3.409   0.511  0.9171 -0.8994  0.4670
 5953TIP3    H217824   5.915   3.468   0.643 -0.8194  1.5134  0.0535
 5954TIP3   OH217825   3.293   5.518   1.267 -0.0973  0.3054 -0.1602
 5954TIP3    H117826   3.248   5.562   1.196 -0.5061  0.9545  0.4916
 5954TIP3    H217827   3.292   5.425   1.243  0.5128  0.6095 -1.3976
 5955TIP3   OH217828   2.821   6.493   0.853 -0.4333 -0.1616  0.4907
 5955TIP3    H117829   2.863   6.542   0.924  1.6727 -1.7827  0.4073
 5955TIP3    H217830   2.886   6.493   0.783 -1.8087 -0.0690 -0.7949
 5956TIP3   OH217831   1.699   3.756   4.269 -0.9629 -0.3291 -0.4829
 5956TIP3    H117832   1.718   3.848   4.292 -2.9298  0.1198 -0.6113
 5956TIP3    H217833   1.784   3.721   4.244  0.2183  0.8504  1.6558
 5957TIP3   OH217834   1.502   4.648   3.620 -0.4033  0.4595  0.2996
 5957TIP3    H117835   1.528   4.713   3.684  0.7181  0.3498 -0.0266
 5957TIP3    H217836   1.580   4.593   3.608  0.3453  2.1445 -3.2021
 5958TIP3   OH217837   0.502   3.229   3.834 -0.0523  0.0233  0.2097
 5958TIP3    H117838   0.535   3.143   3.808 -0.9298 -0.5924  1.0960
 5958TIP3    H217839   0.420   3.240   3.787  1.0003  1.2313 -1.4045
 5959TIP3   OH217840   0.461   3.566   5.686  0.1570 -0.7524 -0.1398
 5959TIP3    H117841   0.537   3.508   5.691  1.4798  0.9350 -0.2164
 5959TIP3    H217842   0.414   3.538   5.607 -0.1936 -2.8375  0.7694
 5960TIP3   OH217843   0.609   2.969   2.672  0.3906 -0.6480  0.1941
 5960TIP3    H117844   0.684   2.976   2.612 -0.8475  1.7513 -1.1402
 5960TIP3    H217845   0.584   2.877   2.669  0.0776 -0.5114 -3.3946
 5961TIP3   OH217846   6.364   0.458   0.561 -0.0777  0.0768 -0.0314
 5961TIP3    H117847   6.400   0.518   0.627 -0.5023  1.1940 -0.8042
 5961TIP3    H217848   6.393   0.372   0.589  0.7316  0.6671  0.9813
 5962TIP3   OH217849   2.841   3.421   3.032  0.1374  0.3503 -0.0655
 5962TIP3    H117850   2.835   3.495   2.971  1.6190 -0.0193 -0.6587
 5962TIP3    H217851   2.826   3.461   3.118 -0.1547  1.1600 -0.4804
 5963TIP3   OH217852   0.264   5.248   4.934  0.3262  0.0818  0.2480
 5963TIP3    H117853   0.346   5.240   4.885 -0.1332 -0.9213 -0.3778
 5963TIP3    H217854   0.222   5.326   4.897  0.7287  0.2710  0.1777
 5964TIP3   OH217855   6.076   3.294   5.976  0.3063 -0.4109 -0.0494
 5964TIP3    H117856   6.039   3.228   6.033 -2.0125 -0.1626 -1.1971
 5964TIP3    H217857   6.151   3.329   6.024  0.5152 -2.6303  1.2919
 5965TIP3   OH217858   1.280   3.509   4.736  0.7536  0.2333 -0.4101
 5965TIP3    H117859   1.341   3.461   4.680  1.1627 -1.4239  1.4173
 5965TIP3    H217860   1.329   3.586   4.764  1.1872  0.1109 -0.8286
 5966TIP3   OH217861   2.344   2.590   5.622 -0.2530 -0.3272 -0.2245
 5966TIP3    H117862   2.258   2.564   5.588 -0.1836  1.6336 -2.0331
 5966TIP3    H217863   2.325   2.651   5.693 -0.3755  0.6107 -1.0504
 5967TIP3   OH217864   0.276   3.982   3.469 -0.1444  0.1600 -0.0247
 5967TIP3    H117865   0.289   3.934   3.551  0.4616  0.9479  0.3475
 5967TIP3    H217866   0.185   3.962   3.445 -0.2007 -0.4060  0.6224
 5968TIP3   OH217867   0.099   2.239   5.728 -0.8870  0.5611 -0.0281
 5968TIP3    H117868   0.162   2.303   5.696  1.2113 -1.2205  0.4680
 5968TIP3    H217869   0.107   2.165   5.668 -0.0932 -1.0136  1.9371
 5969TIP3   OH217870   3.955   1.831   0.418  0.2791  0.6926 -0.2196
 5969TIP3    H117871   3.893   1.890   0.375  0.3157  1.0544  0.2262
 5969TIP3    H217872   4.022   1.815   0.352 -0.2165  0.4066 -0.6582
 5970TIP3   OH217873   6.508   3.118   2.423  0.0482  0.0173  0.0127
 5970TIP3    H117874   6.518   3.138   2.516  0.5087 -0.3950  0.0519
 5970TIP3    H217875   6.510   3.023   2.418 -0.2721  0.0308 -0.3886
 5971TIP3   OH217876   1.752   6.072   1.327  0.3391  0.0007  0.6636
 5971TIP3    H117877   1.808   6.116   1.391 -0.6702  1.1861  0.7695
 5971TIP3    H217878   1.675   6.129   1.320  0.6466  0.1322 -1.9787
 5972TIP3   OH217879   4.719   6.835   0.080  0.6542  0.6327 -0.0700
 5972TIP3    H117880   4.628   6.864   0.069  1.3786  2.9632 -0.0494
 5972TIP3    H217881   4.725   6.812   0.173  0.2548  1.0712  0.0676
 5973TIP3   OH217882   3.879   0.808   0.295  0.4329 -0.7810 -0.2892
 5973TIP3    H117883   3.899   0.789   0.386  2.3989 -1.7913 -0.9071
 5973TIP3    H217884   3.799   0.758   0.277 -0.3174 -0.0736  1.0380
 5974TIP3   OH217885   4.697   6.323   0.649 -0.6152 -0.4552 -0.2743
 5974TIP3    H117886   4.730   6.247   0.601  0.8899 -0.6604  1.0623
 5974TIP3    H217887   4.710   6.397   0.589 -1.7669 -1.1663 -1.4443
 5975TIP3   OH217888   4.589   3.647   5.760  0.0405  0.0661  0.6659
 5975TIP3    H117889   4.629   3.664   5.846 -0.1193 -0.8854  0.9316
 5975TIP3    H217890   4.496   3.635   5.779  0.3241 -2.4537  0.6911
 5976TIP3   OH217891   5.953   3.752   4.985 -0.4954 -0.1177 -0.3059
 5976TIP3    H117892   6.012   3.756   5.060 -0.5031 -1.4803 -0.2266
 5976TIP3    H217893   5.925   3.843   4.973  0.2957  0.2739  0.7037
 5977TIP3   OH217894   3.432   6.539   1.057  0.6027  0.0016  0.4374
 5977TIP3    H117895   3.527   6.552   1.049  1.1800 -2.7770  2.1756
 5977TIP3    H217896   3.394   6.623   1.032  3.5447  1.2658  0.0481
 5978TIP3   OH217897   1.073   3.302   5.722 -0.6323  0.2518 -0.2561
 5978TIP3    H117898   1.084   3.391   5.687 -0.7370  0.5214  0.3986
 5978TIP3    H217899   1.157   3.282   5.762  0.1278 -0.7935 -2.3094
 5979TIP3   OH217900   6.057   3.482   5.446  0.5651  0.2354 -0.0490
 5979TIP3    H117901   6.038   3.572   5.475 -2.9483  0.1133 -1.6727
 5979TIP3    H217902   6.000   3.427   5.499 -0.2134 -0.6542 -1.7682
 5980TIP3   OH217903   4.100   0.231   2.287  0.2061 -0.3556  0.4904
 5980TIP3    H117904   4.015   0.219   2.328 -0.5919 -1.9003 -1.5221
 5980TIP3    H217905   4.163   0.223   2.359 -1.2125 -1.8562  1.6048
 5981TIP3   OH217906   4.429   0.909   0.259 -0.7118  0.0664  0.2893
 5981TIP3    H117907   4.444   0.846   0.189 -0.2230  0.7179 -0.1931
 5981TIP3    H217908   4.505   0.900   0.317 -1.8535 -1.5559  1.5623
 5982TIP3   OH217909   6.074   2.554   3.647 -0.3090 -0.5895 -0.6063
 5982TIP3    H117910   6.125   2.477   3.622  0.6330  0.1351 -0.9120
 5982TIP3    H217911   6.119   2.588   3.724  0.0938  0.4682 -1.3021
 5983TIP3   OH217912   4.891   4.639   3.064  0.3514 -0.2049 -0.3812
 5983TIP3    H117913   4.862   4.635   3.156 -0.3257 -1.6792 -0.6401
 5983TIP3    H217914   4.948   4.715   3.060  0.2379 -0.0178  1.2352
 5984TIP3   OH217915   6.722   4.325   3.310  0.0325  0.4869 -0.1574
 5984TIP3    H117916   6.778   4.375   3.250 -1.2605 -0.2406 -2.0297
 5984TIP3    H217917   6.714   4.239   3.268 -1.8998  0.3533  0.4411
 5985TIP3   OH217918   1.908   4.619   4.743 -1.0552  0.1569 -0.7334
 5985TIP3    H117919   1.816   4.607   4.765 -1.1805 -0.8352 -1.7131
 5985TIP3    H217920   1.916   4.711   4.718 -1.1685  0.9973  2.1000
 5986TIP3   OH217921   2.591   5.507   4.095 -0.2148 -0.4520 -0.0799
 5986TIP3    H117922   2.549   5.577   4.046  1.7546 -0.1402 -1.3735
 5986TIP3    H217923   2.520   5.466   4.145 -1.4080  2.3638  0.6065
 5987TIP3   OH217924   1.921   4.603   5.286 -0.3602  0.1201 -0.3107
 5987TIP3    H117925   1.883   4.650   5.212 -2.8691 -0.0856  0.8109
 5987TIP3    H217926   2.002   4.651   5.306 -0.8754  1.5759 -1.6753
 5988TIP3   OH217927   3.903   6.061   4.616  0.2666  0.3298  0.3634
 5988TIP3    H117928   3.848   6.109   4.678  0.0692  0.7234 -0.1099
 5988TIP3    H217929   3.975   6.122   4.597 -0.0360  0.4798 -0.3147
 5989TIP3   OH217930   2.452   3.348   5.559 -0.6008  0.1285 -0.0772
 5989TIP3    H117931   2.426   3.440   5.565 -0.4697  0.1152  0.8670
 5989TIP3    H217932   2.483   3.327   5.647  0.4166 -0.5108 -0.5817
 5990TIP3   OH217933   0.668   3.451   3.801 -0.2194  0.4531 -0.4655
 5990TIP3    H117934   0.619   3.369   3.805  1.0205 -0.2557  0.5042
 5990TIP3    H217935   0.639   3.500   3.878 -0.5274  0.6887 -0.7283
 5991TIP3   OH217936   6.155   0.926   0.123  0.6130  0.6212 -0.5965
 5991TIP3    H117937   6.241   0.889   0.104  1.1629  2.0631 -0.9943
 5991TIP3    H217938   6.113   0.934   0.038  0.7725  1.5394 -0.5992
 5992TIP3   OH217939   3.201   6.495   0.067  0.1655 -0.2591  0.4273
 5992TIP3    H117940   3.233   6.533  -0.015  1.7099  1.1803  1.6800
 5992TIP3    H217941   3.129   6.553   0.094 -0.9963 -1.2892 -0.3827
 5993TIP3   OH217942   0.650   2.291   2.913  0.0430 -0.0790  0.1950
 5993TIP3    H117943   0.656   2.227   2.842  0.2548  0.9443 -0.7232
 5993TIP3    H217944   0.727   2.274   2.967 -0.3308 -1.1261  0.4188
 5994TIP3   OH217945   2.527   4.337   5.969  0.0942  0.4685  0.4375
 5994TIP3    H117946   2.443   4.337   6.014 -0.9126 -0.8810 -1.3790
 5994TIP3    H217947   2.559   4.247   5.976  0.3519  0.4583 -0.7178
 5995TIP3   OH217948   1.531   3.316   5.923 -0.3575  0.1122  0.2005
 5995TIP3    H117949   1.610   3.269   5.898 -0.3721  0.0194  0.3266
 5995TIP3    H217950   1.547   3.406   5.895 -0.8917 -0.2407 -1.2907
 5996TIP3   OH217951   4.148   5.642   4.106 -0.0330 -0.2319 -0.4280
 5996TIP3    H117952   4.086   5.574   4.079  0.1698  0.9262 -4.0817
 5996TIP3    H217953   4.208   5.650   4.031  1.7694  1.8729  1.1787
 5997TIP3   OH217954   0.645   3.572   4.047  0.0920 -0.5220  0.2759
 5997TIP3    H117955   0.657   3.641   4.112  1.8540  0.7187 -1.2940
 5997TIP3    H217956   0.551   3.559   4.041 -0.3888  2.8408 -0.4595
 5998TIP3   OH217957   0.546   4.155   5.080 -0.0774  0.3912  0.0166
 5998TIP3    H117958   0.465   4.109   5.102 -0.8995  1.2491 -1.1422
 5998TIP3    H217959   0.518   4.228   5.026  1.5784  0.1408 -1.2214
 5999TIP3   OH217960   2.754   3.348   5.680 -0.4109  0.1498  0.7700
 5999TIP3    H117961   2.734   3.302   5.598  1.5852  3.3570 -1.6378
 5999TIP3    H217962   2.850   3.351   5.683 -0.4770  2.6429  1.6532
 6000TIP3   OH217963   4.046   4.785   4.651 -0.6626  0.1746  0.0486
 6000TIP3    H117964   4.141   4.786   4.640 -0.5175  0.9236  1.2427
 6000TIP3    H217965   4.014   4.733   4.577  0.6333  0.2969 -0.6185
 6001TIP3   OH217966   2.898   7.003   0.561  0.5923 -0.3783 -0.3327
 6001TIP3    H117967   2.957   6.928   0.556  0.0292 -0.9223  0.9951
 6001TIP3    H217968   2.848   6.989   0.641 -1.1232  0.2452 -1.2719
 6002TIP3   OH217969   5.213  -0.030   0.323 -0.2648  0.7984 -0.5733
 6002TIP3    H117970   5.226   0.034   0.254 -1.5352  0.0144 -1.5675
 6002TIP3    H217971   5.272  -0.002   0.393 -0.2182  2.5772 -1.2929
 6003TIP3   OH217972   7.240   3.254   4.284  0.0589  0.3532 -0.4528
 6003TIP3    H117973   7.240   3.164   4.314 -0.7700  0.6021  0.3027
 6003TIP3    H217974   7.261   3.306   4.361 -4.0599  1.1494  0.2656
 6004TIP3   OH217975   3.845   4.868   6.060  0.4000  0.1733  0.9271
 6004TIP3    H117976   3.906   4.801   6.028 -0.9543 -1.3418  1.4685
 6004TIP3    H217977   3.821   4.918   5.982  0.4036 -0.8130  0.2834
 6005TIP3   OH217978   1.540   3.918   4.447  0.4945  0.0592 -0.6033
 6005TIP3    H117979   1.523   3.977   4.374 -0.1950 -0.4419 -0.8514
 6005TIP3    H217980   1.538   3.975   4.524 -0.6725  0.2825 -0.7905
 6006TIP3   OH217981   1.062   3.858   5.864 -0.1140  0.0620  0.4365
 6006TIP3    H117982   0.978   3.832   5.902 -1.9469  1.9896 -2.1241
 6006TIP3    H217983   1.062   3.819   5.776  0.7043  1.8547 -0.3800
 6007TIP3   OH217984   5.039   3.902   0.127  0.3647  0.2174  0.0593
 6007TIP3    H117985   5.017   3.949   0.047  0.2770  0.5598  0.2836
 6007TIP3    H217986   5.129   3.930   0.148  0.6586 -0.4291 -0.3170
 6008TIP3   OH217987   1.707   3.471   3.679  0.7257 -0.4601  0.1271
 6008TIP3    H117988   1.787   3.515   3.652  0.4726  0.2436  0.5080
 6008TIP3    H217989   1.673   3.525   3.750 -1.0074  0.2233 -1.1814
 6009TIP3   OH217990   3.982   4.834   0.887  0.1518 -0.3522 -0.0821
 6009TIP3    H117991   3.994   4.764   0.822 -0.0827  0.2049 -0.7276
 6009TIP3    H217992   3.969   4.787   0.969  1.0301 -1.0559 -0.3344
 6010TIP3   OH217993   6.303   4.208   5.435  0.7671 -0.1371 -0.1942
 6010TIP3    H117994   6.321   4.300   5.454 -2.1535  0.0254  2.0529
 6010TIP3    H217995   6.327   4.161   5.514  1.4928 -1.2337 -1.0436
 6011TIP3   OH217996   7.354   1.701   1.224 -0.1300  0.3846  0.3037
 6011TIP3    H117997   7.401   1.766   1.172  0.2652  1.1661  1.6127
 6011TIP3    H217998   7.402   1.698   1.307 -0.7358 -0.8611  0.6218
 6012TIP3   OH217999   2.275   4.117   5.817  0.0567  0.0286  0.0258
 6012TIP3    H118000   2.210   4.180   5.849  1.6243  1.7620 -0.1030
 6012TIP3    H218001   2.265   4.119   5.722  0.1491  0.1337  0.0182
 6013TIP3   OH218002   6.590   4.563   4.704  0.4529 -0.5480 -0.1495
 6013TIP3    H118003   6.638   4.628   4.652  0.3046 -0.2985  0.0269
 6013TIP3    H218004   6.627   4.479   4.677  1.1589 -0.3385  0.1676
 6014TIP3   OH218005   3.762   6.215   2.089 -0.0109  0.4194  0.1949
 6014TIP3    H118006   3.719   6.231   2.005  0.9590 -0.5196 -0.5037
 6014TIP3    H218007   3.696   6.235   2.154 -1.2288 -0.1881 -0.8365
 6015TIP3   OH218008   6.810   3.827   5.408 -0.1113  0.1744  0.0158
 6015TIP3    H118009   6.825   3.895   5.343 -1.3509 -1.2863 -1.8720
 6015TIP3    H218010   6.891   3.775   5.408 -0.7870 -0.9503 -1.8207
 6016TIP3   OH218011   3.243   2.438   4.342  0.0119 -0.4218  0.5824
 6016TIP3    H118012   3.234   2.482   4.258 -0.2010 -0.6336  0.4936
 6016TIP3    H218013   3.303   2.493   4.392  1.7626 -1.3641 -0.4405
 6017TIP3   OH218014   0.939   5.682   4.162  0.3542 -0.2632 -0.2356
 6017TIP3    H118015   0.845   5.662   4.160 -0.4234  2.9684  1.1401
 6017TIP3    H218016   0.956   5.725   4.078  0.2771  0.5263  0.1556
 6018TIP3   OH218017   0.334   1.339   3.081 -0.0658 -0.5144  0.2992
 6018TIP3    H118018   0.335   1.287   3.161 -1.9567  0.5302  1.0270
 6018TIP3    H218019   0.427   1.350   3.059  0.4551 -1.4230  1.9341
 6019TIP3   OH218020   0.658   1.825   5.952 -0.2422 -0.0271  0.0388
 6019TIP3    H118021   0.641   1.917   5.929  0.6104  0.3208  0.7646
 6019TIP3    H218022   0.596   1.807   6.022 -0.6417 -0.1101 -0.3328
 6020TIP3   OH218023   1.924   3.911   5.513  0.0987 -0.2791 -0.8377
 6020TIP3    H118024   1.866   3.979   5.550 -0.2172  0.0767 -1.9586
 6020TIP3    H218025   1.882   3.886   5.431  0.6661 -1.2362 -0.8444
 6021TIP3   OH218026   1.999   2.543   5.024 -0.1644 -0.3428  0.0774
 6021TIP3    H118027   2.000   2.512   4.933  0.4022 -0.6045  0.1739
 6021TIP3    H218028   1.907   2.564   5.041 -0.2201  0.0202 -0.6662
 6022TIP3   OH218029   2.336   2.943   4.952 -0.0560 -0.5442  0.0637
 6022TIP3    H118030   2.339   2.861   5.001 -1.5274 -1.4813 -1.3532
 6022TIP3    H218031   2.411   2.993   4.985  1.1867 -2.6578  0.5707
 6023TIP3   OH218032   0.212   2.592   5.933 -0.1122 -0.0681 -0.2267
 6023TIP3    H118033   0.228   2.637   6.016 -1.7232  1.1912 -0.5751
 6023TIP3    H218034   0.252   2.506   5.944  0.9325  0.5942  1.3281
 6024TIP3   OH218035   7.014   2.193   3.825 -0.3947  0.6310  0.2243
 6024TIP3    H118036   7.032   2.128   3.757 -2.4987  0.6112 -0.3462
 6024TIP3    H218037   7.099   2.233   3.843  0.7592 -1.6774 -0.0283
 6025TIP3   OH218038   0.067   6.367   3.757  0.7123  0.3970 -0.1247
 6025TIP3    H118039  -0.025   6.376   3.782  0.9311 -0.6221  1.0946
 6025TIP3    H218040   0.101   6.456   3.759 -0.1010  0.7102  0.0062
 6026TIP3   OH218041   5.941   0.206   1.348 -0.0548 -0.4881 -0.2700
 6026TIP3    H118042   5.887   0.202   1.427 -1.3633 -1.5463 -1.1954
 6026TIP3    H218043   5.878   0.213   1.276  0.9917 -2.1269 -1.3896
 6027TIP3   OH218044   2.887   5.606   0.976 -0.3375 -0.8678  0.3409
 6027TIP3    H118045   2.825   5.662   1.023  0.6753  1.1381 -0.6142
 6027TIP3    H218046   2.834   5.533   0.944 -2.0274  0.3253  0.3163
 6028TIP3   OH218047   1.483   2.004   2.649  0.2536  0.1016  0.4412
 6028TIP3    H118048   1.538   2.001   2.727  0.4356 -1.5429  0.2689
 6028TIP3    H218049   1.432   1.923   2.653  1.7459 -1.0445 -2.1827
 6029TIP3   OH218050   3.009   4.014   4.710 -0.5652  0.6667 -0.4826
 6029TIP3    H118051   3.035   4.084   4.649  1.4957 -0.9650 -1.5493
 6029TIP3    H218052   3.010   4.056   4.796  0.7571  1.9596 -1.0937
 6030TIP3   OH218053   5.873   1.525   0.259  0.3406 -0.8580 -0.2312
 6030TIP3    H118054   5.793   1.473   0.250  0.3914 -1.0549  0.4671
 6030TIP3    H218055   5.863   1.595   0.194  0.4549 -1.9503 -1.4631
 6031TIP3   OH218056   6.986   0.201   1.687  0.5520 -0.5786  0.0027
 6031TIP3    H118057   6.932   0.247   1.751  0.1870 -0.4655 -0.3803
 6031TIP3    H218058   7.076   0.229   1.707  0.5306 -1.2792  1.0469
 6032TIP3   OH218059   3.256   4.495   2.887  0.1943 -0.3439  0.4374
 6032TIP3    H118060   3.334   4.518   2.937 -0.2994  0.1239  0.9996
 6032TIP3    H218061   3.213   4.579   2.869 -0.4770 -0.6395  0.6275
 6033TIP3   OH218062   7.166   4.498   3.388 -0.3071  0.2157  0.0443
 6033TIP3    H118063   7.178   4.428   3.451 -0.8098  0.7272  0.7229
 6033TIP3    H218064   7.193   4.461   3.304  1.1162 -0.2104  0.6875
 6034TIP3   OH218065   3.027   4.250   4.562 -0.1215  0.5016  0.7096
 6034TIP3    H118066   3.045   4.336   4.600  1.6429  1.1990 -1.5924
 6034TIP3    H218067   2.968   4.267   4.489 -0.6644 -0.3687  0.9418
 6035TIP3   OH218068   2.738   4.339   3.499  0.2931 -0.1009  0.3768
 6035TIP3    H118069   2.827   4.308   3.514  0.3004  0.3310  1.2792
 6035TIP3    H218070   2.711   4.297   3.418  1.6869  0.5410 -0.4466
 6036TIP3   OH218071   2.888   2.947   2.208  0.4628 -0.1329  0.2368
 6036TIP3    H118072   2.886   2.929   2.302  0.2130  1.5956  0.5858
 6036TIP3    H218073   2.798   2.975   2.187  0.6048 -0.1770 -0.4570
 6037TIP3   OH218074   2.860   4.758   5.247  0.4926  0.2511 -0.3636
 6037TIP3    H118075   2.877   4.732   5.337  0.0529 -0.4773 -0.4883
 6037TIP3    H218076   2.919   4.703   5.195 -0.4466 -0.5297 -0.6270
 6038TIP3   OH218077   5.592   3.766   2.764 -0.0484  0.0966 -0.2731
 6038TIP3    H118078   5.667   3.791   2.818 -1.5855  0.7350  1.6476
 6038TIP3    H218079   5.605   3.672   2.747  0.4846 -0.1110  1.2049
 6039TIP3   OH218080   3.441   2.363   4.996 -0.3746 -0.5205 -0.3959
 6039TIP3    H118081   3.363   2.312   5.020 -0.7857  0.5785  0.7208
 6039TIP3    H218082   3.509   2.332   5.056 -0.2314 -0.7611 -0.6823
 6040TIP3   OH218083   2.726   2.663   5.449  0.0348  0.8914  0.0514
 6040TIP3    H118084   2.780   2.736   5.481  0.7272 -0.2524  1.5491
 6040TIP3    H218085   2.697   2.618   5.529  1.1378 -1.5554 -0.8819
 6041TIP3   OH218086   5.185   4.439   4.671 -0.4836  0.2498 -0.2946
 6041TIP3    H118087   5.144   4.395   4.745 -0.3381 -1.1853 -1.0538
 6041TIP3    H218088   5.262   4.385   4.650 -1.0970  0.0495 -2.1264
 6042TIP3   OH218089   0.626   3.844   3.627 -0.1094 -0.0758 -0.7340
 6042TIP3    H118090   0.577   3.844   3.709 -1.2249 -0.7333 -1.3899
 6042TIP3    H218091   0.642   3.936   3.609  0.7564  0.0520  0.5748
 6043TIP3   OH218092   4.450   4.899   5.758 -0.1816 -0.0256  0.1601
 6043TIP3    H118093   4.384   4.917   5.691 -0.5690  1.8675  1.0115
 6043TIP3    H218094   4.528   4.947   5.729  0.0380 -0.2203  0.4210
 6044TIP3   OH218095   3.645   5.047   4.897  0.2816  0.0293 -0.2603
 6044TIP3    H118096   3.631   5.142   4.891 -0.9928 -0.0796  0.7261
 6044TIP3    H218097   3.591   5.020   4.971  1.2992 -1.3452 -0.0139
 6045TIP3   OH218098   2.215   2.046   4.105 -0.2569 -0.1624 -0.6374
 6045TIP3    H118099   2.180   2.132   4.084 -0.8901  0.3021  2.1580
 6045TIP3    H218100   2.309   2.061   4.116 -0.5568  0.4454  1.1608
 6046TIP3   OH218101   3.014   4.156   2.265  0.3012  0.0310  0.4473
 6046TIP3    H118102   3.109   4.154   2.275  0.0990  0.6454  2.7639
 6046TIP3    H218103   3.000   4.163   2.170  2.5519  0.0801  0.0898
 6047TIP3   OH218104   2.626   3.605   5.570  0.1921 -0.1190 -0.2523
 6047TIP3    H118105   2.561   3.641   5.630 -0.4799 -1.5396 -0.1252
 6047TIP3    H218106   2.680   3.548   5.624 -0.0452 -0.9357 -0.8765
 6048TIP3   OH218107   2.519   3.257   3.215 -0.9118  0.0547 -0.1589
 6048TIP3    H118108   2.560   3.202   3.149 -2.4851 -0.9398 -0.3290
 6048TIP3    H218109   2.517   3.345   3.176  1.2959  0.2108 -0.0139
 6049TIP3   OH218110   1.618   2.740   4.384 -0.3768 -0.6299 -0.2146
 6049TIP3    H118111   1.556   2.744   4.311  1.5337 -1.0363 -1.8989
 6049TIP3    H218112   1.563   2.720   4.460 -2.3420 -0.7713 -1.6196
 6050TIP3   OH218113   3.584   3.966   5.342 -0.4438  0.0328 -0.2788
 6050TIP3    H118114   3.498   3.997   5.314 -0.0301  1.2083 -0.2759
 6050TIP3    H218115   3.566   3.884   5.386 -1.5098 -0.0039 -0.7536
 6051TIP3   OH218116   1.725   2.381   5.302 -0.2615 -0.1614 -0.7275
 6051TIP3    H118117   1.758   2.418   5.220  0.2873  0.7460 -0.0982
 6051TIP3    H218118   1.800   2.379   5.360 -0.6814 -0.6874 -0.1929
 6052TIP3   OH218119   1.065   4.169   3.370 -0.2606  0.1275  0.0160
 6052TIP3    H118120   1.019   4.085   3.372  0.1417 -0.1171 -0.7986
 6052TIP3    H218121   1.054   4.204   3.459 -3.7009  1.0083 -0.6668
 6053TIP3   OH218122   4.580   4.136   4.443 -0.1209 -0.4955 -0.5852
 6053TIP3    H118123   4.583   4.047   4.478  0.0183 -0.4353 -0.4395
 6053TIP3    H218124   4.490   4.148   4.413 -0.2552 -0.5353 -0.2048
 6054TIP3   OH218125   3.911   2.697   4.605  0.1338  0.6219  0.1202
 6054TIP3    H118126   4.000   2.665   4.590 -0.0738 -0.1134  0.4299
 6054TIP3    H218127   3.917   2.791   4.593  0.5027  0.3343 -2.0246
 6055TIP3   OH218128   2.540   6.851   3.153 -0.1242  0.4087  0.7644
 6055TIP3    H118129   2.577   6.764   3.164 -1.8081 -0.2846  1.1037
 6055TIP3    H218130   2.579   6.883   3.072  1.1469 -0.3102  1.0706
 6056TIP3   OH218131   2.883   3.417   1.695 -0.0452 -0.0891 -0.1876
 6056TIP3    H118132   2.799   3.381   1.665 -0.3552 -0.5530  1.1827
 6056TIP3    H218133   2.870   3.431   1.789  0.8284  1.5035 -0.2807
 6057TIP3   OH218134   3.090   5.274   5.756  0.4637 -0.1749 -0.6738
 6057TIP3    H118135   2.998   5.277   5.784  0.7922  1.4102  0.2565
 6057TIP3    H218136   3.102   5.354   5.704  1.9890  0.9474  1.3594
 6058TIP3   OH218137   3.698   4.532   3.340 -0.0291 -0.4260  0.0967
 6058TIP3    H118138   3.775   4.485   3.307 -0.0755  0.3402 -1.1126
 6058TIP3    H218139   3.658   4.470   3.402  1.5180 -0.8528  0.7150
 6059TIP3   OH218140   3.605   4.611   3.087 -0.0167 -0.4655  0.2214
 6059TIP3    H118141   3.519   4.646   3.111 -0.6527 -1.9329  0.1608
 6059TIP3    H218142   3.646   4.590   3.170  0.4487  0.6028  0.2659
 6060TIP3   OH218143   3.066   4.775   3.666  0.3028  0.3336  0.1468
 6060TIP3    H118144   3.016   4.748   3.589  0.3772 -0.9356  0.5291
 6060TIP3    H218145   3.001   4.813   3.725  0.3187  1.6971 -0.7242
 6061TIP3   OH218146   2.556   3.669   3.469  0.1800 -0.2698 -0.9451
 6061TIP3    H118147   2.577   3.579   3.493 -0.9729  0.0550  1.4559
 6061TIP3    H218148   2.462   3.677   3.483  0.2439  1.2558 -1.2222
 6062TIP3   OH218149   3.041   4.372   4.975  0.3411  0.3803  0.2610
 6062TIP3    H118150   3.099   4.409   4.908  0.1221 -0.4285 -0.3761
 6062TIP3    H218151   2.953   4.378   4.938  0.4182 -1.7794 -0.3095
 6063TIP3   OH218152   0.701   3.823   4.157 -0.3152  0.0864 -0.1152
 6063TIP3    H118153   0.677   3.817   4.249  0.0078 -0.5780 -0.0723
 6063TIP3    H218154   0.724   3.915   4.144  0.6684 -0.0336  0.7263
 6064TIP3   OH218155   3.756   2.640   4.370  0.1047  0.3146  0.2727
 6064TIP3    H118156   3.772   2.561   4.318 -1.3037 -0.3672  0.8588
 6064TIP3    H218157   3.810   2.628   4.448  1.2104  0.7313 -0.4180
 6065TIP3   OH218158   4.453   6.643   4.016  0.1885  0.4710 -0.4825
 6065TIP3    H118159   4.484   6.622   3.928  0.7183 -0.5055 -0.0695
 6065TIP3    H218160   4.453   6.559   4.062 -1.4836  0.7325  0.0197
 6066TIP3   OH218161   1.718   1.255   0.167 -0.1063  0.2865 -0.8725
 6066TIP3    H118162   1.671   1.172   0.170  0.1788  0.0981 -1.4596
 6066TIP3    H218163   1.737   1.268   0.074  1.1407  0.2733 -0.6222
 6067TIP3   OH218164   1.388   2.411   2.220  0.1193 -0.2208  0.0163
 6067TIP3    H118165   1.303   2.387   2.184 -0.2933  0.4485  0.5365
 6067TIP3    H218166   1.413   2.490   2.172  1.9226 -2.1710 -2.3836
 6068TIP3   OH218167   3.560   5.199   5.283  0.4982  0.0088 -0.5426
 6068TIP3    H118168   3.492   5.234   5.341  1.2989 -0.3359  0.6091
 6068TIP3    H218169   3.642   5.227   5.322  1.1204 -2.1551 -0.2403
 6069TIP3   OH218170   2.638   4.996   4.916  0.2384 -0.2830 -0.2803
 6069TIP3    H118171   2.639   5.087   4.885  0.8615  0.0876  0.8075
 6069TIP3    H218172   2.675   5.001   5.004 -2.4440 -1.1655  0.9658
 6070TIP3   OH218173   3.828   4.369   4.124 -0.0593 -0.4736  0.2651
 6070TIP3    H118174   3.766   4.364   4.197 -0.9884 -0.2710 -0.5037
 6070TIP3    H218175   3.914   4.352   4.165 -0.5257 -0.0476  1.4523
 6071TIP3   OH218176   1.459   3.360   2.640  0.4063  0.5614  0.0214
 6071TIP3    H118177   1.544   3.362   2.685  0.2845 -1.4771  0.4118
 6071TIP3    H218178   1.395   3.346   2.710 -0.3618  2.8862 -0.1752
 6072TIP3   OH218179   6.159   1.545   0.244  0.2362  0.2656  0.1536
 6072TIP3    H118180   6.064   1.535   0.242  0.3043 -0.6956  1.2988
 6072TIP3    H218181   6.173   1.640   0.236 -0.8367  0.4682  0.5651
 6073TIP3   OH218182   0.705   3.377   6.011 -0.1654 -0.2462 -0.0873
 6073TIP3    H118183   0.667   3.465   6.013 -0.3683 -0.2986 -1.0395
 6073TIP3    H218184   0.663   3.330   6.083 -1.9007 -0.2908 -1.0979
 6074TIP3   OH218185   4.440   6.098   4.224 -0.1706 -0.5368  0.0745
 6074TIP3    H118186   4.453   6.004   4.215  1.2568 -0.1764 -2.2091
 6074TIP3    H218187   4.361   6.116   4.172 -0.5720 -0.4918  0.6932
 6075TIP3   OH218188   2.186   4.889   5.252  0.1149  0.2647  0.1007
 6075TIP3    H118189   2.166   4.818   5.313  0.9766 -0.5269 -0.5322
 6075TIP3    H218190   2.163   4.855   5.166 -0.1861  1.0353 -0.1344
 6076TIP3   OH218191   1.441   4.813   3.385 -0.1893  0.1690  0.3547
 6076TIP3    H118192   1.448   4.758   3.463  0.8468  1.8456  1.4809
 6076TIP3    H218193   1.347   4.822   3.370 -0.4316  0.9526  2.2412
 6077TIP3   OH218194   2.171   3.046   3.184  0.1009 -0.4035 -0.4066
 6077TIP3    H118195   2.240   3.086   3.130  0.2040  0.7541  0.5644
 6077TIP3    H218196   2.113   3.119   3.206 -0.1351 -0.9321  0.7556
 6078TIP3   OH218197   1.454   5.085   0.820  0.0141 -0.1682  0.1336
 6078TIP3    H118198   1.494   5.092   0.733 -1.9692 -0.6851 -0.8590
 6078TIP3    H218199   1.528   5.077   0.880  1.3928 -0.9847 -1.6247
 6079TIP3   OH218200   4.588   6.564   2.107  0.0886  0.0437 -0.5482
 6079TIP3    H118201   4.598   6.656   2.132  1.1558  0.0175 -0.8870
 6079TIP3    H218202   4.542   6.568   2.023  0.8467  0.3004 -0.9570
 6080TIP3   OH218203   5.721   6.579   0.949 -1.1602  0.3081  0.5553
 6080TIP3    H118204   5.728   6.635   0.872  0.4928 -0.6019  0.0094
 6080TIP3    H218205   5.765   6.628   1.018  0.8131 -0.5157 -0.0671
 6081TIP3   OH218206   6.640   5.833   5.457  0.4951 -0.2998 -0.2850
 6081TIP3    H118207   6.609   5.796   5.539 -0.4983  1.8519  0.3293
 6081TIP3    H218208   6.728   5.796   5.445 -0.3077 -2.4954  0.4969
 6082TIP3   OH218209   2.438   0.920   5.469 -0.7979 -0.3893 -0.5973
 6082TIP3    H118210   2.393   0.930   5.385  0.3140  0.7190 -1.0665
 6082TIP3    H218211   2.505   0.854   5.453  0.0698  0.5366 -0.8733
 6083TIP3   OH218212   3.523   5.748   0.102 -0.2415 -0.2767  0.0089
 6083TIP3    H118213   3.538   5.797   0.021 -0.9715  0.3829  0.2681
 6083TIP3    H218214   3.604   5.758   0.152 -0.3213  0.5059 -0.0209
 6084TIP3   OH218215   4.953   4.438   5.060 -0.5871  0.2384 -0.6351
 6084TIP3    H118216   4.952   4.527   5.094  0.2818  0.3543 -0.9006
 6084TIP3    H218217   4.945   4.448   4.965 -1.4035 -0.0138 -0.6033
 6085TIP3   OH218218   3.308   2.532   0.772  0.3702 -0.0349 -0.2750
 6085TIP3    H118219   3.315   2.457   0.830  1.2441 -0.2958 -0.7111
 6085TIP3    H218220   3.398   2.556   0.751  0.0862  0.5790 -0.8533
 6086TIP3   OH218221   1.962   3.198   5.120  0.3763  0.3894 -0.1270
 6086TIP3    H118222   1.948   3.292   5.115 -0.6878  0.1907 -1.2940
 6086TIP3    H218223   1.943   3.166   5.031  4.4214 -0.4622 -0.7651
 6087TIP3   OH218224   2.353   3.484   4.786  0.2364  0.2439  0.1145
 6087TIP3    H118225   2.321   3.459   4.699  0.0407 -0.1295  0.2917
 6087TIP3    H218226   2.446   3.465   4.783  0.4087  1.1402 -0.3350
 6088TIP3   OH218227   2.344   5.109   4.856 -0.3005 -0.3166 -0.3862
 6088TIP3    H118228   2.400   5.094   4.932 -1.2579 -1.3516  0.1333
 6088TIP3    H218229   2.360   5.034   4.799 -0.5663 -0.2115 -0.5983
 6089TIP3   OH218230   0.713   2.733   5.157  0.4865 -0.1535  0.3768
 6089TIP3    H118231   0.700   2.640   5.175 -2.0017  0.4018  1.6412
 6089TIP3    H218232   0.794   2.756   5.203  2.0313 -2.0453 -1.3323
 6090TIP3   OH218233   5.398   3.693   5.628  0.2357  0.5910  0.5014
 6090TIP3    H118234   5.369   3.620   5.575  0.4652  0.0608  1.1036
 6090TIP3    H218235   5.448   3.653   5.699 -2.5573  1.0389  2.7982
 6091TIP3   OH218236   1.019   3.385   5.220  0.1113  0.1936  0.1548
 6091TIP3    H118237   0.935   3.368   5.178  0.0186  0.6500  0.1619
 6091TIP3    H218238   0.999   3.443   5.294  0.3104 -0.3745  0.6643
 6092TIP3   OH218239   3.006   4.732   4.816 -0.0014  0.5961 -0.0740
 6092TIP3    H118240   3.059   4.806   4.786  0.7127 -0.2282 -0.8761
 6092TIP3    H218241   3.027   4.724   4.909  1.6273  0.0288 -0.4599
 6093TIP3   OH218242   1.648   2.670   4.658  0.4037 -0.0915 -0.8852
 6093TIP3    H118243   1.740   2.684   4.678  0.3011  1.6243 -1.5163
 6093TIP3    H218244   1.635   2.575   4.667  2.0342 -0.2447 -0.0392
 6094TIP3   OH218245   1.369   0.875   3.858  0.3109 -0.1232  0.4523
 6094TIP3    H118246   1.440   0.813   3.842  0.5239  0.9667 -3.1404
 6094TIP3    H218247   1.411   0.960   3.863 -0.5225  0.2965  0.4270
 6095TIP3   OH218248   2.712   4.118   3.694  0.5560  0.4765  0.2850
 6095TIP3    H118249   2.782   4.180   3.674  0.0625  1.3128  1.1031
 6095TIP3    H218250   2.686   4.139   3.784 -0.3679 -0.1933  0.1814
 6096TIP3   OH218251   3.690   4.017   4.572  0.0025 -0.2536  0.1924
 6096TIP3    H118252   3.640   4.081   4.623  1.2993  0.5088  0.5453
 6096TIP3    H218253   3.782   4.038   4.592  0.5063 -0.5226 -1.7561
 6097TIP3   OH218254   2.028   3.490   5.118  0.1437  0.1468 -0.0425
 6097TIP3    H118255   2.089   3.536   5.175  0.2435  0.9110 -0.7551
 6097TIP3    H218256   1.947   3.540   5.123 -0.0557 -0.1677 -0.0505
 6098TIP3   OH218257   4.054   3.451   5.752 -0.5659  0.0320 -0.0214
 6098TIP3    H118258   4.018   3.537   5.730  0.8987  0.4288 -0.9246
 6098TIP3    H218259   4.018   3.431   5.839 -1.0938  1.4488  0.0929
 6099TIP3   OH218260   0.949   5.062   2.873  0.4717 -0.8707 -0.5481
 6099TIP3    H118261   0.997   5.131   2.919  0.0019 -0.8821 -0.0356
 6099TIP3    H218262   0.986   4.981   2.905  0.0651 -0.8808 -0.0951
 6100TIP3   OH218263   4.654   4.591   4.311 -0.1714 -0.2770  0.0755
 6100TIP3    H118264   4.677   4.668   4.362 -0.6469  0.6736 -1.1271
 6100TIP3    H218265   4.625   4.527   4.376 -0.3315  0.7527  1.0315
 6101TIP3   OH218266   4.610   5.360   5.190 -0.0808 -0.1963  0.5528
 6101TIP3    H118267   4.644   5.438   5.233  0.2887 -0.2621  0.3798
 6101TIP3    H218268   4.521   5.350   5.225  0.5472 -0.7821  1.9860
 6102TIP3   OH218269   2.882   3.344   3.457 -0.1966  0.2369 -0.5085
 6102TIP3    H118270   2.869   3.346   3.552 -0.7760 -0.6544 -0.5660
 6102TIP3    H218271   2.953   3.280   3.443 -1.0729 -0.6932 -0.7719
 6103TIP3   OH218272   2.556   3.371   5.148  0.4213  0.3846  0.3874
 6103TIP3    H118273   2.556   3.442   5.212 -2.7844  0.5601  0.3050
 6103TIP3    H218274   2.513   3.298   5.192 -0.6872  0.1001 -1.0871
 6104TIP3   OH218275   2.856   5.372   3.689 -0.0890 -0.2382  0.3596
 6104TIP3    H118276   2.777   5.367   3.741 -0.0165  0.1374  0.5055
 6104TIP3    H218277   2.827   5.355   3.599 -0.1787 -1.1071  0.5538
 6105TIP3   OH218278   4.460   4.094   4.744 -0.2947  0.4602  0.4960
 6105TIP3    H118279   4.479   4.129   4.657  0.0645  1.3452  0.9266
 6105TIP3    H218280   4.389   4.149   4.777 -0.3610  0.1926  0.8042
 6106TIP3   OH218281   4.543   4.532   3.811  0.1755 -0.2690  0.0638
 6106TIP3    H118282   4.572   4.451   3.769 -2.5956 -0.3119 -1.8785
 6106TIP3    H218283   4.555   4.600   3.745 -0.5143  0.3591  0.5723
 6107TIP3   OH218284   2.619   4.744   4.233  0.2448  0.1974 -0.4672
 6107TIP3    H118285   2.549   4.802   4.202  0.7001  1.4243  0.7330
 6107TIP3    H218286   2.575   4.665   4.261 -0.6391  0.8399 -0.0277
 6108TIP3   OH218287   2.999   5.158   5.416 -0.2771  0.0069  0.1306
 6108TIP3    H118288   3.076   5.209   5.445 -0.4777  1.0576 -1.1410
 6108TIP3    H218289   2.926   5.218   5.426 -0.5119 -0.0066 -1.4581
 6109TIP3   OH218290   2.453   4.911   3.553 -0.4137 -0.3761 -0.0409
 6109TIP3    H118291   2.422   4.858   3.627 -0.8300 -0.7196 -0.4599
 6109TIP3    H218292   2.465   4.998   3.589 -0.5911 -0.5521  0.4428
 6110TIP3   OH218293   4.412   6.045   4.643 -0.0118 -0.1584 -0.1857
 6110TIP3    H118294   4.401   6.124   4.591  2.7053 -0.4846 -1.3269
 6110TIP3    H218295   4.375   5.975   4.589 -0.7169  0.0569  0.0151
 6111TIP3   OH218296   4.540   4.700   5.473  0.6387  0.2630  0.2640
 6111TIP3    H118297   4.501   4.710   5.560 -0.0503  1.0378 -0.1275
 6111TIP3    H218298   4.544   4.606   5.458 -0.2516  0.1611  0.6785
 6112TIP3   OH218299   3.929   4.990   2.654  0.1936 -0.2464  0.6180
 6112TIP3    H118300   3.944   4.925   2.586 -0.2113 -0.3533  0.6340
 6112TIP3    H218301   3.923   5.073   2.606  2.5596  0.0471  0.7475
 6113TIP3   OH218302   3.979   5.160   4.150 -0.6257 -0.4084  0.1533
 6113TIP3    H118303   4.013   5.113   4.226  0.0909 -1.5907 -0.8873
 6113TIP3    H218304   3.884   5.159   4.162 -0.5161 -0.5200  1.0651
 6114TIP3   OH218305   2.641   4.436   2.134  0.0321 -0.0981 -0.5633
 6114TIP3    H118306   2.663   4.481   2.215 -0.8585  1.0829 -0.9609
 6114TIP3    H218307   2.699   4.475   2.068 -3.3050  3.2730 -1.6854
 6115TIP3   OH218308   2.950   4.324   1.785 -0.5534 -0.3143  0.0761
 6115TIP3    H118309   2.869   4.288   1.749 -0.8951  1.4773 -1.0249
 6115TIP3    H218310   3.017   4.301   1.721 -0.8087  1.1122 -0.7393
 6116TIP3   OH218311   4.183   6.141   4.084  0.9089 -0.3951  0.6172
 6116TIP3    H118312   4.139   6.057   4.077  1.1640 -0.4934  0.1670
 6116TIP3    H218313   4.251   6.138   4.016 -0.7577  1.1901 -1.1612
 6117TIP3   OH218314   0.097   4.674   3.609 -0.0110  0.5831 -0.0309
 6117TIP3    H118315   0.099   4.579   3.625  0.1029  0.5127 -0.4805
 6117TIP3    H218316   0.005   4.697   3.618  0.0388  0.5369  0.7046
 6118TIP3   OH218317   3.837   4.500   3.608  0.1804 -0.5679 -0.5182
 6118TIP3    H118318   3.864   4.477   3.697  1.0671 -0.0078 -0.6355
 6118TIP3    H218319   3.747   4.530   3.617  0.0946 -1.0009  0.1142
 6119TIP3   OH218320   1.794   2.440   0.201 -0.6969  0.0077 -0.8463
 6119TIP3    H118321   1.747   2.357   0.205 -0.5802 -0.0573 -0.8136
 6119TIP3    H218322   1.747   2.498   0.261  0.6636 -0.7628  1.0457
 6120TIP3   OH218323   7.315   2.250   1.536 -0.8181 -0.5300 -0.5852
 6120TIP3    H118324   7.404   2.281   1.549 -1.3991  0.4929  1.2147
 6120TIP3    H218325   7.308   2.172   1.591 -0.9736 -0.7433 -0.9026
 6121TIP3   OH218326   4.795   5.160   5.158 -0.6142  0.0888  0.2608
 6121TIP3    H118327   4.732   5.228   5.179  0.1464  0.0906  2.6482
 6121TIP3    H218328   4.875   5.207   5.134 -0.5678  0.0655  0.3678
 6122TIP3   OH218329   3.282   4.968   5.499  0.2969  0.0085 -0.1515
 6122TIP3    H118330   3.372   4.936   5.506  1.3979  2.7250 -1.0739
 6122TIP3    H218331   3.259   4.997   5.587 -0.0044 -1.4667  0.2646
 6123TIP3   OH218332   4.694   0.792   5.333  0.1393  0.0436  0.4572
 6123TIP3    H118333   4.654   0.879   5.336 -0.4694 -0.2647  2.0717
 6123TIP3    H218334   4.712   0.777   5.241 -1.0040  1.3173  0.0092
 6124TIP3   OH218335   2.268   5.841   3.110  0.1347  0.6123 -0.2696
 6124TIP3    H118336   2.325   5.809   3.180 -2.0010 -0.9741  0.7831
 6124TIP3    H218337   2.189   5.788   3.116 -0.4299  0.9886 -3.3909
 6125TIP3   OH218338   3.411   2.811   5.498 -0.2516  0.6109  0.0999
 6125TIP3    H118339   3.371   2.740   5.448  0.6445  0.4222 -0.3583
 6125TIP3    H218340   3.386   2.890   5.451 -0.0675  0.4937 -0.1961
 6126TIP3   OH218341   3.103   4.125   3.895  0.3545  0.4544  0.1879
 6126TIP3    H118342   3.073   4.146   3.984  0.3627  0.4181  0.1994
 6126TIP3    H218343   3.197   4.145   3.897  0.2460  0.9953  0.0219
 6127TIP3   OH218344   2.301   5.031   3.914 -0.1604 -0.1209 -0.6019
 6127TIP3    H118345   2.238   4.983   3.860  1.1770 -1.2626 -1.1896
 6127TIP3    H218346   2.319   4.972   3.987  0.9872 -0.2281 -0.9693
 6128TIP3   OH218347   5.895   1.771   0.087 -0.0082 -0.4860  1.1612
 6128TIP3    H118348   5.909   1.764  -0.008 -1.3192 -0.1095  0.9317
 6128TIP3    H218349   5.879   1.864   0.102  0.4043 -0.5116  1.7908
 6129TIP3   OH218350   3.120   4.122   1.285  0.3056 -0.4036  0.2787
 6129TIP3    H118351   3.047   4.094   1.230  1.2189  0.6957 -1.5262
 6129TIP3    H218352   3.186   4.054   1.272  0.6755  0.0665 -0.2996
 6130TIP3   OH218353   0.084   4.179   5.795  0.1030 -0.1142 -0.8949
 6130TIP3    H118354   0.036   4.136   5.724  0.4457  0.1254 -1.2757
 6130TIP3    H218355   0.137   4.109   5.833 -2.5730 -0.9999  1.3042
 6131TIP3   OH218356   3.887   2.758   3.168 -0.2170 -0.6625 -0.4853
 6131TIP3    H118357   3.798   2.751   3.204  0.0984  0.7060  0.5689
 6131TIP3    H218358   3.908   2.669   3.140 -1.4199 -1.2653  0.4693
 6132TIP3   OH218359   3.330   4.738   4.932  0.6352 -0.3781  0.1893
 6132TIP3    H118360   3.251   4.772   4.974  1.2667  0.3158  0.8279
 6132TIP3    H218361   3.381   4.816   4.911  1.2638 -0.8364  0.0024
 6133TIP3   OH218362   7.009   6.535   0.812  0.1629  0.5088 -0.2428
 6133TIP3    H118363   7.072   6.528   0.741 -0.6730  0.5088 -0.9932
 6133TIP3    H218364   7.051   6.592   0.876  1.9117 -1.4106  0.3528
 6134TIP3   OH218365   2.199   4.068   3.966 -0.0073  1.1331 -0.4435
 6134TIP3    H118366   2.201   4.096   3.875  1.7460  0.9925 -0.4645
 6134TIP3    H218367   2.235   3.979   3.964 -1.5364  0.4741  0.1788
 6135TIP3   OH218368   0.647   0.735   0.946  0.5546  0.3731  0.8876
 6135TIP3    H118369   0.557   0.712   0.969  1.0957 -2.6059  0.1771
 6135TIP3    H218370   0.643   0.829   0.926 -1.9192  0.7926  3.0722
 6136TIP3   OH218371   3.702   4.480   4.383  0.5605  0.1729  0.2624
 6136TIP3    H118372   3.621   4.528   4.366  0.2166  0.3183  2.1679
 6136TIP3    H218373   3.672   4.391   4.403  1.0210 -0.2438 -0.8570
 6137TIP3   OH218374   2.639   4.092   4.168  0.1378  0.1069 -0.4265
 6137TIP3    H118375   2.694   4.021   4.200 -0.1595  0.1457  0.1692
 6137TIP3    H218376   2.661   4.167   4.223  0.7069  0.5853 -1.2753
 6138TIP3   OH218377   2.633   4.078   5.170 -0.3661  0.2279  0.9324
 6138TIP3    H118378   2.648   4.002   5.227 -1.9826  0.6431  1.9468
 6138TIP3    H218379   2.657   4.153   5.224  0.7501  0.4779  0.1006
 6139TIP3   OH218380   3.668   4.574   4.022  0.2309 -0.1400  0.5187
 6139TIP3    H118381   3.726   4.520   4.075  1.1075  0.2748  0.0029
 6139TIP3    H218382   3.703   4.663   4.031 -0.5193  0.1698  0.4622
 6140TIP3   OH218383   1.102   2.393   3.512 -0.0865 -0.0073  0.3656
 6140TIP3    H118384   1.066   2.305   3.522  0.0273 -0.0426  0.4677
 6140TIP3    H218385   1.174   2.382   3.449 -1.6194  0.4366 -1.4845
 6141TIP3   OH218386   2.553   6.489   3.502 -0.2968  0.6047 -0.2755
 6141TIP3    H118387   2.635   6.460   3.461 -0.2630  1.5031 -0.8535
 6141TIP3    H218388   2.580   6.553   3.567 -0.3283 -1.0226  1.3724
 6142TIP3   OH218389   0.218   3.339   0.562  0.3308  0.2194 -0.2811
 6142TIP3    H118390   0.289   3.403   0.566  0.1606  0.4110 -0.3052
 6142TIP3    H218391   0.261   3.254   0.574  0.4041  0.4414  1.1079
 6143TIP3   OH218392   0.292   3.691   5.869 -0.6349  0.1013 -0.5667
 6143TIP3    H118393   0.353   3.662   5.801  1.3745  0.8291  0.8736
 6143TIP3    H218394   0.242   3.612   5.890  0.3125 -0.7077 -1.2546
 6144TIP3   OH218395   1.887   0.057   0.722 -0.4474  0.0645 -0.0332
 6144TIP3    H118396   1.810   0.101   0.687 -2.0144 -2.1301  0.6115
 6144TIP3    H218397   1.877   0.062   0.817  0.9591  1.0127  0.0964
 6145TIP3   OH218398   5.041   1.109   4.884 -0.4111  0.1054 -0.3249
 6145TIP3    H118399   5.023   1.018   4.860 -1.2850  0.2100 -0.0854
 6145TIP3    H218400   4.961   1.138   4.930  0.4615  0.5023  0.9688
 6146TIP3   OH218401   2.304   3.410   3.834 -0.2840  0.2539 -0.3182
 6146TIP3    H118402   2.380   3.463   3.811  0.8569 -1.8513 -1.5554
 6146TIP3    H218403   2.328   3.321   3.809 -2.2153 -0.8490  1.5442
 6147TIP3   OH218404   2.067   6.655   3.574 -0.1081 -0.2575 -0.1867
 6147TIP3    H118405   2.121   6.576   3.564 -2.9303 -2.3098  0.4093
 6147TIP3    H218406   2.096   6.693   3.657  0.0269 -1.6625  0.4241
 6148TIP3   OH218407   1.950   3.621   5.442  0.1431  0.2606 -0.3267
 6148TIP3    H118408   2.039   3.628   5.408  0.2403 -0.5347 -0.2424
 6148TIP3    H218409   1.894   3.649   5.369  0.5539  3.2187  0.4235
 6149TIP3   OH218410   0.321   1.241   0.009  0.2793 -0.1543  0.7061
 6149TIP3    H118411   0.318   1.201   0.095  0.3343  1.8982  1.6866
 6149TIP3    H218412   0.415   1.249  -0.010  0.2875 -2.4983 -0.4935
 6150TIP3   OH218413   3.500   4.408   2.419 -0.0995 -0.0183  0.5856
 6150TIP3    H118414   3.466   4.376   2.503 -1.6644  1.5583  0.5686
 6150TIP3    H218415   3.463   4.348   2.354 -3.2587  1.9222  0.5284
 6151TIP3   OH218416   4.486   6.547   3.757 -0.2468 -0.5608 -0.1430
 6151TIP3    H118417   4.460   6.612   3.692 -0.0419 -0.6787 -0.3437
 6151TIP3    H218418   4.539   6.484   3.708 -0.5389 -0.9427  0.0279
 6152TIP3   OH218419   6.377   6.456   0.039  0.3692 -0.3098 -0.3108
 6152TIP3    H118420   6.465   6.477   0.069  0.3691 -1.7279  0.7624
 6152TIP3    H218421   6.379   6.469  -0.055  1.4529  0.5858 -0.1697
 6153TIP3   OH218422   2.061   3.544   3.885 -0.2440 -0.0331 -0.2215
 6153TIP3    H118423   2.001   3.491   3.938 -1.6191  1.3054 -0.3970
 6153TIP3    H218424   2.141   3.492   3.880 -1.2057 -1.6200  0.4638
 6154TIP3   OH218425   3.052   3.626   5.567  0.1751 -0.0855 -0.5043
 6154TIP3    H118426   3.041   3.713   5.606 -0.4816 -0.2662 -0.2815
 6154TIP3    H218427   3.003   3.629   5.485 -0.1813 -0.3711 -0.3040
 6155TIP3   OH218428   1.216   4.421   2.797  0.4448  0.0381 -0.2197
 6155TIP3    H118429   1.275   4.374   2.855  0.7539 -1.0642 -1.3885
 6155TIP3    H218430   1.129   4.408   2.836  0.5956 -1.0553 -0.2177
 6156TIP3   OH218431   1.179   3.104   5.086 -0.2126 -0.2567 -0.0980
 6156TIP3    H118432   1.169   3.167   5.015 -1.2400 -0.2986  0.0088
 6156TIP3    H218433   1.093   3.099   5.127  0.4717  0.0616  1.3995
 6157TIP3   OH218434   4.326   3.974   4.018  0.4303 -0.5347 -0.1698
 6157TIP3    H118435   4.387   3.934   3.955 -1.3559 -1.6620 -1.2192
 6157TIP3    H218436   4.339   3.924   4.098  1.5754 -0.1300 -0.0879
 6158TIP3   OH218437   2.256   4.339   4.502  0.7160  0.4379 -0.2860
 6158TIP3    H118438   2.227   4.263   4.452 -1.4215  0.3276  1.0582
 6158TIP3    H218439   2.176   4.374   4.541  1.8405  2.6503  0.1289
 6159TIP3   OH218440   0.517   2.088   4.421  0.1642  0.1568 -0.1984
 6159TIP3    H118441   0.489   2.106   4.331 -2.6947  1.6209  0.9352
 6159TIP3    H218442   0.517   2.174   4.464  0.2892 -0.6914  1.5284
 6160TIP3   OH218443   4.028   6.079   5.480 -0.3902  0.0921 -0.3018
 6160TIP3    H118444   4.097   6.145   5.485  0.7580 -1.0450 -0.6336
 6160TIP3    H218445   3.952   6.126   5.448 -0.1236  1.6303  1.2565
 6161TIP3   OH218446   0.629   2.016   0.568  0.3113 -0.4205 -0.1748
 6161TIP3    H118447   0.564   2.073   0.609  0.1618 -0.2071 -0.6958
 6161TIP3    H218448   0.581   1.935   0.549  0.3644 -0.4973  0.0244
 6162TIP3   OH218449   3.160   3.440   5.006 -0.1104 -0.2770 -0.7367
 6162TIP3    H118450   3.210   3.434   5.087 -1.7385  0.3010  0.3469
 6162TIP3    H218451   3.121   3.354   4.995 -1.8015  0.3213  0.3901
 6163TIP3   OH218452   3.351   3.928   5.151 -0.2838 -0.2274  0.3694
 6163TIP3    H118453   3.372   4.005   5.098 -1.0321 -1.0458 -1.1387
 6163TIP3    H218454   3.261   3.943   5.181  0.3134  0.4690  1.8396
 6164TIP3   OH218455   3.680   4.458   4.721 -0.0480 -0.1266 -0.4955
 6164TIP3    H118456   3.644   4.370   4.734  0.8108 -0.5138 -0.6963
 6164TIP3    H218457   3.673   4.473   4.627 -1.8760  0.7555 -0.2195
 6165TIP3   OH218458   5.201   4.939   4.590  0.0510 -0.1072 -0.7687
 6165TIP3    H118459   5.229   4.848   4.589  0.3886 -0.0464  1.1427
 6165TIP3    H218460   5.263   4.983   4.649 -0.9693  1.0452 -0.5280
 6166TIP3   OH218461   3.255   2.729   5.056 -0.0506  0.0681  0.2809
 6166TIP3    H118462   3.292   2.668   4.993  0.8246  1.2742 -0.4109
 6166TIP3    H218463   3.219   2.674   5.125  0.7843 -1.2137 -0.2846
 6167TIP3   OH218464   1.394   2.691   5.173 -0.2447 -0.3694  0.5326
 6167TIP3    H118465   1.322   2.746   5.141  1.0255  1.5849  0.9016
 6167TIP3    H218466   1.454   2.684   5.098  1.4265  1.9700  1.5786
 6168TIP3   OH218467   4.093   6.442   2.397  0.4130  0.4178 -0.2089
 6168TIP3    H118468   4.018   6.390   2.367  1.7540 -2.3018  0.9585
 6168TIP3    H218469   4.118   6.494   2.321 -1.7223  0.2575 -1.0685
 6169TIP3   OH218470   0.662   1.332   0.380  0.5935  0.3406  0.6931
 6169TIP3    H118471   0.708   1.340   0.296  2.9200 -0.2602  1.8547
 6169TIP3    H218472   0.628   1.243   0.381 -0.5624  0.7632 -0.1436
 6170TIP3   OH218473   5.720   6.966   1.053  0.0347 -0.0374 -0.2315
 6170TIP3    H118474   5.759   6.886   1.088 -1.8094 -0.2901  1.3109
 6170TIP3    H218475   5.757   7.036   1.106  1.5826  0.1589 -1.5256
 6171TIP3   OH218476   5.082   0.414   4.466 -0.1547 -0.0710 -0.1329
 6171TIP3    H118477   5.003   0.361   4.459  0.2996 -0.4933 -2.3211
 6171TIP3    H218478   5.050   0.505   4.465 -0.6173 -0.2448 -0.6641
 6172TIP3   OH218479   2.459   4.013   2.678  0.1688 -0.0201 -0.2135
 6172TIP3    H118480   2.486   4.044   2.765  1.2023  1.1035 -0.9273
 6172TIP3    H218481   2.525   4.048   2.618 -0.9699 -0.1321 -1.5564
 6173TIP3   OH218482   2.290   3.907   4.454  0.7283  0.2297  0.4465
 6173TIP3    H118483   2.226   3.967   4.416  0.4037 -0.5680 -0.3120
 6173TIP3    H218484   2.344   3.881   4.379 -0.8401 -2.5200  0.1842
 6174TIP3   OH218485   1.131   3.384   4.368  0.1823 -0.7499  0.3016
 6174TIP3    H118486   1.185   3.311   4.398  0.6610 -0.6997 -0.4381
 6174TIP3    H218487   1.065   3.344   4.311 -0.4331 -0.7850  1.0354
 6175TIP3   OH218488   5.751   1.335   5.182  0.1014 -0.4199  0.2750
 6175TIP3    H118489   5.810   1.276   5.135 -0.9210  0.1081 -1.7406
 6175TIP3    H218490   5.668   1.288   5.184 -0.0596 -0.1117  0.9253
 6176TIP3   OH218491   1.854   6.526   3.370 -0.2687 -0.1720 -0.1219
 6176TIP3    H118492   1.815   6.439   3.374  2.5495 -1.5026 -0.5981
 6176TIP3    H218493   1.913   6.530   3.445  0.4195  0.9016 -0.7018
 6177TIP3   OH218494   6.413   3.629   6.001  0.6107  0.3185 -0.1468
 6177TIP3    H118495   6.438   3.664   6.087 -0.9132 -0.1161  0.4915
 6177TIP3    H218496   6.496   3.620   5.954  1.3412  1.7651  0.8161
 6178TIP3   OH218497   3.885   5.039   2.922  0.1280 -0.0269 -0.3946
 6178TIP3    H118498   3.915   5.038   2.832  0.7843 -0.1898 -0.1763
 6178TIP3    H218499   3.790   5.039   2.916  0.1653 -1.6832 -1.0610
 6179TIP3   OH218500   2.946   2.155   5.032  0.3789 -0.3827  0.2930
 6179TIP3    H118501   2.980   2.115   5.112 -0.9346  1.8050  2.0120
 6179TIP3    H218502   2.852   2.166   5.048  0.1737  0.5162 -1.3585
 6180TIP3   OH218503   3.569   4.359   3.484  0.4685  0.4462 -0.0287
 6180TIP3    H118504   3.566   4.265   3.465  1.1676  0.5434 -0.6459
 6180TIP3    H218505   3.478   4.383   3.500  0.2585 -0.2915 -0.1153
 6181TIP3   OH218506   5.034   4.254   4.862 -0.1438 -0.1893 -0.1076
 6181TIP3    H118507   4.948   4.236   4.823 -1.0171  2.1742  0.6794
 6181TIP3    H218508   5.014   4.290   4.948  1.6836 -0.7637  0.5800
 6182TIP3   OH218509   2.551   4.493   3.890 -1.0596  0.2587  0.3553
 6182TIP3    H118510   2.644   4.481   3.867 -0.2973 -0.5822  3.6236
 6182TIP3    H218511   2.520   4.404   3.906 -2.9137  0.3863 -2.2464
 6183TIP3   OH218512   2.944   3.137   5.254  0.4174  0.2558 -0.5703
 6183TIP3    H118513   2.924   3.216   5.203  1.3045  0.9605  0.1349
 6183TIP3    H218514   3.016   3.095   5.206  0.5774  0.3862 -0.4479
 6184TIP3   OH218515   6.554   1.904   0.628  0.3297 -0.1593  0.5553
 6184TIP3    H118516   6.576   1.995   0.611  0.0236  0.0402  1.1952
 6184TIP3    H218517   6.479   1.909   0.688 -0.4885 -0.8191 -0.4091
 6185TIP3   OH218518   2.518   5.689   4.967 -0.5848 -0.1626  0.1798
 6185TIP3    H118519   2.442   5.744   4.951 -0.5908 -0.4906 -0.9753
 6185TIP3    H218520   2.489   5.626   5.033 -0.8209  0.6987  0.9048
 6186TIP3   OH218521   3.823   4.728   5.583 -0.2106  0.3594 -0.1686
 6186TIP3    H118522   3.839   4.634   5.586 -0.0254  0.4105  0.5666
 6186TIP3    H218523   3.809   4.747   5.490 -0.2746 -0.3942 -0.3182
 6187TIP3   OH218524   3.785   3.525   5.090  0.3265 -0.2070  0.0017
 6187TIP3    H118525   3.813   3.565   5.172  0.6138 -2.1396  0.8712
 6187TIP3    H218526   3.850   3.553   5.026  1.9371 -1.3124  1.1351
 6188TIP3   OH218527   5.455   5.802   5.213  0.2069  0.1765  0.0135
 6188TIP3    H118528   5.396   5.800   5.288  0.5922  1.8252  0.3664
 6188TIP3    H218529   5.541   5.781   5.250  0.2556  0.1882 -0.0944
 6189TIP3   OH218530   1.938   2.817   5.971 -0.7847 -0.1521 -0.1198
 6189TIP3    H118531   1.993   2.750   6.012 -0.1273  0.1842 -0.4416
 6189TIP3    H218532   2.000   2.884   5.941 -1.5698  1.4802  1.8082
 6190TIP3   OH218533   4.339   2.224   5.550 -0.2878  0.2027  0.4559
 6190TIP3    H118534   4.403   2.152   5.553 -0.9901 -0.3991  1.8019
 6190TIP3    H218535   4.309   2.225   5.460 -0.3374 -1.2729  0.4319
 6191TIP3   OH218536   4.351   4.943   4.045  0.3984  0.0006 -0.6053
 6191TIP3    H118537   4.345   4.850   4.024 -0.6198 -0.4181  1.3536
 6191TIP3    H218538   4.431   4.972   4.002  1.8293 -2.2511  0.4014
 6192TIP3   OH218539   7.169   0.398   0.928  0.1915 -0.0536 -0.1271
 6192TIP3    H118540   7.086   0.432   0.962 -0.7283 -0.5564 -1.7904
 6192TIP3    H218541   7.172   0.307   0.957  0.2034 -0.0174 -0.0130
 6193TIP3   OH218542   3.474   0.521   4.422  0.4640 -0.2520 -0.4693
 6193TIP3    H118543   3.432   0.602   4.452 -0.5835 -1.4349  1.3491
 6193TIP3    H218544   3.402   0.460   4.409  1.3004 -1.0729 -1.3056
 6194TIP3   OH218545   7.115   1.611   0.719  0.5877 -0.2295  0.0148
 6194TIP3    H118546   7.197   1.631   0.765  0.0465 -0.7794  1.2450
 6194TIP3    H218547   7.120   1.518   0.700 -0.0847 -0.4384  0.8089
 6195TIP3   OH218548   3.327   4.850   3.391 -0.0720  0.3460  0.4684
 6195TIP3    H118549   3.249   4.807   3.427  0.6204  0.0202  1.5863
 6195TIP3    H218550   3.392   4.846   3.461  1.5281 -0.8823 -1.0337
 6196TIP3   OH218551   1.644   2.943   4.919 -1.2291  0.0295 -0.1864
 6196TIP3    H118552   1.623   3.035   4.931  0.0039  0.2764  0.2143
 6196TIP3    H218553   1.646   2.906   5.007  1.0300  0.2718 -0.1051
 6197TIP3   OH218554   5.331   0.676   3.464  0.4865 -0.3888  0.5826
 6197TIP3    H118555   5.365   0.658   3.552  0.5001 -1.7801  0.3106
 6197TIP3    H218556   5.257   0.616   3.455  0.4808 -0.2438 -0.3535
 6198TIP3   OH218557   3.258   5.185   5.032 -0.2164  0.0184  0.5600
 6198TIP3    H118558   3.292   5.217   4.948 -1.3433  0.3685  0.2260
 6198TIP3    H218559   3.283   5.093   5.034 -1.9710 -0.5388 -1.1306
 6199TIP3   OH218560   3.240   3.368   0.009 -0.6150  0.8425  0.0871
 6199TIP3    H118561   3.210   3.316   0.083  1.7218 -0.3884  0.2387
 6199TIP3    H218562   3.307   3.426   0.046  1.2915 -0.4600 -1.1649
 6200TIP3   OH218563   6.450   3.496   0.531 -0.1259  0.3600 -0.3433
 6200TIP3    H118564   6.379   3.555   0.558 -1.6773 -0.5850 -2.2262
 6200TIP3    H218565   6.413   3.408   0.540  0.8722 -0.1515 -1.1354
 6201TIP3   OH218566   3.446   3.817   4.122  0.0558  0.2091  0.2982
 6201TIP3    H118567   3.380   3.776   4.067  1.2250  0.2564 -1.1688
 6201TIP3    H218568   3.479   3.890   4.070  1.2135  0.2253  1.0290
 6202TIP3   OH218569   1.660   4.239   5.383 -0.4541 -0.1961  0.4799
 6202TIP3    H118570   1.605   4.271   5.311 -1.1301 -1.2976  0.5018
 6202TIP3    H218571   1.616   4.272   5.462 -1.1480 -1.1696  0.5031
 6203TIP3   OH218572   3.313   6.510   4.187  0.4678 -0.5388  0.0687
 6203TIP3    H118573   3.297   6.495   4.094  0.6675 -0.3375  0.0003
 6203TIP3    H218574   3.228   6.500   4.229  0.2575  0.0425 -0.2238
 6204TIP3   OH218575   4.339   4.627   4.341  0.9459 -0.3845  0.5415
 6204TIP3    H118576   4.423   4.634   4.296  0.6267 -0.2303 -0.0211
 6204TIP3    H218577   4.333   4.534   4.366  0.7722 -0.6335 -0.4087
 6205TIP3   OH218578   2.365   2.787   4.530  0.6448 -0.2544 -0.5108
 6205TIP3    H118579   2.373   2.700   4.489  0.1542 -1.1858  1.3170
 6205TIP3    H218580   2.426   2.784   4.603  1.1641  1.2303 -0.8691
 6206TIP3   OH218581   2.707   6.867   4.135 -0.1294  0.6156 -0.2844
 6206TIP3    H118582   2.800   6.855   4.114  0.0071 -3.6268  2.1921
 6206TIP3    H218583   2.664   6.791   4.098 -2.6940  2.5538 -1.4147
 6207TIP3   OH218584   5.291   0.325   0.606 -0.4330  0.4652  0.1114
 6207TIP3    H118585   5.300   0.230   0.612  1.0512  0.3927 -2.4986
 6207TIP3    H218586   5.228   0.348   0.675 -0.0601 -2.2689  1.4253
 6208TIP3   OH218587   1.994   5.060   5.850  0.5258  0.1551 -0.2488
 6208TIP3    H118588   1.999   4.972   5.814  1.3100 -0.2174  0.7266
 6208TIP3    H218589   2.082   5.096   5.837  0.8397 -0.0043  1.2740
 6209TIP3   OH218590   4.281   5.006   5.544 -0.1639 -0.4851 -0.1779
 6209TIP3    H118591   4.308   5.067   5.475 -0.9277  1.5736  1.2779
 6209TIP3    H218592   4.195   4.975   5.517  0.6875 -1.7825 -1.4588
 6210TIP3   OH218593   1.531   1.936   1.537  0.0493  0.0396  0.6411
 6210TIP3    H118594   1.537   1.944   1.441  0.5012 -0.9566  0.5743
 6210TIP3    H218595   1.621   1.920   1.565 -0.1607 -0.1907  1.1827
 6211TIP3   OH218596   3.220   2.593   4.752 -0.1009  0.2814 -0.5468
 6211TIP3    H118597   3.211   2.540   4.831  1.0058  1.0840  0.1392
 6211TIP3    H218598   3.168   2.671   4.769 -0.9043 -0.1273 -1.1367
 6212TIP3   OH218599   3.048   2.832   4.786 -0.3433  0.2432  0.0306
 6212TIP3    H118600   2.977   2.768   4.781 -0.0119 -0.1201 -0.1535
 6212TIP3    H218601   3.018   2.898   4.848 -0.5925 -0.2290  0.4134
 6213TIP3   OH218602   0.996   5.172   5.878  0.5204 -0.2298 -0.0945
 6213TIP3    H118603   1.004   5.240   5.811  0.1739 -2.3401 -2.3467
 6213TIP3    H218604   1.067   5.111   5.858  0.8973 -0.4840  1.9639
 6214TIP3   OH218605   3.150   2.871   4.227  0.2554 -0.0272  0.3143
 6214TIP3    H118606   3.103   2.789   4.218  0.2512  0.0043  0.0274
 6214TIP3    H218607   3.138   2.897   4.318 -2.0209  1.0166 -0.2493
 6215TIP3   OH218608   4.557   2.345   3.180 -0.3462 -0.2166  0.0270
 6215TIP3    H118609   4.522   2.381   3.262 -1.0238  0.9108 -0.7332
 6215TIP3    H218610   4.625   2.284   3.207  0.4194  1.2032  1.3973
 6216TIP3   OH218611   1.421   4.379   4.720 -0.4229  0.2571 -0.0745
 6216TIP3    H118612   1.454   4.432   4.793 -0.3425 -1.4754  1.1757
 6216TIP3    H218613   1.326   4.377   4.734 -0.2392 -1.5334  1.0055
 6217TIP3   OH218614   2.986   4.434   4.292 -0.1626 -0.2231  0.1248
 6217TIP3    H118615   3.071   4.457   4.330 -0.3135  0.8273 -0.1290
 6217TIP3    H218616   2.967   4.506   4.231 -1.0465 -0.6491 -0.1229
 6218TIP3   OH218617   1.499   2.105   2.255 -0.0349 -0.1939 -0.1211
 6218TIP3    H118618   1.466   2.194   2.243 -0.5392 -0.1347  1.5485
 6218TIP3    H218619   1.592   2.116   2.276  0.2747 -0.1694 -1.4320
 6219TIP3   OH218620   4.609   0.372   3.586 -0.2508  0.2953  0.3005
 6219TIP3    H118621   4.643   0.460   3.601  2.1098 -0.3052 -1.2662
 6219TIP3    H218622   4.640   0.349   3.498 -1.1619 -1.9575  0.5353
 6220TIP3   OH218623   2.513   6.195   2.139 -0.1798  0.6712  0.4463
 6220TIP3    H118624   2.533   6.139   2.064 -1.9032  0.8106 -0.1578
 6220TIP3    H218625   2.559   6.277   2.120 -1.4801  1.0909 -1.0329
 6221TIP3   OH218626   3.274   2.591   5.380 -0.0016  0.0066 -0.4766
 6221TIP3    H118627   3.201   2.587   5.319  0.3563 -0.4424 -0.8749
 6221TIP3    H218628   3.297   2.499   5.396  0.6100  0.1503 -0.5213
 6222TIP3   OH218629   1.429   3.765   4.780 -0.3862 -0.1210 -0.1364
 6222TIP3    H118630   1.521   3.790   4.785  0.4985 -2.9714 -1.2240
 6222TIP3    H218631   1.392   3.794   4.863  1.8102 -0.1715  0.9056
 6223TIP3   OH218632   3.279   1.604   0.321 -0.2751  0.1330 -0.0820
 6223TIP3    H118633   3.333   1.635   0.248  0.5538  0.9329  0.8725
 6223TIP3    H218634   3.212   1.672   0.332  0.9529  1.1167  1.3686
 6224TIP3   OH218635   3.367   5.141   6.024 -0.7286 -0.3248 -0.2223
 6224TIP3    H118636   3.383   5.089   5.946 -1.1508  1.5673 -1.6204
 6224TIP3    H218637   3.273   5.132   6.041 -0.5733 -1.0134  0.2756
 6225TIP3   OH218638   6.193   4.942   1.770 -0.2124  0.3353  0.6626
 6225TIP3    H118639   6.124   5.005   1.749  1.4603  1.7277 -0.7393
 6225TIP3    H218640   6.198   4.885   1.693  1.3622  1.3006  0.0447
 6226TIP3   OH218641   3.326   4.687   3.129 -0.5051 -0.2320 -0.1806
 6226TIP3    H118642   3.323   4.731   3.213  0.7860 -1.3641  0.4834
 6226TIP3    H218643   3.235   4.662   3.112 -0.5288 -1.6109  1.7765
 6227TIP3   OH218644   3.274   6.571   5.195  0.1416 -0.3786  0.0604
 6227TIP3    H118645   3.251   6.655   5.156 -0.8843  0.7907  3.0832
 6227TIP3    H218646   3.192   6.522   5.197  0.3714 -0.7743 -0.0154
 6228TIP3   OH218647   6.314   5.114   3.951 -0.3370 -0.3121 -0.1839
 6228TIP3    H118648   6.244   5.106   3.886 -0.5164 -0.8556  0.0787
 6228TIP3    H218649   6.375   5.176   3.912 -0.0712 -1.2024 -1.1940
 6229TIP3   OH218650   1.988   4.245   1.345 -0.5968 -0.3941 -0.3803
 6229TIP3    H118651   1.951   4.158   1.357 -0.5804 -0.7773 -2.7840
 6229TIP3    H218652   2.076   4.240   1.383 -0.9052 -1.1738  0.2187
 6230TIP3   OH218653   2.477   2.575   2.001  0.2322  0.2462  0.3891
 6230TIP3    H118654   2.429   2.599   1.921  0.7705 -0.3056 -0.1030
 6230TIP3    H218655   2.515   2.658   2.031  3.2592 -0.1753 -2.0830
 6231TIP3   OH218656   3.322   4.187   4.525 -1.0283 -0.2063  0.4120
 6231TIP3    H118657   3.345   4.138   4.446 -0.4924  0.2154  0.2965
 6231TIP3    H218658   3.230   4.168   4.541 -1.1833 -0.1451 -0.4266
 6232TIP3   OH218659   4.574   3.333   4.669 -0.2377 -0.0913 -0.1497
 6232TIP3    H118660   4.526   3.270   4.722 -1.7486  0.6103 -0.6462
 6232TIP3    H218661   4.554   3.309   4.579 -0.9790  1.1754 -0.3460
 6233TIP3   OH218662   2.150   4.521   4.906 -0.9920  0.2397  0.0853
 6233TIP3    H118663   2.078   4.548   4.848 -0.9996 -0.6485 -0.3324
 6233TIP3    H218664   2.189   4.446   4.862  1.0458  1.5194 -0.3419
 6234TIP3   OH218665   3.319   3.111   5.895 -0.3107  1.2598  0.0969
 6234TIP3    H118666   3.248   3.050   5.875  1.3285 -0.5247 -0.4566
 6234TIP3    H218667   3.307   3.183   5.833 -0.7487  0.2360 -1.0342
 6235TIP3   OH218668   4.977   4.165   2.904  0.1704 -0.6306 -0.4899
 6235TIP3    H118669   5.003   4.082   2.864  0.1867 -0.7756 -0.1761
 6235TIP3    H218670   5.049   4.187   2.963 -0.1211 -0.7082 -0.1030
 6236TIP3   OH218671   7.027   3.133   2.531  0.0332  0.4590 -0.0328
 6236TIP3    H118672   7.051   3.103   2.619 -1.5238  1.6969  0.8281
 6236TIP3    H218673   7.021   3.052   2.479  0.1443 -0.3487  1.1989
 6237TIP3   OH218674   0.623   5.790   0.233  0.5704  0.1336  0.1524
 6237TIP3    H118675   0.585   5.788   0.145  1.3380 -1.8076 -0.1617
 6237TIP3    H218676   0.549   5.813   0.290 -0.2037  0.2475 -0.8734
 6238TIP3   OH218677   2.102   2.127   4.364  0.6150 -0.0771 -0.0765
 6238TIP3    H118678   2.127   2.157   4.277 -1.6029 -1.5214 -1.2551
 6238TIP3    H218679   2.133   2.036   4.368 -0.9019 -0.6060 -0.0748
 6239TIP3   OH218680   7.015   4.687   4.761  0.5669  0.6765  0.2362
 6239TIP3    H118681   6.930   4.704   4.720  0.9648 -0.6202 -1.1670
 6239TIP3    H218682   7.036   4.768   4.806  0.3407  2.3533 -2.5420
 6240TIP3   OH218683   4.190   6.304   5.596  0.7616 -0.0504 -0.2912
 6240TIP3    H118684   4.205   6.378   5.538 -0.5949  0.6886  0.2741
 6240TIP3    H218685   4.272   6.255   5.595  1.6232  1.3793 -0.7844
 6241TIP3   OH218686   3.722   3.078   4.978  0.3000  0.3487  0.4101
 6241TIP3    H118687   3.726   3.163   5.023  0.7160  0.4734  0.1483
 6241TIP3    H218688   3.793   3.027   5.018  1.0608  0.6661 -0.5111
 6242TIP3   OH218689   5.135   5.353   5.498 -0.0968 -0.7068  0.3555
 6242TIP3    H118690   5.201   5.422   5.499 -0.1886 -0.6189  0.1988
 6242TIP3    H218691   5.053   5.398   5.481  0.0131 -1.0072 -1.0042
 6243TIP3   OH218692   5.167   5.333   3.098  0.1958 -0.1467  0.5165
 6243TIP3    H118693   5.213   5.390   3.036  0.9100 -0.1191  1.0769
 6243TIP3    H218694   5.209   5.248   3.089  0.9126  0.0847  1.6299
 6244TIP3   OH218695   3.906   1.981   5.257 -0.4289  0.0836  0.1109
 6244TIP3    H118696   3.892   2.076   5.250 -0.4456  0.0286 -0.6763
 6244TIP3    H218697   3.988   1.966   5.209 -0.6262 -0.3513 -0.0948
 6245TIP3   OH218698   4.308   4.158   4.371  0.1459 -0.1614 -0.0416
 6245TIP3    H118699   4.223   4.157   4.327  0.1943 -0.0719 -0.1375
 6245TIP3    H218700   4.301   4.229   4.435 -0.4020 -1.1717  1.0428
 6246TIP3   OH218701   3.731   5.969   5.140 -0.2965 -0.1267  0.1180
 6246TIP3    H118702   3.710   5.895   5.083 -0.6079 -0.1127  0.2134
 6246TIP3    H218703   3.824   5.959   5.158 -0.3279 -0.4818  0.1025
 6247TIP3   OH218704   1.773   5.343   0.726  0.4263 -0.3207  0.0885
 6247TIP3    H118705   1.680   5.356   0.745  0.4944 -1.2574  1.0896
 6247TIP3    H218706   1.804   5.430   0.702 -0.8987 -0.1541 -1.1537
 6248TIP3   OH218707   5.711   6.725   2.361  0.1798 -0.4578 -0.0320
 6248TIP3    H118708   5.788   6.692   2.407  0.5292 -0.5626 -0.7000
 6248TIP3    H218709   5.710   6.819   2.380  0.7356 -0.3767 -0.4254
 6249TIP3   OH218710   5.744   3.065   4.909 -0.4944 -0.8012  0.4426
 6249TIP3    H118711   5.725   3.006   4.836 -1.5028  0.1591 -0.0982
 6249TIP3    H218712   5.839   3.076   4.906 -0.6961  0.7071 -1.9455
 6250TIP3   OH218713   6.002   4.319   5.948  0.4516 -0.7756  0.6750
 6250TIP3    H118714   5.998   4.250   5.882  1.0028  0.4238 -0.6396
 6250TIP3    H218715   5.990   4.400   5.899  0.4323  0.1099  2.1114
 6251TIP3   OH218716   3.352   3.324   2.376  0.0778  0.2936  0.1244
 6251TIP3    H118717   3.392   3.302   2.292 -0.3334 -1.1802  0.3155
 6251TIP3    H218718   3.369   3.418   2.386  0.0910  0.4890 -1.6177
 6252TIP3   OH218719   3.699   6.627   3.872 -0.1755 -0.5196  0.0161
 6252TIP3    H118720   3.648   6.706   3.857  1.6173  0.6131 -0.1308
 6252TIP3    H218721   3.674   6.599   3.961  0.1333  0.8983  0.5484
 6253TIP3   OH218722   4.092   4.637   4.043  0.0438 -0.2883  0.0555
 6253TIP3    H118723   4.184   4.651   4.020 -0.1562  0.0734 -0.5245
 6253TIP3    H218724   4.059   4.724   4.063 -0.3452 -0.3414 -0.3626
 6254TIP3   OH218725   3.065   3.790   2.369 -0.2737 -0.1193  0.1650
 6254TIP3    H118726   3.154   3.766   2.394 -0.3064 -1.4345 -0.8966
 6254TIP3    H218727   3.017   3.707   2.369 -1.7838  0.7345  1.8369
 6255TIP3   OH218728   5.448   3.264   1.896  0.1470 -0.2997 -0.4165
 6255TIP3    H118729   5.409   3.185   1.932 -1.5894  1.1300  0.9209
 6255TIP3    H218730   5.476   3.238   1.808 -0.2669 -2.4188  0.0406
 6256TIP3   OH218731   5.585   3.340   5.571 -0.1443 -0.7185  0.3515
 6256TIP3    H118732   5.494   3.312   5.562 -0.2402 -0.2558 -0.1173
 6256TIP3    H218733   5.621   3.338   5.482 -0.1657  0.6785  0.2932
 6257TIP3   OH218734   4.607   5.852   3.919 -0.4904 -0.0587 -0.3937
 6257TIP3    H118735   4.669   5.925   3.909 -0.3408  0.0609  1.1569
 6257TIP3    H218736   4.524   5.887   3.888 -0.2722  0.5480 -0.3091
 6258TIP3   OH218737   4.765   4.138   4.859  0.0371  0.0470 -0.3056
 6258TIP3    H118738   4.755   4.044   4.874 -0.7348 -0.1455 -1.9291
 6258TIP3    H218739   4.698   4.160   4.794  0.9463  1.4959 -0.7975
 6259TIP3   OH218740   4.474   6.686   3.534  0.4993  0.0148 -0.2561
 6259TIP3    H118741   4.489   6.596   3.504 -4.5284 -0.7764 -0.8465
 6259TIP3    H218742   4.439   6.731   3.457 -2.9997  0.6987  1.6366
 6260TIP3   OH218743   2.437   4.782   2.491 -0.5461  0.6082 -0.1646
 6260TIP3    H118744   2.363   4.721   2.493 -0.7525  0.8817  0.7328
 6260TIP3    H218745   2.487   4.761   2.569 -1.2097  2.3244  0.7379
 6261TIP3   OH218746   5.119   6.605   3.634  0.7308  0.1916 -0.5304
 6261TIP3    H118747   5.097   6.609   3.727 -0.5567 -1.6851 -0.7147
 6261TIP3    H218748   5.212   6.624   3.630  0.7784  0.3399  1.1435
 6262TIP3   OH218749   5.827   5.454   3.527  0.5001 -0.3712  0.3178
 6262TIP3    H118750   5.808   5.368   3.564 -0.1344 -0.1655  0.4621
 6262TIP3    H218751   5.806   5.445   3.434  0.7483 -0.4673  0.2694
 6263TIP3   OH218752   4.742   3.061   4.901  0.9191  0.2513  0.2684
 6263TIP3    H118753   4.817   3.120   4.903  2.5533 -1.7560  0.3372
 6263TIP3    H218754   4.694   3.082   4.982  1.6256  1.2670  0.4414
 6264TIP3   OH218755   4.657   2.660   2.920 -0.5772  0.8715 -0.2855
 6264TIP3    H118756   4.621   2.748   2.929 -1.2207  0.6351 -0.5236
 6264TIP3    H218757   4.586   2.609   2.880 -0.0437  0.3608 -0.5910
 6265TIP3   OH218758   3.015   5.975   4.887 -0.5189 -0.0109  0.1324
 6265TIP3    H118759   2.971   5.979   4.972  1.1816  2.9702  0.9502
 6265TIP3    H218760   3.081   5.906   4.897 -1.4649 -0.8636  0.6222
 6266TIP3   OH218761   3.479   4.198   1.569  0.5468 -0.6616 -0.0854
 6266TIP3    H118762   3.423   4.123   1.588  1.3390 -1.2683 -0.0797
 6266TIP3    H218763   3.553   4.187   1.630 -0.1891  1.0965  1.1612
 6267TIP3   OH218764   3.263   3.984   6.053  0.4252 -0.1997  0.0511
 6267TIP3    H118765   3.222   3.906   6.015  0.5512 -0.3190  0.1568
 6267TIP3    H218766   3.270   4.046   5.981 -1.0681  0.2811  0.3129
 6268TIP3   OH218767   2.952   4.647   1.694  0.7483 -0.4099 -0.3326
 6268TIP3    H118768   3.047   4.660   1.698  0.7827 -0.8926  0.4489
 6268TIP3    H218769   2.927   4.624   1.783 -0.2919  0.9501 -0.2560
 6269TIP3   OH218770   3.899   4.480   1.289 -0.0541 -0.1402  0.1304
 6269TIP3    H118771   3.898   4.537   1.366  0.5456 -1.3368  1.0237
 6269TIP3    H218772   3.846   4.527   1.225  2.2707  2.5374  0.0498
 6270TIP3   OH218773   5.645   5.735   3.325  0.2414 -0.1781  0.0070
 6270TIP3    H118774   5.639   5.695   3.238  1.2096 -1.2713  0.4341
 6270TIP3    H218775   5.622   5.827   3.310 -0.7063 -0.5952 -1.2072
 6271TIP3   OH218776   4.298   4.645   2.440  0.0265  0.3940 -0.4365
 6271TIP3    H118777   4.238   4.602   2.379  0.4415 -0.8451  0.0173
 6271TIP3    H218778   4.357   4.695   2.384  1.1327 -1.6532 -1.1431
 6272TIP3   OH218779   5.746   3.798   4.083  0.3838 -0.8940 -0.0585
 6272TIP3    H118780   5.838   3.782   4.065 -0.0256 -0.8102 -2.3416
 6272TIP3    H218781   5.708   3.710   4.094  0.9382 -0.8958  2.1640
 6273TIP3   OH218782   4.467   2.733   4.549  0.2162 -0.1430 -0.0937
 6273TIP3    H118783   4.517   2.799   4.598  1.1056 -0.1894 -0.9291
 6273TIP3    H218784   4.426   2.782   4.478 -2.7426  0.3116  1.7964
 6274TIP3   OH218785   2.810   5.642   2.935  1.1290  0.0400  0.2713
 6274TIP3    H118786   2.858   5.587   2.873 -1.8300  0.7371 -2.7845
 6274TIP3    H218787   2.808   5.728   2.895 -0.2584  0.6931  1.6574
 6275TIP3   OH218788   4.077   4.990   3.366  0.6789 -0.0870  0.7374
 6275TIP3    H118789   3.993   5.016   3.406  0.7499 -0.5777  1.2079
 6275TIP3    H218790   4.083   4.896   3.382  0.1095 -0.5447 -1.5426
 6276TIP3   OH218791   3.560   6.328   4.852 -0.6013 -0.1071  0.2174
 6276TIP3    H118792   3.556   6.417   4.889 -1.5379 -0.1609  0.2529
 6276TIP3    H218793   3.487   6.325   4.790  1.1703  0.1089 -1.9387
 6277TIP3   OH218794   6.253   4.713   2.112  0.2527  0.1250  0.6010
 6277TIP3    H118795   6.246   4.808   2.111  1.1222  0.1915 -0.1046
 6277TIP3    H218796   6.245   4.689   2.204  0.0425  0.8767  0.7823
 6278TIP3   OH218797   6.690   4.892   4.306  0.8207 -0.3208  0.1467
 6278TIP3    H118798   6.739   4.817   4.274  0.7110  0.4001 -1.7795
 6278TIP3    H218799   6.675   4.946   4.228  0.1676  1.2759  1.3474
 6279TIP3   OH218800   2.746   5.519   4.400 -0.2703 -0.0801 -0.4246
 6279TIP3    H118801   2.684   5.573   4.450  1.7004  1.8846 -0.0161
 6279TIP3    H218802   2.700   5.500   4.318 -2.1318 -0.2633  0.6338
 6280TIP3   OH218803   4.986   3.964   5.734 -0.0557  0.1759  0.4433
 6280TIP3    H118804   5.070   3.961   5.689  0.0723 -0.2711  0.7105
 6280TIP3    H218805   4.923   3.931   5.670  0.0516  0.0146  0.4198
 6281TIP3   OH218806   5.904   3.123   4.624  0.7604  0.1651 -0.1585
 6281TIP3    H118807   5.968   3.056   4.647  1.5981  0.7110 -0.8538
 6281TIP3    H218808   5.920   3.140   4.531  1.9266  2.7903  0.4981
 6282TIP3   OH218809   6.795   4.512   3.795  0.1023 -0.0590  0.0366
 6282TIP3    H118810   6.812   4.436   3.850  0.4140 -1.5604 -2.0830
 6282TIP3    H218811   6.881   4.553   3.785  0.2150 -0.3333 -0.1256
 6283TIP3   OH218812   4.690   4.341   2.365  0.2328 -0.1524  0.1539
 6283TIP3    H118813   4.596   4.333   2.353  0.5110 -0.3941 -2.3012
 6283TIP3    H218814   4.722   4.250   2.367  0.6141 -0.0699 -1.2329
 6284TIP3   OH218815   4.765   3.888   4.928  0.2592  0.2136  0.1680
 6284TIP3    H118816   4.714   3.807   4.928  1.2016 -0.3918  0.6948
 6284TIP3    H218817   4.853   3.861   4.956  1.2424  1.0000 -2.0196
 6285TIP3   OH218818   3.618   4.369   1.987 -0.6937  0.1761 -0.1983
 6285TIP3    H118819   3.599   4.458   2.018 -2.0443 -0.7473  1.7436
 6285TIP3    H218820   3.599   4.313   2.062 -1.8331 -1.9595 -2.0151
 6286TIP3   OH218821   2.051   6.695   1.569  0.3334  0.9910  0.1421
 6286TIP3    H118822   2.108   6.749   1.623  1.7868  0.6413 -0.9963
 6286TIP3    H218823   2.076   6.717   1.479  0.0360 -0.5902 -0.3513
 6287TIP3   OH218824   5.328   3.682   4.368  0.4232  0.0597 -0.0434
 6287TIP3    H118825   5.269   3.608   4.354 -0.8698  0.5037  2.7856
 6287TIP3    H218826   5.403   3.644   4.414  0.9053  0.0971 -0.7792
 6288TIP3   OH218827   4.311   2.920   4.393 -0.0743 -0.2617 -0.1348
 6288TIP3    H118828   4.251   2.923   4.318 -0.1352  0.9389 -0.0586
 6288TIP3    H218829   4.335   3.012   4.408  2.5326 -0.7993 -0.7648
 6289TIP3   OH218830   3.887   3.405   3.637  0.0903 -0.0644 -0.2691
 6289TIP3    H118831   3.912   3.395   3.729  0.5126 -0.1793 -0.3970
 6289TIP3    H218832   3.895   3.499   3.620 -2.0559  0.2611  0.4042
 6290TIP3   OH218833   3.025   4.155   4.209 -0.5382 -0.2352 -0.1769
 6290TIP3    H118834   3.109   4.113   4.230 -1.1194 -0.9793  0.6884
 6290TIP3    H218835   3.030   4.240   4.252  0.3415  0.2966 -1.3118
 6291TIP3   OH218836   4.750   3.820   5.366 -0.5083  0.0761 -0.0292
 6291TIP3    H118837   4.671   3.875   5.361 -1.1812 -0.8517  0.2653
 6291TIP3    H218838   4.753   3.790   5.457 -1.2224 -1.9339 -0.6519
 6292TIP3   OH218839   5.745   1.671   4.201  0.1585  0.5135  0.2434
 6292TIP3    H118840   5.657   1.660   4.235  0.6632 -0.9895  1.1092
 6292TIP3    H218841   5.791   1.591   4.226  1.7760  1.2845 -0.1557
 6293TIP3   OH218842   4.971   6.297   3.218 -0.4956 -0.1220  0.5645
 6293TIP3    H118843   5.043   6.234   3.227 -0.6748 -0.7104 -1.8210
 6293TIP3    H218844   4.982   6.356   3.293  1.5987 -1.0712  1.0554
 6294TIP3   OH218845   4.351   5.033   4.307  0.1598  0.0767  0.3668
 6294TIP3    H118846   4.342   5.001   4.217 -1.3430 -0.0704  0.5528
 6294TIP3    H218847   4.445   5.040   4.321  0.4321 -1.1961 -0.7661
 6295TIP3   OH218848   4.693   5.640   1.563 -0.2495  0.0508  0.0791
 6295TIP3    H118849   4.731   5.599   1.641 -0.2095 -0.4305 -0.1933
 6295TIP3    H218850   4.632   5.575   1.529 -0.6394  0.4580 -0.0099
 6296TIP3   OH218851   4.897   5.648   3.264 -0.1153  0.0511  0.4098
 6296TIP3    H118852   4.843   5.697   3.326 -0.1589  0.4369  0.0731
 6296TIP3    H218853   4.947   5.715   3.218  0.6076 -0.3035  0.6720
 6297TIP3   OH218854   5.579   4.667   4.193  0.5618 -0.0419  0.0725
 6297TIP3    H118855   5.558   4.670   4.287 -1.8425 -0.6693 -0.4111
 6297TIP3    H218856   5.616   4.580   4.180 -0.3363 -0.4477  0.2026
 6298TIP3   OH218857   4.542   3.848   3.870  0.3248 -0.0132 -0.0026
 6298TIP3    H118858   4.511   3.840   3.780  1.9217 -2.2207 -0.3899
 6298TIP3    H218859   4.621   3.900   3.864  0.5905 -0.4035  0.0755
 6299TIP3   OH218860   0.106   5.383   4.746  0.4791 -0.1277  0.3250
 6299TIP3    H118861   0.103   5.326   4.669 -0.1745 -0.2605  0.4425
 6299TIP3    H218862   0.035   5.446   4.732 -0.1452 -0.6293  1.1854
 6300TIP3   OH218863   3.835   3.190   1.665 -0.3275 -0.6173  0.2310
 6300TIP3    H118864   3.826   3.159   1.755  0.9595 -1.5115  0.0632
 6300TIP3    H218865   3.787   3.125   1.613 -1.0554 -0.1102  0.2635
 6301TIP3   OH218866   5.875   3.352   2.259 -0.4799 -0.5196  0.4504
 6301TIP3    H118867   5.846   3.437   2.292 -0.7529  0.3415 -1.9152
 6301TIP3    H218868   5.864   3.293   2.333  0.5246  1.6492  2.4164
 6302TIP3   OH218869   4.924   3.268   4.182  0.3802  0.0346 -0.5995
 6302TIP3    H118870   4.869   3.347   4.184 -0.0129 -0.2229 -1.0701
 6302TIP3    H218871   4.900   3.220   4.261 -2.0638 -1.4063 -2.1409
 6303TIP3   OH218872   3.641   3.837   2.845 -0.0414  0.1075  0.2768
 6303TIP3    H118873   3.725   3.883   2.847 -0.2194  0.7318 -3.1924
 6303TIP3    H218874   3.576   3.905   2.862 -0.0072  0.1631  0.1867
 6304TIP3   OH218875   2.876   4.629   4.041 -0.2854 -0.2949  0.5938
 6304TIP3    H118876   2.801   4.669   4.086 -0.3535  2.0221 -1.4449
 6304TIP3    H218877   2.837   4.564   3.983 -0.4747 -0.9561  1.4539
 6305TIP3   OH218878   5.529   5.698   4.441 -0.6592  0.1738  0.5053
 6305TIP3    H118879   5.591   5.763   4.408  0.0822 -1.9608 -2.5018
 6305TIP3    H218880   5.583   5.641   4.497  0.0196 -1.2995 -1.5926
 6306TIP3   OH218881   1.436   5.048   4.670  0.4444 -0.9970 -0.0629
 6306TIP3    H118882   1.419   4.958   4.697 -1.8659 -1.1712 -1.8743
 6306TIP3    H218883   1.452   5.043   4.576 -1.9965  0.6636 -0.6401
 6307TIP3   OH218884   3.278   2.330   0.018 -0.1529 -0.2729  0.9292
 6307TIP3    H118885   3.318   2.357   0.100 -0.5890 -1.1053  1.4197
 6307TIP3    H218886   3.296   2.402  -0.043  1.7296 -0.4401  1.2604
 6308TIP3   OH218887   6.960   4.384   5.823  0.7446 -0.4814  0.1675
 6308TIP3    H118888   6.926   4.377   5.734 -1.3667 -3.4112  1.0990
 6308TIP3    H218889   6.905   4.450   5.865 -2.0543 -3.1330  0.8379
 6309TIP3   OH218890   3.986   5.133   6.022  0.2965  0.2400  0.3446
 6309TIP3    H118891   4.026   5.089   5.947  1.3419  1.9304 -0.1085
 6309TIP3    H218892   3.894   5.105   6.019  0.4095 -0.0297 -1.3382
 6310TIP3   OH218893   4.291   3.915   3.042 -0.3257 -0.0905 -0.0856
 6310TIP3    H118894   4.363   3.859   3.071  0.0163 -0.5374 -1.7750
 6310TIP3    H218895   4.243   3.936   3.123  1.8313  0.4456  1.0999
 6311TIP3   OH218896   3.361   4.198   2.116 -0.1649 -0.4113 -0.3945
 6311TIP3    H118897   3.447   4.204   2.157 -0.6329 -2.1776  0.8859
 6311TIP3    H218898   3.375   4.147   2.036 -0.0206 -0.6447 -0.2187
 6312TIP3   OH218899   3.837   5.294   3.422  0.0324 -0.5742  0.0738
 6312TIP3    H118900   3.871   5.219   3.471  1.3129 -0.1476 -0.1476
 6312TIP3    H218901   3.822   5.261   3.334  0.4111 -0.6278  0.0271
 6313TIP3   OH218902   4.054   4.061   3.985  0.4459  0.3308  0.1669
 6313TIP3    H118903   4.149   4.050   3.977  0.1863 -1.0887 -1.2843
 6313TIP3    H218904   4.034   4.141   3.936  0.6942 -0.3447 -1.0641
 6314TIP3   OH218905   1.385   5.869   5.373  0.2904 -0.2005 -0.2436
 6314TIP3    H118906   1.380   5.828   5.287  0.3603  1.5183 -1.1055
 6314TIP3    H218907   1.475   5.853   5.403  0.3844 -0.4765 -0.6766
 6315TIP3   OH218908   4.362   4.771   5.141 -0.0564  0.3144 -0.1999
 6315TIP3    H118909   4.446   4.803   5.174  0.0023  0.0106 -0.0545
 6315TIP3    H218910   4.375   4.764   5.046  0.5435 -1.1083 -0.0105
 6316TIP3   OH218911   4.862   6.427   2.949  0.1943  0.6233 -0.0303
 6316TIP3    H118912   4.896   6.462   2.866 -0.2732  2.2534  0.4484
 6316TIP3    H218913   4.819   6.346   2.924  0.3429  0.9265 -1.3466
 6317TIP3   OH218914   4.826   5.632   4.719 -0.0518 -0.3645 -0.0484
 6317TIP3    H118915   4.755   5.686   4.685  0.9680  0.1634 -1.3683
 6317TIP3    H218916   4.792   5.597   4.801 -0.6811  2.4458  0.9613
 6318TIP3   OH218917   5.614   0.649   4.141 -0.0390 -0.1633  0.8569
 6318TIP3    H118918   5.613   0.743   4.163  0.1500 -0.0549  0.4035
 6318TIP3    H218919   5.630   0.606   4.225 -0.0235  0.2156  1.0534
 6319TIP3   OH218920   5.837   4.057   5.510 -0.3734 -0.2191  0.0929
 6319TIP3    H118921   5.917   4.029   5.465 -0.7516 -1.4284  0.1747
 6319TIP3    H218922   5.811   3.982   5.562 -1.3553  0.3104  0.3747
 6320TIP3   OH218923   4.062   3.762   4.535  0.4814  0.4891  0.0305
 6320TIP3    H118924   4.070   3.764   4.440 -0.0727 -0.5753 -0.0453
 6320TIP3    H218925   4.142   3.717   4.565  1.2193  1.8526  0.1552
 6321TIP3   OH218926   4.071   3.549   4.099  0.9651  0.3137  0.3729
 6321TIP3    H118927   4.002   3.572   4.162  1.1570  0.1169  0.6541
 6321TIP3    H218928   4.123   3.629   4.089  1.8024 -0.0796  1.5659
 6322TIP3   OH218929   1.354   6.109   3.068  0.3523  0.8317  0.2933
 6322TIP3    H118930   1.435   6.133   3.024 -0.7294  0.5372 -1.9255
 6322TIP3    H218931   1.351   6.013   3.060  0.3751  0.7305  1.4426
 6323TIP3   OH218932   4.426   6.670   4.653 -0.1209 -0.1298  0.7724
 6323TIP3    H118933   4.507   6.639   4.612 -0.7654 -0.4113 -0.3062
 6323TIP3    H218934   4.444   6.667   4.747  0.2824 -2.5811  0.6552
 6324TIP3   OH218935   2.209   6.186   1.651 -0.3395  0.5702 -0.1417
 6324TIP3    H118936   2.119   6.208   1.673 -0.3433 -0.7828  1.2981
 6324TIP3    H218937   2.207   6.166   1.557 -1.7065 -0.2282  0.0451
 6325TIP3   OH218938   5.815   3.994   4.944  0.0883  0.3020 -0.4164
 6325TIP3    H118939   5.766   4.051   5.003 -2.4843 -0.0250 -2.1857
 6325TIP3    H218940   5.839   4.051   4.871  2.4187  0.4633  0.4367
 6326TIP3   OH218941   5.002   5.440   2.862  0.1064 -0.8943  0.0729
 6326TIP3    H118942   5.030   5.373   2.800 -0.8802 -0.2609 -1.0918
 6326TIP3    H218943   4.992   5.394   2.945  4.0558 -1.2594  0.4588
 6327TIP3   OH218944   6.563   5.788   2.552  0.7277 -0.2766  0.3788
 6327TIP3    H118945   6.593   5.878   2.570 -0.2590  0.0270  0.5178
 6327TIP3    H218946   6.475   5.799   2.518  1.1756 -1.0975 -1.0924
 6328TIP3   OH218947   4.341   6.734   4.336  0.2263 -0.2795 -0.3820
 6328TIP3    H118948   4.334   6.807   4.397 -0.8336  0.3429 -1.2326
 6328TIP3    H218949   4.433   6.710   4.337  0.2849 -0.0647  1.2087
 6329TIP3   OH218950   4.119   3.085   3.958  0.1775 -0.2141 -0.5724
 6329TIP3    H118951   4.125   3.162   3.901  3.0150 -0.1616 -0.3048
 6329TIP3    H218952   4.146   3.012   3.903 -1.1258 -0.8002 -0.4346
 6330TIP3   OH218953   7.348   1.271   0.071 -0.1657  0.0035  0.7857
 6330TIP3    H118954   7.366   1.365   0.070  0.5720 -0.1348  0.6557
 6330TIP3    H218955   7.405   1.235   0.003 -1.2506 -0.4002  0.0703
 6331TIP3   OH218956   1.989   1.751   5.541  0.9156  0.3266  0.1916
 6331TIP3    H118957   1.919   1.686   5.547 -1.2701  2.4646 -1.3917
 6331TIP3    H218958   2.058   1.708   5.490 -0.8225 -0.4858 -1.5144
 6332TIP3   OH218959   3.499   5.386   3.986  0.3030  0.0209  0.2561
 6332TIP3    H118960   3.511   5.301   3.943 -1.5978 -0.4910  0.6828
 6332TIP3    H218961   3.421   5.423   3.944  0.4084  1.0185  0.9332
 6333TIP3   OH218962   3.376   6.791   4.130  0.3209  0.5972  0.7505
 6333TIP3    H118963   3.308   6.725   4.143  0.1588  0.6117 -0.0005
 6333TIP3    H218964   3.434   6.780   4.205 -0.4662  0.5369  1.3652
 6334TIP3   OH218965   2.583   2.546   2.671 -0.2839  0.1146  0.2909
 6334TIP3    H118966   2.594   2.470   2.614 -0.0681  0.3412  0.0249
 6334TIP3    H218967   2.548   2.615   2.613  1.0553  0.7024  0.1498
 6335TIP3   OH218968   3.752   3.949   5.111 -0.2934  0.0397 -0.0363
 6335TIP3    H118969   3.683   3.932   5.176 -0.1676 -0.8272 -0.1214
 6335TIP3    H218970   3.832   3.956   5.163 -0.4703  1.3114  0.0896
 6336TIP3   OH218971   4.221   5.686   5.822  0.4732  0.1191  0.2880
 6336TIP3    H118972   4.229   5.780   5.841  1.7363  0.1330 -0.2655
 6336TIP3    H218973   4.219   5.644   5.908  0.7201  0.5929  0.5261
 6337TIP3   OH218974   4.378   6.355   5.279 -0.4120 -0.2852 -0.4958
 6337TIP3    H118975   4.373   6.299   5.202 -1.2568 -0.9424  0.0301
 6337TIP3    H218976   4.409   6.298   5.349 -2.3629 -0.4077  0.3199
 6338TIP3   OH218977   5.092   5.884   3.045 -0.1444 -0.4228  0.3821
 6338TIP3    H118978   5.056   5.826   2.978 -0.5647 -1.1322  1.2130
 6338TIP3    H218979   5.074   5.972   3.012  1.5293 -0.7352 -1.4441
 6339TIP3   OH218980   1.020   1.211   0.277 -0.3530  0.0059  0.4252
 6339TIP3    H118981   1.046   1.279   0.214 -2.4408  0.7658  0.3601
 6339TIP3    H218982   0.973   1.146   0.224 -0.0452 -0.5345  0.8119
 6340TIP3   OH218983   4.955   5.704   2.848 -0.1196  0.3223 -0.4139
 6340TIP3    H118984   5.013   5.744   2.783  0.4453  1.4094  0.7309
 6340TIP3    H218985   4.948   5.612   2.822 -0.6698  0.9569 -2.5487
 6341TIP3   OH218986   4.705   6.512   5.103  0.4585 -0.6817  0.8815
 6341TIP3    H118987   4.781   6.568   5.119  1.5073 -2.1813  1.2520
 6341TIP3    H218988   4.735   6.449   5.038 -0.5064 -1.2403  0.9692
 6342TIP3   OH218989   4.007   3.372   3.124  0.0096  0.4831 -0.0669
 6342TIP3    H118990   4.021   3.455   3.079 -0.2685  1.1911  1.1306
 6342TIP3    H218991   3.916   3.375   3.152 -0.1226 -0.4140 -0.3844
 6343TIP3   OH218992   0.474   0.996   0.168 -0.1967 -0.4172  0.3262
 6343TIP3    H118993   0.443   0.921   0.117 -1.5959  0.2967  0.0925
 6343TIP3    H218994   0.513   1.054   0.103  0.6512 -0.8140  0.4728
 6344TIP3   OH218995   3.241   2.895   3.332  0.2034  0.5524  0.0164
 6344TIP3    H118996   3.157   2.937   3.315  0.9013  1.5976 -0.9733
 6344TIP3    H218997   3.297   2.922   3.259  1.2012 -0.6759  0.3025
 6345TIP3   OH218998   0.577   6.598   0.104  0.2283 -0.1265  0.0059
 6345TIP3    H118999   0.649   6.567   0.158  0.6024 -0.3509 -0.6203
 6345TIP3    H219000   0.545   6.519   0.060  0.4844  0.1943 -0.7592
 6346TIP3   OH219001   4.792   5.239   3.598 -0.0375  0.3367 -0.1819
 6346TIP3    H119002   4.850   5.178   3.644  0.1598  1.4105  1.0261
 6346TIP3    H219003   4.851   5.298   3.552 -0.2352 -0.8173 -1.9832
 6347TIP3   OH219004   3.768   3.613   2.997 -0.7885  0.2035 -0.1233
 6347TIP3    H119005   3.729   3.529   3.023 -1.6812  0.8982  0.8097
 6347TIP3    H219006   3.719   3.639   2.919 -1.1630  0.3229  0.1497
 6348TIP3   OH219007   3.586   5.311   4.251 -0.5633 -0.3551  0.0332
 6348TIP3    H119008   3.543   5.227   4.239 -3.3721  1.2171 -1.2813
 6348TIP3    H219009   3.602   5.344   4.162  1.5826  0.0131  0.5136
 6349TIP3   OH219010   3.028   5.147   1.789  0.0132 -0.6227 -0.2668
 6349TIP3    H119011   3.011   5.241   1.780  0.7748 -0.4609  0.0346
 6349TIP3    H219012   3.000   5.110   1.705 -0.1686 -0.1134 -0.4313
 6350TIP3   OH219013   3.292   5.518   3.866  0.6180 -0.2570  0.0019
 6350TIP3    H119014   3.197   5.518   3.852  0.7458  0.1773 -0.9134
 6350TIP3    H219015   3.328   5.541   3.780  1.5282  0.0678  0.4723
 6351TIP3   OH219016   4.551   4.121   2.576 -0.1848 -0.3894 -0.1153
 6351TIP3    H119017   4.515   4.114   2.664 -0.6558 -0.5738 -0.3237
 6351TIP3    H219018   4.645   4.104   2.588  0.0088  1.0853  0.5660
 6352TIP3   OH219019   2.976   0.774   0.831  0.0798  0.6396 -0.3890
 6352TIP3    H119020   3.015   0.819   0.906  0.5136  0.8852 -0.7578
 6352TIP3    H219021   2.886   0.756   0.858 -0.1918  2.0067 -0.3424
 6353TIP3   OH219022   5.352   5.112   5.445  0.1401  0.1213  0.0523
 6353TIP3    H119023   5.329   5.055   5.519 -0.9573 -0.4246 -0.7010
 6353TIP3    H219024   5.314   5.196   5.468  3.3519  1.1375  2.0560
 6354TIP3   OH219025   1.953   3.965   4.015  0.2405  0.9775 -0.1804
 6354TIP3    H119026   2.036   4.009   3.995 -0.2162  1.2915 -1.4025
 6354TIP3    H219027   1.979   3.888   4.066  1.1013  2.2390  1.3408
 6355TIP3   OH219028   4.592   5.003   3.939 -0.5359 -1.0921  0.6491
 6355TIP3    H119029   4.685   4.986   3.929 -0.1197  0.2413  1.9979
 6355TIP3    H219030   4.568   5.058   3.864 -0.4991 -2.3538 -0.2980
 6356TIP3   OH219031   4.806   3.631   5.151  0.1105 -0.1038  0.3659
 6356TIP3    H119032   4.810   3.701   5.216  2.2174  0.4499 -0.3460
 6356TIP3    H219033   4.825   3.551   5.200  0.1672  0.1172  0.7040
 6357TIP3   OH219034   3.581   5.608   4.775  0.3355  0.5655 -0.1688
 6357TIP3    H119035   3.599   5.672   4.707 -1.5846  0.4904 -0.7761
 6357TIP3    H219036   3.529   5.540   4.731 -2.0467  1.1572  1.6340
 6358TIP3   OH219037   5.148   2.934   5.928  0.7116  1.2316 -0.0543
 6358TIP3    H119038   5.219   2.997   5.915  1.1482  1.1631  1.8187
 6358TIP3    H219039   5.191   2.849   5.929  0.2803  0.9872 -1.3392
 6359TIP3   OH219040   4.678   4.553   5.128 -0.3142  0.6359  0.3639
 6359TIP3    H119041   4.723   4.470   5.141 -0.3971  0.5144 -0.1197
 6359TIP3    H219042   4.729   4.616   5.180  1.7615  0.9300 -1.9318
 6360TIP3   OH219043   2.714   1.092   2.027  0.1828 -0.1160 -0.2287
 6360TIP3    H119044   2.737   1.017   1.972  1.0412  0.3256 -0.4813
 6360TIP3    H219045   2.619   1.103   2.013  0.3498 -0.1265 -1.4865
 6361TIP3   OH219046   1.722   1.119   1.129 -0.0077  0.2551 -0.5196
 6361TIP3    H119047   1.699   1.038   1.083 -0.4911 -0.1696  0.4380
 6361TIP3    H219048   1.745   1.181   1.060  2.0543 -1.2071 -1.2011
 6362TIP3   OH219049   5.594   4.765   5.626  0.4253  0.9983  0.1393
 6362TIP3    H119050   5.511   4.777   5.673  0.4660  1.7510  0.0269
 6362TIP3    H219051   5.600   4.842   5.569  1.3880  1.1400  0.4303
 6363TIP3   OH219052   4.129   1.916   5.126  0.2825  0.0468  0.2618
 6363TIP3    H119053   4.121   1.836   5.073 -0.9825 -0.0055  0.5180
 6363TIP3    H219054   4.143   1.986   5.062  0.6966 -0.2862 -0.0107
 6364TIP3   OH219055   1.845   1.302   0.976 -0.0583  0.1508 -0.2010
 6364TIP3    H119056   1.928   1.321   1.021  0.8694 -0.7757 -1.4843
 6364TIP3    H219057   1.870   1.243   0.905 -1.6068  1.0426 -1.5019
 6365TIP3   OH219058   4.026   5.934   3.359 -0.5420  0.3518 -0.1216
 6365TIP3    H119059   4.018   5.878   3.436 -1.4993 -0.1845 -0.6016
 6365TIP3    H219060   4.097   5.995   3.381 -0.3450 -0.2328  0.9040
 6366TIP3   OH219061   3.049   4.687   3.392  0.2464  0.3303 -0.1364
 6366TIP3    H119062   3.110   4.614   3.399 -0.8887 -0.5206  1.1472
 6366TIP3    H219063   3.004   4.674   3.308 -0.0660 -0.5349  0.1651
 6367TIP3   OH219064   3.177   5.790   3.061  0.0423 -0.5514 -0.2651
 6367TIP3    H119065   3.141   5.871   3.026  1.6999  1.0157  1.5335
 6367TIP3    H219066   3.104   5.748   3.106 -0.3537  0.9144  0.4684
 6368TIP3   OH219067   3.795   4.410   1.799 -0.5555 -0.4482 -0.1045
 6368TIP3    H119068   3.719   4.405   1.856  0.1264 -1.2753  0.7394
 6368TIP3    H219069   3.763   4.382   1.713 -0.4179 -4.3407  1.0214
 6369TIP3   OH219070   4.118   5.360   3.763 -0.1931 -0.2278 -0.3006
 6369TIP3    H119071   4.109   5.268   3.737 -1.9040 -0.1107 -0.1887
 6369TIP3    H219072   4.074   5.409   3.694  1.0198  0.5472 -0.5414
 6370TIP3   OH219073   5.469   5.390   5.484 -0.3055 -0.9510 -0.3759
 6370TIP3    H119074   5.480   5.478   5.521  0.7717 -0.9675 -0.6206
 6370TIP3    H219075   5.484   5.331   5.558 -1.1959 -0.9327 -0.1741
 6371TIP3   OH219076   3.608   6.210   5.221  0.0451  0.1040 -0.2917
 6371TIP3    H119077   3.614   6.118   5.197  0.9085  0.1494 -0.2684
 6371TIP3    H219078   3.699   6.240   5.226 -0.2485  1.2627 -1.4808
 6372TIP3   OH219079   5.018   1.577   2.215 -0.3623  0.0658 -0.2175
 6372TIP3    H119080   4.923   1.566   2.211 -0.0411 -2.7524 -1.2212
 6372TIP3    H219081   5.043   1.544   2.302 -0.1924 -0.2897 -0.3981
 6373TIP3   OH219082   3.675   4.844   4.068 -0.3105 -0.0995 -0.3047
 6373TIP3    H119083   3.730   4.858   4.144 -0.1247 -2.4975  0.0429
 6373TIP3    H219084   3.594   4.805   4.103 -1.3874  1.4390 -1.0243
 6374TIP3   OH219085   5.827   4.327   1.724  0.3265  0.3566 -0.3777
 6374TIP3    H119086   5.835   4.376   1.642 -1.9564  2.0111  0.3272
 6374TIP3    H219087   5.911   4.341   1.768  0.0294  3.0484 -0.5553
 6375TIP3   OH219088   0.942   0.054   3.122 -0.3932  0.0900  0.1176
 6375TIP3    H119089   0.946   0.111   3.045 -1.5336  0.7999  0.5804
 6375TIP3    H219090   0.989   0.103   3.189 -1.3249  0.4632  0.4994
 6376TIP3   OH219091   4.462   2.518   3.364  0.3105  0.1160 -0.2270
 6376TIP3    H119092   4.387   2.569   3.397  0.3932 -0.9317  1.6133
 6376TIP3    H219093   4.527   2.585   3.342 -1.0002  1.0202 -1.4651
 6377TIP3   OH219094   4.338   4.903   2.077 -0.0132  0.4637  0.1127
 6377TIP3    H119095   4.379   4.843   2.139  0.0159  0.7176  0.3373
 6377TIP3    H219096   4.398   4.977   2.072 -0.2838  0.6890  0.1949
 6378TIP3   OH219097   1.940   5.555   4.878  0.2342  0.6544  0.1608
 6378TIP3    H119098   1.849   5.584   4.865  0.9193  2.4109 -0.9594
 6378TIP3    H219099   1.937   5.501   4.956 -1.6652  1.3032  0.5623
 6379TIP3   OH219100   4.643   4.194   5.374  0.5673  0.0420 -0.6658
 6379TIP3    H119101   4.596   4.122   5.333 -1.7449  1.2816 -0.2687
 6379TIP3    H219102   4.583   4.268   5.370  2.4859  1.6851 -0.1267
 6380TIP3   OH219103   4.631   5.204   3.358  0.3139  0.5887 -0.2110
 6380TIP3    H119104   4.609   5.220   3.450  1.1713 -0.5903  0.2093
 6380TIP3    H219105   4.552   5.164   3.321  0.4431 -0.2270  0.3771
 6381TIP3   OH219106   4.534   4.659   3.564 -0.7383  0.2270  0.1884
 6381TIP3    H119107   4.548   4.576   3.519 -1.0457 -0.4824  1.3828
 6381TIP3    H219108   4.530   4.724   3.494 -1.9830 -0.9669 -0.8746
 6382TIP3   OH219109   4.120   2.512   4.185 -0.0106 -0.6377  0.3773
 6382TIP3    H119110   4.052   2.482   4.125 -0.3260 -0.6687  0.7462
 6382TIP3    H219111   4.093   2.601   4.210  1.7017  0.5730 -1.8805
 6383TIP3   OH219112   4.235   3.445   5.400  0.2586  0.2441  0.5871
 6383TIP3    H119113   4.286   3.423   5.478  0.2599  1.8925  1.0501
 6383TIP3    H219114   4.300   3.471   5.335  0.1499  0.3876  0.5353
 6384TIP3   OH219115   5.740   4.830   4.406 -0.6989 -0.3322 -0.1926
 6384TIP3    H119116   5.691   4.748   4.414  0.2505 -1.0160 -1.3329
 6384TIP3    H219117   5.787   4.822   4.323  2.3895 -0.2334  1.5023
 6385TIP3   OH219118   6.543   3.832   5.516 -0.2944  0.0314 -0.0040
 6385TIP3    H119119   6.576   3.912   5.476 -1.3946  0.2387 -0.4992
 6385TIP3    H219120   6.583   3.762   5.465  1.3427  0.2212  0.9497
 6386TIP3   OH219121   5.011   3.001   5.141 -0.1082  0.1517 -0.6232
 6386TIP3    H119122   5.031   3.080   5.091  0.4922  0.4909  0.1395
 6386TIP3    H219123   5.009   2.931   5.076  1.3994  0.4706 -1.0219
 6387TIP3   OH219124   5.031   6.872   4.060 -0.3534 -0.1419 -0.6731
 6387TIP3    H119125   5.104   6.842   4.115 -0.2352  1.4261  0.0500
 6387TIP3    H219126   5.071   6.887   3.974 -0.2667 -1.3082 -0.8481
 6388TIP3   OH219127   5.920   3.408   4.602  0.4068 -0.8376 -0.2289
 6388TIP3    H119128   5.917   3.444   4.691 -1.1606  0.9727 -0.9970
 6388TIP3    H219129   5.904   3.314   4.614 -0.9185 -0.4271  1.2923
 6389TIP3   OH219130   6.436   5.549   4.095  0.5136 -0.1290 -0.0500
 6389TIP3    H119131   6.485   5.515   4.021 -1.0432 -1.6962 -0.4015
 6389TIP3    H219132   6.474   5.635   4.112  0.5288  0.4804 -2.9925
 6390TIP3   OH219133   5.156   4.042   5.370 -0.1783 -0.3817 -0.2478
 6390TIP3    H119134   5.096   3.994   5.312 -0.1937 -0.4219 -0.1985
 6390TIP3    H219135   5.178   3.980   5.438 -0.5033 -0.1960  0.0290
 6391TIP3   OH219136   2.599   4.451   5.144 -0.4105  0.0509  0.2624
 6391TIP3    H119137   2.643   4.427   5.063  1.6679  0.6690  1.1738
 6391TIP3    H219138   2.670   4.463   5.207 -1.9571  0.0901  2.0443
 6392TIP3   OH219139   1.196   1.294   1.450 -0.1655  0.5494 -0.3463
 6392TIP3    H119140   1.148   1.374   1.470  1.4156  1.4746 -0.1365
 6392TIP3    H219141   1.207   1.296   1.355 -0.8479  0.1664 -0.4302
 6393TIP3   OH219142   4.035   4.512   3.434 -0.3376  0.7315  0.7691
 6393TIP3    H119143   3.968   4.509   3.502  0.4642  0.4728  1.5501
 6393TIP3    H219144   3.999   4.460   3.362 -1.8468  2.2345  0.3821
 6394TIP3   OH219145   4.512   5.556   3.431  0.4338 -0.6116  0.0927
 6394TIP3    H119146   4.538   5.600   3.511 -0.8747 -0.0831  0.2300
 6394TIP3    H219147   4.423   5.526   3.447  0.6119 -1.6196 -0.7038
 6395TIP3   OH219148   7.003   4.950   2.762  0.2241  0.3532  0.1814
 6395TIP3    H119149   7.021   5.018   2.697 -0.9983 -0.0982 -0.6507
 6395TIP3    H219150   6.936   4.989   2.819 -0.2962 -0.0645 -0.1459
 6396TIP3   OH219151   3.503   5.489   3.229 -0.0935 -0.1704 -0.6005
 6396TIP3    H119152   3.536   5.500   3.139  0.3914 -0.9859 -0.5289
 6396TIP3    H219153   3.409   5.505   3.222  0.1134  0.9142 -1.0468
 6397TIP3   OH219154   3.105   2.571   4.099 -0.8114  0.4294  0.1464
 6397TIP3    H119155   3.088   2.650   4.048 -0.5950 -0.3587 -1.1742
 6397TIP3    H219156   3.029   2.515   4.082 -1.7827  1.0165  2.4294
 6398TIP3   OH219157   4.473   5.418   4.732  0.4562 -0.4192  0.5449
 6398TIP3    H119158   4.422   5.424   4.651  0.0999 -1.1708  0.7103
 6398TIP3    H219159   4.435   5.484   4.790  2.3087  1.8376 -0.7636
 6399TIP3   OH219160   3.591   5.643   1.975  0.3225 -0.3856  0.1807
 6399TIP3    H119161   3.678   5.681   1.983  0.3429 -0.2896 -0.4605
 6399TIP3    H219162   3.578   5.630   1.881 -0.3565 -0.3936  0.2674
 6400TIP3   OH219163   5.757   5.823   3.927  0.4750 -0.6834 -0.2319
 6400TIP3    H119164   5.707   5.855   3.853 -1.2308  0.9550  1.5617
 6400TIP3    H219165   5.711   5.743   3.954 -0.5065  0.1570  0.6545
 6401TIP3   OH219166   3.346   6.767   3.689  0.2541  0.2208  0.1468
 6401TIP3    H119167   3.281   6.776   3.619  0.1552 -0.1639  0.1908
 6401TIP3    H219168   3.405   6.699   3.658 -1.3275 -1.8838  1.6210
 6402TIP3   OH219169   5.185   1.265   4.485  0.1021  0.2787 -0.1371
 6402TIP3    H119170   5.149   1.206   4.419 -1.4808  0.5722  0.4288
 6402TIP3    H219171   5.108   1.297   4.532  1.1253  0.9891  1.0711
 6403TIP3   OH219172   4.229   6.103   3.107  0.3833  0.0297 -0.0491
 6403TIP3    H119173   4.175   6.163   3.056  0.7742 -0.0450 -0.5483
 6403TIP3    H219174   4.187   6.101   3.193  0.9918  1.8645  0.3057
 6404TIP3   OH219175   4.090   5.531   5.271 -0.2600  0.0934  0.1004
 6404TIP3    H119176   4.004   5.554   5.304 -1.1309 -0.9126 -1.4184
 6404TIP3    H219177   4.128   5.475   5.339 -0.9877  0.1646  0.5649
 6405TIP3   OH219178   2.057   0.803   0.170  0.2645  0.0278  0.0611
 6405TIP3    H119179   2.095   0.715   0.165 -0.4859 -0.2874 -0.1079
 6405TIP3    H219180   1.985   0.802   0.107 -0.9260  0.1700  1.3777
 6406TIP3   OH219181   5.002   6.464   4.743  0.0515 -0.3145 -0.0691
 6406TIP3    H119182   5.044   6.447   4.827  0.6827 -2.6682 -0.8127
 6406TIP3    H219183   4.955   6.547   4.755  0.4633 -0.4185  2.4501
 6407TIP3   OH219184   4.840   3.213   4.457 -0.1523  0.8291  0.0136
 6407TIP3    H119185   4.856   3.291   4.511 -1.3312 -1.3076  3.5980
 6407TIP3    H219186   4.750   3.223   4.426  0.3910  1.8572 -1.3140
 6408TIP3   OH219187   4.680   2.658   3.218  0.2337 -0.1149 -0.0449
 6408TIP3    H119188   4.696   2.709   3.138  0.7926 -0.8607 -0.4085
 6408TIP3    H219189   4.653   2.572   3.187 -0.5686 -0.0897  0.5753
 6409TIP3   OH219190   5.119   6.319   3.831 -0.1541  0.6387  0.1228
 6409TIP3    H119191   5.098   6.395   3.778  1.7781  0.8243 -0.4192
 6409TIP3    H219192   5.092   6.244   3.779  0.2114  0.8821 -0.4217
 6410TIP3   OH219193   4.044   4.486   5.076 -0.6172 -0.3428 -0.3287
 6410TIP3    H119194   3.949   4.477   5.074 -0.6489 -0.1082  0.1939
 6410TIP3    H219195   4.061   4.547   5.147 -0.0580 -0.5872 -0.2558
 6411TIP3   OH219196   3.463   5.404   4.577 -0.3664  0.1461  0.5593
 6411TIP3    H119197   3.379   5.406   4.532 -0.7001  0.4231  1.1851
 6411TIP3    H219198   3.456   5.331   4.639  0.4641 -0.8847 -0.5491
 6412TIP3   OH219199   5.060   4.863   3.111  0.4404  1.0689  0.1708
 6412TIP3    H119200   5.142   4.826   3.144  0.4634 -2.3781 -3.4062
 6412TIP3    H219201   5.088   4.928   3.046  0.4427 -1.5517 -2.5425
 6413TIP3   OH219202   5.274   5.082   2.419  0.0435 -0.2366 -0.0946
 6413TIP3    H119203   5.224   5.057   2.341 -0.0548 -1.3156  0.2969
 6413TIP3    H219204   5.253   5.013   2.483  0.3961  0.4466  0.7597
 6414TIP3   OH219205   6.733   6.034   1.543 -0.0953 -0.2333 -0.1771
 6414TIP3    H119206   6.797   5.969   1.572  1.1262 -0.1411 -2.4661
 6414TIP3    H219207   6.755   6.114   1.591  0.9384 -0.4678 -0.2492
 6415TIP3   OH219208   2.575   4.027   2.950 -0.0971 -0.1906 -0.0257
 6415TIP3    H119209   2.598   4.118   2.968  0.3016 -0.8972  3.2695
 6415TIP3    H219210   2.659   3.980   2.952 -0.4655 -0.8762 -0.2712
 6416TIP3   OH219211   7.340   5.847   4.881  0.3499  0.2516 -0.1224
 6416TIP3    H119212   7.283   5.923   4.894  0.6104  0.5731 -0.8743
 6416TIP3    H219213   7.415   5.881   4.834 -0.2813 -0.7951 -1.9178
 6417TIP3   OH219214   3.470   5.945   4.072 -0.2329 -0.0071 -0.0235
 6417TIP3    H119215   3.387   5.900   4.085 -0.1288 -0.0087  0.6537
 6417TIP3    H219216   3.510   5.948   4.159 -0.7531  2.3892  0.1822
 6418TIP3   OH219217   4.311   4.130   1.520  0.2504 -0.2134 -0.2532
 6418TIP3    H119218   4.363   4.084   1.454  1.3140  1.9443 -0.9841
 6418TIP3    H219219   4.298   4.218   1.483  0.8170  1.0263  2.3536
 6419TIP3   OH219220   0.415   3.435   3.493 -0.6580 -0.1362  0.0850
 6419TIP3    H119221   0.397   3.375   3.564 -1.0524  0.6733  0.6761
 6419TIP3    H219222   0.421   3.521   3.534  1.4095  0.0442 -0.5360
 6420TIP3   OH219223   6.911   5.299   1.604 -0.5156  0.2169  0.2249
 6420TIP3    H119224   6.974   5.332   1.540 -0.2715 -1.0892 -0.2219
 6420TIP3    H219225   6.877   5.377   1.647  2.5710  0.8721  1.5976
 6421TIP3   OH219226   6.865   4.996   1.926  0.1544  0.1564 -0.1762
 6421TIP3    H119227   6.937   4.963   1.979 -0.9866  0.8510  1.8874
 6421TIP3    H219228   6.906   5.028   1.846  2.3889  2.2275  1.7358
 6422TIP3   OH219229   0.970   5.284   3.045 -0.1114  0.0656 -0.5342
 6422TIP3    H119230   0.890   5.261   3.092 -2.0005  1.6087 -2.8958
 6422TIP3    H219231   0.972   5.380   3.046  2.1988  0.0551  0.2051
 6423TIP3   OH219232   6.763   5.076   2.814  0.4629 -0.4776  0.1366
 6423TIP3    H119233   6.791   5.110   2.729 -1.8644  0.8640 -0.1334
 6423TIP3    H219234   6.687   5.021   2.795  0.8640 -1.4146  1.1790
 6424TIP3   OH219235   3.077   3.275   3.965  0.0792  0.2682  0.4819
 6424TIP3    H119236   3.139   3.298   4.033 -1.1186  0.1945  1.6159
 6424TIP3    H219237   3.025   3.355   3.952  0.3055  0.2895 -0.3575
 6425TIP3   OH219238   1.128   3.977   3.683  0.0446 -0.1366  0.5102
 6425TIP3    H119239   1.162   4.066   3.684  0.1492 -0.1687  0.1431
 6425TIP3    H219240   1.206   3.921   3.674 -0.2292 -0.0875 -3.2024
 6426TIP3   OH219241   0.180   5.513   1.277  0.2985 -0.1510  0.2606
 6426TIP3    H119242   0.222   5.502   1.192  1.2453 -1.5073  0.8776
 6426TIP3    H219243   0.092   5.477   1.265  0.9210 -1.7215  0.2328
 6427TIP3   OH219244   6.835   4.206   1.705  0.3477  0.2879 -0.2333
 6427TIP3    H119245   6.873   4.248   1.782 -2.8564  3.3717 -0.1957
 6427TIP3    H219246   6.863   4.260   1.631  0.0094 -0.1891 -0.7151
 6428TIP3   OH219247   6.356   6.017   5.264 -0.2603  0.0951  0.1204
 6428TIP3    H119248   6.324   6.098   5.225  0.8244  0.7665  0.6246
 6428TIP3    H219249   6.294   5.999   5.335  0.7562  1.6711  1.4272
 6429TIP3   OH219250   4.964   5.950   2.649  0.5526  0.2867  0.1545
 6429TIP3    H119251   4.873   5.951   2.677  0.3114 -1.5050 -0.4406
 6429TIP3    H219252   4.983   6.040   2.623 -1.4708  0.3963 -1.0259
 6430TIP3   OH219253   6.530   4.070   0.929 -0.1999 -0.1117  0.0909
 6430TIP3    H119254   6.491   3.986   0.952  0.6994 -0.0617  1.8892
 6430TIP3    H219255   6.612   4.074   0.978 -0.0407  1.6483 -0.2589
 6431TIP3   OH219256   4.884   3.496   4.465  0.1491  0.5011 -0.1419
 6431TIP3    H119257   4.885   3.552   4.387  0.3184  0.2491 -0.3177
 6431TIP3    H219258   4.865   3.557   4.537  1.3044  0.9418 -0.2067
 6432TIP3   OH219259   6.417   4.007   3.339 -0.6678  0.2730  0.2479
 6432TIP3    H119260   6.458   3.955   3.270 -1.2817  0.6517 -0.3994
 6432TIP3    H219261   6.394   4.090   3.297  0.3451  1.1044  1.2947
 6433TIP3   OH219262   5.844   4.927   3.314 -0.5917 -0.1678  0.3273
 6433TIP3    H119263   5.782   4.894   3.379 -2.4742  1.1469 -0.7564
 6433TIP3    H219264   5.869   4.849   3.264 -3.0168 -0.4275 -0.5617
 6434TIP3   OH219265   7.274   4.473   4.200 -0.1790 -0.2319 -0.0567
 6434TIP3    H119266   7.253   4.553   4.248 -0.6926  0.2335 -1.0507
 6434TIP3    H219267   7.206   4.467   4.133  1.1574 -0.2959 -1.4239
 6435TIP3   OH219268   4.749   5.824   1.908 -0.4520 -0.1269  0.2736
 6435TIP3    H119269   4.763   5.883   1.833  2.3451 -0.6414  0.3448
 6435TIP3    H219270   4.760   5.736   1.871  1.0773 -0.3776  1.3135
 6436TIP3   OH219271   1.527   5.463   4.085  0.6840 -0.2038  0.0867
 6436TIP3    H119272   1.595   5.472   4.018 -0.1732 -3.2098 -1.2624
 6436TIP3    H219273   1.551   5.384   4.133  0.3952  1.0370  2.3228
 6437TIP3   OH219274   6.048   4.088   3.781 -0.5669 -0.0881  0.3082
 6437TIP3    H119275   6.059   4.035   3.861  1.6670 -0.3166 -0.1241
 6437TIP3    H219276   6.132   4.132   3.770 -2.1651  3.1025  0.2889
 6438TIP3   OH219277   5.949   5.663   4.962  0.4536 -0.0091 -0.1113
 6438TIP3    H119278   6.044   5.657   4.949  0.3720 -0.8116 -0.3325
 6438TIP3    H219279   5.925   5.579   5.000 -0.2286  0.0528 -0.4056
 6439TIP3   OH219280   2.219   1.394   2.555  0.4770 -0.0188  0.7096
 6439TIP3    H119281   2.224   1.328   2.485  0.5489  0.9485 -0.2090
 6439TIP3    H219282   2.296   1.450   2.541 -2.2032  3.2689 -1.6158
 6440TIP3   OH219283   7.219   4.139   2.581 -0.4625 -0.0277  0.3253
 6440TIP3    H119284   7.218   4.052   2.621  0.6128 -0.2702 -0.1436
 6440TIP3    H219285   7.164   4.193   2.638 -0.4277 -0.8121  1.1093
 6441TIP3   OH219286   7.010   4.156   0.388 -0.6515 -0.2444  0.1282
 6441TIP3    H119287   7.097   4.183   0.419  0.8177 -2.6650 -1.7548
 6441TIP3    H219288   6.977   4.232   0.340  1.1424  0.0975 -0.5940
 6442TIP3   OH219289   6.823   4.029   4.060  0.5763 -0.1896 -0.1500
 6442TIP3    H119290   6.811   3.966   3.989 -1.3491 -1.1918  0.9962
 6442TIP3    H219291   6.904   4.002   4.102  1.5920  0.2527 -1.8025
 6443TIP3   OH219292   5.403   2.765   4.155  0.1918 -0.3177  0.0462
 6443TIP3    H119293   5.426   2.858   4.143  0.4089 -0.6037 -1.9051
 6443TIP3    H219294   5.312   2.759   4.128 -0.1270 -0.5051  1.1269
 6444TIP3   OH219295   7.355   5.605   3.711  0.2284 -0.1614 -0.1013
 6444TIP3    H119296   7.343   5.693   3.747  0.8844  0.2443 -0.8812
 6444TIP3    H219297   7.366   5.618   3.617  0.1676 -1.0911 -0.2420
 6445TIP3   OH219298   1.559   5.408   2.767 -0.3274 -0.0400 -0.4956
 6445TIP3    H119299   1.532   5.354   2.693  1.7833 -1.2175 -0.4274
 6445TIP3    H219300   1.646   5.376   2.791  0.1395  2.0736  0.8220
 6446TIP3   OH219301   4.819   5.592   1.800  0.0134 -1.3715  0.7344
 6446TIP3    H119302   4.842   5.504   1.832  1.8581 -1.3985 -0.6056
 6446TIP3    H219303   4.896   5.621   1.752 -1.3891  0.1139 -0.6785
 6447TIP3   OH219304   5.664   3.481   2.968 -0.1136 -0.4171  0.3873
 6447TIP3    H119305   5.722   3.466   2.894 -1.3763 -0.7423 -0.5450
 6447TIP3    H219306   5.674   3.574   2.988 -1.5818  0.2166 -1.7368
 6448TIP3   OH219307   5.965   3.649   3.507 -0.3785 -0.1443 -0.5226
 6448TIP3    H119308   6.038   3.650   3.569 -0.1956  0.6996 -0.7452
 6448TIP3    H219309   5.953   3.557   3.485 -1.6170 -0.6998  2.1662
 6449TIP3   OH219310   5.504   4.717   1.287 -0.4152 -0.1782  0.0393
 6449TIP3    H119311   5.418   4.685   1.317 -0.1730  0.1907  1.1222
 6449TIP3    H219312   5.559   4.639   1.285 -0.2831 -0.1170  1.0862
 6450TIP3   OH219313   0.626   4.347   4.254  0.1081 -0.7527 -0.3613
 6450TIP3    H119314   0.594   4.410   4.190  2.3257  0.1743 -0.6271
 6450TIP3    H219315   0.604   4.385   4.339  1.1534  0.2623 -0.5283
 6451TIP3   OH219316   6.233   4.713   5.522  0.3560 -0.1493 -0.2021
 6451TIP3    H119317   6.244   4.679   5.433  0.0476  0.6678 -0.5551
 6451TIP3    H219318   6.270   4.801   5.519  1.3356 -0.5132  0.7610
 6452TIP3   OH219319   0.397   4.546   1.844  0.3507 -0.3328 -0.0044
 6452TIP3    H119320   0.388   4.502   1.759  0.8332 -0.1605 -0.1507
 6452TIP3    H219321   0.358   4.632   1.831  0.3375 -0.3426 -0.0263
 6453TIP3   OH219322   1.143   3.721   2.299  0.1787  0.2482  0.4881
 6453TIP3    H119323   1.066   3.766   2.265 -0.0436  0.4348  1.2369
 6453TIP3    H219324   1.112   3.634   2.322  0.3672  0.0673  0.0799
 6454TIP3   OH219325   4.603   3.170   4.063  0.2438  0.0768  0.8650
 6454TIP3    H119326   4.533   3.107   4.049  0.1698 -0.0310  1.7059
 6454TIP3    H219327   4.649   3.175   3.979 -0.8235  0.2146  0.2863
 6455TIP3   OH219328   1.982   4.421   4.345 -0.0297  0.7531 -0.8859
 6455TIP3    H119329   2.007   4.443   4.434  1.0462  0.3004 -1.0665
 6455TIP3    H219330   1.945   4.332   4.351  1.4655  0.1046 -1.1170
 6456TIP3   OH219331   0.043   4.271   2.263 -0.1786  0.8246 -0.3426
 6456TIP3    H119332  -0.013   4.234   2.331 -0.1644  0.6228 -0.4395
 6456TIP3    H219333   0.025   4.365   2.265 -2.3792  0.5040 -2.0333
 6457TIP3   OH219334   5.953   4.724   1.431 -0.3871  0.8379  0.2770
 6457TIP3    H119335   5.937   4.690   1.520  1.1194 -2.6206 -0.7058
 6457TIP3    H219336   6.045   4.748   1.431 -0.3099  0.5545 -0.4110
 6458TIP3   OH219337   4.065   5.388   4.056  0.4065 -0.0861  0.0997
 6458TIP3    H119338   4.030   5.322   4.116  2.2045 -1.6033 -0.4760
 6458TIP3    H219339   4.088   5.339   3.977  1.7851  1.2219 -0.3399
 6459TIP3   OH219340   5.753   5.069   2.692  0.3410 -0.6640 -0.0434
 6459TIP3    H119341   5.817   5.004   2.666 -0.4236 -1.6214  0.4482
 6459TIP3    H219342   5.747   5.129   2.617 -1.0114 -2.7335 -1.6420
 6460TIP3   OH219343   0.873   0.098   2.565 -0.1339 -1.0509 -0.3384
 6460TIP3    H119344   0.935   0.091   2.492  0.8466  0.9570  0.2622
 6460TIP3    H219345   0.792   0.061   2.531  0.6980 -1.4239 -1.9739
 6461TIP3   OH219346   0.237   3.703   2.103 -0.4173  0.3883 -0.3782
 6461TIP3    H119347   0.260   3.615   2.074 -1.4479  0.7573 -2.3807
 6461TIP3    H219348   0.321   3.742   2.128 -0.0578 -1.4475  1.4114
 6462TIP3   OH219349   4.826   3.334   2.752 -0.0718 -0.7815  0.8893
 6462TIP3    H119350   4.743   3.353   2.795  0.8599 -1.0491  2.8704
 6462TIP3    H219351   4.864   3.263   2.804  1.7671 -0.0976  0.5060
 6463TIP3   OH219352   4.572   4.936   2.732  0.5237  0.2925 -0.4469
 6463TIP3    H119353   4.525   4.853   2.738 -0.0949  0.5915 -1.1011
 6463TIP3    H219354   4.513   4.994   2.684  0.6760  1.3112  0.5729
 6464TIP3   OH219355   5.807   6.731   2.784 -0.3173  0.5898 -0.5345
 6464TIP3    H119356   5.888   6.768   2.750  1.5583 -2.6381  0.2812
 6464TIP3    H219357   5.767   6.687   2.709  0.8391 -1.4211 -0.0066
 6465TIP3   OH219358   5.663   3.811   1.591  0.4960 -0.1727 -0.1041
 6465TIP3    H119359   5.731   3.869   1.626 -0.3406  1.0848 -0.5129
 6465TIP3    H219360   5.643   3.751   1.663  1.2827  0.1212  0.3705
 6466TIP3   OH219361   5.218   5.419   2.164  0.2448  0.4900  0.3111
 6466TIP3    H119362   5.255   5.493   2.116 -0.6016  1.0344  0.4880
 6466TIP3    H219363   5.294   5.372   2.198  0.8475  0.2490 -1.3303
 6467TIP3   OH219364   1.939  -0.011   4.090 -0.2713 -0.7134  0.2615
 6467TIP3    H119365   2.001   0.015   4.157 -0.7929 -1.9230  1.2367
 6467TIP3    H219366   1.899   0.071   4.060  2.0802  0.1218 -0.6908
 6468TIP3   OH219367   6.378   5.619   1.857  0.3343  0.0494 -0.1049
 6468TIP3    H119368   6.333   5.685   1.909 -1.2944  0.1889 -1.6407
 6468TIP3    H219369   6.397   5.549   1.919  0.2830  1.0880  1.1111
 6469TIP3   OH219370   5.589   6.723   3.882  0.3386  0.2690  0.5095
 6469TIP3    H119371   5.512   6.753   3.834  1.8953  1.4162 -1.3287
 6469TIP3    H219372   5.599   6.631   3.858 -1.6531 -0.5087  2.4269
 6470TIP3   OH219373   1.299   5.441   2.700  0.9702  0.1500 -0.0210
 6470TIP3    H119374   1.279   5.354   2.734  0.9775 -0.0971 -0.6453
 6470TIP3    H219375   1.393   5.451   2.711  0.8630  0.3783  0.7372
 6471TIP3   OH219376   5.446   6.635   1.761  0.0621  0.4144  0.0728
 6471TIP3    H119377   5.404   6.549   1.760 -2.5345  1.6422 -0.6155
 6471TIP3    H219378   5.482   6.644   1.849 -2.1269 -0.2617  1.0759
 6472TIP3   OH219379   6.537   6.418   3.531 -0.3353 -0.1366  0.2909
 6472TIP3    H119380   6.548   6.469   3.612 -0.0026  0.2777 -0.0168
 6472TIP3    H219381   6.485   6.475   3.474  1.4045  0.5113 -0.6577
 6473TIP3   OH219382   7.399   5.069   4.341  0.1442  0.0752  0.0426
 6473TIP3    H119383   7.430   4.979   4.335 -1.0233 -0.2753 -0.8648
 6473TIP3    H219384   7.315   5.069   4.295  0.3289  1.7204 -0.3229
 6474TIP3   OH219385   0.093   3.562   3.049  0.4265 -0.4860 -0.0278
 6474TIP3    H119386   0.011   3.576   3.097 -0.0436 -0.2395 -0.8724
 6474TIP3    H219387   0.067   3.506   2.975  1.3759 -1.9043  0.6911
 6475TIP3   OH219388   5.262   5.557   4.674 -0.3770  0.6628 -0.5388
 6475TIP3    H119389   5.266   5.523   4.584 -0.3773  0.8889 -0.6252
 6475TIP3    H219390   5.351   5.546   4.707 -0.6130 -0.3100 -0.2359
 6476TIP3   OH219391   4.722   2.942   3.008 -0.0439  0.6045 -0.0759
 6476TIP3    H119392   4.811   2.924   3.038 -0.3579  0.5653  0.8412
 6476TIP3    H219393   4.733   2.974   2.918  0.9514  1.3635  0.3082
 6477TIP3   OH219394   0.108   4.053   1.354 -0.3144  0.1354 -0.0937
 6477TIP3    H119395   0.170   4.012   1.414 -0.0302  0.7813  0.0620
 6477TIP3    H219396   0.023   4.017   1.379 -0.1209 -0.0438  0.3168
 6478TIP3   OH219397   0.908   4.580   2.561  0.4153  0.6325  0.0639
 6478TIP3    H119398   0.929   4.518   2.631 -0.5658  1.0410  0.7404
 6478TIP3    H219399   0.891   4.526   2.484  1.3065  0.1662  0.1981
 6479TIP3   OH219400   7.251   4.794   2.365  0.4629 -0.3098 -0.0567
 6479TIP3    H119401   7.248   4.773   2.458 -0.2374 -0.3561 -0.0844
 6479TIP3    H219402   7.234   4.710   2.321 -1.5532  0.1272 -0.1824
 6480TIP3   OH219403   6.600   3.980   3.575  0.0924  0.2268  0.1316
 6480TIP3    H119404   6.545   3.998   3.499 -0.1034 -1.9399 -0.2700
 6480TIP3    H219405   6.642   4.064   3.595  0.4593  0.7238 -2.5931
 6481TIP3   OH219406   6.770   2.467   4.777 -0.1045 -0.2030 -0.0380
 6481TIP3    H119407   6.726   2.437   4.697  0.9265 -0.7599 -0.3994
 6481TIP3    H219408   6.738   2.557   4.790 -1.3353 -0.5897 -0.3010
 6482TIP3   OH219409   5.377   5.197   3.851 -0.2188 -0.7074 -0.4479
 6482TIP3    H119410   5.346   5.221   3.939  0.2537  0.0201 -0.4707
 6482TIP3    H219411   5.450   5.138   3.867  0.4172  0.1098 -0.3362
 6483TIP3   OH219412   5.260   2.412   0.664 -0.6705 -0.7219 -0.1838
 6483TIP3    H119413   5.347   2.419   0.703 -0.7122 -0.3680 -0.1498
 6483TIP3    H219414   5.277   2.395   0.571 -0.5737 -2.9336  0.2106
 6484TIP3   OH219415   5.042   3.914   2.810  0.1105  0.2553 -0.4826
 6484TIP3    H119416   4.985   3.903   2.734 -0.5763 -1.2485  0.2310
 6484TIP3    H219417   5.120   3.863   2.789  0.4078  0.7833 -0.6651
 6485TIP3   OH219418   4.285   2.345   2.060  0.0444  0.2143  0.4521
 6485TIP3    H119419   4.287   2.262   2.108 -0.0531 -0.5286 -0.7730
 6485TIP3    H219420   4.358   2.396   2.095  1.6893 -1.4014 -0.4823
 6486TIP3   OH219421   3.115   4.951   4.272 -0.1740 -0.2050  0.3139
 6486TIP3    H119422   3.030   4.955   4.315 -0.3310  1.8719 -0.1075
 6486TIP3    H219423   3.175   4.919   4.340 -1.2137 -1.3317  0.7113
 6487TIP3   OH219424   5.632   1.853   5.414  0.0045  0.0986 -0.3026
 6487TIP3    H119425   5.608   1.856   5.507  0.7509  0.6365 -0.1210
 6487TIP3    H219426   5.683   1.772   5.404 -0.9586 -0.4906 -0.4632
 6488TIP3   OH219427   7.250   5.083   2.953 -0.2123  0.0710 -0.5121
 6488TIP3    H119428   7.295   5.114   3.032 -1.5497  4.6217 -1.3489
 6488TIP3    H219429   7.320   5.060   2.892  0.8502 -1.0070  1.0867
 6489TIP3   OH219430   4.049   3.807   4.222  0.1749 -0.1626 -0.3810
 6489TIP3    H119431   4.024   3.896   4.245 -0.7912 -0.9251  1.6597
 6489TIP3    H219432   4.145   3.807   4.223  0.1632  0.2650  2.0327
 6490TIP3   OH219433   6.986   3.813   3.863  0.1550  0.1664  0.2011
 6490TIP3    H119434   6.918   3.829   3.797 -0.1712  0.5471  0.6224
 6490TIP3    H219435   7.018   3.900   3.886  1.3929 -0.0551 -0.6100
 6491TIP3   OH219436   0.807   4.655   2.215 -0.1144 -0.1902  0.0642
 6491TIP3    H119437   0.782   4.650   2.123  1.1255  0.1568 -0.2968
 6491TIP3    H219438   0.813   4.563   2.244 -3.6228 -0.3114  0.6947
 6492TIP3   OH219439   6.144   5.091   3.137 -0.5828 -0.5730  0.5142
 6492TIP3    H119440   6.069   5.105   3.080 -1.4785 -3.1717  0.9780
 6492TIP3    H219441   6.110   5.100   3.226 -0.1301 -0.7124  0.7070
 6493TIP3   OH219442   2.225   0.821   4.961 -0.6935  0.3433 -0.0065
 6493TIP3    H119443   2.251   0.911   4.941 -1.4953  0.2509 -1.4951
 6493TIP3    H219444   2.259   0.769   4.889  0.5378 -0.6987  1.2962
 6494TIP3   OH219445   5.306   2.339   0.377 -0.1593 -0.4729 -0.2887
 6494TIP3    H119446   5.335   2.427   0.356  0.9545 -1.1272 -1.5953
 6494TIP3    H219447   5.264   2.308   0.296 -2.6592 -0.3016  0.9018
 6495TIP3   OH219448   6.102   5.538   2.534  0.4446  0.1624  0.2215
 6495TIP3    H119449   6.048   5.482   2.590  0.5916  0.7204  0.9380
 6495TIP3    H219450   6.191   5.507   2.547  0.4976  0.3945  0.4348
 6496TIP3   OH219451   6.947   5.801   0.015 -0.3761  0.2478 -0.1791
 6496TIP3    H119452   6.872   5.855  -0.008 -0.7932  0.5174  1.7679
 6496TIP3    H219453   6.909   5.719   0.046  0.1742 -0.0867 -0.3729
 6497TIP3   OH219454   6.352   3.106   4.284  0.0217  0.1577  0.4679
 6497TIP3    H119455   6.305   3.023   4.277 -1.1048  0.7999  0.3007
 6497TIP3    H219456   6.442   3.081   4.302  0.1125 -1.1559 -1.6269
 6498TIP3   OH219457   0.097   4.895   2.307  0.0046  0.7017  0.2676
 6498TIP3    H119458   0.014   4.858   2.335  1.0798 -0.9392  1.3907
 6498TIP3    H219459   0.119   4.960   2.373  0.2276  0.2147  0.6779
 6499TIP3   OH219460   7.427   4.768   1.606  0.0033  0.4031  0.3270
 6499TIP3    H119461   7.413   4.694   1.547  0.2317  0.5151  0.1339
 6499TIP3    H219462   7.340   4.805   1.619  0.0458  0.7863 -0.4705
 6500TIP3   OH219463   5.536   5.718   2.844  0.6097  0.1901 -0.2416
 6500TIP3    H119464   5.516   5.643   2.787 -1.7104  0.5770 -0.0099
 6500TIP3    H219465   5.543   5.792   2.785 -0.7920  0.4127 -0.1561
 6501TIP3   OH219466   5.582   5.622   4.030  0.2513  0.1083 -0.1275
 6501TIP3    H119467   5.551   5.562   3.962  0.8781  0.0971 -0.4037
 6501TIP3    H219468   5.521   5.609   4.103  1.6717 -2.5201  0.6737
 6502TIP3   OH219469   6.182   3.995   0.669 -0.3936 -0.2588  0.1468
 6502TIP3    H119470   6.197   4.077   0.716  1.5230 -1.2511  1.3005
 6502TIP3    H219471   6.148   3.935   0.735 -0.6591 -0.7610 -0.4365
 6503TIP3   OH219472   6.629   4.938   4.976 -0.1655 -0.1206  0.2206
 6503TIP3    H119473   6.646   4.964   4.886 -1.8887 -0.0173 -0.0717
 6503TIP3    H219474   6.688   4.864   4.991  0.7089  0.3830 -0.7164
 6504TIP3   OH219475   6.609   3.629   2.363 -0.2170  0.4989 -0.5845
 6504TIP3    H119476   6.572   3.554   2.410  0.8019  0.7959  0.7046
 6504TIP3    H219477   6.535   3.663   2.312 -0.8085 -1.0970 -0.8459
 6505TIP3   OH219478   2.814   0.999   0.143 -0.5032 -0.1184  0.3197
 6505TIP3    H119479   2.873   0.961   0.208  1.0261 -0.1036 -1.0428
 6505TIP3    H219480   2.808   1.092   0.169  1.4614  0.2704 -0.5261
 6506TIP3   OH219481   0.689   2.583   4.864 -0.3511 -0.5521 -0.4799
 6506TIP3    H119482   0.641   2.616   4.788  1.0714  1.0039 -0.7304
 6506TIP3    H219483   0.628   2.522   4.906 -1.5905 -0.5299 -2.1955
 6507TIP3   OH219484   4.416   4.316   3.956  0.6299 -0.2200 -0.0673
 6507TIP3    H119485   4.399   4.237   3.904 -0.4476  0.2531 -0.4545
 6507TIP3    H219486   4.457   4.376   3.894 -0.5918  0.3198 -0.3648
 6508TIP3   OH219487   4.735   5.282   1.517  0.1388 -0.0774 -0.5299
 6508TIP3    H119488   4.820   5.303   1.556 -1.0326  1.1553  1.4883
 6508TIP3    H219489   4.673   5.289   1.590 -2.0506  1.6112 -2.4697
 6509TIP3   OH219490   1.611   4.488   2.001  0.2799 -0.1262  0.3114
 6509TIP3    H119491   1.528   4.441   1.991 -0.6311  1.3098  0.9945
 6509TIP3    H219492   1.636   4.475   2.092  0.6314 -0.2589  0.1977
 6510TIP3   OH219493   6.197   4.556   1.295 -0.1474 -0.1295  0.1186
 6510TIP3    H119494   6.276   4.521   1.255 -0.0118  0.8616 -0.4849
 6510TIP3    H219495   6.126   4.532   1.235 -0.1652 -0.0779  0.1185
 6511TIP3   OH219496   6.926   6.199   3.320 -0.0459  0.5276  0.2457
 6511TIP3    H119497   6.861   6.262   3.290 -0.2670  0.1005 -0.1772
 6511TIP3    H219498   6.880   6.115   3.322  0.3751  0.2948  0.3453
 6512TIP3   OH219499   4.823   3.835   1.319  0.7760  0.4234 -0.5468
 6512TIP3    H119500   4.768   3.766   1.283  0.3298  0.7937 -0.5751
 6512TIP3    H219501   4.788   3.850   1.407  0.3044  1.2345 -0.8681
 6513TIP3   OH219502   5.149   4.750   1.865 -0.7109  0.1520 -0.2563
 6513TIP3    H119503   5.138   4.842   1.840  0.2287 -0.0003 -1.2266
 6513TIP3    H219504   5.061   4.714   1.861 -1.1868  1.1533  0.7295
 6514TIP3   OH219505   6.765   5.150   2.173  0.3860  0.3139 -0.1281
 6514TIP3    H119506   6.820   5.225   2.194  0.0826  0.3826  0.4227
 6514TIP3    H219507   6.786   5.130   2.081  0.7433  0.8294 -0.1610
 6515TIP3   OH219508   6.504   5.818   4.052 -0.5696  0.0327  0.1203
 6515TIP3    H119509   6.575   5.879   4.032 -0.8327  0.5292  0.7042
 6515TIP3    H219510   6.480   5.781   3.966 -0.1113  0.4101 -0.1732
 6516TIP3   OH219511   4.883   4.163   5.116 -0.2281 -0.6115 -0.0544
 6516TIP3    H119512   4.851   4.237   5.168 -1.2626 -2.2097  1.6805
 6516TIP3    H219513   4.833   4.168   5.034  1.3450  1.8890 -0.9155
 6517TIP3   OH219514   7.181   4.469   2.619  0.3083  0.0955 -0.0350
 6517TIP3    H119515   7.098   4.426   2.598  0.5054 -0.7196  0.8552
 6517TIP3    H219516   7.162   4.563   2.609 -0.7106 -0.0848  0.1471
 6518TIP3   OH219517   6.812   6.701   2.896 -0.7469  0.2196  0.1035
 6518TIP3    H119518   6.778   6.697   2.985  0.4678 -0.8604  0.5282
 6518TIP3    H219519   6.905   6.679   2.904 -0.5531  0.4271 -1.3780
 6519TIP3   OH219520   0.189   4.325   3.725 -0.7876  0.0987 -0.2306
 6519TIP3    H119521   0.271   4.337   3.677 -0.0801 -1.2006  0.6187
 6519TIP3    H219522   0.207   4.361   3.812  0.5865 -4.4873  1.5828
 6520TIP3   OH219523   2.005   0.700   1.866 -0.2444  0.1996  0.1207
 6520TIP3    H119524   2.027   0.607   1.856 -1.7508 -0.3047  1.2658
 6520TIP3    H219525   1.951   0.720   1.789 -0.1422  0.0528  0.0101
 6521TIP3   OH219526   6.471   3.262   2.962  0.0455 -0.2462  0.3298
 6521TIP3    H119527   6.480   3.202   3.036 -0.0964 -1.1373 -0.3688
 6521TIP3    H219528   6.380   3.252   2.933  0.2504 -0.3163 -0.3092
 6522TIP3   OH219529   6.371   6.862   1.988 -0.2976  0.1308  0.1817
 6522TIP3    H119530   6.294   6.812   2.014  0.4952 -0.8473  0.6831
 6522TIP3    H219531   6.418   6.878   2.070 -0.7725  2.0881  0.0848
 6523TIP3   OH219532   5.151   4.487   3.620  0.0289  0.4309  0.1161
 6523TIP3    H119533   5.218   4.514   3.683  0.3253  0.3184 -0.1499
 6523TIP3    H219534   5.190   4.506   3.534 -0.5453  0.9930 -0.0213
 6524TIP3   OH219535   5.808   5.417   3.083  0.3115  0.5862 -0.2816
 6524TIP3    H119536   5.876   5.420   3.150 -0.0771  1.6242  0.0739
 6524TIP3    H219537   5.830   5.340   3.030  0.1230 -0.7561  1.5453
 6525TIP3   OH219538   6.893   3.069   1.494  0.5565  0.0558 -0.2887
 6525TIP3    H119539   6.838   3.064   1.416 -0.3255  1.0654  0.2466
 6525TIP3    H219540   6.944   3.150   1.482  0.5144  0.1449  0.1207
 6526TIP3   OH219541   5.020   5.363   4.218 -0.1265  0.1786 -0.1619
 6526TIP3    H119542   4.997   5.352   4.310 -0.9366 -0.7934 -0.4733
 6526TIP3    H219543   5.012   5.457   4.202 -1.1836  0.1930  0.4458
 6527TIP3   OH219544   5.849   5.608   4.142  0.3156  0.3138 -0.3082
 6527TIP3    H119545   5.754   5.623   4.137  0.5056  1.2346 -1.2253
 6527TIP3    H219546   5.871   5.570   4.057  0.5907 -0.9504  0.3242
 6528TIP3   OH219547   6.164   2.646   2.199 -0.0667  0.0390  0.0988
 6528TIP3    H119548   6.249   2.645   2.243 -0.7107 -0.5363  1.3416
 6528TIP3    H219549   6.103   2.610   2.263 -1.4013  1.2058 -0.4896
 6529TIP3   OH219550   7.386   3.346   2.923  0.3565 -0.6746 -0.4348
 6529TIP3    H119551   7.311   3.307   2.879 -0.8492  0.9524  0.1068
 6529TIP3    H219552   7.390   3.302   3.008  0.5341 -1.3553 -0.7966
 6530TIP3   OH219553   6.787   5.562   4.131  0.1560 -0.5262  0.8937
 6530TIP3    H119554   6.724   5.494   4.155  0.4302 -0.6874  1.1674
 6530TIP3    H219555   6.801   5.549   4.037 -1.5203  0.6174  0.4809
 6531TIP3   OH219556   7.231   4.667   3.610 -0.2793 -0.1643 -0.8015
 6531TIP3    H119557   7.162   4.733   3.603  0.7652  1.0062 -0.2283
 6531TIP3    H219558   7.213   4.606   3.538 -2.7397 -0.6808  0.1955
 6532TIP3   OH219559   6.449   3.912   5.918 -0.6940 -0.3271 -0.6767
 6532TIP3    H119560   6.410   3.893   5.832  1.1498  2.5962 -2.2421
 6532TIP3    H219561   6.428   4.004   5.933  0.1665 -0.4678  1.4209
 6533TIP3   OH219562   4.717   4.827   2.939  0.2440  0.0736 -0.1518
 6533TIP3    H119563   4.624   4.848   2.941  0.1832 -0.2770  1.2075
 6533TIP3    H219564   4.720   4.731   2.936  0.5484  0.0896 -0.3396
 6534TIP3   OH219565   5.135   4.015   3.615 -0.0223  0.6209  0.2131
 6534TIP3    H119566   5.222   3.976   3.621 -1.3464 -2.3647  0.9498
 6534TIP3    H219567   5.112   4.037   3.705 -0.8724 -0.5936  0.3072
 6535TIP3   OH219568   5.605   5.029   1.626  0.0235 -0.2549  0.1351
 6535TIP3    H119569   5.550   5.092   1.671 -0.0479 -1.1088  1.2748
 6535TIP3    H219570   5.632   4.967   1.694  1.1206 -0.7346 -0.7072
 6536TIP3   OH219571   0.619   4.139   2.109  0.5572  0.1437 -0.0716
 6536TIP3    H119572   0.582   4.127   2.196  0.2177 -0.7628 -0.3290
 6536TIP3    H219573   0.660   4.226   2.111 -0.2199  0.4961  0.7051
 6537TIP3   OH219574   6.479   4.520   1.265  0.0703  0.1318  0.0697
 6537TIP3    H119575   6.528   4.563   1.335 -1.0785 -1.1878  1.7142
 6537TIP3    H219576   6.514   4.431   1.262 -0.1810  0.0556 -0.7361
 6538TIP3   OH219577   4.986   6.596   3.859 -0.0544  0.7599 -0.0217
 6538TIP3    H119578   4.909   6.540   3.850  0.7527 -0.4353  0.1905
 6538TIP3    H219579   4.992   6.614   3.953 -0.4541  1.3908 -0.1231
 6539TIP3   OH219580   4.337   4.199   3.359 -0.2636  0.2466  0.2485
 6539TIP3    H119581   4.330   4.293   3.340 -0.7926 -0.0484 -1.0518
 6539TIP3    H219582   4.429   4.178   3.340 -0.2636  0.3960  0.0879
 6540TIP3   OH219583   5.003   5.177   3.239  0.0596 -0.1933 -0.2552
 6540TIP3    H119584   5.076   5.143   3.292 -0.0822 -0.4523 -0.2247
 6540TIP3    H219585   5.046   5.227   3.170  0.3088 -0.9820 -0.6832
 6541TIP3   OH219586   6.606   5.958   3.545 -0.4912  0.3892 -0.3767
 6541TIP3    H119587   6.609   5.969   3.450 -0.7756 -0.3209 -0.4673
 6541TIP3    H219588   6.513   5.956   3.567 -0.4402 -0.6859 -0.2299
 6542TIP3   OH219589   6.127   4.936   2.447  0.7145  0.1089  0.3888
 6542TIP3    H119590   6.168   4.854   2.419  1.5668  0.2224  1.2483
 6542TIP3    H219591   6.197   5.002   2.438  0.8067  0.2639  2.0804
 6543TIP3   OH219592   2.002   1.389   5.815  0.0318  0.1402  0.6493
 6543TIP3    H119593   2.092   1.417   5.801 -0.3340  1.3311  0.6250
 6543TIP3    H219594   1.988   1.397   5.909 -0.3607  0.9352  0.5281
 6544TIP3   OH219595   6.798   5.764   2.385 -0.1079  0.0032 -0.0571
 6544TIP3    H119596   6.792   5.788   2.293 -0.3718  0.0868 -0.0174
 6544TIP3    H219597   6.708   5.749   2.412  0.1544 -2.7279 -0.5197
 6545TIP3   OH219598   5.474   5.178   0.524 -0.0585 -0.0887 -0.1998
 6545TIP3    H119599   5.537   5.229   0.474  0.0093  0.9346  0.8996
 6545TIP3    H219600   5.408   5.151   0.460  0.5936  0.2846 -1.0307
 6546TIP3   OH219601   5.212   3.877   2.243  0.2403  0.3453  0.0268
 6546TIP3    H119602   5.129   3.846   2.280  1.0639 -1.0891  0.6958
 6546TIP3    H219603   5.242   3.943   2.305  0.6464 -0.6577  0.9055
 6547TIP3   OH219604   3.983   5.476   2.593  0.0780  0.9141 -0.2573
 6547TIP3    H119605   4.031   5.466   2.511  0.6674 -0.2071  0.2225
 6547TIP3    H219606   4.000   5.566   2.620  0.6264  1.0014 -0.8964
 6548TIP3   OH219607   5.601   3.451   4.750  0.1920  0.0142  0.0657
 6548TIP3    H119608   5.566   3.369   4.784  1.4684 -0.5938 -0.0530
 6548TIP3    H219609   5.692   3.452   4.779  0.5492  0.7648 -1.0417
 6549TIP3   OH219610   4.847   3.689   4.659 -0.4153  0.3802  0.0570
 6549TIP3    H119611   4.921   3.717   4.714  0.8948 -1.1766 -0.8497
 6549TIP3    H219612   4.844   3.754   4.589  0.4204  0.1829 -0.1715
 6550TIP3   OH219613   6.817   4.639   4.303 -0.2984  0.3284 -0.3255
 6550TIP3    H119614   6.759   4.573   4.265 -0.6448 -0.0508  0.8295
 6550TIP3    H219615   6.905   4.608   4.282 -0.4500 -0.7222  0.5600
 6551TIP3   OH219616   0.213   6.265   0.490  0.1733 -0.0310 -0.1826
 6551TIP3    H119617   0.244   6.322   0.419  0.7856 -0.1042  0.0186
 6551TIP3    H219618   0.200   6.324   0.564 -0.5499  0.0583 -0.3814
 6552TIP3   OH219619   4.595   5.981   3.355 -0.3763 -0.4850  0.1268
 6552TIP3    H119620   4.537   6.044   3.396 -0.5290  0.0044 -0.8128
 6552TIP3    H219621   4.626   6.025   3.275  0.0987 -1.3098 -0.1566
 6553TIP3   OH219622   5.387   5.645   4.220  0.2642  0.0764 -0.3722
 6553TIP3    H119623   5.311   5.605   4.263 -0.5593  2.9237  0.9405
 6553TIP3    H219624   5.444   5.670   4.293  0.2263  2.2797 -1.0782
 6554TIP3   OH219625   5.872   4.357   2.425 -0.3294 -0.0470  0.1766
 6554TIP3    H119626   5.821   4.336   2.504 -1.3025  0.4184 -0.3230
 6554TIP3    H219627   5.809   4.354   2.354  0.8562 -2.0989 -0.8496
 6555TIP3   OH219628   5.681   4.758   3.877 -0.2988 -0.1603  0.5881
 6555TIP3    H119629   5.710   4.736   3.965 -2.2490  0.0409  1.2939
 6555TIP3    H219630   5.647   4.675   3.842  0.5502 -0.2611 -0.0194
 6556TIP3   OH219631   6.989   4.299   2.547  0.2758 -0.4620 -0.0459
 6556TIP3    H119632   6.979   4.244   2.469  0.1128 -0.4221 -0.0535
 6556TIP3    H219633   6.922   4.268   2.607 -0.5298  0.4481 -0.4681
 6557TIP3   OH219634   0.183   3.377   2.622  0.0733 -0.0206  0.2832
 6557TIP3    H119635   0.182   3.420   2.708 -0.7354 -2.0828  1.3372
 6557TIP3    H219636   0.266   3.404   2.583 -0.9516  3.5036  0.3557
 6558TIP3   OH219637   5.192   2.561   3.521  0.3322 -0.0226  0.1899
 6558TIP3    H119638   5.113   2.571   3.468 -0.9949 -0.9180  1.9185
 6558TIP3    H219639   5.251   2.509   3.466 -0.2486  0.6757 -1.1290
 6559TIP3   OH219640   5.944   5.770   2.168 -0.3874  0.0018  0.1307
 6559TIP3    H119641   5.890   5.849   2.154 -1.4312 -0.1903  2.6816
 6559TIP3    H219642   5.888   5.713   2.220  1.0259 -1.7113 -0.2054
 6560TIP3   OH219643   4.425   1.497   0.432 -0.4512  0.2530 -0.3191
 6560TIP3    H119644   4.481   1.437   0.481  0.4667 -0.6635 -2.4221
 6560TIP3    H219645   4.339   1.455   0.430 -0.9733  1.1179  1.9282
 6561TIP3   OH219646   6.630   5.511   3.890  0.2474  0.2576  0.3936
 6561TIP3    H119647   6.657   5.572   3.822  2.4867  0.8966  1.8163
 6561TIP3    H219648   6.702   5.449   3.897 -0.5810 -0.6278  1.2013
 6562TIP3   OH219649   2.781   0.193   0.024  0.4449  0.0999 -0.0064
 6562TIP3    H119650   2.870   0.225   0.039 -0.8992  3.5516  1.1430
 6562TIP3    H219651   2.751   0.166   0.111 -0.2958  0.7385 -0.0649
 6563TIP3   OH219652   5.494   1.564   4.875  0.3477  0.5465 -0.1407
 6563TIP3    H119653   5.441   1.633   4.836 -1.7860 -0.0829  1.5388
 6563TIP3    H219654   5.433   1.490   4.884  2.4460 -1.3829 -1.4351
 6564TIP3   OH219655   6.248   4.167   4.694 -0.6082 -0.9317  0.0982
 6564TIP3    H119656   6.305   4.195   4.766 -0.0181  0.5090 -0.8873
 6564TIP3    H219657   6.307   4.155   4.620 -1.4505 -0.2884 -0.7021
 6565TIP3   OH219658   7.319   3.384   4.522 -0.6043 -0.2421 -0.2290
 6565TIP3    H119659   7.263   3.328   4.576 -1.4714  0.7079 -0.1424
 6565TIP3    H219660   7.384   3.419   4.583 -0.5441 -0.5086 -0.1346
 6566TIP3   OH219661   0.741   3.628   3.516  0.1290  0.1851 -0.5035
 6566TIP3    H119662   0.695   3.702   3.555 -0.6834 -0.3763 -0.3774
 6566TIP3    H219663   0.748   3.564   3.586  1.3395  0.3623 -0.4536
 6567TIP3   OH219664   5.055   5.105   4.412 -0.5069 -0.3185  0.1791
 6567TIP3    H119665   5.031   5.047   4.340  0.4387  0.8945 -1.1582
 6567TIP3    H219666   5.111   5.052   4.469 -1.9008 -1.5193  0.4656
 6568TIP3   OH219667   5.598   2.930   4.365 -0.6647 -0.4986 -0.2764
 6568TIP3    H119668   5.610   2.980   4.285 -1.1298 -0.4910 -0.3419
 6568TIP3    H219669   5.512   2.958   4.398  1.1485  2.4036  2.2748
 6569TIP3   OH219670   5.285   4.494   3.363 -0.4049 -0.0558  0.2882
 6569TIP3    H119671   5.219   4.494   3.295 -2.4734 -1.5181  2.2317
 6569TIP3    H219672   5.325   4.407   3.358 -0.3576 -0.0634  0.7410
 6570TIP3   OH219673   6.533   6.077   2.629  0.0104 -0.2900  0.1908
 6570TIP3    H119674   6.532   6.103   2.537  2.2482 -1.1827 -0.1274
 6570TIP3    H219675   6.453   6.027   2.641 -1.0568  1.1315 -0.8693
 6571TIP3   OH219676   5.174   5.711   3.422  0.0190  0.0635 -0.2378
 6571TIP3    H119677   5.180   5.633   3.368 -1.9543  0.9206 -1.7539
 6571TIP3    H219678   5.229   5.775   3.377 -4.2234  1.8390 -3.2777
 6572TIP3   OH219679   4.189   0.458   4.161 -0.5984 -0.1974  0.1155
 6572TIP3    H119680   4.185   0.371   4.201 -1.2988  0.1070  0.7229
 6572TIP3    H219681   4.184   0.441   4.067  3.0304 -1.0665 -0.0093
 6573TIP3   OH219682   4.057   5.902   4.096  0.3478 -0.2895  0.2195
 6573TIP3    H119683   4.000   5.911   4.172  1.3207 -0.1854  0.9345
 6573TIP3    H219684   4.089   5.813   4.100  0.3952 -0.2863 -0.0780
 6574TIP3   OH219685   0.719   5.327   3.651  0.5338  0.3920  0.1377
 6574TIP3    H119686   0.814   5.317   3.651  0.7468  2.2355 -1.4255
 6574TIP3    H219687   0.696   5.341   3.560 -1.3228 -0.5861  0.4342
 6575TIP3   OH219688   6.898   5.128   3.275 -0.1475  0.2934 -0.0160
 6575TIP3    H119689   6.877   5.165   3.189  0.2519 -0.3732 -0.4056
 6575TIP3    H219690   6.896   5.033   3.261  0.3409  0.1873  0.6135
 6576TIP3   OH219691   0.187   4.506   2.475 -0.5204  0.0475 -0.0865
 6576TIP3    H119692   0.134   4.518   2.396 -0.2945  1.8195  0.0037
 6576TIP3    H219693   0.277   4.514   2.444 -0.4185  0.3248  0.2765
 6577TIP3   OH219694   1.783   0.874   2.233 -0.1962 -0.3045  0.6491
 6577TIP3    H119695   1.752   0.802   2.287 -0.1253 -0.8072  0.0263
 6577TIP3    H219696   1.865   0.842   2.195 -0.1903  0.0859  0.3311
 6578TIP3   OH219697   5.655   5.668   1.768 -0.2939  0.3762 -0.0971
 6578TIP3    H119698   5.632   5.673   1.676  1.0846  0.0839 -0.4754
 6578TIP3    H219699   5.600   5.733   1.811 -2.4668 -0.9641 -0.8013
 6579TIP3   OH219700   0.425   4.854   2.016 -0.3807  0.5443  0.0179
 6579TIP3    H119701   0.490   4.863   1.946  2.0788 -0.1696  2.1394
 6579TIP3    H219702   0.358   4.919   1.994  0.6894  0.8643 -2.5732
 6580TIP3   OH219703   5.934   6.457   3.006  0.0982 -0.5809 -0.7529
 6580TIP3    H119704   5.875   6.532   3.010 -2.4205 -2.5025 -0.6455
 6580TIP3    H219705   5.988   6.464   3.085  0.5452  1.6160 -1.2327
 6581TIP3   OH219706   0.986   3.761   0.983  0.3117  0.7131  0.3057
 6581TIP3    H119707   0.911   3.721   0.940  0.2017  0.6969  0.5104
 6581TIP3    H219708   1.059   3.703   0.962  0.2376  0.6475  0.2290
 6582TIP3   OH219709   5.860   3.473   2.784  0.4114  0.1269  0.2915
 6582TIP3    H119710   5.919   3.447   2.855  0.7390  1.6212  0.5788
 6582TIP3    H219711   5.914   3.525   2.725 -0.3966  0.7179  0.0673
 6583TIP3   OH219712   0.717   4.351   3.426  0.9540 -0.0040 -0.4714
 6583TIP3    H119713   0.627   4.327   3.449  1.2948  0.3946  1.4209
 6583TIP3    H219714   0.728   4.324   3.335 -0.8890 -0.5912 -0.5252
 6584TIP3   OH219715   4.626   1.975   3.167 -0.5017 -0.0120  0.3960
 6584TIP3    H119716   4.543   1.993   3.123  0.5411  0.2589 -1.5011
 6584TIP3    H219717   4.690   2.030   3.122  0.7763 -0.4876  1.6032
 6585TIP3   OH219718   6.994   5.526   1.844 -0.2699  0.7665 -0.6073
 6585TIP3    H119719   7.020   5.618   1.847  2.5483  0.1539 -3.2061
 6585TIP3    H219720   6.920   5.524   1.783 -0.6157  1.3800 -0.2082
 6586TIP3   OH219721   6.634   3.724   1.885  0.2303 -0.4140  0.4643
 6586TIP3    H119722   6.636   3.709   1.791 -1.0029 -1.2899  0.5655
 6586TIP3    H219723   6.720   3.762   1.905  0.4748 -0.1549 -1.0093
 6587TIP3   OH219724   6.243   4.689   2.384  0.2809 -0.4938 -0.2923
 6587TIP3    H119725   6.335   4.694   2.409  0.0883 -1.3025  0.5931
 6587TIP3    H219726   6.200   4.646   2.458 -0.8220 -0.0373 -0.6612
 6588TIP3   OH219727   6.149   4.467   4.727  0.1903 -0.2218  0.1133
 6588TIP3    H119728   6.188   4.380   4.719 -0.2834 -0.4624  0.3961
 6588TIP3    H219729   6.222   4.525   4.750  0.5831 -0.4688 -0.5278
 6589TIP3   OH219730   3.220   4.603   1.855  0.2614 -0.4420  0.4501
 6589TIP3    H119731   3.208   4.534   1.920  1.0603 -0.5549  0.4735
 6589TIP3    H219732   3.239   4.682   1.907  2.1103 -0.7866  0.3013
 6590TIP3   OH219733   6.914   4.513   3.205  0.2652  0.7368  0.7064
 6590TIP3    H119734   6.959   4.542   3.284  0.5520  1.0275  0.4394
 6590TIP3    H219735   6.842   4.575   3.194  1.3772  1.8655 -0.3287
 6591TIP3   OH219736   3.510   0.320   1.192  0.2862  0.3657  0.1431
 6591TIP3    H119737   3.504   0.224   1.189 -0.8505  0.4561 -0.8467
 6591TIP3    H219738   3.594   0.339   1.150  0.1993 -0.1667 -0.2837
 6592TIP3   OH219739   5.845   2.987   0.757 -0.0655  0.8081 -0.2915
 6592TIP3    H119740   5.784   3.049   0.796  2.0784  2.1812  0.9573
 6592TIP3    H219741   5.909   2.969   0.826  0.6906 -0.9666 -1.4051
 6593TIP3   OH219742   4.987   2.929   1.457 -0.0647 -0.4100  0.2302
 6593TIP3    H119743   5.078   2.931   1.487  0.6148 -1.9501 -1.5946
 6593TIP3    H219744   4.985   2.985   1.380  0.4531 -3.9658 -2.4843
 6594TIP3   OH219745   4.591   3.684   4.258  0.0323 -0.1489 -0.2203
 6594TIP3    H119746   4.576   3.734   4.338  1.2922 -1.6606  0.9858
 6594TIP3    H219747   4.686   3.674   4.254 -0.1576 -1.8715 -0.7912
 6595TIP3   OH219748   5.381   4.313   3.708 -0.1218  0.2006 -0.3102
 6595TIP3    H119749   5.291   4.302   3.736 -0.3250 -0.1779 -1.0994
 6595TIP3    H219750   5.383   4.279   3.618  0.5117  1.3799 -0.7611
 6596TIP3   OH219751   7.194   5.738   3.211 -0.2724 -0.6764 -0.2824
 6596TIP3    H119752   7.277   5.694   3.193 -0.6188 -1.8541  0.8849
 6596TIP3    H219753   7.163   5.767   3.126  1.3873 -0.1255 -0.7112
 6597TIP3   OH219754   6.910   3.459   3.102 -0.2048  0.1390 -0.2339
 6597TIP3    H119755   6.897   3.371   3.066 -0.4129 -0.5616  1.4909
 6597TIP3    H219756   6.846   3.513   3.055 -0.0042 -0.5935 -1.3918
 6598TIP3   OH219757   5.883   5.067   1.970  0.2447  0.3454  0.1966
 6598TIP3    H119758   5.952   5.133   1.975  0.8862 -0.2328 -0.6585
 6598TIP3    H219759   5.910   5.010   1.898 -0.9398 -0.1129  0.0932
 6599TIP3   OH219760   5.803   4.039   3.674  0.1898  0.5898 -0.3210
 6599TIP3    H119761   5.895   4.038   3.702  0.2982 -2.1246 -0.6975
 6599TIP3    H219762   5.783   4.132   3.663  2.5500  1.2810  0.8659
 6600TIP3   OH219763   6.533   6.940   4.287 -0.2113 -0.1746  0.2470
 6600TIP3    H119764   6.533   7.022   4.238 -2.1450 -0.4286 -0.1827
 6600TIP3    H219765   6.602   6.888   4.246  0.8215  1.1028  0.3214
 6601TIP3   OH219766   6.896   6.864   3.278 -0.1108  1.0078  0.3029
 6601TIP3    H119767   6.838   6.891   3.349 -1.2211  1.8823 -0.9027
 6601TIP3    H219768   6.951   6.941   3.263  0.6425  0.5528  0.7279
 6602TIP3   OH219769   6.021   4.574   3.736  0.3240  0.6239 -0.0491
 6602TIP3    H119770   5.989   4.663   3.724  0.0825  0.9457  2.5492
 6602TIP3    H219771   6.096   4.566   3.677  0.0457  2.3815 -0.6499
 6603TIP3   OH219772   5.468   6.417   4.675 -0.1824 -0.0928 -0.0405
 6603TIP3    H119773   5.484   6.368   4.594 -0.0844 -0.9862  0.5103
 6603TIP3    H219774   5.528   6.378   4.738  0.3142  1.1448  0.2616
 6604TIP3   OH219775   0.646   4.351   4.681  0.2174  0.4195 -0.0868
 6604TIP3    H119776   0.581   4.313   4.622  0.9235 -0.1992 -0.4835
 6604TIP3    H219777   0.601   4.359   4.765  0.7165 -3.5171  0.6496
 6605TIP3   OH219778   5.999   6.765   5.358  0.2032  0.5942 -0.1033
 6605TIP3    H119779   5.930   6.776   5.423 -1.4126 -1.0643 -1.4806
 6605TIP3    H219780   5.965   6.808   5.279 -0.4152 -2.4177 -1.5469
 6606TIP3   OH219781   0.101   4.903   5.174 -0.2264 -0.6022  0.3707
 6606TIP3    H119782   0.144   4.969   5.228  0.6849 -1.3767  0.6020
 6606TIP3    H219783   0.055   4.847   5.236 -0.4100 -0.6221  0.2201
 6607TIP3   OH219784   5.817   4.914   4.666 -0.3508 -0.2853 -0.5229
 6607TIP3    H119785   5.791   4.895   4.576 -1.6476 -0.2763 -0.1603
 6607TIP3    H219786   5.849   4.831   4.700 -1.0561 -0.5861 -0.5935
 6608TIP3   OH219787   5.585   6.686   1.989  0.2450 -0.4416  0.2274
 6608TIP3    H119788   5.671   6.666   2.026 -0.1909 -0.3365  1.3247
 6608TIP3    H219789   5.527   6.690   2.065 -0.4995  0.7260 -0.3868
 6609TIP3   OH219790   6.601   4.953   3.245 -0.1909 -0.1188 -0.0373
 6609TIP3    H119791   6.627   5.033   3.291 -1.6868  0.8516 -0.8179
 6609TIP3    H219792   6.588   4.888   3.314 -0.8307  0.8586  0.7770
 6610TIP3   OH219793   5.403   6.548   5.170 -0.6743  0.6730  0.0799
 6610TIP3    H119794   5.410   6.462   5.128 -2.0650  0.4168  0.3649
 6610TIP3    H219795   5.425   6.610   5.100  1.9110  0.0398  0.2793
 6611TIP3   OH219796   4.391   5.702   2.810  0.2141 -0.6633 -0.4065
 6611TIP3    H119797   4.413   5.782   2.857  0.2421  0.2833 -2.0178
 6611TIP3    H219798   4.296   5.702   2.804  0.3144  0.4406 -2.4218
 6612TIP3   OH219799   5.570   6.224   3.895 -0.6763  0.1880 -0.3318
 6612TIP3    H119800   5.538   6.136   3.875 -1.6033  0.6176 -0.7995
 6612TIP3    H219801   5.494   6.269   3.932 -0.4047  0.9941 -0.7298
 6613TIP3   OH219802   5.908   5.898   3.203 -0.2310  0.4092 -0.1004
 6613TIP3    H119803   5.837   5.836   3.217 -0.9616  1.3184  0.2439
 6613TIP3    H219804   5.934   5.884   3.111 -0.2483 -0.5363  0.0323
 6614TIP3   OH219805   0.173   3.722   4.809  0.2482  0.1108  0.2169
 6614TIP3    H119806   0.115   3.783   4.762 -1.0900 -0.4993  1.0320
 6614TIP3    H219807   0.245   3.776   4.841 -0.3564  1.0651 -0.0151
 6615TIP3   OH219808   6.287   3.937   3.588  0.5408 -0.2671  0.4049
 6615TIP3    H119809   6.310   4.023   3.623 -0.9079  0.3825 -0.2173
 6615TIP3    H219810   6.311   3.942   3.495 -3.0970  0.8419 -0.5527
 6616TIP3   OH219811   5.420   3.139   5.157  0.3053  0.0632 -0.2015
 6616TIP3    H119812   5.394   3.068   5.098  0.1339 -0.1647  0.1453
 6616TIP3    H219813   5.391   3.219   5.114  2.2472  0.0795 -1.5578
 6617TIP3   OH219814   4.469   2.190   3.392 -0.0003 -0.1312 -0.0954
 6617TIP3    H119815   4.485   2.097   3.374 -1.6744 -0.5498  0.4074
 6617TIP3    H219816   4.555   2.227   3.410  0.6352 -1.6991  0.1361
 6618TIP3   OH219817   6.820   4.754   4.981 -0.3959  0.0772 -0.2877
 6618TIP3    H119818   6.816   4.659   4.976  0.3898 -0.0285  0.7561
 6618TIP3    H219819   6.910   4.776   4.956 -0.9906  0.6555 -1.9176
 6619TIP3   OH219820   6.682   4.696   2.767 -0.0839 -0.4580 -0.0215
 6619TIP3    H119821   6.663   4.762   2.700  1.8099  0.3610  0.2189
 6619TIP3    H219822   6.682   4.613   2.719  0.9916  0.0920 -1.0010
 6620TIP3   OH219823   4.123   5.074   3.728 -0.0269 -0.4929 -0.3696
 6620TIP3    H119824   4.067   5.008   3.689  0.0970 -0.1629 -1.1079
 6620TIP3    H219825   4.096   5.077   3.820 -0.3117 -1.2729 -0.4226
 6621TIP3   OH219826   5.076   3.695   2.982  0.0750 -0.0946 -0.2250
 6621TIP3    H119827   5.031   3.611   2.980 -0.3336  0.0926  0.9613
 6621TIP3    H219828   5.022   3.753   2.928 -0.1093 -0.3577 -0.3218
 6622TIP3   OH219829   5.250   5.028   3.675 -0.2064 -0.3065 -0.2929
 6622TIP3    H119830   5.302   5.087   3.729 -1.0380 -0.9142  1.2163
 6622TIP3    H219831   5.239   4.950   3.730 -0.5088 -1.2035 -1.6125
 6623TIP3   OH219832   5.156   6.130   3.317  0.6979 -0.4086  0.1335
 6623TIP3    H119833   5.212   6.059   3.286 -0.4566 -0.9695 -0.7188
 6623TIP3    H219834   5.077   6.086   3.349  0.5481  0.3981  0.8841
 6624TIP3   OH219835   2.110   0.100   4.303 -0.2014 -0.0496 -0.5945
 6624TIP3    H119836   2.159   0.182   4.307 -1.6085  0.8789 -2.1130
 6624TIP3    H219837   2.048   0.106   4.376  0.4970 -0.3166  0.0370
 6625TIP3   OH219838   5.242   3.359   5.026  0.3115  0.4201 -0.0123
 6625TIP3    H119839   5.289   3.392   4.950 -1.4346  2.5271 -0.2177
 6625TIP3    H219840   5.284   3.402   5.100  1.2789 -0.7800  0.1634
 6626TIP3   OH219841   5.092   3.856   4.578 -0.8115  0.5063 -0.3887
 6626TIP3    H119842   5.145   3.843   4.499 -1.3599  0.6664 -0.7907
 6626TIP3    H219843   5.143   3.817   4.648 -0.9196 -0.8556 -1.0421
 6627TIP3   OH219844   6.631   4.896   2.594  0.1966  0.3697 -0.1987
 6627TIP3    H119845   6.564   4.958   2.565  0.4431  0.3340 -0.8398
 6627TIP3    H219846   6.706   4.912   2.537  1.3712  1.5920  1.6315
 6628TIP3   OH219847   0.985   3.498   2.369 -0.2406 -0.0096  0.1296
 6628TIP3    H119848   1.014   3.415   2.333 -1.2163 -0.5715  0.6153
 6628TIP3    H219849   0.899   3.513   2.330 -0.5950  0.1686  0.9553
 6629TIP3   OH219850   5.874   5.171   2.473 -0.3212 -0.4291  0.0263
 6629TIP3    H119851   5.819   5.176   2.395 -1.4960 -0.2833  0.8459
 6629TIP3    H219852   5.947   5.231   2.456 -0.2367 -0.8705 -1.2034
 6630TIP3   OH219853   2.564   0.610   2.169 -0.8815  0.8281  0.6096
 6630TIP3    H119854   2.509   0.557   2.112 -1.5711  0.4510  1.6120
 6630TIP3    H219855   2.574   0.557   2.248  1.4014  0.6353  0.2275
 6631TIP3   OH219856   1.180   4.147   3.956  0.0907 -0.6178 -0.4031
 6631TIP3    H119857   1.217   4.065   3.988 -0.6701 -1.7578 -2.3746
 6631TIP3    H219858   1.224   4.163   3.873 -1.3080 -0.1459 -1.0666
 6632TIP3   OH219859   5.971   3.542   1.056 -0.0616  0.6302  0.3598
 6632TIP3    H119860   6.008   3.571   1.140 -0.4667  1.7356  0.1633
 6632TIP3    H219861   5.891   3.495   1.081 -0.1774  0.9476  0.5922
 6633TIP3   OH219862   1.384   3.686   2.662  0.0498  0.1872  0.5755
 6633TIP3    H119863   1.409   3.611   2.716  0.0802 -1.3309 -1.4875
 6633TIP3    H219864   1.467   3.725   2.636  0.1006 -0.4926 -0.2957
 6634TIP3   OH219865   1.283   5.304   4.656 -0.1041  0.6224  0.6394
 6634TIP3    H119866   1.333   5.369   4.606  0.2863  0.0279  0.2490
 6634TIP3    H219867   1.323   5.221   4.633 -0.1605  0.3077  1.6790
 6635TIP3   OH219868   6.625   3.369   3.775  0.0663 -0.5976 -0.0928
 6635TIP3    H119869   6.587   3.302   3.718  2.4044 -3.0257  1.1606
 6635TIP3    H219870   6.561   3.380   3.845 -0.0933 -1.9251 -0.0168
 6636TIP3   OH219871   0.870   5.797   3.300 -0.4794 -0.2881  0.3698
 6636TIP3    H119872   0.862   5.850   3.221 -0.1024 -0.2327  0.3669
 6636TIP3    H219873   0.790   5.814   3.349  0.2817  1.3918  1.0491
 6637TIP3   OH219874   6.716   5.648   3.432 -0.6385  0.4427 -0.4643
 6637TIP3    H119875   6.625   5.618   3.441 -1.0998  1.8704 -0.1629
 6637TIP3    H219876   6.739   5.629   3.341 -1.5691  0.9320 -0.8056
 6638TIP3   OH219877   0.284   5.075   2.435 -0.6890  0.0395  0.1281
 6638TIP3    H119878   0.343   5.006   2.406 -0.9812 -0.4161  0.6234
 6638TIP3    H219879   0.327   5.113   2.511  0.0556  1.2069 -0.8474
 6639TIP3   OH219880   3.360   3.682   3.351 -0.8548 -0.3194  0.0635
 6639TIP3    H119881   3.349   3.661   3.258  0.5610 -1.4161  0.1263
 6639TIP3    H219882   3.374   3.597   3.392  1.0569  0.3821  0.9104
 6640TIP3   OH219883   1.903   4.988   3.943  0.0023  0.3939 -0.0378
 6640TIP3    H119884   1.925   5.063   3.888 -1.2183  0.8462  0.0840
 6640TIP3    H219885   1.815   5.007   3.976 -0.4623 -1.2559 -0.2926
 6641TIP3   OH219886   7.336   5.033   4.664  0.0022  0.8835  0.3358
 6641TIP3    H119887   7.345   5.047   4.758 -2.2089  1.7786  0.4441
 6641TIP3    H219888   7.408   5.082   4.625  0.8749  0.5847  1.5612
 6642TIP3   OH219889   6.939   4.458   2.945 -0.1909  0.1831 -0.1273
 6642TIP3    H119890   6.931   4.553   2.936  0.2062  0.0991 -1.5357
 6642TIP3    H219891   6.915   4.440   3.036 -2.3482  1.3836 -0.4375
 6643TIP3   OH219892   1.788   5.354   2.949  0.4293 -0.1713 -0.2899
 6643TIP3    H119893   1.731   5.316   3.016  1.3329 -1.2840 -0.1476
 6643TIP3    H219894   1.875   5.322   2.969  0.7503 -0.3477 -1.8778
 6644TIP3   OH219895   3.017   0.053   4.132  0.1549  0.2835 -0.1212
 6644TIP3    H119896   3.071   0.037   4.055 -1.4551  0.9268 -1.4105
 6644TIP3    H219897   2.942  -0.006   4.122 -0.3590  0.7982  0.6401
 6645TIP3   OH219898   3.375   0.922   2.816 -0.1294  0.1865  0.3542
 6645TIP3    H119899   3.357   0.829   2.827  1.6303 -0.1585  0.4826
 6645TIP3    H219900   3.468   0.931   2.837 -0.1657  1.8907 -0.1469
 6646TIP3   OH219901   6.853   6.007   2.502  0.3250 -0.0213 -0.1249
 6646TIP3    H119902   6.882   5.975   2.587 -0.5866  1.2178  0.6674
 6646TIP3    H219903   6.834   5.928   2.452  0.6913 -0.7546  0.8746
 6647TIP3   OH219904   2.332   0.007   2.804  0.2218 -0.2453 -0.1328
 6647TIP3    H119905   2.413  -0.017   2.760 -0.1384 -0.4864 -0.6715
 6647TIP3    H219906   2.360   0.057   2.881  0.8212  0.8103 -1.0208
 6648TIP3   OH219907   1.381   3.160   2.192 -0.1975  0.0987  0.4382
 6648TIP3    H119908   1.395   3.068   2.211  1.3947  0.0917 -0.6787
 6648TIP3    H219909   1.409   3.206   2.271  3.8604 -0.0832 -0.7809
 6649TIP3   OH219910   0.280   4.069   4.631 -0.6196 -0.0382 -0.6228
 6649TIP3    H119911   0.324   4.017   4.563 -1.8018 -0.0323 -1.4303
 6649TIP3    H219912   0.198   4.021   4.647 -3.0411  2.9426 -3.3713
 6650TIP3   OH219913   6.504   4.458   2.999 -0.0959 -0.2078 -0.0014
 6650TIP3    H119914   6.576   4.458   2.936  1.0662 -1.8615  1.2819
 6650TIP3    H219915   6.468   4.547   2.995 -0.4068 -0.4374 -3.3663
 6651TIP3   OH219916   6.732   6.214   2.240  0.2129 -0.3941 -0.0872
 6651TIP3    H119917   6.739   6.166   2.322  0.4241  0.8407  0.6413
 6651TIP3    H219918   6.679   6.291   2.262  0.0521 -0.1837 -1.1700
 6652TIP3   OH219919   0.981   6.289   2.132 -0.1437  0.2424  0.4978
 6652TIP3    H119920   0.953   6.381   2.129 -1.7954 -0.2088  1.5294
 6652TIP3    H219921   0.927   6.246   2.066  0.1281 -0.1212  0.5144
 6653TIP3   OH219922   0.450   6.490   4.122  0.1131 -0.1360  0.2659
 6653TIP3    H119923   0.445   6.533   4.207  0.4455  0.5409 -0.0504
 6653TIP3    H219924   0.414   6.554   4.060  0.4584 -0.3735 -0.1912
 6654TIP3   OH219925   6.037   4.198   1.457  0.2922  0.1072 -0.0593
 6654TIP3    H119926   5.994   4.281   1.477  0.1488 -0.0455  0.2694
 6654TIP3    H219927   6.111   4.193   1.516  1.3492  0.8267 -1.3066
 6655TIP3   OH219928   6.914   4.733   2.904 -0.7655 -0.1215  0.7267
 6655TIP3    H119929   6.956   4.781   2.833  0.2554  1.7472  2.5402
 6655TIP3    H219930   6.820   4.736   2.882 -0.6197  1.8531  0.2977
 6656TIP3   OH219931   6.337   5.178   3.407  0.0556  0.2825 -0.1016
 6656TIP3    H119932   6.304   5.261   3.441  0.4194  0.7403 -0.8355
 6656TIP3    H219933   6.361   5.197   3.316  0.1138 -0.6359 -0.2900
 6657TIP3   OH219934   7.175   6.027   2.723 -0.3016  0.0824 -0.3103
 6657TIP3    H119935   7.184   5.996   2.633  2.4775 -0.6022  0.1397
 6657TIP3    H219936   7.179   6.123   2.716 -2.4409  0.1282 -1.1112
 6658TIP3   OH219937   0.577   4.474   3.746  0.0492 -0.1583  0.1292
 6658TIP3    H119938   0.506   4.475   3.682 -1.0593 -0.7886  1.3250
 6658TIP3    H219939   0.569   4.390   3.791  1.0379  0.1083  0.8441
 6659TIP3   OH219940   6.739   6.309   1.645  0.2435  0.0957 -0.6434
 6659TIP3    H119941   6.720   6.401   1.662 -0.1137  0.2255 -1.7233
 6659TIP3    H219942   6.802   6.285   1.713 -1.3674  0.5010  1.0328
 6660TIP3   OH219943   6.607   4.699   3.828  0.3061  0.5106  0.2099
 6660TIP3    H119944   6.680   4.645   3.858  0.5835 -0.1892 -1.6776
 6660TIP3    H219945   6.571   4.652   3.753 -1.2207  1.5501  0.2639
 6661TIP3   OH219946   5.505   5.887   1.870  0.2513  0.1094 -0.4133
 6661TIP3    H119947   5.526   5.975   1.902  2.7520  0.6407 -3.2617
 6661TIP3    H219948   5.428   5.899   1.815  0.1697  0.4052 -0.2378
 6662TIP3   OH219949   3.740   3.741   1.577 -0.0953  0.8228  0.8014
 6662TIP3    H119950   3.777   3.828   1.591  1.0908  0.5673 -0.5581
 6662TIP3    H219951   3.806   3.681   1.613  0.7037  0.3750 -1.3086
 6663TIP3   OH219952   0.890   3.971   5.503  0.4858 -0.1800 -0.0991
 6663TIP3    H119953   0.937   4.053   5.489 -2.9611  1.4605 -2.5099
 6663TIP3    H219954   0.799   3.996   5.517 -0.6188 -3.5634 -0.6446
 6664TIP3   OH219955   1.753   0.899   1.448 -0.4143  0.2430 -0.4256
 6664TIP3    H119956   1.795   0.978   1.414 -0.9472  0.3520 -0.8296
 6664TIP3    H219957   1.738   0.845   1.371  0.8727 -0.7029 -0.0386
 6665TIP3   OH219958   2.129   5.767   3.766 -0.1241  0.2967 -0.4607
 6665TIP3    H119959   2.072   5.843   3.753  0.4555  0.8962  0.4747
 6665TIP3    H219960   2.204   5.783   3.708 -0.6203 -0.2057 -1.2482
 6666TIP3   OH219961   6.952   4.863   3.139 -0.5786  0.6813  0.0253
 6666TIP3    H119962   6.860   4.853   3.163 -0.9571  1.0464 -1.2114
 6666TIP3    H219963   6.964   4.805   3.064  0.7751 -1.0507  1.5585
 6667TIP3   OH219964   0.919   3.517   3.720 -0.0260 -0.0026  0.2563
 6667TIP3    H119965   0.908   3.612   3.729 -0.2318 -0.2978  3.4162
 6667TIP3    H219966   0.849   3.480   3.774 -0.4606 -1.9824 -1.6159
 6668TIP3   OH219967   6.060   3.119   3.260 -0.0091  0.1269  0.4118
 6668TIP3    H119968   6.149   3.146   3.281  0.3613 -0.7268 -0.0736
 6668TIP3    H219969   6.069   3.063   3.183 -0.9957  0.3039  0.1633
 6669TIP3   OH219970   1.785   6.432   3.644 -0.1273  0.5802 -0.2655
 6669TIP3    H119971   1.790   6.505   3.706 -0.8697  0.7410 -0.3875
 6669TIP3    H219972   1.870   6.389   3.650 -0.2533  0.4986  0.9831
 6670TIP3   OH219973   0.125   4.054   2.901 -0.1680  0.4219 -0.0299
 6670TIP3    H119974   0.106   3.960   2.906  2.4333 -0.1872 -0.3917
 6670TIP3    H219975   0.098   4.079   2.813  0.1105 -0.2431 -0.3114
 6671TIP3   OH219976   6.983   5.073   0.487  0.2708 -0.6348  0.1395
 6671TIP3    H119977   6.943   5.033   0.410  0.8099  1.2116 -1.1423
 6671TIP3    H219978   7.016   5.000   0.538  1.1214 -1.8451 -2.0791
 6672TIP3   OH219979   6.476   5.443   2.862  0.0834  0.0724 -0.0120
 6672TIP3    H119980   6.499   5.497   2.938 -0.4750  2.2909 -1.3459
 6672TIP3    H219981   6.394   5.401   2.887  0.2182  0.3001  0.8390
 6673TIP3   OH219982   0.528   0.815   2.586  0.3934  0.1868  0.4326
 6673TIP3    H119983   0.593   0.885   2.592 -0.2273  0.8045  0.1313
 6673TIP3    H219984   0.473   0.827   2.663  1.6866 -1.4296  1.6323
 6674TIP3   OH219985   0.348   3.670   3.963 -0.0500  0.2754  0.5089
 6674TIP3    H119986   0.348   3.575   3.974 -0.0041  0.4003  1.7036
 6674TIP3    H219987   0.324   3.703   4.050  0.1696  1.3599  0.1545
 6675TIP3   OH219988   6.449   4.305   4.031 -0.2590 -0.6864  0.4302
 6675TIP3    H119989   6.516   4.346   4.086 -0.2104  0.9590 -0.8340
 6675TIP3    H219990   6.366   4.336   4.066 -0.2128  0.8070 -0.7378
 6676TIP3   OH219991   7.334   4.678   2.000  0.1223  0.2765 -0.1230
 6676TIP3    H119992   7.261   4.684   1.938  1.2612 -0.6999 -1.5580
 6676TIP3    H219993   7.366   4.768   2.007 -0.4378  0.5043 -0.4137
 6677TIP3   OH219994   5.194   5.175   0.674 -0.1354  0.0493 -0.2234
 6677TIP3    H119995   5.266   5.112   0.679  0.3027  0.3837 -1.9894
 6677TIP3    H219996   5.236   5.260   0.678 -0.5623  0.2409  0.2321
 6678TIP3   OH219997   5.849   2.063   2.772  0.1905 -0.0567  0.4933
 6678TIP3    H119998   5.832   2.051   2.678  0.6878 -2.9951  0.7290
 6678TIP3    H219999   5.769   2.033   2.814  0.6497 -0.4888  1.0640
 6679TIP3   OH220000   0.958   3.259   3.549  0.1700  0.4132  0.0796
 6679TIP3    H120001   0.942   3.354   3.549  0.4836  0.4694  0.0490
 6679TIP3    H220002   1.052   3.251   3.564  0.4236  0.1637 -1.4899
 6680TIP3   OH220003   0.212   6.711   3.159  0.2917 -0.1086 -0.0068
 6680TIP3    H120004   0.266   6.635   3.180  0.0960 -0.5765 -1.1328
 6680TIP3    H220005   0.122   6.679   3.165  0.2193 -0.0890 -0.9213
 6681TIP3   OH220006   0.777   4.250   1.813  0.3648 -0.2064  0.2168
 6681TIP3    H120007   0.686   4.219   1.806  0.6344 -1.1312  0.6836
 6681TIP3    H220008   0.815   4.233   1.727  0.0232  0.4587 -0.0762
 6682TIP3   OH220009   0.448   5.183   4.551  0.0501 -0.1975  0.0360
 6682TIP3    H120010   0.456   5.206   4.644  0.2329  0.9816 -0.2714
 6682TIP3    H220011   0.519   5.120   4.537  0.5958  0.3020  0.4886
 6683TIP3   OH220012   1.215   6.264   3.260 -0.5147 -0.0928  0.1466
 6683TIP3    H120013   1.272   6.206   3.210  0.1292 -0.1117  0.9091
 6683TIP3    H220014   1.249   6.352   3.242  0.1173 -0.1453  1.0569
 6684TIP3   OH220015   6.629   6.485   1.831 -0.2285 -0.8034 -0.4782
 6684TIP3    H120016   6.627   6.396   1.865 -0.2852 -0.3883  0.5965
 6684TIP3    H220017   6.609   6.541   1.906 -0.0905  0.1240 -1.1211
 6685TIP3   OH220018   0.265   6.931   1.100 -0.5869  0.2954 -0.6031
 6685TIP3    H120019   0.294   7.021   1.087  1.3511 -0.4261 -1.3774
 6685TIP3    H220020   0.261   6.894   1.012  1.7357 -1.3151 -0.0618
 6686TIP3   OH220021   0.885   5.657   2.502 -0.1915 -0.3266  0.0176
 6686TIP3    H120022   0.955   5.713   2.536  0.8303 -1.1401 -0.6987
 6686TIP3    H220023   0.875   5.588   2.567 -0.7762  0.1410  0.4279
 6687TIP3   OH220024   0.046   3.403   3.398 -0.0844 -0.0683 -0.0298
 6687TIP3    H120025  -0.016   3.426   3.466  0.1617  0.5422 -0.0109
 6687TIP3    H220026  -0.008   3.379   3.322 -0.3429 -0.0250  0.1439
 6688TIP3   OH220027   6.487   5.019   2.222  0.1801  0.2482 -0.4659
 6688TIP3    H120028   6.412   5.049   2.171  0.6638  0.2445 -1.1859
 6688TIP3    H220029   6.550   4.989   2.157  0.0477 -1.5613  0.2109
 6689TIP3   OH220030   4.801   4.816   2.042 -0.5515  0.0001 -0.2244
 6689TIP3    H120031   4.780   4.881   1.975  1.0293  0.4174 -0.3399
 6689TIP3    H220032   4.877   4.770   2.007 -0.9389 -1.1148  0.3945
 6690TIP3   OH220033   6.526   6.292   4.706 -0.0033 -0.0060 -0.1843
 6690TIP3    H120034   6.580   6.237   4.649 -0.4243  0.0487 -0.6411
 6690TIP3    H220035   6.554   6.382   4.685 -0.3814  0.0292 -0.5293
 6691TIP3   OH220036   6.867   5.744   0.659  0.1836  0.2064  0.0467
 6691TIP3    H120037   6.923   5.674   0.624 -1.9101 -1.8509  0.7301
 6691TIP3    H220038   6.852   5.719   0.750 -0.7969  1.4296  0.2301
 6692TIP3   OH220039   0.773   4.678   3.652 -0.1111  0.2402 -0.3515
 6692TIP3    H120040   0.722   4.597   3.664  0.1728 -0.0065 -0.8099
 6692TIP3    H220041   0.839   4.674   3.722 -0.4320  0.3393 -0.0393
 6693TIP3   OH220042   0.944   4.810   5.312  0.7166  0.2152  0.1359
 6693TIP3    H120043   0.877   4.805   5.244  0.2105 -1.1476  0.7145
 6693TIP3    H220044   0.932   4.895   5.353 -1.2190 -0.3676  0.7958
 6694TIP3   OH220045   0.103   6.524   4.253  0.2050  0.9526  0.3505
 6694TIP3    H120046   0.147   6.605   4.280 -1.4535  1.4786  1.5368
 6694TIP3    H220047   0.048   6.550   4.180  0.4621  0.6734  0.0566
 6695TIP3   OH220048   2.884   5.521   5.036 -0.6149 -0.3439 -0.5595
 6695TIP3    H120049   2.851   5.576   4.965  0.3568  1.0590  0.0628
 6695TIP3    H220050   2.839   5.437   5.024  0.1905 -0.4001 -3.3301
 6696TIP3   OH220051   1.954   0.167   4.852  0.2694 -0.8721 -0.5091
 6696TIP3    H120052   1.947   0.219   4.932  1.2180  0.5174 -1.3207
 6696TIP3    H220053   1.867   0.172   4.812  0.1925 -0.4131 -0.2779
 6697TIP3   OH220054   0.209   5.800   3.650 -0.0520  0.0087 -0.3979
 6697TIP3    H120055   0.114   5.791   3.639 -0.2839 -0.0786  1.4456
 6697TIP3    H220056   0.219   5.870   3.715  1.1989  0.9069 -1.5240
 6698TIP3   OH220057   1.977   5.403   5.082  0.1608 -0.1407  0.0184
 6698TIP3    H120058   1.986   5.461   5.157  1.6737  0.0413 -0.2897
 6698TIP3    H220059   2.038   5.331   5.099  0.8104  0.0991 -1.2071
 6699TIP3   OH220060   5.663   1.480   0.538 -0.3532 -0.3070 -0.3126
 6699TIP3    H120061   5.634   1.491   0.448  3.0458 -2.5999 -1.7879
 6699TIP3    H220062   5.616   1.402   0.569 -1.0620  0.1308 -0.2673
 6700TIP3   OH220063   6.917   6.125   4.340 -0.0040 -0.5320  0.4654
 6700TIP3    H120064   6.937   6.038   4.305  0.0078 -1.1079  1.8763
 6700TIP3    H220065   6.923   6.115   4.435 -0.7392  0.8359  0.6709
 6701TIP3   OH220066   6.914   0.078   0.572 -0.2356 -0.5142  0.0000
 6701TIP3    H120067   6.900   0.046   0.661  0.5464 -0.9090 -0.0208
 6701TIP3    H220068   6.832   0.058   0.527  0.0242 -1.9391  0.1481
 6702TIP3   OH220069   7.277   4.611   3.166  0.3439 -0.3452 -0.2889
 6702TIP3    H120070   7.232   4.650   3.241  1.3127  0.2036  0.0327
 6702TIP3    H220071   7.253   4.666   3.092 -0.6922 -0.9465 -0.3999
 6703TIP3   OH220072   2.296   6.461   3.527  0.5396  0.0802  0.0346
 6703TIP3    H120073   2.387   6.473   3.500  0.6613 -2.1012 -0.6087
 6703TIP3    H220074   2.261   6.398   3.465 -0.5058 -1.5128  2.1655
 6704TIP3   OH220075   3.602   0.266   3.564  0.0517  0.0786  0.3357
 6704TIP3    H120076   3.616   0.176   3.592 -2.7918  0.6752  4.0789
 6704TIP3    H220077   3.649   0.273   3.481 -0.0910 -4.9514 -0.3156
 6705TIP3   OH220078   6.054   0.345   4.838  0.1523  0.6541 -0.3095
 6705TIP3    H120079   6.026   0.264   4.796  0.9820  1.2348 -2.0597
 6705TIP3    H220080   6.045   0.411   4.769 -0.9806  2.1423  1.2402
 6706TIP3   OH220081   2.307   0.047   2.408 -0.1208  0.3048  0.4321
 6706TIP3    H120082   2.354  -0.021   2.455 -0.1458  1.5220  2.2631
 6706TIP3    H220083   2.214   0.026   2.422 -0.1446 -0.5490 -0.9028
 6707TIP3   OH220084   6.944   5.805   2.998 -0.1744 -0.1061  0.1054
 6707TIP3    H120085   7.013   5.748   2.964  0.6734  0.1075  1.4649
 6707TIP3    H220086   6.879   5.806   2.928  1.1952 -0.3001 -1.2127
 6708TIP3   OH220087   1.023   6.692   4.472 -0.2477  0.0838  0.1791
 6708TIP3    H120088   0.931   6.680   4.493  0.1031 -0.6274  1.3646
 6708TIP3    H220089   1.061   6.604   4.478  0.4009  0.2728 -0.8611
 6709TIP3   OH220090   7.318   4.834   4.091 -0.1984  0.0313 -0.2143
 6709TIP3    H120091   7.236   4.866   4.128 -0.9592 -0.6566 -1.2694
 6709TIP3    H220092   7.303   4.833   3.997  0.7754 -0.7918 -0.3711
 6710TIP3   OH220093   1.190   5.778   5.541 -0.3076 -0.3791  0.5078
 6710TIP3    H120094   1.259   5.794   5.477 -0.6530  1.5229  0.5826
 6710TIP3    H220095   1.233   5.728   5.611  0.7653  0.0127  0.1339
 6711TIP3   OH220096   7.216   5.869   4.582  0.0587 -0.5042 -0.0657
 6711TIP3    H120097   7.186   5.956   4.608  0.8225 -0.1392 -0.3996
 6711TIP3    H220098   7.221   5.820   4.665 -1.7973 -0.6975 -0.0387
 6712TIP3   OH220099   0.254   5.774   4.197 -0.0946 -0.2889 -0.1772
 6712TIP3    H120100   0.177   5.830   4.207 -0.3087 -0.4481 -0.9133
 6712TIP3    H220101   0.276   5.781   4.104  1.7577  1.0341  0.3285
 6713TIP3   OH220102   2.335   5.508   4.634  0.6629 -0.2326  0.5605
 6713TIP3    H120103   2.420   5.546   4.615  0.3068 -0.4431 -1.5789
 6713TIP3    H220104   2.282   5.581   4.668  2.0055 -0.3557  3.0553
 6714TIP3   OH220105   0.101   0.901   3.764  0.4351  0.7067  0.0539
 6714TIP3    H120106   0.090   0.812   3.798  1.8049  0.7341  0.6219
 6714TIP3    H220107   0.053   0.957   3.825 -1.4942  0.2592 -1.0054
 6715TIP3   OH220108   0.757   6.748   4.639 -0.0356  0.3164 -0.3632
 6715TIP3    H120109   0.722   6.690   4.707 -1.5395  1.5040 -0.0742
 6715TIP3    H220110   0.840   6.780   4.675 -0.6408  0.6429  0.7629
 6716TIP3   OH220111   1.767   3.680   5.674 -0.1037 -0.2169 -0.5205
 6716TIP3    H120112   1.702   3.681   5.603 -0.0957  1.0463 -0.5172
 6716TIP3    H220113   1.851   3.684   5.630 -0.0321 -1.2094 -0.4964
 6717TIP3   OH220114   0.632   6.572   5.429 -0.3889 -0.3532  0.7240
 6717TIP3    H120115   0.610   6.659   5.396  0.3481 -0.6723 -0.6470
 6717TIP3    H220116   0.679   6.589   5.511 -1.2537  0.4923  1.0507
 6718TIP3   OH220117   0.528   3.007   5.567  0.0596  0.3022 -0.5755
 6718TIP3    H120118   0.607   2.961   5.593 -0.4521 -1.3981 -1.9893
 6718TIP3    H220119   0.502   3.056   5.646  0.7831 -1.5484  0.8346
 6719TIP3   OH220120   2.225   0.911   3.819  0.1365 -0.2444 -0.0067
 6719TIP3    H120121   2.141   0.878   3.851  0.9556 -1.3884  1.0231
 6719TIP3    H220122   2.290   0.857   3.864  1.4378  1.0199 -0.3508
 6720TIP3   OH220123   6.967   6.351   4.797  0.8724  0.1695 -0.2624
 6720TIP3    H120124   7.037   6.417   4.794 -0.2912  1.4166 -0.2504
 6720TIP3    H220125   6.959   6.330   4.890 -0.2609  1.6504 -0.0143
 6721TIP3   OH220126   4.328   5.670   1.459 -0.1321  0.0863  0.4324
 6721TIP3    H120127   4.287   5.732   1.399  0.2577 -0.6708 -0.6387
 6721TIP3    H220128   4.384   5.724   1.515 -0.2906  0.7713 -0.0618
 6722TIP3   OH220129   1.168   6.025   4.624  1.0202 -0.1344 -0.1987
 6722TIP3    H120130   1.185   5.933   4.645  0.7866 -0.5179 -1.6566
 6722TIP3    H220131   1.198   6.035   4.534 -1.5418  0.5174 -1.0159
 6723TIP3   OH220132   0.324   4.837   3.730 -0.2677 -0.3630 -0.2238
 6723TIP3    H120133   0.376   4.774   3.780  1.3666 -0.0303 -1.4713
 6723TIP3    H220134   0.253   4.784   3.692  1.0565 -1.4813 -1.2152
 6724TIP3   OH220135   1.621   5.597   4.895 -0.0223  0.2554  0.0105
 6724TIP3    H120136   1.631   5.674   4.839  0.7130 -0.5287 -0.9401
 6724TIP3    H220137   1.530   5.569   4.880  0.2758 -0.1622 -1.0721
 6725TIP3   OH220138   1.967   4.814   3.609  0.0228 -0.2106 -0.0417
 6725TIP3    H120139   1.884   4.827   3.562 -0.2304  0.1621  0.5083
 6725TIP3    H220140   1.999   4.902   3.627  2.6540 -0.2373 -3.8727
 6726TIP3   OH220141   6.682   6.686   3.868  0.3982  0.6516  0.0869
 6726TIP3    H120142   6.644   6.650   3.948 -1.4794  3.1329  0.3764
 6726TIP3    H220143   6.774   6.701   3.891  0.5459 -1.2882  0.8345
 6727TIP3   OH220144   5.425   5.960   4.787 -0.0162  0.4694  0.2817
 6727TIP3    H120145   5.486   5.892   4.816 -0.7508 -0.4586 -0.3170
 6727TIP3    H220146   5.382   5.922   4.710 -0.0542  1.8315 -0.3750
 6728TIP3   OH220147   2.056   6.299   5.086 -0.6577 -0.1074  0.1020
 6728TIP3    H120148   2.000   6.296   5.009 -1.1066 -0.9044  0.4553
 6728TIP3    H220149   2.018   6.235   5.146 -0.3436  0.5403  1.0041
 6729TIP3   OH220150   2.688   3.889   5.375  0.5392  0.4729  0.2979
 6729TIP3    H120151   2.773   3.863   5.412  1.2948  1.9485 -0.3766
 6729TIP3    H220152   2.642   3.929   5.448 -0.3082 -1.9356  1.1336
 6730TIP3   OH220153   1.650   5.053   4.030  0.1731  0.0448  0.1449
 6730TIP3    H120154   1.581   5.002   4.072 -0.4479  2.5279  2.2651
 6730TIP3    H220155   1.606   5.098   3.958 -0.1897  0.8024  0.8374
 6731TIP3   OH220156   1.592   6.666   5.141  0.0006 -0.5894 -0.4139
 6731TIP3    H120157   1.577   6.669   5.236 -0.5394  0.6102 -0.5294
 6731TIP3    H220158   1.519   6.615   5.107 -0.5313  0.0874 -0.3129
 6732TIP3   OH220159   0.795   4.778   5.079 -0.2521  0.3608 -0.3571
 6732TIP3    H120160   0.727   4.789   5.013 -0.4153 -0.3657 -0.3079
 6732TIP3    H220161   0.877   4.799   5.033 -0.3237 -0.5506 -0.9015
 6733TIP3   OH220162   2.237   1.339   3.783 -0.5091 -0.1704 -0.0893
 6733TIP3    H120163   2.190   1.302   3.709 -0.5630 -1.5487  0.6197
 6733TIP3    H220164   2.169   1.378   3.837 -0.1904  3.8085 -2.3440
 6734TIP3   OH220165   2.213   5.184   4.282 -0.0414 -0.5033 -0.0502
 6734TIP3    H120166   2.155   5.176   4.358  0.5803 -0.5798  0.4113
 6734TIP3    H220167   2.197   5.104   4.232 -1.7547  0.3433 -0.9134
 6735TIP3   OH220168   0.984   5.805   5.699 -0.1698 -0.4759  0.5936
 6735TIP3    H120169   1.070   5.818   5.661 -1.5426 -1.1300 -2.9208
 6735TIP3    H220170   0.958   5.717   5.670 -2.2686 -0.0557  1.1090
 6736TIP3   OH220171   0.759   5.785   5.238  0.1554 -0.1268  0.0913
 6736TIP3    H120172   0.730   5.725   5.306 -0.0569  1.3684  1.3372
 6736TIP3    H220173   0.690   5.851   5.232  0.8749  0.5848 -0.5282
 6737TIP3   OH220174   1.238   0.854   3.120 -0.1658 -0.3815 -0.2271
 6737TIP3    H120175   1.259   0.898   3.202 -2.1138  0.5950 -0.2229
 6737TIP3    H220176   1.186   0.778   3.146  0.5081 -0.9321 -0.4651
 6738TIP3   OH220177   1.918   5.256   4.843  0.9012 -0.4670 -0.2732
 6738TIP3    H120178   2.004   5.235   4.806  0.9376  0.0846 -0.5049
 6738TIP3    H220179   1.938   5.299   4.926  0.9046  1.4207 -1.2225
 6739TIP3   OH220180   2.162   6.310   5.647 -0.4880  1.0659 -0.2680
 6739TIP3    H120181   2.110   6.231   5.662  1.1475  0.0862  0.3271
 6739TIP3    H220182   2.138   6.337   5.558 -0.1753 -0.7767 -0.9307
 6740TIP3   OH220183   0.108   5.119   5.522  0.0338  0.1340  0.4472
 6740TIP3    H120184   0.180   5.062   5.498 -1.8862 -1.4242 -1.7727
 6740TIP3    H220185   0.136   5.206   5.493  1.4035 -0.2839  0.4714
 6741TIP3   OH220186   2.598   0.432   2.391  0.2770  0.0867 -0.0593
 6741TIP3    H120187   2.688   0.421   2.421  0.2635 -0.9024 -0.3479
 6741TIP3    H220188   2.555   0.350   2.414 -0.4350  0.3817 -0.3266
 6742TIP3   OH220189   1.270   4.812   5.035 -0.3363  0.9826  0.3563
 6742TIP3    H120190   1.181   4.824   5.003  0.2508  1.5179 -1.0980
 6742TIP3    H220191   1.319   4.887   5.001  1.5036 -1.1869 -1.9641
 6743TIP3   OH220192   2.759   3.677   5.110  0.0339  0.7276  0.2490
 6743TIP3    H120193   2.781   3.675   5.017 -0.0997  1.0334  0.2096
 6743TIP3    H220194   2.667   3.702   5.113  0.0750  0.8602  0.4667
 6744TIP3   OH220195   2.916   4.035   5.432 -0.3545 -1.1919  0.6088
 6744TIP3    H120196   2.962   4.093   5.493  2.0947 -1.1912 -1.1834
 6744TIP3    H220197   2.842   4.088   5.400 -0.2348 -0.3485  1.7019
 6745TIP3   OH220198   0.587   6.285   4.308 -0.4791 -0.0453  0.1030
 6745TIP3    H120199   0.593   6.195   4.339  0.8263 -0.8957 -2.5006
 6745TIP3    H220200   0.494   6.303   4.304 -0.8551 -2.2676 -2.0484
 6746TIP3   OH220201   7.096   6.001   3.108  0.1207 -0.3952  0.4772
 6746TIP3    H120202   7.010   5.984   3.071 -0.1419  1.9468 -0.1041
 6746TIP3    H220203   7.155   6.001   3.033  0.1815  0.6784  0.5158
 6747TIP3   OH220204   1.458   5.157   3.833 -0.0262 -0.3681  0.3412
 6747TIP3    H120205   1.386   5.161   3.769  0.4514 -0.2840 -0.1908
 6747TIP3    H220206   1.414   5.150   3.917 -0.6570 -2.4024 -0.1266
 6748TIP3   OH220207   2.169   5.301   4.017  0.2972 -0.4419  0.5520
 6748TIP3    H120208   2.248   5.293   4.071  1.0528  0.9476 -0.2936
 6748TIP3    H220209   2.162   5.218   3.971  0.2533 -1.2331  1.9703
 6749TIP3   OH220210   6.918   5.064   4.097  0.1226  0.0522 -1.2416
 6749TIP3    H120211   6.972   5.142   4.104  0.4999  0.0487 -3.5047
 6749TIP3    H220212   6.832   5.097   4.069 -1.1104  0.0563  2.2631
 6750TIP3   OH220213   4.215   0.631   4.771  0.1174 -0.1871 -0.4590
 6750TIP3    H120214   4.217   0.610   4.678 -0.7049 -2.0110 -0.0856
 6750TIP3    H220215   4.122   0.644   4.790 -0.0276 -2.6360  0.6907
 6751TIP3   OH220216   6.779   5.254   3.006  0.1877 -0.2705  0.3614
 6751TIP3    H120217   6.804   5.323   2.945 -0.3696 -0.9187 -0.6212
 6751TIP3    H220218   6.756   5.180   2.950 -0.6686 -0.7665  1.3511
 6752TIP3   OH220219   5.578   1.932   0.259  0.0159 -0.0739 -0.1863
 6752TIP3    H120220   5.515   1.860   0.263 -1.7999  1.4199 -0.9578
 6752TIP3    H220221   5.590   1.948   0.166  1.1203  0.0303 -0.0306
 6753TIP3   OH220222   0.925   5.656   4.612  0.0245 -0.0190  0.1160
 6753TIP3    H120223   0.984   5.619   4.546  1.4630  0.5743  1.0381
 6753TIP3    H220224   0.840   5.659   4.569  1.1297  1.2607 -2.0731
 6754TIP3   OH220225   0.748   4.073   4.751 -0.0928 -0.0629  0.6698
 6754TIP3    H120226   0.766   4.021   4.672  0.4280 -0.3558  0.9757
 6754TIP3    H220227   0.715   4.156   4.718 -2.0662 -1.0161  0.2027
 6755TIP3   OH220228   2.708   0.687   3.833  0.0006 -0.0359 -0.0730
 6755TIP3    H120229   2.670   0.619   3.888  1.7776 -1.1075 -0.1252
 6755TIP3    H220230   2.691   0.658   3.743  1.1010 -0.6218 -0.0970
 6756TIP3   OH220231   4.750   0.056   4.809  0.3031 -0.2882  0.1480
 6756TIP3    H120232   4.708   0.015   4.733  0.6724 -0.1073 -0.1531
 6756TIP3    H220233   4.842   0.032   4.802  0.2732 -0.5823  0.7455
 6757TIP3   OH220234   1.601   0.416   5.419 -0.0235  0.5425 -0.0802
 6757TIP3    H120235   1.513   0.380   5.414  0.5434 -0.9400  0.2367
 6757TIP3    H220236   1.616   0.428   5.513  0.9343 -1.3506  0.0269
 6758TIP3   OH220237   3.411   1.101   3.840  0.1629  0.5265 -0.1490
 6758TIP3    H120238   3.362   1.030   3.799 -0.3460  0.0479  1.2454
 6758TIP3    H220239   3.491   1.060   3.872  0.1153  0.6855  0.1790
 6759TIP3   OH220240   3.382   0.306   4.820  0.1419  0.5953 -0.0136
 6759TIP3    H120241   3.409   0.226   4.775 -0.9717  0.7530 -1.0051
 6759TIP3    H220242   3.336   0.275   4.898  1.6537  0.3141  0.7894
 6760TIP3   OH220243   2.677   6.074   3.822 -0.1919  0.3543 -0.5949
 6760TIP3    H120244   2.760   6.081   3.776 -0.4295  1.1612 -0.9045
 6760TIP3    H220245   2.694   6.013   3.893  0.9952  1.4312  0.0639
 6761TIP3   OH220246   0.538   6.505   4.974 -0.0122  0.4036 -0.0684
 6761TIP3    H120247   0.479   6.570   4.936  0.2269  0.5485 -0.1969
 6761TIP3    H220248   0.624   6.549   4.975  0.0622  0.2576  0.2647
 6762TIP3   OH220249   0.510   0.824   3.621 -0.3943 -0.4156  0.0585
 6762TIP3    H120250   0.491   0.904   3.668 -2.1920 -0.3389 -0.7665
 6762TIP3    H220251   0.441   0.817   3.555  0.4129 -2.0162 -0.6632
 6763TIP3   OH220252   1.230   6.125   4.018 -0.6674  0.7574 -0.3492
 6763TIP3    H120253   1.181   6.072   3.954 -0.5097  1.0089 -0.6801
 6763TIP3    H220254   1.186   6.107   4.101  1.3032 -2.3584  0.1131
 6764TIP3   OH220255   1.816   6.806   5.013 -0.9268  0.2772  0.4658
 6764TIP3    H120256   1.773   6.887   4.985 -2.0581 -0.0389  1.2944
 6764TIP3    H220257   1.746   6.753   5.052  0.1408 -0.3773  1.5199
 6765TIP3   OH220258   1.098   4.720   4.223 -0.0219 -0.6910  0.3387
 6765TIP3    H120259   1.071   4.785   4.159  0.2471  1.0909  1.9579
 6765TIP3    H220260   1.194   4.729   4.227 -0.1877  0.5485  2.3006
 6766TIP3   OH220261   1.041   0.410   2.969  0.2368  0.3662  0.6290
 6766TIP3    H120262   0.955   0.451   2.956 -0.4462 -1.2239  0.0425
 6766TIP3    H220263   1.042   0.386   3.061 -0.6926 -1.2340  0.2397
 6767TIP3   OH220264   2.135   3.781   2.997 -0.3708 -0.1446 -0.6331
 6767TIP3    H120265   2.212   3.730   2.973 -0.7324 -1.1230  0.2294
 6767TIP3    H220266   2.170   3.863   3.032  0.2542 -0.3483 -0.7719
 6768TIP3   OH220267   2.581   6.432   5.137 -0.5556  0.3659 -0.7176
 6768TIP3    H120268   2.563   6.502   5.075 -1.0394  1.0973  0.2203
 6768TIP3    H220269   2.567   6.473   5.223 -1.7006 -1.1132 -0.1835
 6769TIP3   OH220270   4.574   1.662   4.707 -0.1125 -0.1239  0.3341
 6769TIP3    H120271   4.525   1.736   4.741  0.7188  0.5748  0.0304
 6769TIP3    H220272   4.611   1.620   4.784  1.7575  1.4489  0.3322
 6770TIP3   OH220273   1.355   2.501   4.130 -0.1995  0.1687 -0.5675
 6770TIP3    H120274   1.333   2.414   4.096 -0.1292 -0.8344  1.8363
 6770TIP3    H220275   1.450   2.500   4.138 -0.2801  0.0740  0.4498
 6771TIP3   OH220276   1.824   5.710   5.813  0.1608  0.0628  0.5885
 6771TIP3    H120277   1.779   5.673   5.737 -0.9333 -0.9036  1.6838
 6771TIP3    H220278   1.911   5.734   5.781 -0.4629  0.1155 -1.0770
 6772TIP3   OH220279   6.553   5.312   5.749  0.0843  0.1450  0.3342
 6772TIP3    H120280   6.568   5.330   5.841 -0.9518  1.0010  0.3457
 6772TIP3    H220281   6.495   5.237   5.748  0.6141 -0.2662  0.3648
 6773TIP3   OH220282   1.749   6.535   5.384 -0.2553 -0.7216  0.1565
 6773TIP3    H120283   1.787   6.577   5.306 -1.0340 -0.2675  0.0208
 6773TIP3    H220284   1.814   6.470   5.410 -0.3861 -1.4820 -1.3938
 6774TIP3   OH220285   1.214   6.055   5.715  0.1290 -0.0186  0.0303
 6774TIP3    H120286   1.144   6.083   5.656 -1.4387 -1.0463  1.3775
 6774TIP3    H220287   1.259   5.986   5.666 -0.4702 -0.1088 -0.4067
 6775TIP3   OH220288   5.870   0.900   0.172 -0.2263  0.2049 -0.3946
 6775TIP3    H120289   5.907   0.988   0.173 -0.1754  0.1984 -1.1204
 6775TIP3    H220290   5.908   0.857   0.248 -2.1241  1.5604  1.3562
 6776TIP3   OH220291   5.166   0.063   0.747 -0.2039  0.6407  0.0071
 6776TIP3    H120292   5.109   0.086   0.673 -0.3104  0.0792 -0.0907
 6776TIP3    H220293   5.181   0.146   0.793 -1.4449  0.7092  0.2845
 6777TIP3   OH220294   1.054   3.587   3.107  0.0513 -0.0557  0.1231
 6777TIP3    H120295   1.137   3.617   3.070  0.0000 -1.4131 -1.1619
 6777TIP3    H220296   0.990   3.603   3.037 -0.1386 -2.1643 -0.2091
 6778TIP3   OH220297   1.921   0.641   2.692 -0.2543  0.3420  0.4202
 6778TIP3    H120298   1.961   0.566   2.648  0.6909  0.9018  0.3127
 6778TIP3    H220299   1.892   0.606   2.776  1.2326  0.1091  0.8555
 6779TIP3   OH220300   1.473   2.957   5.705  0.1896 -0.2730 -0.3215
 6779TIP3    H120301   1.554   2.917   5.738 -0.3416 -0.9042  0.2493
 6779TIP3    H220302   1.406   2.929   5.768 -0.3270  0.9191 -0.3405
 6780TIP3   OH220303   6.285   6.809   4.665 -0.5779 -0.0234 -0.0939
 6780TIP3    H120304   6.276   6.751   4.741  0.0536 -1.5765 -1.1850
 6780TIP3    H220305   6.195   6.826   4.637 -0.7697 -0.3596  0.3077
 6781TIP3   OH220306   1.331   3.801   5.640 -0.1787 -0.0245 -0.2998
 6781TIP3    H120307   1.304   3.789   5.731  1.1171  0.0532  0.1054
 6781TIP3    H220308   1.384   3.881   5.640 -1.1916  0.6606 -1.3477
 6782TIP3   OH220309   0.646   5.021   4.966 -0.0725  0.3596  0.1976
 6782TIP3    H120310   0.657   4.933   4.931 -0.0186  0.8217 -0.9760
 6782TIP3    H220311   0.591   5.010   5.044  0.2010 -0.7408  0.2326
 6783TIP3   OH220312   2.691   6.942   2.945  1.0601  0.5690  0.3940
 6783TIP3    H120313   2.742   6.870   2.908  0.3465 -0.0897  0.6696
 6783TIP3    H220314   2.695   7.011   2.879  0.0697 -0.4748 -0.7695
 6784TIP3   OH220315   0.249   5.194   4.240  0.3104 -0.4247  0.1608
 6784TIP3    H120316   0.159   5.177   4.269  0.8968 -0.1258  2.2758
 6784TIP3    H220317   0.292   5.109   4.243  0.5437 -0.2855  0.8048
 6785TIP3   OH220318   1.048   4.910   3.277 -0.0394 -0.2737 -0.2881
 6785TIP3    H120319   0.968   4.915   3.329 -1.0557  0.6084 -1.8941
 6785TIP3    H220320   1.057   4.817   3.257 -0.9994 -0.2985 -0.6202
 6786TIP3   OH220321   6.461   5.294   3.831 -0.7810 -0.2364  0.2249
 6786TIP3    H120322   6.509   5.378   3.834  2.1119 -1.7931 -0.2509
 6786TIP3    H220323   6.415   5.296   3.747  0.6650  0.1638 -0.5815
 6787TIP3   OH220324   2.357   0.714   1.662  0.0428 -0.2808 -0.4052
 6787TIP3    H120325   2.288   0.744   1.603  1.3150  0.9137 -1.3017
 6787TIP3    H220326   2.310   0.693   1.744 -1.2563  1.4140 -0.6829
 6788TIP3   OH220327   0.344   4.925   4.226 -0.4414  0.3434  0.4024
 6788TIP3    H120328   0.259   4.882   4.228 -0.5155  0.4486 -0.5180
 6788TIP3    H220329   0.405   4.858   4.257 -0.6549 -0.1961 -0.3358
 6789TIP3   OH220330   0.945   5.680   5.074  0.6922 -0.1531  0.4131
 6789TIP3    H120331   0.882   5.715   5.137  1.3602  0.6926  0.6117
 6789TIP3    H220332   0.978   5.600   5.114  0.1794 -0.2927  0.5654
 6790TIP3   OH220333   1.070   5.935   4.261 -0.1625  0.6833 -0.1195
 6790TIP3    H120334   1.140   5.927   4.325 -0.7725  2.0264  0.7290
 6790TIP3    H220335   1.031   5.848   4.257 -0.1382  0.6032  1.3432
 6791TIP3   OH220336   6.538   3.983   2.272  0.0276  0.3150  1.0443
 6791TIP3    H120337   6.514   4.075   2.260  0.0117  0.0878 -0.8300
 6791TIP3    H220338   6.491   3.957   2.351 -1.8619  1.2851  0.2907
 6792TIP3   OH220339   6.725   0.737   0.032  0.1816  0.2029 -0.0499
 6792TIP3    H120340   6.660   0.807   0.025 -0.5196 -0.3780  0.5226
 6792TIP3    H220341   6.785   0.767   0.100  0.0134  0.3611  0.0300
 6793TIP3   OH220342   2.370   6.867   3.909  0.0735  0.1674  0.1627
 6793TIP3    H120343   2.422   6.793   3.879 -0.5996 -0.2365  0.0016
 6793TIP3    H220344   2.362   6.853   4.004 -0.8169 -0.4455 -0.0005
 6794TIP3   OH220345   0.308   6.920   4.088  0.2232 -0.4244 -0.0155
 6794TIP3    H120346   0.286   7.002   4.045  0.1032 -1.1294 -1.3360
 6794TIP3    H220347   0.258   6.922   4.170 -0.9228  0.1798 -0.7036
 6795TIP3   OH220348   1.417   6.401   4.599  0.4801  0.0939  0.2841
 6795TIP3    H120349   1.408   6.436   4.511 -1.1307 -0.1513  0.3389
 6795TIP3    H220350   1.458   6.471   4.649 -0.3290  0.9387 -0.2248
 6796TIP3   OH220351   2.301   5.333   5.253  0.1660 -0.3102 -0.1457
 6796TIP3    H120352   2.235   5.307   5.188  1.4909  0.6504 -1.9402
 6796TIP3    H220353   2.302   5.262   5.317 -1.8800 -0.8135 -0.6451
 6797TIP3   OH220354   0.729   6.367   5.211  0.1354 -0.6092  0.4034
 6797TIP3    H120355   0.699   6.375   5.301 -0.0905 -1.1129  0.3721
 6797TIP3    H220356   0.664   6.416   5.160 -0.9875 -2.2268  0.2651
 6798TIP3   OH220357   5.315   0.754   1.989  0.1229  0.5234  0.3715
 6798TIP3    H120358   5.279   0.770   2.076 -0.9804  0.8746 -0.1388
 6798TIP3    H220359   5.381   0.822   1.977  1.2191 -0.3415  1.4575
 6799TIP3   OH220360   2.541   4.173   4.747  0.2297 -0.0024  0.3677
 6799TIP3    H120361   2.467   4.126   4.786  0.5209  0.0452  0.9938
 6799TIP3    H220362   2.618   4.136   4.791  0.6811 -0.9501 -1.1905
 6800TIP3   OH220363   4.855   4.325   3.274  0.4181 -0.7551 -0.3722
 6800TIP3    H120364   4.940   4.346   3.236  0.1894 -1.3085 -1.2002
 6800TIP3    H220365   4.811   4.273   3.208 -0.5133 -0.6026  0.1126
 6801TIP3   OH220366   2.996   5.244   4.007  0.1494 -0.0618 -0.1510
 6801TIP3    H120367   2.928   5.239   3.940  1.0271 -0.7836 -0.9929
 6801TIP3    H220368   3.059   5.176   3.983 -0.4619 -1.6584  2.4461
 6802TIP3   OH220369   2.760   4.390   4.892 -0.1734 -0.5950  0.3707
 6802TIP3    H120370   2.755   4.299   4.863  1.1658 -0.8554  0.8872
 6802TIP3    H220371   2.715   4.440   4.824  1.0900 -1.4088 -1.1074
 6803TIP3   OH220372   1.758   6.035   3.069  0.0310  0.3587 -0.1771
 6803TIP3    H120373   1.695   5.963   3.081  0.3395  0.1612  0.2901
 6803TIP3    H220374   1.773   6.038   2.975 -1.4191  1.0450 -0.4021
 6804TIP3   OH220375   0.519   0.011   4.172  0.0842  0.1482  0.1414
 6804TIP3    H120376   0.582   0.031   4.241  0.2133 -1.1052  0.3927
 6804TIP3    H220377   0.554   0.055   4.094  0.1823  1.1766  0.7598
 6805TIP3   OH220378   4.515   5.464   3.084 -0.3934  0.6604 -0.6668
 6805TIP3    H120379   4.423   5.438   3.088  0.0928 -0.9003  1.1170
 6805TIP3    H220380   4.517   5.553   3.118 -1.1499  0.4005  0.0720
 6806TIP3   OH220381   1.540   4.828   5.197 -1.0340 -0.2122  0.0023
 6806TIP3    H120382   1.518   4.847   5.288  0.3070  2.3230 -0.1582
 6806TIP3    H220383   1.456   4.811   5.155 -2.0160  2.2215  0.9257
 6807TIP3   OH220384   5.909   0.106   4.899 -0.2897 -0.0326 -0.4581
 6807TIP3    H120385   5.932   0.175   4.962  1.8733 -1.2592  0.1176
 6807TIP3    H220386   5.917   0.024   4.948 -2.3151 -0.7807 -1.2928
 6808TIP3   OH220387   2.119   4.377   4.059  0.0739  0.1129  0.2003
 6808TIP3    H120388   2.041   4.339   4.099 -0.6692  1.9604  0.5381
 6808TIP3    H220389   2.120   4.342   3.970 -0.7208 -0.4889  0.4277
 6809TIP3   OH220390   5.009   0.675   4.566 -0.1111 -0.5818  0.2424
 6809TIP3    H120391   4.924   0.657   4.608  0.3014  0.7396  1.7140
 6809TIP3    H220392   5.012   0.771   4.559  0.7717 -0.6832 -0.8609
 6810TIP3   OH220393   1.770   6.129   3.964 -0.0366  0.2293  0.0189
 6810TIP3    H120394   1.679   6.121   3.993  0.0173  1.1607  0.4777
 6810TIP3    H220395   1.766   6.122   3.869 -0.0757 -4.1126  0.2547
 6811TIP3   OH220396   5.971   2.936   1.012 -0.1031 -1.0074  0.3973
 6811TIP3    H120397   5.977   3.022   1.053  1.3249  0.5107 -2.8377
 6811TIP3    H220398   6.037   2.884   1.057  0.6784  0.2966  0.7947
 6812TIP3   OH220399   1.228   4.771   2.686  0.4078  0.1065 -0.1439
 6812TIP3    H120400   1.293   4.841   2.690 -0.1382  0.6258 -0.3107
 6812TIP3    H220401   1.231   4.740   2.596 -0.7478  1.2546 -0.5867
 6813TIP3   OH220402   3.957   0.821   5.510  0.4022 -0.0021  0.8748
 6813TIP3    H120403   4.009   0.874   5.571 -0.4501  0.7227  0.9881
 6813TIP3    H220404   3.913   0.757   5.565 -2.0026  1.9674  1.3315
 6814TIP3   OH220405   3.700   5.431   3.795  0.1724 -0.6003 -0.2673
 6814TIP3    H120406   3.691   5.464   3.885 -0.7625  1.9653 -1.2664
 6814TIP3    H220407   3.696   5.336   3.805 -1.5270 -0.3290  2.2581
 6815TIP3   OH220408   4.346   5.072   5.192 -0.2937  0.3060 -0.4858
 6815TIP3    H120409   4.410   5.078   5.263 -0.4273  0.5193 -0.3820
 6815TIP3    H220410   4.330   4.978   5.182 -0.5790  0.3026  0.0378
 6816TIP3   OH220411   5.025   0.961   4.495  0.2499 -0.3198 -0.2084
 6816TIP3    H120412   4.997   1.008   4.417 -1.1098  0.2006  0.5765
 6816TIP3    H220413   4.991   1.012   4.568 -0.9073 -2.2919  0.6698
 6817TIP3   OH220414   0.418   5.187   2.649 -0.3343 -0.2208  0.1021
 6817TIP3    H120415   0.362   5.252   2.691  1.0734  0.7730  0.4778
 6817TIP3    H220416   0.504   5.229   2.644 -0.2112 -0.7203 -2.8604
 6818TIP3   OH220417   5.010   1.100   4.234 -0.4503 -0.9191  0.0303
 6818TIP3    H120418   5.058   1.017   4.234 -0.2395 -0.8062  1.5853
 6818TIP3    H220419   5.041   1.145   4.155 -0.1157 -2.0492 -0.4990
 6819TIP3   OH220420   2.475   4.654   5.419  0.3358 -0.0586  0.8098
 6819TIP3    H120421   2.483   4.700   5.503 -0.2194 -0.1798  0.9272
 6819TIP3    H220422   2.541   4.696   5.363  1.6075 -0.8581  1.6967
 6820TIP3   OH220423   7.306   5.729   2.711 -0.0678  0.4478  0.2499
 6820TIP3    H120424   7.217   5.710   2.740  0.0230 -2.4525 -1.2521
 6820TIP3    H220425   7.295   5.787   2.636 -0.7362 -0.8860 -0.6876
 6821TIP3   OH220426   5.258   5.527   2.924  0.1093 -0.5417  0.1392
 6821TIP3    H120427   5.342   5.500   2.885  0.0494  1.7234 -1.6904
 6821TIP3    H220428   5.197   5.526   2.850 -0.8891  0.2499  0.9529
 6822TIP3   OH220429   0.234   6.355   5.945  0.4107 -0.2770 -0.0656
 6822TIP3    H120430   0.268   6.442   5.967 -0.8157 -0.0364  0.9458
 6822TIP3    H220431   0.155   6.346   5.999  1.2074 -2.5255  0.7790
 6823TIP3   OH220432   0.865   6.853   4.883 -0.2050  0.0858  0.4039
 6823TIP3    H120433   0.785   6.905   4.876  1.6096  2.7002 -1.9350
 6823TIP3    H220434   0.880   6.844   4.978 -0.2295  4.5160  0.9352
 6824TIP3   OH220435   6.024   0.043   5.933 -0.0993  0.2742  0.1758
 6824TIP3    H120436   6.052  -0.038   5.976 -1.8376  0.5855  1.9745
 6824TIP3    H220437   6.099   0.103   5.943  1.0460 -0.9605 -0.8349
 6825TIP3   OH220438   3.204   3.544   4.458  0.2693  0.4576  0.1988
 6825TIP3    H120439   3.259   3.511   4.528  0.4469  0.3925  0.0300
 6825TIP3    H220440   3.134   3.479   4.450  0.2715  0.4448  0.2878
 6826TIP3   OH220441   2.034   4.029   1.076  0.1843 -0.0101  0.1819
 6826TIP3    H120442   1.971   4.042   1.147  0.0190  0.4344 -0.0407
 6826TIP3    H220443   1.989   3.973   1.013 -0.2591  0.8774 -0.3075
 6827TIP3   OH220444   2.482   0.136   3.311  0.0639  0.0839  0.2496
 6827TIP3    H120445   2.395   0.128   3.271 -0.4471 -1.3383  1.5956
 6827TIP3    H220446   2.474   0.211   3.370 -0.1219  0.2005  0.0778
 6828TIP3   OH220447   4.213   6.726   4.110  0.1298 -0.0478 -0.1123
 6828TIP3    H120448   4.286   6.682   4.067  1.0699 -1.1808  2.5557
 6828TIP3    H220449   4.226   6.709   4.203 -1.8311  2.3654  0.6509
 6829TIP3   OH220450   0.405   6.036   2.530 -0.9550  0.6117 -0.2669
 6829TIP3    H120451   0.485   6.081   2.502 -1.6288  2.3503  0.5044
 6829TIP3    H220452   0.434   5.975   2.598  0.1215 -0.8747 -2.0138
 6830TIP3   OH220453   1.463   6.815   4.152  0.4421  0.2301  0.1484
 6830TIP3    H120454   1.471   6.800   4.057  1.3949  2.2968 -0.1151
 6830TIP3    H220455   1.529   6.759   4.191  0.7827  0.1806 -0.4934
 6831TIP3   OH220456   1.233   6.119   5.433 -0.2609 -0.1627  0.0782
 6831TIP3    H120457   1.285   6.199   5.433  1.3350 -1.1599 -1.1767
 6831TIP3    H220458   1.295   6.050   5.409 -2.0221 -1.4857 -0.8308
 6832TIP3   OH220459   1.182   6.788   5.769  0.3498 -0.6209  0.7327
 6832TIP3    H120460   1.237   6.762   5.694  1.4800  0.5114  1.1615
 6832TIP3    H220461   1.117   6.847   5.732 -0.4842 -1.8335  0.2503
 6833TIP3   OH220462   3.240   5.899   3.333 -0.0406 -0.1722 -0.0095
 6833TIP3    H120463   3.326   5.877   3.298  0.9164  1.7733  1.0565
 6833TIP3    H220464   3.179   5.873   3.264  1.4329 -0.9239 -1.0650
 6834TIP3   OH220465   3.768   6.112   4.842  0.3021  0.6312 -0.7101
 6834TIP3    H120466   3.779   6.078   4.931 -2.8260 -1.1321 -0.9565
 6834TIP3    H220467   3.704   6.183   4.850 -0.9037 -0.3233 -1.7143
 6835TIP3   OH220468   3.056   0.387   2.639 -0.6163  0.1321 -0.1048
 6835TIP3    H120469   3.085   0.304   2.677  0.7955  0.2380 -0.8918
 6835TIP3    H220470   3.094   0.454   2.696  1.3828  0.2875 -1.5671
 6836TIP3   OH220471   3.563   0.183   5.459  0.2194 -0.1243  0.2906
 6836TIP3    H120472   3.575   0.175   5.364  0.1040  1.1716  0.1564
 6836TIP3    H220473   3.574   0.094   5.492  1.4528 -0.3907 -0.8007
 6837TIP3   OH220474   4.467   0.600   4.497  0.5899 -0.9628 -0.5595
 6837TIP3    H120475   4.387   0.652   4.489  0.9744 -0.0041  1.5686
 6837TIP3    H220476   4.473   0.553   4.413 -0.2153  1.7368 -2.1817
 6838TIP3   OH220477   6.770   0.758   2.664  0.1716  0.0510 -0.4188
 6838TIP3    H120478   6.734   0.693   2.604  1.5741  0.1936 -1.4529
 6838TIP3    H220479   6.864   0.740   2.665  0.3151  0.7840  0.8614
 6839TIP3   OH220480   7.025   3.699   0.373  0.2684  0.1370  0.2608
 6839TIP3    H120481   7.048   3.646   0.297 -1.4929 -0.5305  0.1634
 6839TIP3    H220482   7.008   3.636   0.443 -0.2576  0.6386  0.5979
 6840TIP3   OH220483   5.764   1.019   2.772  0.1226  0.1367 -0.0682
 6840TIP3    H120484   5.797   0.947   2.719 -2.2833 -2.3771  1.6695
 6840TIP3    H220485   5.704   1.066   2.714 -2.5168 -2.6088  0.3148
 6841TIP3   OH220486   1.165   5.972   3.746 -0.3816  0.6126 -0.4394
 6841TIP3    H120487   1.231   5.910   3.715 -1.1025 -1.3025  1.7480
 6841TIP3    H220488   1.117   5.997   3.667  0.0561 -1.4653 -1.4035
 6842TIP3   OH220489   6.113   2.175   2.724 -0.1019  0.3042  0.0791
 6842TIP3    H120490   6.045   2.115   2.754  1.4781 -1.0622  0.9737
 6842TIP3    H220491   6.170   2.188   2.800  2.4066 -1.0354 -1.5034
 6843TIP3   OH220492   1.932   1.624   2.916  0.0824 -0.3628 -0.2359
 6843TIP3    H120493   1.840   1.647   2.931 -0.6855 -3.5425  0.3134
 6843TIP3    H220494   1.979   1.665   2.989 -0.7376  1.9606 -0.9594
 6844TIP3   OH220495   6.013   0.144   3.671  0.3270 -0.2421  0.3529
 6844TIP3    H120496   6.077   0.170   3.738 -0.0534  1.9883 -0.1220
 6844TIP3    H220497   6.027   0.206   3.599 -2.1763  0.1077  0.1187
 6845TIP3   OH220498   2.803   5.039   6.010  0.9047  0.1610  0.4860
 6845TIP3    H120499   2.770   5.085   6.087 -2.4094 -0.0990 -0.7209
 6845TIP3    H220500   2.772   4.949   6.019 -0.0017  0.2537 -1.4138
 6846TIP3   OH220501   3.487   5.192   3.726  0.1931  0.3819 -0.5151
 6846TIP3    H120502   3.511   5.108   3.765  1.5038  1.4489  1.0404
 6846TIP3    H220503   3.392   5.185   3.710  0.0736 -0.9589  0.6831
 6847TIP3   OH220504   3.861   5.040   3.518  0.2654 -0.2008  0.3681
 6847TIP3    H120505   3.881   5.016   3.609  0.4076 -1.2146  0.0780
 6847TIP3    H220506   3.823   4.961   3.481  0.4400  0.1364 -0.5322
 6848TIP3   OH220507   5.050   0.397   5.822 -0.1887  0.1557 -0.6163
 6848TIP3    H120508   5.005   0.432   5.899 -1.8149 -1.1280 -0.9454
 6848TIP3    H220509   5.037   0.464   5.754  0.4832  0.8837 -0.0330
 6849TIP3   OH220510   4.090   0.760   3.283  0.3318 -0.2498 -0.0833
 6849TIP3    H120511   4.126   0.696   3.344  0.7479  0.6893  0.6694
 6849TIP3    H220512   4.028   0.810   3.335 -0.8528 -0.7828 -0.9660
 6850TIP3   OH220513   2.562   4.625   5.946  0.4946 -0.5627  0.6782
 6850TIP3    H120514   2.653   4.650   5.960  1.0094 -1.5053 -0.8949
 6850TIP3    H220515   2.565   4.530   5.934 -0.1130 -0.1658 -3.5081
 6851TIP3   OH220516   1.408   6.555   2.509  0.2140 -0.5772 -0.0037
 6851TIP3    H120517   1.392   6.575   2.417 -0.5864  1.2244  0.5073
 6851TIP3    H220518   1.353   6.480   2.527  1.1207 -1.5679 -1.2407
 6852TIP3   OH220519   1.694   5.399   3.376  0.2615 -0.3155  0.0593
 6852TIP3    H120520   1.638   5.458   3.327  1.5280 -0.6018 -1.7714
 6852TIP3    H220521   1.703   5.322   3.321  2.5051 -0.2389  0.2601
 6853TIP3   OH220522   2.636   2.038   3.857  0.4084  0.0707  0.0927
 6853TIP3    H120523   2.548   2.063   3.882  0.0483 -2.3195  1.3080
 6853TIP3    H220524   2.670   1.988   3.931  2.5521  0.3979 -0.6119
 6854TIP3   OH220525   3.556   6.869   3.903 -0.3267  0.2218  0.2042
 6854TIP3    H120526   3.491   6.866   3.973  0.0463  2.3223  0.6456
 6854TIP3    H220527   3.504   6.858   3.823 -0.9629 -0.2830  0.6759
 6855TIP3   OH220528   2.789   6.090   4.792 -0.0366 -0.2106  0.3128
 6855TIP3    H120529   2.868   6.075   4.844  0.5147  0.2634 -0.3741
 6855TIP3    H220530   2.733   6.145   4.847 -0.5514 -1.8090  1.4184
 6856TIP3   OH220531   0.491   5.371   5.337  0.3208 -0.4449 -0.2454
 6856TIP3    H120532   0.403   5.333   5.347  0.0710  0.4949  1.3050
 6856TIP3    H220533   0.509   5.413   5.421  2.2900 -0.6651 -0.5324
 6857TIP3   OH220534   2.583   4.532   3.287  0.2587 -1.0366  0.2444
 6857TIP3    H120535   2.514   4.562   3.228  0.7966 -0.5787 -0.1577
 6857TIP3    H220536   2.543   4.536   3.374  0.8912  2.7221  0.4415
 6858TIP3   OH220537   1.586   5.613   2.316  0.3703  0.0295  0.3799
 6858TIP3    H120538   1.501   5.657   2.306  1.1340  1.5955  0.6163
 6858TIP3    H220539   1.569   5.522   2.292 -1.1773  0.5215 -0.4617
 6859TIP3   OH220540   0.315   2.198   0.275 -0.5108  0.3303  0.0450
 6859TIP3    H120541   0.296   2.260   0.204 -0.5429  0.0074 -0.2288
 6859TIP3    H220542   0.358   2.251   0.342 -0.0798  0.5494 -0.3999
 6860TIP3   OH220543   4.862   0.879   2.262  0.1344  0.0569 -0.1855
 6860TIP3    H120544   4.929   0.835   2.314  0.0287  0.5009  0.3335
 6860TIP3    H220545   4.906   0.957   2.227 -0.0514  0.2374 -0.0171
 6861TIP3   OH220546   2.353   4.411   4.757  0.1649  0.7238  0.3138
 6861TIP3    H120547   2.377   4.321   4.780  0.3422  0.5684 -0.4830
 6861TIP3    H220548   2.306   4.404   4.674  1.5360  1.5125 -0.5588
 6862TIP3   OH220549   7.015   6.384   3.577 -0.2928  0.0791 -0.2770
 6862TIP3    H120550   7.013   6.471   3.537 -0.8165  0.8204  1.3300
 6862TIP3    H220551   6.990   6.324   3.506 -1.2568  1.3739 -1.0450
 6863TIP3   OH220552   2.210   4.841   1.888  0.5008 -0.0777 -0.1892
 6863TIP3    H120553   2.238   4.788   1.963  0.0406 -0.8057 -0.5329
 6863TIP3    H220554   2.255   4.803   1.813 -0.0979 -0.2048 -0.4881
 6864TIP3   OH220555   3.223   3.983   4.282 -0.0492  0.2966  0.1657
 6864TIP3    H120556   3.181   3.923   4.343  0.2761  0.3925  0.4837
 6864TIP3    H220557   3.269   3.926   4.220 -2.1257  0.1238 -1.2811
 6865TIP3   OH220558   4.015   6.680   5.956  0.0300 -0.6231 -0.4007
 6865TIP3    H120559   4.020   6.719   5.868 -0.4019  1.1688  0.3544
 6865TIP3    H220560   3.928   6.640   5.959  0.3256 -1.3181 -1.0502
 6866TIP3   OH220561   2.305   6.603   4.214  0.2830  0.2789 -0.0286
 6866TIP3    H120562   2.317   6.556   4.297  2.0755  3.6408  1.7375
 6866TIP3    H220563   2.219   6.644   4.222 -0.0850 -0.4094 -0.3933
 6867TIP3   OH220564   3.125   4.965   4.771 -0.2017  0.1389 -0.4262
 6867TIP3    H120565   3.221   4.956   4.773 -0.3117 -1.2341  4.2371
 6867TIP3    H220566   3.109   5.058   4.787  0.3103  0.2673 -0.6374
 6868TIP3   OH220567   5.727   0.896   0.534 -0.2345 -0.4475  0.3069
 6868TIP3    H120568   5.689   0.969   0.485  2.0566 -0.4037 -1.4903
 6868TIP3    H220569   5.786   0.938   0.597  1.9381 -0.6845 -1.4678
 6869TIP3   OH220570   2.798   5.753   5.193  0.3910 -0.1240 -0.0507
 6869TIP3    H120571   2.814   5.675   5.139 -1.3140 -0.5425  0.0246
 6869TIP3    H220572   2.763   5.718   5.275 -0.6113  0.7423 -0.1090
 6870TIP3   OH220573   1.289   5.200   4.329  0.1532  0.1042 -0.2983
 6870TIP3    H120574   1.206   5.248   4.324 -0.6736 -1.2863 -0.1654
 6870TIP3    H220575   1.264   5.112   4.357  1.5755 -0.6118 -1.2343
 6871TIP3   OH220576   4.806   3.118   3.350  0.3902 -0.1658 -0.1712
 6871TIP3    H120577   4.725   3.099   3.396  0.8508 -2.0673 -0.0992
 6871TIP3    H220578   4.834   3.203   3.385 -0.4080 -0.5451  1.4514
 6872TIP3   OH220579   3.629   5.622   2.871 -0.1963  0.3718 -0.2846
 6872TIP3    H120580   3.688   5.596   2.942 -2.1081  0.9308  1.5519
 6872TIP3    H220581   3.644   5.556   2.802  1.4772 -0.3460  0.7355
 6873TIP3   OH220582   3.447   5.183   3.412  0.1069 -0.0592 -0.0719
 6873TIP3    H120583   3.471   5.124   3.340  1.2132 -1.5207  1.4453
 6873TIP3    H220584   3.497   5.150   3.487 -0.1757  2.1069  1.1041
 6874TIP3   OH220585   1.191   6.876   5.346 -0.0296  0.2349 -0.4156
 6874TIP3    H120586   1.277   6.834   5.338 -0.8638 -1.3056 -1.4486
 6874TIP3    H220587   1.142   6.845   5.270 -2.0761 -0.2416  1.0620
 6875TIP3   OH220588   4.901   0.779   2.012 -0.5025 -0.5656 -0.5230
 6875TIP3    H120589   4.848   0.845   1.968  1.1856  0.6329 -0.7791
 6875TIP3    H220590   4.946   0.827   2.082  1.4537 -1.2595 -1.2937
 6876TIP3   OH220591   7.369   5.001   3.379 -0.1813  0.1054  0.2024
 6876TIP3    H120592   7.338   5.027   3.465 -1.9513 -0.1474 -0.3425
 6876TIP3    H220593   7.292   4.965   3.335  0.6508  0.3752 -1.5422
 6877TIP3   OH220594   4.272   0.170   3.990  0.6744  0.1326  0.5169
 6877TIP3    H120595   4.288   0.205   4.078 -0.6207  0.0695  0.7940
 6877TIP3    H220596   4.191   0.213   3.962  1.7852  1.1485 -1.1908
 6878TIP3   OH220597   3.853   1.562   4.249 -0.4058  0.3531  0.4930
 6878TIP3    H120598   3.804   1.500   4.302  0.8342 -1.2214 -0.1570
 6878TIP3    H220599   3.929   1.584   4.302  0.2955 -0.4161 -0.1808
 6879TIP3   OH220600   3.340   5.010   2.984 -0.4248 -0.7465  0.4401
 6879TIP3    H120601   3.313   4.967   2.903 -1.0824  0.8537 -0.2079
 6879TIP3    H220602   3.268   4.993   3.045 -1.8978  1.5568 -0.5906
 6880TIP3   OH220603   2.041   6.050   4.070 -0.0743  0.0057  0.1083
 6880TIP3    H120604   1.956   6.057   4.027  0.2125 -0.6008 -0.5848
 6880TIP3    H220605   2.023   6.006   4.153 -0.5133  0.3468  0.1902
 6881TIP3   OH220606   0.783   6.538   2.537 -0.0811 -0.5055 -0.2684
 6881TIP3    H120607   0.802   6.586   2.457 -0.5229  0.1636  0.0263
 6881TIP3    H220608   0.791   6.603   2.607 -0.8186 -0.8161  0.1154
 6882TIP3   OH220609   7.049   1.432   4.328 -0.1999  0.2224 -0.3661
 6882TIP3    H120610   6.984   1.481   4.378 -1.0176  0.2580 -1.4738
 6882TIP3    H220611   7.036   1.459   4.237  0.5662 -0.6629 -0.7475
 6883TIP3   OH220612   7.251   0.434   0.664  0.5272 -0.0256  0.0461
 6883TIP3    H120613   7.238   0.444   0.759  2.7774 -0.5444  0.4456
 6883TIP3    H220614   7.335   0.476   0.647 -0.1626  0.6425 -1.8632
 6884TIP3   OH220615   3.891   0.292   4.175  0.4642  0.0297 -0.6609
 6884TIP3    H120616   3.863   0.201   4.163 -1.1073  0.3436  0.4329
 6884TIP3    H220617   3.817   0.334   4.218  1.8295  1.4191  0.3892
 6885TIP3   OH220618   2.279   4.637   3.142 -0.5618 -0.0277 -0.6319
 6885TIP3    H120619   2.246   4.713   3.190 -1.7558  0.4886 -2.1978
 6885TIP3    H220620   2.348   4.672   3.086 -1.0891 -0.0972 -1.3305
 6886TIP3   OH220621   2.129   6.161   4.311 -0.0093 -0.2874  0.7520
 6886TIP3    H120622   2.087   6.184   4.227  1.3762 -0.2903  0.0402
 6886TIP3    H220623   2.098   6.073   4.330  0.3326 -0.6207 -0.1999
 6887TIP3   OH220624   2.743   6.420   2.155  0.1999 -0.1656  0.3472
 6887TIP3    H120625   2.821   6.451   2.108  1.1752 -0.0838  1.9566
 6887TIP3    H220626   2.778   6.386   2.238 -1.2251 -2.5398 -0.0061
 6888TIP3   OH220627   4.468   0.745   4.741 -0.4377  0.3097 -0.5912
 6888TIP3    H120628   4.389   0.718   4.787 -1.5959  1.6382 -1.7750
 6888TIP3    H220629   4.449   0.729   4.649  0.0586  2.1566 -1.0333
 6889TIP3   OH220630   3.057   0.159   5.049  0.3882 -0.2157 -0.2815
 6889TIP3    H120631   3.057   0.118   4.963  0.2231 -1.4353  0.2901
 6889TIP3    H220632   3.147   0.189   5.061  0.5027 -0.3764 -0.7237
 6890TIP3   OH220633   4.028   0.434   3.603  0.1973 -0.3752  0.3139
 6890TIP3    H120634   3.938   0.422   3.634 -0.0178 -0.7173 -0.4028
 6890TIP3    H220635   4.056   0.518   3.639 -0.8046  0.2538 -0.3623
 6891TIP3   OH220636   4.809   6.918   1.995  0.2077  0.5119 -0.1874
 6891TIP3    H120637   4.871   6.979   1.955  0.9265 -1.3336 -2.0253
 6891TIP3    H220638   4.804   6.845   1.932 -0.7886 -1.2021  1.8191
 6892TIP3   OH220639   4.572   0.234   6.036 -0.3429  0.2903  0.0561
 6892TIP3    H120640   4.508   0.291   6.077 -1.3033 -1.2725  0.8039
 6892TIP3    H220641   4.541   0.223   5.947 -1.2331 -0.5864  0.4593
 6893TIP3   OH220642   4.453   1.029   1.256  0.1574 -0.1942  0.3576
 6893TIP3    H120643   4.471   1.083   1.178 -1.5715  1.1980  0.8920
 6893TIP3    H220644   4.451   1.092   1.328 -0.2613 -1.2057  1.2366
 6894TIP3   OH220645   1.510   2.581   4.935 -0.7324 -0.4654  0.1593
 6894TIP3    H120646   1.476   2.619   4.853 -0.6331 -0.4988  0.1032
 6894TIP3    H220647   1.506   2.487   4.921  1.8378 -0.4658 -0.8568
 6895TIP3   OH220648   4.388   0.784   3.694 -0.0829 -0.1080  0.5807
 6895TIP3    H120649   4.407   0.716   3.629 -1.3169 -0.6661  0.7919
 6895TIP3    H220650   4.424   0.864   3.656 -0.3166 -0.5289 -0.5477
 6896TIP3   OH220651   1.746   5.401   4.454  0.4086 -0.0955  0.1757
 6896TIP3    H120652   1.813   5.441   4.511  0.2371  0.5265 -0.0544
 6896TIP3    H220653   1.711   5.329   4.506  1.3182 -0.4791  0.2730
 6897TIP3   OH220654   4.519   1.175   2.002  0.6484  0.0587  0.4632
 6897TIP3    H120655   4.552   1.151   2.089 -0.6502 -0.4642  0.8318
 6897TIP3    H220656   4.507   1.092   1.957  1.0214  0.3124 -0.1054
 6898TIP3   OH220657   0.577   6.034   4.105 -0.0550 -0.3722  0.4669
 6898TIP3    H120658   0.605   6.125   4.118 -0.3911 -0.3697  1.1799
 6898TIP3    H220659   0.584   6.020   4.011 -1.6779  0.9529  0.1249
 6899TIP3   OH220660   1.561   3.727   5.274  0.0780 -0.4129  0.1057
 6899TIP3    H120661   1.572   3.820   5.293 -0.0082 -0.4004  0.0966
 6899TIP3    H220662   1.558   3.685   5.360  0.2276 -0.4207  0.1069
 6900TIP3   OH220663   1.175   5.407   3.304 -0.2078 -0.1467  0.4207
 6900TIP3    H120664   1.189   5.436   3.214  1.2991  2.8830  1.5203
 6900TIP3    H220665   1.083   5.424   3.321 -0.2175  0.4462 -0.2042
 6901TIP3   OH220666   3.085   5.681   1.966  0.2180 -0.6385 -0.4065
 6901TIP3    H120667   3.074   5.757   2.023  0.1899  0.3274 -1.6884
 6901TIP3    H220668   3.040   5.610   2.011 -1.0678  0.4671  0.0719
 6902TIP3   OH220669   4.733   2.075   3.720 -0.0106  0.2955  0.3314
 6902TIP3    H120670   4.804   2.098   3.779  0.5585 -1.1030  0.2028
 6902TIP3    H220671   4.658   2.125   3.753  1.1347  2.1645  0.1606
 6903TIP3   OH220672   2.267   5.633   4.235  0.4748 -0.7932 -0.3108
 6903TIP3    H120673   2.296   5.543   4.245  0.7099 -0.9320 -2.0078
 6903TIP3    H220674   2.183   5.637   4.281  0.5261 -1.8380 -0.1206
 6904TIP3   OH220675   1.532   6.042   3.336 -0.0009 -0.6015 -0.2861
 6904TIP3    H120676   1.623   6.031   3.306  0.4739 -1.7000  1.4679
 6904TIP3    H220677   1.503   6.123   3.296  2.3332  0.6366  0.4589
 6905TIP3   OH220678   1.682   4.812   4.263  0.2509 -0.2625  0.2072
 6905TIP3    H120679   1.700   4.728   4.222 -0.5605 -0.3807  0.0752
 6905TIP3    H220680   1.600   4.798   4.311  0.5712  0.2028  0.9073
 6906TIP3   OH220681   6.729   4.864   5.244 -0.0733  0.0263  0.3805
 6906TIP3    H120682   6.712   4.943   5.194 -0.6410 -0.3622 -0.0444
 6906TIP3    H220683   6.775   4.806   5.183  0.3418  0.0294  0.6894
 6907TIP3   OH220684   5.327   2.029   0.706  0.5701  0.2144 -0.7365
 6907TIP3    H120685   5.386   2.097   0.738 -0.2698  0.6441 -0.0616
 6907TIP3    H220686   5.241   2.055   0.739  0.0391 -0.5155 -1.5251
 6908TIP3   OH220687   3.028   6.942   4.063 -0.0646 -0.2136  0.0223
 6908TIP3    H120688   3.013   6.969   4.154 -2.3723 -0.7156 -0.1727
 6908TIP3    H220689   3.072   7.017   4.023 -1.2864  1.0236  0.9361
 6909TIP3   OH220690   3.263   4.473   4.858  0.1813 -0.3999  0.2488
 6909TIP3    H120691   3.280   4.482   4.764  0.0913 -0.5444  0.2175
 6909TIP3    H220692   3.301   4.551   4.898  2.2612 -1.4303  0.3633
 6910TIP3   OH220693   2.744   2.248   4.533 -0.0554 -0.5970 -0.5541
 6910TIP3    H120694   2.805   2.298   4.478 -0.9703  2.1940  0.8486
 6910TIP3    H220695   2.800   2.207   4.599  0.3694  1.8222  0.6423
 6911TIP3   OH220696   5.527   6.875   0.424  0.0028 -1.0263  0.0407
 6911TIP3    H120697   5.599   6.936   0.439  0.7064 -1.3692 -1.8144
 6911TIP3    H220698   5.566   6.788   0.439  0.0279 -1.2204 -1.1111
 6912TIP3   OH220699   0.947   4.610   5.820 -0.2142  0.2063  0.1009
 6912TIP3    H120700   0.912   4.638   5.904 -1.2684  1.6776 -0.8136
 6912TIP3    H220701   0.877   4.558   5.780  0.1757 -0.2529 -0.0029
 6913TIP3   OH220702   1.832   5.460   5.909 -0.5211 -0.3055 -0.0108
 6913TIP3    H120703   1.906   5.433   5.855 -1.7917 -2.1056 -0.9203
 6913TIP3    H220704   1.833   5.555   5.907  2.2908 -0.2828  0.7377
 6914TIP3   OH220705   5.673   0.267   4.933 -0.1165  0.3704 -0.1716
 6914TIP3    H120706   5.741   0.208   4.900 -1.2546  0.0675 -2.0834
 6914TIP3    H220707   5.633   0.303   4.853 -2.7012 -0.0599  0.8942
 6915TIP3   OH220708   1.391   6.596   2.241 -0.2154  0.5183 -0.0752
 6915TIP3    H120709   1.381   6.646   2.160  1.7673 -0.2399 -0.8261
 6915TIP3    H220710   1.321   6.531   2.237  0.9076 -0.6287 -2.0611
 6916TIP3   OH220711   3.671   0.671   3.822 -0.2174  0.0453  0.2166
 6916TIP3    H120712   3.646   0.667   3.914 -1.4172 -1.0050 -0.1463
 6916TIP3    H220713   3.748   0.729   3.820 -1.5258  1.8835  1.5749
 6917TIP3   OH220714   5.478   2.318   1.806  0.0109 -0.2215 -0.4231
 6917TIP3    H120715   5.502   2.410   1.795 -1.8110  0.4178  0.7084
 6917TIP3    H220716   5.399   2.306   1.753 -0.3623 -0.8507  0.2531
 6918TIP3   OH220717   0.506   5.707   5.688  0.2731  0.3729  0.2831
 6918TIP3    H120718   0.565   5.722   5.762 -1.0967 -1.6832  1.8395
 6918TIP3    H220719   0.463   5.791   5.674  0.3781  0.7222  1.9816
 6919TIP3   OH220720   3.221   5.361   3.479 -0.7597  0.1696 -0.6402
 6919TIP3    H120721   3.235   5.434   3.417  0.6281 -0.0047 -0.5475
 6919TIP3    H220722   3.302   5.312   3.476 -0.9279 -0.2149  0.8557
 6920TIP3   OH220723   2.932   5.734   3.981  0.3074 -0.0429 -0.0555
 6920TIP3    H120724   2.929   5.651   4.029 -1.0304  0.2792  0.4310
 6920TIP3    H220725   2.952   5.709   3.891 -0.9368 -0.9815 -0.0886
 6921TIP3   OH220726   2.343   6.169   5.076 -0.2508 -0.3284  0.1174
 6921TIP3    H120727   2.352   6.185   5.170  1.7632  0.3346 -0.1568
 6921TIP3    H220728   2.266   6.219   5.050 -0.9631 -0.7152  1.4596
 6922TIP3   OH220729   3.366   5.117   4.504 -0.0183 -0.1126 -0.8002
 6922TIP3    H120730   3.280   5.159   4.498 -0.6324 -1.2044  0.1304
 6922TIP3    H220731   3.423   5.171   4.448 -1.2660  0.7062 -1.3133
 6923TIP3   OH220732   0.527   5.839   4.288 -0.5759 -0.3302 -0.2911
 6923TIP3    H120733   0.550   5.896   4.215  0.8063 -1.9313 -1.1283
 6923TIP3    H220734   0.449   5.792   4.259  0.7910 -1.9880 -1.2970
 6924TIP3   OH220735   1.843   6.659   4.766  0.2651  0.1513  0.6912
 6924TIP3    H120736   1.909   6.596   4.739  0.9100 -0.5901  3.7629
 6924TIP3    H220737   1.866   6.681   4.856 -2.6921  1.1538  1.2801
 6925TIP3   OH220738   1.685   6.540   3.148  0.0283  0.7132  0.2446
 6925TIP3    H120739   1.746   6.564   3.217  0.7624 -0.0052 -0.1419
 6925TIP3    H220740   1.614   6.495   3.193  1.8849 -2.3680  0.2705
 6926TIP3   OH220741   4.319   0.403   5.388  0.0471 -0.0448  0.1400
 6926TIP3    H120742   4.408   0.433   5.409 -0.1014 -0.1501  0.9186
 6926TIP3    H220743   4.262   0.455   5.444 -0.5823  1.7893 -2.1191
 6927TIP3   OH220744   4.684   0.868   4.250 -0.1764 -0.2675  0.1394
 6927TIP3    H120745   4.609   0.852   4.192  0.9438 -2.8764 -0.6953
 6927TIP3    H220746   4.647   0.872   4.338 -1.5236  0.5832 -0.4558
 6928TIP3   OH220747   3.047   5.921   3.551  0.1796  0.3814  0.0667
 6928TIP3    H120748   2.993   5.844   3.535 -1.0626  1.0112  1.0461
 6928TIP3    H220749   3.117   5.917   3.486  0.1304 -1.5630  0.1168
 6929TIP3   OH220750   1.565   5.927   3.622  0.0135 -0.4163 -0.3425
 6929TIP3    H120751   1.551   5.955   3.532 -1.7128  0.3588  0.1514
 6929TIP3    H220752   1.538   5.835   3.623  1.6025 -0.9130 -0.9719
 6930TIP3   OH220753   2.997   5.483   4.157  0.0635  0.7822  0.0650
 6930TIP3    H120754   3.000   5.401   4.107 -0.3342  1.4460 -1.0853
 6930TIP3    H220755   2.924   5.472   4.217  1.3951 -0.5595  1.4680
 6931TIP3   OH220756   2.949   5.490   4.559  0.4094  0.4834 -0.0026
 6931TIP3    H120757   2.937   5.561   4.623  0.9570  1.2408 -0.7304
 6931TIP3    H220758   2.872   5.497   4.502  0.7943  0.9152 -0.4714
 6932TIP3   OH220759   0.736   6.492   3.816  0.1388  0.2125 -0.1283
 6932TIP3    H120760   0.723   6.453   3.730  0.9005  1.7922 -0.9649
 6932TIP3    H220761   0.694   6.430   3.876 -0.8555 -0.6459 -1.6633
 6933TIP3   OH220762   5.838   0.327   3.867  0.1239  0.0451  0.4501
 6933TIP3    H120763   5.913   0.294   3.817 -0.5515 -1.1654  0.2162
 6933TIP3    H220764   5.854   0.421   3.875  2.0105 -0.2846  0.9760
 6934TIP3   OH220765   3.144   6.246   3.797 -0.2485  0.1196 -0.5115
 6934TIP3    H120766   3.225   6.220   3.842 -0.1111  0.6529 -0.4430
 6934TIP3    H220767   3.174   6.279   3.712 -0.1454  2.6269  0.4479
 6935TIP3   OH220768   1.799   3.972   3.314 -0.3441  0.0320 -0.0959
 6935TIP3    H120769   1.870   3.914   3.290 -1.6207 -1.6822  0.1891
 6935TIP3    H220770   1.838   4.060   3.313  1.1753 -0.6477 -2.1566
 6936TIP3   OH220771   0.230   0.497   4.251 -0.1208 -0.3847  0.1499
 6936TIP3    H120772   0.161   0.557   4.280  0.2749 -0.1294  0.5731
 6936TIP3    H220773   0.183   0.417   4.226 -0.6966  0.2740 -0.9122
 6937TIP3   OH220774   1.571   5.214   5.583  0.0459 -0.4848 -0.4053
 6937TIP3    H120775   1.638   5.208   5.651  0.2460 -0.5423 -0.6074
 6937TIP3    H220776   1.496   5.255   5.627  0.1997 -0.4550 -0.1698
 6938TIP3   OH220777   3.739   6.183   4.077 -0.0988 -0.6741 -0.1894
 6938TIP3    H120778   3.768   6.135   4.000  1.7389 -0.6071  0.4295
 6938TIP3    H220779   3.692   6.259   4.042 -1.1843 -1.7994 -1.1923
 6939TIP3   OH220780   2.345   4.317   5.098 -0.1303 -0.0325 -0.2141
 6939TIP3    H120781   2.300   4.377   5.039 -0.0011 -0.5682 -0.8613
 6939TIP3    H220782   2.430   4.357   5.114 -0.9445  1.1873  1.3214
 6940TIP3   OH220783   5.836   1.242   0.032  0.0755  0.1805 -0.0946
 6940TIP3    H120784   5.830   1.225   0.126 -1.0574 -1.0122 -0.3766
 6940TIP3    H220785   5.780   1.319   0.017 -0.9896 -0.5737 -0.0288
 6941TIP3   OH220786   2.341   4.984   5.677 -0.0454  0.7977  0.0965
 6941TIP3    H120787   2.388   5.012   5.756  2.5425  0.7158 -1.3854
 6941TIP3    H220788   2.276   4.922   5.710 -0.0597  1.9332  2.3518
 6942TIP3   OH220789   5.603   0.573   2.987  0.9152  0.0369  0.1077
 6942TIP3    H120790   5.664   0.641   2.958  1.2312 -0.3875 -0.2241
 6942TIP3    H220791   5.642   0.541   3.069  0.1962  1.0052  0.8472
 6943TIP3   OH220792   1.853   4.223   3.248 -0.2587 -0.0445  0.0405
 6943TIP3    H120793   1.897   4.306   3.264  2.6057 -1.5020 -0.0565
 6943TIP3    H220794   1.791   4.242   3.177  0.3802  1.9768 -0.0066
 6944TIP3   OH220795   1.296   6.444   4.330  0.4169  0.0944  0.1824
 6944TIP3    H120796   1.277   6.497   4.252 -1.1583  0.9942  1.1432
 6944TIP3    H220797   1.337   6.365   4.296 -0.3218  0.4387 -1.5615
 6945TIP3   OH220798   1.183   5.497   2.438 -0.4075  0.3108 -0.3150
 6945TIP3    H120799   1.221   5.584   2.435 -1.5970  0.8694  0.3938
 6945TIP3    H220800   1.213   5.460   2.521 -0.0821  0.1361 -0.5122
 6946TIP3   OH220801   0.256   5.930   3.082 -0.2541 -0.8630  0.4354
 6946TIP3    H120802   0.280   6.007   3.133  0.1337 -0.5085 -0.2761
 6946TIP3    H220803   0.165   5.913   3.106 -0.7577  0.5880 -0.3594
 6947TIP3   OH220804   5.097   6.701   2.812  0.3628 -0.8296 -0.4866
 6947TIP3    H120805   5.033   6.655   2.758 -1.0800  0.7710 -0.2003
 6947TIP3    H220806   5.093   6.657   2.897 -0.2880 -0.8091 -0.5029
 6948TIP3   OH220807   5.444   1.523   3.894  0.6512 -0.7143 -0.3628
 6948TIP3    H120808   5.534   1.556   3.902  0.2812  0.1110  0.5243
 6948TIP3    H220809   5.443   1.474   3.812  1.4649  0.7344 -1.2613
 6949TIP3   OH220810   2.984   5.997   3.954 -0.0362 -0.0900  0.3894
 6949TIP3    H120811   3.020   6.000   3.865  1.2383 -1.1491  0.8617
 6949TIP3    H220812   2.973   5.904   3.972  1.8242  0.0181  2.1891
 6950TIP3   OH220813   4.939   6.071   5.821 -0.4165 -0.4161  0.4243
 6950TIP3    H120814   4.850   6.062   5.855 -0.9858  2.8992 -0.0251
 6950TIP3    H220815   4.983   5.991   5.848 -3.0374 -1.3320  2.1829
 6951TIP3   OH220816   1.880   5.068   5.194  0.0222 -0.0031 -0.1092
 6951TIP3    H120817   1.875   4.977   5.164 -1.8828  0.0655 -0.0641
 6951TIP3    H220818   1.843   5.066   5.282  0.7759  0.6751  0.2273
 6952TIP3   OH220819   3.733   5.571   3.363  0.6361 -0.4398  0.0674
 6952TIP3    H120820   3.656   5.551   3.309  0.6283 -2.0752  0.6660
 6952TIP3    H220821   3.734   5.503   3.430  1.1271  1.0822  1.6506
 6953TIP3   OH220822   2.157   5.986   3.345 -0.3726 -0.0816 -0.2327
 6953TIP3    H120823   2.206   5.954   3.269  0.9845 -0.9654  0.9796
 6953TIP3    H220824   2.142   6.079   3.326  1.9054  0.2517 -0.5865
 6954TIP3   OH220825   3.759   0.353   2.197 -0.2235  0.0368 -0.1529
 6954TIP3    H120826   3.775   0.403   2.278  0.2772 -1.0134  0.4068
 6954TIP3    H220827   3.806   0.402   2.130  2.6675 -1.1701  0.8806
 6955TIP3   OH220828   4.213   5.594   5.035  0.2839  0.0416  0.5635
 6955TIP3    H120829   4.158   5.532   4.985 -0.5896  1.7023 -0.5919
 6955TIP3    H220830   4.175   5.593   5.123  0.5546 -1.3957  0.6745
 6956TIP3   OH220831   0.286   5.546   3.174  0.6744 -0.1146  0.0406
 6956TIP3    H120832   0.311   5.513   3.087 -0.6477  2.3741 -1.3283
 6956TIP3    H220833   0.355   5.608   3.197 -0.5523  1.5568 -0.6589
 6957TIP3   OH220834   4.617   0.134   3.405 -0.2947  0.0627 -0.0184
 6957TIP3    H120835   4.679   0.095   3.468  0.4504  0.9791 -0.1641
 6957TIP3    H220836   4.665   0.134   3.322 -0.4677  0.8086 -0.1255
 6958TIP3   OH220837   2.700   6.060   4.286  0.6685 -0.3295 -0.4767
 6958TIP3    H120838   2.789   6.040   4.317  0.2967  0.4162  1.0869
 6958TIP3    H220839   2.643   6.012   4.346 -0.0067 -0.7639 -1.4512
 6959TIP3   OH220840   2.075   6.373   2.467 -0.7305 -0.7548  0.1514
 6959TIP3    H120841   2.099   6.413   2.551  1.9848 -2.0674  0.0227
 6959TIP3    H220842   2.150   6.319   2.443 -2.1826 -1.7580 -2.2996
 6960TIP3   OH220843   3.013   6.568   4.923  0.6332  0.3016  0.4649
 6960TIP3    H120844   2.929   6.546   4.964  1.3562  0.4681  2.0487
 6960TIP3    H220845   3.046   6.642   4.973  1.6686  0.3262 -0.2447
 6961TIP3   OH220846   3.162   5.521   2.277 -0.4068  0.1307 -0.0740
 6961TIP3    H120847   3.215   5.509   2.199  0.2237 -3.0091  0.7626
 6961TIP3    H220848   3.210   5.585   2.329 -0.7835  2.1669 -2.1747
 6962TIP3   OH220849   6.157   0.298   5.680 -0.1192  0.6685  1.0327
 6962TIP3    H120850   6.085   0.342   5.727 -0.5719  0.7216  0.3033
 6962TIP3    H220851   6.127   0.208   5.668  0.5287  0.3234  1.9379
 6963TIP3   OH220852   1.714   6.110   4.471  0.3095 -0.1329  0.1118
 6963TIP3    H120853   1.725   6.176   4.403 -1.5447 -0.8706 -0.9494
 6963TIP3    H220854   1.663   6.041   4.429  2.1753 -2.2313  1.2085
 6964TIP3   OH220855   5.319   6.705   5.374  0.0980 -0.1425 -0.6456
 6964TIP3    H120856   5.413   6.721   5.361  0.3463 -1.2838 -0.3411
 6964TIP3    H220857   5.294   6.648   5.302  0.0186 -1.1715  0.1761
 6965TIP3   OH220858   1.753   4.547   4.274  0.1075 -0.3496 -0.3270
 6965TIP3    H120859   1.816   4.493   4.322 -0.3272  0.0220  0.6565
 6965TIP3    H220860   1.674   4.494   4.270  0.3995 -0.7222 -1.3689
 6966TIP3   OH220861   2.807   4.475   5.325 -0.1543 -0.2279 -0.3292
 6966TIP3    H120862   2.821   4.533   5.400  0.9289 -0.7751 -0.0923
 6966TIP3    H220863   2.896   4.454   5.295 -0.5295 -2.0131 -0.2224
 6967TIP3   OH220864   2.374   3.713   4.950 -0.0377 -0.2215  0.3530
 6967TIP3    H120865   2.357   3.650   4.879 -0.9470  0.6877 -0.2591
 6967TIP3    H220866   2.333   3.673   5.027 -3.5999  1.1307 -0.7478
 6968TIP3   OH220867   4.895   5.674   5.105  0.2485 -0.1488  0.0424
 6968TIP3    H120868   4.876   5.732   5.031 -0.2993 -0.1916  0.1464
 6968TIP3    H220869   4.986   5.649   5.092  0.9553  1.9056  0.7965
 6969TIP3   OH220870   2.283   5.875   2.066  0.1616 -0.1083 -0.7013
 6969TIP3    H120871   2.214   5.840   2.121  1.7224 -0.3478  1.1591
 6969TIP3    H220872   2.237   5.920   1.995 -1.9373  1.7970  1.7594
 6970TIP3   OH220873   1.165   5.766   4.658 -0.5677 -0.0778 -0.3003
 6970TIP3    H120874   1.077   5.745   4.630 -0.8295 -2.1700  1.8787
 6970TIP3    H220875   1.222   5.708   4.607 -0.8289 -1.8837  1.4006
 6971TIP3   OH220876   0.948   4.880   5.738 -0.6822 -0.0041  0.0895
 6971TIP3    H120877   0.944   4.790   5.770  0.9490 -0.4349 -0.8531
 6971TIP3    H220878   0.981   4.931   5.812 -3.3438  0.1672  1.2260
 6972TIP3   OH220879   2.108   3.879   5.119 -0.0191 -0.2644  0.0722
 6972TIP3    H120880   2.185   3.912   5.165  0.5990 -1.7524  0.1264
 6972TIP3    H220881   2.117   3.912   5.029 -1.6396  3.3212  1.1614
 6973TIP3   OH220882   4.928   1.642   5.606 -0.1913  0.0653 -0.0891
 6973TIP3    H120883   4.867   1.599   5.666 -1.0602 -1.8305 -2.2874
 6973TIP3    H220884   4.973   1.570   5.562 -1.0041  1.3726 -3.1751
 6974TIP3   OH220885   5.572   0.810   3.373 -0.1024 -0.3929 -0.6369
 6974TIP3    H120886   5.493   0.776   3.415 -1.1062 -0.0705 -2.2128
 6974TIP3    H220887   5.638   0.742   3.388  0.0374  0.4534  2.8226
 6975TIP3   OH220888   4.262   2.514   5.986 -0.3058  0.4945  0.2633
 6975TIP3    H120889   4.174   2.535   6.016 -0.7587 -0.0793 -0.6730
 6975TIP3    H220890   4.262   2.534   5.893  0.2094 -0.6246  0.0151
 6976TIP3   OH220891   3.602   1.378   4.207  0.1642 -0.2607  0.2375
 6976TIP3    H120892   3.542   1.444   4.244 -1.2289 -1.9598  1.0647
 6976TIP3    H220893   3.544   1.317   4.162  1.4366 -1.0142 -0.3709
 6977TIP3   OH220894   1.930   5.994   4.748 -0.4255 -0.6275 -0.3766
 6977TIP3    H120895   1.917   5.953   4.834 -1.4431 -0.8340 -0.6182
 6977TIP3    H220896   1.844   6.030   4.726 -0.0417 -0.1401 -1.0886
 6978TIP3   OH220897   4.063   4.195   1.629  0.0482 -0.1123  0.5867
 6978TIP3    H120898   4.046   4.269   1.688 -0.7491  0.7410 -0.6973
 6978TIP3    H220899   4.158   4.181   1.635  0.2937  1.4069  0.3937
 6979TIP3   OH220900   1.017   6.459   5.298 -0.1778 -0.5984 -0.4463
 6979TIP3    H120901   0.976   6.514   5.365  0.2985  0.5679 -1.0849
 6979TIP3    H220902   1.108   6.490   5.295  0.3599 -2.0887 -0.1439
 6980TIP3   OH220903   3.293   1.884   3.726 -0.3514  0.4591 -0.0152
 6980TIP3    H120904   3.227   1.905   3.792  1.3902 -0.1973  1.9948
 6980TIP3    H220905   3.330   1.968   3.701 -0.3874  0.6484  0.5567
 6981TIP3   OH220906   5.130   1.338   4.141  0.9824  0.0410 -0.3621
 6981TIP3    H120907   5.074   1.369   4.070 -0.5663 -1.3132  0.2311
 6981TIP3    H220908   5.177   1.416   4.170 -0.2585  1.1185 -1.1951
 6982TIP3   OH220909   5.299   1.577   4.133 -0.3597 -0.6340 -0.0924
 6982TIP3    H120910   5.344   1.519   4.072  0.5998  0.3000 -0.2918
 6982TIP3    H220911   5.359   1.585   4.207 -0.3342  0.3444 -0.2082
 6983TIP3   OH220912   1.275   6.496   3.492 -0.1946 -0.1780  0.1705
 6983TIP3    H120913   1.184   6.525   3.499 -0.0921  0.3286 -0.5977
 6983TIP3    H220914   1.312   6.513   3.579 -0.9969 -0.9603  0.6732
 6984TIP3   OH220915   1.495   6.395   3.292 -0.1072  0.5946 -0.0992
 6984TIP3    H120916   1.526   6.365   3.377 -1.7970 -1.3162 -0.1113
 6984TIP3    H220917   1.409   6.433   3.311 -0.3974  0.3446 -0.9337
 6985TIP3   OH220918   1.704   5.185   5.001  0.7488  0.0054 -0.3430
 6985TIP3    H120919   1.748   5.164   5.083 -0.1617 -1.1168 -0.1233
 6985TIP3    H220920   1.772   5.221   4.945  1.6863 -0.6126  0.3940
 6986TIP3   OH220921   3.942   2.708   4.987  0.0051  0.5721 -0.3577
 6986TIP3    H120922   3.863   2.676   4.943 -0.3760  1.0086  0.0086
 6986TIP3    H220923   3.911   2.781   5.040  0.5579  0.3575  0.2508
 6987TIP3   OH220924   1.577   5.893   4.364 -0.4913 -0.1635 -0.0244
 6987TIP3    H120925   1.602   5.906   4.272  0.0464 -0.8685  0.0238
 6987TIP3    H220926   1.575   5.798   4.375 -0.3557 -0.0753  0.7547
 6988TIP3   OH220927   6.451   6.673   3.693  0.1043  0.2782  0.0133
 6988TIP3    H120928   6.526   6.711   3.739 -1.2701  2.4716  0.4907
 6988TIP3    H220929   6.416   6.608   3.754  1.6172 -0.7941 -0.2301
 6989TIP3   OH220930   2.062   5.325   3.060 -0.1910 -0.4478  0.3399
 6989TIP3    H120931   2.129   5.363   3.004 -1.2019  1.6088  0.4736
 6989TIP3    H220932   2.068   5.375   3.142 -0.5375 -1.6063  1.0897
 6990TIP3   OH220933   0.922   6.682   3.127  0.1810 -0.0537  0.4405
 6990TIP3    H120934   0.877   6.683   3.211 -0.0931  0.4991  0.2814
 6990TIP3    H220935   0.853   6.692   3.062  0.4419 -0.0275  0.1674
 6991TIP3   OH220936   0.663   6.764   4.393 -0.1532 -0.0994 -0.0105
 6991TIP3    H120937   0.734   6.753   4.331 -0.2873  2.8578 -0.7800
 6991TIP3    H220938   0.701   6.740   4.478  0.5475 -2.4024 -0.9408
 6992TIP3   OH220939   0.605   2.354   0.221  0.4061 -0.1646 -0.0488
 6992TIP3    H120940   0.546   2.428   0.207 -0.0091 -0.6063 -0.7123
 6992TIP3    H220941   0.567   2.305   0.293 -0.3025 -0.7031 -0.7822
 6993TIP3   OH220942   4.033   5.775   3.600  0.2207 -0.4522  0.7232
 6993TIP3    H120943   4.120   5.737   3.608  0.6180  0.0892 -0.7689
 6993TIP3    H220944   3.973   5.700   3.604  0.7246 -0.7931  2.0747
 6994TIP3   OH220945   6.572   0.095   2.353 -0.6826 -0.4694  0.3617
 6994TIP3    H120946   6.632   0.136   2.292 -0.3536 -2.9269 -1.0201
 6994TIP3    H220947   6.489   0.088   2.305  0.0658 -4.0253 -0.4778
 6995TIP3   OH220948   0.097   4.229   1.994 -0.2792  0.1439 -0.4454
 6995TIP3    H120949   0.078   4.223   2.087 -1.6343 -1.0531 -0.7769
 6995TIP3    H220950   0.104   4.322   1.976 -1.2428  0.4325  0.6245
 6996TIP3   OH220951   3.457   5.492   3.649  0.0327  0.0881 -0.2902
 6996TIP3    H120952   3.537   5.504   3.702  0.1406 -0.7751 -0.2359
 6996TIP3    H220953   3.475   5.413   3.598  0.3926  1.5604 -2.5093
 6997TIP3   OH220954   4.139   1.150   3.784  0.1418 -0.1355  0.3337
 6997TIP3    H120955   4.150   1.210   3.711  0.6892 -1.0323 -0.3366
 6997TIP3    H220956   4.220   1.158   3.835 -0.0797  0.2102  0.6334
 6998TIP3   OH220957   4.010   6.377   3.296 -0.4114  0.7282 -0.2804
 6998TIP3    H120958   4.083   6.437   3.306  1.5818 -1.3280 -1.9725
 6998TIP3    H220959   4.041   6.294   3.334 -2.1163  0.0031 -0.3954
 6999TIP3   OH220960   1.492   5.327   5.095 -0.0606  0.0604  0.1546
 6999TIP3    H120961   1.568   5.284   5.055  1.4322  0.3545  2.6158
 6999TIP3    H220962   1.461   5.387   5.027  0.9285 -1.2106 -1.4625
 7000TIP3   OH220963   1.608   6.356   4.854  0.2339 -0.3712  0.2899
 7000TIP3    H120964   1.517   6.328   4.850  0.2560 -0.8112  2.3140
 7000TIP3    H220965   1.608   6.445   4.819 -0.9101 -0.5053 -0.0525
 7001TIP3   OH220966   6.900   4.524   5.329  0.5334  0.0698 -0.2492
 7001TIP3    H120967   6.878   4.507   5.237 -1.3831  1.1814 -0.0145
 7001TIP3    H220968   6.947   4.607   5.327  2.8837 -1.2338 -0.5033
 7002TIP3   OH220969   2.376   6.209   2.673 -0.1044 -0.3903  0.0240
 7002TIP3    H120970   2.455   6.156   2.659 -0.3841 -1.3885  2.0381
 7002TIP3    H220971   2.306   6.144   2.683 -0.5797  0.3721  1.7499
 7003TIP3   OH220972   4.503   5.805   4.183  0.5139  0.2783 -0.4872
 7003TIP3    H120973   4.577   5.849   4.140  1.2385  0.4680  0.9276
 7003TIP3    H220974   4.517   5.712   4.165  0.7715  0.3654 -0.7434
 7004TIP3   OH220975   4.632   6.948   2.810 -0.4910  0.4549  0.7642
 7004TIP3    H120976   4.579   6.881   2.854  0.6967 -0.7221  0.4034
 7004TIP3    H220977   4.673   6.902   2.737  1.5587  1.2186  1.4282
 7005TIP3   OH220978   2.482   5.875   3.395 -0.5915  0.1121  0.0360
 7005TIP3    H120979   2.492   5.968   3.416 -0.1017  0.1367 -0.3112
 7005TIP3    H220980   2.563   5.851   3.350 -1.0465 -0.2947 -0.5784
 7006TIP3   OH220981   3.851   6.241   3.108  0.0132  0.8789 -0.3834
 7006TIP3    H120982   3.907   6.304   3.153  0.0078  0.7747 -0.2332
 7006TIP3    H220983   3.903   6.213   3.032  0.4456  0.2494  0.1438
 7007TIP3   OH220984   5.020   6.205   4.077 -0.4720 -0.4561  0.6331
 7007TIP3    H120985   5.032   6.269   4.007 -1.2873 -0.4870  0.4660
 7007TIP3    H220986   5.107   6.196   4.116  0.1322 -0.8690 -0.7536
 7008TIP3   OH220987   5.691   0.439   3.217  0.5477 -0.6159  0.1750
 7008TIP3    H120988   5.734   0.453   3.302  0.5490  1.2383 -0.1069
 7008TIP3    H220989   5.606   0.401   3.239  0.3998  0.1991  1.0424
 7009TIP3   OH220990   4.994   1.481   3.947  0.2368 -0.2910 -0.0503
 7009TIP3    H120991   4.899   1.490   3.939  0.3574  0.8933 -0.3512
 7009TIP3    H220992   5.021   1.561   3.993  1.1806 -0.2065 -0.7422
 7010TIP3   OH220993   3.336   5.853   4.691 -0.0908  0.3636  0.6365
 7010TIP3    H120994   3.425   5.817   4.699  0.3928  0.8144 -2.2434
 7010TIP3    H220995   3.281   5.778   4.668  0.0412  0.5382 -0.2860
 7011TIP3   OH220996   5.457   5.701   2.111  0.0544  0.2167 -0.0681
 7011TIP3    H120997   5.461   5.630   2.046  0.7590  0.3334 -0.1587
 7011TIP3    H220998   5.494   5.777   2.065  0.8520  0.2167  0.5710
 7012TIP3   OH220999   5.873   5.848   5.504  0.0294  0.4433  0.0504
 7012TIP3    H121000   5.854   5.831   5.412 -0.1708 -0.5839  0.2772
 7012TIP3    H221001   5.889   5.942   5.508 -0.0474  0.5099 -1.0176
 7013TIP3   OH221002   5.016   4.222   2.638  0.0318  0.3810  0.1563
 7013TIP3    H121003   4.982   4.201   2.725 -0.0577 -2.8346 -0.5806
 7013TIP3    H221004   5.110   4.201   2.643  0.9578  4.1980  0.6351
 7014TIP3   OH221005   3.335   5.096   2.500 -0.2167 -0.7283 -0.1346
 7014TIP3    H121006   3.282   5.176   2.497  0.3197 -0.4072 -2.1334
 7014TIP3    H221007   3.391   5.106   2.577 -0.7253  0.4633  0.0786
 7015TIP3   OH221008   1.728   3.926   5.027 -0.2036 -1.0511  0.3403
 7015TIP3    H121009   1.661   3.987   4.996  0.4051 -0.4058  0.2841
 7015TIP3    H221010   1.742   3.865   4.955 -0.3744 -0.8861  0.1699
 7016TIP3   OH221011   5.812   6.632   4.694  0.2517 -0.5468 -0.3596
 7016TIP3    H121012   5.764   6.603   4.772 -1.1587 -1.1653 -1.4471
 7016TIP3    H221013   5.900   6.596   4.706  1.1107  2.2954  2.6402
 7017TIP3   OH221014   1.556   6.656   3.739 -0.0068 -0.5330 -0.3233
 7017TIP3    H121015   1.518   6.740   3.765 -1.4687 -1.8087  1.9235
 7017TIP3    H221016   1.638   6.650   3.788  0.3373 -0.2204 -0.8554
 7018TIP3   OH221017   0.886   1.288   2.382  0.5296  0.9386 -0.5567
 7018TIP3    H121018   0.912   1.288   2.474  0.4378  0.9065 -0.5304
 7018TIP3    H221019   0.790   1.285   2.385  0.5575 -0.3209 -0.6633
 7019TIP3   OH221020   6.158   0.533   5.269  0.6318 -0.0699  0.5673
 7019TIP3    H121021   6.085   0.548   5.210  0.3334  1.2198  1.2391
 7019TIP3    H221022   6.213   0.611   5.260  1.7119 -0.8346  0.3818
 7020TIP3   OH221023   4.992   5.140   3.758  0.1174  0.1416  0.0229
 7020TIP3    H121024   4.974   5.070   3.821 -0.1207 -1.1406 -1.4419
 7020TIP3    H221025   5.080   5.120   3.725  0.1531  0.6848 -0.2173
 7021TIP3   OH221026   3.516   6.589   3.627  1.2062 -0.0580  0.3426
 7021TIP3    H121027   3.479   6.517   3.576 -0.0123  1.1271 -0.4777
 7021TIP3    H221028   3.602   6.558   3.654  0.0704 -2.4679  1.3685
 7022TIP3   OH221029   4.072   6.170   1.460 -0.1019 -0.0785  0.1896
 7022TIP3    H121030   4.019   6.247   1.480  1.6524  0.8396  1.4478
 7022TIP3    H221031   4.047   6.147   1.371 -2.3049  0.5627  0.5998
 7023TIP3   OH221032   5.624   6.459   3.781 -0.7606  0.2781 -1.1150
 7023TIP3    H121033   5.594   6.445   3.692 -2.8912 -0.1340 -0.3708
 7023TIP3    H221034   5.601   6.378   3.827  0.3895  0.4517 -0.2239
 7024TIP3   OH221035   3.801   3.853   2.209  0.2889 -0.8060 -0.3799
 7024TIP3    H121036   3.881   3.879   2.256  0.1772 -0.5333 -0.3438
 7024TIP3    H221037   3.731   3.903   2.250 -0.1908 -2.4246  0.8322
 7025TIP3   OH221038   4.285   5.659   3.634 -0.0518  0.6437  0.2179
 7025TIP3    H121039   4.299   5.576   3.588  2.5964  0.7053  0.8677
 7025TIP3    H221040   4.275   5.634   3.726 -2.0235  0.8243  0.0750
 7026TIP3   OH221041   3.698   6.754   2.448  0.2092 -0.1414 -0.1250
 7026TIP3    H121042   3.722   6.847   2.440 -0.2475 -0.0347 -0.2849
 7026TIP3    H221043   3.756   6.709   2.387  1.9623 -0.2378  1.5288
 7027TIP3   OH221044   7.216   0.363   3.676 -0.3169  0.5394  0.7251
 7027TIP3    H121045   7.215   0.391   3.585  0.9271  0.4017  0.6627
 7027TIP3    H221046   7.190   0.271   3.672  1.8184 -0.0839  0.2609
 7028TIP3   OH221047   4.092   5.082   4.409  0.8894  0.1493  0.1755
 7028TIP3    H121048   4.181   5.085   4.374  0.5364  0.6567 -0.6954
 7028TIP3    H221049   4.075   4.989   4.424  2.3284  0.1937  2.3593
 7029TIP3   OH221050   4.464   4.646   2.953 -0.0810 -0.4711  0.2315
 7029TIP3    H121051   4.540   4.590   2.933  1.6231  1.6147  0.6416
 7029TIP3    H221052   4.396   4.617   2.892  1.1753 -2.1048 -0.4415
 7030TIP3   OH221053   5.171   6.800   1.242  0.2290 -0.0712 -0.5121
 7030TIP3    H121054   5.246   6.857   1.257  0.0470  0.0783 -0.1540
 7030TIP3    H221055   5.204   6.711   1.259  0.9588 -0.2500 -2.7218
 7031TIP3   OH221056   4.185   6.328   2.667  0.1587 -0.4042 -0.0074
 7031TIP3    H121057   4.158   6.238   2.655 -0.6013 -0.1590 -0.1746
 7031TIP3    H221058   4.157   6.373   2.588  0.2691  0.0368  0.1993
 7032TIP3   OH221059   0.896   0.247   4.495 -0.8393  0.1185 -0.5640
 7032TIP3    H121060   0.882   0.185   4.424  0.3512  0.9260 -1.5265
 7032TIP3    H221061   0.833   0.317   4.479  0.9096  1.3896 -2.1323
 7033TIP3   OH221062   2.573   6.960   2.552  0.4613 -0.0205 -0.3520
 7033TIP3    H121063   2.536   6.901   2.616  0.3917  0.3379 -0.0610
 7033TIP3    H221064   2.499   6.984   2.496 -0.5400  3.3467  2.2350
 7034TIP3   OH221065   0.665   0.094   0.138  0.1993 -0.3232  0.1784
 7034TIP3    H121066   0.642   0.135   0.221  1.4027  1.3851 -0.3308
 7034TIP3    H221067   0.759   0.077   0.143  0.6903  1.6507 -1.6135
 7035TIP3   OH221068   5.724   6.126   2.576 -0.1795 -0.7193 -0.4461
 7035TIP3    H121069   5.653   6.182   2.546 -0.7228 -1.6609 -0.9488
 7035TIP3    H221070   5.804   6.167   2.541 -0.4630  0.3413  0.1267
 7036TIP3   OH221071   4.194   5.602   2.349 -0.4090  0.2815 -0.3030
 7036TIP3    H121072   4.148   5.609   2.265 -0.5702 -0.6727 -0.3040
 7036TIP3    H221073   4.280   5.568   2.326 -1.0612 -1.7207  0.0722
 7037TIP3   OH221074   3.243   4.146   3.560  0.5738  0.5245  0.3523
 7037TIP3    H121075   3.286   4.163   3.643  1.6197  1.7266 -0.4138
 7037TIP3    H221076   3.301   4.085   3.515  0.5120  0.6423  0.1094
 7038TIP3   OH221077   2.350   5.247   3.160 -0.0237 -0.1435  0.4495
 7038TIP3    H121078   2.320   5.272   3.072  0.5572  0.1462  0.3331
 7038TIP3    H221079   2.309   5.311   3.218  2.3549  1.8211  0.0468
 7039TIP3   OH221080   5.267   6.966   5.282  0.0488 -0.0615  0.0562
 7039TIP3    H121081   5.235   6.927   5.200 -1.2335 -0.2803  0.6373
 7039TIP3    H221082   5.312   6.894   5.327 -1.7199 -0.7254  0.8153
 7040TIP3   OH221083   5.253   0.078   2.709  0.1855 -0.3523  0.3473
 7040TIP3    H121084   5.171   0.050   2.667  0.5222 -1.6769  0.5529
 7040TIP3    H221085   5.295   0.134   2.643 -0.0651 -1.0831 -0.4415
 7041TIP3   OH221086   5.783   4.312   3.634 -0.4434  0.4971  0.1816
 7041TIP3    H121087   5.741   4.302   3.549  0.4177 -0.5994 -0.1261
 7041TIP3    H221088   5.812   4.403   3.636  0.3740  0.2684 -1.0867
 7042TIP3   OH221089   4.187   6.369   4.242 -0.6375 -0.4821 -0.1619
 7042TIP3    H121090   4.203   6.283   4.204 -0.8372 -1.5217  2.0107
 7042TIP3    H221091   4.112   6.403   4.194 -0.7798 -1.6706 -0.7995
 7043TIP3   OH221092   4.421   6.763   4.941  0.3252  0.1198  0.3956
 7043TIP3    H121093   4.342   6.711   4.958  0.6178  0.2559  2.2568
 7043TIP3    H221094   4.392   6.854   4.946  0.4527  0.1621  0.3765
 7044TIP3   OH221095   2.546   5.414   2.538  0.0981 -0.5714 -0.7722
 7044TIP3    H121096   2.629   5.376   2.508  0.9602 -0.0746  0.8649
 7044TIP3    H221097   2.570   5.504   2.563 -0.5384 -0.9856  1.4073
 7045TIP3   OH221098   4.411   0.295   2.645  0.0989 -0.3710  0.1574
 7045TIP3    H121099   4.347   0.335   2.704 -0.4432  1.2829 -1.5404
 7045TIP3    H221100   4.363   0.227   2.600 -0.3676  0.5790 -0.7957
 7046TIP3   OH221101   5.176   2.322   3.053  0.5390  0.7974 -0.9247
 7046TIP3    H121102   5.212   2.264   3.119  0.3701  1.1837 -0.4851
 7046TIP3    H221103   5.225   2.303   2.973 -0.6706 -1.1526 -1.2365
 7047TIP3   OH221104   4.732   6.419   3.235  0.2588  0.3793 -0.0161
 7047TIP3    H121105   4.664   6.417   3.168 -0.1521  0.1678  0.4044
 7047TIP3    H221106   4.815   6.411   3.187  0.1056  2.6932 -0.7172
 7048TIP3   OH221107   1.746   6.310   4.239  0.6192 -0.9142 -0.0748
 7048TIP3    H121108   1.825   6.359   4.259 -0.6445  1.0276  0.2795
 7048TIP3    H221109   1.768   6.262   4.158  2.0157 -0.1301 -0.1795
 7049TIP3   OH221110   6.501   1.862   1.295 -0.2293 -0.0739  0.7765
 7049TIP3    H121111   6.512   1.821   1.209 -1.3280  0.8189  0.1872
 7049TIP3    H221112   6.574   1.923   1.302  1.0098 -1.6134  1.3553
 7050TIP3   OH221113   7.210   1.227   4.427  0.5003  0.3331 -0.6984
 7050TIP3    H121114   7.224   1.163   4.357 -1.5268 -1.0066  0.0772
 7050TIP3    H221115   7.168   1.301   4.383 -1.7236 -0.9171 -0.7888
 7051TIP3   OH221116   5.962   0.987   3.343 -0.3839  0.0861 -0.7327
 7051TIP3    H121117   5.983   1.034   3.424 -0.5177 -0.1356 -0.5679
 7051TIP3    H221118   5.959   1.055   3.276 -1.5642  0.4544 -0.3168
 7052TIP3   OH221119  -0.004   0.922   3.188  0.9648 -0.4922 -0.0891
 7052TIP3    H121120  -0.025   0.873   3.108 -0.3234  1.5701 -1.0340
 7052TIP3    H221121   0.092   0.930   3.186  0.8627  0.5416 -2.0452
 7053TIP3   OH221122   4.006   4.675   3.092 -0.1193 -0.1649 -0.0371
 7053TIP3    H121123   4.011   4.682   2.996  0.4418 -1.0002 -0.0639
 7053TIP3    H221124   3.977   4.762   3.120 -0.6023 -0.0080 -0.9896
 7054TIP3   OH221125   0.273   2.895   3.743 -0.2325  0.1686  0.1820
 7054TIP3    H121126   0.339   2.910   3.810  0.8087  0.1482 -0.8175
 7054TIP3    H221127   0.289   2.962   3.677 -0.2442 -0.7549 -0.7839
 7055TIP3   OH221128   5.281   6.838   1.702 -0.1749  0.2050  0.4587
 7055TIP3    H121129   5.345   6.886   1.649  0.1082 -1.1961 -0.4959
 7055TIP3    H221130   5.333   6.775   1.751 -0.7638 -0.6399  0.0160
 7056TIP3   OH221131   6.404   0.730   3.308  0.5073  0.6458 -0.0299
 7056TIP3    H121132   6.400   0.733   3.212 -0.8201  0.2268  0.0044
 7056TIP3    H221133   6.497   0.715   3.328  0.5404 -0.9542 -1.3012
 7057TIP3   OH221134   2.283   5.640   3.364  0.5913 -0.2367  0.1997
 7057TIP3    H121135   2.302   5.564   3.419 -0.2834 -0.7495 -0.1823
 7057TIP3    H221136   2.316   5.715   3.413  1.8253 -0.9031  0.3994
 7058TIP3   OH221137   4.515   5.144   5.416  0.1648  0.8797 -0.0282
 7058TIP3    H121138   4.519   5.173   5.507  0.7748 -1.6075  0.7809
 7058TIP3    H221139   4.596   5.096   5.402 -1.6329 -2.1112 -0.6640
 7059TIP3   OH221140   4.824   1.522   4.861 -0.2318 -0.0516 -0.0580
 7059TIP3    H121141   4.858   1.453   4.805  0.9699  2.5379 -2.6854
 7059TIP3    H221142   4.898   1.580   4.876 -0.7358 -0.2409  3.6733
 7060TIP3   OH221143   5.226   5.123   3.387 -0.1760  0.1750  0.2477
 7060TIP3    H121144   5.174   5.101   3.465  2.7472 -1.5669  1.7790
 7060TIP3    H221145   5.317   5.125   3.418  0.8217  2.1296 -2.5748
 7061TIP3   OH221146   5.719   5.996   2.827 -0.3036  0.4074  0.1619
 7061TIP3    H121147   5.722   6.070   2.887  0.5702  0.0346  0.5762
 7061TIP3    H221148   5.732   6.035   2.740 -0.2408  0.7862  0.3412
 7062TIP3   OH221149   2.750   6.464   4.154  0.0203 -0.1152 -0.6751
 7062TIP3    H121150   2.781   6.374   4.144 -0.1345 -0.1395 -0.9448
 7062TIP3    H221151   2.816   6.506   4.209 -0.6189 -0.7665  0.6347
 7063TIP3   OH221152   3.982   0.650   4.107  0.2666  0.5946 -0.2450
 7063TIP3    H121153   3.924   0.587   4.150  1.2738  0.8157  1.4609
 7063TIP3    H221154   4.069   0.628   4.139  0.8822  1.5486 -1.2360
 7064TIP3   OH221155   5.506   6.395   2.646 -0.0684 -0.0425 -0.9559
 7064TIP3    H121156   5.464   6.385   2.731 -0.7065  1.0213 -1.1355
 7064TIP3    H221157   5.434   6.399   2.584  0.4168 -1.6152 -1.6548
 7065TIP3   OH221158   4.764   0.451   4.326 -0.7374  0.0595 -0.1060
 7065TIP3    H121159   4.807   0.534   4.305 -2.4607 -0.0127 -4.3334
 7065TIP3    H221160   4.673   0.464   4.302 -1.5082 -2.3448  1.3251
 7066TIP3   OH221161   3.766   6.906   2.981 -0.1886 -0.2766 -0.7475
 7066TIP3    H121162   3.769   6.891   2.886 -0.2462 -0.3227 -0.7420
 7066TIP3    H221163   3.813   6.832   3.018  0.9065  0.3734 -0.8073
 7067TIP3   OH221164   3.833   6.751   2.735  0.4288  0.0352 -0.2233
 7067TIP3    H121165   3.885   6.683   2.777 -0.7817 -0.7164  0.1048
 7067TIP3    H221166   3.871   6.761   2.648  2.3518  0.9148  0.7026
 7068TIP3   OH221167   5.752   6.066   5.335 -0.1533  0.1127  0.9738
 7068TIP3    H121168   5.704   6.025   5.407 -0.9038 -0.5401  0.1172
 7068TIP3    H221169   5.788   5.993   5.285  1.1194  0.5815  1.1797
 7069TIP3   OH221170   4.766   5.788   3.476 -0.0343 -0.3117 -0.6603
 7069TIP3    H121171   4.702   5.849   3.441  0.3030 -0.1924 -1.0772
 7069TIP3    H221172   4.726   5.753   3.555  0.4910  1.7560  0.5403
 7070TIP3   OH221173   0.957   1.757   3.962  0.0661  0.0985 -0.4740
 7070TIP3    H121174   0.875   1.739   3.917  0.7665 -2.7446 -0.7214
 7070TIP3    H221175   1.009   1.807   3.899 -0.5306 -0.2689 -1.2615
 7071TIP3   OH221176   2.275   6.094   3.623  0.3624 -0.7534  0.0689
 7071TIP3    H121177   2.278   6.031   3.695  1.1003  0.5456  1.2020
 7071TIP3    H221178   2.194   6.073   3.577 -0.4230 -1.2578  1.6206
 7072TIP3   OH221179   1.757   5.962   5.224 -0.1709  0.6709  0.5638
 7072TIP3    H121180   1.683   6.021   5.211  0.0376  1.3303  2.2290
 7072TIP3    H221181   1.719   5.874   5.222 -0.3198  0.7662 -3.0774
 7073TIP3   OH221182   6.030   6.139   2.892 -0.0377 -0.1981 -0.1334
 7073TIP3    H121183   5.955   6.170   2.943  0.5735 -0.5685  1.0138
 7073TIP3    H221184   6.021   6.182   2.807 -1.8055 -0.6042 -0.1711
 7074TIP3   OH221185   3.944   5.910   4.358 -0.4212  0.6636 -0.2999
 7074TIP3    H121186   3.980   5.825   4.388 -0.6559  0.4178 -0.7168
 7074TIP3    H221187   3.919   5.955   4.439  0.2742  0.5872 -0.0382
 7075TIP3   OH221188   3.411   4.812   4.166 -0.2757 -0.0780 -0.1455
 7075TIP3    H121189   3.429   4.728   4.207  1.4099  0.0803 -0.5455
 7075TIP3    H221190   3.323   4.803   4.130  0.1915 -1.9364 -0.8528
 7076TIP3   OH221191   7.419   1.302   4.155 -0.8035  0.3644 -0.0083
 7076TIP3    H121192   7.339   1.249   4.157 -0.2873 -0.3940  1.9642
 7076TIP3    H221193   7.388   1.392   4.144 -1.7737 -0.1590 -1.8881
 7077TIP3   OH221194   3.742   0.378   3.055  0.0995  0.8927  0.4283
 7077TIP3    H121195   3.677   0.444   3.078 -0.5128  0.1190  0.9652
 7077TIP3    H221196   3.735   0.312   3.125 -0.2679 -0.4220 -0.8141
 7078TIP3   OH221197   0.986   0.123   2.834  0.5009 -0.4364 -0.1349
 7078TIP3    H121198   0.937   0.122   2.752 -0.2384 -1.9459  0.3030
 7078TIP3    H221199   1.066   0.073   2.815  0.2660 -0.9025  0.0937
 7079TIP3   OH221200   3.845   4.895   2.362  0.0476  0.1141  0.1295
 7079TIP3    H121201   3.867   4.814   2.316  0.2552  0.2562 -0.0206
 7079TIP3    H221202   3.759   4.878   2.401 -0.2574  0.0989 -0.5488
 7080TIP3   OH221203   6.447   1.679   2.289 -0.0901 -0.0386 -0.6852
 7080TIP3    H121204   6.388   1.702   2.217  0.3672 -0.7834 -1.3128
 7080TIP3    H221205   6.393   1.626   2.348 -0.7085  1.3158 -0.0295
 7081TIP3   OH221206   7.089   0.357   4.533 -0.0099  0.0616  0.5812
 7081TIP3    H121207   7.106   0.289   4.598 -0.2282  0.0232  0.5985
 7081TIP3    H221208   7.041   0.313   4.463  0.7760 -0.0367  0.0940
 7082TIP3   OH221209   4.844   0.312   2.482 -0.2820 -0.4153  0.2524
 7082TIP3    H121210   4.763   0.361   2.494  0.6198  1.3848 -0.7335
 7082TIP3    H221211   4.822   0.245   2.418 -0.5153  1.3780 -1.6205
 7083TIP3   OH221212   3.282   5.749   2.398  0.0210  0.3312 -0.0777
 7083TIP3    H121213   3.346   5.710   2.458 -0.7262 -0.0524  0.4683
 7083TIP3    H221214   3.205   5.767   2.452 -0.9299 -0.7030 -1.0742
 7084TIP3   OH221215   4.758   5.596   3.870  0.4783 -0.4971 -0.5013
 7084TIP3    H121216   4.755   5.690   3.889 -0.5356 -0.2156 -1.9188
 7084TIP3    H221217   4.840   5.584   3.822  1.1742 -0.5434  0.6926
 7085TIP3   OH221218   0.321   1.635   3.357 -0.4126 -0.6149 -0.5311
 7085TIP3    H121219   0.252   1.701   3.359 -0.5646 -0.7961  0.8399
 7085TIP3    H221220   0.380   1.659   3.428 -0.3860 -1.8475 -0.1148
 7086TIP3   OH221221   7.315   0.642   5.113 -0.1560  0.5147 -0.2144
 7086TIP3    H121222   7.296   0.734   5.094 -1.8303  0.1411 -0.4960
 7086TIP3    H221223   7.239   0.594   5.077  0.5719 -0.9474  0.1443
 7087TIP3   OH221224   2.405   5.421   3.500 -0.2659 -0.8699  0.1194
 7087TIP3    H121225   2.342   5.406   3.571 -1.1107 -0.4683 -0.5424
 7087TIP3    H221226   2.485   5.450   3.545 -0.7772 -0.6778  0.9087
 7088TIP3   OH221227   4.893   6.047   4.266  0.4950  0.0371  0.9981
 7088TIP3    H121228   4.934   5.960   4.270  1.2536  0.3597  0.2149
 7088TIP3    H221229   4.949   6.098   4.208 -1.6582  0.1236 -1.1107
 7089TIP3   OH221230   5.793   5.774   4.392 -0.0479  0.3498 -0.5352
 7089TIP3    H121231   5.754   5.816   4.315  0.1391  2.6668  0.5889
 7089TIP3    H221232   5.885   5.763   4.369  0.0762  1.3411 -0.5091
 7090TIP3   OH221233   5.980   0.314   4.142 -0.7674 -0.0919  0.2367
 7090TIP3    H121234   6.030   0.388   4.107  1.6594 -1.0799  1.4692
 7090TIP3    H221235   5.900   0.311   4.090 -1.0605  3.5873  0.3594
 7091TIP3   OH221236   7.384   1.078   2.537  0.2359  0.1253 -0.0140
 7091TIP3    H121237   7.407   0.986   2.527  1.9809  0.5345  0.1850
 7091TIP3    H221238   7.401   1.117   2.452 -0.5408  0.2664 -0.1094
 7092TIP3   OH221239   6.736   1.070   2.295  0.1435  0.1391  0.1418
 7092TIP3    H121240   6.802   1.009   2.328  1.4731  0.6372 -1.5655
 7092TIP3    H221241   6.786   1.140   2.252 -1.3606  2.5643  2.2422
 7093TIP3   OH221242   6.572   5.966   1.896  0.4717  0.4181  0.3276
 7093TIP3    H121243   6.520   5.971   1.816  0.9140  0.2824  0.0290
 7093TIP3    H221244   6.615   5.881   1.891  0.6657  0.4978  0.6075
 7094TIP3   OH221245   0.367   1.530   3.900  0.3341  0.2704  0.3689
 7094TIP3    H121246   0.420   1.589   3.954 -0.2106  0.6026  0.5376
 7094TIP3    H221247   0.379   1.563   3.810  0.2191  0.4976  0.4359
 7095TIP3   OH221248   4.749   6.174   2.869 -0.3344  0.0171  0.2770
 7095TIP3    H121249   4.742   6.203   2.778  0.6798  0.3555  0.2995
 7095TIP3    H221250   4.776   6.082   2.862  1.6957  0.5812  0.2250
 7096TIP3   OH221251   0.704   0.468   3.040  0.1630 -0.2268  0.6967
 7096TIP3    H121252   0.694   0.449   3.133 -3.4569 -1.1945  0.1620
 7096TIP3    H221253   0.663   0.394   2.995 -0.9119  1.6917 -1.6102
 7097TIP3   OH221254   5.717   1.481   3.945  0.4977  0.1969 -0.1354
 7097TIP3    H121255   5.740   1.543   4.014  0.5492  0.0429 -0.0148
 7097TIP3    H221256   5.773   1.505   3.872 -2.3545  3.0000 -1.5471
 7098TIP3   OH221257   5.513   0.959   1.921 -0.5398 -0.1219  0.1246
 7098TIP3    H121258   5.551   0.927   1.839  0.1949  0.8536  0.0801
 7098TIP3    H221259   5.516   1.054   1.914 -1.3430 -0.0328  0.8928
 7099TIP3   OH221260   4.100   6.255   2.935  0.0986  0.1754  0.3733
 7099TIP3    H121261   4.149   6.334   2.912 -1.1082  0.1253 -2.5071
 7099TIP3    H221262   4.084   6.211   2.852 -0.1578 -2.6029  1.8367
 7100TIP3   OH221263   5.964   1.875   1.857  0.0389  0.1483  0.2118
 7100TIP3    H121264   5.950   1.918   1.942 -0.0386 -0.4148  0.4846
 7100TIP3    H221265   5.887   1.899   1.805 -0.4797 -0.4532  0.6910
 7101TIP3   OH221266   3.111   6.481   2.721  0.4667 -0.1486 -0.3538
 7101TIP3    H121267   3.149   6.429   2.792  0.3066 -0.9169 -0.8230
 7101TIP3    H221268   3.096   6.417   2.651 -0.1881  0.4488 -0.7533
 7102TIP3   OH221269   6.033   2.509   4.654 -0.0380  0.1935  0.2614
 7102TIP3    H121270   5.983   2.460   4.589  0.9745 -1.3381  0.5928
 7102TIP3    H221271   5.987   2.592   4.663 -2.7233 -1.2891  0.8442
 7103TIP3   OH221272   3.618   2.671   2.296 -0.4192 -0.1148  0.3674
 7103TIP3    H121273   3.665   2.635   2.372 -0.1431 -0.4387  0.0451
 7103TIP3    H221274   3.535   2.625   2.296 -0.1501 -0.6032  0.0788
 7104TIP3   OH221275   3.880   6.173   4.346  1.2675  0.5266 -0.8242
 7104TIP3    H121276   3.897   6.090   4.302 -2.7823 -1.8568  1.7351
 7104TIP3    H221277   3.950   6.180   4.411  0.7182 -1.8745  0.1166
 7105TIP3   OH221278   6.149   0.591   1.814  0.1861  0.4856 -0.5403
 7105TIP3    H121279   6.075   0.593   1.754  1.6412  1.0421 -2.3804
 7105TIP3    H221280   6.165   0.683   1.835 -1.2091  0.2005  1.8628
 7106TIP3   OH221281   6.808   0.871   3.661 -0.7701 -0.1138 -0.3059
 7106TIP3    H121282   6.762   0.885   3.579 -0.9118 -2.2369 -0.6053
 7106TIP3    H221283   6.740   0.846   3.723 -0.9896  3.5316  1.0530
 7107TIP3   OH221284   7.066   1.458   3.795  0.9200 -0.0191 -0.3361
 7107TIP3    H121285   7.077   1.541   3.748 -1.2795 -0.2143 -1.2487
 7107TIP3    H221286   7.016   1.403   3.735 -0.6780 -0.7846  1.6255
 7108TIP3   OH221287   6.264   0.628   4.681  0.3228 -0.2685  0.4159
 7108TIP3    H121288   6.188   0.573   4.661  1.2443 -0.7121 -2.0905
 7108TIP3    H221289   6.339   0.568   4.677  1.1560  0.8102 -0.5814
 7109TIP3   OH221290   5.823   5.710   2.717 -0.0653  0.0586  0.3930
 7109TIP3    H121291   5.770   5.751   2.786 -2.0779 -0.9638 -0.5109
 7109TIP3    H221292   5.767   5.713   2.640  1.9167  0.5958 -1.0673
 7110TIP3   OH221293   6.657   0.226   4.089 -0.0608  0.3007  0.0438
 7110TIP3    H121294   6.710   0.211   4.168 -0.4960  1.1123  0.4965
 7110TIP3    H221295   6.709   0.188   4.018  0.2225 -0.6611  0.7513
 7111TIP3   OH221296   0.308   0.974   2.146 -0.3335  0.4074 -0.0686
 7111TIP3    H121297   0.302   0.951   2.238  0.2558 -0.1147 -0.1543
 7111TIP3    H221298   0.322   1.069   2.145 -2.1340  0.6820  0.3172
 7112TIP3   OH221299   6.257   5.014   2.066  0.2196 -0.2905 -0.1622
 7112TIP3    H121300   6.176   5.064   2.058  1.0340  1.0936  0.1800
 7112TIP3    H221301   6.278   4.989   1.976  1.1668  2.1691 -0.6491
 7113TIP3   OH221302   3.206   6.700   2.583  0.1191 -0.0642  0.1171
 7113TIP3    H121303   3.174   6.640   2.650  0.4842  1.0901  1.3609
 7113TIP3    H221304   3.290   6.663   2.555  0.7439  0.2886  1.4753
 7114TIP3   OH221305   2.872   3.834   4.583  0.6711  0.3281 -0.3667
 7114TIP3    H121306   2.900   3.914   4.627 -0.5715 -0.1005  1.2617
 7114TIP3    H221307   2.780   3.824   4.609  0.4874 -1.0213 -1.4834
 7115TIP3   OH221308   4.437   5.844   6.031  0.0234 -0.3574 -0.3670
 7115TIP3    H121309   4.377   5.852   5.956  0.3112 -1.0890 -0.6828
 7115TIP3    H221310   4.384   5.868   6.107 -0.2582  0.4469 -0.8143
 7116TIP3   OH221311   6.101   0.316   1.868 -0.2209 -0.0968  0.2959
 7116TIP3    H121312   6.163   0.247   1.892 -1.9330 -1.9182 -0.4023
 7116TIP3    H221313   6.155   0.395   1.862  1.4431 -0.9820  2.9481
 7117TIP3   OH221314   3.598   4.143   1.817 -0.3578 -0.1657  0.1695
 7117TIP3    H121315   3.676   4.099   1.852  3.2166  3.6847 -2.3981
 7117TIP3    H221316   3.594   4.226   1.866 -2.7706 -0.2372  0.1225
 7118TIP3   OH221317   5.337   6.585   1.294  0.0231 -0.7063 -0.0643
 7118TIP3    H121318   5.410   6.634   1.331  2.4304 -4.4021  0.4057
 7118TIP3    H221319   5.378   6.510   1.250 -3.2904 -0.9810 -2.9551
 7119TIP3   OH221320   7.053   6.543   3.029  0.0957 -0.0172 -0.2063
 7119TIP3    H121321   7.003   6.462   3.016 -1.3441  0.8614 -0.2904
 7119TIP3    H221322   7.142   6.521   3.002 -0.4135 -1.4001 -0.8076
 7120TIP3   OH221323   5.370   1.608   1.503  0.4241  0.2755 -0.1406
 7120TIP3    H121324   5.432   1.603   1.431  1.3155  0.2727  0.6078
 7120TIP3    H221325   5.414   1.663   1.569 -1.2441  2.0070 -0.4398
 7121TIP3   OH221326   4.089   5.379   3.271  0.1075 -0.3475  0.4845
 7121TIP3    H121327   4.113   5.299   3.223 -1.4318  1.0875 -2.8684
 7121TIP3    H221328   3.997   5.365   3.296 -0.4684  0.6793 -0.9430
 7122TIP3   OH221329   7.077   4.592   4.371  0.1475 -0.0570 -0.2986
 7122TIP3    H121330   7.071   4.511   4.421 -0.5355  0.1858  0.0258
 7122TIP3    H221331   7.111   4.656   4.433 -0.9417  0.3041 -0.0697
 7123TIP3   OH221332   5.876   6.189   4.739  0.6767  0.0313  0.0596
 7123TIP3    H121333   5.879   6.119   4.673  1.7444 -0.8217  1.0080
 7123TIP3    H221334   5.963   6.190   4.777  0.3480  1.1797  0.7997
 7124TIP3   OH221335   4.835   0.070   2.868 -0.0808 -0.1773  0.1049
 7124TIP3    H121336   4.767   0.116   2.819  0.3172  0.3953  0.0831
 7124TIP3    H221337   4.909   0.131   2.869  0.7676 -1.1996 -0.7117
 7125TIP3   OH221338   5.343   2.186   4.200  0.0845 -0.0708  0.5206
 7125TIP3    H121339   5.401   2.256   4.231  0.6114  0.0737 -0.7651
 7125TIP3    H221340   5.278   2.230   4.146  1.3803 -0.7288 -1.6537
 7126TIP3   OH221341   4.835   6.409   4.529  0.0447  0.4304  0.2332
 7126TIP3    H121342   4.891   6.447   4.597 -0.4162  1.1903  0.1959
 7126TIP3    H221343   4.828   6.317   4.553  0.7204  0.4784  0.6420
 7127TIP3   OH221344   2.768   6.715   4.954  0.0269  0.5922  0.1885
 7127TIP3    H121345   2.677   6.693   4.934  0.2728 -0.3266  0.0607
 7127TIP3    H221346   2.810   6.725   4.869  0.4100 -0.5564  0.2252
 7128TIP3   OH221347   5.619   1.909   3.195 -0.0030  0.1151  0.0688
 7128TIP3    H121348   5.640   1.816   3.198  1.5281  0.4335 -0.5312
 7128TIP3    H221349   5.539   1.917   3.247  1.2398 -1.1512  2.2495
 7129TIP3   OH221350   4.025   0.085   3.637  0.1589 -0.1204 -0.1262
 7129TIP3    H121351   4.023   0.180   3.631  2.3345 -0.0240  0.2304
 7129TIP3    H221352   4.048   0.056   3.549 -1.3654 -0.3881 -0.4587
 7130TIP3   OH221353   1.566   6.950   4.411  0.2751 -0.2554 -0.0001
 7130TIP3    H121354   1.569   7.035   4.454 -2.6456  0.2246 -0.5906
 7130TIP3    H221355   1.474   6.922   4.419  0.6841 -2.3151 -1.7362
 7131TIP3   OH221356   3.689   6.750   5.314 -0.4070  0.0298  0.5403
 7131TIP3    H121357   3.626   6.821   5.309  0.1745  0.4787 -0.5496
 7131TIP3    H221358   3.643   6.673   5.281  0.2301  0.7946 -2.2392
 7132TIP3   OH221359   0.177   0.061   4.347 -0.4045  0.4420  0.3527
 7132TIP3    H121360   0.127   0.021   4.418  1.2976 -1.0678  0.7182
 7132TIP3    H221361   0.188  -0.008   4.282  0.3899  1.0365 -0.1630
 7133TIP3   OH221362   4.765   0.678   4.686  0.1394 -0.1649  0.3246
 7133TIP3    H121363   4.737   0.598   4.730  1.3977 -0.9766 -0.3287
 7133TIP3    H221364   4.686   0.732   4.683 -0.0043 -0.1162  3.4576
 7134TIP3   OH221365   5.568   0.338   2.854 -0.5552 -0.1784  0.4879
 7134TIP3    H121366   5.596   0.399   2.922 -1.6775  2.1042 -1.0443
 7134TIP3    H221367   5.474   0.354   2.844 -0.3805 -0.3389 -1.7038
 7135TIP3   OH221368   6.907   1.623   4.856  0.1678 -1.0421 -0.4690
 7135TIP3    H121369   6.845   1.685   4.818 -0.1888 -1.3165 -0.3274
 7135TIP3    H221370   6.876   1.608   4.945  1.8774  0.8126  0.4895
 7136TIP3   OH221371   7.021   5.808   5.988 -0.3147  0.0123 -0.1169
 7136TIP3    H121372   7.062   5.817   6.074 -0.6422 -0.7604  0.1201
 7136TIP3    H221373   7.034   5.717   5.965 -2.1696 -0.3242  0.0883
 7137TIP3   OH221374   3.507   3.699   4.687  0.2020 -0.3084  0.1977
 7137TIP3    H121375   3.428   3.752   4.683 -0.0005 -0.7167 -1.8156
 7137TIP3    H221376   3.575   3.760   4.715 -0.6452  0.2534  1.0483
 7138TIP3   OH221377   2.695   6.761   3.622 -0.3878 -0.2511  0.2685
 7138TIP3    H121378   2.646   6.721   3.694  0.5023 -1.9458 -0.0333
 7138TIP3    H221379   2.784   6.771   3.657 -0.3674  0.5651 -0.0036
 7139TIP3   OH221380   0.485   0.143   1.532  0.4965 -0.2102 -0.0660
 7139TIP3    H121381   0.493   0.238   1.530  0.4295 -0.1565  1.6265
 7139TIP3    H221382   0.448   0.120   1.446 -0.1934  1.3550 -0.2021
 7140TIP3   OH221383   4.507   6.619   5.218 -0.3308 -0.4421  0.1665
 7140TIP3    H121384   4.584   6.584   5.175 -0.4490 -0.8527  0.2857
 7140TIP3    H221385   4.451   6.542   5.233 -1.1701 -0.0129 -0.7643
 7141TIP3   OH221386   3.148   6.381   3.563 -0.6451  0.1400  0.0171
 7141TIP3    H121387   3.168   6.396   3.471 -0.4944  3.3289  0.4791
 7141TIP3    H221388   3.054   6.401   3.571 -0.2330  1.9429  0.8594
 7142TIP3   OH221389   1.940   3.553   0.730 -0.4335 -0.0983  0.2540
 7142TIP3    H121390   1.914   3.631   0.682 -1.0931  0.2727  1.1721
 7142TIP3    H221391   1.901   3.565   0.817 -2.9889 -2.7294 -0.4078
 7143TIP3   OH221392   4.578   5.664   2.082 -0.3965  0.3427 -0.5495
 7143TIP3    H121393   4.670   5.677   2.058 -0.5465  1.4914 -0.5424
 7143TIP3    H221394   4.558   5.737   2.141 -1.0472 -0.4334  0.2011
 7144TIP3   OH221395   6.293   0.894   3.505 -0.0416 -0.3532 -0.1091
 7144TIP3    H121396   6.303   0.838   3.428 -0.3601  0.0818 -0.4728
 7144TIP3    H221397   6.356   0.965   3.492  0.3088 -0.5894  0.3112
 7145TIP3   OH221398   3.658   5.845   3.543  0.0256  0.1570  0.8124
 7145TIP3    H121399   3.749   5.820   3.559  1.0120  1.2334 -2.7045
 7145TIP3    H221400   3.620   5.767   3.501 -0.9549 -0.6106  3.0713
 7146TIP3   OH221401   6.693   1.220   4.092 -0.3836 -0.6079  0.3470
 7146TIP3    H121402   6.617   1.161   4.094 -1.2379  0.4919  1.0211
 7146TIP3    H221403   6.661   1.299   4.048  1.2193 -1.2538 -2.0858
 7147TIP3   OH221404   3.892   3.328   4.513  0.2010 -0.2602  0.0720
 7147TIP3    H121405   3.983   3.319   4.543  0.1344 -1.9770 -0.2125
 7147TIP3    H221406   3.846   3.255   4.554 -0.9250  0.2196 -0.3175
 7148TIP3   OH221407   7.042   0.540   2.308  0.1236  0.2340 -0.1864
 7148TIP3    H121408   7.101   0.579   2.373 -0.4939  1.2865 -0.2422
 7148TIP3    H221409   7.089   0.463   2.276  0.6816  0.0151  1.1055
 7149TIP3   OH221410   0.202   6.063   3.770  0.4796  0.5901  0.1641
 7149TIP3    H121411   0.124   6.076   3.823  0.3684 -0.5315  0.3041
 7149TIP3    H221412   0.174   6.081   3.680 -0.1882 -0.6610  0.1037
 7150TIP3   OH221413   0.249   0.098   3.503  0.4630 -0.3423 -0.4591
 7150TIP3    H121414   0.183   0.049   3.552  1.4711 -1.1268  0.1179
 7150TIP3    H221415   0.198   0.151   3.441 -0.7387 -0.4022  0.4624
 7151TIP3   OH221416   6.213   5.018   3.603  0.1904 -0.3284  0.0861
 7151TIP3    H121417   6.284   4.968   3.643 -0.7759 -1.9945 -0.2309
 7151TIP3    H221418   6.252   5.055   3.524  0.5129 -1.8874 -0.5100
 7152TIP3   OH221419   6.099   5.129   5.998 -0.1818  0.1590 -0.1409
 7152TIP3    H121420   6.127   5.054   5.946  1.4388  0.6757 -0.0095
 7152TIP3    H221421   6.127   5.108   6.087  1.5731  1.5627 -0.3459
 7153TIP3   OH221422   3.274   4.096   2.366 -0.2850  0.1936 -0.7935
 7153TIP3    H121423   3.350   4.076   2.420 -0.9437  0.9796  0.4397
 7153TIP3    H221424   3.309   4.112   2.279  1.0282  1.1818 -0.0905
 7154TIP3   OH221425   4.261   5.415   3.486 -0.5091  0.0325  0.2553
 7154TIP3    H121426   4.304   5.332   3.505  0.9965  0.4602 -1.2039
 7154TIP3    H221427   4.206   5.397   3.410 -1.6419 -0.0941  1.0976
 7155TIP3   OH221428   0.707   1.898   0.029 -0.6886  0.0352 -0.3479
 7155TIP3    H121429   0.667   1.815   0.004  0.6666 -1.4732  2.1996
 7155TIP3    H221430   0.785   1.905  -0.027 -1.3910  0.1436 -1.3220
 7156TIP3   OH221431   5.334   5.895   4.107  0.5337 -0.8234  0.0394
 7156TIP3    H121432   5.239   5.888   4.098  0.3598  0.4027  0.8409
 7156TIP3    H221433   5.364   5.805   4.123 -0.4702 -1.2323 -0.3613
 7157TIP3   OH221434   6.222   0.840   1.892  0.2895 -0.1807  0.0945
 7157TIP3    H121435   6.195   0.911   1.835 -0.4038 -0.6007 -0.0966
 7157TIP3    H221436   6.313   0.861   1.915  0.7529 -0.2964 -1.5966
 7158TIP3   OH221437   1.769   6.144   3.664  0.1776 -0.1592 -0.6905
 7158TIP3    H121438   1.753   6.226   3.617  0.7608 -0.7294 -1.8890
 7158TIP3    H221439   1.704   6.083   3.629 -0.1348 -0.2804  0.0731
 7159TIP3   OH221440   5.158   0.898   4.152  0.5558 -0.2514 -0.7151
 7159TIP3    H121441   5.157   0.863   4.063 -2.0167 -1.3697 -0.2717
 7159TIP3    H221442   5.242   0.869   4.187  0.9442 -1.0852 -2.2664
 7160TIP3   OH221443   5.424   1.920   3.386  0.3441  0.2237  0.3910
 7160TIP3    H121444   5.477   1.957   3.457 -0.2901 -0.3058  1.1561
 7160TIP3    H221445   5.377   1.848   3.427  0.4683 -0.5188 -0.7315
 7161TIP3   OH221446   5.444   6.328   1.186 -0.1036 -0.3682  0.1066
 7161TIP3    H121447   5.533   6.362   1.184 -0.2567  0.1124  1.0756
 7161TIP3    H221448   5.446   6.259   1.252 -0.9560  1.1510  1.7821
 7162TIP3   OH221449   7.235   1.109   4.177  0.4363  0.4379  0.4296
 7162TIP3    H121450   7.140   1.098   4.182  0.1384  2.5299 -0.3471
 7162TIP3    H221451   7.264   1.040   4.117 -0.7332  0.5820 -0.3090
 7163TIP3   OH221452   5.772   0.323   5.693 -0.2374 -0.2522  0.7320
 7163TIP3    H121453   5.834   0.369   5.637 -0.6229  0.2975  0.7467
 7163TIP3    H221454   5.819   0.308   5.774 -0.4254  1.0349  1.0984
 7164TIP3   OH221455   5.750   5.356   4.511 -0.2618 -0.0739  0.4943
 7164TIP3    H121456   5.834   5.343   4.467 -0.3444 -0.2073  0.3784
 7164TIP3    H221457   5.685   5.353   4.441 -0.5364 -1.7937  0.8036
 7165TIP3   OH221458   7.290   0.240   4.180 -0.3826 -0.1217 -0.8182
 7165TIP3    H121459   7.375   0.254   4.139 -0.3384 -1.2529 -1.1300
 7165TIP3    H221460   7.269   0.149   4.161 -1.9892  0.3354 -1.3599
 7166TIP3   OH221461   2.535   6.637   3.820 -0.1097  0.4720 -0.1862
 7166TIP3    H121462   2.465   6.572   3.815  0.1470  0.2606 -1.2170
 7166TIP3    H221463   2.564   6.634   3.911  0.1871 -1.1688 -0.3139
 7167TIP3   OH221464   6.824   1.166   5.021  0.5148  0.2861 -0.2949
 7167TIP3    H121465   6.811   1.252   4.980 -0.0414  0.2496 -0.2040
 7167TIP3    H221466   6.823   1.104   4.949 -0.4634  0.2217 -0.2316
 7168TIP3   OH221467   7.151   0.228   3.317  0.1913  0.7593 -0.1130
 7168TIP3    H121468   7.116   0.227   3.228 -1.1611  0.3456  0.4169
 7168TIP3    H221469   7.110   0.305   3.358 -1.0484 -0.3917  0.8686
 7169TIP3   OH221470   2.777   6.633   1.796 -0.3048  0.0713 -0.2228
 7169TIP3    H121471   2.823   6.592   1.870  1.1714 -1.8689 -2.1602
 7169TIP3    H221472   2.725   6.562   1.759 -1.4384  1.1748 -0.7642
 7170TIP3   OH221473   5.447   6.401   3.557  0.0709 -0.1756  0.0782
 7170TIP3    H121474   5.417   6.398   3.466  0.2016 -0.3805  0.0426
 7170TIP3    H221475   5.380   6.353   3.605 -1.2757  2.0047  0.4396
 7171TIP3   OH221476   2.673   6.260   2.805  0.3385 -0.2073  0.2383
 7171TIP3    H121477   2.704   6.294   2.889 -0.2703 -0.0303  0.3912
 7171TIP3    H221478   2.579   6.277   2.805 -0.2292 -3.0078  0.8675
 7172TIP3   OH221479   5.828   6.022   2.121  0.0005  0.1871  0.6386
 7172TIP3    H121480   5.854   6.075   2.197 -0.3595  2.0580 -0.5218
 7172TIP3    H221481   5.733   6.026   2.120 -0.0728 -1.0276  0.8839
 7173TIP3   OH221482   1.948   1.011   1.258 -0.2193 -0.1612 -0.6437
 7173TIP3    H121483   1.947   0.934   1.200 -0.4850  0.7642 -1.8731
 7173TIP3    H221484   1.876   1.065   1.227  1.0628  1.4140 -0.9011
 7174TIP3   OH221485   5.040   5.148   2.919  0.1773 -0.1460  0.3313
 7174TIP3    H121486   4.961   5.114   2.878  0.8688  0.1662 -1.3102
 7174TIP3    H221487   5.096   5.172   2.845  1.1372  1.1574  1.4697
 7175TIP3   OH221488   4.533   5.478   2.789  0.2050  0.1923  0.7801
 7175TIP3    H121489   4.569   5.454   2.874  0.4867  3.9420  1.8187
 7175TIP3    H221490   4.480   5.556   2.807  0.7773  1.4387 -2.5728
 7176TIP3   OH221491   6.897   0.229   3.598  0.0524 -0.1578  0.3227
 7176TIP3    H121492   6.982   0.194   3.624  0.4965  1.9124  1.7369
 7176TIP3    H221493   6.846   0.152   3.571  1.8299 -1.5744  0.9684
 7177TIP3   OH221494   6.537   1.542   4.764  0.1635  0.3242 -0.5265
 7177TIP3    H121495   6.610   1.597   4.735 -0.4394  0.1704 -2.3845
 7177TIP3    H221496   6.463   1.571   4.711 -0.9299 -0.0984  0.7547
 7178TIP3   OH221497   4.628   6.747   4.253  0.7749 -0.0071 -0.6278
 7178TIP3    H121498   4.672   6.825   4.222  0.2611  0.6008  0.1323
 7178TIP3    H221499   4.566   6.724   4.184 -0.4803  1.4279 -0.0282
 7179TIP3   OH221500   6.700   4.672   3.223  0.3460  0.2556  0.1524
 7179TIP3    H121501   6.633   4.685   3.290  0.8633  2.0517  0.3468
 7179TIP3    H221502   6.666   4.717   3.146  0.6063 -0.1971 -0.2331
 7180TIP3   OH221503   6.206   5.475   4.217  0.3436 -0.5693  0.3262
 7180TIP3    H121504   6.291   5.504   4.187  0.0329 -0.1925 -0.1999
 7180TIP3    H221505   6.207   5.380   4.205  0.2484 -0.4295 -0.8291
 7181TIP3   OH221506   5.887   1.084   3.603  0.0631 -0.1430  0.4003
 7181TIP3    H121507   5.917   1.174   3.587 -1.6487  0.7151  1.8849
 7181TIP3    H221508   5.793   1.093   3.619 -0.1859 -2.2565  0.2344
 7182TIP3   OH221509   6.371   0.485   1.523  0.3848  0.2022 -0.3666
 7182TIP3    H121510   6.359   0.438   1.606 -2.0980  0.2470 -0.6453
 7182TIP3    H221511   6.464   0.474   1.502  0.6238 -1.4974  1.4111
 7183TIP3   OH221512   4.349   3.605   4.768 -0.6957 -0.4961 -0.4806
 7183TIP3    H121513   4.443   3.618   4.771 -0.7687  0.3556 -1.4477
 7183TIP3    H221514   4.330   3.547   4.841  0.6398 -1.0698 -0.5759
 7184TIP3   OH221515   2.782   5.297   2.434  0.3937 -0.0609  0.4326
 7184TIP3    H121516   2.867   5.273   2.396 -0.2011 -0.0359 -0.9436
 7184TIP3    H221517   2.804   5.353   2.508  1.5610  0.5281 -0.3470
 7185TIP3   OH221518   3.558   6.529   3.235  0.1803  0.3215 -0.9588
 7185TIP3    H121519   3.582   6.616   3.266  1.0384  0.2893 -1.5046
 7185TIP3    H221520   3.572   6.471   3.310 -1.2848  0.7937 -0.3193
 7186TIP3   OH221521   5.164   6.131   0.512 -0.2203  0.7393  0.4808
 7186TIP3    H121522   5.212   6.183   0.577 -0.5037  1.1917  0.3313
 7186TIP3    H221523   5.110   6.195   0.466  0.4077  0.5135 -0.5938
 7187TIP3   OH221524   4.104   5.148   3.126 -0.2488 -0.4700  0.3489
 7187TIP3    H121525   4.037   5.124   3.062  0.3794  0.6584 -0.7520
 7187TIP3    H221526   4.091   5.087   3.198 -0.6842 -2.0482 -1.0436
 7188TIP3   OH221527   5.062   6.517   2.240  0.2018 -1.2104  0.0089
 7188TIP3    H121528   5.103   6.504   2.326  0.7665 -0.7937 -0.1929
 7188TIP3    H221529   5.134   6.507   2.178 -0.2036 -1.4865 -0.4161
 7189TIP3   OH221530   4.832   0.735   5.547  0.3871 -0.3837 -0.5695
 7189TIP3    H121531   4.787   0.799   5.602  0.4767 -1.1160  0.3607
 7189TIP3    H221532   4.787   0.740   5.463 -0.8576 -0.4788  0.0896
 7190TIP3   OH221533   6.721   1.620   2.329 -0.0123 -0.1943  0.5365
 7190TIP3    H121534   6.766   1.617   2.245 -0.1629 -0.1351  0.4539
 7190TIP3    H221535   6.634   1.654   2.309 -0.4325 -1.2536  0.5437
 7191TIP3   OH221536   1.152   1.298   3.275 -0.4484 -0.6378 -0.2891
 7191TIP3    H121537   1.206   1.225   3.244 -0.1905 -0.8344  0.5963
 7191TIP3    H221538   1.134   1.277   3.367 -0.2981  0.4581  0.0037
 7192TIP3   OH221539   5.616   4.626   5.220  0.4728 -0.4260 -0.0148
 7192TIP3    H121540   5.529   4.657   5.191  1.1581 -0.3881 -2.1455
 7192TIP3    H221541   5.602   4.595   5.309 -1.3797  1.1538  0.2928
 7193TIP3   OH221542   4.972   0.578   3.972 -0.5139  0.0748 -0.5313
 7193TIP3    H121543   4.959   0.484   3.978 -1.5353  0.2302 -0.3039
 7193TIP3    H221544   5.002   0.604   4.059  0.3809 -0.1338 -0.7747
 7194TIP3   OH221545   5.843   0.577   4.006  0.0571  0.4573  0.3156
 7194TIP3    H121546   5.770   0.619   4.050 -1.0221 -0.5318 -0.5072
 7194TIP3    H221547   5.891   0.649   3.964 -1.6117  0.9126 -0.8476
 7195TIP3   OH221548   6.985   0.397   3.917 -0.0073  0.7286 -0.4122
 7195TIP3    H121549   6.891   0.386   3.932  0.5428 -2.4702  1.2670
 7195TIP3    H221550   7.003   0.349   3.836  0.4944 -0.4819  0.4026
 7196TIP3   OH221551   5.965   0.527   5.032  0.3679  0.0821 -0.4047
 7196TIP3    H121552   6.001   0.459   4.976  3.7354  1.5677 -0.1865
 7196TIP3    H221553   5.933   0.594   4.972  0.2763 -0.1148 -0.5747
 7197TIP3   OH221554   6.871   0.628   5.904 -0.6332 -0.5936  0.1578
 7197TIP3    H121555   6.885   0.684   5.981  0.6978 -0.0063 -0.5052
 7197TIP3    H221556   6.827   0.685   5.841 -1.6302 -1.0468  0.4315
 7198TIP3   OH221557   6.005   2.093   2.309  0.3056  0.8150  0.4917
 7198TIP3    H121558   6.079   2.108   2.367  1.9654  0.9860 -1.6328
 7198TIP3    H221559   5.957   2.176   2.308  0.7407  1.0693  0.9320
 7199TIP3   OH221560   6.487   0.924   1.934 -0.2834  0.1124 -0.2935
 7199TIP3    H121561   6.502   0.924   1.840  0.8053  1.2933 -0.1410
 7199TIP3    H221562   6.523   1.007   1.964  0.5591 -0.8025  1.3421
 7200TIP3   OH221563   3.448   5.838   3.204  0.1153  0.1138  0.0284
 7200TIP3    H121564   3.404   5.829   3.120  0.7486 -0.3999 -0.2517
 7200TIP3    H221565   3.520   5.897   3.187  0.3784 -0.1684  0.1556
 7201TIP3   OH221566   4.267   6.368   3.817  0.3805 -0.5814 -0.4601
 7201TIP3    H121567   4.329   6.442   3.816 -1.6608  1.1707 -0.8431
 7201TIP3    H221568   4.315   6.297   3.860  2.2839  1.0748  0.2104
 7202TIP3   OH221569   7.122   0.496   3.401 -0.1123  0.6721  0.3475
 7202TIP3    H121570   7.085   0.575   3.440  0.5376  1.5264 -0.7368
 7202TIP3    H221571   7.189   0.527   3.340  1.0631 -0.7779  0.8524
 7203TIP3   OH221572   5.330   5.939   2.180  0.0103 -0.4016 -0.1983
 7203TIP3    H121573   5.360   5.850   2.163 -1.0072 -0.5869 -1.0450
 7203TIP3    H221574   5.238   5.930   2.203 -0.4077  0.5289 -1.4204
 7204TIP3   OH221575   3.593   4.871   2.171 -0.0648 -0.2220  0.1871
 7204TIP3    H121576   3.601   4.935   2.100 -0.1724 -0.5262 -0.1028
 7204TIP3    H221577   3.548   4.917   2.241 -0.5164 -0.1085 -0.1802
 7205TIP3   OH221578   2.287   2.672   5.047  0.1441  0.1526 -0.5264
 7205TIP3    H121579   2.198   2.696   5.075  0.1045 -0.6564  0.0629
 7205TIP3    H221580   2.312   2.601   5.106  1.3589  0.6673 -0.4113
 7206TIP3   OH221581   0.976   5.624   3.046 -0.3828 -0.1750 -0.0298
 7206TIP3    H121582   1.057   5.637   2.996 -1.6690  2.6161 -1.5473
 7206TIP3    H221583   0.974   5.697   3.108 -1.7333 -0.2026 -0.0237
 7207TIP3   OH221584   1.394   0.171   4.505 -0.4450 -0.1690 -0.1760
 7207TIP3    H121585   1.337   0.118   4.561  0.2727 -0.7083  0.0516
 7207TIP3    H221586   1.482   0.152   4.536 -0.2254  1.8946  0.5395
 7208TIP3   OH221587   6.958   0.474   2.908 -0.1568  0.1593 -0.0922
 7208TIP3    H121588   6.893   0.544   2.913 -0.4662 -0.0562 -0.9991
 7208TIP3    H221589   7.042   0.520   2.905 -0.0041  0.3822  4.5660
 7209TIP3   OH221590   2.533   5.663   4.526 -0.3453 -0.3026 -0.0009
 7209TIP3    H121591   2.507   5.709   4.446  1.1389 -0.0832 -0.3607
 7209TIP3    H221592   2.562   5.733   4.585 -0.5196 -0.5512  0.3785
 7210TIP3   OH221593   1.825   4.283   1.901  0.2344  0.3509 -0.5546
 7210TIP3    H121594   1.830   4.259   1.994 -4.6892 -1.5920 -0.6461
 7210TIP3    H221595   1.774   4.364   1.900  0.7585  0.6744 -1.5515
 7211TIP3   OH221596   5.418   0.896   2.879  0.4970 -0.2541  0.1894
 7211TIP3    H121597   5.387   0.806   2.882  0.1024 -0.0692  2.5180
 7211TIP3    H221598   5.489   0.900   2.943  2.1319  0.5218 -1.6287
 7212TIP3   OH221599   5.472   0.889   4.572  0.5799  0.0653  0.2748
 7212TIP3    H121600   5.558   0.926   4.553  0.4005 -0.0852 -0.9199
 7212TIP3    H221601   5.488   0.823   4.639  1.4689 -0.2419 -0.2269
 7213TIP3   OH221602   4.923   5.385   2.580  0.1627  0.1360  0.6139
 7213TIP3    H121603   5.010   5.412   2.551 -0.2298  1.4025  0.6007
 7213TIP3    H221604   4.887   5.462   2.624 -1.1417 -0.2168  0.1962
 7214TIP3   OH221605   6.660   0.121   5.982 -0.3523 -0.3895 -0.2356
 7214TIP3    H121606   6.565   0.126   5.976 -0.2910 -0.3905 -1.2364
 7214TIP3    H221607   6.689   0.212   5.979 -0.3217 -0.3889  0.0758
 7215TIP3   OH221608   5.916   1.943   2.112 -1.2992 -0.6391  0.9358
 7215TIP3    H121609   5.926   1.858   2.156 -0.7201 -0.8668  0.3661
 7215TIP3    H221610   5.950   2.006   2.176  0.4325 -1.0637  0.4528
 7216TIP3   OH221611   5.729   0.928   5.024  0.9693 -0.0880  0.5767
 7216TIP3    H121612   5.685   0.843   5.018 -0.3630  0.7005 -1.1318
 7216TIP3    H221613   5.813   0.915   4.981  0.9888 -0.6831  0.7908
 7217TIP3   OH221614   3.993   6.799   3.968  0.5333 -0.1808 -0.0688
 7217TIP3    H121615   3.955   6.712   3.956  0.0231  0.1081 -0.5756
 7217TIP3    H221616   4.063   6.786   4.032 -0.8450 -0.6087  1.4018
 7218TIP3   OH221617   0.070   0.809   4.589  0.5863  0.2272 -0.2675
 7218TIP3    H121618   0.077   0.714   4.575 -1.6968 -0.0920  0.5221
 7218TIP3    H221619   0.057   0.845   4.501  0.6075 -0.2937 -0.4894
 7219TIP3   OH221620   0.166   0.444   3.527  0.1789 -0.3499 -0.7464
 7219TIP3    H121621   0.117   0.526   3.533 -0.2532 -0.6716  0.2355
 7219TIP3    H221622   0.134   0.402   3.447 -1.1609 -0.5545 -0.1133
 7220TIP3   OH221623   6.595   5.364   4.258 -0.0422 -0.0642  0.3195
 7220TIP3    H121624   6.577   5.346   4.350  1.0619 -1.2231  0.3198
 7220TIP3    H221625   6.511   5.393   4.222 -0.3961  0.7740  1.7673
 7221TIP3   OH221626   7.044   1.555   4.059  0.0508 -0.2867 -0.2884
 7221TIP3    H121627   7.085   1.509   3.985 -1.3840 -2.1056  0.0152
 7221TIP3    H221628   6.959   1.583   4.025 -0.2114 -0.2767  0.3746
 7222TIP3   OH221629   5.704   6.704   3.502 -0.7879  0.0332 -0.5214
 7222TIP3    H121630   5.668   6.786   3.535  1.2045  0.7976 -0.1544
 7222TIP3    H221631   5.756   6.730   3.426  0.9008 -0.7209  0.3618
 7223TIP3   OH221632   0.741   0.884   4.411  0.1678  0.1364  0.3474
 7223TIP3    H121633   0.735   0.978   4.428  1.0661  0.1618  0.5545
 7223TIP3    H221634   0.683   0.844   4.475  0.4438  0.4989  0.8272
 7224TIP3   OH221635   1.549   3.767   2.920  0.0999 -0.1146 -0.2548
 7224TIP3    H121636   1.614   3.760   2.990  1.1724  1.3999 -1.0775
 7224TIP3    H221637   1.600   3.785   2.841 -1.1935 -0.5519 -1.2132
 7225TIP3   OH221638   0.732   0.625   3.959  0.6240  0.5639 -0.1995
 7225TIP3    H121639   0.666   0.558   3.976  0.5999  0.5437 -0.3721
 7225TIP3    H221640   0.776   0.637   4.043  0.2160  0.7758 -0.0145
 7226TIP3   OH221641   0.605   0.473   3.311 -0.8744 -0.3460 -0.0146
 7226TIP3    H121642   0.640   0.562   3.306  0.2593 -0.7956 -0.2391
 7226TIP3    H221643   0.511   0.483   3.297 -0.5396  0.6540 -1.6710
 7227TIP3   OH221644   6.550   6.584   2.664 -0.0296  0.3427 -0.2576
 7227TIP3    H121645   6.474   6.582   2.606  0.3005 -1.9933 -0.6737
 7227TIP3    H221646   6.537   6.509   2.722  0.6843  1.4384  1.3482
 7228TIP3   OH221647   2.160   0.907   2.839 -0.1222  0.2708 -0.3771
 7228TIP3    H121648   2.105   0.855   2.898 -2.4524  1.5354 -1.4003
 7228TIP3    H221649   2.210   0.964   2.898 -0.0571 -0.7047  0.5408
 7229TIP3   OH221650   5.639   6.298   4.871 -0.2056  0.0911 -0.4191
 7229TIP3    H121651   5.678   6.341   4.947  0.2588 -0.2099 -0.4836
 7229TIP3    H221652   5.711   6.248   4.832 -0.5500 -0.1189 -0.7934
 7230TIP3   OH221653   1.060   0.526   4.831 -0.5994 -0.1764 -0.2186
 7230TIP3    H121654   1.010   0.531   4.749  0.0288 -0.7132 -0.6444
 7230TIP3    H221655   1.065   0.617   4.861  1.5974  0.4519 -2.2735
 7231TIP3   OH221656   6.104   6.563   1.008 -0.1053  0.4832 -0.0592
 7231TIP3    H121657   6.019   6.606   1.000  0.2246  0.7675 -2.0679
 7231TIP3    H221658   6.166   6.634   1.018  0.0469  0.3261  0.1190
 7232TIP3   OH221659   1.472   0.108   3.847 -0.1459  0.4861 -0.1039
 7232TIP3    H121660   1.463   0.121   3.941  2.1116  1.7133 -0.0246
 7232TIP3    H221661   1.407   0.167   3.808  0.8616  2.1054  0.6234
 7233TIP3   OH221662   0.124   0.072   4.808 -0.0033 -0.3936 -0.2094
 7233TIP3    H121663   0.170   0.134   4.752  0.9152 -0.4708  0.4519
 7233TIP3    H221664   0.069   0.021   4.748 -0.8870  1.1506 -0.7322
 7234TIP3   OH221665   6.068   5.491   1.131  0.7713  0.7154  0.2698
 7234TIP3    H121666   6.067   5.489   1.035  1.2284 -0.5305  0.2766
 7234TIP3    H221667   6.074   5.584   1.153 -0.3452  1.0778 -0.8941
 7235TIP3   OH221668   6.304   5.968   2.735 -0.1467 -0.1928  0.2073
 7235TIP3    H121669   6.320   5.915   2.813 -0.7537 -0.4490  0.1615
 7235TIP3    H221670   6.226   5.928   2.695 -0.5136  0.6442  0.0895
 7236TIP3   OH221671   7.372   0.523   1.142 -0.2240  0.5301  0.2565
 7236TIP3    H121672   7.359   0.464   1.216 -1.9805  1.8963  1.0809
 7236TIP3    H221673   7.292   0.517   1.091  0.6116  0.2937 -1.0409
 7237TIP3   OH221674   4.883   4.876   3.347  0.2410  0.5447 -0.2418
 7237TIP3    H121675   4.953   4.870   3.282  0.7194 -1.0837  0.4216
 7237TIP3    H221676   4.928   4.893   3.429 -0.2971  1.5419 -0.1398
 7238TIP3   OH221677   6.311   6.491   3.871 -0.8061 -0.0714  0.1037
 7238TIP3    H121678   6.231   6.438   3.861 -2.2258  2.5467 -3.8850
 7238TIP3    H221679   6.278   6.579   3.891  0.9655  1.1174 -1.9674
 7239TIP3   OH221680   7.049   0.769   2.671 -0.0175 -0.1325 -0.2472
 7239TIP3    H121681   7.077   0.846   2.721 -1.8777  0.5377 -0.2106
 7239TIP3    H221682   7.102   0.697   2.706  1.1347  0.9566  0.3089
 7240TIP3   OH221683   0.004   0.159   5.071 -0.3166 -0.0939 -0.6282
 7240TIP3    H121684   0.044   0.186   4.989 -1.2671  2.1132 -0.3947
 7240TIP3    H221685   0.042   0.217   5.137  0.5825 -1.9672  0.5448
 7241TIP3   OH221686   6.945   1.528   3.445 -0.0836 -0.0000  0.2546
 7241TIP3    H121687   7.031   1.551   3.479 -0.6317  2.7955 -0.1321
 7241TIP3    H221688   6.940   1.570   3.360 -1.1113 -1.7560 -0.5850
 7242TIP3   OH221689   6.093   6.323   4.382  0.0689 -0.0942 -0.2483
 7242TIP3    H121690   6.139   6.293   4.461 -0.6730 -2.2996 -0.6300
 7242TIP3    H221691   6.112   6.417   4.378  1.5322 -0.2761  1.6036
 7243TIP3   OH221692   6.328   5.816   2.430  0.6359 -0.0379  0.6345
 7243TIP3    H121693   6.255   5.789   2.487 -0.6207 -0.2176 -1.0402
 7243TIP3    H221694   6.307   5.780   2.344  3.1267 -0.7880  0.2962
 7244TIP3   OH221695   0.444   5.217   3.655 -0.1411  0.0812  0.2325
 7244TIP3    H121696   0.539   5.208   3.651 -0.1787  0.1548 -1.0493
 7244TIP3    H221697   0.411   5.130   3.633 -0.3801  0.5606 -1.3682
 7245TIP3   OH221698   0.204   1.457   1.547  0.0547  0.3399  0.4688
 7245TIP3    H121699   0.239   1.405   1.618  1.9679  2.7485  1.3705
 7245TIP3    H221700   0.224   1.407   1.468  1.1771 -0.6238  1.3487
 7246TIP3   OH221701   0.153   6.928   2.832 -0.0439 -0.2762 -0.2889
 7246TIP3    H121702   0.138   6.952   2.924  0.0655  1.5034 -0.7220
 7246TIP3    H221703   0.230   6.870   2.836  0.0721 -0.0744  0.7274
 7247TIP3   OH221704   4.382   3.764   0.848 -0.1204 -0.1689 -0.2929
 7247TIP3    H121705   4.358   3.741   0.938 -0.0132  0.1752 -0.1732
 7247TIP3    H221706   4.409   3.681   0.809 -3.1613 -0.8715 -0.9867
 7248TIP3   OH221707   5.697   6.588   1.609 -0.3651 -0.0910 -0.0426
 7248TIP3    H121708   5.672   6.501   1.576 -0.1412 -0.7690  1.5360
 7248TIP3    H221709   5.615   6.628   1.635 -0.1845 -1.0712  2.1485
 7249TIP3   OH221710   6.759   4.738   4.591 -0.3691 -0.1485 -0.4242
 7249TIP3    H121711   6.745   4.833   4.585  0.2499 -0.0507 -0.3031
 7249TIP3    H221712   6.755   4.708   4.500  0.3740  0.1252 -0.5494
 7250TIP3   OH221713   6.220   5.378   3.532 -0.1515 -0.3232  0.3167
 7250TIP3    H121714   6.294   5.438   3.525  0.3657 -1.0796 -1.0023
 7250TIP3    H221715   6.145   5.434   3.555  0.8017  0.4537  1.5667
 7251TIP3   OH221716   4.251   5.424   4.580 -0.5859  0.1323  0.0776
 7251TIP3    H121717   4.257   5.462   4.492 -0.8754  0.0274  0.0088
 7251TIP3    H221718   4.156   5.418   4.596 -0.5198  1.3986  0.9392
 7252TIP3   OH221719   4.767   5.240   2.387  0.3596  0.0585 -0.4309
 7252TIP3    H121720   4.812   5.185   2.322  0.6832  0.9455 -0.9741
 7252TIP3    H221721   4.836   5.266   2.448  0.3957  0.6383 -0.7179
 7253TIP3   OH221722   3.185   0.432   2.352  0.0417 -0.7985 -0.1523
 7253TIP3    H121723   3.223   0.462   2.434 -0.3860 -0.2573 -0.1482
 7253TIP3    H221724   3.222   0.344   2.339  1.7522 -0.0579 -0.4602
 7254TIP3   OH221725   5.694   6.248   4.131 -0.3106 -0.0020  0.4223
 7254TIP3    H121726   5.675   6.340   4.146 -0.6846 -0.2180  1.2918
 7254TIP3    H221727   5.692   6.238   4.036 -1.5966  0.6085  0.3858
 7255TIP3   OH221728   2.075   2.909   0.224  0.0393 -0.2134 -0.4775
 7255TIP3    H121729   2.025   2.975   0.272  0.3628  1.0262 -1.8000
 7255TIP3    H221730   2.146   2.959   0.183  0.7256 -1.5114 -0.8856
 7256TIP3   OH221731   6.445   4.483   1.712  0.3858 -0.0763 -0.0008
 7256TIP3    H121732   6.491   4.564   1.736  0.2176 -0.4571  1.5870
 7256TIP3    H221733   6.514   4.428   1.674  1.1371 -0.3822  1.7501
 7257TIP3   OH221734   2.209   5.984   4.707 -0.1000  0.9545 -0.0796
 7257TIP3    H121735   2.220   5.977   4.612  1.1593  3.5202 -0.1626
 7257TIP3    H221736   2.114   5.995   4.719 -0.3216  0.0980 -0.9897
 7258TIP3   OH221737   6.559   0.458   4.043  0.5275  0.1111  0.6245
 7258TIP3    H121738   6.565   0.365   4.067  0.5735  0.0295  0.3006
 7258TIP3    H221739   6.615   0.467   3.966  2.9229  1.0391  2.4291
 7259TIP3   OH221740   4.488   6.930   3.972  0.0186  0.4872 -0.2190
 7259TIP3    H121741   4.434   6.853   3.990 -1.1608  1.1817 -0.7046
 7259TIP3    H221742   4.516   6.918   3.881  0.6569  0.1499  0.0182
 7260TIP3   OH221743   0.659  -0.033   3.643  0.1888  0.0454  0.4545
 7260TIP3    H121744   0.609   0.005   3.715  0.1900 -0.8871  0.9579
 7260TIP3    H221745   0.728   0.030   3.626 -1.0809  1.3043 -0.1693
 7261TIP3   OH221746   3.758   6.436   3.621  0.5302 -0.1642  0.2357
 7261TIP3    H121747   3.842   6.442   3.667  0.5594 -0.7372  0.2653
 7261TIP3    H221748   3.781   6.396   3.537  0.6953  2.1209 -0.8567
 7262TIP3   OH221749   6.144   1.848   1.662 -0.6834 -0.3335  0.1301
 7262TIP3    H121750   6.120   1.780   1.599  0.1919 -1.5865  1.1286
 7262TIP3    H221751   6.080   1.840   1.732 -1.9481  1.3772 -0.8091
 7263TIP3   OH221752   4.621   5.029   4.262 -0.4053 -0.0111  0.3190
 7263TIP3    H121753   4.656   5.114   4.236  0.2454 -0.4453 -0.2510
 7263TIP3    H221754   4.653   4.969   4.194 -0.9659 -0.6839  0.6492
 7264TIP3   OH221755   0.431   0.803   3.092  0.0301  0.1338 -0.4245
 7264TIP3    H121756   0.360   0.825   3.152  0.1262 -0.5364 -0.0539
 7264TIP3    H221757   0.495   0.757   3.146 -0.3634 -1.4228 -1.2277
 7265TIP3   OH221758   7.139   6.888   1.332 -0.6155  0.3551  0.2184
 7265TIP3    H121759   7.124   6.800   1.367 -1.4883 -0.1331 -1.3823
 7265TIP3    H221760   7.186   6.933   1.403  0.2646 -1.5259  0.8768
 7266TIP3   OH221761   6.163   6.916   3.709  0.1208  0.4137  0.1607
 7266TIP3    H121762   6.243   6.902   3.658  0.7380  0.9843  0.9559
 7266TIP3    H221763   6.171   6.856   3.783 -0.4776  0.0372 -0.0770
 7267TIP3   OH221764   0.259   1.175   2.602 -0.0754 -0.3968 -0.3405
 7267TIP3    H121765   0.171   1.141   2.586 -0.0408 -1.0530  0.8467
 7267TIP3    H221766   0.259   1.202   2.694  0.5452  0.8994 -0.6948
 7268TIP3   OH221767   0.750   5.286   4.101 -0.0021  0.1464 -0.1250
 7268TIP3    H121768   0.732   5.365   4.151 -0.0207 -0.2984  0.5746
 7268TIP3    H221769   0.704   5.216   4.147  1.2736 -0.5376  0.1604
 7269TIP3   OH221770   5.122   6.347   4.358  0.7229 -0.4514  0.0622
 7269TIP3    H121771   5.122   6.253   4.377  3.1519 -0.7618 -1.3747
 7269TIP3    H221772   5.208   6.377   4.386  0.2848  1.1813 -0.3280
 7270TIP3   OH221773   6.434   4.916   4.415 -0.3010 -0.0511 -0.1734
 7270TIP3    H121774   6.367   4.864   4.371 -0.2934 -0.5867  0.4437
 7270TIP3    H221775   6.516   4.875   4.390 -0.3353 -0.7967  0.9010
 7271TIP3   OH221776   6.178   6.112   4.850  0.4279  0.1305 -0.0175
 7271TIP3    H121777   6.194   6.128   4.943 -2.5529 -0.2380  0.6093
 7271TIP3    H221778   6.148   6.021   4.847  1.3885 -0.1513 -1.4655
 7272TIP3   OH221779   5.028   5.744   4.564  0.1659 -0.0432 -0.1244
 7272TIP3    H121780   5.005   5.828   4.604  0.1219 -0.5354  0.9110
 7272TIP3    H221781   4.969   5.681   4.605  0.8435 -0.7276 -0.1838
 7273TIP3   OH221782   5.281   5.609   3.695 -0.1458  0.6247 -0.2086
 7273TIP3    H121783   5.217   5.665   3.650 -0.9312 -0.4376 -0.4387
 7273TIP3    H221784   5.338   5.576   3.625  1.7716  2.9578  0.2032
 7274TIP3   OH221785   5.037   4.790   3.577  0.1617  0.3016 -0.0281
 7274TIP3    H121786   5.023   4.699   3.553  0.7935  0.5060 -1.1931
 7274TIP3    H221787   5.084   4.786   3.661 -1.5848 -0.4092  0.9452
 7275TIP3   OH221788   4.539   4.788   3.331  0.3212  0.3511  0.2114
 7275TIP3    H121789   4.491   4.813   3.252  0.3463  0.7905  0.3349
 7275TIP3    H221790   4.590   4.865   3.354 -0.4531  0.5737  1.2336
 7276TIP3   OH221791   4.058   4.360   4.263  0.2679 -0.6790 -0.3523
 7276TIP3    H121792   4.145   4.366   4.223  1.1848  0.4858  1.7957
 7276TIP3    H221793   4.038   4.449   4.290 -0.6238 -1.3507  1.2166
 7277TIP3   OH221794   7.406   4.703   4.678  0.0656 -0.1979  0.2950
 7277TIP3    H121795   7.356   4.710   4.760  0.2752  1.1077  0.3218
 7277TIP3    H221796   7.363   4.763   4.618  0.4417 -0.5082 -0.2904
 7278TIP3   OH221797   4.765   3.980   3.801 -0.5905  0.2375  0.4076
 7278TIP3    H121798   4.815   4.061   3.810  0.4780 -0.3017 -0.6700
 7278TIP3    H221799   4.821   3.912   3.837 -0.6301 -0.3395 -0.6067
 7279TIP3   OH221800   2.778   1.526   0.392 -0.9971  0.4043  0.4037
 7279TIP3    H121801   2.759   1.620   0.387  0.0547  0.7958  3.0283
 7279TIP3    H221802   2.698   1.488   0.428 -1.5904  0.2170 -1.0895
 7280TIP3   OH221803   4.492   5.297   0.455 -0.2238 -0.4004 -0.1362
 7280TIP3    H121804   4.447   5.373   0.491 -0.3010  0.4261 -1.9384
 7280TIP3    H221805   4.466   5.295   0.363  0.9653 -1.7325 -0.4628
 7281TIP3   OH221806   5.138   6.234   2.071 -1.1187  0.3694 -0.4550
 7281TIP3    H121807   5.215   6.279   2.104  1.0539 -3.8591  0.5729
 7281TIP3    H221808   5.077   6.235   2.145 -0.5226  0.3594  0.0434
 7282TIP3   OH221809   2.070   4.626   2.785 -0.3874 -0.1598  0.7304
 7282TIP3    H121810   2.157   4.592   2.806 -0.9142 -0.7163  2.0645
 7282TIP3    H221811   2.060   4.705   2.839 -0.5637  0.1158  0.3017
 7283TIP3   OH221812   5.689   5.179   3.606  0.1768  0.1755 -0.3948
 7283TIP3    H121813   5.669   5.108   3.667 -1.3147 -1.6827 -2.9298
 7283TIP3    H221814   5.785   5.177   3.599  0.1537 -1.8973 -0.6928
 7284TIP3   OH221815   4.808   5.076   2.792  0.0750  0.3604 -0.1544
 7284TIP3    H121816   4.749   5.001   2.803  0.2946  0.3510  1.0286
 7284TIP3    H221817   4.752   5.147   2.763 -0.8132  0.7919  2.5230
 7285TIP3   OH221818   6.588   6.554   4.638  0.4822 -0.1558  0.5666
 7285TIP3    H121819   6.564   6.638   4.599 -1.3958 -1.0149 -0.2467
 7285TIP3    H221820   6.664   6.525   4.588 -0.2444  0.0302 -0.6921
 7286TIP3   OH221821   4.800   5.408   3.188 -0.0797  0.1644 -0.1685
 7286TIP3    H121822   4.715   5.440   3.157  0.2605  1.8033  0.5744
 7286TIP3    H221823   4.854   5.486   3.196  0.6432 -0.5184  2.0178
 7287TIP3   OH221824   6.469   5.342   4.562  0.0095 -0.6247 -0.3944
 7287TIP3    H121825   6.545   5.311   4.611  0.1157  0.4075  0.0972
 7287TIP3    H221826   6.409   5.267   4.562  0.8626 -1.3216 -0.4640
 7288TIP3   OH221827   6.253   0.779   5.392  0.3695  0.2765  0.4695
 7288TIP3    H121828   6.246   0.863   5.438 -0.1699  1.2876 -1.3749
 7288TIP3    H221829   6.298   0.801   5.310 -0.5870 -1.0515 -0.4305
 7289TIP3   OH221830   1.307   0.791   4.117 -0.1116 -0.1513 -0.0373
 7289TIP3    H121831   1.303   0.829   4.029  1.2246 -1.5129 -0.7023
 7289TIP3    H221832   1.399   0.768   4.129  0.0116  1.3781  2.3207
 7290TIP3   OH221833   6.232   5.622   3.330 -0.0233 -0.2820 -0.3110
 7290TIP3    H121834   6.242   5.556   3.261 -1.1967  0.4754 -1.2059
 7290TIP3    H221835   6.140   5.616   3.356  0.2928 -0.2307  0.8764
 7291TIP3   OH221836   2.728   5.245   4.823 -0.0412 -0.2459  0.4326
 7291TIP3    H121837   2.807   5.192   4.839  0.2739  0.3688  0.9454
 7291TIP3    H221838   2.759   5.320   4.772 -0.2686  0.0756  0.7653
 7292TIP3   OH221839   6.615   5.959   2.902  0.6138  0.2243  0.3105
 7292TIP3    H121840   6.577   6.005   2.826  1.8132 -0.9239 -0.9990
 7292TIP3    H221841   6.708   5.977   2.896  0.9694 -1.6042  0.3387
 7293TIP3   OH221842   5.867   5.725   3.483  0.5531  0.8723  0.4657
 7293TIP3    H121843   5.859   5.639   3.526  1.2283 -0.3356 -1.7484
 7293TIP3    H221844   5.792   5.730   3.424  0.4559  1.8738  0.6623
 7294TIP3   OH221845   1.376   0.570   1.480  0.0093 -0.0876 -0.1077
 7294TIP3    H121846   1.339   0.613   1.557  0.6111  0.3451 -0.0516
 7294TIP3    H221847   1.451   0.521   1.514 -0.4315 -0.8556 -0.2366
 7295TIP3   OH221848   6.451   5.192   1.229 -0.4101  0.5570  0.3341
 7295TIP3    H121849   6.394   5.237   1.166 -0.2559 -0.7254 -0.7333
 7295TIP3    H221850   6.537   5.231   1.215 -0.6627  1.2992  0.7795
 7296TIP3   OH221851   0.047   0.755   5.734 -0.2832  0.6322  0.5081
 7296TIP3    H121852   0.135   0.783   5.759 -0.4757 -0.4940  2.5544
 7296TIP3    H221853   0.034   0.672   5.779 -1.1881 -0.8537 -2.3736
 7297TIP3   OH221854   7.061   6.206   3.973  0.1199 -0.6051  0.5536
 7297TIP3    H121855   7.075   6.251   4.057  0.0118 -1.1002  0.8412
 7297TIP3    H221856   6.996   6.259   3.928  0.5773 -0.0407  0.5571
 7298TIP3   OH221857   4.850   6.316   2.627 -0.1845 -0.5479 -0.4674
 7298TIP3    H121858   4.813   6.309   2.539 -0.2043 -0.2593 -0.4824
 7298TIP3    H221859   4.863   6.410   2.640  1.0587 -0.6818 -0.6806
 7299TIP3   OH221860   6.005   5.387   2.340 -0.3004  0.7020  0.7910
 7299TIP3    H121861   6.040   5.452   2.401  0.3635  0.8684  0.2298
 7299TIP3    H221862   5.918   5.419   2.319 -1.1929 -0.1798  2.8979
 7300TIP3   OH221863   5.411   5.681   3.103 -0.3799  0.2493  0.6500
 7300TIP3    H121864   5.460   5.706   3.025  0.3904  1.4084  1.4789
 7300TIP3    H221865   5.336   5.631   3.070 -0.9346  2.0511 -0.9548
 7301TIP3   OH221866   0.411   0.338   4.431 -0.0590 -0.1468  0.6285
 7301TIP3    H121867   0.389   0.389   4.353 -0.2541 -0.1764  0.6631
 7301TIP3    H221868   0.474   0.392   4.478 -0.5569  0.2435  0.8643
 7302TIP3   OH221869   3.322   0.670   4.121 -0.0097  0.1005  1.0073
 7302TIP3    H121870   3.277   0.642   4.041 -1.4915  2.2816  1.0395
 7302TIP3    H221871   3.252   0.677   4.186  1.1066 -1.1107  2.3753
 7303TIP3   OH221872   7.372   4.524   2.251  0.0828 -0.8794 -0.2230
 7303TIP3    H121873   7.281   4.531   2.278  0.1867  0.1845 -0.0978
 7303TIP3    H221874   7.373   4.553   2.160  0.3970 -0.1501  0.0030
 7304TIP3   OH221875   4.442   4.189   2.865 -0.0093 -0.3114  0.2518
 7304TIP3    H121876   4.522   4.236   2.887 -1.2222  2.1707 -0.4605
 7304TIP3    H221877   4.375   4.228   2.921 -1.4770  0.3062 -1.8897
 7305TIP3   OH221878   4.476   4.663   2.651 -0.5119 -0.4947 -0.0994
 7305TIP3    H121879   4.561   4.622   2.638 -0.0077 -0.0129  1.5327
 7305TIP3    H221880   4.424   4.636   2.575  1.1980 -0.4944 -1.2823
 7306TIP3   OH221881   6.441   1.250   5.005 -0.9215 -0.3410  0.1386
 7306TIP3    H121882   6.364   1.288   4.963 -1.2199  1.3103  2.1217
 7306TIP3    H221883   6.514   1.271   4.947 -1.7187 -0.5353 -0.9459
 7307TIP3   OH221884   3.819   3.817   4.062 -0.1708 -0.0395  0.3356
 7307TIP3    H121885   3.896   3.874   4.058  0.1318 -0.4784 -0.1879
 7307TIP3    H221886   3.840   3.752   4.129  0.1303 -0.4685 -0.1718
 7308TIP3   OH221887   6.931   0.899   2.340 -0.1671 -0.2378 -0.9377
 7308TIP3    H121888   7.007   0.866   2.387 -1.0517  1.7243  2.0423
 7308TIP3    H221889   6.878   0.822   2.323  1.3467 -1.3088 -0.9034
 7309TIP3   OH221890   5.714   4.672   3.059 -0.0830 -0.7445 -0.2799
 7309TIP3    H121891   5.654   4.598   3.059 -1.8013  0.6089  0.2127
 7309TIP3    H221892   5.666   4.742   3.013  0.8024  0.6035  0.7891
 7310TIP3   OH221893   5.569   6.090   1.664  0.2841  0.0738 -0.1211
 7310TIP3    H121894   5.486   6.045   1.681  1.4306 -1.9857  0.1556
 7310TIP3    H221895   5.574   6.158   1.731 -1.6653  0.8852 -0.7797
 7311TIP3   OH221896   1.590   6.150   1.980 -0.5690  0.2532 -0.4379
 7311TIP3    H121897   1.611   6.202   1.902  0.4073 -0.6611 -0.8032
 7311TIP3    H221898   1.510   6.189   2.014  0.4654  2.3819 -0.3723
 7312TIP3   OH221899   3.727   1.383   1.118  0.1427 -0.5090  0.1844
 7312TIP3    H121900   3.786   1.333   1.174 -0.3071 -1.0024  0.2158
 7312TIP3    H221901   3.640   1.366   1.153 -0.0869 -0.3605 -0.3105
 7313TIP3   OH221902   6.021   1.467   3.722 -0.0660 -1.0273  0.3721
 7313TIP3    H121903   6.088   1.514   3.672 -0.1670 -0.0006  1.1927
 7313TIP3    H221904   5.963   1.430   3.655 -1.3870  2.0395 -0.2713
 7314TIP3   OH221905   6.122   6.249   4.118 -0.3148  0.8186  0.5481
 7314TIP3    H121906   6.130   6.273   4.210 -1.6793 -0.5606  1.0296
 7314TIP3    H221907   6.129   6.153   4.117  0.6109  0.8820 -0.8798
 7315TIP3   OH221908   2.219   0.442   3.263  0.1796  0.9947  0.0389
 7315TIP3    H121909   2.174   0.402   3.189 -0.2031  1.8038 -0.1712
 7315TIP3    H221910   2.169   0.522   3.282  0.5215  1.0164  0.8939
 7316TIP3   OH221911   0.166   5.919   2.749  0.4655 -0.2295 -0.3159
 7316TIP3    H121912   0.119   5.868   2.683 -0.7373 -1.2074  1.2553
 7316TIP3    H221913   0.111   5.914   2.827  2.1708  0.3463  0.9620
 7317TIP3   OH221914   2.794   5.271   0.056 -0.3697 -0.2605  0.0711
 7317TIP3    H121915   2.843   5.193   0.083  0.0747  0.2908  0.8366
 7317TIP3    H221916   2.703   5.241   0.052  0.0922 -1.4804 -2.0730
 7318TIP3   OH221917   5.112   4.884   2.521  0.0328  0.5541  0.0255
 7318TIP3    H121918   5.156   4.803   2.497 -1.6547 -0.6000  0.7775
 7318TIP3    H221919   5.029   4.882   2.473 -0.1702  1.6878  0.3009
 7319TIP3   OH221920   7.048   0.422   4.191 -0.3400  0.2590 -0.3183
 7319TIP3    H121921   7.029   0.401   4.100  0.9017 -0.4954 -0.4286
 7319TIP3    H221922   7.121   0.363   4.214 -0.5028  0.5825  1.0888
 7320TIP3   OH221923   5.108   6.050   1.858 -0.7654  0.4963  0.1834
 7320TIP3    H121924   5.137   6.083   1.944  0.2172  0.7674 -0.2397
 7320TIP3    H221925   5.044   6.115   1.829 -0.8145  0.6154  0.5438
 7321TIP3   OH221926   0.373   5.543   4.105 -0.0893 -0.0948 -1.2372
 7321TIP3    H121927   0.391   5.491   4.183 -0.1575 -1.3057 -2.0104
 7321TIP3    H221928   0.368   5.634   4.136 -0.2414 -0.5821  0.1752
 7322TIP3   OH221929   5.033   6.196   2.337 -0.2641 -0.0256  0.5333
 7322TIP3    H121930   5.093   6.257   2.379  0.0280  0.8479 -1.0708
 7322TIP3    H221931   5.082   6.115   2.327  0.3568  0.4138  0.0100
 7323TIP3   OH221932   5.922   6.745   1.566 -0.0479 -0.1793 -0.0470
 7323TIP3    H121933   5.866   6.670   1.586  1.1319 -1.2028 -0.5245
 7323TIP3    H221934   5.881   6.818   1.611 -1.7295 -0.9296 -0.3296
 7324TIP3   OH221935   0.266   0.274   5.555 -0.4727  0.0662  0.1909
 7324TIP3    H121936   0.321   0.349   5.576 -0.0085 -0.0120 -0.7152
 7324TIP3    H221937   0.326   0.199   5.558 -0.4207  0.0406 -1.2714
 7325TIP3   OH221938   0.977   0.151   0.153 -0.1675  0.8139  0.1825
 7325TIP3    H121939   0.988   0.111   0.067  1.4447  1.2486  0.1813
 7325TIP3    H221940   0.991   0.244   0.139 -0.9638  1.0162  0.7230
 7326TIP3   OH221941   7.209   6.071   1.880  0.5442 -0.2993 -0.3280
 7326TIP3    H121942   7.262   6.022   1.942  2.6743  1.3545 -0.7850
 7326TIP3    H221943   7.204   6.160   1.917 -0.4471 -0.0031 -1.1563
 7327TIP3   OH221944   5.279   3.517   2.826  0.5516  0.5234 -0.1291
 7327TIP3    H121945   5.229   3.553   2.900 -1.1599  1.4422 -1.7124
 7327TIP3    H221946   5.293   3.425   2.849 -1.2917  0.4149  0.6473
 7328TIP3   OH221947   3.916   2.704   1.104  0.0091  0.2863  0.0700
 7328TIP3    H121948   3.946   2.662   1.023 -1.6745 -0.0050 -0.4328
 7328TIP3    H221949   3.969   2.665   1.173  3.0540  2.1854 -1.1390
 7329TIP3   OH221950   7.197   0.131   5.915 -0.7211  0.3127 -0.6529
 7329TIP3    H121951   7.144   0.123   5.994  0.3949  0.8251  0.1557
 7329TIP3    H221952   7.214   0.225   5.906  0.9644  0.0726 -0.2675
 7330TIP3   OH221953   0.084   1.926   1.706  0.0026  0.3553  0.0574
 7330TIP3    H121954  -0.011   1.928   1.710 -0.1032 -1.4374 -0.7746
 7330TIP3    H221955   0.104   1.928   1.612  0.6949 -1.0497  0.1615
 7331TIP3   OH221956   0.565   0.176   4.570  0.8386 -0.1945 -0.1825
 7331TIP3    H121957   0.506   0.240   4.530 -0.6843 -1.1295  0.5171
 7331TIP3    H221958   0.557   0.098   4.514  0.6589 -0.6437  0.4599
 7332TIP3   OH221959   6.553   5.723   4.860 -0.0019  0.9335 -0.3562
 7332TIP3    H121960   6.540   5.786   4.931 -0.4132  0.8270 -0.3336
 7332TIP3    H221961   6.516   5.767   4.783 -0.2027  0.7574 -0.3590
 7333TIP3   OH221962   4.126   6.215   1.737  0.1115  0.4928 -0.5276
 7333TIP3    H121963   4.205   6.269   1.730 -1.0051  2.0785 -1.3435
 7333TIP3    H221964   4.113   6.180   1.649 -1.4248  2.2267 -1.0263
 7334TIP3   OH221965   5.944   1.743   2.295 -0.6478 -0.1584  0.1354
 7334TIP3    H121966   5.975   1.777   2.379 -2.2525 -0.0814  0.6962
 7334TIP3    H221967   5.906   1.657   2.315 -0.1930 -0.5625 -0.6658
 7335TIP3   OH221968   0.805   0.147   1.947 -0.2417 -0.4224  0.5856
 7335TIP3    H121969   0.756   0.083   1.895  0.5365 -1.5536  1.2087
 7335TIP3    H221970   0.790   0.230   1.903 -3.0004 -0.6696  0.9725
 7336TIP3   OH221971   4.813   5.325   1.887  0.0161 -0.1822  0.2725
 7336TIP3    H121972   4.841   5.243   1.847 -0.8135  0.7428 -2.3142
 7336TIP3    H221973   4.718   5.325   1.880 -0.0183  0.8422  0.5674
 7337TIP3   OH221974   0.708   1.168   5.733  0.3577  0.1225 -0.1630
 7337TIP3    H121975   0.649   1.163   5.658  1.1682  0.5021 -0.8342
 7337TIP3    H221976   0.696   1.257   5.766  0.7229  0.2831 -0.4511
 7338TIP3   OH221977   6.088   5.229   1.995  0.1028 -0.3661 -0.0563
 7338TIP3    H121978   6.149   5.282   2.046  1.2384 -1.6914  0.0010
 7338TIP3    H221979   6.059   5.287   1.924  0.7551  0.5555  0.4216
 7339TIP3   OH221980   3.728   3.626   0.724 -0.2279 -0.2154  0.1302
 7339TIP3    H121981   3.656   3.569   0.698  0.0588  0.8911 -3.2844
 7339TIP3    H221982   3.720   3.703   0.668  3.1672  0.2508  0.1633
 7340TIP3   OH221983   2.741   0.277   1.833  0.2499  0.1025 -0.6887
 7340TIP3    H121984   2.657   0.305   1.870  0.8606 -0.2830  1.0279
 7340TIP3    H221985   2.738   0.306   1.742 -2.0274 -0.5110 -0.8316
 7341TIP3   OH221986   2.175   0.382   4.337  0.3676 -0.0361 -0.0150
 7341TIP3    H121987   2.208   0.437   4.267  0.1278 -0.1360 -0.2065
 7341TIP3    H221988   2.087   0.415   4.355 -0.0590 -0.8218 -0.6270
 7342TIP3   OH221989   6.273   0.307   5.373  0.0259  0.0994 -0.1114
 7342TIP3    H121990   6.262   0.244   5.302  0.1768  0.3970 -0.3971
 7342TIP3    H221991   6.221   0.383   5.347 -1.2697 -0.4316  0.8750
 7343TIP3   OH221992   1.511   0.633   3.527  0.3554 -0.1258  0.4240
 7343TIP3    H121993   1.587   0.595   3.572 -0.7116 -0.6911  1.7946
 7343TIP3    H221994   1.537   0.722   3.506  1.6119 -0.4991  0.3582
 7344TIP3   OH221995   1.780   0.574   2.925 -0.2315  0.2592 -0.5248
 7344TIP3    H121996   1.747   0.493   2.886 -0.7429 -0.7481  1.9360
 7344TIP3    H221997   1.702   0.620   2.956  0.2312  0.5327  0.2576
 7345TIP3   OH221998   0.217   0.721   3.936  0.2493 -0.0521  0.2419
 7345TIP3    H121999   0.254   0.809   3.943  0.1267  0.0491 -0.3017
 7345TIP3    H222000   0.274   0.677   3.872 -1.7434  0.7496 -2.2010
 7346TIP3   OH222001   0.452   1.027   4.230 -0.3310  0.2215 -0.1229
 7346TIP3    H122002   0.458   0.939   4.266  0.3039 -0.0283 -0.8320
 7346TIP3    H222003   0.395   1.074   4.291 -1.3191 -0.8904 -0.1777
 7347TIP3   OH222004   6.341   5.974   3.575  0.0117 -0.1801 -0.0621
 7347TIP3    H122005   6.252   5.961   3.544 -0.3231 -0.1643  0.8977
 7347TIP3    H222006   6.344   6.065   3.604  0.1247 -0.3817  0.5794
 7348TIP3   OH222007   6.208   4.557   5.271  0.2118 -0.4768  0.3794
 7348TIP3    H122008   6.118   4.528   5.254  0.1066  0.4422 -0.6862
 7348TIP3    H222009   6.257   4.476   5.283 -0.9460 -0.9603  1.9919
 7349TIP3   OH222010   5.260   6.817   4.201  0.6781 -0.3464 -0.4092
 7349TIP3    H122011   5.301   6.734   4.226 -0.2506 -0.7053 -0.0643
 7349TIP3    H222012   5.333   6.878   4.191  1.2942 -0.9750  0.2185
 7350TIP3   OH222013   6.515   6.328   3.986 -0.3342  0.5069  0.7809
 7350TIP3    H122014   6.564   6.392   4.037  0.7761 -0.2536  0.6993
 7350TIP3    H222015   6.443   6.377   3.947  1.1797  1.9295 -0.2235
 7351TIP3   OH222016   7.078   5.985   3.468  0.4317 -0.0529  0.0135
 7351TIP3    H122017   7.074   5.894   3.497  2.1087 -0.2012 -0.1900
 7351TIP3    H222018   7.094   6.035   3.548  1.7350 -0.1498 -0.1839
 7352TIP3   OH222019   5.853   4.551   4.009 -0.0634 -0.1624 -0.4999
 7352TIP3    H122020   5.890   4.551   3.920  1.3564 -1.2658  0.0612
 7352TIP3    H222021   5.794   4.476   4.011  1.7306 -1.5974  0.1816
 7353TIP3   OH222022   6.329   5.820   3.811  0.1440  0.4408 -0.6438
 7353TIP3    H122023   6.237   5.842   3.825 -0.1887 -0.6596 -1.0626
 7353TIP3    H222024   6.358   5.881   3.743 -0.2731  0.8075 -0.4926
 7354TIP3   OH222025   0.408   0.135   2.251  0.2494 -0.0535  0.0178
 7354TIP3    H122026   0.454   0.191   2.313 -0.7902  0.9258 -0.0803
 7354TIP3    H222027   0.371   0.065   2.305  2.2758 -1.1612  0.0250
 7355TIP3   OH222028   5.773   6.199   2.982  0.2434 -0.3023 -0.0782
 7355TIP3    H122029   5.692   6.188   3.032 -0.9524 -0.7678 -2.0658
 7355TIP3    H222030   5.784   6.294   2.976 -0.5284 -0.2328 -0.3989
 7356TIP3   OH222031   4.261   6.371   0.529  0.0872 -0.0722 -0.1059
 7356TIP3    H122032   4.277   6.292   0.580  0.0387 -1.6260 -2.4537
 7356TIP3    H222033   4.165   6.379   0.528  0.0191 -0.9812 -1.3468
 7357TIP3   OH222034   7.331   0.426   2.465  0.4629  0.0012 -0.4109
 7357TIP3    H122035   7.421   0.432   2.435 -0.0184 -0.6290 -2.0459
 7357TIP3    H222036   7.308   0.333   2.454 -0.3658  0.1410  0.0317
 7358TIP3   OH222037   7.360   5.237   2.676  0.2644 -0.0428  0.3086
 7358TIP3    H122038   7.395   5.234   2.587 -1.1757 -1.4258 -0.2283
 7358TIP3    H222039   7.414   5.174   2.725  1.5635  1.2893  0.6233
 7359TIP3   OH222040   4.455   6.274   2.742  0.0258 -0.0835  0.0528
 7359TIP3    H122041   4.432   6.182   2.757 -0.9048  0.3545  1.4312
 7359TIP3    H222042   4.383   6.309   2.690 -0.7909  0.4422  1.5129
 7360TIP3   OH222043   1.898   0.384   1.969  0.1016  0.1357  0.4935
 7360TIP3    H122044   1.953   0.375   2.046  0.7824  0.7941  0.0976
 7360TIP3    H222045   1.838   0.456   1.990 -0.1698 -0.1384  0.6666
 7361TIP3   OH222046   0.360   5.445   3.523 -0.2002  0.1247  0.2446
 7361TIP3    H122047   0.388   5.364   3.564  0.0272 -0.3568 -0.8366
 7361TIP3    H222048   0.265   5.446   3.535 -0.2250 -0.3944  0.0934
 7362TIP3   OH222049   1.534   0.248   4.753  0.0320 -0.1822 -0.3845
 7362TIP3    H122050   1.440   0.254   4.738  0.1381 -0.5787 -1.2218
 7362TIP3    H222051   1.545   0.168   4.805 -0.1595  0.2328  0.2965
 7363TIP3   OH222052   0.119   5.175   1.702  0.4012 -0.2672  0.7079
 7363TIP3    H122053   0.192   5.155   1.760  0.0492 -1.9013  0.6159
 7363TIP3    H222054   0.159   5.218   1.627  0.8897  1.6823  2.0332
 7364TIP3   OH222055   5.295   6.207   4.769  0.2714  0.2229  0.1520
 7364TIP3    H122056   5.359   6.137   4.783  0.4984  0.3835 -0.0766
 7364TIP3    H222057   5.323   6.250   4.688 -1.7073 -1.4427 -1.4621
 7365TIP3   OH222058   0.535   2.014   5.198  0.1951  0.6497  0.1104
 7365TIP3    H122059   0.467   1.951   5.177  1.3599 -0.4078 -0.5401
 7365TIP3    H222060   0.604   1.963   5.240  1.7472  1.2177 -1.6484
 7366TIP3   OH222061   4.761   6.956   4.109  0.3583  0.2918  0.3262
 7366TIP3    H122062   4.707   6.963   4.031  0.4695  0.8145  0.2992
 7366TIP3    H222063   4.847   6.929   4.076 -0.1077 -1.4506  0.4489
 7367TIP3   OH222064   7.083   5.009   2.355 -0.0339  0.0686  0.2399
 7367TIP3    H122065   7.141   4.936   2.377  0.7821  0.4596 -0.5607
 7367TIP3    H222066   7.142   5.077   2.323 -0.9978  0.2069 -1.2764
 7368TIP3   OH222067   0.204   0.445   2.683  0.1513 -0.3457 -0.3068
 7368TIP3    H122068   0.125   0.477   2.726  0.1407 -0.2441 -0.4022
 7368TIP3    H222069   0.261   0.522   2.677  0.8604 -0.7449  1.1241
 7369TIP3   OH222070   4.698   6.766   4.956  0.4298  0.6481 -0.3013
 7369TIP3    H122071   4.606   6.742   4.958  0.5419  0.2599  0.5638
 7369TIP3    H222072   4.699   6.861   4.947 -0.1145  1.0123  2.7292
 7370TIP3   OH222073   6.923   4.334   4.456  0.1943 -0.1480 -0.5766
 7370TIP3    H122074   6.902   4.360   4.367  0.4295 -0.2065 -0.6483
 7370TIP3    H222075   6.936   4.239   4.452  1.7464  0.0657 -0.7799
 7371TIP3   OH222076   6.522   6.333   2.769  0.7559 -0.5144  0.9844
 7371TIP3    H122077   6.427   6.331   2.780  0.6417  0.8850  0.3046
 7371TIP3    H222078   6.546   6.242   2.749 -0.7577 -0.4612 -1.3125
 7372TIP3   OH222079   3.398   4.256   3.136  0.1236  0.0078  0.4220
 7372TIP3    H122080   3.314   4.299   3.153  0.9431  1.3499  1.1124
 7372TIP3    H222081   3.412   4.200   3.213 -1.1099 -1.8182 -0.6363
 7373TIP3   OH222082   5.990   5.316   3.831  0.4195  0.1376 -0.7939
 7373TIP3    H122083   5.897   5.315   3.850  0.4167 -0.5992 -0.8378
 7373TIP3    H222084   6.027   5.376   3.895 -0.3087  1.7187 -1.8242
 7374TIP3   OH222085   5.057   5.624   1.632  0.3322 -0.7582  0.5726
 7374TIP3    H122086   5.116   5.590   1.564 -0.0338 -0.8070  0.2810
 7374TIP3    H222087   5.057   5.719   1.619  0.5615 -0.7350  0.7450
 7375TIP3   OH222088   1.085   0.655   4.058 -0.3069 -0.0589  0.0591
 7375TIP3    H122089   1.107   0.567   4.087 -1.2306 -1.0613 -2.1839
 7375TIP3    H222090   1.153   0.711   4.096 -0.0788 -1.6247  2.0325
 7376TIP3   OH222091   0.970   0.100   4.743 -0.0378  0.1655  0.3780
 7376TIP3    H122092   1.007   0.188   4.746 -2.5885  1.2534  1.5772
 7376TIP3    H222093   0.894   0.108   4.686 -0.8053 -1.0444  1.2144
 7377TIP3   OH222094   0.071   6.266   4.054  0.0051  0.4917 -0.2696
 7377TIP3    H122095  -0.005   6.307   4.094 -0.1100  0.5878 -0.5849
 7377TIP3    H222096   0.080   6.310   3.969  0.1998  0.2348 -0.3817
 7378TIP3   OH222097   6.801   0.182   3.863  0.3745 -0.5061 -0.1549
 7378TIP3    H122098   6.866   0.117   3.890  0.2593 -1.1383 -1.3761
 7378TIP3    H222099   6.821   0.200   3.771  0.0709  0.7940  0.0238
 7379TIP3   OH222100   6.198   5.465   2.103  0.1934  0.5523 -0.2040
 7379TIP3    H122101   6.210   5.553   2.138 -2.7530 -0.0371  2.5468
 7379TIP3    H222102   6.146   5.420   2.169 -0.5036 -2.4905 -2.6970
 7380TIP3   OH222103   4.284   6.715   2.672  0.2488 -0.1113 -0.1342
 7380TIP3    H122104   4.326   6.795   2.702  0.0663 -0.0355 -0.0769
 7380TIP3    H222105   4.203   6.745   2.630  0.5671 -0.2031 -0.8248
 7381TIP3   OH222106   5.856   6.160   3.520  0.3039  0.1270  0.1247
 7381TIP3    H122107   5.900   6.075   3.519  0.4986  0.1990  1.3392
 7381TIP3    H222108   5.888   6.205   3.442  3.1929  0.5371  1.4470
 7382TIP3   OH222109   0.673   2.610   3.193 -0.7899  0.1619  0.0778
 7382TIP3    H122110   0.671   2.641   3.283  1.6983 -1.3576  0.7221
 7382TIP3    H222111   0.652   2.516   3.200  1.3764 -0.4070 -0.6509
 7383TIP3   OH222112   6.510   6.869   2.229  0.5600 -0.4409  0.1144
 7383TIP3    H122113   6.596   6.889   2.267  0.4986  0.3382 -0.1360
 7383TIP3    H222114   6.448   6.893   2.298  0.3687  2.3523 -0.9375
 7384TIP3   OH222115   6.491   0.980   4.095  0.0667 -0.2893  0.2406
 7384TIP3    H122116   6.458   0.964   4.183  0.3263  0.6738  0.5226
 7384TIP3    H222117   6.420   0.953   4.037 -0.3113 -0.4153  0.7638
 7385TIP3   OH222118   6.900   4.075   3.670 -0.6161  0.3838  0.2609
 7385TIP3    H122119   6.832   4.131   3.633  0.4037  0.1216 -2.0470
 7385TIP3    H222120   6.905   4.000   3.611 -0.9208 -1.4711  2.4910
 7386TIP3   OH222121   5.183   5.811   2.715 -0.3206  0.0818 -0.5798
 7386TIP3    H122122   5.269   5.849   2.699  0.8068 -2.1336  0.1223
 7386TIP3    H222123   5.122   5.881   2.691  1.6797  2.2091  0.3652
 7387TIP3   OH222124   5.897   6.490   3.552 -0.0935  0.9997  0.3106
 7387TIP3    H122125   5.818   6.534   3.521 -0.2075 -1.1182 -2.6652
 7387TIP3    H222126   5.899   6.507   3.646 -4.4584  0.5707  0.5828
 7388TIP3   OH222127   6.702   5.723   1.906 -0.0046 -0.2836 -0.0206
 7388TIP3    H122128   6.672   5.640   1.943 -2.2540  0.2069 -0.6882
 7388TIP3    H222129   6.756   5.762   1.976 -2.1684 -0.4966  1.8314
 7389TIP3   OH222130   0.161   6.673   1.475 -0.3107  0.2618 -0.0091
 7389TIP3    H122131   0.100   6.668   1.548 -0.2825 -0.1515 -0.0093
 7389TIP3    H222132   0.105   6.685   1.398 -0.4365 -0.7476 -0.0812
 7390TIP3   OH222133   2.100   0.438   4.024 -0.0326  0.1368 -0.0449
 7390TIP3    H122134   2.050   0.464   3.946  0.7938 -2.5728 -1.5060
 7390TIP3    H222135   2.186   0.413   3.991  0.0276 -1.9524  1.6152
 7391TIP3   OH222136   4.060   0.367   1.525  0.2160 -0.3511  0.1697
 7391TIP3    H122137   4.027   0.457   1.528  0.8466 -0.1539  1.7596
 7391TIP3    H222138   3.988   0.316   1.488 -1.0208  0.4350  1.4365
 7392TIP3   OH222139   7.070   5.168   2.600  0.0210  0.1173 -0.6169
 7392TIP3    H122140   7.157   5.152   2.636 -0.1100 -0.5588 -0.6026
 7392TIP3    H222141   7.081   5.161   2.505  0.2437  1.3191 -0.6958
 7393TIP3   OH222142   3.846   4.142   2.568 -0.2477  0.6856 -0.1969
 7393TIP3    H122143   3.881   4.057   2.544 -2.1104  0.3212 -1.7304
 7393TIP3    H222144   3.801   4.127   2.651 -0.8548  0.0957 -0.6302
 7394TIP3   OH222145   6.398   5.111   2.451  0.1618 -0.3303  0.2344
 7394TIP3    H122146   6.422   5.073   2.366 -0.6789 -0.1029 -0.1156
 7394TIP3    H222147   6.417   5.204   2.441 -0.5479 -0.1983  0.0611
 7395TIP3   OH222148   5.209   5.239   2.675  0.1442 -0.4130  0.1216
 7395TIP3    H122149   5.186   5.226   2.583 -0.3247 -1.3012  0.3545
 7395TIP3    H222150   5.305   5.244   2.675  0.1268 -0.0087 -0.4614
 7396TIP3   OH222151   6.554   6.550   1.319  0.1684 -0.1931 -0.1506
 7396TIP3    H122152   6.648   6.564   1.331  0.1061  0.0760  0.0059
 7396TIP3    H222153   6.544   6.535   1.225  0.2747  0.4725 -0.2649
 7397TIP3   OH222154   4.007   5.028   2.151 -0.0870 -0.0765 -0.1357
 7397TIP3    H122155   3.931   4.997   2.201 -0.0920 -1.5519 -1.0144
 7397TIP3    H222156   3.999   4.985   2.066  1.7301 -0.2506 -0.2449
 7398TIP3   OH222157   4.232   5.249   2.169  0.1086 -0.3079  0.3717
 7398TIP3    H122158   4.240   5.203   2.253  0.3012 -2.1938 -0.6579
 7398TIP3    H222159   4.184   5.188   2.113  0.9861  0.4740 -1.2418
 7399TIP3   OH222160   1.034   0.041   2.103  0.6436  0.5035  0.0512
 7399TIP3    H122161   0.978   0.098   2.051  2.3562  2.3354  0.1633
 7399TIP3    H222162   1.119   0.043   2.059  2.2458  2.4007  3.0270
 7400TIP3   OH222163   6.372   5.002   5.097 -0.6630 -0.0002  0.6136
 7400TIP3    H122164   6.466   4.989   5.083 -0.7848  0.7713 -1.1561
 7400TIP3    H222165   6.366   5.050   5.179  0.4961 -0.1067  0.7680
 7401TIP3   OH222166   6.096   4.949   4.465 -0.2126  0.1702 -0.1565
 7401TIP3    H122167   6.062   5.017   4.524 -0.0284  1.0234 -1.0282
 7401TIP3    H222168   6.184   4.978   4.443  0.3594 -1.0203  0.4902
 7402TIP3   OH222169   3.496   6.631   2.621 -0.3272  0.1212  0.2389
 7402TIP3    H122170   3.545   6.667   2.695 -0.0976  0.5738 -0.1325
 7402TIP3    H222171   3.544   6.660   2.543  0.1038 -1.3494 -0.0541
 7403TIP3   OH222172   1.074   0.655   3.191  0.3707  0.9927  0.0804
 7403TIP3    H122173   1.101   0.660   3.283  1.8397 -0.2828 -0.2723
 7403TIP3    H222174   1.063   0.562   3.174 -0.8559  1.2745 -0.7936
 7404TIP3   OH222175   0.186   0.844   1.522  0.2413  0.4664  0.2265
 7404TIP3    H122176   0.197   0.928   1.479 -5.5574  1.6383  0.6466
 7404TIP3    H222177   0.150   0.865   1.608  0.3752 -2.3919  1.0530
 7405TIP3   OH222178   2.093   4.602   3.795 -0.1428 -0.0979 -0.3086
 7405TIP3    H122179   2.064   4.648   3.717  0.7962 -1.2667 -1.3713
 7405TIP3    H222180   2.036   4.634   3.865  0.0286  2.1275 -1.1439
 7406TIP3   OH222181   6.975   5.133   1.276  0.3128  0.2474 -0.3785
 7406TIP3    H122182   7.012   5.201   1.220  2.0861  0.6317  1.2311
 7406TIP3    H222183   7.033   5.058   1.264 -0.5884 -0.3983 -0.7503
 7407TIP3   OH222184   0.935   0.896   2.733 -0.1535 -0.1289  0.0657
 7407TIP3    H122185   0.994   0.842   2.681 -1.1731 -1.0715 -0.1339
 7407TIP3    H222186   0.934   0.854   2.819  1.2059  1.1861  0.7470
 7408TIP3   OH222187   7.109   6.526   1.587  0.0504 -0.3506 -0.1131
 7408TIP3    H122188   7.077   6.554   1.501 -2.2980 -0.8990  0.5333
 7408TIP3    H222189   7.062   6.582   1.649 -0.7203 -2.1371  0.9499
 7409TIP3   OH222190   2.301   5.045   2.427  0.5208 -0.2805  0.7860
 7409TIP3    H122191   2.364   5.094   2.373  0.3238 -1.2657 -0.3780
 7409TIP3    H222192   2.322   4.953   2.410  0.3345 -0.6058  2.2821
 7410TIP3   OH222193   0.261   6.280   2.559 -0.6775 -0.1907  0.6077
 7410TIP3    H122194   0.324   6.208   2.555 -0.4498  0.0659 -0.5386
 7410TIP3    H222195   0.179   6.243   2.526 -0.7369 -0.1193  0.6743
 7411TIP3   OH222196   1.407   1.401   2.942  0.2076  0.6654  0.3062
 7411TIP3    H122197   1.319   1.415   2.975 -0.6116 -0.4667 -1.3015
 7411TIP3    H222198   1.459   1.378   3.019 -1.0391  0.7625  1.1837
 7412TIP3   OH222199   6.592   6.216   0.798  0.1827  0.0418  0.2616
 7412TIP3    H122200   6.663   6.175   0.749  1.8111 -0.0810  2.6738
 7412TIP3    H222201   6.612   6.310   0.795  0.6528 -0.0243  1.2442
 7413TIP3   OH222202   5.501   6.159   0.742  0.2097  0.0194 -0.2877
 7413TIP3    H122203   5.589   6.126   0.758 -0.2879 -1.2472 -0.1803
 7413TIP3    H222204   5.486   6.143   0.649  0.4229  1.0592 -0.5148
 7414TIP3   OH222205   7.359   5.229   2.015 -1.2113 -0.8028 -0.3707
 7414TIP3    H122206   7.420   5.298   2.039 -0.6976 -1.4017  0.0485
 7414TIP3    H222207   7.354   5.234   1.919 -1.1507 -0.2168 -0.3453
 7415TIP3   OH222208   6.605   5.512   0.727  0.1616  0.2167  0.0744
 7415TIP3    H122209   6.552   5.437   0.702 -1.8317  1.7764 -0.4948
 7415TIP3    H222210   6.666   5.523   0.654  0.2658 -0.6581  0.0264
 7416TIP3   OH222211   6.316   6.501   3.349  0.5545  0.3186  0.8288
 7416TIP3    H122212   6.362   6.475   3.269  0.4534  2.1840  0.1447
 7416TIP3    H222213   6.224   6.484   3.330  0.7865 -2.2544  1.7525
 7417TIP3   OH222214   6.816   6.358   0.488  0.2165 -0.2899 -0.0275
 7417TIP3    H122215   6.723   6.377   0.472  0.6755  0.3414 -1.9662
 7417TIP3    H222216   6.815   6.301   0.566 -1.7394  0.2633  0.3798
 7418TIP3   OH222217   1.048   5.237   4.163 -0.1740 -0.0762 -0.1555
 7418TIP3    H122218   0.955   5.218   4.153 -0.0566 -0.6146 -0.2101
 7418TIP3    H222219   1.069   5.296   4.090  0.1379 -2.1057 -1.7636
 7419TIP3   OH222220   6.220   5.348   2.883  0.1047  0.1349 -0.4758
 7419TIP3    H122221   6.147   5.402   2.853  0.9011  1.2819 -0.4062
 7419TIP3    H222222   6.216   5.269   2.829 -2.4423 -0.7787  0.9591
 7420TIP3   OH222223   2.418   4.028   3.517  0.4570 -0.4222  0.0934
 7420TIP3    H122224   2.373   4.070   3.444 -0.8863  0.5326  1.4260
 7420TIP3    H222225   2.511   4.038   3.496  0.1169  0.8419 -0.9443
 7421TIP3   OH222226   3.642   0.378   4.255 -0.3771  0.5567  0.4154
 7421TIP3    H122227   3.582   0.349   4.186  1.0848 -1.2382 -0.1409
 7421TIP3    H222228   3.585   0.420   4.320 -2.3395 -1.6833  0.2272
 7422TIP3   OH222229   0.195   0.301   0.007  0.5565  0.7341 -0.1512
 7422TIP3    H122230   0.108   0.306  -0.031  0.1446  0.7861  0.7891
 7422TIP3    H222231   0.184   0.249   0.086  1.5957 -0.2258 -0.6244
 7423TIP3   OH222232   0.955   6.268   5.045  0.6543  0.4248  0.0835
 7423TIP3    H122233   0.952   6.195   4.984  0.7019  0.7815 -0.3526
 7423TIP3    H222234   0.966   6.345   4.989 -0.4016  0.8670  0.4649
 7424TIP3   OH222235   7.059   5.634   2.831  0.2031 -0.5713 -0.0471
 7424TIP3    H122236   7.038   5.541   2.817 -1.3387 -0.1564 -0.5986
 7424TIP3    H222237   7.029   5.677   2.751  3.8216  0.0031 -1.1695
 7425TIP3   OH222238   0.666   5.646   3.655  0.3023  0.0008  0.3534
 7425TIP3    H122239   0.646   5.701   3.579 -2.6022 -1.8234 -0.3117
 7425TIP3    H222240   0.751   5.607   3.635 -0.0313  0.1994 -1.5795
 7426TIP3   OH222241   4.643   0.698   2.588 -0.0708  0.4979  0.2804
 7426TIP3    H122242   4.614   0.690   2.679  1.1940  0.5098  0.6892
 7426TIP3    H222243   4.647   0.608   2.556 -2.0975  0.5823 -0.2814
 7427TIP3   OH222244   1.276   5.468   3.058 -0.1115 -0.1318  0.1604
 7427TIP3    H122245   1.291   5.380   3.024 -0.0187  0.2142 -0.7181
 7427TIP3    H222246   1.323   5.525   2.997  0.6472  0.4541  1.2767
 7428TIP3   OH222247   4.631   0.228   5.269  0.5319 -0.4904 -0.3110
 7428TIP3    H122248   4.703   0.235   5.207 -0.0389  1.1919 -0.8156
 7428TIP3    H222249   4.657   0.158   5.329  2.9656  0.6843  0.0612
 7429TIP3   OH222250   0.651   6.228   3.395  0.6488 -0.1211 -0.2315
 7429TIP3    H122251   0.693   6.195   3.315 -0.1670  0.9200 -1.1093
 7429TIP3    H222252   0.583   6.164   3.415 -0.3011  0.5056 -1.3843
 7430TIP3   OH222253   5.144   3.091   0.571 -0.1989 -0.1367  0.2104
 7430TIP3    H122254   5.092   3.115   0.648 -0.5757 -1.9056  0.5342
 7430TIP3    H222255   5.170   3.000   0.588  0.6193 -0.1797 -1.2577
 7431TIP3   OH222256   1.904   5.927   4.998  0.4267  0.0111 -0.3525
 7431TIP3    H122257   1.839   5.932   5.069  0.4367 -1.2070 -0.2503
 7431TIP3    H222258   1.985   5.900   5.042  1.3224  2.5693 -0.2988
 7432TIP3   OH222259   1.025   5.904   5.349 -0.2146  0.4159 -0.3758
 7432TIP3    H122260   1.071   5.877   5.428 -1.9851  1.8343  1.1961
 7432TIP3    H222261   0.970   5.829   5.326 -2.0198  1.1141  1.5648
 7433TIP3   OH222262   5.860   1.398   3.504 -0.7563 -0.0065 -0.3548
 7433TIP3    H122263   5.804   1.474   3.516  0.2732  0.4034  2.2118
 7433TIP3    H222264   5.899   1.410   3.418  0.0348  2.8114  0.3446
 7434TIP3   OH222265   0.929   6.153   4.315 -0.0700 -0.2082 -0.3410
 7434TIP3    H122266   0.958   6.064   4.296 -0.4823 -0.3761 -0.1817
 7434TIP3    H222267   0.887   6.183   4.235 -2.6250 -1.2448  0.5727
 7435TIP3   OH222268   3.893   1.272   4.045  0.1440 -0.5193 -0.1528
 7435TIP3    H122269   3.879   1.321   3.964  1.6115 -0.9985 -0.7075
 7435TIP3    H222270   3.880   1.337   4.114 -0.7448 -0.0199 -0.7703
 7436TIP3   OH222271   4.432   1.420   3.742 -0.8572 -0.3711  0.3732
 7436TIP3    H122272   4.490   1.362   3.692 -1.0867 -0.2811  0.0043
 7436TIP3    H222273   4.394   1.479   3.677 -0.9181 -0.0494  0.6944
 7437TIP3   OH222274   5.203   1.642   3.179 -0.4850  0.4828  0.1577
 7437TIP3    H122275   5.185   1.549   3.162 -3.3547  1.1545 -0.9126
 7437TIP3    H222276   5.179   1.654   3.271 -2.1678  0.5606 -0.2607
 7438TIP3   OH222277   5.230   1.947   4.630 -0.2979 -0.2205 -0.1709
 7438TIP3    H122278   5.212   1.981   4.542  1.2942  1.3143  0.0665
 7438TIP3    H222279   5.190   2.011   4.689  0.4461 -0.1561  0.2600
 7439TIP3   OH222280   2.600   1.418   1.950 -0.1238 -0.0883  0.3794
 7439TIP3    H122281   2.533   1.477   1.914  1.5853  0.4735 -2.0421
 7439TIP3    H222282   2.564   1.389   2.034 -2.4743  1.8118  0.0972
 7440TIP3   OH222283   4.152   0.911   2.467  0.5038  0.8230 -0.1579
 7440TIP3    H122284   4.107   0.964   2.401  0.8713  0.0893 -1.0020
 7440TIP3    H222285   4.241   0.902   2.433  0.2082 -1.1015 -0.4789
 7441TIP3   OH222286   6.189   0.507   3.216  0.4885 -0.6946  0.3843
 7441TIP3    H122287   6.261   0.558   3.253  2.3816 -2.0048 -1.3728
 7441TIP3    H222288   6.209   0.417   3.242 -1.2953 -0.8962  1.0777
 7442TIP3   OH222289   3.770   1.349   3.523  0.1029 -0.0408 -0.4855
 7442TIP3    H122290   3.692   1.329   3.575 -0.3331  1.3812 -0.5742
 7442TIP3    H222291   3.755   1.304   3.440 -1.5441  1.7896 -1.2223
 7443TIP3   OH222292   1.382   5.485   4.886  0.1867  0.8003 -0.3139
 7443TIP3    H122293   1.365   5.434   4.807  0.3882  0.5949 -0.2232
 7443TIP3    H222294   1.301   5.536   4.899  0.7125  1.9905 -1.5094
 7444TIP3   OH222295   5.916   2.403   4.433  0.0942  0.4404  0.0946
 7444TIP3    H122296   5.941   2.311   4.447 -1.0198 -0.1228 -1.5400
 7444TIP3    H222297   5.877   2.404   4.346  0.2443  2.5107  0.0459
 7445TIP3   OH222298   5.895   4.196   0.973 -0.4350  0.3932  0.1338
 7445TIP3    H122299   5.830   4.138   0.934  1.0390 -1.5249  0.4434
 7445TIP3    H222300   5.902   4.167   1.064  3.4801 -1.8969 -0.8037
 7446TIP3   OH222301   5.347   0.364   3.701  0.0281 -0.4375 -0.0614
 7446TIP3    H122302   5.279   0.322   3.753  1.7669  0.0692  2.7081
 7446TIP3    H222303   5.387   0.292   3.652 -0.3827 -1.2360  0.7631
 7447TIP3   OH222304   4.808   6.040   3.889 -0.2008 -0.3555 -0.2944
 7447TIP3    H122305   4.868   5.978   3.847  1.4072  0.6595  0.4423
 7447TIP3    H222306   4.841   6.048   3.979 -2.2456 -0.7761  0.5094
 7448TIP3   OH222307   4.455   5.427   1.985 -0.5267  0.3078 -0.2890
 7448TIP3    H122308   4.513   5.499   2.007 -0.7588  0.5227 -0.3761
 7448TIP3    H222309   4.369   5.468   1.972 -0.3022  0.2456 -2.0319
 7449TIP3   OH222310   7.349   2.203   2.659 -0.2259  0.1015 -0.5686
 7449TIP3    H122311   7.326   2.263   2.588 -0.4366 -0.5749 -1.0816
 7449TIP3    H222312   7.265   2.172   2.693 -0.1261  0.6443  0.1685
 7450TIP3   OH222313   2.321   6.887   4.481 -0.0402 -0.3019 -0.1163
 7450TIP3    H122314   2.403   6.853   4.444 -0.1276 -0.8824  0.2173
 7450TIP3    H222315   2.318   6.978   4.452  0.7745 -0.2482 -0.0572
 7451TIP3   OH222316   5.820   0.716   2.876 -0.1426  0.1366 -0.4030
 7451TIP3    H122317   5.872   0.727   2.796  1.0331 -3.9372 -0.3297
 7451TIP3    H222318   5.863   0.772   2.940  0.4742  1.4660 -1.9519
 7452TIP3   OH222319   5.374   6.116   2.459  0.2592  0.2826 -0.6965
 7452TIP3    H122320   5.327   6.197   2.436  0.9721  0.6848 -0.7560
 7452TIP3    H222321   5.367   6.061   2.381 -0.6339  0.0953 -0.4883
 7453TIP3   OH222322   4.948   0.117   3.236 -0.1294 -0.2113 -0.4413
 7453TIP3    H122323   4.855   0.121   3.214 -0.0086  0.1671 -0.8813
 7453TIP3    H222324   4.978   0.034   3.199 -0.0948  0.0723 -1.0487
 7454TIP3   OH222325   3.882   5.933   1.047  0.2255  0.8769 -0.5615
 7454TIP3    H122326   3.881   5.912   0.954  1.0803  1.8142 -0.7932
 7454TIP3    H222327   3.790   5.948   1.069 -0.1567 -0.8775 -0.8854
 7455TIP3   OH222328   6.002   5.949   1.129 -0.1208  0.2957 -0.6673
 7455TIP3    H122329   6.064   5.876   1.125  0.3501  0.7457 -1.4572
 7455TIP3    H222330   5.916   5.906   1.142  0.4718 -0.2793  1.7399
 7456TIP3   OH222331   5.291   1.462   5.381  0.2309  0.2636 -0.2094
 7456TIP3    H122332   5.288   1.370   5.405  1.9810  0.2064 -0.1120
 7456TIP3    H222333   5.356   1.467   5.311 -0.4939  1.2933 -0.8279
 7457TIP3   OH222334   4.773   0.329   3.843 -0.3195  0.5200 -0.4763
 7457TIP3    H122335   4.792   0.397   3.779  2.5591  0.2751  0.0718
 7457TIP3    H222336   4.720   0.265   3.795 -0.9988  1.9381 -1.6542
 7458TIP3   OH222337   3.036   6.432   1.488  0.1768  0.3169 -0.0250
 7458TIP3    H122338   2.944   6.455   1.500 -0.0002 -1.3716  2.0207
 7458TIP3    H222339   3.034   6.350   1.438  0.6655  1.4537 -1.9791
 7459TIP3   OH222340   3.965   6.936   1.564  0.5668  0.0446 -0.0042
 7459TIP3    H122341   3.897   7.003   1.573  0.8433  0.5799 -1.8283
 7459TIP3    H222342   3.918   6.853   1.576 -0.6090  0.3599 -2.2376
 7460TIP3   OH222343   3.451   2.598   6.022 -0.6913  0.1903  0.1686
 7460TIP3    H122344   3.466   2.691   6.005  0.3331  0.3912  1.9942
 7460TIP3    H222345   3.531   2.569   6.065  0.1289 -2.2236 -2.8450
 7461TIP3   OH222346   6.905   1.768   2.613 -0.0450  0.0035 -0.0051
 7461TIP3    H122347   6.960   1.820   2.554  1.7544 -1.9763 -0.1057
 7461TIP3    H222348   6.900   1.821   2.693  1.0054  0.7680 -0.4260
 7462TIP3   OH222349   4.835   6.740   1.776  0.1579 -0.0983 -0.1212
 7462TIP3    H122350   4.910   6.796   1.756  0.9867 -0.0501  2.8345
 7462TIP3    H222351   4.874   6.656   1.802 -0.8719 -0.5578 -0.0327
 7463TIP3   OH222352   3.847   4.463   5.577  0.6878  0.5552 -0.1355
 7463TIP3    H122353   3.797   4.425   5.505 -0.7175  0.5142  0.8283
 7463TIP3    H222354   3.824   4.408   5.653  3.8334 -0.7971 -0.0595
 7464TIP3   OH222355   4.063   6.216   2.224  0.2482 -0.4265 -0.6774
 7464TIP3    H122356   4.090   6.127   2.201 -0.0326 -0.5884 -0.3898
 7464TIP3    H222357   4.144   6.261   2.248  0.5053 -0.3426 -1.6770
 7465TIP3   OH222358   4.482   6.883   3.698 -0.4976  0.1472 -0.1693
 7465TIP3    H122359   4.398   6.911   3.662 -2.4093 -1.3379  2.8564
 7465TIP3    H222360   4.500   6.800   3.654 -1.0868  0.0062 -0.1473
 7466TIP3   OH222361   3.449   6.375   2.568 -0.1438  0.0514  0.2767
 7466TIP3    H122362   3.526   6.322   2.546 -0.6190 -0.0197 -1.3013
 7466TIP3    H222363   3.483   6.464   2.577  0.1823 -0.0396 -0.0236
 7467TIP3   OH222364   2.251   3.913   0.086  0.2874  0.2498  0.5827
 7467TIP3    H122365   2.225   3.985   0.029 -0.6434  2.4916  3.7699
 7467TIP3    H222366   2.186   3.845   0.070  1.4622 -0.1984 -2.8249
 7468TIP3   OH222367   5.582   5.252   0.764  0.1877 -0.2065  0.7100
 7468TIP3    H122368   5.548   5.217   0.681  1.9855 -0.2466 -0.0241
 7468TIP3    H222369   5.604   5.175   0.816  0.8287 -0.1856  0.4760
 7469TIP3   OH222370   7.119   0.098   3.689  0.3708  0.1525  0.4467
 7469TIP3    H122371   7.210   0.070   3.700 -0.5288 -2.8730  0.6938
 7469TIP3    H222372   7.070   0.016   3.678 -2.2371  1.7637 -0.3360
 7470TIP3   OH222373   0.740   1.590   3.100  0.1649  0.4134 -0.1002
 7470TIP3    H122374   0.744   1.588   3.196  0.4822  3.7101  0.0103
 7470TIP3    H222375   0.712   1.502   3.076 -1.4569 -0.0470  3.1046
 7471TIP3   OH222376   6.194   6.642   4.916  0.4738 -0.4133  1.0954
 7471TIP3    H122377   6.281   6.614   4.890  0.3834 -0.8243  1.2317
 7471TIP3    H222378   6.136   6.605   4.850  0.5079  0.8128  0.3576
 7472TIP3   OH222379   5.031   6.920   1.770  0.4063  0.6925  0.0288
 7472TIP3    H122380   5.122   6.904   1.744  0.2758  2.0673 -1.3423
 7472TIP3    H222381   5.030   7.011   1.799 -0.7224  0.9619 -0.8282
 7473TIP3   OH222382   6.722   1.620   1.341  0.0665 -0.1665 -0.4543
 7473TIP3    H122383   6.790   1.666   1.292  0.3199 -0.9971 -0.9037
 7473TIP3    H222384   6.640   1.648   1.301  0.3576 -2.3026 -2.6870
 7474TIP3   OH222385   6.741   0.011   3.536  0.3484 -0.2441 -0.6611
 7474TIP3    H122386   6.670  -0.024   3.590  0.8205 -1.2577 -0.6858
 7474TIP3    H222387   6.699   0.032   3.452 -0.6928  2.7036  0.5290
 7475TIP3   OH222388   0.558   0.117   2.599 -0.0996  0.1069  0.3384
 7475TIP3    H122389   0.579   0.026   2.619 -1.0437 -0.3714 -0.7962
 7475TIP3    H222390   0.464   0.124   2.615  0.0830  1.0771  1.0950
 7476TIP3   OH222391   6.263   2.786   3.222 -0.0919 -0.6279 -0.1739
 7476TIP3    H122392   6.253   2.692   3.210  0.3380 -0.8307  0.9837
 7476TIP3    H222393   6.236   2.802   3.313 -0.7596  0.4590 -0.5524
 7477TIP3   OH222394   3.729   1.798   0.181 -0.0012  0.6278 -0.1675
 7477TIP3    H122395   3.794   1.802   0.111  0.2519  0.2614  0.0479
 7477TIP3    H222396   3.677   1.878   0.169 -0.1063  0.4498 -0.9159
 7478TIP3   OH222397   4.673   5.584   2.558  0.0831  0.1239  0.0906
 7478TIP3    H122398   4.592   5.599   2.510 -0.4238 -2.2826  0.1196
 7478TIP3    H222399   4.645   5.544   2.641  1.0613  2.6196  1.6642
 7479TIP3   OH222400   3.834   5.243   2.545  0.4610 -0.2726  0.0885
 7479TIP3    H122401   3.882   5.318   2.581 -0.3907  0.5478 -0.4456
 7479TIP3    H222402   3.835   5.258   2.451  0.1846 -0.8757 -0.0068
 7480TIP3   OH222403   6.281   5.342   1.545 -0.1067  0.2125 -0.2775
 7480TIP3    H122404   6.225   5.355   1.468 -0.9660 -1.2684  0.0709
 7480TIP3    H222405   6.244   5.399   1.612 -1.1311 -0.6711 -0.0867
 7481TIP3   OH222406   0.290   2.347   3.639 -0.2227  0.5627 -0.1191
 7481TIP3    H122407   0.380   2.376   3.622 -0.3585  0.8901 -0.2951
 7481TIP3    H222408   0.269   2.382   3.726  0.2157 -0.4834  0.4061
 7482TIP3   OH222409   0.458   1.707   4.667  0.2374  0.1558 -0.7063
 7482TIP3    H122410   0.493   1.632   4.716 -2.0892  0.1109  0.9336
 7482TIP3    H222411   0.382   1.672   4.621 -0.3486  1.3106 -0.6281
 7483TIP3   OH222412   4.892   4.637   1.859 -0.2465 -0.3514  0.6448
 7483TIP3    H122413   4.843   4.665   1.781  0.0226  0.0796  0.6258
 7483TIP3    H222414   4.872   4.544   1.868 -0.2649 -0.4099  0.0479
 7484TIP3   OH222415   4.269   4.769   0.992 -0.2673  0.1016 -0.3254
 7484TIP3    H122416   4.283   4.735   0.904 -0.2284 -1.2114  0.1740
 7484TIP3    H222417   4.206   4.840   0.981 -2.0872 -1.5946 -1.1389
 7485TIP3   OH222418   1.839   1.196   4.674  0.2864 -0.1359 -0.0205
 7485TIP3    H122419   1.766   1.259   4.673  0.9380  0.6368 -2.4757
 7485TIP3    H222420   1.883   1.212   4.758 -0.9223  1.0943  0.4038
 7486TIP3   OH222421   4.221   3.066   0.203  0.2693  0.2231 -0.0042
 7486TIP3    H122422   4.230   3.092   0.294 -0.1510 -0.5526  0.2678
 7486TIP3    H222423   4.296   3.105   0.158 -0.2214  1.6714  0.4293
 7487TIP3   OH222424   2.557   3.256   0.856  0.4342 -0.4942 -0.1849
 7487TIP3    H122425   2.532   3.217   0.772  1.2956  1.1679 -1.2280
 7487TIP3    H222426   2.641   3.216   0.877  0.5500 -0.3857 -0.4513
 7488TIP3   OH222427   5.673   4.026   0.982 -0.1665 -0.3343 -0.1272
 7488TIP3    H122428   5.706   3.962   1.045 -0.9080  1.0829  1.7228
 7488TIP3    H222429   5.581   4.039   1.006 -0.6444 -0.2881 -1.9323
 7489TIP3   OH222430   2.325   6.502   0.352 -0.2169  0.0984 -0.5385
 7489TIP3    H122431   2.420   6.511   0.362 -0.1337 -0.8328 -0.4392
 7489TIP3    H222432   2.288   6.559   0.419  0.2557  1.1391 -1.1374
 7490TIP3   OH222433   6.263   4.367   1.078  0.9080  0.0677 -0.1019
 7490TIP3    H122434   6.308   4.303   1.134  1.3889  0.8446  0.4072
 7490TIP3    H222435   6.326   4.437   1.065  0.3961  0.4247 -0.6957
 7491TIP3   OH222436   6.208   6.224   5.132  0.4819  0.7899 -0.0929
 7491TIP3    H122437   6.232   6.262   5.216  0.6142 -0.4471  0.4535
 7491TIP3    H222438   6.113   6.233   5.128  0.3749  0.1027  0.5946
 7492TIP3   OH222439   3.901   1.117   4.493  0.6493 -0.2608 -0.2469
 7492TIP3    H122440   3.849   1.197   4.490  0.2174 -0.5906 -2.2208
 7492TIP3    H222441   3.912   1.099   4.587  0.8070  2.1269  0.2110
 7493TIP3   OH222442   1.553   1.069   4.164 -0.1366 -0.2801 -0.4398
 7493TIP3    H122443   1.473   1.079   4.215  0.4413  0.4416  0.3483
 7493TIP3    H222444   1.617   1.125   4.208  0.5621 -0.1651 -1.5720
 7494TIP3   OH222445   3.404   3.873   1.656  0.3781  0.0091 -0.1299
 7494TIP3    H122446   3.479   3.828   1.616  0.7231  0.4451  0.0163
 7494TIP3    H222447   3.368   3.809   1.717  1.4287  0.2502  0.7546
 7495TIP3   OH222448   4.720   4.343   1.309  0.3059 -0.1259  0.1442
 7495TIP3    H122449   4.685   4.320   1.222  1.0651 -0.7503  0.0079
 7495TIP3    H222450   4.697   4.436   1.319  0.4401  0.0230 -0.8377
 7496TIP3   OH222451   4.580   5.281   1.755 -0.3610 -0.4733  0.1473
 7496TIP3    H122452   4.548   5.192   1.771 -1.9808 -0.1552 -1.0840
 7496TIP3    H222453   4.509   5.337   1.785  0.7175  0.4236  1.0518
 7497TIP3   OH222454   4.783   3.248   1.498 -0.0597  0.1605  0.2059
 7497TIP3    H122455   4.848   3.315   1.520 -0.4193  0.5103  0.2049
 7497TIP3    H222456   4.790   3.183   1.568 -0.8871  1.0425  1.1278
 7498TIP3   OH222457   6.355   4.128   0.513  0.0473 -0.3117 -0.1236
 7498TIP3    H122458   6.289   4.083   0.566  0.1931 -0.2996  0.0651
 7498TIP3    H222459   6.325   4.115   0.423 -1.4104  1.5371  0.0559
 7499TIP3   OH222460   6.382   4.860   1.224 -0.0508  0.2040  0.0644
 7499TIP3    H122461   6.433   4.808   1.286 -0.8744 -0.6474  0.0393
 7499TIP3    H222462   6.439   4.933   1.202  1.0928 -0.6418  0.1593
 7500TIP3   OH222463   3.716   0.400   5.543 -0.6387 -0.1171  0.1178
 7500TIP3    H122464   3.713   0.329   5.479 -1.5340 -0.7835  0.8918
 7500TIP3    H222465   3.625   0.422   5.559 -0.3602  1.6535 -0.5887
 7501TIP3   OH222466   3.714   5.877   5.410 -0.1527  0.4517  0.1614
 7501TIP3    H122467   3.779   5.947   5.416  1.1813 -0.7946  0.6382
 7501TIP3    H222468   3.677   5.886   5.322 -0.8149  2.4314  0.6182
 7502TIP3   OH222469   0.131   1.480   5.799  0.2375 -0.3810  0.5263
 7502TIP3    H122470   0.107   1.415   5.733 -1.2000 -0.4741  1.1318
 7502TIP3    H222471   0.135   1.563   5.750 -0.3095 -0.5310  0.2229
 7503TIP3   OH222472   2.799   0.907   5.727  0.3878  0.2275  0.6726
 7503TIP3    H122473   2.826   0.824   5.689 -2.1092  0.4170 -1.6118
 7503TIP3    H222474   2.872   0.967   5.708  0.3345 -0.3577 -1.4977
 7504TIP3   OH222475   3.410   1.161   5.512  0.2378 -0.3584 -0.5642
 7504TIP3    H122476   3.356   1.083   5.496 -0.3066  0.2463 -1.7826
 7504TIP3    H222477   3.489   1.128   5.553 -0.6883 -1.3705  0.4197
 7505TIP3   OH222478   5.176   5.496   0.281  0.2434 -0.1857 -0.1889
 7505TIP3    H122479   5.194   5.575   0.230 -0.7757  1.5774  2.0626
 7505TIP3    H222480   5.177   5.526   0.372 -0.2059 -2.7770  0.7142
 7506TIP3   OH222481   0.587   5.348   1.972 -0.3121 -0.7204  1.0394
 7506TIP3    H122482   0.614   5.417   2.033  2.5433 -0.2200 -0.7122
 7506TIP3    H222483   0.595   5.267   2.023  0.1068 -0.1133  1.9514
 7507TIP3   OH222484   5.685   6.081   0.344  0.8438 -0.1042 -0.0062
 7507TIP3    H122485   5.756   6.094   0.407  0.5201 -0.3098  0.4086
 7507TIP3    H222486   5.606   6.105   0.393  0.7262  1.1044 -0.7754
 7508TIP3   OH222487   4.972   4.334   2.206 -0.1260  0.3915  0.7142
 7508TIP3    H122488   4.944   4.344   2.115  0.2388  1.8198  0.7406
 7508TIP3    H222489   4.898   4.365   2.258  0.4995  1.7083  0.8402
 7509TIP3   OH222490   6.669   2.837   1.611  0.3268 -0.1078  0.1151
 7509TIP3    H122491   6.639   2.915   1.565 -1.4846 -0.2190  1.0520
 7509TIP3    H222492   6.682   2.771   1.543 -3.4920 -0.6502 -0.2023
 7510TIP3   OH222493   4.576   2.414   5.784 -0.1415 -0.1063  0.6690
 7510TIP3    H122494   4.561   2.360   5.862 -0.5713 -0.5549  0.2725
 7510TIP3    H222495   4.653   2.375   5.743 -0.3571 -0.3140  0.4672
 7511TIP3   OH222496   3.510   2.211   4.759  0.3864  0.1718  0.1390
 7511TIP3    H122497   3.452   2.137   4.778  0.4302  0.2872  0.7443
 7511TIP3    H222498   3.496   2.271   4.832  1.5716  0.0176  0.5074
 7512TIP3   OH222499   2.287   6.772   5.338 -0.5140 -0.3393  0.4125
 7512TIP3    H122500   2.323   6.860   5.333 -2.2317  0.4175  0.9910
 7512TIP3    H222501   2.340   6.721   5.277 -0.9873  1.6045 -1.6784
 7513TIP3   OH222502   0.201   4.122   1.766 -0.4871  0.0475  0.1952
 7513TIP3    H122503   0.162   4.036   1.776  2.7148 -1.4765  0.2669
 7513TIP3    H222504   0.175   4.170   1.845 -1.4062 -1.1969  0.6496
 7514TIP3   OH222505   3.578   2.135   5.456  0.0016 -0.1369 -0.0567
 7514TIP3    H122506   3.660   2.152   5.501  1.1536  0.2243 -2.2190
 7514TIP3    H222507   3.512   2.137   5.525  1.6759  0.5650  1.5695
 7515TIP3   OH222508   5.408   5.223   1.851 -0.0658 -0.7360 -0.4189
 7515TIP3    H122509   5.484   5.249   1.800  0.0659  0.6236  0.4283
 7515TIP3    H222510   5.333   5.237   1.793  0.0077  1.5662 -0.0163
 7516TIP3   OH222511   5.696   1.960   4.781  0.2314  0.4749 -0.1494
 7516TIP3    H122512   5.771   2.012   4.809  0.1108  0.0986  0.9183
 7516TIP3    H222513   5.622   1.996   4.831 -0.0779  0.0922 -0.3299
 7517TIP3   OH222514   4.589   1.374   4.651  0.2204  0.3983 -0.1652
 7517TIP3    H122515   4.522   1.403   4.589  1.2012 -0.7588 -1.8050
 7517TIP3    H222516   4.645   1.450   4.664 -0.6003  0.9585  0.1485
 7518TIP3   OH222517   3.247   0.359   4.453 -0.2962  0.2961 -0.4243
 7518TIP3    H122518   3.214   0.388   4.538  0.1055 -1.1921  0.2523
 7518TIP3    H222519   3.173   0.316   4.412 -0.2634  0.3066 -0.4951
 7519TIP3   OH222520   5.434   2.281   5.995  0.2999 -0.0481  0.1152
 7519TIP3    H122521   5.409   2.235   5.915 -0.6109 -0.3246  0.5516
 7519TIP3    H222522   5.385   2.363   5.992  1.0761  0.4179 -0.1180
 7520TIP3   OH222523   6.760   5.768   0.899 -0.4768  0.5092  0.3265
 7520TIP3    H122524   6.749   5.851   0.946 -0.0605  0.0554  1.2394
 7520TIP3    H222525   6.673   5.730   0.896 -0.4430  0.3554  1.0968
 7521TIP3   OH222526   5.430   3.102   0.412  0.2005 -0.2015  0.2526
 7521TIP3    H122527   5.357   3.042   0.428 -1.3357  1.4176 -0.6404
 7521TIP3    H222528   5.417   3.133   0.323 -0.7828  3.7774  1.6536
 7522TIP3   OH222529   2.008   0.373   2.579  0.3560  1.0267  0.2416
 7522TIP3    H122530   2.086   0.402   2.533 -0.6181  0.9276 -1.5112
 7522TIP3    H222531   2.024   0.281   2.599  1.1395  1.2992  0.8790
 7523TIP3   OH222532   5.383   0.469   4.978  0.0072 -0.0542  0.0945
 7523TIP3    H122533   5.327   0.545   4.993  0.8053  0.6517 -0.4225
 7523TIP3    H222534   5.453   0.478   5.043  1.2248  0.7889 -1.2931
 7524TIP3   OH222535   4.047   4.322   1.862  0.7962  0.3230 -0.2957
 7524TIP3    H122536   3.956   4.347   1.849  0.6454 -0.1933 -0.2529
 7524TIP3    H222537   4.087   4.398   1.905  0.2404  0.3151  0.2459
 7525TIP3   OH222538   3.606   3.416   1.062  0.0761  0.0488 -0.4821
 7525TIP3    H122539   3.690   3.457   1.078 -0.0692  1.2783 -2.6499
 7525TIP3    H222540   3.626   3.323   1.050  0.9528  0.1537  0.1530
 7526TIP3   OH222541   6.131   4.347   1.876 -0.4658 -0.2337  0.5940
 7526TIP3    H122542   6.096   4.435   1.890 -0.9081 -0.3375  0.1694
 7526TIP3    H222543   6.206   4.360   1.818 -0.6396 -0.1510  0.3852
 7527TIP3   OH222544   4.418   1.158   3.902  0.7700  0.0216 -0.5855
 7527TIP3    H122545   4.503   1.144   3.943  1.5511  0.2926 -2.0932
 7527TIP3    H222546   4.415   1.252   3.884 -0.2694  0.1806  0.3561
 7528TIP3   OH222547   1.052   4.919   4.023  0.3782 -0.4038  0.0929
 7528TIP3    H122548   0.977   4.942   3.968 -0.1185 -1.0322  0.5062
 7528TIP3    H222549   1.124   4.972   3.989 -0.3032  0.3616 -0.1742
 7529TIP3   OH222550   2.946   0.232   4.758  0.0453  0.3444 -0.2441
 7529TIP3    H122551   3.010   0.302   4.744 -1.1693  2.0447  2.2793
 7529TIP3    H222552   2.861   0.277   4.759 -0.7507 -1.0976  1.5901
 7530TIP3   OH222553   6.678   2.460   0.791 -1.3586  0.1653  1.0437
 7530TIP3    H122554   6.638   2.539   0.824  2.6312  2.2060  1.3234
 7530TIP3    H222555   6.722   2.421   0.867  0.2810  0.0322  0.0574
 7531TIP3   OH222556   2.487   0.306   4.403  0.2307  0.0044  0.3922
 7531TIP3    H122557   2.578   0.318   4.432  0.7694  0.5744 -1.4746
 7531TIP3    H222558   2.474   0.374   4.337 -1.7488  0.2970  1.0568
 7532TIP3   OH222559   4.490   4.784   2.278 -0.1121  0.0427 -0.9109
 7532TIP3    H122560   4.525   4.856   2.330  2.2069 -1.4163 -0.3503
 7532TIP3    H222561   4.552   4.773   2.206 -1.4420 -0.1947 -2.0446
 7533TIP3   OH222562   5.058   4.140   1.827 -0.2366  0.5880 -0.3417
 7533TIP3    H122563   5.021   4.052   1.835 -0.2018  0.3796 -2.1186
 7533TIP3    H222564   5.093   4.161   1.914 -0.2477 -1.1455  0.0850
 7534TIP3   OH222565   0.082   4.199   5.034 -0.4896  0.3312 -0.4333
 7534TIP3    H122566   0.098   4.152   5.116  0.4085 -2.2001 -2.0049
 7534TIP3    H222567   0.154   4.262   5.029  1.1799 -1.5350 -0.6829
 7535TIP3   OH222568   2.285   2.079   5.174  0.1952 -0.6137 -0.3027
 7535TIP3    H122569   2.369   2.125   5.180  0.4173 -1.0852  0.2435
 7535TIP3    H222570   2.300   1.996   5.219 -0.6984 -0.5111  0.1904
 7536TIP3   OH222571   3.576   0.807   4.784 -0.4202  0.0319 -0.2404
 7536TIP3    H122572   3.552   0.837   4.872  0.3961 -0.4465  0.1462
 7536TIP3    H222573   3.512   0.738   4.764 -0.1154 -0.4104  0.3032
 7537TIP3   OH222574   7.043   3.989   0.698 -0.2749 -0.7805  0.3674
 7537TIP3    H122575   7.136   3.971   0.681 -0.4418 -1.9013  0.6170
 7537TIP3    H222576   7.000   3.977   0.614 -0.0498  0.7792  0.0147
 7538TIP3   OH222577   5.295   0.071   5.220  0.2878 -0.1626 -0.0517
 7538TIP3    H122578   5.379   0.037   5.250  0.8672  0.6396 -0.7469
 7538TIP3    H222579   5.243  -0.007   5.203 -0.2103 -0.6579  3.3827
 7539TIP3   OH222580   4.372   3.360   2.693  0.2421  0.0891  0.0642
 7539TIP3    H122581   4.348   3.304   2.767 -0.5066 -0.4184 -0.5601
 7539TIP3    H222582   4.389   3.299   2.621  0.5404  0.6037 -0.3051
 7540TIP3   OH222583   4.872   4.441   2.539  0.2498  0.4233 -0.2742
 7540TIP3    H122584   4.914   4.362   2.573 -0.6761  1.0393  2.4840
 7540TIP3    H222585   4.820   4.411   2.465  0.8936 -1.3455 -0.0268
 7541TIP3   OH222586   5.582   4.597   0.441 -0.9782 -0.1869  0.8039
 7541TIP3    H122587   5.545   4.686   0.444  0.3472  0.3447  2.2863
 7541TIP3    H222588   5.671   4.609   0.408 -2.1655 -1.5036 -3.0552
 7542TIP3   OH222589   3.918   1.249   4.989  0.3348  0.7696 -0.3161
 7542TIP3    H122590   4.011   1.226   4.986 -0.2369 -1.5011 -1.6102
 7542TIP3    H222591   3.892   1.233   5.080  0.7516 -0.5495 -0.4257
 7543TIP3   OH222592   5.646   3.649   0.845 -0.2647  0.6036 -0.3435
 7543TIP3    H122593   5.726   3.696   0.869 -0.9421  2.0444 -0.8280
 7543TIP3    H222594   5.577   3.714   0.856 -1.7463 -1.3893  2.6706
 7544TIP3   OH222595   4.727   4.825   0.817  0.9797 -0.4144 -0.2458
 7544TIP3    H122596   4.796   4.886   0.789 -0.5187  0.9442 -1.0206
 7544TIP3    H222597   4.656   4.839   0.755 -1.1939  0.4143  2.3577
 7545TIP3   OH222598   6.067   4.225   3.475  0.1600  0.0100  0.1704
 7545TIP3    H122599   5.983   4.263   3.501 -0.1509 -0.2184 -0.5002
 7545TIP3    H222600   6.102   4.187   3.555 -0.2244  0.3950  0.5245
 7546TIP3   OH222601   3.625   2.281   5.218 -0.0346  0.1111 -0.2023
 7546TIP3    H122602   3.696   2.341   5.241 -0.0037 -0.3570  0.9618
 7546TIP3    H222603   3.625   2.216   5.289 -0.0431 -1.2798 -1.4600
 7547TIP3   OH222604   7.276   6.610   1.993 -0.0814  0.2513  0.2349
 7547TIP3    H122605   7.187   6.585   1.967  0.1403  0.2206 -0.5204
 7547TIP3    H222606   7.264   6.681   2.056 -0.6198  1.1159 -0.8188
 7548TIP3   OH222607   1.364   6.702   5.975 -0.6657  0.4095 -0.5436
 7548TIP3    H122608   1.459   6.711   5.980 -0.5842 -1.1716  1.1433
 7548TIP3    H222609   1.342   6.728   5.886  1.6055 -1.4926 -1.6853
 7549TIP3   OH222610   0.605   6.797   5.105 -0.4018 -0.1112 -0.1440
 7549TIP3    H122611   0.598   6.833   5.017  0.9781  0.9260  0.1479
 7549TIP3    H222612   0.521   6.817   5.146 -0.4688  0.8064 -0.7225
 7550TIP3   OH222613   4.636   6.440   0.388 -0.3256  0.6020 -0.0167
 7550TIP3    H122614   4.596   6.511   0.438 -0.3790  0.5732 -0.0169
 7550TIP3    H222615   4.720   6.476   0.358 -0.0149  0.4071  0.6140
 7551TIP3   OH222616   5.935   5.234   0.871 -0.1583 -0.5041  0.2416
 7551TIP3    H122617   5.876   5.259   0.800 -0.6145 -0.1573  0.7356
 7551TIP3    H222618   5.958   5.317   0.913  0.5053 -0.6573  0.1919
 7552TIP3   OH222619   0.927   6.653   1.213 -0.1115 -0.2940 -0.0182
 7552TIP3    H122620   0.897   6.670   1.124 -0.4431  0.2742  0.2018
 7552TIP3    H222621   1.010   6.700   1.220  0.4685 -1.2557 -0.3871
 7553TIP3   OH222622   5.342   1.121   5.721 -0.1679  0.1910 -0.3310
 7553TIP3    H122623   5.382   1.052   5.773 -1.0920  0.0908  0.2589
 7553TIP3    H222624   5.415   1.164   5.677  0.6121  0.2987  1.0686
 7554TIP3   OH222625   1.438   2.427   5.230 -0.5757 -0.4003 -0.3706
 7554TIP3    H122626   1.413   2.514   5.200  0.7192  0.1867  0.2244
 7554TIP3    H222627   1.497   2.443   5.304 -1.3129 -1.7885  0.5456
 7555TIP3   OH222628   6.814   3.390   0.165  0.5152  0.5814 -0.4833
 7555TIP3    H122629   6.730   3.366   0.205  0.3485  0.7014 -0.7581
 7555TIP3    H222630   6.798   3.476   0.126  0.4348  0.0988 -1.5268
 7556TIP3   OH222631   2.380   0.880   5.220  0.0180 -0.4127 -0.2874
 7556TIP3    H122632   2.416   0.897   5.133  0.1432 -0.7136 -0.2935
 7556TIP3    H222633   2.325   0.803   5.208 -0.0388 -0.3971 -0.1200
 7557TIP3   OH222634   3.580   5.354   1.528 -0.3368 -0.0470  0.2026
 7557TIP3    H122635   3.536   5.273   1.551 -1.0583  0.3106  0.0759
 7557TIP3    H222636   3.604   5.344   1.436 -1.2125  0.2360 -0.0633
 7558TIP3   OH222637   7.111   4.877   0.633  0.2760 -0.5217  0.3115
 7558TIP3    H122638   7.167   4.809   0.670  0.8437  0.0485  0.5121
 7558TIP3    H222639   7.027   4.867   0.678 -0.4871 -2.7640 -1.5235
 7559TIP3   OH222640   6.600   4.925   0.770  0.1632 -0.0278  0.0441
 7559TIP3    H122641   6.640   4.907   0.855 -0.1543  0.3737  0.2801
 7559TIP3    H222642   6.527   4.982   0.790  1.0130  1.3308 -0.6605
 7560TIP3   OH222643   1.395   1.633   4.562 -0.5674  0.5712 -0.6255
 7560TIP3    H122644   1.301   1.628   4.543 -0.9302  0.0539  1.2572
 7560TIP3    H222645   1.400   1.667   4.651  0.9551 -1.6431  0.1664
 7561TIP3   OH222646   5.191   5.720   1.248 -0.1595 -0.1700  0.3704
 7561TIP3    H122647   5.129   5.722   1.175 -2.6891  1.7491  2.4625
 7561TIP3    H222648   5.154   5.655   1.308 -0.0248  0.8238  1.5367
 7562TIP3   OH222649   6.041   4.615   2.590 -0.0685  0.4218  0.1516
 7562TIP3    H122650   6.001   4.529   2.582  1.0775 -0.1380  0.4215
 7562TIP3    H222651   6.019   4.644   2.678 -0.4253  0.3973  0.0711
 7563TIP3   OH222652   1.697   3.360   0.081  1.1593 -0.1983  0.3104
 7563TIP3    H122653   1.718   3.413   0.005 -0.7844  0.6583  0.3339
 7563TIP3    H222654   1.628   3.300   0.051 -0.3353  0.8165  1.6135
 7564TIP3   OH222655   6.624   4.920   1.995  0.0315 -0.4416 -0.6081
 7564TIP3    H122656   6.564   4.934   1.922 -0.9779 -2.4159 -0.2029
 7564TIP3    H222657   6.708   4.952   1.964 -0.8359  0.6446 -1.8740
 7565TIP3   OH222658   3.376   2.496   1.925 -0.0308 -0.0479 -0.2256
 7565TIP3    H122659   3.377   2.582   1.966  0.2194 -0.2161  0.1186
 7565TIP3    H222660   3.461   2.457   1.946 -0.4822 -0.7368  0.3847
 7566TIP3   OH222661   0.123   4.819   0.388  0.3678 -0.7135  0.0370
 7566TIP3    H122662   0.040   4.771   0.382 -0.9859  1.6517 -0.9522
 7566TIP3    H222663   0.130   4.841   0.481 -2.1284  2.3786 -0.4180
 7567TIP3   OH222664   1.320   5.495   3.900 -0.3141  0.1847 -0.8377
 7567TIP3    H122665   1.341   5.530   3.987 -0.1465 -1.5879 -0.1380
 7567TIP3    H222666   1.389   5.432   3.882 -0.2417  0.6807 -2.3673
 7568TIP3   OH222667   1.876   4.739   1.288  0.1980 -0.1809  0.2927
 7568TIP3    H122668   1.790   4.704   1.266 -0.1897  1.3193 -0.6288
 7568TIP3    H222669   1.935   4.663   1.281 -0.8527 -0.9657 -0.1947
 7569TIP3   OH222670   2.795   3.716   0.361 -0.0657 -0.3589  0.4738
 7569TIP3    H122671   2.809   3.727   0.455 -0.2296  0.0150  0.4534
 7569TIP3    H222672   2.761   3.626   0.352  1.1540 -0.8486  0.6469
 7570TIP3   OH222673   6.813   4.991   2.409 -0.0377  0.4587  0.7870
 7570TIP3    H122674   6.898   5.029   2.432 -0.4049  0.4070  2.2810
 7570TIP3    H222675   6.799   5.018   2.318  2.0165 -0.3730  0.2000
 7571TIP3   OH222676   5.748   3.219   0.078  0.3157  0.0406 -0.2655
 7571TIP3    H122677   5.792   3.195  -0.003  0.9070  0.2158  0.0053
 7571TIP3    H222678   5.818   3.225   0.143 -0.1410  0.0037  0.2357
 7572TIP3   OH222679   5.144   3.639   1.656  0.0710  0.1953  0.2133
 7572TIP3    H122680   5.205   3.651   1.583  0.4827 -1.1806  0.3198
 7572TIP3    H222681   5.199   3.615   1.730 -0.4309  0.7388  0.7697
 7573TIP3   OH222682   1.344   6.191   4.779  0.0197 -0.4003  0.4617
 7573TIP3    H122683   1.316   6.115   4.728  0.8083 -1.1411  1.1188
 7573TIP3    H222684   1.349   6.262   4.716 -0.2983 -1.0045 -0.2437
 7574TIP3   OH222685   1.956   6.648   5.649  0.0101 -0.0385  0.2267
 7574TIP3    H122686   1.895   6.610   5.586 -0.4930  0.4577  0.4041
 7574TIP3    H222687   1.970   6.737   5.618  0.0367  0.0956  0.6152
 7575TIP3   OH222688   5.843   4.628   1.189 -0.2465  0.3426  0.1833
 7575TIP3    H122689   5.786   4.563   1.231 -0.9208  1.1457  0.5258
 7575TIP3    H222690   5.880   4.678   1.261  0.0945  0.4910 -0.0922
 7576TIP3   OH222691   0.710   4.953   0.599  0.0176 -0.1074  0.2221
 7576TIP3    H122692   0.694   4.966   0.693 -0.3151  0.8219  0.0384
 7576TIP3    H222693   0.790   5.002   0.582  0.4310 -0.8097  0.1530
 7577TIP3   OH222694   0.908   2.913   1.147 -0.0184 -0.7332  0.4783
 7577TIP3    H122695   0.992   2.939   1.184 -0.0709  2.4470 -1.4491
 7577TIP3    H222696   0.922   2.825   1.114  2.6729 -0.1235 -0.0920
 7578TIP3   OH222697   3.327   6.495   5.472  0.1437  0.0420 -0.2981
 7578TIP3    H122698   3.420   6.517   5.465 -0.1119  1.3242  0.2834
 7578TIP3    H222699   3.314   6.429   5.404  1.1149  1.0779 -1.5356
 7579TIP3   OH222700   5.934   1.378   5.906 -0.4379  0.4456  0.1148
 7579TIP3    H122701   5.928   1.466   5.868 -0.0568  0.5863  0.3800
 7579TIP3    H222702   6.002   1.386   5.973 -1.6512  0.3783  1.3504
 7580TIP3   OH222703   3.538   1.270   5.095 -0.1942 -0.1488 -0.3809
 7580TIP3    H122704   3.630   1.254   5.116 -0.1859 -0.2863 -0.5259
 7580TIP3    H222705   3.506   1.323   5.169 -0.4424 -1.5447  0.5194
 7581TIP3   OH222706   5.117   5.888   0.401  0.2554 -0.1919 -0.3971
 7581TIP3    H122707   5.173   5.893   0.323  1.0934  1.4252  0.2820
 7581TIP3    H222708   5.134   5.970   0.447 -1.5049 -0.3920  0.6288
 7582TIP3   OH222709   4.308   6.704   0.138  0.1559 -0.1541  0.3179
 7582TIP3    H122710   4.359   6.775   0.098 -0.4930  1.1809  1.8160
 7582TIP3    H222711   4.232   6.695   0.081  0.7695 -0.3926 -0.4790
 7583TIP3   OH222712   6.527   5.490   0.123  0.1172 -0.1942  0.1105
 7583TIP3    H122713   6.460   5.424   0.105  0.5709 -0.0140 -2.4810
 7583TIP3    H222714   6.609   5.450   0.092  1.1332 -0.1281  2.5784
 7584TIP3   OH222715   3.243   3.443   5.248 -0.0217 -0.1380 -0.0607
 7584TIP3    H122716   3.280   3.366   5.290 -2.5051 -0.8190  0.9315
 7584TIP3    H222717   3.289   3.517   5.288  0.8148 -0.9913  0.5532
 7585TIP3   OH222718   5.736   6.651   0.123  0.3198 -0.1492 -0.0593
 7585TIP3    H122719   5.765   6.572   0.168  0.9321  0.0238 -0.1433
 7585TIP3    H222720   5.758   6.637   0.031  0.7464  0.2537 -0.0250
 7586TIP3   OH222721   2.993   5.059   1.006  0.1409  0.4978  0.0805
 7586TIP3    H122722   2.983   4.976   1.052 -0.7666  0.7795  0.4147
 7586TIP3    H222723   2.903   5.092   0.998  0.7139  2.7717  2.3864
 7587TIP3   OH222724   2.820   2.375   4.855  0.8916 -0.2309  0.0861
 7587TIP3    H122725   2.819   2.442   4.787 -2.0117 -0.3980 -0.0850
 7587TIP3    H222726   2.851   2.296   4.811  0.4799  0.0259 -0.6603
 7588TIP3   OH222727   5.599   3.912   0.352  0.1809 -0.1410  0.2640
 7588TIP3    H122728   5.592   3.817   0.348  0.9741 -0.2102  0.5409
 7588TIP3    H222729   5.509   3.942   0.367  0.0542 -0.8942  1.0305
 7589TIP3   OH222730   5.950   4.829   2.159  0.6091  0.3096  0.4864
 7589TIP3    H122731   5.953   4.916   2.119  0.3696 -0.0388 -0.3031
 7589TIP3    H222732   6.017   4.832   2.228  1.1113  0.8817 -0.0179
 7590TIP3   OH222733   5.115   2.118   5.417 -0.4351 -0.3556 -0.4864
 7590TIP3    H122734   5.184   2.055   5.396  0.2321  0.9557 -2.3427
 7590TIP3    H222735   5.047   2.066   5.459  0.9246 -1.9780 -0.2448
 7591TIP3   OH222736   1.774   4.059   0.370 -0.2440  0.4328 -0.1036
 7591TIP3    H122737   1.699   3.999   0.372  0.0344  0.1206  1.0903
 7591TIP3    H222738   1.745   4.136   0.419 -0.5073  1.1917 -1.4136
 7592TIP3   OH222739   5.610   4.084   0.068 -0.2428  0.3010 -0.0680
 7592TIP3    H122740   5.600   4.167   0.114  0.5643  0.3656 -0.0137
 7592TIP3    H222741   5.624   4.019   0.137 -0.3920  0.1888 -0.1416
 7593TIP3   OH222742   6.435   1.220   5.272  0.4324 -0.4386 -0.1573
 7593TIP3    H122743   6.486   1.296   5.302  0.4578 -0.2231 -0.7450
 7593TIP3    H222744   6.429   1.231   5.177 -1.1258 -0.2046 -0.0386
 7594TIP3   OH222745   5.179   4.649   4.230 -0.6890 -0.3978  0.3851
 7594TIP3    H122746   5.153   4.633   4.321 -1.0262 -0.7849  0.2179
 7594TIP3    H222747   5.202   4.562   4.196  0.0603 -0.1700  0.2953
 7595TIP3   OH222748   6.760   4.321   2.076  0.0906 -0.3496  0.1652
 7595TIP3    H122749   6.703   4.392   2.049 -0.3281 -0.4628  0.7560
 7595TIP3    H222750   6.835   4.326   2.016  0.9820  1.7786  1.3937
 7596TIP3   OH222751   3.626   6.442   5.779  0.1004 -0.3315 -0.0481
 7596TIP3    H122752   3.663   6.369   5.829  1.2111 -0.0864 -0.5133
 7596TIP3    H222753   3.661   6.431   5.691 -1.5191 -0.5175 -0.6821
 7597TIP3   OH222754   1.673   4.154   0.104  0.0333  0.3522  0.2235
 7597TIP3    H122755   1.762   4.140   0.136 -0.2968  1.0021  1.4282
 7597TIP3    H222756   1.681   4.230   0.045  0.3039  0.3100  0.2028
 7598TIP3   OH222757   7.375   5.120   1.264 -0.2882  0.2014  0.6727
 7598TIP3    H122758   7.420   5.063   1.201  1.6288  1.3867  0.9462
 7598TIP3    H222759   7.284   5.090   1.262  0.5883 -2.5546  0.4783
 7599TIP3   OH222760   1.093   4.451   1.692 -0.3243 -0.4387 -0.1067
 7599TIP3    H122761   1.098   4.378   1.753 -0.3416 -1.9399 -1.8778
 7599TIP3    H222762   1.023   4.506   1.727  0.3178 -0.7591  1.7499
 7600TIP3   OH222763   4.724   0.078   5.570 -0.0761 -0.3894  0.1984
 7600TIP3    H122764   4.790   0.146   5.584 -0.3747 -0.0269 -0.1286
 7600TIP3    H222765   4.737   0.017   5.642  0.6856 -0.3777  0.0792
 7601TIP3   OH222766   0.587   4.236   0.895  0.8648 -0.2785  0.1063
 7601TIP3    H122767   0.515   4.264   0.951  2.3983  1.4623  1.2655
 7601TIP3    H222768   0.555   4.157   0.852  0.2727 -2.8209  4.8696
 7602TIP3   OH222769   6.697   5.499   0.453  0.0944  0.2832  0.1530
 7602TIP3    H122770   6.723   5.591   0.443  0.8490  0.4700  3.3620
 7602TIP3    H222771   6.770   5.450   0.415  1.2447  0.9755  1.4297
 7603TIP3   OH222772   4.349   4.156   5.639  0.0396  0.0447 -0.0398
 7603TIP3    H122773   4.263   4.181   5.671  0.1813  0.9510 -0.3433
 7603TIP3    H222774   4.392   4.117   5.715 -0.5167 -0.0996  0.2030
 7604TIP3   OH222775   4.003   0.470   5.911 -0.0882 -0.2738 -0.1461
 7604TIP3    H122776   4.020   0.428   5.996  0.9440 -0.8183 -0.6110
 7604TIP3    H222777   4.029   0.561   5.924  0.0352 -0.3463  0.1277
 7605TIP3   OH222778   6.401   5.112   3.124 -0.2207 -0.0080 -0.5615
 7605TIP3    H122779   6.457   5.043   3.160 -0.3274 -0.4533 -1.2450
 7605TIP3    H222780   6.314   5.072   3.119 -0.9854  1.2082  2.0638
 7606TIP3   OH222781   5.965   0.745   5.416 -0.1464 -0.2321  0.3571
 7606TIP3    H122782   6.055   0.745   5.385 -0.0132  0.1480  0.7404
 7606TIP3    H222783   5.967   0.797   5.496 -0.1795 -2.5297  1.8909
 7607TIP3   OH222784   1.921   3.857   0.890  0.0252  0.1930  0.9088
 7607TIP3    H122785   2.008   3.852   0.850 -1.1311 -0.2096 -1.6132
 7607TIP3    H222786   1.880   3.773   0.871 -1.2512  0.7046  1.3129
 7608TIP3   OH222787   7.435   5.248   0.791  0.1658 -0.0714  0.7686
 7608TIP3    H122788   7.367   5.189   0.824 -1.4867  1.1901 -0.2702
 7608TIP3    H222789   7.397   5.336   0.802  1.4437  0.6259 -0.2610
 7609TIP3   OH222790   5.307   5.409   0.736  0.0723 -0.0743  0.0073
 7609TIP3    H122791   5.375   5.356   0.779 -1.1866 -1.0835  0.7736
 7609TIP3    H222792   5.237   5.415   0.802 -0.3461  1.4319 -0.5661
 7610TIP3   OH222793   1.675   4.278   0.485 -0.4420  0.1829 -0.3193
 7610TIP3    H122794   1.679   4.236   0.570  0.2208  0.3176 -0.2794
 7610TIP3    H222795   1.631   4.361   0.500  1.1484  0.9471  0.2021
 7611TIP3   OH222796   1.119   5.696   0.458  0.3370 -0.6399 -0.3715
 7611TIP3    H122797   1.106   5.774   0.513  2.6596  0.6220 -1.5154
 7611TIP3    H222798   1.170   5.636   0.513  1.5754  0.1129 -0.6657
 7612TIP3   OH222799   1.582   6.622   3.462  0.3193 -0.1772  0.5551
 7612TIP3    H122800   1.644   6.555   3.433 -2.7383 -3.3190  0.8723
 7612TIP3    H222801   1.562   6.599   3.552 -3.1027 -0.7300 -0.2801
 7613TIP3   OH222802   3.336   6.267   5.206 -0.0876  0.2443  0.2766
 7613TIP3    H122803   3.311   6.254   5.114 -0.6225 -0.0267  0.4534
 7613TIP3    H222804   3.429   6.247   5.209 -0.0283  0.4394 -0.2434
 7614TIP3   OH222805   5.073   0.964   3.597 -0.4508  0.6656  0.0773
 7614TIP3    H122806   5.086   1.005   3.511 -1.2424  0.4853 -0.1269
 7614TIP3    H222807   5.158   0.925   3.617 -0.8120 -1.0524 -1.5525
 7615TIP3   OH222808   6.696   5.508   2.130 -0.0269  0.0629 -0.2476
 7615TIP3    H122809   6.675   5.498   2.223  1.7465  0.1297  0.1864
 7615TIP3    H222810   6.791   5.521   2.128 -0.1920  1.1953 -1.9940
 7616TIP3   OH222811   0.083   4.531   0.619 -0.1183  0.1103  0.2266
 7616TIP3    H122812   0.101   4.509   0.527 -1.1197 -0.2656  0.1075
 7616TIP3    H222813   0.167   4.557   0.654  0.3423 -0.0569 -0.7219
 7617TIP3   OH222814   2.468   1.737   5.962  0.2141  0.4139  0.5486
 7617TIP3    H122815   2.526   1.750   6.037  0.4410 -1.2099  0.6741
 7617TIP3    H222816   2.518   1.680   5.903 -0.8860 -0.2227  0.2228
 7618TIP3   OH222817   0.633   4.621   1.610 -0.1001  0.5764 -0.5585
 7618TIP3    H122818   0.546   4.584   1.595  0.1838  0.5135 -2.1636
 7618TIP3    H222819   0.693   4.561   1.566  0.9799 -0.5076  2.2939
 7619TIP3   OH222820   1.984   6.429   1.129  0.0901 -0.3513 -0.0200
 7619TIP3    H122821   2.059   6.483   1.155  1.3853 -1.5868 -1.1333
 7619TIP3    H222822   2.022   6.344   1.107 -1.5468 -0.7363 -1.4310
 7620TIP3   OH222823   0.022   6.057   0.022  0.0388 -0.7219  0.2476
 7620TIP3    H122824  -0.050   5.996   0.037 -1.0064  0.4434 -0.0095
 7620TIP3    H222825   0.086   6.036   0.091 -0.9913 -1.0806  1.0947
 7621TIP3   OH222826   6.170   5.738   1.186  0.1305  0.2358 -0.3503
 7621TIP3    H122827   6.179   5.704   1.275  2.3790 -2.4943 -1.5224
 7621TIP3    H222828   6.249   5.790   1.172 -0.2005  0.6273 -0.7781
 7622TIP3   OH222829   2.450   3.723   0.442  0.1766 -0.3380 -0.6979
 7622TIP3    H122830   2.530   3.672   0.428  0.9417  0.5642  0.2672
 7622TIP3    H222831   2.452   3.790   0.374 -0.7182 -1.4356 -1.8306
 7623TIP3   OH222832   4.204   0.152   5.426 -0.5695  0.2257 -0.1554
 7623TIP3    H122833   4.223   0.246   5.420  1.6966 -0.1707  0.4938
 7623TIP3    H222834   4.247   0.114   5.349  0.6126 -0.5745  0.8766
 7624TIP3   OH222835   0.026   2.167   5.443 -0.3298 -0.1722  0.3183
 7624TIP3    H122836   0.108   2.209   5.415 -0.6538  0.8402  0.8632
 7624TIP3    H222837  -0.040   2.235   5.431 -0.9423 -0.6940  0.7702
 7625TIP3   OH222838   5.399   0.082   3.332 -0.1187  0.7494 -0.7557
 7625TIP3    H122839   5.362   0.102   3.418 -0.8368 -0.0368 -0.8718
 7625TIP3    H222840   5.407  -0.014   3.331  0.0853  0.7695 -1.4850
 7626TIP3   OH222841   0.946   2.288   0.405 -0.0425 -0.1363  0.3499
 7626TIP3    H122842   0.879   2.355   0.406  0.2080  0.1217 -0.1405
 7626TIP3    H222843   1.026   2.334   0.431 -0.0274 -0.4175  0.8168
 7627TIP3   OH222844   2.646   0.378   5.265 -0.1539 -0.2508 -0.4982
 7627TIP3    H122845   2.698   0.313   5.217  0.4138  1.4371 -2.2428
 7627TIP3    H222846   2.702   0.404   5.339  0.6825  0.1323 -1.2619
 7628TIP3   OH222847   1.989   5.872   2.201  0.0895 -0.6088  0.3875
 7628TIP3    H122848   1.913   5.844   2.150  0.0474  0.7866 -0.3043
 7628TIP3    H222849   1.954   5.936   2.263  0.6968  0.0243  0.0794
 7629TIP3   OH222850   0.050   4.222   0.716 -0.3449 -0.6788  0.5062
 7629TIP3    H122851   0.036   4.316   0.705 -1.3013 -0.6829  1.5531
 7629TIP3    H222852   0.091   4.194   0.634  2.2497  1.0817  1.1481
 7630TIP3   OH222853   0.684   6.889   5.712  0.0850 -0.0362 -0.5298
 7630TIP3    H122854   0.590   6.882   5.697  0.0470  0.4119 -0.5074
 7630TIP3    H222855   0.692   6.919   5.803  0.2601 -0.5416 -0.3773
 7631TIP3   OH222856   2.414   5.990   5.413 -0.1884  0.2347  0.3923
 7631TIP3    H122857   2.422   6.041   5.332 -0.0074  0.1063  0.3279
 7631TIP3    H222858   2.396   6.055   5.481  1.6922  0.5966  0.5929
 7632TIP3   OH222859   0.571   5.999   1.268  0.2191  0.4542  0.6045
 7632TIP3    H122860   0.620   6.080   1.276 -0.7779  1.0541  0.7965
 7632TIP3    H222861   0.494   6.012   1.323  0.2112 -0.7525  0.8979
 7633TIP3   OH222862   5.649   1.073   5.272 -0.1662 -0.0512  0.1955
 7633TIP3    H122863   5.731   1.101   5.313 -0.4873 -0.7044  1.3054
 7633TIP3    H222864   5.676   1.007   5.208  0.3479  1.0340 -0.7214
 7634TIP3   OH222865   5.127   1.593   5.140 -0.5507 -0.2703 -0.0655
 7634TIP3    H122866   5.107   1.504   5.169  0.9422 -0.4897  0.3240
 7634TIP3    H222867   5.219   1.605   5.160 -0.7606  1.4165 -0.0138
 7635TIP3   OH222868   5.218   4.703   2.144  0.2670 -0.3535  0.5140
 7635TIP3    H122869   5.196   4.721   2.053  1.5308 -0.4215  0.1785
 7635TIP3    H222870   5.304   4.660   2.139  1.0259  0.9780  1.8340
 7636TIP3   OH222871   1.544   6.329   3.567 -0.1864  0.3430  0.0603
 7636TIP3    H122872   1.498   6.292   3.642 -0.6680  1.3762  0.2871
 7636TIP3    H222873   1.609   6.388   3.606  0.8599 -0.5563 -0.2797
 7637TIP3   OH222874   5.444   0.392   5.328  0.3321 -0.1918 -0.2475
 7637TIP3    H122875   5.512   0.408   5.262 -1.0526 -1.6593 -2.1042
 7637TIP3    H222876   5.460   0.302   5.358 -0.9774 -0.6947 -0.9852
 7638TIP3   OH222877   2.162   2.817   1.171  0.0768  0.0294  0.3300
 7638TIP3    H122878   2.073   2.798   1.141  0.2205  0.2709 -0.2699
 7638TIP3    H222879   2.195   2.881   1.108  0.2477  0.8553  1.2544
 7639TIP3   OH222880   5.345   1.208   5.411  0.7728 -0.4224 -0.3006
 7639TIP3    H122881   5.418   1.151   5.434 -0.4131 -2.4448 -1.3644
 7639TIP3    H222882   5.267   1.153   5.425 -0.6324  1.9971  1.8177
 7640TIP3   OH222883   2.304   2.935   0.925 -0.7488  0.6211  0.5099
 7640TIP3    H122884   2.376   2.990   0.957 -1.5513  1.2485  1.2654
 7640TIP3    H222885   2.340   2.892   0.847  0.7357  0.2535  1.3702
 7641TIP3   OH222886   6.570   1.119   5.874  0.2838  0.0479 -0.5837
 7641TIP3    H122887   6.508   1.170   5.823 -0.1729 -0.1613 -0.2494
 7641TIP3    H222888   6.527   1.107   5.959  0.7710 -0.1179 -0.3553
 7642TIP3   OH222889   3.557   6.837   4.984  0.2397 -0.0654  0.2464
 7642TIP3    H122890   3.524   6.761   4.937  0.8636 -0.4945  0.4926
 7642TIP3    H222891   3.520   6.828   5.072  0.9220 -0.4945  0.4943
 7643TIP3   OH222892   6.146   4.037   1.009  0.3216  0.2978 -0.3982
 7643TIP3    H122893   6.229   4.086   1.009  0.1791  0.5457  0.5940
 7643TIP3    H222894   6.083   4.097   1.048 -0.3558  0.1373 -1.2330
 7644TIP3   OH222895   0.634   5.252   0.679 -0.4871 -0.2162  0.0370
 7644TIP3    H122896   0.692   5.322   0.648 -2.5912  2.4860  1.8943
 7644TIP3    H222897   0.692   5.188   0.719  1.4873  0.5553 -1.5035
 7645TIP3   OH222898   1.561   5.033   0.507  0.1494 -0.0462 -0.7942
 7645TIP3    H122899   1.509   4.958   0.536  0.0127  0.3790  0.0841
 7645TIP3    H222900   1.501   5.107   0.511  0.6410  0.3363 -0.3764
 7646TIP3   OH222901   1.369   5.377   3.518  0.1015  0.7574  0.4665
 7646TIP3    H122902   1.313   5.318   3.568  1.2285 -0.8347 -0.0702
 7646TIP3    H222903   1.324   5.388   3.434  1.0313 -1.3963 -0.3826
 7647TIP3   OH222904   1.428   5.482   1.635 -0.7183 -0.5186 -0.0894
 7647TIP3    H122905   1.496   5.546   1.655 -0.1312  0.1304 -3.7887
 7647TIP3    H222906   1.474   5.398   1.634 -0.6433 -0.4909  0.5357
 7648TIP3   OH222907   7.226   1.977   0.892  0.0765  0.0900 -0.4469
 7648TIP3    H122908   7.168   1.952   0.964 -2.6658 -0.8810 -2.8599
 7648TIP3    H222909   7.243   2.070   0.906  0.6230 -0.3668  2.1201
 7649TIP3   OH222910   4.755   0.806   3.906  0.0101 -0.2653  0.3097
 7649TIP3    H122911   4.701   0.818   3.984 -0.7561 -0.9250 -0.1170
 7649TIP3    H222912   4.825   0.747   3.935 -0.7067 -1.1308  0.2994
 7650TIP3   OH222913   4.304   0.000   5.652  0.3638  0.1973  0.1703
 7650TIP3    H122914   4.226  -0.016   5.706  1.0916  0.7553  1.4170
 7650TIP3    H222915   4.269   0.030   5.568 -0.7852 -0.4583  0.4025
 7651TIP3   OH222916   3.483   2.427   1.214  0.6790  0.1664  0.3012
 7651TIP3    H122917   3.531   2.373   1.151 -1.9992 -1.1699 -0.6802
 7651TIP3    H222918   3.479   2.514   1.173 -1.5415 -0.8342 -1.7018
 7652TIP3   OH222919   0.867   1.151   5.943  0.4175  0.2999 -0.2733
 7652TIP3    H122920   0.799   1.117   5.884  1.5220 -0.1485 -1.3100
 7652TIP3    H222921   0.896   1.074   5.992 -1.1124  0.8330  1.5034
 7653TIP3   OH222922   2.960   6.560   5.736 -0.0699 -0.8149  0.5403
 7653TIP3    H122923   3.003   6.529   5.656  1.8257 -2.4104  2.1360
 7653TIP3    H222924   2.879   6.602   5.705  0.3389 -1.9269 -2.1548
 7654TIP3   OH222925   5.988   0.426   5.867  0.1806 -0.0926 -0.0017
 7654TIP3    H122926   5.904   0.438   5.911 -0.1079  1.5833 -0.9727
 7654TIP3    H222927   6.052   0.423   5.938 -0.3340  2.0137  0.5836
 7655TIP3   OH222928   0.004   6.540   0.849  0.0323  0.0450 -0.0528
 7655TIP3    H122929   0.097   6.542   0.825  0.3635  0.5355  1.2335
 7655TIP3    H222930  -0.024   6.451   0.829  0.9450 -0.2812  0.0963
 7656TIP3   OH222931   2.507   0.294   1.082  0.5906  0.5767 -0.1878
 7656TIP3    H122932   2.462   0.210   1.081  0.0145  0.8344  2.1364
 7656TIP3    H222933   2.494   0.329   0.994 -1.0455 -0.7755 -0.5044
 7657TIP3   OH222934   0.399   5.238   0.227  0.2802  0.4150 -0.1757
 7657TIP3    H122935   0.409   5.254   0.321  3.0741  2.1333 -0.7155
 7657TIP3    H222936   0.310   5.203   0.218 -0.8073  2.1989  2.8495
 7658TIP3   OH222937   1.436   4.828   0.872 -0.2313  0.4149 -0.0773
 7658TIP3    H122938   1.436   4.924   0.883 -1.7438  0.2509  1.7487
 7658TIP3    H222939   1.394   4.814   0.788 -2.1259  1.3032  0.6854
 7659TIP3   OH222940   0.120   1.088   5.947  0.3869 -0.2156  0.4710
 7659TIP3    H122941   0.036   1.116   5.983  0.3118 -2.1540  1.8985
 7659TIP3    H222942   0.106   1.083   5.853 -0.5976  1.0735  0.5314
 7660TIP3   OH222943   5.622   3.731   5.809  0.6575  0.5211 -0.2387
 7660TIP3    H122944   5.643   3.667   5.877 -2.0178 -0.1463  0.0071
 7660TIP3    H222945   5.611   3.813   5.857  1.5195  0.6466 -0.2382
 7661TIP3   OH222946   1.888   6.356   4.908 -0.4300  0.3676  0.0136
 7661TIP3    H122947   1.796   6.363   4.934 -0.4439  1.0817 -0.2237
 7661TIP3    H222948   1.884   6.332   4.815 -0.3747 -0.4423  0.2142
 7662TIP3   OH222949   6.523   0.736   4.919  0.5146 -0.1992  0.2487
 7662TIP3    H122950   6.592   0.687   4.963  0.7207 -0.0782  0.0620
 7662TIP3    H222951   6.564   0.767   4.838  0.4113  0.3588  0.4108
 7663TIP3   OH222952   7.054   4.868   2.071 -0.9511  0.2904  0.2308
 7663TIP3    H122953   6.995   4.829   2.135 -0.4696  0.0875  0.5498
 7663TIP3    H222954   7.140   4.865   2.112 -0.7910  1.0157 -0.0435
 7664TIP3   OH222955   5.503   0.424   5.801 -0.8758  0.2758  0.2386
 7664TIP3    H122956   5.557   0.422   5.722  0.2648 -2.3781  1.0489
 7664TIP3    H222957   5.501   0.517   5.826  2.1016  0.6204 -0.6328
 7665TIP3   OH222958   1.226   4.352   1.472  0.5312 -0.0437 -0.4072
 7665TIP3    H122959   1.253   4.434   1.431  0.0496  0.2113 -0.2159
 7665TIP3    H222960   1.186   4.379   1.555  0.1881 -0.4559 -0.4363
 7666TIP3   OH222961   7.370   5.770   0.836 -0.3363  0.1426 -0.4088
 7666TIP3    H122962   7.313   5.812   0.772 -0.3589 -0.3044 -0.6810
 7666TIP3    H222963   7.459   5.783   0.802 -0.1047  2.5049  0.9664
 7667TIP3   OH222964   3.570   2.683   3.807  0.4522 -0.0883 -0.2142
 7667TIP3    H122965   3.576   2.772   3.773 -0.0760 -0.4693 -1.3250
 7667TIP3    H222966   3.611   2.687   3.894  2.8033  0.6590 -1.3260
 7668TIP3   OH222967   1.214   4.075   1.368  0.3284 -0.4453 -0.1892
 7668TIP3    H122968   1.152   4.081   1.295 -0.0252 -0.2833  0.1280
 7668TIP3    H222969   1.247   4.164   1.379  0.6070 -0.5259 -0.3440
 7669TIP3   OH222970   1.325   0.658   5.847  0.1694 -0.3719  0.3173
 7669TIP3    H122971   1.298   0.619   5.930 -1.2355  1.2974  0.6553
 7669TIP3    H222972   1.385   0.728   5.872 -0.7724  0.5630 -0.0428
 7670TIP3   OH222973   6.204   3.188   5.738 -0.0026  0.6151  0.0981
 7670TIP3    H122974   6.149   3.214   5.813  0.2130  0.9211  0.1499
 7670TIP3    H222975   6.261   3.263   5.724 -0.7298  0.9656 -1.0174
 7671TIP3   OH222976   3.753   1.395   4.812  0.6552 -0.1278  0.0748
 7671TIP3    H122977   3.701   1.323   4.775  1.0515 -1.2311  1.5915
 7671TIP3    H222978   3.809   1.353   4.876  2.5146  1.2523 -0.6107
 7672TIP3   OH222979   4.661   0.850   5.703 -0.8430 -0.1948  0.4725
 7672TIP3    H122980   4.689   0.928   5.751  0.7426  0.2595 -1.1132
 7672TIP3    H222981   4.567   0.844   5.719 -1.2007  2.6485 -0.2247
 7673TIP3   OH222982   5.122   3.159   4.713  0.2473 -0.0766 -0.3284
 7673TIP3    H122983   5.052   3.122   4.766 -1.3771  0.9734 -1.6660
 7673TIP3    H222984   5.111   3.254   4.721  1.9129  0.1076 -0.0541
 7674TIP3   OH222985   5.541   0.740   4.998 -0.2817 -0.2184 -0.4353
 7674TIP3    H122986   5.521   0.726   4.905 -2.2527 -0.8298  0.0535
 7674TIP3    H222987   5.458   0.769   5.036  0.8207  1.2207  0.9070
 7675TIP3   OH222988   1.935   4.618   0.204  0.3763 -0.1502 -0.1171
 7675TIP3    H122989   1.901   4.673   0.134 -0.0168  0.8966  0.8858
 7675TIP3    H222990   1.874   4.544   0.208 -1.2570  1.2143  1.0020
 7676TIP3   OH222991   4.184   3.707   5.520  0.0572  0.0894 -0.3922
 7676TIP3    H122992   4.133   3.768   5.466 -0.0811 -0.3231 -0.7266
 7676TIP3    H222993   4.183   3.625   5.471  1.1236  0.1033 -0.4517
 7677TIP3   OH222994   3.934   1.565   4.685 -0.2264 -0.1576 -0.3322
 7677TIP3    H122995   3.916   1.652   4.721  0.8076 -0.5745  1.2358
 7677TIP3    H222996   3.856   1.514   4.708  0.1828 -0.2696  0.8698
 7678TIP3   OH222997   3.268   0.269   1.597 -0.0769 -0.3997  0.4239
 7678TIP3    H122998   3.241   0.193   1.544 -1.4135  0.0052  0.5143
 7678TIP3    H222999   3.226   0.255   1.681 -1.5593  1.1911 -0.0306
 7679TIP3   OH223000   3.836   3.273   5.135  0.4221  0.9831  0.2425
 7679TIP3    H123001   3.795   3.356   5.112 -0.1643  0.6146 -0.0711
 7679TIP3    H223002   3.930   3.289   5.128  0.2781  1.1274 -1.6128
 7680TIP3   OH223003   1.221   4.904   2.073  0.7516  0.0387  0.5796
 7680TIP3    H123004   1.238   4.843   2.001 -0.4153  1.6994 -1.1255
 7680TIP3    H223005   1.154   4.859   2.126  1.1381 -0.9038  0.2901
 7681TIP3   OH223006  -0.011   6.256   0.686  0.1594  0.1194  0.0643
 7681TIP3    H123007  -0.020   6.174   0.639 -1.4316 -1.4232  2.8908
 7681TIP3    H223008   0.082   6.262   0.707  0.2251 -1.2131  0.1972
 7682TIP3   OH223009   3.100   2.750   5.592  0.3023 -0.2076 -0.1591
 7682TIP3    H123010   3.164   2.733   5.661  1.7638 -0.7112 -1.6078
 7682TIP3    H223011   3.146   2.728   5.511 -1.7613 -0.7545 -1.2167
 7683TIP3   OH223012   6.669   5.724   1.497 -0.3557  0.2584  0.5189
 7683TIP3    H123013   6.755   5.761   1.516 -1.2711  2.4448  0.4520
 7683TIP3    H223014   6.648   5.757   1.409 -0.9559 -0.8615  0.2308
 7684TIP3   OH223015   4.892   1.478   5.966  0.2843 -0.2801  0.0945
 7684TIP3    H123016   4.895   1.573   5.981 -0.9003 -0.0722 -0.8491
 7684TIP3    H223017   4.831   1.468   5.892  1.8428 -1.6387 -1.0505
 7685TIP3   OH223018   0.562   4.560   3.206  0.0851  0.2430  0.0069
 7685TIP3    H123019   0.625   4.491   3.224  0.4325  0.7727  0.8286
 7685TIP3    H223020   0.479   4.514   3.194  0.4508 -0.3730 -0.1750
 7686TIP3   OH223021   3.086   2.512   5.191  0.2450 -0.1465 -0.1892
 7686TIP3    H123022   3.007   2.476   5.231  0.8218 -0.7768  0.4039
 7686TIP3    H223023   3.075   2.496   5.097 -0.2443 -0.3939 -0.0903
 7687TIP3   OH223024   0.127   6.773   0.128  0.5516  0.0057 -0.0467
 7687TIP3    H123025   0.135   6.784   0.033 -0.0125 -0.4026 -0.1476
 7687TIP3    H223026   0.050   6.716   0.139  0.7457 -0.1287  0.6450
 7688TIP3   OH223027   4.148   3.363   1.814  0.4044  0.0375  0.2397
 7688TIP3    H123028   4.083   3.423   1.851  2.0878  2.5306 -0.6968
 7688TIP3    H223029   4.111   3.337   1.730 -0.1763  0.0134  0.4980
 7689TIP3   OH223030   2.115   6.506   5.828 -0.4051 -0.0311  0.5300
 7689TIP3    H123031   2.041   6.552   5.789 -1.2318 -0.7832  1.2032
 7689TIP3    H223032   2.154   6.458   5.755 -0.9494 -0.1293  0.3006
 7690TIP3   OH223033   5.806   0.131   3.297 -0.7107 -0.3971  0.0116
 7690TIP3    H123034   5.851   0.059   3.253 -0.3222  0.6298 -1.3129
 7690TIP3    H223035   5.751   0.171   3.228  0.0842  1.3869  0.3729
 7691TIP3   OH223036   6.354   5.861   0.842  0.5432  0.1942  0.2235
 7691TIP3    H123037   6.330   5.866   0.934 -2.8689 -1.6236 -0.4765
 7691TIP3    H223038   6.351   5.951   0.810 -2.5342  0.3713  0.9241
 7692TIP3   OH223039   6.312   6.174   0.020  0.1644 -0.3295 -0.7515
 7692TIP3    H123040   6.366   6.105   0.059 -0.2763  0.0229  0.5308
 7692TIP3    H223041   6.367   6.253   0.023  0.4483 -0.4956 -1.6539
 7693TIP3   OH223042   7.065   5.264   0.839  0.2128 -0.6084  0.2389
 7693TIP3    H123043   7.110   5.255   0.755  0.7808 -1.7037  0.6488
 7693TIP3    H223044   6.977   5.292   0.816  1.2697  2.2127 -0.5474
 7694TIP3   OH223045   7.190   6.445   0.627  0.0881  0.4697 -0.8588
 7694TIP3    H123046   7.227   6.360   0.651 -1.2858  0.7720  2.7590
 7694TIP3    H223047   7.266   6.500   0.609  1.2114 -0.4516  0.8716
 7695TIP3   OH223048   5.085   2.354   4.446 -0.3921  0.5546  0.0752
 7695TIP3    H123049   5.049   2.426   4.395  0.0493  1.0791  0.4923
 7695TIP3    H223050   5.167   2.389   4.481 -0.3974 -0.0025  0.6438
 7696TIP3   OH223051   2.697   5.086   2.282 -0.3334 -0.2308 -0.3018
 7696TIP3    H123052   2.609   5.123   2.271 -0.3338  0.1938  1.0238
 7696TIP3    H223053   2.740   5.145   2.344  1.1855  0.0460 -1.5902
 7697TIP3   OH223054   1.846   6.530   1.600  0.5300  0.6986 -0.2186
 7697TIP3    H123055   1.918   6.592   1.587  1.2515  0.3704  2.1246
 7697TIP3    H223056   1.774   6.568   1.550  2.4407  0.7507 -3.0751
 7698TIP3   OH223057   6.501   0.035   4.715  0.0514  0.2856 -0.0113
 7698TIP3    H123058   6.526  -0.049   4.753 -1.5888 -0.4557 -0.5186
 7698TIP3    H223059   6.571   0.094   4.740  3.4652 -2.1537 -3.1863
 7699TIP3   OH223060   6.767   0.816   5.684 -0.6387  0.0625  0.3418
 7699TIP3    H123061   6.760   0.803   5.589 -0.7594 -0.6772  0.4517
 7699TIP3    H223062   6.860   0.827   5.700 -0.3929 -1.9650  0.4076
 7700TIP3   OH223063   3.218   5.472   1.806 -0.4603 -0.0762  0.5190
 7700TIP3    H123064   3.192   5.467   1.713 -0.9017 -0.3333  0.6526
 7700TIP3    H223065   3.171   5.549   1.839 -0.5656 -0.1782  0.6082
 7701TIP3   OH223066   0.586   5.770   1.520 -0.2493 -0.0215 -0.0689
 7701TIP3    H123067   0.528   5.840   1.489  1.7138  1.6526 -0.0445
 7701TIP3    H223068   0.592   5.710   1.445  1.1610  1.8775 -1.5244
 7702TIP3   OH223069   0.979   4.983   0.152 -0.3327  0.6303 -0.1886
 7702TIP3    H123070   0.939   4.896   0.157  0.8454  0.1537  1.7737
 7702TIP3    H223071   1.072   4.966   0.139  0.1097  1.5473  1.6245
 7703TIP3   OH223072   5.605   0.447   3.492  0.4036 -0.7882 -0.1478
 7703TIP3    H123073   5.527   0.450   3.437  0.5541  1.1915 -0.2823
 7703TIP3    H223074   5.596   0.365   3.541 -2.6102  0.1990  1.0901
 7704TIP3   OH223075   2.647   0.762   0.069 -0.0082 -0.0333 -0.3094
 7704TIP3    H123076   2.681   0.850   0.084  1.0173 -0.5053  0.1556
 7704TIP3    H223077   2.587   0.772  -0.005  1.1431  0.8103 -1.1419
 7705TIP3   OH223078   0.967   3.751   1.261 -0.6707  0.4404 -0.5187
 7705TIP3    H123079   0.998   3.769   1.172  0.7076 -1.8311 -0.5439
 7705TIP3    H223080   0.939   3.660   1.259 -0.4815  0.3121  1.4237
 7706TIP3   OH223081   0.313   5.098   1.880 -0.1880 -0.0547 -1.0251
 7706TIP3    H123082   0.368   5.078   1.804 -0.0092  0.1445 -0.9474
 7706TIP3    H223083   0.345   5.182   1.912 -1.5346  0.8037 -1.8911
 7707TIP3   OH223084   1.403   5.037   2.221 -0.2130 -0.4694 -0.0074
 7707TIP3    H123085   1.355   4.961   2.187  2.1092 -2.1490  0.3473
 7707TIP3    H223086   1.384   5.037   2.315 -1.1538  0.0863 -0.1976
 7708TIP3   OH223087   0.951  -0.004   1.714  0.2279 -0.3368  1.0325
 7708TIP3    H123088   0.877  -0.037   1.764  1.4722 -0.4419  2.8628
 7708TIP3    H223089   0.926   0.085   1.689 -1.0155 -0.8180  0.5094
 7709TIP3   OH223090   4.779   6.137   1.016  0.6904  0.6225  0.3907
 7709TIP3    H123091   4.865   6.173   0.996  0.7318  2.1405  3.0970
 7709TIP3    H223092   4.764   6.072   0.947  3.0897  1.7758 -1.2906
 7710TIP3   OH223093   0.502   6.861   0.794 -0.7505  0.5892 -0.2610
 7710TIP3    H123094   0.543   6.916   0.861  0.5617 -0.7981  0.1191
 7710TIP3    H223095   0.574   6.833   0.738 -1.3018 -1.1238 -0.1517
 7711TIP3   OH223096   4.240   6.103   5.156  0.2102 -0.3970 -0.8191
 7711TIP3    H123097   4.264   6.077   5.067  2.5327 -1.5466  0.1153
 7711TIP3    H223098   4.285   6.041   5.213 -0.8594  0.6101  1.2015
 7712TIP3   OH223099   0.291   5.987   1.956 -0.3782  0.3372 -0.5745
 7712TIP3    H123100   0.238   6.051   2.003 -1.0952 -1.0955  0.6188
 7712TIP3    H223101   0.380   6.004   1.985 -0.5063  1.1037 -0.6241
 7713TIP3   OH223102   4.492   5.449   1.478  0.3936 -0.0292  0.3756
 7713TIP3    H123103   4.452   5.366   1.505  1.3787 -0.7273 -0.2924
 7713TIP3    H223104   4.418   5.506   1.459 -0.2918 -0.6948  1.0127
 7714TIP3   OH223105   1.524   0.515   1.895 -0.0608  0.5568  0.4706
 7714TIP3    H123106   1.522   0.610   1.907 -0.5424  0.6903 -0.5908
 7714TIP3    H223107   1.484   0.480   1.975  0.6704  1.2141  1.1306
 7715TIP3   OH223108   6.343   6.131   0.865 -0.2845 -0.0353  0.3446
 7715TIP3    H123109   6.433   6.162   0.850 -0.5414  0.3876 -0.3490
 7715TIP3    H223110   6.314   6.177   0.943 -0.6331  1.3992 -0.6297
 7716TIP3   OH223111   3.770   2.294   4.763  0.0496  0.1771  0.2315
 7716TIP3    H123112   3.686   2.256   4.740 -0.2293  0.2448  1.1202
 7716TIP3    H223113   3.807   2.322   4.680 -0.7980  0.1386 -0.1631
 7717TIP3   OH223114   0.738   6.872   2.150 -0.4279 -0.3208  0.0988
 7717TIP3    H123115   0.677   6.883   2.077  1.1591 -0.3476 -1.2899
 7717TIP3    H223116   0.824   6.893   2.112  0.6429 -1.9332  1.5224
 7718TIP3   OH223117   5.770   3.897   0.720 -0.1752 -0.4704 -0.2075
 7718TIP3    H123118   5.736   3.923   0.806 -0.2199 -0.6149 -0.1801
 7718TIP3    H223119   5.716   3.945   0.657  1.1933  1.2139 -0.1189
 7719TIP3   OH223120   6.205   6.166   0.632  0.1648  0.2991 -0.1986
 7719TIP3    H123121   6.247   6.159   0.717 -0.1435 -1.9542 -0.1853
 7719TIP3    H223122   6.129   6.222   0.647 -0.6353 -1.1478  1.3417
 7720TIP3   OH223123   6.092   4.618   1.911 -0.2387  0.4238 -0.4274
 7720TIP3    H123124   6.074   4.685   1.846  1.1937  1.7118  0.4757
 7720TIP3    H223125   6.166   4.652   1.962 -1.2120 -0.6203  1.7716
 7721TIP3   OH223126   5.463   5.459   2.697 -0.3827 -0.5506  0.2318
 7721TIP3    H123127   5.477   5.370   2.664 -2.0026 -0.3908 -0.9778
 7721TIP3    H223128   5.379   5.485   2.659  0.3045  1.6790  0.1589
 7722TIP3   OH223129   5.219   3.904   5.629  0.0922 -0.4215  0.1263
 7722TIP3    H123130   5.256   3.935   5.712  1.2057  1.6075 -1.0988
 7722TIP3    H223131   5.265   3.822   5.611  1.1758  0.0815  0.5906
 7723TIP3   OH223132   1.800   5.223   2.373  0.7558  0.6223  0.3301
 7723TIP3    H123133   1.804   5.176   2.290  1.4661 -0.9362  1.2348
 7723TIP3    H223134   1.876   5.193   2.422  1.9269  3.6385  0.4639
 7724TIP3   OH223135   3.488   0.383   5.997 -0.1086  0.1040  0.0453
 7724TIP3    H123136   3.438   0.334   5.933 -0.3442 -0.1339  0.4138
 7724TIP3    H223137   3.512   0.464   5.952 -1.3926  0.5156  0.0831
 7725TIP3   OH223138   1.234   4.568   0.156  0.2626  0.2678  0.3242
 7725TIP3    H123139   1.199   4.480   0.171 -1.3710  1.0795  1.5420
 7725TIP3    H223140   1.239   4.577   0.061 -3.1996  0.1877  0.0620
 7726TIP3   OH223141   0.029   0.858   5.451 -0.2803  0.2752 -0.0166
 7726TIP3    H123142   0.033   0.865   5.546 -0.8773  0.7366 -0.0275
 7726TIP3    H223143   0.062   0.770   5.433  0.0938  0.2847  0.5961
 7727TIP3   OH223144   2.284   4.033   0.631  0.0740  0.1016  0.4609
 7727TIP3    H123145   2.297   4.127   0.638  0.8292 -0.0173  0.6878
 7727TIP3    H223146   2.249   4.020   0.543  0.4027  0.5464  0.2637
 7728TIP3   OH223147   0.614   1.112   5.468  0.0374 -0.7811  0.3371
 7728TIP3    H123148   0.610   1.206   5.453  1.2064 -0.4892  1.7442
 7728TIP3    H223149   0.671   1.079   5.399 -0.5328 -0.5014 -0.2793
 7729TIP3   OH223150   1.180   1.440   5.060 -0.2266  0.3159 -0.3114
 7729TIP3    H123151   1.255   1.497   5.078 -0.0021 -0.1893  0.3717
 7729TIP3    H223152   1.211   1.382   4.990 -0.1975  0.5142 -0.4654
 7730TIP3   OH223153   5.016   1.480   5.393 -0.2196  0.0049 -0.2059
 7730TIP3    H123154   5.112   1.472   5.389 -0.0484  0.4478  2.3310
 7730TIP3    H223155   4.984   1.406   5.341  1.5040 -0.7345 -0.2579
 7731TIP3   OH223156   7.178   1.796   4.151 -0.7336  0.0104 -0.0494
 7731TIP3    H123157   7.140   1.725   4.100 -0.0735 -0.4629  0.1139
 7731TIP3    H223158   7.259   1.819   4.105 -0.1876 -0.3478  0.7078
 7732TIP3   OH223159   0.627   1.400   5.474  0.3048 -0.4273  0.3874
 7732TIP3    H123160   0.626   1.439   5.561 -0.2623  1.0142 -0.2418
 7732TIP3    H223161   0.702   1.441   5.431 -2.0898  2.4165 -1.3165
 7733TIP3   OH223162   6.537   2.510   5.740  0.0569 -0.2693 -0.0397
 7733TIP3    H123163   6.505   2.532   5.828 -1.9885 -1.7205 -0.3689
 7733TIP3    H223164   6.506   2.583   5.685  0.4285  0.1173  0.2593
 7734TIP3   OH223165   6.939   6.797   1.567  1.3734  0.0310 -0.4391
 7734TIP3    H123166   7.002   6.804   1.638  2.8094  2.2036 -1.8783
 7734TIP3    H223167   6.902   6.885   1.559 -1.6192 -1.1032  0.1270
 7735TIP3   OH223168   6.138   1.751   5.293  0.1381  0.3601  0.2062
 7735TIP3    H123169   6.090   1.741   5.211 -1.3719  0.2123  1.0779
 7735TIP3    H223170   6.161   1.662   5.319 -2.5436  0.0306  1.7267
 7736TIP3   OH223171   6.135   1.073   5.184 -0.4731  0.1149 -1.1150
 7736TIP3    H123172   6.211   1.027   5.148  0.6330 -0.4865  1.8519
 7736TIP3    H223173   6.107   1.132   5.114  2.3885 -0.0571 -2.4650
 7737TIP3   OH223174   3.806   5.557   1.013  0.1828 -0.1055  0.1759
 7737TIP3    H123175   3.724   5.598   1.040  0.1180  0.2045 -0.4829
 7737TIP3    H223176   3.850   5.535   1.095 -1.4525 -2.0814  0.5645
 7738TIP3   OH223177   1.336   1.430   5.334 -0.4684 -0.4909  0.2401
 7738TIP3    H123178   1.357   1.442   5.426 -0.1807 -0.2751  0.1463
 7738TIP3    H223179   1.388   1.354   5.306  0.7254  0.4639 -0.1649
 7739TIP3   OH223180   7.099   0.146   5.401  0.5315 -0.5490  0.1051
 7739TIP3    H123181   7.117   0.229   5.356 -0.4862 -0.2792  0.1871
 7739TIP3    H223182   7.165   0.086   5.367 -0.0663 -0.2845 -1.5664
 7740TIP3   OH223183   1.361   3.708   2.128  0.0983 -0.5696 -0.4838
 7740TIP3    H123184   1.308   3.747   2.059  0.9663  0.2195 -0.7120
 7740TIP3    H223185   1.297   3.676   2.192 -0.6426  1.3664 -0.2132
 7741TIP3   OH223186   0.432   0.612   3.790  0.0334  0.1250 -0.2337
 7741TIP3    H123187   0.478   0.680   3.741  1.5963 -1.2700 -0.7730
 7741TIP3    H223188   0.471   0.530   3.758 -1.2925 -0.9697  0.9274
 7742TIP3   OH223189   0.976   4.876   0.474  0.3415  0.6585  0.8180
 7742TIP3    H123190   0.933   4.961   0.471 -1.6141 -0.1926  2.9381
 7742TIP3    H223191   0.945   4.829   0.397  0.4162  1.3901  0.3430
 7743TIP3   OH223192   7.208   2.326   5.746 -0.3149 -0.3066  0.1708
 7743TIP3    H123193   7.295   2.355   5.771 -0.3087 -0.4055  0.2655
 7743TIP3    H223194   7.156   2.333   5.827 -0.6565  0.7474 -0.1353
 7744TIP3   OH223195   0.838   6.770   2.393  0.3074 -0.3780 -0.3220
 7744TIP3    H123196   0.750   6.795   2.422  0.0143 -2.6841  0.9281
 7744TIP3    H223197   0.838   6.788   2.299 -1.3751 -0.0133 -0.2755
 7745TIP3   OH223198   0.646   3.231   1.932  0.4394 -0.3161 -0.3981
 7745TIP3    H123199   0.701   3.309   1.939  0.6806 -0.3616 -1.6471
 7745TIP3    H223200   0.564   3.254   1.976  0.3209  0.8090 -1.2109
 7746TIP3   OH223201   0.110   1.756   5.725 -0.9882 -0.1935 -0.2712
 7746TIP3    H123202   0.063   1.793   5.650 -2.2839 -0.4062  0.4183
 7746TIP3    H223203   0.165   1.828   5.757 -0.6730 -0.0035 -1.2132
 7747TIP3   OH223204   3.931   0.600   4.740  0.2696  0.1711  1.1687
 7747TIP3    H123205   3.909   0.669   4.678 -0.2539  0.3582  1.5552
 7747TIP3    H223206   3.880   0.525   4.711  0.5511  0.0556  0.9693
 7748TIP3   OH223207   1.609   6.023   2.249  0.0226  0.5577  0.4480
 7748TIP3    H123208   1.689   6.018   2.302  1.0516  0.2470 -1.0868
 7748TIP3    H223209   1.638   6.059   2.166 -1.2201 -0.6612 -0.5415
 7749TIP3   OH223210   1.541   5.874   0.149 -0.1204 -0.0742 -0.3623
 7749TIP3    H123211   1.582   5.918   0.224  1.5068 -2.1826  0.0682
 7749TIP3    H223212   1.452   5.856   0.177  0.0939  0.3143  0.5910
 7750TIP3   OH223213   7.081   3.072   4.989 -0.6495 -0.5190 -0.0412
 7750TIP3    H123214   7.118   3.018   5.059  0.1011  0.5287  0.3842
 7750TIP3    H223215   7.142   3.060   4.915  1.6296  2.6042  1.2193
 7751TIP3   OH223216   1.512   3.916   0.417  0.1675  0.2786  0.5788
 7751TIP3    H123217   1.495   3.830   0.379 -0.5723  0.3456  0.7407
 7751TIP3    H223218   1.494   3.904   0.511 -1.7546  1.0597  0.3437
 7752TIP3   OH223219   7.275   1.535   4.842 -0.0385 -0.1058 -0.3021
 7752TIP3    H123220   7.258   1.610   4.786  0.1218 -0.7435 -1.2072
 7752TIP3    H223221   7.208   1.540   4.910 -0.1729  0.7162 -0.4933
 7753TIP3   OH223222   6.365   1.942   6.047 -0.1980  0.2017  0.4131
 7753TIP3    H123223   6.402   2.030   6.048  0.2800  0.0279  3.6888
 7753TIP3    H223224   6.439   1.885   6.022 -0.5614  0.7198 -1.9083
 7754TIP3   OH223225   5.938   0.853   3.897 -0.2715 -0.0068  0.0394
 7754TIP3    H123226   5.961   0.928   3.842 -0.5721  0.2040  0.1995
 7754TIP3    H223227   5.998   0.783   3.870 -1.0660 -0.2037 -1.2262
 7755TIP3   OH223228   6.004   0.071   3.044 -0.2061  0.3101  0.2907
 7755TIP3    H123229   6.079   0.018   3.018  0.1816  0.6727  0.6561
 7755TIP3    H223230   5.930   0.033   2.996  0.1740 -0.1687  0.0763
 7756TIP3   OH223231   1.141   2.137   0.659  0.3782  0.4407 -0.0090
 7756TIP3    H123232   1.178   2.134   0.571  0.7504 -1.9447  0.2060
 7756TIP3    H223233   1.049   2.110   0.648  0.3267  0.4843  0.2903
 7757TIP3   OH223234   6.207   2.315   4.216  0.4672 -0.3301  0.9853
 7757TIP3    H123235   6.216   2.362   4.299  1.3449 -0.7671  1.1381
 7757TIP3    H223236   6.139   2.250   4.232  1.4657 -1.2109  1.7287
 7758TIP3   OH223237   6.619   3.072   5.617  1.1470 -0.7206  0.0558
 7758TIP3    H123238   6.693   3.125   5.587  0.9524 -0.2981  0.3217
 7758TIP3    H223239   6.558   3.072   5.544  0.5474  0.5403  0.5427
 7759TIP3   OH223240   0.685   0.569   4.808 -0.2316  0.6196  0.7262
 7759TIP3    H123241   0.694   0.481   4.845 -1.6346  0.5255  0.8820
 7759TIP3    H223242   0.764   0.581   4.756  0.1478 -0.5947  0.9993
 7760TIP3   OH223243   7.150   2.028   5.655 -0.0306  0.9100  0.0367
 7760TIP3    H123244   7.184   2.114   5.679  0.0344  0.7228  0.6105
 7760TIP3    H223245   7.066   2.046   5.614 -1.1259  1.0834  2.3244
 7761TIP3   OH223246   2.394   5.914   0.078  0.4634 -0.6120 -0.7571
 7761TIP3    H123247   2.417   5.824   0.055 -0.0297 -0.6054 -1.2922
 7761TIP3    H223248   2.379   5.957  -0.007  0.7361 -0.0165 -0.5050
 7762TIP3   OH223249   4.987   0.749   1.260 -0.3517 -0.4864 -0.2751
 7762TIP3    H123250   4.946   0.738   1.175  0.1622  0.6519 -0.6916
 7762TIP3    H223251   4.917   0.780   1.317 -0.3840  0.1208 -0.6420
 7763TIP3   OH223252   6.294   0.947   3.924  0.1620  0.5058 -0.2395
 7763TIP3    H123253   6.220   0.945   3.863 -0.4423  0.5105  0.4950
 7763TIP3    H223254   6.254   0.944   4.011  1.0091  0.9395  0.1681
 7764TIP3   OH223255   1.313   5.872   0.364  0.0619 -0.3238 -0.0198
 7764TIP3    H123256   1.345   5.939   0.424  1.2255 -0.8569 -0.0296
 7764TIP3    H223257   1.249   5.822   0.415 -1.1440  1.0500 -0.1480
 7765TIP3   OH223258   0.298   4.279   2.923  0.4050  0.1505 -0.2723
 7765TIP3    H123259   0.257   4.193   2.909  0.0919  0.2567 -0.0303
 7765TIP3    H223260   0.285   4.325   2.840  3.1508 -1.0629 -1.4251
 7766TIP3   OH223261   1.214   5.797   1.097  0.4419  0.2561  1.0023
 7766TIP3    H123262   1.133   5.825   1.139  0.2965 -0.9219  1.4935
 7766TIP3    H223263   1.266   5.878   1.090  0.2333  0.5786  2.8866
 7767TIP3   OH223264   5.345   5.326   1.164 -0.1385  0.1859 -0.6597
 7767TIP3    H123265   5.381   5.405   1.123  2.0105 -0.4075  0.0206
 7767TIP3    H223266   5.395   5.254   1.125 -2.3019 -0.8908 -1.5055
 7768TIP3   OH223267   1.082   4.731   1.003 -0.3225  0.3969 -0.0060
 7768TIP3    H123268   1.078   4.817   1.044 -1.1800  0.2203  0.2935
 7768TIP3    H223269   1.169   4.698   1.025  0.7854  1.9952 -1.8052
 7769TIP3   OH223270   2.274   5.204   0.624 -0.6951 -0.1866  0.0175
 7769TIP3    H123271   2.198   5.232   0.573 -0.2765 -1.3870 -1.2731
 7769TIP3    H223272   2.257   5.112   0.645  0.2430 -0.3682  0.0162
 7770TIP3   OH223273   0.982   5.666   0.742  0.2702  0.3390 -0.4905
 7770TIP3    H123274   1.067   5.687   0.781  0.7800 -0.0659 -1.3606
 7770TIP3    H223275   0.937   5.750   0.736 -0.8045  0.0732  3.2445
 7771TIP3   OH223276   5.905   4.648   4.745  0.2675 -0.2202 -0.7396
 7771TIP3    H123277   5.871   4.586   4.809 -0.2251  1.1054  0.2976
 7771TIP3    H223278   5.998   4.628   4.738  0.5316  0.2966  1.1625
 7772TIP3   OH223279   2.640   5.613   1.912  0.6173 -0.0529 -0.1754
 7772TIP3    H123280   2.575   5.662   1.861 -0.8175 -0.2594  1.3997
 7772TIP3    H223281   2.657   5.668   1.988  3.1893  0.5239 -1.1379
 7773TIP3   OH223282   4.309   3.963   0.162  0.4377 -1.0060 -0.6103
 7773TIP3    H123283   4.325   3.904   0.088  0.1718 -0.6675 -0.9409
 7773TIP3    H223284   4.388   4.016   0.167  0.7095 -1.4325 -0.2652
 7774TIP3   OH223285   2.993   4.207   5.633 -0.4932 -0.1326  0.7517
 7774TIP3    H123286   3.066   4.187   5.692  0.7968 -0.4145 -0.8928
 7774TIP3    H223287   2.915   4.185   5.683  0.6169 -1.6218  1.8980
 7775TIP3   OH223288   5.195   1.407   1.664  0.0858  0.3948 -0.4836
 7775TIP3    H123289   5.130   1.474   1.687  0.0655  0.6213 -1.1948
 7775TIP3    H223290   5.273   1.457   1.640  1.0116  0.0942  1.7982
 7776TIP3   OH223291   4.612   1.700   0.224  0.3657  0.0601  0.3837
 7776TIP3    H123292   4.648   1.708   0.136 -0.1089 -1.3095  0.0536
 7776TIP3    H223293   4.606   1.605   0.239 -2.1016  0.2639  0.8355
 7777TIP3   OH223294   2.053   2.434   5.932 -0.7098 -0.0636  0.5028
 7777TIP3    H123295   2.093   2.350   5.908  1.0542  0.1494  2.5414
 7777TIP3    H223296   1.996   2.456   5.858  2.9364 -0.3684 -2.5182
 7778TIP3   OH223297   6.083   0.014   1.486 -0.5074  0.0757 -0.6325
 7778TIP3    H123298   6.019  -0.054   1.508 -0.0384 -0.2068 -0.1466
 7778TIP3    H223299   6.037   0.069   1.422 -0.9028 -0.6794 -1.0134
 7779TIP3   OH223300   1.340   1.985   5.923  0.2456  0.8423  0.6858
 7779TIP3    H123301   1.394   2.007   5.847  0.4931 -1.3577  0.1685
 7779TIP3    H223302   1.251   1.977   5.888  0.4126 -0.5050  0.5322
 7780TIP3   OH223303   4.141   6.520   1.430 -0.1131 -0.2687  0.1217
 7780TIP3    H123304   4.166   6.611   1.441  0.4054 -0.2659 -0.9544
 7780TIP3    H223305   4.096   6.496   1.511  0.4663  0.7023  0.7249
 7781TIP3   OH223306   4.183   5.520   1.664 -0.8248  0.2571 -0.0911
 7781TIP3    H123307   4.257   5.557   1.615 -0.3095 -1.0001 -0.2816
 7781TIP3    H223308   4.106   5.539   1.611 -0.3071 -0.8148 -1.2450
 7782TIP3   OH223309   6.836   2.228   5.327  0.5319  0.2882  0.2708
 7782TIP3    H123310   6.819   2.164   5.258 -0.4250  0.5144  0.2924
 7782TIP3    H223311   6.924   2.261   5.308  0.5609 -0.1767 -0.4175
 7783TIP3   OH223312   0.563   2.733   4.646  0.1284  0.0644  0.7711
 7783TIP3    H123313   0.635   2.783   4.608  1.2262 -1.3447  0.9411
 7783TIP3    H223314   0.492   2.796   4.657  1.5464  1.6166  1.1573
 7784TIP3   OH223315   4.110   2.642   1.444  0.4246  0.0130 -1.2235
 7784TIP3    H123316   4.142   2.672   1.529  0.3711 -0.6631 -0.9626
 7784TIP3    H223317   4.123   2.548   1.445 -2.0387 -0.3498 -0.9167
 7785TIP3   OH223318   0.946   1.153   5.579 -0.4821  0.5193 -0.2100
 7785TIP3    H123319   0.851   1.158   5.591 -0.6407 -0.2816 -1.0530
 7785TIP3    H223320   0.980   1.227   5.628 -1.4937  0.4223  0.6576
 7786TIP3   OH223321   6.648   0.398   1.450  0.1342 -0.1573 -0.1818
 7786TIP3    H123322   6.735   0.433   1.473  0.4492 -0.7233 -0.5075
 7786TIP3    H223323   6.666   0.309   1.420 -0.8693 -1.3346  2.5779
 7787TIP3   OH223324   3.905   6.826   1.946 -0.3042  0.0581  0.0055
 7787TIP3    H123325   3.867   6.739   1.937 -0.9170  0.2065  1.1262
 7787TIP3    H223326   3.986   6.822   1.894 -2.3116  0.0836 -3.2788
 7788TIP3   OH223327   6.594   0.126   0.122 -0.2185 -0.1395  0.4716
 7788TIP3    H123328   6.543   0.089   0.195  0.1194  0.3648  0.9617
 7788TIP3    H223329   6.600   0.054   0.059  0.3678 -0.9073  1.3907
 7789TIP3   OH223330   5.110   6.403   1.115  0.2172 -0.4643  0.2261
 7789TIP3    H123331   5.118   6.378   1.207  1.5131 -0.5183  0.1141
 7789TIP3    H223332   5.201   6.411   1.085 -0.1500  2.7013 -0.1794
 7790TIP3   OH223333   4.133   5.647   2.758  0.4383 -0.3197  0.1575
 7790TIP3    H123334   4.140   5.561   2.798 -0.0336 -1.0318 -1.2655
 7790TIP3    H223335   4.097   5.703   2.828  0.2540 -1.3768  0.9214
 7791TIP3   OH223336   2.493   4.890   0.713 -0.6446  0.3447  0.6339
 7791TIP3    H123337   2.402   4.877   0.740 -0.7063 -1.0144 -0.1517
 7791TIP3    H223338   2.544   4.854   0.785 -0.7110  1.7823  1.4071
 7792TIP3   OH223339   3.488   0.274   1.975  0.3153  0.3879  0.4815
 7792TIP3    H123340   3.539   0.281   2.055  0.0502  1.6531  0.5525
 7792TIP3    H223341   3.411   0.330   1.990 -0.1251  0.0285 -0.3538
 7793TIP3   OH223342   0.717   1.809   4.855  0.1402 -0.4501  0.1754
 7793TIP3    H123343   0.787   1.873   4.872 -0.7825  0.8212 -0.7237
 7793TIP3    H223344   0.669   1.845   4.781 -1.1413 -1.5976  0.4242
 7794TIP3   OH223345   3.333   0.311   0.390 -0.5011 -0.4810  0.2856
 7794TIP3    H123346   3.413   0.260   0.396  0.5385  1.1044  0.3409
 7794TIP3    H223347   3.313   0.335   0.481  0.6453  1.5905  0.0413
 7795TIP3   OH223348   4.550   6.503   1.218  0.4809  0.1423  0.0318
 7795TIP3    H123349   4.487   6.525   1.149 -0.1157 -1.1783  0.1333
 7795TIP3    H223350   4.598   6.584   1.233 -0.7601  1.0000 -0.5079
 7796TIP3   OH223351   0.145   0.312   4.665 -0.4293  0.0651  0.5525
 7796TIP3    H123352   0.207   0.273   4.603  0.8254  0.5619  1.4728
 7796TIP3    H223353   0.072   0.342   4.610  0.6268  0.4222 -0.6874
 7797TIP3   OH223354   0.850   2.201   5.922  0.4531 -0.0880  0.0644
 7797TIP3    H123355   0.862   2.248   6.004  0.3236  0.1446 -0.0475
 7797TIP3    H223356   0.937   2.198   5.882  0.2752  1.0178 -0.4391
 7798TIP3   OH223357   1.376   2.701   5.459  0.2556  0.0853 -0.7035
 7798TIP3    H123358   1.459   2.711   5.505  0.7654  0.3540 -1.6943
 7798TIP3    H223359   1.398   2.702   5.366 -0.8449  0.1116 -0.9781
 7799TIP3   OH223360   0.855   0.561   0.300  0.2563  0.0226  0.4969
 7799TIP3    H123361   0.779   0.555   0.358  0.4370 -2.5725  0.5391
 7799TIP3    H223362   0.831   0.510   0.222  0.7273  1.9007 -0.9304
 7800TIP3   OH223363   0.318   2.870   1.663 -0.4009 -0.6153 -0.2072
 7800TIP3    H123364   0.372   2.949   1.661 -0.5585 -0.5180 -0.6218
 7800TIP3    H223365   0.377   2.801   1.691 -0.3406 -0.2852  0.4892
 7801TIP3   OH223366   5.807   0.990   6.015 -0.4024  0.1869 -0.6990
 7801TIP3    H123367   5.891   0.947   5.999 -0.3661 -1.0399  2.4195
 7801TIP3    H223368   5.760   0.931   6.073 -2.3273  2.1151 -0.2072
 7802TIP3   OH223369   3.614   4.790   0.952  0.0361 -0.5876  0.3785
 7802TIP3    H123370   3.665   4.744   0.886  0.4680 -0.4751  0.6260
 7802TIP3    H223371   3.639   4.882   0.941 -2.0663 -0.1614 -1.2235
 7803TIP3   OH223372   3.389   6.783   1.538  0.1224 -0.0570  0.0328
 7803TIP3    H123373   3.444   6.746   1.468  1.1236 -0.4879  1.0389
 7803TIP3    H223374   3.319   6.718   1.550 -1.3780  1.0765 -2.1163
 7804TIP3   OH223375   4.449   6.943   1.560  0.0200  0.2693 -0.1178
 7804TIP3    H123376   4.375   6.950   1.620  0.1484  3.4112 -0.2591
 7804TIP3    H223377   4.505   7.018   1.582  2.4803 -1.2738 -0.9334
 7805TIP3   OH223378   0.901   2.516   4.461  0.0849  0.2917  0.4150
 7805TIP3    H123379   0.933   2.520   4.371  1.5586  1.8610  0.9765
 7805TIP3    H223380   0.963   2.459   4.507  0.3077  0.8398  0.8045
 7806TIP3   OH223381   2.872   5.766   0.226 -0.0696 -0.7079 -0.3568
 7806TIP3    H123382   2.898   5.791   0.314  0.7977 -0.8008 -0.5762
 7806TIP3    H223383   2.779   5.745   0.232 -0.2998  0.4911  0.2756
 7807TIP3   OH223384   4.125   6.035   2.728 -0.3001  0.4768  0.8539
 7807TIP3    H123385   4.061   5.996   2.668  1.0427 -0.4445 -0.0074
 7807TIP3    H223386   4.099   6.005   2.815 -0.3015 -0.9428  0.3750
 7808TIP3   OH223387   7.091   2.826   5.986 -0.5599  0.8863 -0.2918
 7808TIP3    H123388   7.157   2.892   5.963 -0.6025  1.1029  0.2131
 7808TIP3    H223389   7.007   2.871   5.975 -0.7064  0.1408 -2.5095
 7809TIP3   OH223390   5.657   6.383   2.209  0.0867  0.1283 -0.6005
 7809TIP3    H123391   5.713   6.418   2.139  1.2546 -1.1928 -0.3436
 7809TIP3    H223392   5.698   6.415   2.290  0.6205 -1.0413 -0.4014
 7810TIP3   OH223393   4.970   6.851   3.587 -0.7582 -0.0885 -0.6893
 7810TIP3    H123394   4.992   6.759   3.602 -0.2928 -0.0506 -1.1245
 7810TIP3    H223395   4.955   6.857   3.492 -0.3248  0.3832 -0.7273
 7811TIP3   OH223396   4.037   6.873   0.887 -0.3898 -0.2183 -1.1303
 7811TIP3    H123397   4.047   6.782   0.857  0.6627  0.0186 -1.5456
 7811TIP3    H223398   4.080   6.875   0.972 -0.2179 -0.0714 -1.2181
 7812TIP3   OH223399   4.027   6.094   1.209 -0.4902  0.0121  0.3521
 7812TIP3    H123400   3.976   6.038   1.151  0.5710 -0.4252 -0.1701
 7812TIP3    H223401   4.048   6.171   1.156  1.8525 -1.1027 -0.3998
 7813TIP3   OH223402   5.911   6.109   0.495 -0.3400  0.3697 -0.4738
 7813TIP3    H123403   5.987   6.100   0.437 -1.0563 -0.7523 -1.2592
 7813TIP3    H223404   5.932   6.185   0.550  0.9059  0.6803 -1.3462
 7814TIP3   OH223405   5.979   0.423   2.296 -0.4645 -0.3466  0.3567
 7814TIP3    H123406   5.931   0.445   2.376 -1.6220  0.6030 -0.5877
 7814TIP3    H223407   5.941   0.479   2.229  1.0029 -0.6102 -0.7153
 7815TIP3   OH223408   3.176   5.524   1.531  0.3178  0.1024  0.5751
 7815TIP3    H123409   3.222   5.511   1.448 -0.7278  0.9371 -0.1464
 7815TIP3    H223410   3.103   5.582   1.509  1.5321  2.5115  2.5675
 7816TIP3   OH223411   2.957   4.802   0.683  0.2469  0.0476 -0.2429
 7816TIP3    H123412   2.922   4.768   0.600  0.9810 -2.4419  0.4229
 7816TIP3    H223413   2.880   4.824   0.735 -0.2717 -1.1341 -0.4975
 7817TIP3   OH223414   3.608   5.982   1.007 -0.0709 -0.0155  0.1100
 7817TIP3    H123415   3.615   5.991   0.912 -0.2264 -1.4712 -0.0504
 7817TIP3    H223416   3.560   6.060   1.035 -0.9612 -0.1043 -1.1278
 7818TIP3   OH223417   4.462   0.365   1.249  0.1848 -0.5754  0.2502
 7818TIP3    H123418   4.482   0.391   1.159 -1.4027 -0.7272 -0.1664
 7818TIP3    H223419   4.481   0.443   1.301  2.7122 -0.9987  0.0356
 7819TIP3   OH223420   7.139   3.258   4.676 -0.0204 -0.2003  0.4154
 7819TIP3    H123421   7.141   3.299   4.762 -1.0582  1.1856 -0.2061
 7819TIP3    H223422   7.057   3.289   4.636 -0.2161 -1.8623 -0.5624
 7820TIP3   OH223423   3.517   3.455   5.089 -0.1756 -0.2025  0.0123
 7820TIP3    H123424   3.599   3.502   5.080 -0.0137  0.1550  2.8386
 7820TIP3    H223425   3.450   3.524   5.092 -0.5534 -0.4692 -1.8211
 7821TIP3   OH223426   5.442   2.291   2.739 -0.1161 -0.3230 -0.0548
 7821TIP3    H123427   5.448   2.229   2.811 -0.5588 -0.6329 -0.2776
 7821TIP3    H223428   5.503   2.361   2.762 -0.6956 -0.1236  0.9083
 7822TIP3   OH223429   3.808   0.283   0.579  0.5423  0.1035 -0.2183
 7822TIP3    H123430   3.899   0.265   0.602  0.7426  0.8656 -0.4083
 7822TIP3    H223431   3.808   0.289   0.484  0.2408 -0.1628 -0.2367
 7823TIP3   OH223432   7.193   2.613   0.152  0.7001  0.3890 -0.4864
 7823TIP3    H123433   7.120   2.552   0.166  0.6548  0.7449  0.8941
 7823TIP3    H223434   7.159   2.677   0.089  0.1345  0.0221 -0.5567
 7824TIP3   OH223435   4.385   5.562   0.517 -0.5749 -0.4103 -0.1318
 7824TIP3    H123436   4.352   5.600   0.436 -0.6556  1.7818  0.8945
 7824TIP3    H223437   4.384   5.634   0.580  1.0788 -1.6508  1.3739
 7825TIP3   OH223438   0.812   2.137   0.907 -0.0371 -0.1029  0.3317
 7825TIP3    H123439   0.834   2.061   0.962 -2.4733 -1.7922 -0.9769
 7825TIP3    H223440   0.854   2.118   0.823  0.1732  0.4719  0.3095
 7826TIP3   OH223441   6.842   0.303   0.090 -0.1156  0.0221  0.0620
 7826TIP3    H123442   6.757   0.265   0.113 -0.4205 -0.1237 -1.2650
 7826TIP3    H223443   6.825   0.351   0.009  0.4874  2.1598  1.1494
 7827TIP3   OH223444   6.465   1.392   1.208 -0.1814  0.4182  0.2074
 7827TIP3    H123445   6.536   1.448   1.176  0.6942 -0.8611 -0.1331
 7827TIP3    H223446   6.509   1.329   1.265 -0.9448 -0.8026 -0.5318
 7828TIP3   OH223447   0.399   1.600   5.687  0.2393  0.5724  0.3382
 7828TIP3    H123448   0.421   1.693   5.691  0.5202  0.5430 -0.4015
 7828TIP3    H223449   0.304   1.599   5.680  0.2682  0.8181 -0.0994
 7829TIP3   OH223450   5.083   6.196   2.650  0.0678 -0.2396  0.1154
 7829TIP3    H123451   5.151   6.243   2.603 -0.7354 -0.3585 -1.1762
 7829TIP3    H223452   5.011   6.260   2.657 -0.1568 -0.5213  0.3752
 7830TIP3   OH223453   2.500   6.220   1.668  0.4502  0.3460  0.4774
 7830TIP3    H123454   2.521   6.164   1.743  2.0849  0.9653  0.4976
 7830TIP3    H223455   2.408   6.244   1.680  0.7999  0.7176  2.4631
 7831TIP3   OH223456   6.557   0.309   2.511  0.4330 -0.6373 -0.5462
 7831TIP3    H123457   6.554   0.232   2.454 -0.2796  0.9837 -2.7585
 7831TIP3    H223458   6.466   0.334   2.524  0.5625 -1.1706  1.6267
 7832TIP3   OH223459   1.113   2.016   5.295  0.2021  0.3806  0.0635
 7832TIP3    H123460   1.050   2.005   5.224  0.3917  1.4826 -0.2752
 7832TIP3    H223461   1.187   2.062   5.256 -0.2590  2.2151  1.2657
 7833TIP3   OH223462   1.374   1.711   5.881 -0.3718 -0.3863  0.1736
 7833TIP3    H123463   1.349   1.690   5.971 -1.3822  0.5027  0.1052
 7833TIP3    H223464   1.357   1.805   5.873  2.5444  0.1780 -0.0165
 7834TIP3   OH223465   5.179   4.375   0.579 -0.2377  0.0611 -0.3860
 7834TIP3    H123466   5.115   4.333   0.522 -0.7626 -0.2091  0.3864
 7834TIP3    H223467   5.141   4.368   0.667 -0.2123  1.9588 -0.2147
 7835TIP3   OH223468   0.382   1.201   3.320 -0.0495  0.0283  0.2049
 7835TIP3    H123469   0.392   1.276   3.378 -0.1255  0.2350 -0.0460
 7835TIP3    H223470   0.463   1.152   3.331  1.2696  1.6557 -1.7531
 7836TIP3   OH223471   6.434   6.721   0.196  0.1697  0.2193 -0.3870
 7836TIP3    H123472   6.371   6.652   0.217  1.2642 -0.8499 -0.5680
 7836TIP3    H223473   6.517   6.676   0.188  0.9063  1.5732 -0.5140
 7837TIP3   OH223474   1.649   2.655   5.392  0.0624  0.0401  0.0251
 7837TIP3    H123475   1.674   2.570   5.356  0.7082  0.4404 -0.4817
 7837TIP3    H223476   1.690   2.657   5.479 -0.0519 -0.2180  0.0842
 7838TIP3   OH223477   6.535   0.788   0.619 -0.5608 -0.0536  0.1294
 7838TIP3    H123478   6.600   0.718   0.621 -0.7805 -0.3043 -1.0174
 7838TIP3    H223479   6.581   0.864   0.655 -0.4190 -0.8459  1.6720
 7839TIP3   OH223480   6.863   0.297   1.192 -0.2005  0.3198 -0.5299
 7839TIP3    H123481   6.825   0.360   1.131  2.2950  1.1322 -1.2668
 7839TIP3    H223482   6.934   0.256   1.144  0.4308 -0.5599  1.1164
 7840TIP3   OH223483   2.995   6.354   1.791  0.4713  0.1101  0.2858
 7840TIP3    H123484   2.994   6.263   1.762 -2.5127  0.1868 -0.0293
 7840TIP3    H223485   3.000   6.405   1.710 -0.8755  0.2301  0.2593
 7841TIP3   OH223486   7.127   3.985   5.956  0.0681  0.1510  0.3135
 7841TIP3    H123487   7.142   4.073   5.921  1.1347  0.2753  1.0538
 7841TIP3    H223488   7.194   3.931   5.914 -0.8606 -0.4143 -0.4779
 7842TIP3   OH223489   1.105   2.243   5.465  0.1726 -0.1525  0.3044
 7842TIP3    H123490   1.176   2.259   5.403  1.7475 -0.9987  1.8504
 7842TIP3    H223491   1.075   2.155   5.444 -0.0681  0.0002  0.0012
 7843TIP3   OH223492   0.499   0.680   1.821  0.0455 -0.5459 -0.0121
 7843TIP3    H123493   0.424   0.659   1.877 -0.8018  0.6651 -0.6546
 7843TIP3    H223494   0.549   0.744   1.872  0.9045 -1.7002  0.6105
 7844TIP3   OH223495   4.608   4.240   0.786  0.5481  0.1303  0.0921
 7844TIP3    H123496   4.572   4.154   0.811  1.4008  0.3667  2.2112
 7844TIP3    H223497   4.676   4.220   0.722 -0.8251 -0.5828 -1.1893
 7845TIP3   OH223498   2.326   1.569   0.377 -0.7767  0.6710 -0.1358
 7845TIP3    H123499   2.320   1.663   0.365 -0.8403  0.6921  0.0604
 7845TIP3    H223500   2.375   1.558   0.459  0.2783  0.5216 -0.7664
 7846TIP3   OH223501   0.617   0.481   0.547  0.1133 -0.2911  0.0153
 7846TIP3    H123502   0.680   0.535   0.595  0.4427 -0.3202 -0.3730
 7846TIP3    H223503   0.558   0.446   0.614  0.8682 -0.7403  0.4535
 7847TIP3   OH223504   6.607   4.747   0.496  0.6137 -0.0753  0.0989
 7847TIP3    H123505   6.637   4.675   0.551  1.7313 -0.3758 -0.8932
 7847TIP3    H223506   6.579   4.814   0.558 -1.3779 -1.7217  1.0430
 7848TIP3   OH223507   1.621   1.017   1.841 -0.6897 -0.2615  0.1251
 7848TIP3    H123508   1.537   1.026   1.796 -0.0273  2.4070 -0.6963
 7848TIP3    H223509   1.651   1.107   1.853  2.1849 -1.1811  0.1696
 7849TIP3   OH223510   2.510   1.377   0.488  0.0732  0.8367 -0.0088
 7849TIP3    H123511   2.498   1.395   0.581 -1.1540 -0.8197  0.1958
 7849TIP3    H223512   2.498   1.282   0.480  1.4731  0.7541 -1.6690
 7850TIP3   OH223513   2.785   5.587   5.457 -0.0667 -0.1258 -0.3285
 7850TIP3    H123514   2.753   5.627   5.538 -0.2160  0.6540 -0.7685
 7850TIP3    H223515   2.880   5.589   5.466 -0.0188  1.8242 -1.0462
 7851TIP3   OH223516   7.292   1.102   0.275  0.2592  0.1271 -0.2282
 7851TIP3    H123517   7.249   1.042   0.215 -0.8799  0.9758 -0.2667
 7851TIP3    H223518   7.313   1.179   0.222  3.3635 -0.9218 -0.6288
 7852TIP3   OH223519   4.115   4.257   5.739 -0.3563 -0.4522 -0.1455
 7852TIP3    H123520   4.061   4.199   5.684 -0.8227 -0.8561  0.7223
 7852TIP3    H223521   4.054   4.292   5.804 -0.0906  1.0834 -0.7071
 7853TIP3   OH223522   6.423   4.615   1.003 -0.1084 -0.0602  0.0258
 7853TIP3    H123523   6.449   4.652   1.087 -0.1157 -0.0458  0.0221
 7853TIP3    H223524   6.503   4.576   0.968 -0.0349  0.2055 -0.1016
 7854TIP3   OH223525   3.344   0.630   0.036  0.4729 -0.8463  0.0481
 7854TIP3    H123526   3.336   0.597   0.125  0.8530 -1.6141 -0.2002
 7854TIP3    H223527   3.342   0.725   0.045 -2.5603 -0.9330  0.5980
 7855TIP3   OH223528   0.567   3.641   6.030 -0.0737 -0.3680 -0.2931
 7855TIP3    H123529   0.476   3.625   6.005 -0.5040  2.3585 -0.6901
 7855TIP3    H223530   0.606   3.681   5.952  1.7590 -2.4296 -0.4750
 7856TIP3   OH223531   3.249   1.442   4.054 -0.1117  0.2788  0.6373
 7856TIP3    H123532   3.329   1.424   4.004 -0.8926  1.7860 -1.2009
 7856TIP3    H223533   3.195   1.364   4.042  0.4804 -0.1471  0.7137
 7857TIP3   OH223534   4.770   3.156   5.431  0.2971 -0.2030 -0.4057
 7857TIP3    H123535   4.839   3.111   5.479  1.2348  1.1817 -0.4130
 7857TIP3    H223536   4.761   3.107   5.350  2.1132  0.2631 -0.9168
 7858TIP3   OH223537   6.199   6.600   0.305  0.0662 -0.4720 -0.4397
 7858TIP3    H123538   6.196   6.527   0.243 -3.3645 -0.9345  0.1917
 7858TIP3    H223539   6.143   6.667   0.265 -1.0355 -0.2243  1.5054
 7859TIP3   OH223540   0.816   1.709   1.663 -0.1759 -0.3024  0.2499
 7859TIP3    H123541   0.789   1.777   1.602 -2.0845 -1.9794 -0.8525
 7859TIP3    H223542   0.734   1.678   1.703  0.8126 -0.8322  1.9437
 7860TIP3   OH223543   2.279   1.289   5.646 -0.3412  0.2210  0.1039
 7860TIP3    H123544   2.236   1.218   5.694  0.9742  0.8258  2.2303
 7860TIP3    H223545   2.364   1.253   5.622 -0.5447  0.3299 -0.8012
 7861TIP3   OH223546   0.366   1.517   1.290  0.2211 -0.4013  0.6454
 7861TIP3    H123547   0.416   1.586   1.331  0.0880 -0.3087  0.6535
 7861TIP3    H223548   0.414   1.496   1.210  0.1429 -0.1470  0.5323
 7862TIP3   OH223549   0.135   0.171   0.494 -0.2772  0.2567  0.3037
 7862TIP3    H123550   0.091   0.187   0.578 -1.4770 -1.5188  0.0534
 7862TIP3    H223551   0.080   0.215   0.430  1.2188  2.5140  0.5453
 7863TIP3   OH223552   7.310   1.409   0.374  0.1744 -0.0381 -0.6917
 7863TIP3    H123553   7.360   1.328   0.366  0.1804  0.0143 -1.1972
 7863TIP3    H223554   7.219   1.382   0.358  0.1812  0.0627 -0.9007
 7864TIP3   OH223555   1.799   3.252   5.894  0.3330  0.1955  0.2530
 7864TIP3    H123556   1.874   3.300   5.861  1.4785 -1.1910  0.8074
 7864TIP3    H223557   1.827   3.161   5.896 -1.1716 -0.2744  0.9793
 7865TIP3   OH223558   4.695   4.954  -0.018 -0.1378  0.6008  0.0656
 7865TIP3    H123559   4.787   4.927  -0.008 -0.1468  0.7725  0.5846
 7865TIP3    H223560   4.681   5.018   0.051 -0.5795  0.7675 -0.1773
 7866TIP3   OH223561   1.862   0.745   1.638  0.1050 -0.5992 -0.0936
 7866TIP3    H123562   1.810   0.810   1.590 -0.4800 -0.5029  0.6468
 7866TIP3    H223563   1.826   0.661   1.610  0.5356 -0.5863 -0.6868
 7867TIP3   OH223564   1.217   0.688   1.703 -0.2970  0.2683  0.7664
 7867TIP3    H123565   1.229   0.755   1.770 -1.7937  1.3952 -0.0577
 7867TIP3    H223566   1.133   0.708   1.663 -0.1517 -1.3115 -0.4153
 7868TIP3   OH223567   4.253   4.630   5.770  0.1758  0.8019 -0.7634
 7868TIP3    H123568   4.246   4.716   5.811 -0.2809 -0.4563  1.8460
 7868TIP3    H223569   4.327   4.588   5.813 -2.1085 -1.6559  0.9496
 7869TIP3   OH223570   3.527   4.212   4.697  0.6451 -0.2320  0.1227
 7869TIP3    H123571   3.451   4.231   4.642  0.4501  1.6291  1.0242
 7869TIP3    H223572   3.503   4.132   4.745 -0.5842  0.1299  0.1051
 7870TIP3   OH223573   3.148   2.882   5.920  0.2084  0.5143 -0.1592
 7870TIP3    H123574   3.171   2.794   5.888  1.7495  0.9574 -0.3131
 7870TIP3    H223575   3.145   2.873   6.015 -0.6725  0.0634 -0.2231
 7871TIP3   OH223576   1.207   4.972   5.893 -0.6412 -0.4272  0.6563
 7871TIP3    H123577   1.199   4.893   5.947  1.1283 -1.0289  0.0939
 7871TIP3    H223578   1.301   4.991   5.893 -0.7708  0.3218 -1.1259
 7872TIP3   OH223579   5.804   6.325   0.839 -0.0856  0.1654  0.1266
 7872TIP3    H123580   5.855   6.305   0.918 -0.7693 -0.1144  0.4999
 7872TIP3    H223581   5.749   6.400   0.865  0.2493  0.5727 -0.3251
 7873TIP3   OH223582   3.720   3.585   5.652 -0.4143 -0.1604 -0.1523
 7873TIP3    H123583   3.808   3.619   5.665  0.1440 -0.9823 -1.5971
 7873TIP3    H223584   3.695   3.548   5.737  1.3195 -1.4539 -0.1730
 7874TIP3   OH223585   3.538   1.525   4.928  0.2115  0.4742  0.2125
 7874TIP3    H123586   3.627   1.507   4.900  0.1089  0.2106  0.0491
 7874TIP3    H223587   3.502   1.440   4.953  0.1038  0.6207  0.5695
 7875TIP3   OH223588   2.680   1.595   5.354  0.1109  0.3158  0.4062
 7875TIP3    H123589   2.761   1.562   5.315 -0.2420  1.2324 -1.1450
 7875TIP3    H223590   2.685   1.568   5.446  2.1862  0.4042  0.3444
 7876TIP3   OH223591   4.886   5.379   5.834  0.3041 -0.2009  0.2441
 7876TIP3    H123592   4.938   5.337   5.902  0.8497  1.7393  1.0753
 7876TIP3    H223593   4.911   5.336   5.753  3.2723  0.7531  0.6199
 7877TIP3   OH223594  -0.013   1.187   0.798 -0.4723  0.1901  0.1838
 7877TIP3    H123595   0.060   1.243   0.824 -1.2233  0.6543  1.3320
 7877TIP3    H223596  -0.020   1.124   0.870  0.0348 -1.0650 -0.8491
 7878TIP3   OH223597   2.776   5.115   5.119 -0.5644  0.3464 -0.7634
 7878TIP3    H123598   2.737   5.199   5.096  0.3118  0.8320 -0.5091
 7878TIP3    H223599   2.735   5.092   5.203 -1.4718  0.0759 -1.2737
 7879TIP3   OH223600   0.909   0.995   0.131 -0.1055  0.4487  0.1886
 7879TIP3    H123601   0.969   0.921   0.134 -0.2844  0.3107  0.3902
 7879TIP3    H223602   0.826   0.957   0.101 -1.1022 -0.0556  3.3830
 7880TIP3   OH223603   3.805   1.037   6.006 -0.7387 -0.4553  0.7259
 7880TIP3    H123604   3.768   1.019   6.092  1.0770 -1.1660  1.3966
 7880TIP3    H223605   3.897   1.009   6.013  0.1857  2.0329 -0.5578
 7881TIP3   OH223606   1.674   2.844   5.195 -0.6352  0.2182 -0.1922
 7881TIP3    H123607   1.640   2.796   5.271 -0.9498 -1.1338 -1.1658
 7881TIP3    H223608   1.714   2.922   5.232 -0.4389 -0.6175  1.4081
 7882TIP3   OH223609   5.952   5.299   0.262 -0.5011  0.1182  0.3360
 7882TIP3    H123610   5.901   5.374   0.291  0.4276 -0.1815  2.8891
 7882TIP3    H223611   6.043   5.323   0.282  0.0460 -0.7004 -1.0826
 7883TIP3   OH223612   4.524   3.376   5.237 -0.4901 -0.4489 -0.4773
 7883TIP3    H123613   4.497   3.293   5.276 -0.5248 -0.7126 -1.0536
 7883TIP3    H223614   4.604   3.399   5.282 -1.4729  0.1468  0.9873
 7884TIP3   OH223615   5.274   4.991   1.209 -0.1793 -0.0097  0.2051
 7884TIP3    H123616   5.262   4.933   1.134 -0.2177  0.3376 -0.0584
 7884TIP3    H223617   5.362   5.026   1.199 -0.0826 -0.1742  0.4710
 7885TIP3   OH223618   3.617   2.909   5.280  0.5810  0.0671  0.5188
 7885TIP3    H123619   3.608   2.815   5.299  0.7098  0.2150  1.3153
 7885TIP3    H223620   3.531   2.945   5.300  0.2321 -0.0317 -0.7329
 7886TIP3   OH223621   1.016   0.784   1.023 -0.0693 -0.2817 -0.2306
 7886TIP3    H123622   1.071   0.822   1.091  2.3222 -1.0823 -1.6405
 7886TIP3    H223623   0.956   0.854   0.998  0.4106  0.6695  1.2308
 7887TIP3   OH223624   5.495   5.527   1.018 -0.6531  0.1873  0.2321
 7887TIP3    H123625   5.481   5.620   0.997 -0.9120  0.1119  0.0799
 7887TIP3    H223626   5.567   5.500   0.961 -0.7871  0.2103  0.0536
 7888TIP3   OH223627   0.657   5.663   0.723 -0.1178  0.5128  0.3120
 7888TIP3    H123628   0.650   5.750   0.762 -1.3412  0.4705  0.2001
 7888TIP3    H223629   0.694   5.679   0.636 -0.2582  0.9156  0.3240
 7889TIP3   OH223630   3.173   4.342   6.048  0.5324 -0.6174  0.4609
 7889TIP3    H123631   3.238   4.305   5.988 -0.9612  0.1941 -1.6951
 7889TIP3    H223632   3.099   4.281   6.044 -1.4497  1.8122 -2.1616
 7890TIP3   OH223633   2.592   2.473   5.604  0.4494  0.0633 -0.4542
 7890TIP3    H123634   2.573   2.412   5.532  1.2613  1.8917 -2.2869
 7890TIP3    H223635   2.508   2.516   5.621  0.4923  0.4116 -1.0901
 7891TIP3   OH223636   3.683   3.859   4.852 -0.1038  0.4485  0.4307
 7891TIP3    H123637   3.720   3.894   4.933  1.3377  1.1320 -0.4935
 7891TIP3    H223638   3.610   3.918   4.832  1.8195  2.5408 -0.6972
 7892TIP3   OH223639   5.189   5.916   4.973 -0.2795  0.5794  0.7365
 7892TIP3    H123640   5.280   5.908   4.945  0.1205  1.3891  1.7873
 7892TIP3    H223641   5.145   5.840   4.934  0.7153  0.4968 -0.2556
 7893TIP3   OH223642   0.008   4.406   2.772  0.1692 -0.2492  0.5361
 7893TIP3    H123643  -0.051   4.436   2.703 -1.3562  0.5605  2.1442
 7893TIP3    H223644   0.056   4.484   2.798 -1.0460  0.0102  2.0751
 7894TIP3   OH223645   4.547   5.135   2.064  0.1717  0.2387 -0.2150
 7894TIP3    H123646   4.568   5.133   2.157 -0.1551 -1.8521 -0.1457
 7894TIP3    H223647   4.487   5.209   2.053  0.7328  0.8852  1.1223
 7895TIP3   OH223648   4.426   6.103   1.371 -0.0864  0.7268 -0.5232
 7895TIP3    H123649   4.415   6.190   1.408  0.5151 -0.5959  2.9629
 7895TIP3    H223650   4.498   6.064   1.422  2.0813 -0.5589 -4.3961
 7896TIP3   OH223651   1.669   1.882   3.898  0.3067 -0.6689  0.5846
 7896TIP3    H123652   1.713   1.856   3.818  0.6208 -1.9359  1.1705
 7896TIP3    H223653   1.593   1.824   3.904 -1.1106  1.0471 -0.0704
 7897TIP3   OH223654   3.033   3.338   5.666  0.0451 -0.3111 -0.4357
 7897TIP3    H123655   3.061   3.275   5.599 -2.1647  1.5884 -3.2842
 7897TIP3    H223656   3.032   3.422   5.621 -1.4879  1.0487  1.9986
 7898TIP3   OH223657   3.485   4.654   5.182 -0.5065 -0.3583  0.2621
 7898TIP3    H123658   3.404   4.663   5.232  0.5765 -0.8131  2.1487
 7898TIP3    H223659   3.476   4.716   5.109 -1.9788  0.5437  1.1998
 7899TIP3   OH223660   1.937   0.309   6.004 -0.1913  0.3277 -0.3154
 7899TIP3    H123661   2.031   0.315   5.988 -0.0941  3.3710  1.1200
 7899TIP3    H223662   1.897   0.321   5.917  0.7139 -1.4985 -1.0094
 7900TIP3   OH223663   2.890   0.928   4.677  0.6108  0.3197 -0.0128
 7900TIP3    H123664   2.946   0.873   4.734  0.2032 -1.0481 -0.9047
 7900TIP3    H223665   2.801   0.896   4.693  0.2592  1.3734  0.1614
 7901TIP3   OH223666   4.678   5.416   1.097  0.0886  0.0323  0.4160
 7901TIP3    H123667   4.711   5.340   1.048  1.7995  1.3452 -0.5042
 7901TIP3    H223668   4.739   5.424   1.170 -1.0832 -0.4754  1.4800
 7902TIP3   OH223669   2.677   5.681   1.156 -0.1866 -0.7997 -0.4239
 7902TIP3    H123670   2.612   5.746   1.185  1.1976  0.1913  0.5569
 7902TIP3    H223671   2.755   5.702   1.207  0.3671 -3.0989 -0.2899
 7903TIP3   OH223672   6.370   0.233   0.774 -0.0504 -0.3947 -0.7111
 7903TIP3    H123673   6.287   0.265   0.808  0.1410  1.8242 -2.2177
 7903TIP3    H223674   6.423   0.215   0.851 -1.5609 -0.8381  0.2370
 7904TIP3   OH223675   1.611   4.366   0.889 -0.7099 -0.2666 -0.1948
 7904TIP3    H123676   1.520   4.349   0.866 -0.6376  0.1378 -0.7925
 7904TIP3    H223677   1.662   4.309   0.832 -0.5105  1.0862 -1.4158
 7905TIP3   OH223678   5.859   5.159   5.716  0.0669 -0.8660  0.4958
 7905TIP3    H123679   5.829   5.152   5.806 -0.4458  0.1473  0.4076
 7905TIP3    H223680   5.946   5.119   5.717  0.3875 -0.1851  1.6037
 7906TIP3   OH223681   6.182   6.340   0.206 -0.0480 -0.1307 -0.5329
 7906TIP3    H123682   6.168   6.246   0.211 -0.7310 -0.1533 -2.3487
 7906TIP3    H223683   6.221   6.353   0.119 -0.0520  1.2694 -0.3301
 7907TIP3   OH223684   2.876   1.291   0.229  0.1344 -0.4013  0.2429
 7907TIP3    H123685   2.941   1.261   0.292  0.3219  0.6383  0.5452
 7907TIP3    H223686   2.822   1.354   0.277 -1.1757 -1.3283  0.0367
 7908TIP3   OH223687   4.194   5.829   1.238 -0.0214 -0.1535  0.2805
 7908TIP3    H123688   4.249   5.886   1.185  0.7867 -0.1529  1.1081
 7908TIP3    H223689   4.131   5.888   1.280 -0.4819 -0.1216 -0.4586
 7909TIP3   OH223690   3.597   4.591   0.338 -0.6217 -0.4352  0.0963
 7909TIP3    H123691   3.675   4.559   0.384 -0.4169 -0.4759 -0.2699
 7909TIP3    H223692   3.622   4.678   0.307 -1.1877  0.0990  1.1129
 7910TIP3   OH223693   3.028   1.218   5.926  1.0501  0.1596 -0.3408
 7910TIP3    H123694   3.074   1.184   6.003  0.5214  2.5574  1.0622
 7910TIP3    H223695   2.937   1.191   5.938  0.6907  1.7411  0.6177
 7911TIP3   OH223696   1.750   2.148   0.994 -0.1553 -0.0421  0.4328
 7911TIP3    H123697   1.807   2.224   1.005 -0.1971  0.0013  0.3542
 7911TIP3    H223698   1.751   2.104   1.079  1.2491 -0.9135 -0.0318
 7912TIP3   OH223699   1.716   1.523   0.138 -0.0889 -0.1514 -0.2111
 7912TIP3    H123700   1.628   1.543   0.106  1.1097  0.9642 -3.0241
 7912TIP3    H223701   1.720   1.428   0.141 -1.4143 -0.2085  0.0388
 7913TIP3   OH223702   2.828   1.212   5.366 -0.1166 -0.2967  0.1336
 7913TIP3    H123703   2.894   1.281   5.356  1.4859 -1.7999  0.1214
 7913TIP3    H223704   2.879   1.131   5.374 -2.0056 -1.6974 -1.5772
 7914TIP3   OH223705   1.282   1.377   1.871  0.0557 -0.2978  0.1174
 7914TIP3    H123706   1.272   1.469   1.850  0.3952 -0.2542  0.1513
 7914TIP3    H223707   1.345   1.343   1.807  1.2638 -0.1085  1.1842
 7915TIP3   OH223708   4.838   3.376   5.892 -0.5504  0.4214  0.7006
 7915TIP3    H123709   4.800   3.393   5.805  0.5234  0.1026  0.1568
 7915TIP3    H223710   4.849   3.281   5.894  0.1446  0.5058  0.8820
 7916TIP3   OH223711   1.165   1.455   0.688  0.3069 -0.1697 -0.2522
 7916TIP3    H123712   1.176   1.426   0.598 -0.1986  0.2627 -0.4555
 7916TIP3    H223713   1.224   1.530   0.697 -0.0711  0.1456 -0.3942
 7917TIP3   OH223714   4.119   2.652   5.612 -0.2132 -0.3138 -0.7216
 7917TIP3    H123715   4.201   2.603   5.618  0.0692  0.3083  0.8984
 7917TIP3    H223716   4.142   2.733   5.567 -0.0052 -0.2880 -0.5699
 7918TIP3   OH223717   4.605   4.544   4.606  0.3117  0.0446  0.2783
 7918TIP3    H123718   4.585   4.625   4.559  0.5371 -0.0882 -0.0468
 7918TIP3    H223719   4.571   4.559   4.694  0.4644  0.5433  0.2578
 7919TIP3   OH223720   0.310   1.701   0.252  0.0708 -0.7097 -0.7755
 7919TIP3    H123721   0.301   1.795   0.233  1.2469 -0.4560 -0.1723
 7919TIP3    H223722   0.371   1.698   0.326  0.6393 -1.9876 -1.2863
 7920TIP3   OH223723   4.782   6.998   0.879  0.3931 -0.5376 -0.5840
 7920TIP3    H123724   4.771   6.949   0.798 -0.3526 -0.1347 -0.7324
 7920TIP3    H223725   4.807   6.932   0.944  1.6244 -0.7638 -1.2750
 7921TIP3   OH223726   3.670   0.716   0.133 -0.1637 -0.2114 -0.3091
 7921TIP3    H123727   3.608   0.710   0.205  0.5231 -0.1156  0.3005
 7921TIP3    H223728   3.619   0.749   0.060 -0.7760  0.0902  0.2469
 7922TIP3   OH223729   1.525   0.482   0.967 -0.2656 -0.0506  0.2480
 7922TIP3    H123730   1.573   0.461   1.047 -0.0607  0.3529  0.2366
 7922TIP3    H223731   1.435   0.497   0.996 -0.0026  1.0347  0.5555
 7923TIP3   OH223732   3.214   6.442   1.162  0.0024  0.5463  0.3462
 7923TIP3    H123733   3.305   6.445   1.130  0.5940  0.6310  2.0088
 7923TIP3    H223734   3.207   6.516   1.221 -1.4984  1.1811 -0.6065
 7924TIP3   OH223735   5.063   3.472   5.259  0.0985 -0.0712 -0.0812
 7924TIP3    H123736   5.037   3.491   5.349 -0.5186  2.1728 -0.6987
 7924TIP3    H223737   5.073   3.377   5.257  0.0614 -0.1725  2.3287
 7925TIP3   OH223738   1.979   1.211   0.718 -0.2653  0.2841  0.4122
 7925TIP3    H123739   1.885   1.194   0.714 -0.1611 -0.2207 -0.0510
 7925TIP3    H223740   2.018   1.125   0.731  0.1367  0.4764  0.4696
 7926TIP3   OH223741   2.108   0.218   0.327 -0.7215 -0.2476  0.0781
 7926TIP3    H123742   2.149   0.276   0.391 -0.7961  0.8573 -0.8679
 7926TIP3    H223743   2.030   0.184   0.371 -0.8107  0.5563  0.5422
 7927TIP3   OH223744   4.576   4.701   0.988  0.1364  0.6569 -0.3584
 7927TIP3    H123745   4.501   4.754   0.963  0.1563  0.6008 -0.5339
 7927TIP3    H223746   4.651   4.744   0.947  0.1700  0.5748 -0.3828
 7928TIP3   OH223747   3.859   6.312   0.141  0.4409  0.6089  0.1660
 7928TIP3    H123748   3.856   6.261   0.061  0.4382  1.8668 -0.6573
 7928TIP3    H223749   3.779   6.365   0.139  0.2712  0.3955  1.1671
 7929TIP3   OH223750   1.742   1.315   1.399 -0.4023  0.2676  0.0109
 7929TIP3    H123751   1.732   1.255   1.473 -1.1917  2.2358  1.5384
 7929TIP3    H223752   1.671   1.378   1.409  0.5391  1.5952 -1.4469
 7930TIP3   OH223753   0.345   6.748   2.902 -0.2135 -0.0419 -0.5688
 7930TIP3    H123754   0.373   6.659   2.883 -0.3915 -0.1573 -0.2938
 7930TIP3    H223755   0.341   6.752   2.997 -1.7077 -0.2055 -0.6259
 7931TIP3   OH223756   3.269   5.741   4.049 -0.8549  0.0471  0.3707
 7931TIP3    H123757   3.224   5.810   4.001  0.7105 -0.3645 -1.7846
 7931TIP3    H223758   3.268   5.666   3.989  0.7559 -0.6350  1.1734
 7932TIP3   OH223759   4.873   6.156   0.481  0.2922  0.2536 -0.0106
 7932TIP3    H123760   4.792   6.153   0.431  0.0327  0.4229  0.3985
 7932TIP3    H223761   4.939   6.185   0.418 -0.0698  0.6512 -0.2106
 7933TIP3   OH223762   6.876   0.019   3.019 -0.8589 -0.4407  0.2017
 7933TIP3    H123763   6.963   0.018   3.059 -0.3511  0.4912 -0.8287
 7933TIP3    H223764   6.850   0.111   3.021 -1.4830 -0.6060 -0.2034
 7934TIP3   OH223765   3.050   3.115   5.490 -0.5223 -0.2440  0.1076
 7934TIP3    H123766   3.033   3.025   5.519  0.4874 -1.1787 -2.0268
 7934TIP3    H223767   3.018   3.117   5.400  1.3605  0.9013 -0.5665
 7935TIP3   OH223768   3.735   5.186   5.953 -0.6998 -0.0529  0.4249
 7935TIP3    H123769   3.679   5.221   5.884  0.6072  0.3634 -0.4510
 7935TIP3    H223770   3.715   5.240   6.030  0.6807  2.1161 -0.6897
 7936TIP3   OH223771   3.157   2.627   3.665  0.8354 -0.1043 -0.6036
 7936TIP3    H123772   3.114   2.708   3.638  0.6984  0.2465  0.6540
 7936TIP3    H223773   3.101   2.593   3.735  2.6898  0.4509  1.1736
 7937TIP3   OH223774   4.947   4.812   1.290 -0.5224 -0.1640  0.1816
 7937TIP3    H123775   4.863   4.772   1.271 -0.3808  0.0198 -0.8499
 7937TIP3    H223776   4.985   4.830   1.204  1.3972 -1.9710  0.6118
 7938TIP3   OH223777   1.459   2.857   4.678  0.2316 -0.4011 -0.1166
 7938TIP3    H123778   1.460   2.847   4.583 -0.3152 -0.3452 -0.1278
 7938TIP3    H223779   1.531   2.802   4.709 -0.2084 -1.1757 -0.4817
 7939TIP3   OH223780   2.681   6.250   4.983  0.2186 -0.0402  0.1400
 7939TIP3    H123781   2.646   6.321   5.037 -0.2995 -1.0086  1.1194
 7939TIP3    H223782   2.653   6.170   5.029  1.1056 -0.8644 -0.7393
 7940TIP3   OH223783   3.449   5.648   5.301 -0.6278  0.2719 -0.0511
 7940TIP3    H123784   3.469   5.589   5.229 -2.7773 -0.5537 -0.0150
 7940TIP3    H223785   3.421   5.591   5.373  1.7659  1.0640  1.5561
 7941TIP3   OH223786   3.354   3.364   5.675  0.4911 -0.2768  0.2568
 7941TIP3    H123787   3.380   3.445   5.632  0.1384  0.4609  1.4317
 7941TIP3    H223788   3.287   3.389   5.738  0.0973 -1.5351  0.3683
 7942TIP3   OH223789   6.222   5.743   1.457  0.2163 -0.6651  0.2944
 7942TIP3    H123790   6.301   5.762   1.507 -1.6653 -0.7238  3.4416
 7942TIP3    H223791   6.150   5.766   1.516 -2.1214 -1.9127 -1.9535
 7943TIP3   OH223792   5.268   4.541   5.888 -0.0370  0.0631 -0.1404
 7943TIP3    H123793   5.180   4.570   5.864 -0.0201 -0.1916 -0.5092
 7943TIP3    H223794   5.268   4.544   5.984 -0.8427 -1.0806 -0.0948
 7944TIP3   OH223795   3.750   1.384   4.425 -0.6295 -0.0071  0.3237
 7944TIP3    H123796   3.700   1.363   4.346 -0.0871 -0.1348  0.0051
 7944TIP3    H223797   3.685   1.408   4.490 -1.0934 -0.0749 -0.1157
 7945TIP3   OH223798   6.968   6.868   2.348 -0.2360  0.5989  0.1089
 7945TIP3    H123799   6.891   6.811   2.357 -0.8931  1.7703  2.2261
 7945TIP3    H223800   6.932   6.956   2.342  0.9249  1.2067  1.5788
 7946TIP3   OH223801   5.039   3.744   5.916  0.5172 -0.6076  0.2596
 7946TIP3    H123802   5.123   3.716   5.953  1.1549  0.6021 -0.2636
 7946TIP3    H223803   5.063   3.800   5.843 -0.7586 -0.6466 -0.1903
 7947TIP3   OH223804   7.068   6.672   0.167 -0.6116  0.0111 -0.0120
 7947TIP3    H123805   7.000   6.640   0.226 -1.1853  0.3186 -0.5012
 7947TIP3    H223806   7.056   6.767   0.166 -1.5581 -0.1107 -1.7632
 7948TIP3   OH223807   3.668   6.447   1.160  0.2532 -0.4696 -0.3828
 7948TIP3    H123808   3.716   6.406   1.088  1.1049 -1.0638  0.5177
 7948TIP3    H223809   3.707   6.533   1.170  0.9011 -0.8162  0.1090
 7949TIP3   OH223810   6.770   6.098   0.629  0.1684 -0.4767 -0.1201
 7949TIP3    H123811   6.819   6.020   0.655  1.7732  0.6506  0.3181
 7949TIP3    H223812   6.733   6.075   0.543  1.7445 -1.2395 -0.6128
 7950TIP3   OH223813   5.112   6.688   0.352 -0.5349 -0.3220  0.2681
 7950TIP3    H123814   5.180   6.747   0.320  1.5485 -3.0413 -0.5397
 7950TIP3    H223815   5.081   6.729   0.433  0.2838  2.2246 -0.6464
 7951TIP3   OH223816   0.403   0.770   1.079  0.3198 -0.1967 -0.3733
 7951TIP3    H123817   0.421   0.778   1.173  0.3384 -0.7861 -0.3230
 7951TIP3    H223818   0.342   0.841   1.060  2.9539  2.0944 -0.6259
 7952TIP3   OH223819   2.637   2.609   5.879 -0.0283 -0.7596 -0.1295
 7952TIP3    H123820   2.715   2.644   5.836 -0.9265  1.0084 -0.3550
 7952TIP3    H223821   2.605   2.541   5.819 -0.6968  0.9937 -1.8030
 7953TIP3   OH223822   1.775   1.681   0.377  0.0793  0.1153 -0.3446
 7953TIP3    H123823   1.701   1.623   0.358 -0.0274 -0.4929  1.7251
 7953TIP3    H223824   1.850   1.622   0.386  0.2666  0.4414  0.2712
 7954TIP3   OH223825   0.117   2.614   4.049  0.3433 -0.2311 -0.2352
 7954TIP3    H123826   0.029   2.592   4.079  0.0098  0.5587 -0.6340
 7954TIP3    H223827   0.144   2.688   4.102  0.8743 -0.6296  0.0622
 7955TIP3   OH223828   0.200   1.697   0.677 -0.4843  0.1606  0.1283
 7955TIP3    H123829   0.271   1.698   0.613  0.6089 -1.1761  1.2922
 7955TIP3    H223830   0.240   1.728   0.758 -1.3512 -0.1114  0.6670
 7956TIP3   OH223831   2.834   1.830   0.955  0.1854  0.5206  0.3866
 7956TIP3    H123832   2.749   1.805   0.992  0.8056 -1.8457  0.2801
 7956TIP3    H223833   2.814   1.859   0.866 -0.6418  0.9555  0.7131
 7957TIP3   OH223834   1.922   1.074   0.289  0.4335 -0.5606 -0.1465
 7957TIP3    H123835   1.962   0.988   0.305  0.0513 -0.5241  1.0255
 7957TIP3    H223836   1.831   1.064   0.317  0.2492  0.0750 -0.5036
 7958TIP3   OH223837   2.983   2.402   4.495 -0.7991  0.6002 -0.3355
 7958TIP3    H123838   3.044   2.352   4.550 -0.4972 -0.2077 -1.3873
 7958TIP3    H223839   3.039   2.443   4.429 -1.5003 -1.1635 -2.0715
 7959TIP3   OH223840   3.002   4.882   5.505 -0.5890  0.0352  0.4452
 7959TIP3    H123841   2.964   4.970   5.499 -2.1998 -0.6997 -0.3281
 7959TIP3    H223842   3.096   4.898   5.515 -0.6635  1.8129 -1.2960
 7960TIP3   OH223843   4.741   2.357   4.688  0.0306 -0.3835  0.9770
 7960TIP3    H123844   4.744   2.276   4.739 -1.8647 -0.8791  0.3214
 7960TIP3    H223845   4.664   2.403   4.720  0.6424  0.7983  0.7758
 7961TIP3   OH223846   0.795   1.655   0.945  0.4241 -0.1903 -0.2935
 7961TIP3    H123847   0.724   1.701   0.899  0.2171 -0.4257 -0.2107
 7961TIP3    H223848   0.839   1.605   0.877  1.1730  0.7784 -0.5363
 7962TIP3   OH223849   2.283   1.905   4.440 -0.1730  0.1176  0.1461
 7962TIP3    H123850   2.364   1.956   4.437  0.4087 -0.8603 -1.2211
 7962TIP3    H223851   2.296   1.836   4.375 -2.4636  0.4733 -0.7248
 7963TIP3   OH223852   0.489   4.477   5.625 -0.3844 -0.0685  0.2259
 7963TIP3    H123853   0.428   4.417   5.668  2.0379 -2.8559 -0.0523
 7963TIP3    H223854   0.434   4.536   5.575 -2.8697 -2.0707  0.5112
 7964TIP3   OH223855   6.383   5.937   1.150  0.2262 -0.1521  0.1930
 7964TIP3    H123856   6.444   6.005   1.122 -0.3969  1.0965  1.7756
 7964TIP3    H223857   6.374   5.951   1.244 -1.8778 -0.8385  0.1029
 7965TIP3   OH223858   1.704   0.424   1.169 -0.0475 -0.0612  0.5995
 7965TIP3    H123859   1.699   0.329   1.180 -1.0548 -0.2218 -0.9799
 7965TIP3    H223860   1.775   0.451   1.226  0.8746 -1.8844  0.3751
 7966TIP3   OH223861   2.521   1.373   0.779  0.0208 -0.1424  0.0580
 7966TIP3    H123862   2.600   1.425   0.795  0.3823  0.4928 -3.4872
 7966TIP3    H223863   2.449   1.430   0.808  0.7208  0.1571  1.2277
 7967TIP3   OH223864   3.263   1.090   1.680 -0.3862 -0.3807 -0.0779
 7967TIP3    H123865   3.250   0.996   1.691 -0.0793 -0.5529 -1.1661
 7967TIP3    H223866   3.252   1.126   1.768 -2.8951 -1.1370 -0.0519
 7968TIP3   OH223867   5.391   1.177   0.838  0.1143 -0.5875  0.1779
 7968TIP3    H123868   5.429   1.211   0.756 -0.3204  0.2383  0.3135
 7968TIP3    H223869   5.415   1.085   0.838  2.5470 -0.0026  0.4962
 7969TIP3   OH223870   0.423   0.734   1.345  0.8392  0.2943 -0.5250
 7969TIP3    H123871   0.349   0.774   1.391 -0.2780 -1.9065 -0.3604
 7969TIP3    H223872   0.473   0.690   1.414  1.7995  0.9568 -0.7810
 7970TIP3   OH223873   3.949   4.583   4.463  0.3287  0.5031  0.4681
 7970TIP3    H123874   3.948   4.518   4.533  0.1573  0.7061  0.6555
 7970TIP3    H223875   3.866   4.571   4.418 -0.2034  1.3462  1.2046
 7971TIP3   OH223876   0.482   0.069   0.805  0.2110 -0.2393  0.1411
 7971TIP3    H123877   0.409   0.028   0.761  1.8707 -1.8313 -1.2043
 7971TIP3    H223878   0.451   0.157   0.827 -2.1308 -0.9570 -0.2233
 7972TIP3   OH223879   5.287   2.713   5.553  0.4213  0.2948 -0.0874
 7972TIP3    H123880   5.208   2.690   5.603  0.0860  0.9466 -0.3066
 7972TIP3    H223881   5.283   2.657   5.476 -0.5046  1.2337 -0.7260
 7973TIP3   OH223882   3.009   0.910   3.094 -0.1206  0.4142  0.2801
 7973TIP3    H123883   3.071   0.971   3.054 -1.2410  0.7382 -1.0170
 7973TIP3    H223884   3.027   0.826   3.053  0.8373  0.0447  1.4281
 7974TIP3   OH223885   6.118   6.106   1.859 -0.0519  0.7022  0.1520
 7974TIP3    H123886   6.030   6.072   1.879 -0.3480  0.8284 -0.9299
 7974TIP3    H223887   6.139   6.162   1.933  0.2417 -1.4330  1.7558
 7975TIP3   OH223888   3.380   3.028   5.342  0.2278 -0.0847 -0.2723
 7975TIP3    H123889   3.316   3.031   5.271 -0.0140  0.2606 -0.0468
 7975TIP3    H223890   3.384   3.119   5.373  1.0241 -0.0571 -0.4577
 7976TIP3   OH223891   3.982   3.033   5.832  0.3893 -0.0343 -0.3077
 7976TIP3    H123892   3.977   3.094   5.758  0.2600  1.1172  0.6295
 7976TIP3    H223893   4.075   3.008   5.836  0.2696 -0.6124 -1.2693
 7977TIP3   OH223894   4.727   3.537   3.196  0.4442  0.6352 -0.1528
 7977TIP3    H123895   4.788   3.501   3.132  0.2642 -0.5010  0.3011
 7977TIP3    H223896   4.776   3.606   3.240  1.3724 -0.2025  0.1362
 7978TIP3   OH223897   2.850   2.468   5.277  0.2014  0.4953 -0.2256
 7978TIP3    H123898   2.776   2.408   5.267  0.9038 -0.7973  1.9022
 7978TIP3    H223899   2.814   2.543   5.325  0.1424  0.1392  0.2824
 7979TIP3   OH223900   2.360   2.388   3.348 -0.0155 -0.2438  0.0279
 7979TIP3    H123901   2.451   2.360   3.336 -0.7866 -3.7778  2.0055
 7979TIP3    H223902   2.365   2.454   3.417  0.9662 -1.1153  0.8090
 7980TIP3   OH223903   3.386   3.568   5.933 -0.2788  0.0263 -0.4533
 7980TIP3    H123904   3.332   3.490   5.919 -1.0968  0.4756  0.1583
 7980TIP3    H223905   3.332   3.641   5.900 -0.0955  0.4896  0.2520
 7981TIP3   OH223906   2.016   0.921   0.680 -0.1228 -0.4064 -0.0001
 7981TIP3    H123907   2.053   0.888   0.597  2.5786 -0.0892  1.0373
 7981TIP3    H223908   1.931   0.878   0.686  0.3824 -1.8104 -2.1015
 7982TIP3   OH223909   5.681   5.498   0.802  0.7287  0.1646 -0.1866
 7982TIP3    H123910   5.670   5.528   0.712 -0.1274  1.0378  0.2001
 7982TIP3    H223911   5.652   5.407   0.801 -0.0694  0.4287 -0.6132
 7983TIP3   OH223912   4.733   3.842   5.639  0.3887  0.3266  0.3222
 7983TIP3    H123913   4.723   3.925   5.685  0.6441  1.6781 -2.0191
 7983TIP3    H223914   4.660   3.789   5.671  1.2266  0.7859  3.1501
 7984TIP3   OH223915   2.830   0.673   2.284 -0.2165  0.4487  0.8740
 7984TIP3    H123916   2.824   0.592   2.334 -0.3220  0.1301  0.3469
 7984TIP3    H223917   2.748   0.677   2.236 -0.6752  1.4112  1.7084
 7985TIP3   OH223918   5.479   3.736   0.125 -0.1986 -0.6992 -0.6100
 7985TIP3    H123919   5.432   3.685   0.059  0.3090 -0.6458 -1.0150
 7985TIP3    H223920   5.551   3.679   0.152  0.2422 -0.2765 -0.9044
 7986TIP3   OH223921   2.614   2.800   5.232 -0.0508 -0.5220 -0.1355
 7986TIP3    H123922   2.535   2.747   5.221  0.1217 -0.5839 -1.0683
 7986TIP3    H223923   2.632   2.796   5.326 -1.2051 -0.4401  0.0912
 7987TIP3   OH223924   6.168   4.952   1.084 -0.1828 -0.1154  0.2079
 7987TIP3    H123925   6.122   4.872   1.059  2.8790 -2.0673  0.6456
 7987TIP3    H223926   6.231   4.924   1.150  2.1999  2.3369 -0.9361
 7988TIP3   OH223927   1.660   0.378   2.713  0.1595  0.3877 -0.3669
 7988TIP3    H123928   1.704   0.296   2.735 -1.6065 -0.9533 -1.6728
 7988TIP3    H223929   1.715   0.417   2.646  1.1335  0.3958  0.4210
 7989TIP3   OH223930   6.423   5.682   0.619 -0.3131 -0.5989 -0.5765
 7989TIP3    H123931   6.393   5.754   0.674  2.1562  0.6005 -0.7217
 7989TIP3    H223932   6.474   5.626   0.678  0.0762 -0.7658 -1.0694
 7990TIP3   OH223933   3.680   2.078   5.725 -0.0619 -0.1878 -0.0037
 7990TIP3    H123934   3.735   2.068   5.803 -0.8600 -1.6719  0.4002
 7990TIP3    H223935   3.609   2.136   5.753 -0.6599 -1.1704  0.5745
 7991TIP3   OH223936   5.042   0.484   2.394  0.5213 -0.6942  0.3311
 7991TIP3    H123937   5.116   0.427   2.413  0.2721 -0.7523  1.1608
 7991TIP3    H223938   4.967   0.442   2.435 -0.2860 -1.4382 -1.8222
 7992TIP3   OH223939   5.695   5.427   2.065  0.6598 -0.3112 -0.5247
 7992TIP3    H123940   5.758   5.411   1.995  0.6081  0.8725 -0.8477
 7992TIP3    H223941   5.616   5.459   2.021 -0.1184 -1.6398 -0.1048
 7993TIP3   OH223942   3.027   0.728   0.168 -0.1471  0.7113  0.2184
 7993TIP3    H123943   3.078   0.656   0.206  1.9212  1.8304 -0.3191
 7993TIP3    H223944   2.937   0.710   0.193  0.3972 -1.8212  0.4742
 7994TIP3   OH223945   2.961   1.466   4.750 -0.3001 -0.0779  0.2142
 7994TIP3    H123946   2.941   1.472   4.843 -0.3556 -0.0881  0.2026
 7994TIP3    H223947   2.910   1.392   4.719 -0.6228  0.1992  0.0820
 7995TIP3   OH223948   2.516   6.101   0.241 -0.4521 -0.1017  0.1892
 7995TIP3    H123949   2.470   6.164   0.186 -1.8678 -1.4317 -0.1573
 7995TIP3    H223950   2.466   6.020   0.233  0.1976 -0.7338  2.2174
 7996TIP3   OH223951   4.517   1.690   5.818 -0.4722 -0.3003  0.1408
 7996TIP3    H123952   4.435   1.673   5.772  0.2038 -0.9489 -0.8538
 7996TIP3    H223953   4.543   1.605   5.853  1.7909 -1.0055 -2.9632
 7997TIP3   OH223954   1.544   2.064   5.731 -0.2786 -0.3095  1.0752
 7997TIP3    H123955   1.547   2.034   5.640 -1.1814  2.9034 -0.0657
 7997TIP3    H223956   1.635   2.057   5.762  0.3433  0.1958 -0.6203
 7998TIP3   OH223957   2.608   2.542   4.958 -0.2906 -0.5793  0.2481
 7998TIP3    H123958   2.544   2.496   5.011  0.3764 -0.4718  1.1649
 7998TIP3    H223959   2.677   2.477   4.942  0.0173 -0.3042  0.4308
 7999TIP3   OH223960   1.641   0.667   0.075 -0.0130 -0.0451  0.0720
 7999TIP3    H123961   1.638   0.736   0.009  0.6329  0.2451  0.3427
 7999TIP3    H223962   1.666   0.712   0.156  0.8918 -0.6580  0.1473
 8000TIP3   OH223963   2.659   0.034   0.262 -0.5336  0.1626  0.5243
 8000TIP3    H123964   2.565   0.044   0.253 -0.4343  2.1181  1.4393
 8000TIP3    H223965   2.681  -0.040   0.206 -2.7617 -1.0590  1.1982
 8001TIP3   OH223966   0.927   1.696   2.058 -0.4164 -0.3271 -0.0495
 8001TIP3    H123967   1.012   1.700   2.102 -0.9603 -0.1586  1.0032
 8001TIP3    H223968   0.893   1.609   2.080 -1.0026  0.0232  0.4571
 8002TIP3   OH223969   2.312   2.562   1.162 -0.2300 -0.1741  0.1470
 8002TIP3    H123970   2.375   2.557   1.234  0.2950 -1.8555 -0.4098
 8002TIP3    H223971   2.289   2.655   1.157  2.6544  0.5691 -0.0237
 8003TIP3   OH223972   5.983   4.199   0.611  0.2557 -0.0349 -0.3422
 8003TIP3    H123973   5.997   4.112   0.648  3.1769 -0.1125 -1.5234
 8003TIP3    H223974   5.955   4.252   0.685  1.6277 -1.2274  1.0514
 8004TIP3   OH223975   1.571   0.943   0.442  0.6136  0.0477 -0.0562
 8004TIP3    H123976   1.495   0.899   0.481  0.0104  1.1470  0.0433
 8004TIP3    H223977   1.590   1.016   0.501  1.2136  0.2839 -0.5298
 8005TIP3   OH223978   3.132   0.302   0.806  0.2282 -0.0372  0.1683
 8005TIP3    H123979   3.114   0.217   0.848 -0.0791 -0.2291 -0.3587
 8005TIP3    H223980   3.046   0.341   0.793  0.2903 -0.2027 -0.7585
 8006TIP3   OH223981   7.064   0.573   1.375  0.1412  0.3584 -0.1619
 8006TIP3    H123982   7.010   0.536   1.445 -0.1918  1.4664  0.1790
 8006TIP3    H223983   7.121   0.501   1.349 -0.8329 -0.5415  0.1445
 8007TIP3   OH223984   6.692   0.337   2.753 -0.2009 -0.2144 -0.2269
 8007TIP3    H123985   6.721   0.254   2.790  0.3779  0.0621 -0.0615
 8007TIP3    H223986   6.636   0.312   2.679 -2.4502 -0.7776  1.6323
 8008TIP3   OH223987   2.166   1.082   1.428  0.1835  0.2689  0.6111
 8008TIP3    H123988   2.140   0.996   1.463 -0.0926 -0.0815 -0.4422
 8008TIP3    H223989   2.103   1.099   1.358 -0.8717  2.1411  1.9587
 8009TIP3   OH223990   0.147   6.962   3.105 -0.2757 -0.0607 -0.1843
 8009TIP3    H123991   0.145   6.871   3.137  0.2312  0.5908  1.7502
 8009TIP3    H223992   0.103   7.012   3.173  0.6410  1.3506 -0.6169
 8010TIP3   OH223993   3.052   0.103   1.491  0.4146 -0.2426  0.3896
 8010TIP3    H123994   3.100   0.055   1.424 -0.2681 -1.9655  1.0739
 8010TIP3    H223995   2.980   0.044   1.515  0.2317  0.6385  2.1077
 8011TIP3   OH223996   5.919   5.181  -0.013 -0.0456  0.0614  0.0388
 8011TIP3    H123997   5.861   5.108   0.010  0.8223 -0.5193  0.4008
 8011TIP3    H223998   5.932   5.228   0.070  0.2862 -0.0112  0.0274
 8012TIP3   OH223999   4.420   5.757   1.727 -0.3526 -0.3159 -0.3411
 8012TIP3    H124000   4.369   5.774   1.806  1.5300  0.1900  0.7905
 8012TIP3    H224001   4.504   5.724   1.758  0.8822  1.0684 -2.0617
 8013TIP3   OH224002   1.782   4.400   5.743 -0.2284 -0.0978  0.5639
 8013TIP3    H124003   1.796   4.422   5.650  1.2349 -1.0022  0.5543
 8013TIP3    H224004   1.687   4.391   5.751 -0.3542 -0.3681 -0.9427
 8014TIP3   OH224005   1.296   2.456   5.592  0.1694 -0.0301  0.3707
 8014TIP3    H124006   1.330   2.525   5.536 -0.6450  0.0555 -0.0262
 8014TIP3    H224007   1.201   2.468   5.590  0.1032 -0.2788  1.4338
 8015TIP3   OH224008   4.483   3.892   5.007 -0.0455  0.3935  0.1305
 8015TIP3    H124009   4.498   3.958   4.940 -0.5179  0.0309 -0.3362
 8015TIP3    H224010   4.488   3.809   4.961 -0.1494  0.1299  0.5886
 8016TIP3   OH224011   5.817   5.884   0.173  0.2876  0.7371  0.0977
 8016TIP3    H124012   5.784   5.952   0.233  1.1529  1.0058  0.2768
 8016TIP3    H224013   5.887   5.841   0.223 -2.0274 -2.0907  1.0367
 8017TIP3   OH224014   1.566   0.418   1.629  0.1877 -0.2953 -0.6948
 8017TIP3    H124015   1.557   0.451   1.719  1.1155 -1.5605 -0.1165
 8017TIP3    H224016   1.661   0.415   1.615  0.0755 -1.5415 -1.1738
 8018TIP3   OH224017   2.754   2.767   4.506 -0.0725  0.3345 -0.0958
 8018TIP3    H124018   2.763   2.828   4.433 -0.5210  1.0106  0.4166
 8018TIP3    H224019   2.659   2.753   4.514  0.0090 -0.1939 -0.0160
 8019TIP3   OH224020   2.786   0.334   4.445  0.1667  0.1427 -0.4047
 8019TIP3    H124021   2.768   0.361   4.535 -0.6982  1.4655 -0.9612
 8019TIP3    H224022   2.855   0.393   4.415  3.0346 -2.5684  0.5119
 8020TIP3   OH224023   2.025   5.611   4.373 -0.0544  0.1794  0.5720
 8020TIP3    H124024   1.985   5.554   4.308 -1.8857  1.0821  0.8864
 8020TIP3    H224025   2.000   5.573   4.458 -1.0429  1.2409  0.7804
 8021TIP3   OH224026   7.373   6.617   1.684 -0.1584 -0.0500  0.0431
 8021TIP3    H124027   7.413   6.559   1.749  0.4141 -0.1545 -0.3945
 8021TIP3    H224028   7.290   6.575   1.662  0.5854 -1.1039 -0.8140
 8022TIP3   OH224029   3.771   4.193   5.381  0.2816 -0.2352 -0.5134
 8022TIP3    H124030   3.719   4.113   5.372  0.8235 -0.8262  1.3429
 8022TIP3    H224031   3.730   4.255   5.321 -0.2071 -1.8661 -1.9303
 8023TIP3   OH224032   6.375   3.812   4.879 -0.2819  0.4261 -0.3040
 8023TIP3    H124033   6.415   3.746   4.824 -1.9696 -1.7163  0.9578
 8023TIP3    H224034   6.283   3.815   4.851 -0.4466  1.5466  0.2930
 8024TIP3   OH224035   6.765   6.802   0.525  0.4660 -0.3893  0.0594
 8024TIP3    H124036   6.734   6.735   0.585  1.2227 -1.1596 -0.4121
 8024TIP3    H224037   6.814   6.863   0.580 -0.7248  0.1137  0.5872
 8025TIP3   OH224038   1.307   0.831   0.401  0.1739 -0.0662  0.5550
 8025TIP3    H124039   1.225   0.852   0.447 -0.5206 -1.6652  0.1048
 8025TIP3    H224040   1.294   0.865   0.313  1.2433  2.4107  1.3055
 8026TIP3   OH224041   3.945   3.438   5.479  0.3923  0.1960 -0.4485
 8026TIP3    H124042   4.041   3.428   5.474  0.2020 -1.1956 -2.1520
 8026TIP3    H224043   3.928   3.523   5.437  0.8532  0.1830 -0.6704
 8027TIP3   OH224044   7.042   6.945   0.132 -0.2702  0.0340 -0.2497
 8027TIP3    H124045   7.105   6.955   0.062 -0.9758 -2.9522 -1.4160
 8027TIP3    H224046   7.046   7.027   0.181  3.1869  0.5663 -1.3289
 8028TIP3   OH224047   2.854   0.713   1.504 -0.1761 -0.1663  0.5539
 8028TIP3    H124048   2.785   0.774   1.531 -1.3744 -1.8323  1.4019
 8028TIP3    H224049   2.823   0.628   1.536  0.9869 -1.3637 -1.4473
 8029TIP3   OH224050   2.973   0.701   4.115  0.5955  0.5337  0.3284
 8029TIP3    H124051   2.949   0.772   4.055  2.0399  0.2912 -0.5763
 8029TIP3    H224052   2.950   0.622   4.067  1.6311  0.3416  0.1393
 8030TIP3   OH224053   4.671   5.474   4.922  0.1805 -0.6454 -0.4037
 8030TIP3    H124054   4.612   5.445   4.853 -0.0215 -1.2227  0.0108
 8030TIP3    H224055   4.616   5.479   5.001  0.7526 -1.5174  0.0604
 8031TIP3   OH224056   6.103   0.152   0.269 -0.9320  0.3292 -0.1143
 8031TIP3    H124057   6.133   0.073   0.223 -0.6484 -0.2989  1.1407
 8031TIP3    H224058   6.018   0.127   0.305  0.1271 -0.1545  2.1605
 8032TIP3   OH224059   0.833   6.470   0.094  0.1199  0.0225 -0.4863
 8032TIP3    H124060   0.869   6.529   0.028  1.4717 -1.4532 -1.1002
 8032TIP3    H224061   0.837   6.383   0.054  1.8580 -1.0430  1.8632
 8033TIP3   OH224062   0.228   6.290   0.817  0.0672 -0.3226  0.3087
 8033TIP3    H124063   0.223   6.231   0.892 -0.3433 -1.1534 -0.3604
 8033TIP3    H224064   0.296   6.353   0.840  0.8559 -1.3513  0.8307
 8034TIP3   OH224065   6.320   3.863   5.665 -0.4040 -0.0451  0.1356
 8034TIP3    H124066   6.390   3.850   5.601  0.2910 -1.4544  1.1285
 8034TIP3    H224067   6.313   3.958   5.675  1.0176  0.1275 -0.3669
 8035TIP3   OH224068   7.304   3.561   5.312 -0.1760 -0.0268  0.6689
 8035TIP3    H124069   7.236   3.534   5.249 -0.3363 -1.2085  1.3342
 8035TIP3    H224070   7.304   3.492   5.378  0.2874  1.0009  1.7565
 8036TIP3   OH224071   6.191   4.482   1.572  0.0788 -0.1332  0.4675
 8036TIP3    H124072   6.282   4.483   1.605  0.1305 -0.5449  0.3359
 8036TIP3    H224073   6.200   4.494   1.478  0.0189 -0.6024  0.4025
 8037TIP3   OH224074   2.543   1.745   5.174 -0.5433  0.6028 -0.0659
 8037TIP3    H124075   2.621   1.797   5.154 -0.0754 -0.2979 -0.6695
 8037TIP3    H224076   2.572   1.684   5.242 -0.0378 -1.2679 -1.8863
 8038TIP3   OH224077   1.177   2.989   0.249  0.3003  0.3587 -0.3356
 8038TIP3    H124078   1.106   2.962   0.190 -0.4388 -0.0518  0.7156
 8038TIP3    H224079   1.139   3.058   0.303  0.4022 -0.4710  0.8342
 8039TIP3   OH224080   4.760   4.485   5.623 -0.3589 -0.7421 -0.4584
 8039TIP3    H124081   4.694   4.541   5.665  0.3032 -1.5985  1.8011
 8039TIP3    H224082   4.829   4.476   5.689  0.8687 -1.8734 -1.8786
 8040TIP3   OH224083   1.380   0.199   1.458 -0.0397  0.4634  0.2627
 8040TIP3    H124084   1.319   0.153   1.516  0.2834  0.3689  0.5274
 8040TIP3    H224085   1.391   0.285   1.498  2.0801 -0.4421  1.6766
 8041TIP3   OH224086   2.221   1.678   5.862 -0.0625  0.3500 -0.0310
 8041TIP3    H124087   2.303   1.717   5.890 -1.5344  1.7910  2.4037
 8041TIP3    H224088   2.217   1.594   5.908 -1.5945  1.8875  2.7928
 8042TIP3   OH224089   3.901   1.854   4.756 -0.1163  0.3134 -0.5119
 8042TIP3    H124090   3.928   1.925   4.698  0.8368  0.9029  0.6347
 8042TIP3    H224091   3.872   1.898   4.836  0.2602 -0.5603  0.1189
 8043TIP3   OH224092   2.843   6.587   0.466 -0.1249 -0.0870  0.6701
 8043TIP3    H124093   2.886   6.601   0.382 -1.8958 -0.0673 -0.2601
 8043TIP3    H224094   2.879   6.655   0.523 -0.5691  1.3578 -0.7243
 8044TIP3   OH224095   2.241   5.754   0.662 -0.1694 -0.2200  0.5309
 8044TIP3    H124096   2.331   5.764   0.633 -0.6470  0.7732 -0.6716
 8044TIP3    H224097   2.229   5.659   0.670  0.7605 -0.3922 -0.0112
 8045TIP3   OH224098   3.901   1.214   1.244 -0.7518  0.5264 -0.8095
 8045TIP3    H124099   3.915   1.120   1.230 -0.6784  0.3057  0.6648
 8045TIP3    H224100   3.901   1.225   1.339  0.1761  2.1605 -0.9677
 8046TIP3   OH224101   4.978   3.224   4.926 -0.4258 -0.1619  0.3092
 8046TIP3    H124102   5.049   3.271   4.970  0.8222  0.3329 -2.0920
 8046TIP3    H224103   4.912   3.291   4.910  0.9306  0.6619 -2.2278
 8047TIP3   OH224104   7.055   6.098   1.443  0.1611  0.1421  0.2001
 8047TIP3    H124105   7.044   6.004   1.426  0.3495  0.0386  0.6338
 8047TIP3    H224106   6.976   6.138   1.409 -0.1641 -0.2402  0.4986
 8048TIP3   OH224107   6.835   1.538   3.096  0.3048 -0.1661 -0.2341
 8048TIP3    H124108   6.810   1.463   3.043  0.0733 -1.1479  1.2674
 8048TIP3    H224109   6.928   1.525   3.114  0.7568  0.9517 -1.6567
 8049TIP3   OH224110   4.218   3.326   4.175 -0.3887 -0.1778  0.0241
 8049TIP3    H124111   4.132   3.368   4.170 -0.7066 -0.8523 -0.2048
 8049TIP3    H224112   4.261   3.351   4.093 -0.0166  0.8954  0.5294
 8050TIP3   OH224113   6.114   1.898   5.939 -0.3681  0.2446 -0.5000
 8050TIP3    H124114   6.147   1.926   5.853  0.2211 -0.3476 -0.4706
 8050TIP3    H224115   6.192   1.897   5.995 -0.5635 -0.4448 -0.2370
 8051TIP3   OH224116   0.561   4.828   1.082 -0.2807  0.3640  0.1696
 8051TIP3    H124117   0.503   4.805   1.154 -1.7880 -0.0009 -1.1169
 8051TIP3    H224118   0.642   4.781   1.100 -1.4278 -1.5713  0.4641
 8052TIP3   OH224119   2.750   1.348   1.242 -0.2859  0.1113  0.8620
 8052TIP3    H124120   2.738   1.337   1.336 -0.0271 -0.7879  0.7979
 8052TIP3    H224121   2.844   1.335   1.228 -0.1885  1.0700  0.5835
 8053TIP3   OH224122   4.394   1.657   5.162  0.5972  0.2008  0.4915
 8053TIP3    H124123   4.322   1.669   5.100 -0.1128 -2.4300  0.7468
 8053TIP3    H224124   4.471   1.688   5.116 -0.4116  1.3154 -0.4818
 8054TIP3   OH224125   0.998   6.039   1.001 -0.0297 -0.5751 -0.3166
 8054TIP3    H124126   1.071   6.093   1.029 -0.7818 -0.0184  0.6023
 8054TIP3    H224127   1.038   5.970   0.948  1.1013 -0.0201 -0.2021
 8055TIP3   OH224128   4.196   2.664   4.612 -0.4772  0.1221  0.0016
 8055TIP3    H124129   4.283   2.696   4.588  0.1621  0.3288  2.4117
 8055TIP3    H224130   4.181   2.700   4.699 -2.0253 -1.7340  0.5361
 8056TIP3   OH224131   0.791   4.213   1.316 -0.3905 -0.1219  0.4585
 8056TIP3    H124132   0.825   4.163   1.391 -1.2226 -0.1429  0.8232
 8056TIP3    H224133   0.864   4.215   1.254  1.1251  1.8639  2.2103
 8057TIP3   OH224134   6.684   3.580   5.508 -0.4413  0.4841  0.4027
 8057TIP3    H124135   6.720   3.560   5.594  1.7157 -0.8775 -0.7938
 8057TIP3    H224136   6.724   3.663   5.484  2.0935 -1.0999 -0.9897
 8058TIP3   OH224137   1.411   6.910   0.370 -0.3161  0.4771  0.0289
 8058TIP3    H124138   1.373   6.919   0.283  0.5415  0.8652 -0.3164
 8058TIP3    H224139   1.357   6.964   0.427 -0.4304  0.8131 -0.4021
 8059TIP3   OH224140   6.123   4.396   4.415 -0.1013  0.1051  0.0065
 8059TIP3    H124141   6.134   4.410   4.509  1.1693  0.2375 -0.1463
 8059TIP3    H224142   6.037   4.433   4.395 -0.4974 -0.1626  1.1546
 8060TIP3   OH224143   1.037   0.903   0.493 -0.1310 -0.0161 -0.0655
 8060TIP3    H124144   0.950   0.894   0.533  0.0997  0.6809  0.5944
 8060TIP3    H224145   1.075   0.980   0.535  1.1589 -0.8399  0.2907
 8061TIP3   OH224146   7.304   2.947   5.650  0.3117 -0.2357 -0.2027
 8061TIP3    H124147   7.339   2.892   5.720  1.2367 -0.1336 -0.5750
 8061TIP3    H224148   7.227   2.900   5.619  0.6443 -0.9404  0.0132
 8062TIP3   OH224149   6.358   6.740   1.399  0.7558 -0.3145  0.4283
 8062TIP3    H124150   6.413   6.671   1.362  1.1589  0.5882 -0.6708
 8062TIP3    H224151   6.388   6.747   1.490  2.3827  0.0558 -0.1151
 8063TIP3   OH224152   6.028   1.742   4.668 -0.4481  0.3947 -0.0997
 8063TIP3    H124153   6.067   1.722   4.753 -0.6967 -1.8052 -0.4755
 8063TIP3    H224154   6.098   1.724   4.605 -0.7871  0.4187 -0.4863
 8064TIP3   OH224155   5.073   5.119   0.951  0.1482  0.0619  0.4412
 8064TIP3    H124156   5.071   5.130   1.046  0.5562  0.0398  0.4537
 8064TIP3    H224157   5.099   5.205   0.918 -2.6728  0.8671  0.1876
 8065TIP3   OH224158   4.398   3.173   4.819  0.2623  0.1011 -0.1463
 8065TIP3    H124159   4.352   3.105   4.769 -1.3416  0.8647  0.2525
 8065TIP3    H224160   4.449   3.124   4.884  0.2874 -0.7814 -0.8230
 8066TIP3   OH224161   1.966   0.298   1.689 -0.1524 -0.9855 -0.0694
 8066TIP3    H124162   2.061   0.303   1.698 -0.3275  1.8517  0.7658
 8066TIP3    H224163   1.933   0.287   1.778 -0.6882  0.6528 -0.0386
 8067TIP3   OH224164   4.094   1.503   5.983  0.7526  0.2075  0.3462
 8067TIP3    H124165   4.150   1.426   5.996  0.2613 -0.1442  0.4035
 8067TIP3    H224166   4.008   1.466   5.964 -0.3445  0.6941  3.9087
 8068TIP3   OH224167   5.660   2.309   4.534  0.1138 -0.3940  0.4421
 8068TIP3    H124168   5.748   2.344   4.524 -0.6542  2.4686  2.9647
 8068TIP3    H224169   5.648   2.301   4.629 -2.1252 -1.3000  0.1167
 8069TIP3   OH224170   0.366   3.397   4.064 -0.0023 -0.9835  0.0633
 8069TIP3    H124171   0.340   3.309   4.036 -1.5943 -0.2974 -0.7067
 8069TIP3    H224172   0.318   3.411   4.145 -2.2395  0.3325 -1.4173
 8070TIP3   OH224173   2.710   4.220   5.374  0.4768 -0.0762 -0.1892
 8070TIP3    H124174   2.656   4.223   5.453  0.9256 -1.0703  0.1734
 8070TIP3    H224175   2.744   4.309   5.365 -0.3846  0.3022  0.1595
 8071TIP3   OH224176   0.003   6.608   0.528  0.3720  0.2625 -0.1563
 8071TIP3    H124177   0.090   6.567   0.531  0.7406  0.8200 -2.1981
 8071TIP3    H224178  -0.021   6.603   0.436 -1.5659  0.5579  0.3295
 8072TIP3   OH224179   2.160   6.280   1.332  0.5639  0.0243 -0.1146
 8072TIP3    H124180   2.191   6.191   1.346 -0.3921 -0.3193 -0.1193
 8072TIP3    H224181   2.174   6.297   1.239 -0.5349 -0.6343 -0.4065
 8073TIP3   OH224182   2.460   1.060   1.459 -0.6717  0.2332 -0.2289
 8073TIP3    H124183   2.378   1.043   1.414  0.3525 -0.5183 -1.8593
 8073TIP3    H224184   2.511   1.112   1.397 -0.2565  1.4715  1.1300
 8074TIP3   OH224185   4.708   5.589   5.323 -0.5103 -0.3947 -0.2449
 8074TIP3    H124186   4.625   5.637   5.313 -0.0304  0.4833 -0.1153
 8074TIP3    H224187   4.762   5.621   5.251 -0.2508 -0.9033 -0.2777
 8075TIP3   OH224188   3.876   4.206   5.049  0.6104  0.0826  0.3438
 8075TIP3    H124189   3.803   4.251   5.091 -0.8220 -3.2975  1.6117
 8075TIP3    H224190   3.842   4.119   5.028  2.4563  0.3645 -4.4687
 8076TIP3   OH224191   6.168   3.740   4.727  0.2382  0.0720  0.2703
 8076TIP3    H124192   6.114   3.807   4.685 -0.5313  0.1417  1.3323
 8076TIP3    H224193   6.109   3.665   4.736  0.4378  0.0100  1.0647
 8077TIP3   OH224194   0.602   3.217   4.128  0.1027  0.1309 -0.6622
 8077TIP3    H124195   0.557   3.287   4.081  0.8545 -0.1512 -1.8246
 8077TIP3    H224196   0.594   3.140   4.072  1.4194 -0.0950 -0.5593
 8078TIP3   OH224197   1.583   0.450   0.469 -0.1820  0.3470  0.0916
 8078TIP3    H124198   1.531   0.501   0.531  0.9823  1.0534  0.5158
 8078TIP3    H224199   1.563   0.488   0.383 -2.4561 -1.1925 -0.1026
 8079TIP3   OH224200   6.165   3.283   0.457 -0.0585  0.4493  0.1880
 8079TIP3    H124201   6.129   3.258   0.372  0.0292 -1.7078  0.7519
 8079TIP3    H224202   6.094   3.332   0.499 -0.7810 -0.0802 -0.4015
 8080TIP3   OH224203   6.911   5.206   0.196  0.8192  0.4880 -0.6326
 8080TIP3    H124204   6.955   5.253   0.267  1.2902  2.0562 -1.9303
 8080TIP3    H224205   6.980   5.192   0.131 -0.0067  0.6236 -1.5384
 8081TIP3   OH224206   5.457   5.577   0.532  0.1179  0.1623  0.0662
 8081TIP3    H124207   5.397   5.538   0.596  1.1315 -0.4179  0.6822
 8081TIP3    H224208   5.442   5.527   0.451 -1.3007  1.0240 -0.2036
 8082TIP3   OH224209   0.648   5.882   0.868 -0.2068 -0.3957 -0.0700
 8082TIP3    H124210   0.607   5.826   0.934 -1.7229  0.3384 -0.3619
 8082TIP3    H224211   0.619   5.970   0.891 -1.6252 -0.2354 -2.3012
 8083TIP3   OH224212   1.921   6.114   0.350 -0.2699 -0.0053  0.1399
 8083TIP3    H124213   1.993   6.070   0.304 -0.1910 -0.5814  0.8119
 8083TIP3    H224214   1.964   6.164   0.419 -0.5245 -0.4349  0.6089
 8084TIP3   OH224215   6.866   2.096   5.565  0.1193  0.8328 -0.0136
 8084TIP3    H124216   6.875   2.131   5.476  0.3473  1.9706  0.4472
 8084TIP3    H224217   6.826   2.168   5.614  0.5037  0.4003  0.9281
 8085TIP3   OH224218   7.057   6.965   1.982  0.0910 -0.5117 -0.0307
 8085TIP3    H124219   6.969   7.002   1.995  0.1226 -0.8179  1.0616
 8085TIP3    H224220   7.056   6.936   1.891  0.4540  3.2314 -1.3495
 8086TIP3   OH224221   5.117   4.966   4.955  0.4686 -0.1175  0.0990
 8086TIP3    H124222   5.100   5.055   4.923  2.4349  0.0508 -0.4889
 8086TIP3    H224223   5.030   4.933   4.977 -0.3216  1.8658  0.1176
 8087TIP3   OH224224   0.759   5.738   0.457  0.3007 -0.7642  0.2880
 8087TIP3    H124225   0.718   5.766   0.375 -0.2003  1.6086  1.3191
 8087TIP3    H224226   0.837   5.793   0.465  0.2612 -0.8715  1.4850
 8088TIP3   OH224227   2.260   0.263   1.679  0.1599 -0.2666 -0.4622
 8088TIP3    H124228   2.295   0.267   1.590  1.1062 -0.6202 -0.1171
 8088TIP3    H224229   2.334   0.288   1.735 -0.9812  1.9989  0.1138
 8089TIP3   OH224230   3.824   2.079   4.941 -0.1072 -0.2482  0.1344
 8089TIP3    H124231   3.860   2.129   5.015 -0.9219 -0.7538  0.8755
 8089TIP3    H224232   3.801   2.146   4.877  0.0355  0.2384  0.5811
 8090TIP3   OH224233   7.232   4.344   1.896 -0.3700 -0.1384 -0.6337
 8090TIP3    H124234   7.288   4.367   1.822  1.1551 -1.4668  0.0757
 8090TIP3    H224235   7.293   4.320   1.966 -1.8173 -0.8519  0.4123
 8091TIP3   OH224236   4.878   2.066   4.157  0.4021  0.0858  0.1246
 8091TIP3    H124237   4.922   1.983   4.174  0.1515 -0.3795 -1.4453
 8091TIP3    H224238   4.788   2.051   4.185  0.8161  0.4829  1.7134
 8092TIP3   OH224239   5.709   5.261   1.486 -0.8987  0.1510  0.3497
 8092TIP3    H124240   5.757   5.287   1.407 -1.2027  0.6186  0.3179
 8092TIP3    H224241   5.669   5.178   1.463  0.9614 -0.8930  0.8122
 8093TIP3   OH224242   4.204   2.918   5.583  0.7194 -0.6280  0.2588
 8093TIP3    H124243   4.217   2.948   5.673  1.0932 -1.8612  0.6233
 8093TIP3    H224244   4.288   2.880   5.557  0.5459 -0.4842 -0.5346
 8094TIP3   OH224245   4.221   0.808   4.209  0.2173 -0.3585 -0.1161
 8094TIP3    H124246   4.128   0.827   4.219  0.5335  0.5338  1.3422
 8094TIP3    H224247   4.254   0.876   4.151  0.4687  0.9868  1.5451
 8095TIP3   OH224248   2.765   1.210   4.812 -0.2075 -0.1752  0.5405
 8095TIP3    H124249   2.800   1.138   4.760  2.9315  2.3141 -1.0222
 8095TIP3    H224250   2.814   1.205   4.895  0.0904  0.2054  0.3884
 8096TIP3   OH224251   0.443   6.724   4.880  0.0170 -0.2033 -0.0976
 8096TIP3    H124252   0.435   6.709   4.785  0.9239 -0.0961 -0.1935
 8096TIP3    H224253   0.386   6.800   4.897 -0.2065 -0.2688 -0.5393
 8097TIP3   OH224254   7.347   6.517   0.182  0.9828 -0.4790 -0.8130
 8097TIP3    H124255   7.334   6.429   0.148  2.0547 -1.3526  0.9897
 8097TIP3    H224256   7.261   6.559   0.174 -0.7692 -3.1640  2.5262
 8098TIP3   OH224257   3.235   4.967   2.738 -0.0428  0.1900  0.0872
 8098TIP3    H124258   3.247   5.008   2.652 -1.5820  1.9232  0.6666
 8098TIP3    H224259   3.144   4.986   2.761 -0.1210 -1.6377  1.4005
 8099TIP3   OH224260   6.839   5.854   2.117  0.6113 -0.1584  0.3790
 8099TIP3    H124261   6.858   5.947   2.114 -1.1104  0.1571 -2.0993
 8099TIP3    H224262   6.925   5.812   2.107  1.3563  1.1481  1.1679
 8100TIP3   OH224263   3.287   0.422   1.007  0.1161 -0.4660 -0.6817
 8100TIP3    H124264   3.334   0.347   1.044 -2.4363 -2.0040 -0.4083
 8100TIP3    H224265   3.258   0.392   0.921  0.5281  0.8375 -1.2938
 8101TIP3   OH224266   1.144   0.233   2.487 -0.1495  0.0292 -0.4520
 8101TIP3    H124267   1.100   0.159   2.444  1.0295 -0.6531 -0.5114
 8101TIP3    H224268   1.235   0.206   2.493  0.7924  2.4895 -2.7119
 8102TIP3   OH224269   4.739   1.223   4.272 -0.4025  0.5460  0.1555
 8102TIP3    H124270   4.675   1.154   4.253 -0.5750  1.2600 -1.9649
 8102TIP3    H224271   4.823   1.178   4.277 -0.8555 -0.1878  1.5118
 8103TIP3   OH224272   5.406   6.025   1.317 -0.0799 -0.0912 -0.1629
 8103TIP3    H124273   5.372   6.027   1.227 -0.6963 -0.5453  0.0591
 8103TIP3    H224274   5.343   6.076   1.367 -0.4831 -0.9907  0.2610
 8104TIP3   OH224275   5.887   6.754   1.102 -0.1056 -0.5518 -0.1667
 8104TIP3    H124276   5.936   6.832   1.075  2.2865 -1.8845  0.2115
 8104TIP3    H224277   5.878   6.763   1.197 -1.0754 -0.0523 -0.3003
 8105TIP3   OH224278   3.034   0.264   0.137  0.8354  0.4585 -0.7727
 8105TIP3    H124279   3.039   0.322   0.213 -2.1850 -0.5559  0.2820
 8105TIP3    H224280   3.082   0.185   0.164  1.3338  0.8061 -0.6337
 8106TIP3   OH224281   0.557   6.272   0.723  0.0964  0.3365 -0.0247
 8106TIP3    H124282   0.637   6.324   0.721  0.1392  0.3527  1.4494
 8106TIP3    H224283   0.565   6.220   0.803 -1.2352  0.1373 -0.0180
 8107TIP3   OH224284   1.539   0.770   1.970 -0.1448 -0.4726  0.8442
 8107TIP3    H124285   1.580   0.836   1.914  1.4079 -2.6153 -0.6238
 8107TIP3    H224286   1.490   0.821   2.035 -1.0465  2.0564 -1.7455
 8108TIP3   OH224287   7.170   6.796   2.169  0.1156  0.4148  0.2265
 8108TIP3    H124288   7.110   6.822   2.239  0.3891  1.0470  0.2287
 8108TIP3    H224289   7.132   6.835   2.090 -0.0252 -0.0367  0.0716
 8109TIP3   OH224290   5.558   4.506   5.477 -0.0158  0.4127 -0.0540
 8109TIP3    H124291   5.563   4.586   5.529 -1.4550  1.0269 -0.8292
 8109TIP3    H224292   5.505   4.447   5.529  0.7806  0.0639  0.3731
 8110TIP3   OH224293   4.773   4.553   4.033 -0.0971 -0.2123  0.0572
 8110TIP3    H124294   4.698   4.553   3.973 -0.0305  0.4515 -0.0360
 8110TIP3    H224295   4.736   4.578   4.117 -0.1336 -0.8059  0.2188
 8111TIP3   OH224296   6.890   4.761   0.099 -0.0684 -0.5388  0.2988
 8111TIP3    H124297   6.971   4.717   0.125 -0.2132 -1.0728 -0.1655
 8111TIP3    H224298   6.861   4.806   0.179  1.4227  0.8064  0.1260
 8112TIP3   OH224299   2.745   1.593   2.221 -0.4159 -0.0141 -0.3601
 8112TIP3    H124300   2.675   1.632   2.274 -0.4725 -0.3932 -0.1519
 8112TIP3    H224301   2.739   1.499   2.240 -0.5608 -0.1734 -1.1925
 8113TIP3   OH224302   7.123   6.274   2.184 -0.1444  0.6405  0.0056
 8113TIP3    H124303   7.211   6.309   2.199 -0.2077  1.3702 -1.2384
 8113TIP3    H224304   7.096   6.239   2.269  1.3277  0.4561  0.4085
 8114TIP3   OH224305   3.700   1.327   0.625  0.2045 -0.4362  0.5498
 8114TIP3    H124306   3.710   1.327   0.720 -1.8014  0.5766  0.7888
 8114TIP3    H224307   3.632   1.261   0.608  0.5344 -0.5907 -0.1761
 8115TIP3   OH224308   0.579   6.420   1.212  0.4306  0.0879  0.0842
 8115TIP3    H124309   0.522   6.476   1.264 -0.2242  0.4170 -0.9731
 8115TIP3    H224310   0.590   6.466   1.129  2.2203  0.0215  0.2565
 8116TIP3   OH224311   1.203   6.389   2.264  0.3199 -0.4345 -0.4403
 8116TIP3    H124312   1.215   6.367   2.356 -2.1594  1.2330  0.3296
 8116TIP3    H224313   1.118   6.351   2.241 -0.3877  1.5791 -1.2375
 8117TIP3   OH224314   0.315   6.558   0.946 -0.5451 -0.3410  0.3143
 8117TIP3    H124315   0.402   6.582   0.977  0.0478 -1.2799 -0.5725
 8117TIP3    H224316   0.279   6.638   0.908  0.3857 -0.2164 -0.3137
 8118TIP3   OH224317   3.871   0.370   0.333 -0.2408  0.2162  0.3573
 8118TIP3    H124318   3.937   0.374   0.263 -0.5925 -1.1640 -0.0574
 8118TIP3    H224319   3.900   0.436   0.396  2.0261 -0.9800  0.6075
 8119TIP3   OH224320   3.254   1.474   5.124 -0.1999  0.5872 -0.2066
 8119TIP3    H124321   3.212   1.533   5.062  1.0253  1.5828 -0.1168
 8119TIP3    H224322   3.321   1.528   5.167  0.0443 -0.5120  0.8242
 8120TIP3   OH224323   6.571   6.121   0.438  0.1277  0.2965  0.5840
 8120TIP3    H124324   6.532   6.036   0.458  0.6643  0.2521  1.4657
 8120TIP3    H224325   6.499   6.183   0.447  0.3232  0.2614  2.5544
 8121TIP3   OH224326   5.288   6.897   0.300  0.1227 -0.2988 -0.1938
 8121TIP3    H124327   5.322   6.829   0.241  0.3031 -0.3305 -0.0565
 8121TIP3    H224328   5.363   6.918   0.357  0.0565 -0.0077 -0.2171
 8122TIP3   OH224329   4.580   4.874   5.264 -0.0660  0.5136 -0.1061
 8122TIP3    H124330   4.638   4.942   5.297  1.9016 -1.5869  0.8835
 8122TIP3    H224331   4.573   4.811   5.335 -1.9435 -0.3056 -0.9638
 8123TIP3   OH224332   6.186   5.206   4.150  0.1034  0.3130  0.3379
 8123TIP3    H124333   6.239   5.158   4.086  0.2439  0.8783  0.0256
 8123TIP3    H224334   6.097   5.173   4.138  0.4973 -1.1943  1.3839
 8124TIP3   OH224335   4.653   1.213   0.372 -0.4832  0.6769 -0.3009
 8124TIP3    H124336   4.601   1.235   0.295 -0.4783  1.8862  0.0337
 8124TIP3    H224337   4.665   1.118   0.367 -2.1140  0.4845 -0.7478
 8125TIP3   OH224338   7.214   6.482   1.121  0.2536  0.2649 -0.2116
 8125TIP3    H124339   7.304   6.513   1.123  0.2912  0.3848 -2.5302
 8125TIP3    H224340   7.213   6.414   1.053 -1.0746 -0.8031  0.8385
 8126TIP3   OH224341   3.784   2.063   0.318 -0.2556 -0.0341  0.2718
 8126TIP3    H124342   3.838   2.088   0.243 -0.4862  2.9551  1.0776
 8126TIP3    H224343   3.697   2.051   0.282  0.1833 -1.3568 -0.3982
 8127TIP3   OH224344   6.439   4.426   4.375 -0.6002  0.2984  0.3338
 8127TIP3    H124345   6.417   4.495   4.437 -2.5664 -0.7944  0.9291
 8127TIP3    H224346   6.468   4.353   4.429 -0.8274 -0.1338 -0.1158
 8128TIP3   OH224347   0.903   0.249   1.646  0.4623  0.1405  0.3034
 8128TIP3    H124348   0.971   0.314   1.635  0.2536  0.2427 -0.4160
 8128TIP3    H224349   0.823   0.292   1.614  0.2454 -0.3178  0.2244
 8129TIP3   OH224350   6.538   3.964   4.574 -0.2153  0.2479  0.2411
 8129TIP3    H124351   6.526   3.908   4.651  0.9446  0.2286  0.4258
 8129TIP3    H224352   6.620   3.933   4.536 -1.6483 -0.9063 -2.0017
 8130TIP3   OH224353   2.763   0.367   1.579 -0.6902  0.4062  0.7325
 8130TIP3    H124354   2.798   0.325   1.500 -0.6575  0.9780  0.4362
 8130TIP3    H224355   2.837   0.418   1.613 -0.3612 -0.7676  1.7955
 8131TIP3   OH224356   3.948   3.174   5.571  0.4037 -0.0089  0.1114
 8131TIP3    H124357   3.944   3.267   5.551 -0.2555 -0.3176 -1.2663
 8131TIP3    H224358   3.888   3.133   5.508  0.1881 -1.2869  1.1241
 8132TIP3   OH224359   2.528   3.585   3.800  0.4197  0.3415  0.3263
 8132TIP3    H124360   2.585   3.577   3.876 -0.3308  0.0686  0.8743
 8132TIP3    H224361   2.487   3.671   3.810  0.0464  0.1530  0.4305
 8133TIP3   OH224362   2.684   0.104   2.583  0.2096 -0.3347  0.1877
 8133TIP3    H124363   2.675   0.074   2.673 -2.7854  0.0016  0.0284
 8133TIP3    H224364   2.647   0.034   2.530  0.3135  0.2608 -0.6844
 8134TIP3   OH224365   0.236   6.793   0.863  0.3041  0.0298 -0.2021
 8134TIP3    H124366   0.312   6.826   0.815  0.1863  1.1988  0.3907
 8134TIP3    H224367   0.161   6.820   0.810  0.2055  0.7766  0.3077
 8135TIP3   OH224368   4.082   4.951   5.804  0.0579 -0.0355 -0.4068
 8135TIP3    H124369   4.113   4.982   5.719 -0.9470  0.2250 -0.6784
 8135TIP3    H224370   3.987   4.961   5.801 -0.0201 -0.3707  0.6096
 8136TIP3   OH224371   5.025   2.648   5.323  0.1650 -0.2082 -0.1833
 8136TIP3    H124372   5.111   2.628   5.288 -0.3389  0.3783 -1.8169
 8136TIP3    H224373   5.001   2.731   5.282 -0.9893 -0.1459  0.5822
 8137TIP3   OH224374   5.137   4.203   5.753  0.3382 -0.0057  0.2183
 8137TIP3    H124375   5.183   4.127   5.790  0.5741 -0.3111 -0.6670
 8137TIP3    H224376   5.048   4.172   5.740  0.6283 -0.4057 -0.8968
 8138TIP3   OH224377   3.048   6.017   2.962  0.5893 -0.4958  0.0959
 8138TIP3    H124378   3.107   6.075   2.914  0.2005 -0.5475 -0.4538
 8138TIP3    H224379   2.982   6.076   2.998 -0.2571 -0.6680 -1.1290
 8139TIP3   OH224380   7.112   5.398   1.459  0.5470 -0.3917  0.3811
 8139TIP3    H124381   7.127   5.396   1.364  0.2437 -2.2339  0.3600
 8139TIP3    H224382   7.179   5.458   1.492 -0.6784  1.9372 -1.2166
 8140TIP3   OH224383   5.994   4.148   5.739  0.4298 -0.1261  0.6341
 8140TIP3    H124384   5.959   4.065   5.770  0.4005 -0.2742  0.2103
 8140TIP3    H224385   5.967   4.153   5.648  1.7501 -0.3866  0.2090
 8141TIP3   OH224386   4.921   1.010   3.158  0.0097  0.2835  0.1193
 8141TIP3    H124387   4.856   0.946   3.187  0.5279 -1.2707 -1.9717
 8141TIP3    H224388   4.910   1.012   3.063  2.4367  0.6269 -0.1718
 8142TIP3   OH224389   6.418   6.554   0.780  0.3863 -0.5114  0.1654
 8142TIP3    H124390   6.334   6.555   0.826 -0.0325  1.3641 -0.5958
 8142TIP3    H224391   6.398   6.589   0.693  2.0089  0.2195  0.0670
 8143TIP3   OH224392   5.328   3.225   5.532  0.2836 -0.3304  0.3349
 8143TIP3    H124393   5.264   3.219   5.602 -0.9597 -0.9357 -0.8373
 8143TIP3    H224394   5.314   3.147   5.478  1.7440 -0.2835 -0.1527
 8144TIP3   OH224395   4.025   3.861   5.299  0.0428 -0.4819  0.0982
 8144TIP3    H124396   4.088   3.837   5.232  1.6039 -0.8901  1.6750
 8144TIP3    H224397   4.035   3.956   5.309 -0.1716 -0.4252 -0.2119
 8145TIP3   OH224398   6.926   4.236   0.939  0.0907  0.4746  0.2477
 8145TIP3    H124399   6.907   4.142   0.936  0.1452  0.4958 -1.1188
 8145TIP3    H224400   7.020   4.241   0.954 -0.0023  0.3159  0.8956
 8146TIP3   OH224401   2.425   1.359   2.155 -0.1241  0.7771 -0.3836
 8146TIP3    H124402   2.413   1.271   2.120 -0.0216  0.7068 -0.2401
 8146TIP3    H224403   2.478   1.347   2.233 -1.3745  0.7958  0.4816
 8147TIP3   OH224404   2.477   0.520   5.594  0.1489  0.3958 -0.3819
 8147TIP3    H124405   2.397   0.552   5.552 -0.9479 -0.3148  1.1157
 8147TIP3    H224406   2.546   0.579   5.564 -1.0877  1.4989 -1.0637
 8148TIP3   OH224407   6.131   4.596   0.236 -0.1425 -0.5703 -0.2196
 8148TIP3    H124408   6.077   4.518   0.239 -0.0315 -0.6123  1.0161
 8148TIP3    H224409   6.173   4.600   0.322 -0.7249  1.2483  0.0122
 8149TIP3   OH224410   1.664   3.736   1.168 -0.6219 -0.5718  0.1357
 8149TIP3    H124411   1.714   3.751   1.248  0.9631  1.8213 -1.2511
 8149TIP3    H224412   1.593   3.677   1.194  0.2968 -0.3925  3.1214
 8150TIP3   OH224413   3.999   1.747   1.527 -0.5926  0.3225 -0.2904
 8150TIP3    H124414   3.948   1.788   1.596  1.8116  2.4948  0.2834
 8150TIP3    H224415   3.959   1.779   1.446 -1.1221  0.7514  0.1346
 8151TIP3   OH224416   1.798   0.776   0.671 -0.0848  0.6248 -0.5330
 8151TIP3    H124417   1.705   0.751   0.671 -0.0688  0.5341 -2.6907
 8151TIP3    H224418   1.845   0.693   0.673 -0.0171  0.6906  2.5687
 8152TIP3   OH224419   3.757   2.539   2.498 -0.3930  0.5143 -0.0076
 8152TIP3    H124420   3.727   2.481   2.568 -0.5713  2.6518  1.7328
 8152TIP3    H224421   3.851   2.546   2.512  0.1960 -2.0650 -2.3294
 8153TIP3   OH224422   3.246   3.237   4.260 -0.4757 -0.6747  0.3707
 8153TIP3    H124423   3.287   3.152   4.243  0.3402 -0.3764  0.7894
 8153TIP3    H224424   3.321   3.296   4.272 -1.0231  0.2983 -0.9283
 8154TIP3   OH224425   1.329   1.764   2.546 -0.6502  0.6279 -0.4527
 8154TIP3    H124426   1.339   1.677   2.584 -3.8297  0.7480  0.7475
 8154TIP3    H224427   1.353   1.752   2.454 -0.7941 -1.4666 -0.2430
 8155TIP3   OH224428   4.266   2.258   3.646 -0.1948 -0.0617 -0.2202
 8155TIP3    H124429   4.213   2.180   3.659  0.7136 -0.6234  0.1856
 8155TIP3    H224430   4.327   2.235   3.576  2.2607 -0.8985  2.1001
 8156TIP3   OH224431   2.020   6.429   3.821  0.4180 -0.1390  0.1216
 8156TIP3    H124432   2.024   6.476   3.905 -1.3406 -0.8665  0.6369
 8156TIP3    H224433   2.054   6.342   3.842  0.3612 -0.1967 -0.0321
 8157TIP3   OH224434   6.002   3.531   5.859  0.3263  0.5408  0.2129
 8157TIP3    H124435   6.015   3.447   5.902 -1.1948  0.3729  0.3684
 8157TIP3    H224436   6.082   3.545   5.808 -0.1246 -1.8057 -1.1895
 8158TIP3   OH224437   5.200   5.282   5.125 -0.0587 -0.1833 -0.1101
 8158TIP3    H124438   5.287   5.304   5.160 -1.0653  1.3184  1.5213
 8158TIP3    H224439   5.194   5.329   5.042  0.7433 -0.4362 -0.3164
 8159TIP3   OH224440   6.119   6.514   2.768 -0.3431 -0.1904 -0.3169
 8159TIP3    H124441   6.179   6.568   2.819  1.1148 -2.1252  0.0894
 8159TIP3    H224442   6.043   6.503   2.825  0.5849 -0.9650  0.8029
 8160TIP3   OH224443   3.815   0.674   3.086  0.0325 -0.6557 -0.5793
 8160TIP3    H124444   3.873   0.630   3.024  1.9347 -0.1914  0.8413
 8160TIP3    H224445   3.741   0.614   3.096  1.9430 -2.9476  0.3191
 8161TIP3   OH224446   5.175   1.656   1.298 -0.1751  0.2134  0.1430
 8161TIP3    H124447   5.161   1.561   1.298 -1.7747  0.4280  0.4227
 8161TIP3    H224448   5.217   1.674   1.382  1.2643 -0.3889 -0.4353
 8162TIP3   OH224449   5.965   1.839   5.042  0.2671  0.2326  0.3565
 8162TIP3    H124450   5.886   1.893   5.046 -1.3461 -2.1547  1.6264
 8162TIP3    H224451   5.943   1.759   5.090  2.7779 -1.3610 -1.0055
 8163TIP3   OH224452   1.354   2.333   0.132  0.5940  0.2645  0.2360
 8163TIP3    H124453   1.284   2.380   0.178  1.0058  0.2527  0.8838
 8163TIP3    H224454   1.311   2.296   0.055  0.3315  2.0010 -0.4844
 8164TIP3   OH224455   5.063   4.577   4.459  0.3422 -0.5511  0.2167
 8164TIP3    H124456   5.111   4.522   4.521 -0.3337 -2.3368 -0.7778
 8164TIP3    H224457   4.972   4.548   4.468 -0.2834  1.5503  0.8188
 8165TIP3   OH224458   5.318   5.038   0.292  0.2557 -0.0124 -0.0130
 8165TIP3    H124459   5.231   5.021   0.327  0.5281 -0.3922  0.4746
 8165TIP3    H224460   5.309   5.123   0.248  0.1789  0.9751  1.8535
 8166TIP3   OH224461   0.703   5.490   0.929  0.7165  0.0640  0.7674
 8166TIP3    H124462   0.799   5.486   0.929  0.7416  0.4651 -0.6871
 8166TIP3    H224463   0.681   5.547   0.855 -0.6529 -0.4572  0.7558
 8167TIP3   OH224464   7.117   4.036   1.373 -0.4635  0.0834  0.8618
 8167TIP3    H124465   7.182   3.966   1.376  0.9219  1.1587 -2.1346
 8167TIP3    H224466   7.147   4.101   1.435  0.1538 -0.3902  1.0584
 8168TIP3   OH224467   1.687   5.221   1.429 -0.1335 -0.3836 -0.1615
 8168TIP3    H124468   1.774   5.227   1.468  0.0019  1.3736 -0.6925
 8168TIP3    H224469   1.700   5.249   1.338 -1.7187  2.5362  0.4640
 8169TIP3   OH224470   6.984   4.429   1.197 -0.5202  0.3397  0.3866
 8169TIP3    H124471   6.921   4.380   1.144  0.7568 -0.7282 -0.1605
 8169TIP3    H224472   7.040   4.473   1.133  1.2435 -1.2338  0.7958
 8170TIP3   OH224473   3.920   0.623   1.495 -0.1228 -0.2370 -0.1105
 8170TIP3    H124474   3.991   0.678   1.527 -0.8986 -1.0861  3.2575
 8170TIP3    H224475   3.862   0.683   1.448  0.5749  1.2465  0.8956
 8171TIP3   OH224476   6.866   4.818   0.738 -0.2205 -0.2139  0.1883
 8171TIP3    H124477   6.777   4.849   0.721 -0.4730 -0.1638  1.4982
 8171TIP3    H224478   6.875   4.824   0.834  1.1890 -0.2063  0.0659
 8172TIP3   OH224479   5.240   3.373   5.963 -0.4162 -0.2570  0.5544
 8172TIP3    H124480   5.312   3.353   5.903 -1.4181  0.5088 -0.9344
 8172TIP3    H224481   5.256   3.464   5.990  0.0000 -0.5815  1.4028
 8173TIP3   OH224482   3.487   1.411   1.853  0.0086  0.0688  1.0058
 8173TIP3    H124483   3.410   1.454   1.816 -1.1906 -2.2158  0.7339
 8173TIP3    H224484   3.488   1.437   1.945  1.3561  3.4770  0.0973
 8174TIP3   OH224485   3.345   0.044   1.964 -0.2677 -0.6413  0.2011
 8174TIP3    H124486   3.283   0.054   1.892 -0.4504 -0.8601  0.3305
 8174TIP3    H224487   3.376   0.133   1.981  1.5296 -0.8658 -1.7097
 8175TIP3   OH224488   1.045   6.822   1.494 -0.0346 -0.2237  0.0936
 8175TIP3    H124489   1.028   6.792   1.584 -0.0954 -0.0977  0.1253
 8175TIP3    H224490   1.121   6.772   1.466 -0.6309 -0.9944 -0.1447
 8176TIP3   OH224491   3.525   0.942   2.471  0.4501 -0.0852 -0.5915
 8176TIP3    H124492   3.594   0.941   2.537 -0.8857  2.9580  0.9327
 8176TIP3    H224493   3.572   0.955   2.388  2.0170 -2.5562 -0.1559
 8177TIP3   OH224494   7.246   6.700   2.562  0.6477 -0.6051 -0.1843
 8177TIP3    H124495   7.216   6.624   2.512 -1.3737  0.0742 -0.0514
 8177TIP3    H224496   7.198   6.694   2.645  0.3694  0.8840 -0.2333
 8178TIP3   OH224497   4.023   5.436   4.880 -0.6840 -0.3152 -0.2625
 8178TIP3    H124498   4.043   5.408   4.791  0.4672  0.4898 -0.2684
 8178TIP3    H224499   3.928   5.449   4.881 -0.8479 -1.4162 -1.0543
 8179TIP3   OH224500   5.286   4.689   4.648 -0.0555  0.3894  0.4474
 8179TIP3    H124501   5.341   4.691   4.726 -1.4857 -1.4018  1.5286
 8179TIP3    H224502   5.241   4.605   4.652 -2.3994  1.5265 -0.7356
 8180TIP3   OH224503   3.145   0.714   0.474 -0.2063  0.3104  0.4000
 8180TIP3    H124504   3.059   0.754   0.460 -0.3202 -0.2989 -0.7393
 8180TIP3    H224505   3.207   0.780   0.444 -0.4180 -0.5721 -2.1058
 8181TIP3   OH224506   3.806   0.978   5.359  0.4425  0.1480  0.1164
 8181TIP3    H124507   3.869   0.916   5.396 -0.2804 -0.8543 -0.3266
 8181TIP3    H224508   3.736   0.924   5.323 -1.2782  1.2736  1.6449
 8182TIP3   OH224509   6.471   5.470   4.965 -0.2552  0.5590 -0.1584
 8182TIP3    H124510   6.486   5.557   4.929  0.7896  0.4596  0.0245
 8182TIP3    H224511   6.508   5.474   5.053  0.2783 -0.2337 -0.3487
 8183TIP3   OH224512   4.445   0.369   0.459  0.1381  0.1781  0.0770
 8183TIP3    H124513   4.435   0.461   0.485  2.0898  0.5208 -0.3101
 8183TIP3    H224514   4.443   0.371   0.363  2.1094  0.0737  0.0219
 8184TIP3   OH224515   6.126   5.551   3.963 -0.1256 -0.3179 -0.4365
 8184TIP3    H124516   6.154   5.543   4.054  1.1337  0.8201 -0.7165
 8184TIP3    H224517   6.093   5.641   3.956  1.4414  0.1771 -1.5551
 8185TIP3   OH224518   4.274   2.971   4.674  0.2435  0.1298  0.4052
 8185TIP3    H124519   4.268   2.895   4.731 -1.8090  0.3233  0.4761
 8185TIP3    H224520   4.318   2.938   4.595  3.2699 -0.0838  2.1045
 8186TIP3   OH224521   2.835   1.179   0.872  0.1056 -0.4469  0.3427
 8186TIP3    H124522   2.845   1.274   0.878  0.2883 -0.4716  0.4282
 8186TIP3    H224523   2.852   1.147   0.960  1.2998 -0.6702  0.0398
 8187TIP3   OH224524   0.239   4.362   5.194 -0.3320  0.9101 -0.5882
 8187TIP3    H124525   0.220   4.456   5.184 -0.4792  0.8348 -1.0317
 8187TIP3    H224526   0.324   4.360   5.238 -1.2134  1.2538  1.1849
 8188TIP3   OH224527   0.611   5.590   3.196  0.0169 -0.2941  0.5452
 8188TIP3    H124528   0.693   5.595   3.147 -0.3138 -1.2776 -0.1124
 8188TIP3    H224529   0.567   5.513   3.161 -1.9685  1.2091 -0.3186
 8189TIP3   OH224530   5.938   3.926   5.887  0.7900 -0.1315  0.3607
 8189TIP3    H124531   5.898   3.976   5.958  0.6721 -0.3161  0.4222
 8189TIP3    H224532   6.015   3.886   5.926  0.4605 -0.6192  0.5020
 8190TIP3   OH224533   5.173   0.759   3.899 -0.1992  0.2958  0.7779
 8190TIP3    H124534   5.105   0.691   3.897  0.9907 -0.8670 -1.4390
 8190TIP3    H224535   5.252   0.713   3.930  0.0890  1.1746  1.3712
 8191TIP3   OH224536   2.574   4.002   0.529  0.4910  0.4565 -0.4206
 8191TIP3    H124537   2.546   3.939   0.595 -0.3263 -0.9037 -2.0193
 8191TIP3    H224538   2.524   3.979   0.450  1.8503  1.6598 -1.6820
 8192TIP3   OH224539   0.542   6.501   1.593 -0.7037  0.4246  0.3591
 8192TIP3    H124540   0.626   6.522   1.551 -0.5701  0.1827  0.5100
 8192TIP3    H224541   0.490   6.462   1.523 -0.6172  0.3798  0.3189
 8193TIP3   OH224542   3.025   1.253   1.229 -0.0004  0.0862 -0.5853
 8193TIP3    H124543   3.091   1.203   1.276  1.6505  0.2682 -2.6287
 8193TIP3    H224544   3.020   1.337   1.275  0.0229 -0.5160  0.5269
 8194TIP3   OH224545   1.781   4.394   0.218  0.3558 -0.2756 -0.5078
 8194TIP3    H124546   1.776   4.322   0.281  0.6018  0.9006  0.9036
 8194TIP3    H224547   1.692   4.428   0.212  0.6386  0.7455  0.6210
 8195TIP3   OH224548   5.520   1.245   4.576  0.0295 -0.6828  0.1904
 8195TIP3    H124549   5.459   1.224   4.646  0.6165 -0.8564  0.6568
 8195TIP3    H224550   5.480   1.319   4.530 -0.6095 -0.9089  0.3809
 8196TIP3   OH224551   3.467   1.582   5.296 -0.3955  0.1449 -0.5545
 8196TIP3    H124552   3.515   1.638   5.235  1.6293  0.0100  0.8789
 8196TIP3    H224553   3.514   1.590   5.379 -0.1344 -3.5356 -0.2505
 8197TIP3   OH224554   4.671   1.706   5.147  0.2689 -0.1311  0.2987
 8197TIP3    H124555   4.741   1.725   5.084  1.3300 -0.2331  1.4367
 8197TIP3    H224556   4.714   1.710   5.233 -1.3135  0.7014  1.0718
 8198TIP3   OH224557   2.632   6.206   1.123  0.1592 -0.0405 -0.2182
 8198TIP3    H124558   2.610   6.129   1.176 -2.1648 -0.3923 -1.6162
 8198TIP3    H224559   2.568   6.272   1.150 -0.6999 -0.0538 -2.1723
 8199TIP3   OH224560   2.899   0.288   1.355  0.0845  0.1541  0.2251
 8199TIP3    H124561   2.967   0.353   1.336  0.5478 -0.5976 -0.7047
 8199TIP3    H224562   2.945   0.216   1.398 -0.2721  0.0367  0.4117
 8200TIP3   OH224563   7.269   6.272   0.939  0.1268 -0.1400  0.6906
 8200TIP3    H124564   7.320   6.244   0.863 -1.2898 -0.6870 -0.0722
 8200TIP3    H224565   7.245   6.191   0.983 -1.4040  0.0129  0.1690
 8201TIP3   OH224566   6.612   3.982   1.180 -0.0548 -0.3887 -0.2978
 8201TIP3    H124567   6.560   3.925   1.123 -0.4127 -1.8871  1.4875
 8201TIP3    H224568   6.645   3.924   1.249  0.8403  1.2778  0.7082
 8202TIP3   OH224569   1.649   0.180   1.344 -0.2302 -0.0186  0.0516
 8202TIP3    H124570   1.567   0.180   1.394 -0.2928  0.6030 -0.0553
 8202TIP3    H224571   1.717   0.173   1.411 -0.4465 -3.4176  0.0056
 8203TIP3   OH224572   1.928   1.672   1.054 -0.3828 -0.1271 -0.5011
 8203TIP3    H124573   1.975   1.680   0.971  0.2476 -0.2523 -0.1569
 8203TIP3    H224574   1.978   1.607   1.103 -0.3359  0.4868  0.2607
 8204TIP3   OH224575   6.818   5.685   0.302 -0.0038 -0.0101 -0.3629
 8204TIP3    H124576   6.810   5.618   0.234  0.7682 -2.5590  1.9872
 8204TIP3    H224577   6.912   5.699   0.311 -0.0550 -0.3497  0.7906
 8205TIP3   OH224578   3.387   0.429   2.579 -0.0036 -0.1050  0.2241
 8205TIP3    H124579   3.374   0.504   2.520  2.7097  0.1468 -0.0994
 8205TIP3    H224580   3.394   0.468   2.666 -0.3977 -0.1625  0.2844
 8206TIP3   OH224581   5.581   4.516   3.786  0.1585 -0.4988  0.6389
 8206TIP3    H124582   5.510   4.454   3.801  0.1629 -0.0690  2.5464
 8206TIP3    H224583   5.579   4.533   3.692 -0.0314 -3.1557  0.1381
 8207TIP3   OH224584   5.847   3.794   5.657 -0.1324 -0.4873 -0.5325
 8207TIP3    H124585   5.888   3.825   5.738  0.1479  1.3773 -1.3452
 8207TIP3    H224586   5.758   3.771   5.682 -0.0780  0.1740  0.2974
 8208TIP3   OH224587   0.177   6.022   0.332  0.0663  0.4626  0.0078
 8208TIP3    H124588   0.177   5.964   0.408 -0.3073  0.8829  0.3271
 8208TIP3    H224589   0.224   6.100   0.362 -0.2901  0.7247 -0.1215
 8209TIP3   OH224590   5.408   5.012   4.212 -0.1666 -0.2416  0.3881
 8209TIP3    H124591   5.442   5.001   4.301 -1.9772 -1.3731  0.9776
 8209TIP3    H224592   5.404   4.923   4.177 -1.0356  0.0348 -0.2195
 8210TIP3   OH224593   3.581   2.885   1.954  0.5637  0.4669  0.5500
 8210TIP3    H124594   3.518   2.876   2.026  1.3808  0.1812  1.2454
 8210TIP3    H224595   3.529   2.911   1.879 -0.3597  0.4042  1.1644
 8211TIP3   OH224596   6.323   5.409   5.974 -0.0227  0.0856  0.3095
 8211TIP3    H124597   6.371   5.482   6.014 -0.9582  0.2997  1.0546
 8211TIP3    H224598   6.269   5.450   5.907 -0.3333  0.0391  0.5325
 8212TIP3   OH224599   1.208   5.604   2.113  0.1706  0.1438  0.3856
 8212TIP3    H124600   1.260   5.664   2.167  1.0352 -0.2260 -0.0399
 8212TIP3    H224601   1.187   5.654   2.035 -0.5813  0.4773  0.7938
 8213TIP3   OH224602   4.962   5.371   0.432 -0.5257 -0.0067  0.0379
 8213TIP3    H124603   4.998   5.424   0.503  1.4192 -1.4921  0.1684
 8213TIP3    H224604   5.015   5.394   0.356 -1.7132  0.5451 -0.6368
 8214TIP3   OH224605   2.091   1.297   3.257 -0.7693  0.0202  0.8706
 8214TIP3    H124606   2.182   1.326   3.254 -0.3401 -0.9682  3.1706
 8214TIP3    H224607   2.055   1.320   3.171  1.6767  0.2793 -0.1095
 8215TIP3   OH224608   2.416   2.160   1.162  0.5768 -0.3205 -0.0244
 8215TIP3    H124609   2.355   2.087   1.163  0.1550  0.0349  0.6455
 8215TIP3    H224610   2.502   2.120   1.148  0.3303 -0.9209  0.1772
 8216TIP3   OH224611   1.869   6.452   0.248 -0.0029  0.4205  0.2573
 8216TIP3    H124612   1.858   6.363   0.217  0.3967  0.7474 -0.8378
 8216TIP3    H224613   1.781   6.479   0.275 -0.5967  0.5611 -1.7648
 8217TIP3   OH224614   3.808   0.952   0.026  0.0694  0.5001  0.2253
 8217TIP3    H124615   3.845   0.939   0.114  0.7413  1.0479  0.0221
 8217TIP3    H224616   3.715   0.930   0.037  0.2668 -0.0279  0.9341
 8218TIP3   OH224617   2.175   0.791   1.261  0.2607  0.1408  0.5265
 8218TIP3    H124618   2.116   0.826   1.194 -0.7252  0.9263  1.7980
 8218TIP3    H224619   2.248   0.754   1.211 -0.3694  0.8964 -0.9828
 8219TIP3   OH224620   5.410   5.931   5.947  0.2627 -0.0131 -0.3343
 8219TIP3    H124621   5.394   5.848   5.903  1.2929 -0.7582  0.6576
 8219TIP3    H224622   5.363   5.923   6.030  2.4457 -0.6581  0.8800
 8220TIP3   OH224623   3.685   0.847   1.681  0.6585  0.0870  0.0391
 8220TIP3    H124624   3.661   0.879   1.768  0.7640 -0.3808  0.2399
 8220TIP3    H224625   3.657   0.756   1.680  1.7186 -0.2414  0.0018
 8221TIP3   OH224626   0.353   0.996   5.509 -0.2280 -0.0888 -0.1560
 8221TIP3    H124627   0.446   1.014   5.497 -0.0788 -0.6886  0.0621
 8221TIP3    H224628   0.309   1.075   5.478  0.3873  0.5250  0.5131
 8222TIP3   OH224629   6.216   1.943   5.677  0.5762  0.0568  0.2208
 8222TIP3    H124630   6.310   1.959   5.664  0.6043  0.1985  0.5810
 8222TIP3    H224631   6.173   2.006   5.620  0.6965  0.6417  0.7723
 8223TIP3   OH224632   6.886   6.325   1.368  0.0906  0.0142 -0.1971
 8223TIP3    H124633   6.883   6.399   1.428  2.7615 -0.2610  0.3442
 8223TIP3    H224634   6.899   6.365   1.282  2.4861  0.1994  0.2071
 8224TIP3   OH224635   6.114   5.928   0.081 -0.2185 -0.1771 -0.1031
 8224TIP3    H124636   6.078   5.846   0.116  0.3191  0.4058  1.8756
 8224TIP3    H224637   6.183   5.900   0.020  0.4225 -1.2138  1.0648
 8225TIP3   OH224638   3.770   2.563   5.814  0.6586 -0.3440 -0.4065
 8225TIP3    H124639   3.695   2.613   5.783  1.4919  1.5745  0.6223
 8225TIP3    H224640   3.790   2.599   5.900  2.3163 -1.3274 -0.3521
 8226TIP3   OH224641   3.759   2.574   4.816 -0.9139 -0.4148  0.0594
 8226TIP3    H124642   3.792   2.606   4.732  1.7889  0.0225  1.2570
 8226TIP3    H224643   3.757   2.479   4.807 -1.0160 -0.3483 -0.6233
 8227TIP3   OH224644   0.787   3.637   0.325  0.6229  0.1322 -0.1788
 8227TIP3    H124645   0.750   3.567   0.272  0.6558 -0.4282  0.5345
 8227TIP3    H224646   0.712   3.690   0.351  0.5547  0.1440 -0.3981
 8228TIP3   OH224647   4.965   5.158   1.231 -0.3471  0.0219 -0.3757
 8228TIP3    H124648   5.007   5.102   1.296 -0.0293  0.1634 -0.4574
 8228TIP3    H224649   4.880   5.118   1.216  0.2759 -1.0009 -1.1888
 8229TIP3   OH224650   1.358   1.622   5.598  0.3689 -0.0413 -0.0936
 8229TIP3    H124651   1.314   1.701   5.567 -0.0421  0.3796  1.5239
 8229TIP3    H224652   1.359   1.631   5.694  1.7069 -1.2517  0.0197
 8230TIP3   OH224653   4.917   4.916   3.911 -0.1114 -0.7388  0.2673
 8230TIP3    H124654   4.944   4.836   3.865  0.5575 -0.6139  0.4327
 8230TIP3    H224655   4.962   4.912   3.995  1.6927  0.8659 -0.5737
 8231TIP3   OH224656   0.793   6.764   0.022  0.2614  0.5422  0.4907
 8231TIP3    H124657   0.709   6.728   0.052  0.1480  0.9827  0.7176
 8231TIP3    H224658   0.828   6.698  -0.038 -1.6954  1.6955 -2.0226
 8232TIP3   OH224659   2.218   0.387   0.500  0.2053  0.6946  0.7619
 8232TIP3    H124660   2.261   0.473   0.508  1.7248 -0.1657  2.2517
 8232TIP3    H224661   2.231   0.346   0.586 -0.1277 -1.2015 -0.0715
 8233TIP3   OH224662   5.499   0.227   0.434 -0.9226  0.0899  0.5181
 8233TIP3    H124663   5.463   0.300   0.486 -0.6112 -0.5324  1.6279
 8233TIP3    H224664   5.449   0.151   0.462 -0.0860 -0.4285  0.6157
 8234TIP3   OH224665   2.766   1.894   5.348 -0.3948 -0.0160 -0.2240
 8234TIP3    H124666   2.788   1.927   5.435  1.4775 -2.0370  0.1303
 8234TIP3    H224667   2.695   1.832   5.363 -0.7578  0.3933 -0.2631
 8235TIP3   OH224668   2.320   0.693   1.057 -0.4916  0.3687  0.0972
 8235TIP3    H124669   2.299   0.680   0.964  2.4516  1.9602 -0.8908
 8235TIP3    H224670   2.404   0.739   1.055  0.7909 -1.6687  3.6042
 8236TIP3   OH224671   6.467   6.018   1.418  0.7307 -0.4155  0.2224
 8236TIP3    H124672   6.538   6.050   1.473 -0.1397  0.3936  0.8742
 8236TIP3    H224673   6.419   5.957   1.474  0.4273 -0.3491  0.0356
 8237TIP3   OH224674   4.090   0.880   0.127 -0.3655 -0.1618  0.4732
 8237TIP3    H124675   4.018   0.821   0.148  0.3317 -0.5917  1.7010
 8237TIP3    H224676   4.119   0.853   0.041  0.3593 -2.0352  1.2889
 8238TIP3   OH224677   4.794   0.247   1.027 -0.3692  0.1927 -0.1391
 8238TIP3    H124678   4.787   0.198   1.109 -0.7402 -0.7116 -0.7016
 8238TIP3    H224679   4.859   0.199   0.976 -2.5194 -1.2001 -1.6990
 8239TIP3   OH224680   4.078   0.041   0.764  0.6979 -0.0715  0.1836
 8239TIP3    H124681   4.172   0.023   0.756  0.6688 -0.4215  0.6124
 8239TIP3    H224682   4.036  -0.040   0.737  0.4581  0.8376 -2.2698
 8240TIP3   OH224683   6.797   3.511   5.741  0.1202 -0.3801 -0.6190
 8240TIP3    H124684   6.838   3.426   5.753 -0.8472 -1.0735 -2.0286
 8240TIP3    H224685   6.857   3.573   5.783 -0.3176 -1.9805  2.5333
 8241TIP3   OH224686   3.892   2.377   0.181  0.1882  0.0492 -0.2768
 8241TIP3    H124687   3.815   2.434   0.170  0.5512  0.7109  0.5157
 8241TIP3    H224688   3.934   2.409   0.261  0.0291 -1.7809  0.5699
 8242TIP3   OH224689   5.658   0.758   0.060 -0.3717  0.1366 -0.1620
 8242TIP3    H124690   5.650   0.698   0.134 -0.1170  1.1651  0.7118
 8242TIP3    H224691   5.735   0.811   0.081  0.3610 -0.2729 -1.6849
 8243TIP3   OH224692   6.325   4.965   5.526 -0.2171  0.4174  0.3944
 8243TIP3    H124693   6.379   5.030   5.570  0.4573 -0.2700  0.6004
 8243TIP3    H224694   6.296   5.008   5.445  1.5979  0.3950 -0.2819
 8244TIP3   OH224695   7.084   1.624   5.984 -0.5166 -0.1624 -0.5798
 8244TIP3    H124696   7.044   1.592   6.065  0.9457 -0.2211  0.1242
 8244TIP3    H224697   7.093   1.546   5.929  1.2643 -0.6487  0.3828
 8245TIP3   OH224698   6.197   3.132   4.763 -0.4215  0.5648  0.1726
 8245TIP3    H124699   6.173   3.081   4.686 -2.0679 -0.5975  1.4117
 8245TIP3    H224700   6.140   3.098   4.833  1.0967  1.5129  1.9190
 8246TIP3   OH224701   5.137   3.800   1.031 -0.2323  0.3428  0.2021
 8246TIP3    H124702   5.119   3.828   1.121  0.0174  0.2163  0.2921
 8246TIP3    H224703   5.061   3.830   0.981 -0.8393 -0.4534  0.6305
 8247TIP3   OH224704   1.436   6.864   0.052  0.1309  0.1222 -0.6638
 8247TIP3    H124705   1.439   6.958   0.032 -0.9795  0.3489  0.1633
 8247TIP3    H224706   1.496   6.824  -0.011  0.7189  1.4020 -0.9422
 8248TIP3   OH224707   6.071   5.075   5.387 -0.1835  0.3921 -0.4873
 8248TIP3    H124708   6.156   5.116   5.372 -0.6321  1.5503  0.0923
 8248TIP3    H224709   6.044   5.042   5.302  1.5129 -1.2820 -0.4134
 8249TIP3   OH224710   7.082   5.040   5.402 -0.1403 -0.2284  0.6940
 8249TIP3    H124711   7.100   5.065   5.312  0.8863 -1.4029  0.5557
 8249TIP3    H224712   7.006   5.092   5.427 -2.5035 -2.2629 -1.9469
 8250TIP3   OH224713   3.639   0.624   2.209 -0.0454 -0.2462  0.0007
 8250TIP3    H124714   3.724   0.624   2.164  0.4551  1.6490  0.9331
 8250TIP3    H224715   3.651   0.565   2.283  0.7843  0.7886  0.7060
 8251TIP3   OH224716   2.535   5.451   1.544  0.3772 -0.5822  0.1106
 8251TIP3    H124717   2.511   5.454   1.451  0.2634  2.4814  0.1912
 8251TIP3    H224718   2.459   5.410   1.586  0.1112 -1.3060 -1.0284
 8252TIP3   OH224719   3.339   0.397   0.648  0.2501 -0.5931  0.8566
 8252TIP3    H124720   3.269   0.377   0.710  0.3609 -0.7234  0.9412
 8252TIP3    H224721   3.339   0.492   0.641 -1.1639 -0.6929 -0.5737
 8253TIP3   OH224722   0.473   4.385   4.896  0.0410  0.0770 -0.1290
 8253TIP3    H124723   0.467   4.444   4.971 -1.5428 -0.2295  0.0163
 8253TIP3    H224724   0.394   4.405   4.845  0.1832 -0.9741 -0.7632
 8254TIP3   OH224725   2.832   4.479   3.805  0.1955 -0.1826  0.6315
 8254TIP3    H124726   2.905   4.419   3.788 -1.9313 -2.2679 -1.5097
 8254TIP3    H224727   2.837   4.544   3.736  1.0552  0.7291  1.5345
 8255TIP3   OH224728   1.412   6.561   0.118 -0.0961  0.4477  0.2030
 8255TIP3    H124729   1.318   6.572   0.109 -0.1113 -0.5887 -1.1129
 8255TIP3    H224730   1.450   6.629   0.062 -0.0520  0.8602  0.7265
 8256TIP3   OH224731   0.843   5.582   1.152  0.7283 -0.5707  0.2672
 8256TIP3    H124732   0.814   5.534   1.229 -0.4045  2.1228  1.5753
 8256TIP3    H224733   0.796   5.542   1.079 -0.0733 -1.5128  1.2923
 8257TIP3   OH224734   7.012   4.031   4.521  0.6161  0.2808 -0.2883
 8257TIP3    H124735   7.101   4.055   4.546  0.3279  0.7639  0.2756
 8257TIP3    H224736   6.993   3.953   4.572 -0.2122  1.6419  1.5218
 8258TIP3   OH224737   0.344   4.987   5.439 -0.3716  0.1677  0.1314
 8258TIP3    H124738   0.371   4.895   5.435  0.3913  0.3718  0.3711
 8258TIP3    H224739   0.408   5.027   5.498 -0.1338  1.0514 -0.7202
 8259TIP3   OH224740   1.037   6.886   0.904  0.1172 -0.2946 -0.3492
 8259TIP3    H124741   1.082   6.963   0.870 -1.6794 -0.1395 -2.4969
 8259TIP3    H224742   1.079   6.811   0.861  0.5822 -0.3910  0.2652
 8260TIP3   OH224743   0.599   6.004   3.039 -0.2541  0.1495  0.1139
 8260TIP3    H124744   0.550   6.055   3.103 -0.8766  0.3295 -0.5061
 8260TIP3    H224745   0.550   5.922   3.030  0.5960 -0.4610  0.9053
 8261TIP3   OH224746   5.538   4.583   3.501 -0.5637  0.6436  0.4027
 8261TIP3    H124747   5.456   4.561   3.457 -0.5721 -0.4361  0.9502
 8261TIP3    H224748   5.607   4.549   3.444 -0.4164  2.6497 -0.6930
 8262TIP3   OH224749   0.518   6.077   4.496  0.0637 -0.4075  0.1625
 8262TIP3    H124750   0.606   6.071   4.535 -0.0807 -0.8494  0.4202
 8262TIP3    H224751   0.512   6.000   4.440 -0.4587 -0.8074  0.7602
 8263TIP3   OH224752   0.384   3.787   5.321  0.0739 -0.2108  0.5863
 8263TIP3    H124753   0.477   3.766   5.329  0.1243 -0.7782 -1.1614
 8263TIP3    H224754   0.342   3.702   5.310 -0.6132  0.0632  1.1553
 8264TIP3   OH224755   3.992   4.807   3.629 -0.2794 -0.0521 -0.0937
 8264TIP3    H124756   3.933   4.745   3.586 -0.5334 -0.0157  0.2014
 8264TIP3    H224757   4.078   4.765   3.625 -0.5514 -0.6844  0.6137
 8265TIP3   OH224758   1.113   5.218   5.341 -0.9439 -0.2607  0.1100
 8265TIP3    H124759   1.109   5.162   5.263  0.6060 -0.1671 -0.0550
 8265TIP3    H224760   1.206   5.240   5.350 -1.5012  2.2457  0.1890
 8266TIP3   OH224761   6.416   2.599   4.882  0.3798  0.2668  0.0977
 8266TIP3    H124762   6.483   2.661   4.852 -0.6162  0.7759 -1.1536
 8266TIP3    H224763   6.427   2.523   4.825  0.5721 -0.0640  0.5812
 8267TIP3   OH224764   6.215   4.914   5.849 -0.0195 -0.4533 -0.7264
 8267TIP3    H124765   6.210   4.870   5.934 -2.5808 -1.7301 -1.5007
 8267TIP3    H224766   6.230   4.844   5.786 -0.6980  0.1885 -1.6037
 8268TIP3   OH224767   6.926   6.777   0.973  0.3870  0.0190  0.0798
 8268TIP3    H124768   6.985   6.791   0.898  0.0907  0.5129 -0.0672
 8268TIP3    H224769   6.843   6.752   0.933 -0.5734  2.9850  0.0770
 8269TIP3   OH224770   0.092   4.542   4.458 -0.0394 -0.1234  0.2012
 8269TIP3    H124771   0.090   4.540   4.554 -1.4601  0.0171  0.1816
 8269TIP3    H224772   0.014   4.493   4.431  0.7692 -0.8424 -0.9011
 8270TIP3   OH224773   2.846   2.396   1.485 -0.2674  0.2895  0.3875
 8270TIP3    H124774   2.920   2.455   1.499 -0.5757  0.7694 -0.0033
 8270TIP3    H224775   2.786   2.445   1.429 -0.3278 -0.5553 -0.2998
 8271TIP3   OH224776   6.441   6.973   5.955  0.6571  0.2347  0.1115
 8271TIP3    H124777   6.413   6.916   5.884 -1.0288  1.7319 -0.4446
 8271TIP3    H224778   6.476   6.913   6.022 -3.1126 -1.6321  0.5033
 8272TIP3   OH224779   6.517   4.029   4.973  0.1099 -0.2142 -0.0823
 8272TIP3    H124780   6.444   3.978   4.937 -0.6385 -0.2972  1.4816
 8272TIP3    H224781   6.492   4.121   4.959 -0.5237 -0.2362  0.8566
 8273TIP3   OH224782   7.309   2.992   4.341 -0.0793  0.0052 -0.5477
 8273TIP3    H124783   7.349   2.956   4.262 -1.3386  1.6621 -1.9932
 8273TIP3    H224784   7.283   2.916   4.392 -0.2745 -1.1239 -2.2785
 8274TIP3   OH224785   3.686   5.322   0.775  0.3637  0.3949  0.9540
 8274TIP3    H124786   3.720   5.380   0.843  0.5028  0.5063  0.7866
 8274TIP3    H224787   3.751   5.324   0.705  0.8188 -0.6779  1.3348
 8275TIP3   OH224788   1.720   6.476   1.225 -0.5327  0.0653  0.3870
 8275TIP3    H124789   1.809   6.455   1.198 -0.9217 -0.8044 -0.2325
 8275TIP3    H224790   1.726   6.566   1.257  0.2416  0.6167 -1.2101
 8276TIP3   OH224791   5.343   2.633   0.377 -0.1407  0.1767  0.0340
 8276TIP3    H124792   5.253   2.643   0.409 -0.5698 -0.2583 -1.0302
 8276TIP3    H224793   5.397   2.665   0.449 -1.1335  0.0462  0.8552
 8277TIP3   OH224794   0.890   6.175   0.588  0.3749  0.2890 -0.4544
 8277TIP3    H124795   0.869   6.214   0.503 -0.2106  0.9687 -0.0093
 8277TIP3    H224796   0.851   6.235   0.652  0.3658 -0.4905  0.2807
 8278TIP3   OH224797   6.654   4.442   4.212 -0.8045 -0.7283  0.7829
 8278TIP3    H124798   6.682   4.354   4.238 -1.2375 -0.9681  0.4358
 8278TIP3    H224799   6.570   4.454   4.255 -1.2699 -0.9200 -0.0813
 8279TIP3   OH224800   2.656   6.167   1.442 -0.4084  0.7647 -0.5164
 8279TIP3    H124801   2.584   6.174   1.505  1.1807 -2.0640  1.7308
 8279TIP3    H224802   2.631   6.096   1.384  0.3470  0.0627  0.0033
 8280TIP3   OH224803   2.789   6.063   0.268  0.1251  0.2429 -0.1946
 8280TIP3    H124804   2.696   6.078   0.251 -0.0085  0.6936  0.8902
 8280TIP3    H224805   2.796   5.969   0.284 -0.4127  0.4263  1.2395
 8281TIP3   OH224806   6.914   0.462   3.196 -0.4730 -0.2390 -0.1333
 8281TIP3    H124807   6.965   0.484   3.274  0.0261 -2.3924  0.1863
 8281TIP3    H224808   6.963   0.500   3.124  0.1641  0.0087  0.4213
 8282TIP3   OH224809   2.687   5.496   0.769 -0.1409  0.4983 -0.3294
 8282TIP3    H124810   2.645   5.417   0.736  1.3225 -0.6417  0.4916
 8282TIP3    H224811   2.776   5.492   0.735  0.8486  0.2489  2.1694
 8283TIP3   OH224812   4.454   0.720   1.070  0.1347 -0.3016 -0.5600
 8283TIP3    H124813   4.467   0.738   0.977  1.3713 -0.3149 -0.3991
 8283TIP3    H224814   4.449   0.624   1.076  0.2613 -0.3089 -0.5821
 8284TIP3   OH224815   6.697   3.637   2.715 -0.4420  0.3626 -0.0164
 8284TIP3    H124816   6.612   3.607   2.683  0.4538 -0.0541 -2.0761
 8284TIP3    H224817   6.756   3.563   2.701  0.5152  1.0536  0.2961
 8285TIP3   OH224818   6.653   3.988   5.207  0.6945 -0.1364  0.5111
 8285TIP3    H124819   6.614   4.018   5.125 -2.0845  0.2475  1.8972
 8285TIP3    H224820   6.702   3.909   5.183 -0.9080 -0.6185 -1.3412
 8286TIP3   OH224821   7.067   6.618   1.320 -0.1710  0.3962  0.7360
 8286TIP3    H124822   6.981   6.649   1.290 -0.0392 -0.5614 -0.7242
 8286TIP3    H224823   7.097   6.561   1.249  1.0099 -0.4684  1.9162
 8287TIP3   OH224824   1.133   6.557   0.140 -0.3131  0.0675  0.2558
 8287TIP3    H124825   1.152   6.530   0.230  0.3919 -0.4643 -0.0488
 8287TIP3    H224826   1.106   6.476   0.096 -0.2185  0.2468 -0.1328
 8288TIP3   OH224827   6.472   2.750   4.511  0.3442 -0.1376 -0.4005
 8288TIP3    H124828   6.543   2.699   4.473  0.0699 -1.0181  0.2336
 8288TIP3    H224829   6.444   2.809   4.441 -0.1767 -1.7438 -1.5713
 8289TIP3   OH224830   6.479   2.627   5.982 -0.1632 -0.1760  0.3514
 8289TIP3    H124831   6.396   2.613   6.027  0.4424 -0.3667  1.4370
 8289TIP3    H224832   6.510   2.712   6.012 -0.3506  0.2619 -0.6764
 8290TIP3   OH224833   0.788   2.165   5.650  0.4212 -0.2193 -0.1867
 8290TIP3    H124834   0.743   2.197   5.728 -1.0898  1.2418 -1.6125
 8290TIP3    H224835   0.772   2.070   5.650 -1.8486  0.1190 -0.1029
 8291TIP3   OH224836   1.661   6.004   0.375  0.7022  0.7777  0.0815
 8291TIP3    H124837   1.632   6.092   0.397 -0.9855  0.4577 -0.7339
 8291TIP3    H224838   1.756   6.010   0.367  0.6366  2.4089  0.5237
 8292TIP3   OH224839   5.997   5.054   5.091  0.0501  0.0440  0.1138
 8292TIP3    H124840   5.909   5.036   5.125  0.3037  0.5980  1.0726
 8292TIP3    H224841   6.016   4.979   5.035 -1.0887 -0.0139 -0.2091
 8293TIP3   OH224842   4.080   0.265   0.544  0.5528 -0.4999 -0.2759
 8293TIP3    H124843   4.085   0.354   0.510  1.4437 -0.6217 -0.4789
 8293TIP3    H224844   4.170   0.243   0.567  0.1246 -0.7931  1.2179
 8294TIP3   OH224845   4.280   6.867   5.851  0.4973 -0.3768  0.0933
 8294TIP3    H124846   4.199   6.903   5.814 -0.4313 -0.6782  1.7783
 8294TIP3    H224847   4.338   6.943   5.862 -0.2333  0.1170  0.5552
 8295TIP3   OH224848   2.102   3.681   1.367  0.4696 -0.4829 -0.0145
 8295TIP3    H124849   2.136   3.608   1.315  1.3622  1.2025 -1.8643
 8295TIP3    H224850   2.055   3.735   1.304  0.4849  0.9614  1.1821
 8296TIP3   OH224851   2.166   6.223   1.048 -0.4951 -0.0244 -0.3787
 8296TIP3    H124852   2.105   6.151   1.066 -1.3906  0.9281  0.4714
 8296TIP3    H224853   2.242   6.181   1.007 -0.6703 -1.5604  0.8282
 8297TIP3   OH224854   2.764   4.794   2.064  0.3156 -0.6481  0.7787
 8297TIP3    H124855   2.834   4.804   2.129  0.6803  0.2852  0.2474
 8297TIP3    H224856   2.782   4.710   2.022  1.3842 -0.2118  0.3416
 8298TIP3   OH224857   1.840   6.955   1.551 -0.3898  0.4536  0.0347
 8298TIP3    H124858   1.783   6.964   1.474 -0.5346 -1.6140 -0.1348
 8298TIP3    H224859   1.920   6.915   1.517  0.2097  1.0772  0.6880
 8299TIP3   OH224860   6.872   2.927   5.373 -0.0279  0.3727 -0.1851
 8299TIP3    H124861   6.791   2.938   5.324 -1.4746 -0.1427  2.0326
 8299TIP3    H224862   6.902   2.839   5.349 -0.9427 -0.0419  0.1895
 8300TIP3   OH224863   2.342   6.954   2.379  0.0296  0.1791 -0.2949
 8300TIP3    H124864   2.253   6.986   2.368 -0.3794 -1.1540 -0.9365
 8300TIP3    H224865   2.338   6.896   2.455  0.5441  0.8199  0.2293
 8301TIP3   OH224866   6.690   3.645   4.779 -0.1770 -0.5539 -0.4015
 8301TIP3    H124867   6.687   3.622   4.872  0.7279  0.2230 -0.1730
 8301TIP3    H224868   6.601   3.628   4.748 -1.1566  1.4786  1.1554
 8302TIP3   OH224869   3.987   0.332   2.924 -0.1591 -0.2851  0.1224
 8302TIP3    H124870   4.001   0.419   2.888  0.4656 -0.8170 -0.9448
 8302TIP3    H224871   3.900   0.336   2.964 -0.3282  0.6862 -0.3328
 8303TIP3   OH224872   5.549   3.996   4.171 -0.0958  0.0983  0.1304
 8303TIP3    H124873   5.606   3.921   4.154 -1.0982 -0.6632  0.1201
 8303TIP3    H224874   5.562   4.053   4.095  1.3458  0.3766  0.5589
 8304TIP3   OH224875   0.268   5.492   1.024 -0.3948  0.2085  0.7780
 8304TIP3    H124876   0.341   5.450   0.978 -2.2822 -2.8428  0.4339
 8304TIP3    H224877   0.202   5.506   0.957 -1.6082 -0.6030  1.7763
 8305TIP3   OH224878   0.167   0.198   5.974  0.0208  0.1138 -0.4733
 8305TIP3    H124879   0.083   0.153   5.967  0.5559 -1.1848  1.0037
 8305TIP3    H224880   0.231   0.135   5.940  0.7046 -0.0152  0.9969
 8306TIP3   OH224881   6.754   3.998   5.684 -0.8404  0.1810  0.3812
 8306TIP3    H124882   6.749   4.059   5.610  1.5765 -1.3914 -1.1382
 8306TIP3    H224883   6.674   3.946   5.678 -0.6739  0.0752 -1.1640
 8307TIP3   OH224884   1.477   4.696   5.846 -0.1062  0.6332 -0.4257
 8307TIP3    H124885   1.529   4.756   5.900  0.7471 -1.2897  0.9577
 8307TIP3    H224886   1.387   4.726   5.857  0.1759  0.9349  1.2305
 8308TIP3   OH224887   6.893   2.237   4.875 -0.1462  0.4234 -0.0083
 8308TIP3    H124888   6.866   2.325   4.849  0.4411 -0.1488 -2.7227
 8308TIP3    H224889   6.986   2.245   4.896 -0.0414  0.4082 -0.4659
 8309TIP3   OH224890   7.372   3.888   5.800  0.2578  0.0638 -0.0461
 8309TIP3    H124891   7.337   3.806   5.834 -0.4335 -0.7680 -2.6145
 8309TIP3    H224892   7.456   3.899   5.845 -1.5681  0.1974  3.4782
 8310TIP3   OH224893   6.385   3.433   3.941  0.0991 -0.1137  0.5427
 8310TIP3    H124894   6.291   3.420   3.951  0.0875 -0.3120  0.1695
 8310TIP3    H224895   6.422   3.402   4.024 -0.3290  1.8068  1.4920
 8311TIP3   OH224896   3.232   1.425   0.536 -0.4858 -0.7632 -0.2515
 8311TIP3    H124897   3.196   1.495   0.592  0.8418 -1.6287  1.7542
 8311TIP3    H224898   3.245   1.467   0.451 -2.9078  0.4911 -0.0610
 8312TIP3   OH224899   2.858   4.673   4.577  0.1839  1.1079 -0.1120
 8312TIP3    H124900   2.790   4.611   4.603  0.7000  0.4000 -0.4390
 8312TIP3    H224901   2.911   4.685   4.656 -1.0144  2.5943  0.4986
 8313TIP3   OH224902   3.154   0.046   1.769 -0.4350  0.9803  0.0657
 8313TIP3    H124903   3.134  -0.047   1.782 -0.2085  0.9243  0.0082
 8313TIP3    H224904   3.098   0.072   1.696  0.4098  0.5813 -0.7306
 8314TIP3   OH224905   3.398   6.055   0.210 -0.3411  0.0499  0.0383
 8314TIP3    H124906   3.353   5.987   0.261 -1.6831  0.7261 -0.2103
 8314TIP3    H224907   3.330   6.121   0.194  0.8448  1.2705 -0.0377
 8315TIP3   OH224908   1.313   2.176   5.207 -0.0618 -0.1571  0.3711
 8315TIP3    H124909   1.390   2.122   5.222 -0.2773 -0.0770  1.7576
 8315TIP3    H224910   1.348   2.257   5.170  0.6223  0.3248  2.0568
 8316TIP3   OH224911   0.372   4.065   2.298  0.1718  0.1611  0.4989
 8316TIP3    H124912   0.322   4.028   2.371 -0.9921  2.4850  0.9234
 8316TIP3    H224913   0.448   4.106   2.340  0.1725  0.3761  0.2893
 8317TIP3   OH224914   6.226   0.351   0.059  0.6060  0.2509 -0.1385
 8317TIP3    H124915   6.292   0.284   0.041  0.3823 -0.1214  0.4126
 8317TIP3    H224916   6.192   0.375  -0.027  0.5898 -0.4456 -0.3288
 8318TIP3   OH224917   4.064   0.704   0.671 -0.0668 -0.1123  0.5681
 8318TIP3    H124918   4.076   0.745   0.757  2.4995 -0.0201  0.2038
 8318TIP3    H224919   4.007   0.764   0.624 -2.6736 -0.8720  2.6754
 8319TIP3   OH224920   5.785   5.510   5.227 -0.1375 -0.4708 -0.5187
 8319TIP3    H124921   5.857   5.454   5.200  0.9046  0.2338  0.7720
 8319TIP3    H224922   5.774   5.492   5.320 -2.0199 -1.0065 -0.8116
 8320TIP3   OH224923   0.384   4.662   5.062  0.7074  0.1523 -0.2292
 8320TIP3    H124924   0.383   4.748   5.103  1.2504 -0.1523  0.4291
 8320TIP3    H224925   0.298   4.653   5.022  0.7515  1.1169 -0.5404
 8321TIP3   OH224926   5.795   2.663   0.382 -1.1661 -0.7166 -0.7062
 8321TIP3    H124927   5.743   2.674   0.461 -1.3116 -0.4073 -0.8472
 8321TIP3    H224928   5.784   2.744   0.333  2.8652  1.1516  1.2693
 8322TIP3   OH224929   5.817   3.637   4.472 -0.7084 -0.1741 -0.3430
 8322TIP3    H124930   5.907   3.613   4.450 -0.5563 -0.3165  0.4425
 8322TIP3    H224931   5.825   3.701   4.542 -1.2270 -0.4405 -0.0363
 8323TIP3   OH224932   5.941   0.576   0.663  0.7411  0.3927 -0.2741
 8323TIP3    H124933   5.941   0.498   0.718  0.0410  0.6534  0.0947
 8323TIP3    H224934   5.994   0.639   0.712 -1.1584  1.1516  0.8672
 8324TIP3   OH224935   5.508   4.073   5.747 -0.2751 -0.3158 -0.1044
 8324TIP3    H124936   5.529   4.011   5.817 -1.1850 -2.7651 -1.9605
 8324TIP3    H224937   5.501   4.157   5.792 -1.5363 -1.9434  2.9060
 8325TIP3   OH224938   2.491   3.668   5.345 -0.0307 -0.4179  0.6089
 8325TIP3    H124939   2.547   3.745   5.337  0.5760 -0.8655  0.5345
 8325TIP3    H224940   2.531   3.616   5.414  0.1526 -1.1592 -0.0437
 8326TIP3   OH224941   6.890   5.863   1.688 -0.4888 -0.5323  0.3206
 8326TIP3    H124942   6.864   5.890   1.776 -0.5608 -1.1833  0.5008
 8326TIP3    H224943   6.970   5.812   1.702  1.5902  2.4536 -0.3353
 8327TIP3   OH224944   2.189   5.493   0.273  0.5473  0.4286  0.9625
 8327TIP3    H124945   2.255   5.522   0.336  2.8698 -0.4691 -0.9792
 8327TIP3    H224946   2.184   5.564   0.209  0.0108  0.2493  0.8017
 8328TIP3   OH224947   6.735   3.876   4.361 -0.3343 -0.0335 -0.1386
 8328TIP3    H124948   6.817   3.856   4.316  0.5027  2.3413  0.3046
 8328TIP3    H224949   6.689   3.792   4.365  2.4885 -1.6032  0.4687
 8329TIP3   OH224950   4.161   1.677   0.250 -1.1847 -0.2668  0.7055
 8329TIP3    H124951   4.135   1.585   0.257 -0.2562 -0.5881  0.1095
 8329TIP3    H224952   4.249   1.680   0.287 -1.4040  0.4891  1.1868
 8330TIP3   OH224953   5.474   3.347   5.839 -0.3024  0.0492  0.4631
 8330TIP3    H124954   5.541   3.394   5.888 -0.2129  0.9822 -0.5390
 8330TIP3    H224955   5.513   3.331   5.753 -1.0528 -0.1532  0.1558
 8331TIP3   OH224956   2.174   6.687   0.507  0.0116  0.3649 -0.4864
 8331TIP3    H124957   2.193   6.781   0.514  0.4854  0.2577 -0.3173
 8331TIP3    H224958   2.082   6.679   0.530  0.5954  0.4707  2.0378
 8332TIP3   OH224959   1.201   6.550   1.788 -0.0571  0.1361  0.3858
 8332TIP3    H124960   1.242   6.606   1.853  0.9738 -1.9458  1.5557
 8332TIP3    H224961   1.269   6.489   1.762 -1.3015 -0.9082 -0.4987
 8333TIP3   OH224962   6.665   3.020   4.651 -0.2193  0.0879 -0.3908
 8333TIP3    H124963   6.621   3.101   4.676 -0.2579 -0.2831  0.7909
 8333TIP3    H224964   6.753   3.029   4.686 -0.7417 -1.1061  1.3138
 8334TIP3   OH224965   4.057   2.091   4.691  0.0866  0.1086  0.0533
 8334TIP3    H124966   4.034   2.176   4.655  1.4745  0.3812 -0.2344
 8334TIP3    H224967   4.106   2.047   4.621  1.5131  0.0572  1.0598
 8335TIP3   OH224968   1.320   6.959   1.088 -0.0998  0.0117  0.2672
 8335TIP3    H124969   1.335   6.993   1.000 -0.1594 -1.5742 -0.3724
 8335TIP3    H224970   1.317   6.864   1.077  0.1515 -0.2233  2.0169
 8336TIP3   OH224971   6.171   1.609   2.206 -0.1619  0.0366 -0.5247
 8336TIP3    H124972   6.181   1.593   2.113 -0.3843 -2.6767 -0.1164
 8336TIP3    H224973   6.086   1.652   2.215  1.1608  3.0449 -1.8235
 8337TIP3   OH224974   6.909   5.882   1.186  0.2242  0.2590  0.2858
 8337TIP3    H124975   6.921   5.907   1.094 -0.6207  1.7140  0.5521
 8337TIP3    H224976   6.882   5.963   1.229 -1.4599 -0.8681  1.4040
 8338TIP3   OH224977   0.006   4.710   5.384  0.0520  0.7417  0.5009
 8338TIP3    H124978  -0.033   4.763   5.453 -1.1444 -0.5727  0.8538
 8338TIP3    H224979   0.041   4.633   5.429 -0.2855  0.1203 -0.2850
 8339TIP3   OH224980   5.859   2.785   5.249  0.1751 -0.0746 -0.0872
 8339TIP3    H124981   5.801   2.798   5.324  1.2228 -0.6650  0.8357
 8339TIP3    H224982   5.800   2.779   5.174 -1.0547 -1.8579  0.9858
 8340TIP3   OH224983   6.943   3.479   3.936  0.1608 -0.3343 -0.3061
 8340TIP3    H124984   6.869   3.521   3.891  0.6721 -0.2433 -1.0713
 8340TIP3    H224985   6.937   3.387   3.909 -1.2533 -0.8708  1.7641
 8341TIP3   OH224986   7.119   4.465   4.888 -0.6183  0.4514  0.3494
 8341TIP3    H124987   7.169   4.521   4.946 -0.6930  0.7792  0.0972
 8341TIP3    H224988   7.066   4.525   4.836 -2.1457  0.0514  1.4126
 8342TIP3   OH224989   1.536   4.808   0.241  0.3864  0.0279 -0.6748
 8342TIP3    H124990   1.496   4.791   0.326  0.4029 -0.2125 -0.7157
 8342TIP3    H224991   1.624   4.840   0.263 -0.5753  2.6390 -0.5244
 8343TIP3   OH224992   1.958   3.955   4.643  0.7681 -0.1714  0.2407
 8343TIP3    H124993   1.952   3.862   4.623 -0.9787 -0.6729  2.7659
 8343TIP3    H224994   2.027   3.961   4.709 -0.4540  0.0247  1.5266
 8344TIP3   OH224995   6.729   5.446   2.397  0.0256  0.1292  0.8980
 8344TIP3    H124996   6.703   5.479   2.483  2.6986  0.1250  1.7310
 8344TIP3    H224997   6.821   5.469   2.388 -0.0906 -0.2458 -1.8027
 8345TIP3   OH224998   1.769   6.097   0.666  0.2835  0.2717 -0.1162
 8345TIP3    H124999   1.821   6.041   0.724 -1.2652 -1.8866 -0.7528
 8345TIP3    H225000   1.835   6.143   0.614  1.6182 -0.8876  0.4890
 8346TIP3   OH225001   5.457   2.443   0.847  0.0445 -0.0221  0.1261
 8346TIP3    H125002   5.542   2.477   0.876  0.7102 -1.8834  0.3836
 8346TIP3    H225003   5.396   2.469   0.917  0.4607  0.9414  0.1440
 8347TIP3   OH225004   0.736   4.395   5.448 -0.5508  0.3421 -0.6441
 8347TIP3    H125005   0.783   4.402   5.532 -2.2244  2.5149  0.1721
 8347TIP3    H225006   0.789   4.335   5.396  0.1350 -1.6815  2.2408
 8348TIP3   OH225007   6.414   5.613   5.461 -0.0345  0.4039  0.4085
 8348TIP3    H125008   6.469   5.635   5.537  1.3278  1.0795 -0.7467
 8348TIP3    H225009   6.390   5.698   5.424  0.0714  0.0571 -0.4558
 8349TIP3   OH225010   5.691   4.395   4.288 -0.4564 -0.6180  0.3476
 8349TIP3    H125011   5.641   4.319   4.318  1.1691 -1.6830  0.4339
 8349TIP3    H225012   5.728   4.431   4.368  0.9008 -1.2935  0.0308
 8350TIP3   OH225013   7.120   5.833   1.355  0.4598  0.3102 -0.0825
 8350TIP3    H125014   7.160   5.747   1.342 -1.6319 -0.7080 -0.0020
 8350TIP3    H225015   7.059   5.843   1.282  0.5404  1.6395  0.0154
 8351TIP3   OH225016   5.917   1.783   3.329 -0.1698 -0.3026  0.2810
 8351TIP3    H125017   5.920   1.688   3.331  1.7036 -0.2839 -0.7854
 8351TIP3    H225018   5.828   1.804   3.301 -0.0133 -1.7790 -1.3932
 8352TIP3   OH225019   0.209   6.234   5.599 -0.4952  0.3077 -0.0838
 8352TIP3    H125020   0.210   6.329   5.612  0.2326  0.4349 -1.0221
 8352TIP3    H225021   0.151   6.221   5.524  1.0553  0.1968 -1.2847
 8353TIP3   OH225022   5.916   0.200   0.547 -0.2380  0.4983 -0.8634
 8353TIP3    H125023   5.842   0.191   0.608 -0.0501  2.9429 -0.2094
 8353TIP3    H225024   5.993   0.201   0.603  0.1033  0.4734 -1.3328
 8354TIP3   OH225025   0.874   3.121   4.737 -0.8498  0.4468  0.1640
 8354TIP3    H125026   0.838   3.047   4.787  0.7610 -0.5529 -0.0986
 8354TIP3    H225027   0.960   3.135   4.776 -1.0557  2.0527  0.0513
 8355TIP3   OH225028   3.353   6.821   0.235 -0.2020 -0.4431 -0.1328
 8355TIP3    H125029   3.310   6.891   0.284  0.5516 -2.1461  3.1426
 8355TIP3    H225030   3.280   6.772   0.195 -0.7584  1.7201 -1.8724
 8356TIP3   OH225031   7.259   3.578   3.208 -0.1556  0.4950  0.6889
 8356TIP3    H125032   7.309   3.617   3.280 -0.2717  1.3236  0.3246
 8356TIP3    H225033   7.186   3.639   3.194 -0.0288  0.4355 -0.2519
 8357TIP3   OH225034   1.031   5.441   5.158 -0.3345 -0.5587 -0.1225
 8357TIP3    H125035   1.026   5.396   5.243 -0.5494  0.8758  0.6457
 8357TIP3    H225036   0.996   5.378   5.096  0.2846 -1.8200  0.7813
 8358TIP3   OH225037   5.249   3.985   5.906  0.4041 -0.5814  0.2802
 8358TIP3    H125038   5.187   3.978   5.978  0.4240 -0.2163  0.3301
 8358TIP3    H225039   5.325   4.029   5.943 -0.3806  1.4686 -0.4681
 8359TIP3   OH225040   1.806   6.760   1.060  0.1535  0.4993 -0.6323
 8359TIP3    H125041   1.826   6.677   1.016  1.2440 -0.1603  1.0451
 8359TIP3    H225042   1.892   6.800   1.075 -0.3391  1.6916 -0.9575
 8360TIP3   OH225043   0.416   4.301   4.565  0.2372 -0.5062  0.6702
 8360TIP3    H125044   0.359   4.359   4.616 -1.0497 -0.5913 -0.6414
 8360TIP3    H225045   0.387   4.213   4.589  2.2087 -0.6522  2.6824
 8361TIP3   OH225046   1.655   6.580   2.250 -0.2587 -0.6517 -0.7131
 8361TIP3    H125047   1.687   6.643   2.185 -0.8077 -0.7893 -1.1147
 8361TIP3    H225048   1.563   6.567   2.228 -0.5496 -0.4108  0.3232
 8362TIP3   OH225049   3.907   1.304   2.542 -0.6220  0.4694 -0.1528
 8362TIP3    H125050   3.987   1.349   2.570  1.4721 -3.1296 -0.0509
 8362TIP3    H225051   3.837   1.361   2.572  1.7327  0.9892  5.0157
 8363TIP3   OH225052   3.159   6.101   0.654 -0.2449  0.7681 -0.0857
 8363TIP3    H125053   3.224   6.124   0.720  1.1029 -0.3266 -1.0006
 8363TIP3    H225054   3.159   6.175   0.593 -0.4522  1.1369  0.3594
 8364TIP3   OH225055   2.977   0.439   0.364 -0.0306  0.0685 -0.1465
 8364TIP3    H125056   2.914   0.368   0.379 -0.2092  0.0990 -0.7379
 8364TIP3    H225057   2.924   0.518   0.357  0.1086  0.1530 -0.2541
 8365TIP3   OH225058   5.727   0.131   3.551  0.3254  0.0361  0.5493
 8365TIP3    H125059   5.751   0.147   3.460 -0.4164  1.5757  0.6161
 8365TIP3    H225060   5.810   0.127   3.598  0.7085 -0.7479 -0.1869
 8366TIP3   OH225061   6.887   2.080   4.053  0.2416 -0.3560 -0.2607
 8366TIP3    H125062   6.853   2.151   4.108  1.3963 -1.1032  1.4518
 8366TIP3    H225063   6.922   2.125   3.976  0.0417  0.8550  0.3305
 8367TIP3   OH225064   2.889   6.367   2.423  0.3378  0.1514 -0.1188
 8367TIP3    H125065   2.843   6.354   2.506 -1.9102 -1.7995 -1.6089
 8367TIP3    H225066   2.979   6.342   2.442 -0.2794 -0.8586  1.6058
 8368TIP3   OH225067   5.344   2.452   4.514  0.2472 -0.1036  0.2015
 8368TIP3    H125068   5.369   2.522   4.575 -1.5530  2.8243 -2.2923
 8368TIP3    H225069   5.418   2.446   4.453  0.2843 -0.2098  0.2560
 8369TIP3   OH225070   0.353   4.526   2.701  0.5303 -0.2402 -0.4736
 8369TIP3    H125071   0.325   4.599   2.756 -0.0974 -2.3163  2.0976
 8369TIP3    H225072   0.279   4.509   2.643  0.1215  0.2326 -0.0990
 8370TIP3   OH225073   2.878   1.443   0.937  0.0656 -0.2191  0.0280
 8370TIP3    H125074   2.924   1.513   0.984  0.1589 -0.1626 -0.1488
 8370TIP3    H225075   2.832   1.488   0.867  1.5290 -0.5453 -1.1689
 8371TIP3   OH225076   2.476   0.783   0.801  0.4916  0.1092 -0.2220
 8371TIP3    H125077   2.536   0.729   0.852  0.1003 -1.1249 -1.0314
 8371TIP3    H225078   2.527   0.860   0.777  0.8714  0.3907  1.4577
 8372TIP3   OH225079   3.199   0.524   0.258  0.1902  0.0523  0.1414
 8372TIP3    H125080   3.132   0.524   0.326 -0.2396  0.1219 -0.2789
 8372TIP3    H225081   3.254   0.448   0.278  0.2215  0.2228  0.7156
 8373TIP3   OH225082   5.445   0.902   0.886 -0.0417  0.0848  0.0539
 8373TIP3    H125083   5.536   0.920   0.911  0.4945 -1.0118 -1.0197
 8373TIP3    H225084   5.401   0.882   0.968  1.2452 -1.6349  0.3597
 8374TIP3   OH225085   1.852   4.167   4.448 -0.2636  0.0106 -0.1627
 8374TIP3    H125086   1.760   4.167   4.475  0.4024  2.4283  2.2844
 8374TIP3    H225087   1.891   4.094   4.496 -0.9662 -1.4326 -1.6956
 8375TIP3   OH225088   7.253   4.633   5.109 -0.5934  1.2025  0.6439
 8375TIP3    H125089   7.171   4.676   5.130 -0.0945  1.9013  1.2032
 8375TIP3    H225090   7.299   4.626   5.192 -0.2195  0.5408  0.3858
 8376TIP3   OH225091   0.442   3.117   5.792  0.5943 -0.2517  0.4545
 8376TIP3    H125092   0.348   3.104   5.793  0.3092  1.6716  0.1868
 8376TIP3    H225093   0.467   3.120   5.884  0.1724  0.7280  0.5374
 8377TIP3   OH225094   2.172   6.060   1.889  0.2809  0.5662  0.0808
 8377TIP3    H125095   2.185   6.102   1.804 -1.9082 -0.8265 -0.9966
 8377TIP3    H225096   2.124   6.124   1.941  1.7163  1.4626  0.3312
 8378TIP3   OH225097   1.843   3.671   4.641 -0.2543  0.3420  0.2748
 8378TIP3    H125098   1.865   3.625   4.560  2.0343  1.4294  0.2381
 8378TIP3    H225099   1.878   3.615   4.711  3.8764  2.5999  0.1720
 8379TIP3   OH225100   5.252   1.426   0.197 -0.2943 -0.1378 -0.5889
 8379TIP3    H125101   5.263   1.376   0.116 -0.0502 -0.1592 -0.5433
 8379TIP3    H225102   5.229   1.514   0.168  0.4229  0.0170 -0.6999
 8380TIP3   OH225103   0.713   4.116   3.594 -0.5146 -0.1456  0.2987
 8380TIP3    H125104   0.746   4.193   3.547 -0.5096 -0.8862 -0.9380
 8380TIP3    H225105   0.636   4.148   3.640 -1.0966  0.3772 -1.0170
 8381TIP3   OH225106   5.406   4.200   4.366 -0.1735  0.2264  0.4041
 8381TIP3    H125107   5.450   4.144   4.302 -0.1056 -1.0433  1.5317
 8381TIP3    H225108   5.313   4.184   4.351 -0.2587  2.0743 -1.2397
 8382TIP3   OH225109   7.247   6.278   1.304  0.6541 -0.1315 -0.6463
 8382TIP3    H125110   7.192   6.233   1.369  1.0425 -1.3732 -1.1572
 8382TIP3    H225111   7.189   6.344   1.265  0.7320  1.3692  1.7159
 8383TIP3   OH225112   3.895   0.227   1.833  0.0048 -0.9678  0.4838
 8383TIP3    H125113   3.860   0.290   1.770  0.0100 -0.0872  1.3516
 8383TIP3    H225114   3.818   0.185   1.871  0.0193 -2.0889 -0.6824
 8384TIP3   OH225115   4.009   1.885   0.999 -0.0811 -0.2480  0.4097
 8384TIP3    H125116   3.997   1.919   0.911 -0.9881  0.5170  0.8228
 8384TIP3    H225117   3.971   1.798   0.997 -2.2996  0.6796  0.6736
 8385TIP3   OH225118   2.970   4.353   0.008  0.5602  0.1694 -0.0452
 8385TIP3    H125119   3.041   4.293   0.031 -0.6448 -1.1638  0.2728
 8385TIP3    H225120   2.892   4.315   0.049 -0.2388  1.9306  0.1132
 8386TIP3   OH225121   4.301   2.444   5.250 -0.1423 -0.6255 -0.4575
 8386TIP3    H125122   4.218   2.437   5.297  0.0064 -2.0591 -0.3910
 8386TIP3    H225123   4.364   2.468   5.317 -0.5698  0.9120 -0.5866
 8387TIP3   OH225124   4.427   3.214   5.917  0.3048 -0.2652  0.1698
 8387TIP3    H125125   4.407   3.293   5.967  0.1732  0.0467 -0.3705
 8387TIP3    H225126   4.489   3.166   5.972  1.3834  0.8301 -0.0630
 8388TIP3   OH225127   7.303   5.609   0.513  0.2778  0.3528 -0.1885
 8388TIP3    H125128   7.340   5.546   0.452 -1.7350  1.0958 -2.2706
 8388TIP3    H225129   7.369   5.678   0.519  0.2285  0.6074 -2.1182
 8389TIP3   OH225130   6.247   5.141   4.851 -0.4899  0.3266  0.3958
 8389TIP3    H125131   6.294   5.082   4.791  1.8845  2.0947  0.4713
 8389TIP3    H225132   6.288   5.126   4.936 -1.6686  0.2004  0.9524
 8390TIP3   OH225133   0.397   5.963   1.456 -0.4200 -0.1755 -0.0126
 8390TIP3    H125134   0.305   5.935   1.448 -0.8628  0.8152  1.3207
 8390TIP3    H225135   0.399   6.013   1.538  1.4779 -0.7903  0.3321
 8391TIP3   OH225136   4.238   5.791   0.856  0.1481 -0.3417 -0.1551
 8391TIP3    H125137   4.288   5.802   0.776 -0.6368 -0.6952 -0.6994
 8391TIP3    H225138   4.183   5.715   0.840 -0.7640  0.2072  0.3224
 8392TIP3   OH225139   5.810   3.115   5.877 -0.2257 -0.7843  0.1130
 8392TIP3    H125140   5.848   3.181   5.819 -0.5752 -1.4167 -0.8617
 8392TIP3    H225141   5.766   3.054   5.817 -1.1313 -1.1069  1.0920
 8393TIP3   OH225142   7.023   5.699   4.784 -0.0185 -0.5788  0.6931
 8393TIP3    H125143   6.992   5.709   4.694  0.1866  0.1922  0.6992
 8393TIP3    H225144   7.019   5.788   4.820  0.2454 -0.8222  1.3307
 8394TIP3   OH225145   5.272   3.042   1.515 -0.6222 -0.9164 -0.0488
 8394TIP3    H125146   5.291   3.111   1.452 -2.5439  1.2531  1.6343
 8394TIP3    H225147   5.354   3.029   1.562 -0.6820  1.5957  0.8367
 8395TIP3   OH225148   1.573   4.341   4.232 -0.1066  0.6897 -0.2221
 8395TIP3    H125149   1.517   4.391   4.173  4.5241  3.3230 -2.6641
 8395TIP3    H225150   1.602   4.266   4.180 -0.3429 -0.0278  0.6478
 8396TIP3   OH225151   2.004   5.515   3.786 -1.0267 -0.6781 -0.0995
 8396TIP3    H125152   1.933   5.556   3.737 -0.2476 -1.2038 -1.7136
 8396TIP3    H225153   2.071   5.582   3.792 -1.5414 -0.2702  1.1858
 8397TIP3   OH225154   5.980   0.484   1.319  0.2912 -0.0707 -0.1268
 8397TIP3    H125155   6.016   0.450   1.401  0.1857 -1.1410 -0.5180
 8397TIP3    H225156   5.992   0.413   1.256  0.3913  0.7524 -1.0485
 8398TIP3   OH225157   4.679   1.871   3.539 -0.0025 -0.1143 -0.1025
 8398TIP3    H125158   4.679   1.936   3.609 -0.2500  0.0102 -0.2169
 8398TIP3    H225159   4.724   1.795   3.576  0.7373  0.3014 -0.1325
 8399TIP3   OH225160   6.523   4.331   5.640 -0.1758 -0.1058 -0.4111
 8399TIP3    H125161   6.596   4.312   5.580  0.8004  0.0323  0.7036
 8399TIP3    H225162   6.519   4.427   5.642 -0.7142 -0.1161 -0.8457
 8400TIP3   OH225163   6.825   5.531   0.051  0.0903 -0.4137 -0.0365
 8400TIP3    H125164   6.835   5.531  -0.044  1.6209 -1.6901  0.1118
 8400TIP3    H225165   6.863   5.448   0.080 -1.3671 -0.5573  1.5964
 8401TIP3   OH225166   2.313   1.591   1.133 -0.3784  0.5777  0.4832
 8401TIP3    H125167   2.405   1.609   1.151 -0.3571  1.5446 -0.5245
 8401TIP3    H225168   2.308   1.495   1.126  0.8600  0.5924 -0.9292
 8402TIP3   OH225169   0.389   3.856   4.465  0.3382  0.0910  0.3928
 8402TIP3    H125170   0.461   3.838   4.405 -0.0839  0.9148 -0.3723
 8402TIP3    H225171   0.418   3.821   4.549  1.7208  0.6014  0.1358
 8403TIP3   OH225172   7.037   2.018   4.280 -0.1104 -0.6408  0.4536
 8403TIP3    H125173   6.963   2.062   4.237 -0.2123 -0.2351  1.0337
 8403TIP3    H225174   7.061   1.947   4.220 -0.4973 -0.3196 -0.0860
 8404TIP3   OH225175   5.726   2.410   5.395  0.0022  0.6276  0.0580
 8404TIP3    H125176   5.739   2.329   5.444 -2.3635 -0.5970 -1.2743
 8404TIP3    H225177   5.681   2.468   5.456  0.8343  0.5892  0.7058
 8405TIP3   OH225178   1.634   3.082   4.358  0.6441  0.4089  0.0331
 8405TIP3    H125179   1.669   2.993   4.370  3.1028  1.3077 -0.0786
 8405TIP3    H225180   1.569   3.073   4.289 -0.2415 -1.5652  1.0779
 8406TIP3   OH225181   0.233   6.418   0.240 -0.2487 -0.1337 -0.1162
 8406TIP3    H125182   0.258   6.507   0.266 -0.8376  0.3389 -1.1432
 8406TIP3    H225183   0.147   6.428   0.200 -1.0177 -1.3931  1.1616
 8407TIP3   OH225184   5.811   2.784   5.938 -0.4020 -0.0989  0.2023
 8407TIP3    H125185   5.808   2.844   5.863 -0.3092  0.2546  0.4826
 8407TIP3    H225186   5.859   2.708   5.906  0.5677  0.4936  0.2198
 8408TIP3   OH225187   4.936   4.140   4.249 -0.1107 -0.1080 -0.3834
 8408TIP3    H125188   4.943   4.185   4.333 -0.8543 -2.4360  0.9887
 8408TIP3    H225189   4.870   4.189   4.201 -1.5690 -0.2261  1.4157
 8409TIP3   OH225190   2.336   1.860   5.334 -0.0491  0.2022  0.4768
 8409TIP3    H125191   2.400   1.817   5.276 -1.2649 -0.9711 -0.0291
 8409TIP3    H225192   2.377   1.858   5.420 -0.3011 -2.5961  0.5995
 8410TIP3   OH225193   0.970   3.554   5.415  0.6595 -0.1413  0.1501
 8410TIP3    H125194   1.004   3.556   5.505 -0.3260 -1.2963  0.5514
 8410TIP3    H225195   0.939   3.643   5.399  1.6386  0.2979  0.6341
 8411TIP3   OH225196   1.679   4.681   3.907  0.1164  0.1485  0.2057
 8411TIP3    H125197   1.625   4.755   3.878 -0.5146  0.1992  1.4740
 8411TIP3    H225198   1.763   4.721   3.928  1.5142 -0.2835 -4.1330
 8412TIP3   OH225199   5.275   6.604   4.805  0.0917 -0.7587  0.0048
 8412TIP3    H125200   5.331   6.545   4.754  0.4882 -1.4567  1.2196
 8412TIP3    H225201   5.190   6.561   4.807  0.2903 -1.1255  0.6043
 8413TIP3   OH225202   5.654   5.790   2.513 -0.0585 -0.1407  0.0968
 8413TIP3    H125203   5.595   5.719   2.488 -0.7603  0.3273  0.4258
 8413TIP3    H225204   5.675   5.834   2.431  2.3292 -2.1966 -0.4833
 8414TIP3   OH225205   1.066   4.818   2.904  0.4293 -0.1371 -0.0837
 8414TIP3    H125206   1.112   4.810   2.821  0.3937  0.8657 -0.2054
 8414TIP3    H225207   1.016   4.737   2.912 -2.0892  1.1116 -2.5776
 8415TIP3   OH225208   0.233   5.659   5.433  0.2706  0.1420 -0.4120
 8415TIP3    H125209   0.280   5.709   5.366  0.0138  0.2190 -0.5365
 8415TIP3    H225210   0.166   5.719   5.465  2.1608  1.0768  1.8912
 8416TIP3   OH225211   0.514   0.998   1.622 -0.8214 -0.2193 -0.3258
 8416TIP3    H125212   0.449   0.955   1.677 -0.6114 -0.7308 -0.4735
 8416TIP3    H225213   0.553   1.065   1.678  0.3508 -1.6348  0.5843
 8417TIP3   OH225214   6.469   4.783   3.047 -0.2763 -0.0282  0.6562
 8417TIP3    H125215   6.411   4.826   3.111 -0.2411  0.0583  0.6303
 8417TIP3    H225216   6.474   4.845   2.975  0.8072  0.4997  1.1747
 8418TIP3   OH225217   0.162   5.365   5.343 -0.2159 -0.3798 -0.2585
 8418TIP3    H125218   0.073   5.392   5.320 -0.5286 -1.9076 -0.9319
 8418TIP3    H225219   0.215   5.443   5.333 -1.1604  0.0800 -1.7002
 8419TIP3   OH225220   4.564   0.153   0.103 -0.3940 -0.3038 -0.5019
 8419TIP3    H125221   4.604   0.133   0.187 -2.1945  0.0191  0.4585
 8419TIP3    H225222   4.535   0.067   0.070 -1.4745 -0.2018  0.1553
 8420TIP3   OH225223   0.218   0.435   2.383  0.2737  0.2757  0.0877
 8420TIP3    H125224   0.221   0.417   2.477  1.0478  0.5687  0.1285
 8420TIP3    H225225   0.310   0.432   2.356  0.0008 -0.4199 -0.7774
 8421TIP3   OH225226   6.895   1.601   0.356  0.4933 -0.0601  0.0429
 8421TIP3    H125227   6.824   1.630   0.413  0.3811 -2.1726  1.0242
 8421TIP3    H225228   6.972   1.649   0.386 -0.2777  1.4112 -0.3044
 8422TIP3   OH225229   0.033   1.965   1.111 -0.1746 -0.1898  0.2972
 8422TIP3    H125230  -0.009   1.973   1.196  0.5020 -0.2746  0.6412
 8422TIP3    H225231   0.003   2.041   1.062 -0.5795 -0.1504  0.6066
 8423TIP3   OH225232   1.982   4.643   5.606 -0.0412  0.1491  1.2242
 8423TIP3    H125233   1.932   4.577   5.558 -0.8136  0.7342  1.2190
 8423TIP3    H225234   1.928   4.722   5.602  3.1577  2.2917 -3.1382
 8424TIP3   OH225235   7.155   5.082   5.087  0.1000 -0.1834  0.3551
 8424TIP3    H125236   7.106   5.159   5.116 -1.6497 -0.9010 -0.5660
 8424TIP3    H225237   7.241   5.115   5.063 -1.2511  1.8833 -1.9772
 8425TIP3   OH225238   2.912   2.624   5.785  0.1325 -0.3016 -0.1121
 8425TIP3    H125239   2.941   2.664   5.703 -1.4010  0.2818 -0.3918
 8425TIP3    H225240   2.991   2.587   5.823  1.2155  1.1540 -0.8895
 8426TIP3   OH225241   3.291   6.619   6.026  0.3979  0.1417  0.1614
 8426TIP3    H125242   3.220   6.612   6.090 -0.0639  1.1844 -0.2198
 8426TIP3    H225243   3.246   6.632   5.942  1.0332  0.6450 -0.1028
 8427TIP3   OH225244   5.655   2.094   1.811  0.5430  0.1551  0.2056
 8427TIP3    H125245   5.593   2.165   1.799  0.9537  0.6675  1.0358
 8427TIP3    H225246   5.741   2.136   1.814  0.9510 -0.5638 -1.0848
 8428TIP3   OH225247   7.063   1.996   1.141  0.4485  0.0230  0.7932
 8428TIP3    H125248   7.018   1.918   1.174 -1.7044  1.1049  0.5251
 8428TIP3    H225249   7.098   2.039   1.219  0.4536 -0.4994  1.0789
 8429TIP3   OH225250   5.865   6.831   0.393  0.1926  0.3869  0.1494
 8429TIP3    H125251   5.867   6.790   0.306 -0.9973 -0.7869  0.6665
 8429TIP3    H225252   5.888   6.923   0.376  1.9665 -0.2466 -1.1438
 8430TIP3   OH225253   0.818   2.946   1.408  0.0111  0.5295 -0.4148
 8430TIP3    H125254   0.847   2.952   1.317 -1.8397  1.3361 -0.9635
 8430TIP3    H225255   0.794   2.854   1.420 -0.3849  0.5689 -0.9247
 8431TIP3   OH225256   1.299   3.200   5.857  0.3341 -0.1310  0.4337
 8431TIP3    H125257   1.326   3.110   5.836 -0.1072  0.7824 -4.7032
 8431TIP3    H225258   1.381   3.245   5.879  0.6305 -1.5376  2.4202
 8432TIP3   OH225259   4.369   6.816   3.260 -0.1825 -0.3643 -0.0269
 8432TIP3    H125260   4.412   6.885   3.208 -0.0919  0.6088  1.3148
 8432TIP3    H225261   4.278   6.844   3.266 -0.0141 -0.0352  1.0494
 8433TIP3   OH225262   0.124   0.150   3.094  0.1200  0.2692  0.3087
 8433TIP3    H125263   0.187   0.107   3.036  1.2678 -1.4364  2.6851
 8433TIP3    H225264   0.043   0.101   3.082 -0.3383  1.4481 -1.5795
 8434TIP3   OH225265   7.183   1.772   0.410  0.4701  0.2741 -0.9295
 8434TIP3    H125266   7.153   1.846   0.463 -1.7486 -0.6483 -0.8927
 8434TIP3    H225267   7.258   1.737   0.459 -0.6698  0.3001  0.8641
 8435TIP3   OH225268   0.291   6.906   1.865  0.4030 -0.0740 -0.6490
 8435TIP3    H125269   0.351   6.851   1.815  0.6287  0.5176 -1.0388
 8435TIP3    H225270   0.348   6.960   1.920  0.1308 -1.1490  0.6951
 8436TIP3   OH225271   5.002   0.539   0.688  0.0841 -0.3757  0.0223
 8436TIP3    H125272   5.064   0.600   0.728 -1.8442  0.8154  1.2682
 8436TIP3    H225273   4.973   0.583   0.608 -0.7721  0.0120  0.5506
 8437TIP3   OH225274   6.780   1.140   1.008 -0.2143 -0.2027  0.5408
 8437TIP3    H125275   6.834   1.065   1.033 -2.2515 -1.6414  0.6675
 8437TIP3    H225276   6.777   1.195   1.087  0.5496 -0.4160  0.7207
 8438TIP3   OH225277   4.020   5.232   5.167 -0.0744  0.1403  1.0016
 8438TIP3    H125278   4.055   5.169   5.104 -1.0882 -0.3393  0.9064
 8438TIP3    H225279   3.989   5.305   5.113 -0.7511 -0.1792  0.9497
 8439TIP3   OH225280   6.852   0.417   0.431  0.0583  0.0050  0.3214
 8439TIP3    H125281   6.821   0.439   0.518  0.6997  0.0273  0.5427
 8439TIP3    H225282   6.804   0.476   0.373 -2.5267 -1.9585  0.3807
 8440TIP3   OH225283   2.456   1.410   1.438  0.4636 -0.0742 -0.0274
 8440TIP3    H125284   2.458   1.414   1.342 -1.0988  2.4231  0.0069
 8440TIP3    H225285   2.371   1.371   1.459  0.2413  0.6050  0.3547
 8441TIP3   OH225286   0.760   0.845   0.588  0.2939  1.0007  0.1668
 8441TIP3    H125287   0.673   0.833   0.550  0.8665 -0.6934 -0.6653
 8441TIP3    H225288   0.748   0.914   0.653 -2.7376 -2.3023  3.3536
 8442TIP3   OH225289   1.196   2.977   1.215 -0.4180  0.1012 -0.1100
 8442TIP3    H125290   1.242   2.893   1.216  0.1276  0.3964  0.0015
 8442TIP3    H225291   1.222   3.020   1.297  0.9581  1.2530 -1.1190
 8443TIP3   OH225292   3.833   6.669   2.192 -0.2872 -0.5299 -0.1804
 8443TIP3    H125293   3.912   6.710   2.227  0.0213 -1.1550 -0.1373
 8443TIP3    H225294   3.852   6.653   2.100 -1.4914  2.0810 -0.9425
 8444TIP3   OH225295   6.869   0.151   2.518  0.0241 -0.0213  0.3757
 8444TIP3    H125296   6.801   0.218   2.512  1.0448  1.0530  0.6182
 8444TIP3    H225297   6.830   0.081   2.569 -0.3273  1.3177  1.9728
 8445TIP3   OH225298   4.953   0.772   0.506  0.2063  0.0259 -0.3956
 8445TIP3    H125299   4.970   0.753   0.414  0.0397  0.9199 -0.6145
 8445TIP3    H225300   5.019   0.836   0.531  0.1744 -0.1181  0.0751
 8446TIP3   OH225301   7.005   1.596   0.081  0.1291 -0.0602  0.1369
 8446TIP3    H125302   6.987   1.568   0.171  0.2546 -0.9300 -0.0977
 8446TIP3    H225303   6.933   1.655   0.059  0.6467  0.9724  1.1564
 8447TIP3   OH225304   2.451   3.679   5.761 -0.7913  0.0757  0.2873
 8447TIP3    H125305   2.367   3.634   5.749 -0.1886 -1.2959  1.1619
 8447TIP3    H225306   2.437   3.734   5.839 -1.9284  2.4361 -1.4931
 8448TIP3   OH225307   2.042   6.883   1.084  0.0232 -0.1869  0.3576
 8448TIP3    H125308   2.127   6.864   1.043 -0.5540 -0.6531 -0.6382
 8448TIP3    H225309   2.048   6.975   1.109  0.2958  0.1917 -1.0289
 8449TIP3   OH225310   6.422   1.778   0.422  0.1799 -0.3180 -0.9016
 8449TIP3    H125311   6.371   1.754   0.499  1.0428 -0.3051 -0.3205
 8449TIP3    H225312   6.506   1.808   0.457  1.3623 -2.3415 -1.9534
 8450TIP3   OH225313   3.319   6.648   1.875  0.1010 -0.1570  0.3091
 8450TIP3    H125314   3.277   6.596   1.807  1.1411 -0.7926  0.1526
 8450TIP3    H225315   3.271   6.731   1.874 -2.4925 -1.5483  1.4957
 8451TIP3   OH225316   1.657   5.880   5.978  0.3643 -0.1249 -0.0567
 8451TIP3    H125317   1.695   5.909   6.061  0.9042 -1.2120  0.0849
 8451TIP3    H225318   1.730   5.840   5.931 -0.1736 -0.4533 -0.6165
 8452TIP3   OH225319   0.689   5.692   4.044  0.2032  0.2188  0.0350
 8452TIP3    H125320   0.746   5.650   3.979  1.4648 -1.2964  2.0841
 8452TIP3    H225321   0.626   5.624   4.069 -0.3705  0.8416  0.3013
 8453TIP3   OH225322   6.885   3.495   1.126  0.4745  0.6574 -1.0648
 8453TIP3    H125323   6.799   3.456   1.143  0.9606  0.1241  0.1921
 8453TIP3    H225324   6.877   3.533   1.038 -1.7476  2.5413 -0.0995
 8454TIP3   OH225325   1.693   1.204   0.452 -0.0709  0.1299 -0.6793
 8454TIP3    H125326   1.682   1.258   0.530 -2.2041  0.1222 -0.9448
 8454TIP3    H225327   1.701   1.266   0.380 -0.2073  0.1040 -0.7157
 8455TIP3   OH225328   7.125   1.587   1.134 -0.0807  0.0647  0.1317
 8455TIP3    H125329   7.176   1.548   1.063 -1.5464  0.0604 -0.9411
 8455TIP3    H225330   7.190   1.611   1.200  1.5451  1.9606 -2.0719
 8456TIP3   OH225331   5.081   1.635   0.910  0.0713  0.4783 -0.3785
 8456TIP3    H125332   5.134   1.653   0.988  1.8142  0.1374 -1.4639
 8456TIP3    H225333   5.128   1.677   0.838 -0.6584 -0.6004 -1.5047
 8457TIP3   OH225334   0.682   2.196   1.410 -0.5214 -0.6248 -0.6087
 8457TIP3    H125335   0.734   2.165   1.484 -0.4380 -0.3137 -0.5334
 8457TIP3    H225336   0.729   2.165   1.333 -0.3061 -0.4812 -0.5368
 8458TIP3   OH225337   5.958   0.406   0.202  0.0116  0.0497  0.1821
 8458TIP3    H125338   5.881   0.417   0.258 -1.1104 -0.6009 -1.1950
 8458TIP3    H225339   5.923   0.404   0.113  1.5921 -0.5260 -0.4509
 8459TIP3   OH225340   1.113   0.500   1.350  0.0098  0.5742  0.8687
 8459TIP3    H125341   1.207   0.510   1.364  0.5637 -0.5792 -1.7625
 8459TIP3    H225342   1.100   0.406   1.336 -1.7507  0.5430  2.4723
 8460TIP3   OH225343   5.938   0.682   1.137  0.0000 -0.2606 -0.1822
 8460TIP3    H125344   6.028   0.708   1.119  0.4640 -1.1916  0.7518
 8460TIP3    H225345   5.945   0.615   1.205 -1.2902 -1.6460 -1.3999
 8461TIP3   OH225346   0.256   1.975   1.512 -0.6384  0.1255 -0.1535
 8461TIP3    H125347   0.284   2.063   1.536 -0.6107  0.0730  0.0063
 8461TIP3    H225348   0.285   1.920   1.584  0.3256 -0.1812 -0.7759
 8462TIP3   OH225349   6.345   4.176   5.991 -0.2062 -0.8959  0.1795
 8462TIP3    H125350   6.324   4.269   5.990  0.0340 -0.8449 -0.3595
 8462TIP3    H225351   6.293   4.140   6.062  0.0302 -0.2707  0.6690
 8463TIP3   OH225352   7.108   4.038   4.944 -0.5358  0.0864  0.2685
 8463TIP3    H125353   7.115   3.965   4.883 -0.8853  1.0483 -0.9639
 8463TIP3    H225354   7.182   4.095   4.921 -1.3185  1.0023 -0.0272
 8464TIP3   OH225355   1.160   2.465   1.562 -0.7131 -0.2871 -0.4687
 8464TIP3    H125356   1.181   2.550   1.522  1.4255 -1.1871 -1.3217
 8464TIP3    H225357   1.202   2.469   1.648 -1.5809 -0.0655 -0.0452
 8465TIP3   OH225358   1.220   4.323   5.621  0.1094 -0.1537  0.4785
 8465TIP3    H125359   1.276   4.321   5.544 -1.7766  1.5359 -1.0179
 8465TIP3    H225360   1.208   4.231   5.644  1.5850 -0.6385 -0.5743
 8466TIP3   OH225361   4.765   6.104   3.145  0.6838  0.1881  0.0578
 8466TIP3    H125362   4.722   6.155   3.076 -0.6292 -0.2321  0.5422
 8466TIP3    H225363   4.827   6.165   3.185  0.0736  1.0160 -0.2374
 8467TIP3   OH225364   2.971   6.534   2.000  0.0391 -0.4140  0.1816
 8467TIP3    H125365   3.045   6.583   2.036  0.5293 -0.6075 -0.5599
 8467TIP3    H225366   3.011   6.464   1.949 -0.6606 -1.0337  0.4736
 8468TIP3   OH225367   4.408   2.143   0.650 -0.1770  0.1671  0.1786
 8468TIP3    H125368   4.484   2.109   0.603 -0.6386 -0.8441  0.1410
 8468TIP3    H225369   4.380   2.219   0.599  0.1276 -0.1306 -0.4366
 8469TIP3   OH225370   5.787   2.479   1.849  0.0132  0.0934 -0.0013
 8469TIP3    H125371   5.858   2.530   1.889 -0.5190  0.9237 -0.0959
 8469TIP3    H225372   5.716   2.542   1.838 -0.7019 -0.7066 -0.0089
 8470TIP3   OH225373   0.607   1.646   0.050 -0.1684 -0.1102  0.1429
 8470TIP3    H125374   0.555   1.669   0.127  0.8895 -0.3642  0.9419
 8470TIP3    H225375   0.552   1.584   0.003 -0.3323 -0.8654  1.3053
 8471TIP3   OH225376   6.850   0.823   0.269 -0.7448 -0.2213  0.1185
 8471TIP3    H125377   6.946   0.827   0.265 -0.7414 -1.2649 -0.8537
 8471TIP3    H225378   6.831   0.825   0.363  0.1415  1.5527  0.2954
 8472TIP3   OH225379   2.875   5.295   5.940  0.4859  0.0191 -0.5038
 8472TIP3    H125380   2.837   5.331   6.020  1.5877  0.6788 -0.2563
 8472TIP3    H225381   2.844   5.205   5.937 -1.3379  0.6191 -0.4831
 8473TIP3   OH225382   0.890   1.944   0.317  0.0500 -0.3504 -0.0891
 8473TIP3    H125383   0.909   2.036   0.297 -0.9514  0.0026  0.4801
 8473TIP3    H225384   0.815   1.923   0.261  0.2410 -0.7992 -0.1724
 8474TIP3   OH225385   0.132   4.828   5.885  0.3475  0.1999  0.0397
 8474TIP3    H125386   0.143   4.786   5.971  2.6984  0.2098 -0.2161
 8474TIP3    H225387   0.125   4.921   5.905 -0.6828  0.0643  0.3246
 8475TIP3   OH225388   5.760   2.013   2.507 -0.0900 -0.1060 -0.8860
 8475TIP3    H125389   5.678   1.964   2.509  1.2933 -2.4323  1.2273
 8475TIP3    H225390   5.805   1.981   2.428 -1.1332  1.1470 -2.0267
 8476TIP3   OH225391   5.398   0.881   0.164 -0.0478 -0.4120 -0.2753
 8476TIP3    H125392   5.386   0.830   0.244  0.8488  0.5496  0.4845
 8476TIP3    H225393   5.452   0.826   0.108  0.8827 -0.3207  0.5222
 8477TIP3   OH225394   2.498   3.162   5.339  0.5408 -0.1756  0.1173
 8477TIP3    H125395   2.491   3.240   5.394  1.6189  0.3398 -0.4630
 8477TIP3    H225396   2.565   3.109   5.381  0.5547 -0.3061 -0.0712
 8478TIP3   OH225397   2.218   3.647   5.257 -0.2777  0.5145 -0.5141
 8478TIP3    H125398   2.183   3.735   5.239 -0.9385  0.6685  1.3888
 8478TIP3    H225399   2.303   3.663   5.297 -0.7653  0.3417  0.6294
 8479TIP3   OH225400   1.219   2.528   4.688  0.2276  0.0764  0.1504
 8479TIP3    H125401   1.193   2.454   4.742 -1.2029  0.7143  0.3386
 8479TIP3    H225402   1.261   2.488   4.611  1.3043 -0.8528  1.2012
 8480TIP3   OH225403   0.647   3.022   0.247 -0.1571 -0.4577 -0.4021
 8480TIP3    H125404   0.731   3.017   0.292 -0.4340  0.8878  0.2734
 8480TIP3    H225405   0.584   2.986   0.310 -0.4329  0.7422  0.0276
 8481TIP3   OH225406   2.312   4.566   5.768  0.0866 -0.6835 -0.4014
 8481TIP3    H125407   2.327   4.521   5.685 -1.3255 -1.7357 -0.0947
 8481TIP3    H225408   2.399   4.576   5.806  0.5950 -1.5132 -1.3247
 8482TIP3   OH225409   0.223   1.112   1.499 -0.1438 -0.3999 -0.3251
 8482TIP3    H125410   0.238   1.176   1.429  0.7874 -0.8732 -0.5638
 8482TIP3    H225411   0.222   1.163   1.579  0.7922 -0.1031 -0.4986
 8483TIP3   OH225412   0.424   5.752   5.245 -0.3403 -0.0087  0.0648
 8483TIP3    H125413   0.469   5.832   5.219 -0.4041 -0.1059 -0.3407
 8483TIP3    H225414   0.390   5.715   5.164 -0.5181 -0.3232  0.2783
 8484TIP3   OH225415   3.309   1.306   0.252 -0.2028  0.1901  0.1811
 8484TIP3    H125416   3.401   1.283   0.244  0.2670  1.6361  1.1817
 8484TIP3    H225417   3.309   1.398   0.279 -1.9462  0.4591 -0.6435
 8485TIP3   OH225418   0.117   3.329   1.858  0.4844 -0.7477 -0.5158
 8485TIP3    H125419   0.054   3.326   1.786 -1.0966 -0.7587  0.8195
 8485TIP3    H225420   0.132   3.237   1.880  0.1226 -0.7190 -0.1369
 8486TIP3   OH225421   1.438   4.056   5.236 -0.1382 -0.0048 -0.3565
 8486TIP3    H125422   1.473   4.139   5.204 -0.7607  0.2850 -0.3018
 8486TIP3    H225423   1.391   4.019   5.161 -0.8018  0.2275 -0.0663
 8487TIP3   OH225424   3.438   4.549   1.710 -0.1349 -0.1129 -0.6386
 8487TIP3    H125425   3.350   4.556   1.747  0.0982 -0.9499  0.0900
 8487TIP3    H225426   3.488   4.617   1.756 -0.2336 -0.0921 -0.5612
 8488TIP3   OH225427   1.318   6.449   5.777  0.2979  1.0489 -0.1199
 8488TIP3    H125428   1.409   6.441   5.807  0.0678 -1.0039  0.1328
 8488TIP3    H225429   1.266   6.449   5.857 -0.2231 -2.9634 -0.3481
 8489TIP3   OH225430   3.221   4.419   3.473  0.0471  0.0983 -0.4852
 8489TIP3    H125431   3.220   4.323   3.470  0.5355  0.0440  0.7570
 8489TIP3    H225432   3.198   4.440   3.563  1.4831  1.1240 -0.3471
 8490TIP3   OH225433   0.334   5.679   4.506 -0.0266 -0.0759  0.1934
 8490TIP3    H125434   0.314   5.613   4.439  0.0415  0.7727 -0.6724
 8490TIP3    H225435   0.314   5.636   4.589  0.5540 -1.3791 -0.3367
 8491TIP3   OH225436   1.887   4.223   4.111  0.2618 -0.4209 -0.4339
 8491TIP3    H125437   1.885   4.137   4.069  1.3795  0.4274 -2.3263
 8491TIP3    H225438   1.819   4.273   4.067  1.1690  0.3598 -0.9699
 8492TIP3   OH225439   5.293   6.475   0.059 -0.3305 -0.3612 -0.6232
 8492TIP3    H125440   5.213   6.524   0.077 -1.3314 -2.5303  1.1272
 8492TIP3    H225441   5.292   6.462  -0.036 -2.1762 -0.5190 -0.6102
 8493TIP3   OH225442   6.404   1.059   0.466  0.0525 -0.1924  0.2639
 8493TIP3    H125443   6.475   1.071   0.530  0.9074  0.0712 -0.7152
 8493TIP3    H225444   6.425   0.976   0.423 -0.7005 -0.5297  0.5470
 8494TIP3   OH225445   4.017   3.955   5.875 -0.1590 -0.0372 -0.2661
 8494TIP3    H125446   4.099   3.908   5.862  0.4246  0.4396  1.4092
 8494TIP3    H225447   4.038   4.019   5.944 -1.9749 -0.0160  0.2872
 8495TIP3   OH225448   0.667   1.448   0.627 -0.0126  0.1521 -0.0751
 8495TIP3    H125449   0.752   1.492   0.623  0.7799 -1.1981  1.3861
 8495TIP3    H225450   0.667   1.390   0.552  1.1397 -1.1749  0.9181
 8496TIP3   OH225451   5.140   2.709   2.222  0.1003 -0.2262 -0.3161
 8496TIP3    H125452   5.223   2.745   2.252 -0.7622 -0.1908  2.1656
 8496TIP3    H225453   5.149   2.614   2.234 -0.1220 -0.2465 -0.3025
 8497TIP3   OH225454   7.105   4.586   5.558  0.0448  0.2448 -0.0306
 8497TIP3    H125455   7.182   4.529   5.564  0.8324  1.3603  0.7026
 8497TIP3    H225456   7.031   4.529   5.579  0.7993 -0.5584  0.4894
 8498TIP3   OH225457   1.204   4.095   5.857  0.4743  0.5031 -0.2658
 8498TIP3    H125458   1.163   4.008   5.860  2.3960 -0.4969 -1.7084
 8498TIP3    H225459   1.151   4.148   5.916 -1.7034 -1.2316 -0.5746
 8499TIP3   OH225460   0.717   2.350   1.813 -0.2380 -0.3418  0.1406
 8499TIP3    H125461   0.768   2.278   1.851 -0.0649  0.2116  0.9627
 8499TIP3    H225462   0.665   2.384   1.887  0.0676  0.7170 -0.1307
 8500TIP3   OH225463   2.861   5.547   5.865 -0.0862  0.3754 -0.2989
 8500TIP3    H125464   2.882   5.458   5.895  2.1443  0.2727 -2.0280
 8500TIP3    H225465   2.905   5.604   5.928  1.0001  0.2202 -0.9185
 8501TIP3   OH225466   1.297   4.425   5.351 -0.9251 -0.5401  1.1204
 8501TIP3    H125467   1.236   4.499   5.356 -1.7420 -1.0542 -0.5635
 8501TIP3    H225468   1.372   4.458   5.304 -2.1409 -1.2690 -1.4360
 8502TIP3   OH225469   4.497   3.371   1.060  0.4052 -0.2836  0.0117
 8502TIP3    H125470   4.441   3.309   1.109  0.4809 -0.5753 -0.2692
 8502TIP3    H225471   4.572   3.385   1.117  1.5755 -2.3516 -0.9473
 8503TIP3   OH225472   7.043   1.863   2.409  0.3379 -0.3038  0.1565
 8503TIP3    H125473   7.042   1.956   2.385 -2.0567 -0.6493 -1.3009
 8503TIP3    H225474   7.090   1.821   2.337  1.0811 -0.2761  0.6221
 8504TIP3   OH225475   7.144   6.481   4.979  0.4096  0.3472  0.5507
 8504TIP3    H125476   7.166   6.568   5.014 -0.1373 -0.1425  2.1557
 8504TIP3    H225477   7.168   6.420   5.049  0.3175 -0.7615 -0.3704
 8505TIP3   OH225478   0.719   4.572   4.019  0.1313 -0.2240 -0.4627
 8505TIP3    H125479   0.732   4.532   3.933  1.3644 -1.1693  0.1531
 8505TIP3    H225480   0.807   4.576   4.057 -0.2452  1.2534  0.2922
 8506TIP3   OH225481   7.233   3.034   1.155 -0.2681 -0.6923  0.0776
 8506TIP3    H125482   7.225   2.941   1.134 -0.5231 -0.6634  0.0439
 8506TIP3    H225483   7.149   3.072   1.129  0.0081 -0.3680 -0.3395
 8507TIP3   OH225484   6.707   4.761   5.703  0.1423  0.2088 -0.3887
 8507TIP3    H125485   6.645   4.711   5.651 -0.4479  1.1237 -0.5699
 8507TIP3    H225486   6.711   4.714   5.787 -0.8533  0.1928 -0.3438
 8508TIP3   OH225487   1.723   5.107   5.804  0.0104 -0.0300 -0.4615
 8508TIP3    H125488   1.819   5.104   5.798  0.1506  0.7603  1.2372
 8508TIP3    H225489   1.704   5.092   5.897 -1.5878 -1.7106 -1.0386
 8509TIP3   OH225490   1.323   2.054   0.161  0.4430 -0.6073  0.0243
 8509TIP3    H125491   1.297   2.009   0.081  0.0591 -0.6582  0.1739
 8509TIP3    H225492   1.396   2.110   0.135 -0.7087  0.5698 -0.7197
 8510TIP3   OH225493   5.708   2.549   0.877  0.4450  0.4718  0.3650
 8510TIP3    H125494   5.784   2.491   0.873  1.1046  1.0860  2.9526
 8510TIP3    H225495   5.741   2.629   0.919 -0.9972  1.8360 -1.0106
 8511TIP3   OH225496   0.872   6.566   5.630 -0.1879  0.3831  0.2809
 8511TIP3    H125497   0.948   6.509   5.643 -1.3739 -1.2481  0.1740
 8511TIP3    H225498   0.865   6.616   5.711  0.8169  0.3468  0.4005
 8512TIP3   OH225499   6.694   4.558   5.954 -0.5702  0.3062  0.1446
 8512TIP3    H125500   6.638   4.588   6.026  1.1249 -0.9665  2.0162
 8512TIP3    H225501   6.656   4.474   5.928 -0.2682  0.0308  0.5902
 8513TIP3   OH225502   2.932   5.671   1.289 -0.4040 -0.1708  0.5695
 8513TIP3    H125503   2.948   5.581   1.319 -0.3330 -0.2924  0.1702
 8513TIP3    H225504   2.961   5.726   1.361  0.6661 -0.4304  0.3382
 8514TIP3   OH225505   6.091   1.016   1.076  0.1136  0.1499  0.4700
 8514TIP3    H125506   6.150   1.081   1.113  0.9463  0.0178 -0.6240
 8514TIP3    H225507   6.128   0.932   1.103  0.9316  0.0449 -0.9776
 8515TIP3   OH225508   2.120   5.574   5.978 -0.3804 -0.0998 -0.1645
 8515TIP3    H125509   2.172   5.649   6.006 -0.5485  0.2560 -0.7995
 8515TIP3    H225510   2.106   5.523   6.059  1.0228 -0.2535  0.0040
 8516TIP3   OH225511   3.178   5.674   4.553 -0.2584  0.3066 -0.0894
 8516TIP3    H125512   3.210   5.671   4.463  2.6944 -1.5885  0.9348
 8516TIP3    H225513   3.130   5.592   4.564 -0.3316  0.3798  0.1348
 8517TIP3   OH225514   7.306   3.086   0.504  0.0286 -0.0666  0.1467
 8517TIP3    H125515   7.243   3.147   0.543  0.3382 -0.0755  0.6499
 8517TIP3    H225516   7.259   3.051   0.428 -0.1308  0.8426 -0.1856
 8518TIP3   OH225517   0.641   1.002   0.852 -0.0883  0.3202 -0.5949
 8518TIP3    H125518   0.598   1.083   0.825 -0.9801  1.0198  2.6717
 8518TIP3    H225519   0.734   1.023   0.852 -0.3837  1.8641  1.5913
 8519TIP3   OH225520   3.932   6.617   4.266  0.3495  0.0523  0.3801
 8519TIP3    H125521   3.932   6.624   4.170  0.3084  0.9237  0.4318
 8519TIP3    H225522   3.869   6.547   4.285 -1.6501  1.6310 -0.1511
 8520TIP3   OH225523   6.375   0.461   1.910  0.4093  0.3007  0.4788
 8520TIP3    H125524   6.351   0.423   1.994 -3.4422 -0.8999 -1.0744
 8520TIP3    H225525   6.305   0.524   1.891  1.1951  0.5429 -1.8195
 8521TIP3   OH225526   1.655   2.957   0.213  0.1755 -0.9458  0.3634
 8521TIP3    H125527   1.589   2.941   0.146 -0.3785  1.2801  0.3221
 8521TIP3    H225528   1.726   3.001   0.166  0.9455 -1.7652  0.7419
 8522TIP3   OH225529   6.119   1.817   0.312 -0.2692  0.1426  0.9088
 8522TIP3    H125530   6.193   1.857   0.358  0.8839  0.0488 -0.8258
 8522TIP3    H225531   6.088   1.886   0.253  1.5354 -1.3609 -1.8753
 8523TIP3   OH225532   3.138   6.734   2.114 -0.2714 -0.2400 -0.8494
 8523TIP3    H125533   3.190   6.811   2.089 -0.4198  0.6122  1.3302
 8523TIP3    H225534   3.085   6.765   2.188 -1.1753 -2.1351 -0.6931
 8524TIP3   OH225535   6.942   3.621   0.682  0.6405  0.5320  0.0133
 8524TIP3    H125536   7.034   3.617   0.708  0.5178  1.9083  0.7147
 8524TIP3    H225537   6.921   3.531   0.655  1.5082 -0.3738  2.2016
 8525TIP3   OH225538   7.329   2.186   1.988 -0.0722 -0.0136  0.2364
 8525TIP3    H125539   7.280   2.260   2.023  0.3115 -0.2803  1.3667
 8525TIP3    H225540   7.412   2.224   1.960 -0.8734  0.4186 -1.5716
 8526TIP3   OH225541   2.688   6.188   0.511 -0.4397 -0.1206 -0.0886
 8526TIP3    H125542   2.745   6.133   0.565 -0.7705 -0.1794  0.2036
 8526TIP3    H225543   2.722   6.178   0.423 -0.2437 -0.4770  0.0249
 8527TIP3   OH225544   4.168   6.559   0.963 -0.3436 -0.0157 -0.2396
 8527TIP3    H125545   4.256   6.574   0.998 -0.8723 -0.5684  1.3514
 8527TIP3    H225546   4.181   6.547   0.869  0.8559  3.6535 -0.5997
 8528TIP3   OH225547   5.424   4.137   1.021  0.2208 -0.2670 -0.4204
 8528TIP3    H125548   5.344   4.182   1.046  0.8517  0.0732  1.0425
 8528TIP3    H225549   5.461   4.191   0.951 -0.1440  0.3192 -0.1682
 8529TIP3   OH225550   0.626   0.294   0.333  0.2961  0.2050  0.0740
 8529TIP3    H125551   0.600   0.358   0.400 -0.4405  0.1456 -0.1522
 8529TIP3    H225552   0.699   0.247   0.373 -0.5151 -0.2370  1.0852
 8530TIP3   OH225553   5.507   1.624  -0.019 -0.1030  0.3404 -0.2365
 8530TIP3    H125554   5.416   1.615  -0.048  0.1470 -0.6505 -0.7421
 8530TIP3    H225555   5.501   1.650   0.073 -0.9042 -0.6579  0.0011
 8531TIP3   OH225556   7.317   1.657   1.667 -0.6548  0.1829  0.3466
 8531TIP3    H125557   7.387   1.701   1.619 -0.3079  0.6158  1.2383
 8531TIP3    H225558   7.237   1.678   1.619 -0.9228  4.2410  2.3293
 8532TIP3   OH225559   0.948   5.274   5.550  0.1358  0.3510  0.0684
 8532TIP3    H125560   1.013   5.318   5.605  1.0465 -2.1470  1.0778
 8532TIP3    H225561   0.999   5.239   5.476 -0.6585  1.4208 -1.0128
 8533TIP3   OH225562   6.520   2.012   2.593  0.5775 -0.0947  0.2421
 8533TIP3    H125563   6.445   1.953   2.589  1.0378 -0.6458 -0.6056
 8533TIP3    H225564   6.578   1.981   2.523  0.7328  1.5000 -0.3449
 8534TIP3   OH225565   6.624   0.628   0.349  0.1433 -0.0511  0.2560
 8534TIP3    H125566   6.576   0.671   0.420  0.3012  0.4450  0.0690
 8534TIP3    H225567   6.663   0.701   0.300 -0.7767 -0.3396 -0.9183
 8535TIP3   OH225568   5.715   6.968   0.755  0.4039  0.1114  0.0338
 8535TIP3    H125569   5.627   7.003   0.738 -0.7664 -2.9525 -0.4647
 8535TIP3    H225570   5.718   6.957   0.850  0.7018  1.3052  0.1729
 8536TIP3   OH225571   5.815   4.183   0.387 -0.0869  0.2888 -0.2325
 8536TIP3    H125572   5.845   4.171   0.477 -1.0210  1.3633  0.2264
 8536TIP3    H225573   5.875   4.129   0.334  1.1365  0.5215  0.9053
 8537TIP3   OH225574   4.392   1.001   0.808 -0.1530 -0.2489 -0.1703
 8537TIP3    H125575   4.427   1.072   0.754  2.1836 -0.3606  1.1564
 8537TIP3    H225576   4.334   1.045   0.870  0.1589  0.3338 -0.2880
 8538TIP3   OH225577   6.705   2.695   1.870 -0.5124 -0.4356  0.1176
 8538TIP3    H125578   6.690   2.736   1.785  0.2536  1.0923  0.7073
 8538TIP3    H225579   6.756   2.616   1.850  0.3024  0.3095 -0.7673
 8539TIP3   OH225580   3.964   5.611   1.494  0.5131 -0.0085 -0.3576
 8539TIP3    H125581   3.964   5.706   1.494  0.9134 -0.0062  0.2853
 8539TIP3    H225582   3.918   5.587   1.413  0.1625  0.7221 -0.3768
 8540TIP3   OH225583   0.485   1.319   1.512 -0.5097  0.5183 -0.2814
 8540TIP3    H125584   0.426   1.286   1.580 -0.4765  2.3488  0.6641
 8540TIP3    H225585   0.432   1.380   1.461  0.1238  0.9366 -0.4496
 8541TIP3   OH225586   1.201   6.747   1.250  0.1691  0.1333 -0.0065
 8541TIP3    H125587   1.258   6.797   1.308 -1.3513  1.8974 -0.0097
 8541TIP3    H225588   1.261   6.689   1.202  1.9422  1.8370  0.0956
 8542TIP3   OH225589   3.323   5.744   1.688 -0.0941 -0.4259 -0.5039
 8542TIP3    H125590   3.292   5.673   1.632 -2.4482 -1.6159  2.1935
 8542TIP3    H225591   3.401   5.707   1.731  0.5483 -0.2165 -1.4742
 8543TIP3   OH225592   3.760   6.048   3.830 -0.9248  0.0152 -0.4112
 8543TIP3    H125593   3.727   6.073   3.744 -0.5413 -2.4109 -1.3066
 8543TIP3    H225594   3.856   6.051   3.821 -0.8559 -2.3954 -0.7742
 8544TIP3   OH225595   0.744   1.340   0.111  0.0805 -0.1960  0.2132
 8544TIP3    H125596   0.710   1.319   0.024  2.0852 -0.1294 -0.6235
 8544TIP3    H225597   0.832   1.374   0.094  0.6601 -0.5990  2.3104
 8545TIP3   OH225598   0.183   2.073   2.131 -0.5397  0.3473 -0.8401
 8545TIP3    H125599   0.095   2.082   2.093 -1.5589 -0.4956  1.2714
 8545TIP3    H225600   0.192   1.979   2.148 -0.2489  0.7556  1.3310
 8546TIP3   OH225601   1.567   1.004   0.180  0.1765  0.0258 -0.1236
 8546TIP3    H125602   1.599   0.956   0.257 -2.3544 -2.7022 -0.6648
 8546TIP3    H225603   1.472   1.003   0.190 -0.1355  0.5497 -2.7688
 8547TIP3   OH225604   4.594   4.589   4.867 -0.4482  0.3890  0.3247
 8547TIP3    H125605   4.507   4.627   4.880 -0.2347  0.7550  0.7041
 8547TIP3    H225606   4.633   4.589   4.955 -0.1087  0.1238  0.1735
 8548TIP3   OH225607   1.685   1.721   2.813  0.4505 -0.4156 -0.4205
 8548TIP3    H125608   1.676   1.688   2.724 -1.5006 -3.2567  0.7589
 8548TIP3    H225609   1.595   1.737   2.842  0.8786 -1.9928  1.9058
 8549TIP3   OH225610   5.374   4.740   5.765 -0.2934  0.7111 -0.3887
 8549TIP3    H125611   5.342   4.650   5.768  0.3073  0.4628 -1.3059
 8549TIP3    H225612   5.402   4.759   5.854 -3.0436  0.9637  0.4782
 8550TIP3   OH225613   7.280   1.544   0.052 -0.4359 -0.5433 -0.1636
 8550TIP3    H125614   7.186   1.560   0.053  0.1910  3.6157 -0.4556
 8550TIP3    H225615   7.309   1.558   0.142 -0.1420 -2.5785  0.0968
 8551TIP3   OH225616   2.632   5.978   5.053  0.3487  0.2371  0.3379
 8551TIP3    H125617   2.680   5.906   5.093  0.1145 -0.7695 -1.1659
 8551TIP3    H225618   2.570   5.936   4.994  0.1841  1.6567 -0.5289
 8552TIP3   OH225619   2.969   5.242   4.989 -0.4306  0.6317  0.6695
 8552TIP3    H125620   3.057   5.207   5.004  0.0508  1.4636 -0.1212
 8552TIP3    H225621   2.912   5.189   5.044  0.5349 -0.0967  0.9839
 8553TIP3   OH225622   2.363   6.393   3.801 -0.6165 -0.0706  0.4887
 8553TIP3    H125623   2.298   6.343   3.850  0.1276 -0.6597  0.8956
 8553TIP3    H225624   2.362   6.354   3.713  0.7314 -1.5440  1.1084
 8554TIP3   OH225625   3.269   4.661   5.346  0.3586  0.0746  0.0121
 8554TIP3    H125626   3.293   4.599   5.415 -1.4510  0.3934  0.9725
 8554TIP3    H225627   3.205   4.719   5.387 -2.2567 -0.9220 -2.4533
 8555TIP3   OH225628   4.615   4.187   4.147 -0.3073 -0.5792  0.5050
 8555TIP3    H125629   4.614   4.162   4.240  0.4666  0.4619  0.8114
 8555TIP3    H225630   4.523   4.206   4.127 -0.4696 -0.7283  1.0815
 8556TIP3   OH225631   2.729   2.507   2.137  0.0124 -0.5011 -0.1527
 8556TIP3    H125632   2.688   2.421   2.138 -0.6719 -0.1779 -0.2657
 8556TIP3    H225633   2.680   2.558   2.201  1.0638 -0.4868  0.6661
 8557TIP3   OH225634   0.363   3.476   3.067 -0.0563 -0.3922 -0.0760
 8557TIP3    H125635   0.326   3.424   3.138  0.6119  0.3638  0.8462
 8557TIP3    H225636   0.301   3.547   3.053 -0.1554 -0.5037 -0.2007
 8558TIP3   OH225637   0.445   2.379   0.458 -0.1508  0.3095 -0.4924
 8558TIP3    H125638   0.535   2.401   0.483 -0.0342 -0.7370 -0.0004
 8558TIP3    H225639   0.391   2.412   0.530 -0.0161 -0.5262  0.0023
 8559TIP3   OH225640   1.294   0.368   0.443 -0.9330 -0.1756  0.1389
 8559TIP3    H125641   1.265   0.412   0.523  1.3513  0.6107  0.5722
 8559TIP3    H225642   1.357   0.429   0.404 -0.4973 -1.4560 -1.1910
 8560TIP3   OH225643   5.105   0.710   3.055 -0.0561 -0.4777  0.1910
 8560TIP3    H125644   5.068   0.756   2.979 -0.1798  1.1399  1.1983
 8560TIP3    H225645   5.186   0.672   3.023 -0.0527  0.2871 -0.7398
 8561TIP3   OH225646   5.684   5.470   5.780  0.1787  0.7506  0.1071
 8561TIP3    H125647   5.644   5.413   5.715  2.0858  0.8397 -1.1763
 8561TIP3    H225648   5.645   5.443   5.863 -2.5406  0.8756 -1.0854
 8562TIP3   OH225649   1.978   3.074   0.434 -0.6590  0.0004 -0.1691
 8562TIP3    H125650   2.015   3.030   0.510 -0.1129 -2.9338 -2.0501
 8562TIP3    H225651   2.028   3.155   0.427  0.9796 -0.8568  1.1544
 8563TIP3   OH225652   1.753   2.054   0.027 -0.2682  0.3651  0.5822
 8563TIP3    H125653   1.684   1.989   0.037 -0.7804  1.1952  2.7233
 8563TIP3    H225654   1.749   2.105   0.107  1.5007  1.7220 -0.1694
 8564TIP3   OH225655   1.455   1.627   0.423  0.2996  0.3572  0.1542
 8564TIP3    H125656   1.479   1.691   0.357 -0.1439 -0.0527 -0.4155
 8564TIP3    H225657   1.379   1.582   0.386 -1.5252  1.8144  2.0165
 8565TIP3   OH225658   3.826   5.278   5.398  0.2872  0.0039  0.3139
 8565TIP3    H125659   3.892   5.285   5.329 -0.0806  0.4310  0.0063
 8565TIP3    H225660   3.858   5.336   5.467  2.4286 -3.0047  1.9515
 8566TIP3   OH225661   0.650   0.372   0.984 -0.1533  0.3123  0.1813
 8566TIP3    H125662   0.621   0.287   1.018  0.1884 -0.1782 -0.7504
 8566TIP3    H225663   0.702   0.409   1.056 -0.8475  0.0307  0.8456
 8567TIP3   OH225664   2.251   2.394   0.776  0.2549  0.0288  0.0118
 8567TIP3    H125665   2.230   2.331   0.846 -0.2717 -0.3267 -0.4662
 8567TIP3    H225666   2.210   2.475   0.805 -1.4972 -0.5669 -0.7364
 8568TIP3   OH225667   0.526   1.198   1.271  0.4355 -0.4522 -0.0436
 8568TIP3    H125668   0.529   1.220   1.364  0.4884  1.2499 -0.4382
 8568TIP3    H225669   0.560   1.109   1.267 -0.8820 -1.0847  1.7264
 8569TIP3   OH225670   3.557   5.269   5.015  0.9724  0.6134 -0.5363
 8569TIP3    H125671   3.536   5.235   5.102 -0.7857 -0.0981 -1.2057
 8569TIP3    H225672   3.609   5.347   5.031  0.9524  0.2955  1.1421
 8570TIP3   OH225673   2.605   2.184   0.648 -0.4396  0.0193  0.1745
 8570TIP3    H125674   2.515   2.181   0.679 -0.8377  0.8247 -0.8385
 8570TIP3    H225675   2.658   2.194   0.727 -1.1969 -0.9209  0.8128
 8571TIP3   OH225676   1.663   1.973   4.825  0.1901 -0.0303  0.4238
 8571TIP3    H125677   1.661   2.001   4.917  0.6425 -1.8917  1.0310
 8571TIP3    H225678   1.751   1.938   4.813  0.5344  1.2759 -1.0850
 8572TIP3   OH225679   5.835   5.184   5.997 -0.0301 -0.1688 -0.2391
 8572TIP3    H125680   5.809   5.258   6.052 -0.3053 -0.6970  0.3470
 8572TIP3    H225681   5.929   5.174   6.014  0.0395  0.1425 -0.4346
 8573TIP3   OH225682   3.555   5.815   5.632  0.4326  0.2003 -0.5128
 8573TIP3    H125683   3.501   5.892   5.620 -0.1846  0.2272  2.0682
 8573TIP3    H225684   3.614   5.814   5.557 -1.5180  1.5153 -2.1010
 8574TIP3   OH225685   2.723   1.570   0.762  0.2941 -0.4220 -0.4006
 8574TIP3    H125686   2.675   1.605   0.686  2.0281 -0.7331 -1.6551
 8574TIP3    H225687   2.768   1.646   0.799 -1.5271 -0.0302  1.0889
 8575TIP3   OH225688   5.081   1.169   0.090  0.5104  0.3242  0.4366
 8575TIP3    H125689   5.078   1.167   0.186 -0.6081  1.5707  0.4336
 8575TIP3    H225690   4.990   1.177   0.063  0.9105  1.1203 -0.7083
 8576TIP3   OH225691   0.108   1.542   0.234  0.3616  0.2620 -0.3159
 8576TIP3    H125692   0.175   1.601   0.268 -1.1176  2.0841 -0.5251
 8576TIP3    H225693   0.083   1.488   0.308 -0.3370  1.8463  0.6134
 8577TIP3   OH225694   2.201   1.071   1.847 -0.4688  0.2152 -0.0828
 8577TIP3    H125695   2.274   1.040   1.795 -0.3590  0.7709 -0.2653
 8577TIP3    H225696   2.154   1.132   1.790 -3.0321 -2.6640 -1.1600
 8578TIP3   OH225697   2.605   1.628   1.668 -0.1279 -0.1102  0.3697
 8578TIP3    H125698   2.542   1.603   1.601  1.1395 -2.0657 -0.1324
 8578TIP3    H225699   2.575   1.584   1.747 -0.6763  0.8409  0.7027
 8579TIP3   OH225700   5.855   4.756   4.186  0.3755 -0.5077 -0.1407
 8579TIP3    H125701   5.819   4.680   4.140 -1.5352 -1.0901  2.2075
 8579TIP3    H225702   5.913   4.719   4.252  0.7592  0.1577 -0.1045
 8580TIP3   OH225703   6.262   3.532   0.252  0.0262 -0.1440 -0.0155
 8580TIP3    H125704   6.237   3.586   0.178 -0.5525  0.5158  0.6474
 8580TIP3    H225705   6.226   3.578   0.328 -0.0728 -1.2204  0.5981
 8581TIP3   OH225706   0.036   2.883   0.138  0.0823 -0.6758  0.1714
 8581TIP3    H125707   0.018   2.848   0.051 -1.1685  0.4130 -0.0228
 8581TIP3    H225708   0.122   2.925   0.130  0.7827 -2.1211 -0.0483
 8582TIP3   OH225709   2.484   5.269   4.582 -0.3700 -0.3565  0.2399
 8582TIP3    H125710   2.427   5.346   4.585 -0.4480 -0.3904 -0.4134
 8582TIP3    H225711   2.519   5.263   4.671 -0.6022  0.2529  0.3803
 8583TIP3   OH225712   4.936   3.564   4.030  0.0661  0.4158  0.6482
 8583TIP3    H125713   4.857   3.570   4.085 -1.3885  1.0350 -1.4448
 8583TIP3    H225714   5.000   3.518   4.085 -1.3913  0.8437  2.7837
 8584TIP3   OH225715   7.036   1.279   0.374 -0.0255  0.3643 -0.3477
 8584TIP3    H125716   7.056   1.311   0.461 -3.1712  2.3226 -0.2794
 8584TIP3    H225717   6.997   1.193   0.389 -1.7324  1.2386  0.2805
 8585TIP3   OH225718   5.567   5.062   4.433  0.2477 -0.0001  0.2963
 8585TIP3    H125719   5.569   5.103   4.519 -2.2454  1.6807 -0.3785
 8585TIP3    H225720   5.634   4.994   4.437  1.3309  1.1561  2.9819
 8586TIP3   OH225721   3.023   5.728   5.410 -0.3612  0.3216  0.1000
 8586TIP3    H125722   3.059   5.814   5.391  0.1238 -0.2259 -1.5681
 8586TIP3    H225723   2.968   5.708   5.334  0.7770 -1.4879 -0.2851
 8587TIP3   OH225724   4.255   6.136   3.642  0.8235 -0.1192  0.2442
 8587TIP3    H125725   4.272   6.226   3.669 -0.7711 -0.1125  1.2990
 8587TIP3    H225726   4.174   6.112   3.687  1.0877 -1.9982 -0.2229
 8588TIP3   OH225727   1.024   1.550   1.070  0.4935 -0.1023  0.3719
 8588TIP3    H125728   1.041   1.611   1.141  1.9145  0.6520 -0.5999
 8588TIP3    H225729   0.962   1.596   1.013 -0.0702 -0.4092  0.7377
 8589TIP3   OH225730   6.651   3.701   5.899  0.6285 -0.5939 -0.2136
 8589TIP3    H125731   6.616   3.782   5.862  1.7100 -0.8182 -1.7695
 8589TIP3    H225732   6.720   3.674   5.839 -0.0222 -2.9302  0.0131
 8590TIP3   OH225733   2.071   4.359   5.686  0.3276 -0.1104 -0.1931
 8590TIP3    H125734   2.116   4.442   5.701  0.7171 -0.1362 -1.2056
 8590TIP3    H225735   1.985   4.370   5.727  0.4538  0.7062 -0.1452
 8591TIP3   OH225736   3.243   6.810   4.387 -0.1544  0.1381  0.2214
 8591TIP3    H125737   3.334   6.781   4.398  0.5516  2.3593  0.6993
 8591TIP3    H225738   3.247   6.868   4.311 -1.4896 -0.9423 -0.6921
 8592TIP3   OH225739   3.593   6.522   4.547 -0.1394  0.0013  0.3313
 8592TIP3    H125740   3.520   6.473   4.584 -2.7681  3.7446  0.3630
 8592TIP3    H225741   3.614   6.476   4.465 -2.4189 -1.2470  0.4117
 8593TIP3   OH225742   2.539   4.282   5.682 -0.1027  0.0626  0.1271
 8593TIP3    H125743   2.533   4.329   5.765 -0.2467  0.1525  0.0660
 8593TIP3    H225744   2.465   4.314   5.631  0.1246  0.1844 -0.1277
 8594TIP3   OH225745   4.366   6.017   4.933  0.5518 -0.3267  0.5619
 8594TIP3    H125746   4.404   6.002   4.846 -1.0641 -1.6915  0.0654
 8594TIP3    H225747   4.440   6.046   4.987  1.4581  1.1425 -1.4182
 8595TIP3   OH225748   2.618   2.118   1.819  0.2444  0.0130 -0.0068
 8595TIP3    H125749   2.546   2.131   1.757  0.9446 -0.0295 -0.8343
 8595TIP3    H225750   2.695   2.155   1.776  0.8660 -0.5877  0.5695
 8596TIP3   OH225751   2.613   5.004   5.542 -0.2754 -0.4100 -0.9855
 8596TIP3    H125752   2.523   4.991   5.511 -0.8736  0.3061  0.4185
 8596TIP3    H225753   2.646   5.076   5.489 -0.8744 -0.0183 -0.8367
 8597TIP3   OH225754   3.027   5.581   3.767 -0.1895 -0.2464  0.3025
 8597TIP3    H125755   3.031   5.643   3.695  0.7619 -1.5303 -0.7735
 8597TIP3    H225756   2.998   5.499   3.727 -0.1097 -0.8477  1.4501
 8598TIP3   OH225757   3.328   5.952   4.420 -0.1913 -0.2601  0.2819
 8598TIP3    H125758   3.374   5.913   4.346  0.7048  0.1648  0.6111
 8598TIP3    H225759   3.338   5.888   4.491  0.1696 -0.0318  0.4421
 8599TIP3   OH225760   2.637   5.153   4.394 -0.4484  0.4937  0.1607
 8599TIP3    H125761   2.564   5.194   4.439 -0.0724  0.2913  0.9577
 8599TIP3    H225762   2.700   5.132   4.463  0.3567  0.6503 -0.5141
 8600TIP3   OH225763   0.411   1.471   0.990 -0.2870  0.2613  0.9810
 8600TIP3    H125764   0.500   1.502   1.004  1.1839 -3.3808  0.1104
 8600TIP3    H225765   0.413   1.378   1.013 -3.4788 -0.2645 -0.4904
 8601TIP3   OH225766   0.715   1.386   1.637 -0.2421  0.0092  0.3115
 8601TIP3    H125767   0.665   1.361   1.715 -0.4796 -0.3713  0.0369
 8601TIP3    H225768   0.649   1.390   1.567  0.0098  0.1217  0.0804
 8602TIP3   OH225769   6.063   2.941   1.681  0.3693  0.1457  0.5739
 8602TIP3    H125770   6.059   3.036   1.671  2.2131  0.0981 -0.9117
 8602TIP3    H225771   6.104   2.911   1.600  0.0862 -1.8901  1.1731
 8603TIP3   OH225772   7.155   1.349   0.652  0.2608 -0.6630  0.2698
 8603TIP3    H125773   7.093   1.300   0.707 -1.0011 -0.6626 -1.1261
 8603TIP3    H225774   7.241   1.320   0.682 -0.3538  0.3036  3.1343
 8604TIP3   OH225775   2.015   0.099   1.269  0.0253 -0.1710  0.4749
 8604TIP3    H125776   2.099   0.059   1.290  1.0402  2.3942  1.5529
 8604TIP3    H225777   1.957   0.070   1.339  0.1986 -1.3861  0.1159
 8605TIP3   OH225778   2.130   5.182   5.113  0.5321  0.2017 -0.0657
 8605TIP3    H125779   2.151   5.107   5.058  0.7853 -1.0651  1.7279
 8605TIP3    H225780   2.044   5.163   5.149  0.4699  0.9116  0.1760
 8606TIP3   OH225781   3.292   4.862   4.456  0.3169  0.0015  0.4060
 8606TIP3    H125782   3.322   4.792   4.515  0.1307 -0.2618  0.1914
 8606TIP3    H225783   3.341   4.939   4.484  0.1252 -0.0845  1.0044
 8607TIP3   OH225784   5.827   6.918   1.331  0.0000  0.2345  0.3839
 8607TIP3    H125785   5.781   6.954   1.407  1.4704  1.6451  0.6287
 8607TIP3    H225786   5.916   6.902   1.362  0.1711 -0.8119 -0.5790
 8608TIP3   OH225787   3.928   6.530   3.976 -0.2467  0.0515  0.2562
 8608TIP3    H125788   3.846   6.566   3.940  0.9925  1.2325 -1.4476
 8608TIP3    H225789   3.964   6.477   3.905  1.3421  0.9630  0.3662
 8609TIP3   OH225790   1.185   0.794   0.022  0.3761 -0.1970 -0.2430
 8609TIP3    H125791   1.125   0.798   0.097  2.7732  0.0061  1.7370
 8609TIP3    H225792   1.208   0.702   0.014  0.2364 -0.1989 -0.6342
 8610TIP3   OH225793   4.100   5.686   4.373 -0.5733 -0.0648  0.8361
 8610TIP3    H125794   4.133   5.687   4.284  0.1740  0.6765  1.1125
 8610TIP3    H225795   4.023   5.630   4.370  1.3652 -2.7781  0.4026
 8611TIP3   OH225796   4.843   4.241   4.002  0.1822 -0.0408  0.1983
 8611TIP3    H125797   4.850   4.335   3.985 -1.4228  0.0011 -0.2906
 8611TIP3    H225798   4.749   4.226   4.016  0.1742 -1.8849 -1.6215
 8612TIP3   OH225799   0.380   1.219   1.055  0.3077  0.4212  0.2516
 8612TIP3    H125800   0.413   1.203   1.143 -1.2441 -0.2340  0.7356
 8612TIP3    H225801   0.319   1.147   1.039  0.3150  0.7342 -1.2202
 8613TIP3   OH225802   2.078   3.223   4.054 -0.8516 -0.1060 -0.2693
 8613TIP3    H125803   1.991   3.262   4.042 -2.2102 -1.6203  3.8031
 8613TIP3    H225804   2.118   3.275   4.124  0.1558 -1.5359  0.2383
 8614TIP3   OH225805   6.076   1.632   0.776  0.0980 -0.3168 -0.0887
 8614TIP3    H125806   6.005   1.584   0.820 -1.4189 -0.0575 -2.2030
 8614TIP3    H225807   6.035   1.670   0.699  2.2675  0.9320 -0.6586
 8615TIP3   OH225808   0.475   4.379   5.343  0.3315 -0.0093  0.4140
 8615TIP3    H125809   0.535   4.447   5.312  2.0294 -2.2918 -1.5071
 8615TIP3    H225810   0.497   4.368   5.435  1.7957  0.2947  0.1209
 8616TIP3   OH225811   4.176   6.754   4.759  0.2101  0.5710  0.7748
 8616TIP3    H125812   4.271   6.738   4.753  0.4195  1.4440  1.7702
 8616TIP3    H225813   4.139   6.695   4.693  1.6047  1.7672 -1.1509
 8617TIP3   OH225814   0.547   4.812   6.057  0.1261  0.6809 -0.4292
 8617TIP3    H125815   0.542   4.816   5.962  2.2020 -0.0287 -0.5990
 8617TIP3    H225816   0.602   4.887   6.081 -1.5556  1.6925  0.3406
 8618TIP3   OH225817   1.833   0.486   1.533 -0.4127  0.0367  0.0760
 8618TIP3    H125818   1.870   0.524   1.453 -0.5163  0.3473  0.1763
 8618TIP3    H225819   1.900   0.426   1.565 -0.2966  0.0499 -0.1429
 8619TIP3   OH225820   1.732   4.489   5.500  0.2016  0.4072 -0.4822
 8619TIP3    H125821   1.756   4.527   5.415  0.8009  1.3847  0.1151
 8619TIP3    H225822   1.649   4.533   5.523 -0.6496 -0.8172 -1.1673
 8620TIP3   OH225823   1.853   0.419   0.026  0.1553 -0.1494 -0.3941
 8620TIP3    H125824   1.804   0.410   0.108  0.5434 -0.0320 -0.1492
 8620TIP3    H225825   1.931   0.366   0.039  0.3697  0.1228 -0.5720
 8621TIP3   OH225826   2.345   4.006   5.205 -0.3965  0.2865 -0.0260
 8621TIP3    H125827   2.312   4.092   5.232  0.1383  0.8807 -1.2322
 8621TIP3    H225828   2.438   4.008   5.227 -0.4466 -0.0873  0.2118
 8622TIP3   OH225829   6.611   0.451   5.910 -0.0896  0.3315 -0.2565
 8622TIP3    H125830   6.698   0.491   5.910  0.0858 -0.0173 -1.4506
 8622TIP3    H225831   6.551   0.523   5.897 -0.1277  0.8246  2.4208
 8623TIP3   OH225832   0.040   3.510   0.673 -0.0735 -1.1520 -0.0021
 8623TIP3    H125833   0.075   3.424   0.651 -1.5559 -1.5631 -0.8500
 8623TIP3    H225834   0.049   3.562   0.593 -1.9416 -1.4610 -0.4322
 8624TIP3   OH225835   0.487   2.701   1.823  1.0737  0.1288 -0.9510
 8624TIP3    H125836   0.462   2.660   1.906  0.0986  0.9215 -0.8426
 8624TIP3    H225837   0.519   2.788   1.849  2.1879 -0.1824 -1.2688
 8625TIP3   OH225838   2.946   3.895   5.694 -0.1279  0.1731  0.5669
 8625TIP3    H125839   2.908   3.832   5.754 -0.6548  0.8338  0.9428
 8625TIP3    H225840   2.891   3.973   5.704 -0.4745  0.1707 -1.0444
 8626TIP3   OH225841   7.387   2.214   0.985  0.0912  0.2394 -0.1918
 8626TIP3    H125842   7.406   2.253   0.900 -2.5182  0.5727 -0.6579
 8626TIP3    H225843   7.368   2.289   1.042 -1.7518 -0.1607 -0.2640
 8627TIP3   OH225844   2.531   4.996   5.890  0.3924 -0.3733 -0.1894
 8627TIP3    H125845   2.463   5.020   5.954 -0.9981  0.9430 -2.0970
 8627TIP3    H225846   2.594   5.067   5.895  1.7018 -1.6101  1.6030
 8628TIP3   OH225847   3.998   6.217   5.058 -0.1108  0.5888 -0.6222
 8628TIP3    H125848   4.015   6.201   4.965  0.2776 -1.3735 -0.2399
 8628TIP3    H225849   4.083   6.204   5.100 -0.4704  0.6159  0.1209
 8629TIP3   OH225850   6.168   1.056   0.615  0.1226 -0.1902  0.1986
 8629TIP3    H125851   6.240   1.082   0.558  0.1446  1.1134  0.7974
 8629TIP3    H225852   6.186   0.965   0.637 -0.2262 -0.8909 -2.3520
 8630TIP3   OH225853   2.005   0.589   0.347  0.0498 -0.2643 -0.2995
 8630TIP3    H125854   1.938   0.542   0.298  0.5664  1.0364 -2.3394
 8630TIP3    H225855   2.028   0.531   0.419 -1.5195 -1.7694 -0.9873
 8631TIP3   OH225856   4.409   4.430   5.530 -0.2961 -0.0298  0.2386
 8631TIP3    H125857   4.416   4.340   5.562 -1.8171 -0.1983  0.1584
 8631TIP3    H225858   4.315   4.445   5.523 -0.0434  1.5008  0.0383
 8632TIP3   OH225859   1.958   1.487   0.689 -0.0693  0.2259 -0.1357
 8632TIP3    H125860   1.976   1.488   0.595 -1.8469  0.4286 -0.4979
 8632TIP3    H225861   1.995   1.405   0.720 -0.9344 -0.6446 -1.3354
 8633TIP3   OH225862   3.393   4.186   3.825 -0.3414 -0.0949 -0.2363
 8633TIP3    H125863   3.448   4.141   3.889 -0.4046 -0.7337 -0.6269
 8633TIP3    H225864   3.443   4.264   3.801 -0.7011  0.5945  1.2333
 8634TIP3   OH225865   6.104   1.076   1.757  0.2486 -0.7078  0.3322
 8634TIP3    H125866   6.073   1.123   1.834  1.6332 -0.3341  0.6885
 8634TIP3    H225867   6.157   1.141   1.710  0.1386 -1.1932 -0.4626
 8635TIP3   OH225868   1.251   2.095   0.899 -0.2336 -0.0129  0.5282
 8635TIP3    H125869   1.197   2.090   0.819 -1.1855  1.9366  0.9916
 8635TIP3    H225870   1.341   2.088   0.868 -0.5875  0.8970 -0.7627
 8636TIP3   OH225871   6.634   4.119   2.575  0.5267  0.6766 -0.8961
 8636TIP3    H125872   6.661   4.173   2.501 -0.8536  0.4414 -1.5896
 8636TIP3    H225873   6.615   4.033   2.536 -0.2349  0.5589 -0.2668
 8637TIP3   OH225874   4.451   4.017   5.862 -0.8554  0.3290 -0.3629
 8637TIP3    H125875   4.437   3.928   5.830 -0.2288  0.3362 -0.6558
 8637TIP3    H225876   4.387   4.027   5.933  1.6316 -1.6368  2.2249
 8638TIP3   OH225877   1.687   0.909   0.936 -0.0697  0.0798  0.2106
 8638TIP3    H125878   1.733   0.830   0.908  0.1816  0.0447  0.7173
 8638TIP3    H225879   1.594   0.889   0.925 -0.0162 -0.3717  0.5694
 8639TIP3   OH225880   3.311   6.546   3.919 -0.0341  0.0306  0.6298
 8639TIP3    H125881   3.332   6.638   3.901 -1.3650  0.2244  0.0046
 8639TIP3    H225882   3.218   6.538   3.897 -0.2680 -1.1435  1.9859
 8640TIP3   OH225883   2.021   0.838   1.051  0.2018  0.4547  0.2959
 8640TIP3    H125884   1.945   0.782   1.039  0.1365  0.2409  1.6080
 8640TIP3    H225885   2.075   0.823   0.973 -0.0832 -1.0042  0.3663
 8641TIP3   OH225886   7.218   0.859   0.056  0.3591 -0.1092 -0.4523
 8641TIP3    H125887   7.198   0.854   0.149 -0.3317  1.2576 -0.5089
 8641TIP3    H225888   7.136   0.833   0.013  0.3984  0.1537 -0.6835
 8642TIP3   OH225889   2.195   4.768   4.999 -0.0347  0.8129 -0.6857
 8642TIP3    H125890   2.146   4.690   4.973  0.8352  0.5007 -1.4099
 8642TIP3    H225891   2.282   4.755   4.962  0.7144  1.1957  0.8917
 8643TIP3   OH225892   3.572   6.492   4.090 -0.1683  0.5104 -0.1371
 8643TIP3    H125893   3.541   6.419   4.036  1.6487 -0.5557  0.2255
 8643TIP3    H225894   3.494   6.522   4.137 -0.7368 -1.8442  0.4685
 8644TIP3   OH225895   0.350   0.102   1.287 -0.3168 -0.1292  0.1371
 8644TIP3    H125896   0.426   0.106   1.229 -0.7075  1.4575 -0.2959
 8644TIP3    H225897   0.288   0.165   1.250 -1.7617 -1.2389  0.6058
 8645TIP3   OH225898   3.328   5.378   5.439  0.2621  0.2670  0.2820
 8645TIP3    H125899   3.294   5.427   5.514  0.7048  0.5003  0.3362
 8645TIP3    H225900   3.269   5.399   5.367  0.1165  0.4253  0.4471
 8646TIP3   OH225901   2.247   4.684   4.659  0.5127 -0.6159  0.3240
 8646TIP3    H125902   2.299   4.664   4.581 -0.8714 -1.4835 -0.3883
 8646TIP3    H225903   2.284   4.628   4.727  0.3621 -1.4191 -0.2425
 8647TIP3   OH225904   4.282   4.830   5.968 -0.2864 -0.2158  0.4436
 8647TIP3    H125905   4.221   4.884   5.917  1.9094  1.1870 -0.7793
 8647TIP3    H225906   4.360   4.824   5.913  0.3632 -2.7614  1.5781
 8648TIP3   OH225907   0.785   0.644   5.766  0.4269 -0.2635 -0.2080
 8648TIP3    H125908   0.782   0.712   5.833  2.0282  0.1619 -0.5368
 8648TIP3    H225909   0.714   0.665   5.706  0.8764  1.0921 -0.2716
 8649TIP3   OH225910   1.895   2.791   0.628 -0.7661  0.1255  0.4394
 8649TIP3    H125911   1.971   2.845   0.651 -0.6947 -0.1947  0.9506
 8649TIP3    H225912   1.822   2.830   0.675 -0.7726 -0.0399  0.5666
 8650TIP3   OH225913   3.070   4.508   4.608 -0.3885 -0.2572 -0.0362
 8650TIP3    H125914   3.051   4.569   4.680  0.9694 -1.1309  1.0907
 8650TIP3    H225915   3.019   4.542   4.534 -1.2653  1.0590  1.1388
 8651TIP3   OH225916   0.280   2.282   1.106 -0.2831  1.1275  0.2881
 8651TIP3    H125917   0.251   2.296   1.197 -0.9364  0.3928  0.1979
 8651TIP3    H225918   0.218   2.333   1.054 -0.9996  0.1116  0.1399
 8652TIP3   OH225919   2.505   5.442   6.007  0.0591 -0.1643  0.0765
 8652TIP3    H125920   2.515   5.369   5.947 -0.7793 -1.6209  1.6672
 8652TIP3    H225921   2.414   5.437   6.036 -0.0071  1.5097  0.2092
 8653TIP3   OH225922   2.079   5.462   3.300 -0.3353 -0.2629 -0.0187
 8653TIP3    H125923   2.108   5.549   3.326  0.7488 -0.5346 -0.3125
 8653TIP3    H225924   2.023   5.433   3.372  0.8922 -0.1191  1.0017
 8654TIP3   OH225925   5.103   1.904   1.187  0.3096 -0.2906 -0.4650
 8654TIP3    H125926   5.192   1.931   1.211  0.5475 -0.8378 -0.7202
 8654TIP3    H225927   5.100   1.810   1.206 -0.2707 -0.2436 -0.2964
 8655TIP3   OH225928   7.288   3.262   1.742 -0.4181  0.3615  0.0787
 8655TIP3    H125929   7.207   3.307   1.716 -0.8563 -1.1430 -1.2143
 8655TIP3    H225930   7.258   3.190   1.797  0.2912  1.5988  2.1749
 8656TIP3   OH225931   4.130   3.235   4.622  0.1332 -0.5264  0.4200
 8656TIP3    H125932   4.158   3.240   4.713 -0.8344  0.2549  0.6884
 8656TIP3    H225933   4.155   3.147   4.594 -1.0531 -1.3882  1.9535
 8657TIP3   OH225934   1.203   3.174   4.030 -0.5631  0.2118 -0.0686
 8657TIP3    H125935   1.228   3.135   3.947 -3.6435 -0.8635 -0.5800
 8657TIP3    H225936   1.214   3.269   4.018  0.8818 -0.0700 -0.9938
 8658TIP3   OH225937   3.580   3.510   4.513 -0.7788 -0.3185 -0.3904
 8658TIP3    H125938   3.547   3.529   4.425 -0.4180  1.1631 -0.2175
 8658TIP3    H225939   3.552   3.585   4.566 -0.9686 -1.1916  0.7514
 8659TIP3   OH225940   3.206   1.865   5.130  0.0679 -0.3976  0.1272
 8659TIP3    H125941   3.133   1.909   5.172  0.2085  0.5516 -0.6068
 8659TIP3    H225942   3.284   1.909   5.164  0.2222 -0.2631 -0.3958
 8660TIP3   OH225943   0.376   0.700   0.699 -0.5721  0.1121  0.1363
 8660TIP3    H125944   0.435   0.716   0.625  0.3798  1.4310  1.1431
 8660TIP3    H225945   0.396   0.610   0.726  2.4620  1.1634  1.7000
 8661TIP3   OH225946   1.895   4.175   4.802 -0.6126  0.5403 -0.5110
 8661TIP3    H125947   1.936   4.120   4.735 -2.3320 -0.5550 -0.6907
 8661TIP3    H225948   1.934   4.144   4.884 -1.5168 -0.9363 -0.6144
 8662TIP3   OH225949   0.446   0.403   0.113 -0.2869 -0.2624  0.0591
 8662TIP3    H125950   0.514   0.360   0.166 -0.4127 -0.5052  0.0258
 8662TIP3    H225951   0.422   0.337   0.047 -1.3825 -0.6082  0.7909
 8663TIP3   OH225952   3.026   2.198   0.832  0.2614  0.8359  0.5757
 8663TIP3    H125953   3.031   2.103   0.836 -0.0831  0.8262  0.8003
 8663TIP3    H225954   3.106   2.228   0.875  0.2916  0.6483  0.6526
 8664TIP3   OH225955   2.336   5.278   5.733  0.2337 -0.2278  0.0717
 8664TIP3    H125956   2.358   5.366   5.701 -0.4758  0.2047  0.7475
 8664TIP3    H225957   2.403   5.221   5.695  0.8358  0.6448 -0.1886
 8665TIP3   OH225958   0.759   4.428   5.742  0.6606 -0.5235 -0.2197
 8665TIP3    H125959   0.752   4.333   5.743  0.9366 -0.5558  1.5483
 8665TIP3    H225960   0.672   4.459   5.718  0.2534 -1.2138  0.3507
 8666TIP3   OH225961   1.986   3.371   4.695  0.8825 -0.3811  0.1868
 8666TIP3    H125962   2.043   3.369   4.772 -0.1142 -1.5066  0.9122
 8666TIP3    H225963   2.021   3.303   4.637  0.4295 -0.9066  0.5263
 8667TIP3   OH225964   3.740   5.101   5.591 -0.1786  0.3660 -0.5679
 8667TIP3    H125965   3.717   5.030   5.531 -3.3270  1.4146 -0.7073
 8667TIP3    H225966   3.759   5.175   5.533 -1.7191  0.9586 -0.3316
 8668TIP3   OH225967   0.411   2.217   1.539 -1.0261 -0.1425  0.0229
 8668TIP3    H125968   0.494   2.201   1.495 -0.7727 -0.6583  0.6949
 8668TIP3    H225969   0.430   2.285   1.603 -0.6415 -1.7177  1.6130
 8669TIP3   OH225970   0.974   3.753   4.889  0.3626  0.5655  0.7467
 8669TIP3    H125971   0.959   3.698   4.812  0.0154 -0.1579  1.3154
 8669TIP3    H225972   1.020   3.696   4.950  1.7063  1.5029  0.6323
 8670TIP3   OH225973   5.950   3.162   0.267  0.0877  0.2822  0.5389
 8670TIP3    H125974   6.032   3.184   0.222  0.5011 -2.4245 -0.1272
 8670TIP3    H225975   5.977   3.108   0.341 -0.8716  2.0514  2.2101
 8671TIP3   OH225976   7.041   2.345   1.660 -0.0273 -0.0639  0.0498
 8671TIP3    H125977   7.133   2.335   1.686 -0.1582 -0.0975  0.4999
 8671TIP3    H225978   7.023   2.268   1.607  0.1106 -0.2221  0.2330
 8672TIP3   OH225979   0.899   5.569   5.552 -0.5668  0.6432  0.0105
 8672TIP3    H125980   0.888   5.474   5.562 -0.1892  0.4798 -1.0916
 8672TIP3    H225981   0.812   5.600   5.527 -1.0412  0.7931  1.7741
 8673TIP3   OH225982   1.629   0.419   2.165 -0.2305  0.1258 -0.5506
 8673TIP3    H125983   1.658   0.489   2.107  0.8648  0.9067  0.9037
 8673TIP3    H225984   1.567   0.462   2.225  0.6184 -0.0668  0.4904
 8674TIP3   OH225985   4.302   3.872   4.297 -0.2180  0.2610  0.0316
 8674TIP3    H125986   4.306   3.961   4.334  0.8775  0.4440 -0.4912
 8674TIP3    H225987   4.320   3.814   4.371 -3.6300  0.3063  0.9589
 8675TIP3   OH225988   6.792   2.060   0.691  0.2991  0.0199 -0.6091
 8675TIP3    H125989   6.830   2.111   0.762 -0.9101  0.8333 -0.5257
 8675TIP3    H225990   6.826   1.971   0.704  1.1365  0.4527  0.1942
 8676TIP3   OH225991   3.427   3.999   4.840 -0.0206  0.1284 -0.2045
 8676TIP3    H125992   3.360   4.062   4.865  0.5341  1.1628 -1.2862
 8676TIP3    H225993   3.378   3.923   4.807 -0.6498  0.8840 -1.0080
 8677TIP3   OH225994   2.179   1.343   2.826  0.0030 -0.1390 -0.1216
 8677TIP3    H125995   2.238   1.398   2.878  2.6651 -3.8443  0.9514
 8677TIP3    H225996   2.217   1.342   2.738 -1.7886  2.1367 -0.9913
 8678TIP3   OH225997   2.997   3.654   5.236 -0.4030 -0.1475  0.2794
 8678TIP3    H125998   3.058   3.592   5.195  1.4378  0.8960  1.3342
 8678TIP3    H225999   2.930   3.670   5.170  0.5387 -1.2512 -0.9699
 8679TIP3   OH226000   4.374   6.274   4.432  0.2081 -0.1903 -0.0376
 8679TIP3    H126001   4.351   6.342   4.369  0.0132 -0.7395 -0.5577
 8679TIP3    H226002   4.434   6.217   4.385  1.4804  0.3857  0.8324
 8680TIP3   OH226003   1.613   1.874   2.101  0.1725  0.1638 -0.4069
 8680TIP3    H126004   1.667   1.850   2.177 -1.1296 -1.8166 -0.0628
 8680TIP3    H226005   1.559   1.947   2.131  0.4711  0.1292  0.2161
 8681TIP3   OH226006   1.482   5.039   5.967 -0.1637 -0.1299  0.2213
 8681TIP3    H126007   1.473   5.031   6.062  0.4669  0.4932  0.3406
 8681TIP3    H226008   1.560   4.989   5.946  0.9242  1.4851  0.3223
 8682TIP3   OH226009   7.171   3.098   1.962  0.1296 -0.2652 -0.1295
 8682TIP3    H126010   7.241   3.085   2.025 -1.2199 -0.6304  1.3201
 8682TIP3    H226011   7.173   3.020   1.907 -0.1368 -0.9835  0.8815
 8683TIP3   OH226012   3.626   4.343   5.187 -0.2105 -0.1352  0.5412
 8683TIP3    H126013   3.609   4.399   5.264 -1.6080  0.0271  0.1157
 8683TIP3    H226014   3.657   4.404   5.120 -2.6356  0.2953 -0.2234
 8684TIP3   OH226015   6.451   6.840   2.659 -0.2942 -0.3140  0.3888
 8684TIP3    H126016   6.383   6.815   2.722 -0.5885 -0.5342 -0.0148
 8684TIP3    H226017   6.519   6.773   2.670  0.2133  0.3481  1.3456
 8685TIP3   OH226018   3.320   6.810   3.185 -0.2570  0.7716  0.0936
 8685TIP3    H126019   3.410   6.808   3.218 -0.5216 -1.9743  0.7982
 8685TIP3    H226020   3.324   6.867   3.108  2.3564 -0.2055 -0.5544
 8686TIP3   OH226021   0.139   2.373   2.119 -0.1312  0.1229  0.6856
 8686TIP3    H126022   0.221   2.411   2.152  0.2247 -0.4546  0.4853
 8686TIP3    H226023   0.162   2.282   2.100 -0.5053  0.2652 -0.4923
 8687TIP3   OH226024   5.367   4.375   5.631  0.2833 -0.2389 -0.5255
 8687TIP3    H126025   5.321   4.429   5.694  0.1722  0.8841 -1.5419
 8687TIP3    H226026   5.344   4.285   5.654 -0.0006  0.1709  0.8209
 8688TIP3   OH226027   0.529   2.101   0.848 -0.1318  0.0339  0.0598
 8688TIP3    H126028   0.488   2.187   0.861  0.0353  0.2319 -0.6690
 8688TIP3    H226029   0.622   2.118   0.859 -0.1764 -0.2434  0.8555
 8689TIP3   OH226030   3.556   4.077   5.640  0.1470 -0.2265  0.4124
 8689TIP3    H126031   3.491   4.090   5.709 -1.1211 -0.0425 -0.8151
 8689TIP3    H226032   3.511   4.099   5.559  2.0494  0.9591 -0.3620
 8690TIP3   OH226033   3.556   2.021   0.196  0.1784  0.7776  0.4539
 8690TIP3    H126034   3.489   1.999   0.261 -0.0417  3.5656  1.2159
 8690TIP3    H226035   3.507   2.051   0.119  0.4720 -1.3552 -0.6091
 8691TIP3   OH226036   4.659   6.813   5.288  0.1986  0.6098  0.1044
 8691TIP3    H126037   4.626   6.723   5.276  0.6452  0.4195  0.2856
 8691TIP3    H226038   4.643   6.856   5.205  0.9505  0.0488 -0.3315
 8692TIP3   OH226039   6.420   2.221   0.716  0.1090  0.3755 -0.5474
 8692TIP3    H126040   6.366   2.188   0.645  0.2666  1.4544 -1.1765
 8692TIP3    H226041   6.469   2.294   0.678  2.7445 -1.1607 -0.2520
 8693TIP3   OH226042   7.307   0.710   0.903 -0.5068 -0.2881  0.4278
 8693TIP3    H126043   7.342   0.677   0.820 -0.3750  0.5122  0.1594
 8693TIP3    H226044   7.369   0.678   0.969 -1.0544 -1.6140  0.3183
 8694TIP3   OH226045   2.994   1.713   2.356  0.5170 -0.6267  0.2152
 8694TIP3    H126046   2.950   1.784   2.403  0.3088  0.3039 -1.3502
 8694TIP3    H226047   2.923   1.659   2.322  0.5209  0.8752 -2.3129
 8695TIP3   OH226048   6.897   6.717   2.057 -0.4108 -0.0481  0.0825
 8695TIP3    H126049   6.857   6.802   2.039 -1.2891 -0.4160  0.2333
 8695TIP3    H226050   6.974   6.737   2.110 -0.1767  0.7083 -0.5462
 8696TIP3   OH226051   5.920   2.632   3.071 -0.1038 -0.8433  0.2937
 8696TIP3    H126052   5.881   2.554   3.112 -0.3369 -0.8172  0.1195
 8696TIP3    H226053   6.014   2.617   3.076 -0.1367 -0.9451  0.6422
 8697TIP3   OH226054   1.404   1.831   1.771  0.7266  0.6463 -0.3330
 8697TIP3    H126055   1.384   1.739   1.788  2.3678  0.8925  3.6343
 8697TIP3    H226056   1.475   1.829   1.707  1.0234 -0.8726  0.0343
 8698TIP3   OH226057   3.193   1.629   5.406  0.3219 -0.1687  0.5347
 8698TIP3    H126058   3.172   1.537   5.421  0.2920 -0.6078 -1.9154
 8698TIP3    H226059   3.284   1.628   5.375  0.5630  0.6935  1.2062
 8699TIP3   OH226060   3.217   6.178   4.363  0.1374 -0.5246  0.2104
 8699TIP3    H126061   3.270   6.115   4.413  1.5546  0.6153  0.1605
 8699TIP3    H226062   3.223   6.147   4.272 -2.5488 -2.6735  0.6907
 8700TIP3   OH226063   5.985   3.851   0.529  0.6232  0.6581  0.3999
 8700TIP3    H126064   6.062   3.883   0.576  1.3794 -1.2084  0.4767
 8700TIP3    H226065   5.913   3.859   0.592  0.4045  3.8141 -0.1591
 8701TIP3   OH226066   1.760   6.290   5.913 -0.3199 -0.3628 -0.1608
 8701TIP3    H126067   1.802   6.205   5.924 -0.6075 -0.3774  0.8898
 8701TIP3    H226068   1.771   6.333   5.998  1.0080  1.1865 -1.0772
 8702TIP3   OH226069   0.841   2.512   1.615  0.0983  0.0669  0.2901
 8702TIP3    H126070   0.924   2.474   1.586 -0.2156  0.0368 -0.5898
 8702TIP3    H226071   0.789   2.436   1.644 -1.1800 -0.4427 -3.0873
 8703TIP3   OH226072   3.860   1.235   1.509 -0.8222  0.0987  0.0397
 8703TIP3    H126073   3.767   1.215   1.516 -1.1629  1.3170 -0.8577
 8703TIP3    H226074   3.870   1.319   1.554  0.4254 -1.5854  2.9749
 8704TIP3   OH226075   2.160   1.157   0.148 -0.1754  0.0694  0.7734
 8704TIP3    H126076   2.176   1.251   0.142  1.4059 -0.2050  0.4521
 8704TIP3    H226077   2.074   1.150   0.190 -0.4856  1.6546  0.4270
 8705TIP3   OH226078   1.403   1.691   2.298 -0.2608  0.0510  0.3116
 8705TIP3    H126079   1.499   1.690   2.295 -0.2388 -1.2109  1.0933
 8705TIP3    H226080   1.376   1.618   2.243 -0.8790  2.0519 -2.1508
 8706TIP3   OH226081   4.200   3.875   5.107 -0.2867  0.1912 -0.3346
 8706TIP3    H126082   4.272   3.936   5.093 -0.1027 -0.0914 -0.5989
 8706TIP3    H226083   4.196   3.822   5.028  0.7761 -1.4292  0.6659
 8707TIP3   OH226084   1.652   0.197   1.959  0.2127  0.2985 -0.8232
 8707TIP3    H126085   1.611   0.257   1.896 -0.4059 -0.3304 -1.0177
 8707TIP3    H226086   1.660   0.249   2.039 -1.1793  0.3485 -0.7155
 8708TIP3   OH226087   0.597   2.032   2.343 -0.8829  0.0313  0.3853
 8708TIP3    H126088   0.647   1.971   2.396 -0.6078  0.0357  0.1331
 8708TIP3    H226089   0.622   2.013   2.252 -0.9707  0.3574  0.2886
 8709TIP3   OH226090   3.522   5.766   5.005 -0.0421 -0.4617 -0.3560
 8709TIP3    H126091   3.536   5.850   4.960 -0.7819  0.7047  1.5396
 8709TIP3    H226092   3.538   5.700   4.937  3.3464  1.0776 -1.1841
 8710TIP3   OH226093   3.243   5.779   4.943 -0.0357 -0.0982 -0.3070
 8710TIP3    H126094   3.304   5.776   5.017 -0.3428  1.5210  0.0511
 8710TIP3    H226095   3.294   5.816   4.871  0.2891 -1.7634 -0.9394
 8711TIP3   OH226096   3.411   4.948   4.759  0.3122 -0.5083 -0.6734
 8711TIP3    H126097   3.505   4.948   4.778  0.4973 -1.9739 -1.5697
 8711TIP3    H226098   3.401   5.008   4.685  0.5708 -0.4745 -0.6793
 8712TIP3   OH226099   1.934   3.705   0.254  0.1108 -0.2450  0.2220
 8712TIP3    H126100   2.010   3.710   0.312  0.4660  0.3474 -0.2931
 8712TIP3    H226101   1.885   3.630   0.287 -0.2707  0.7436  1.9827
 8713TIP3   OH226102   5.881   0.331   0.823 -0.1266  0.4032  0.4090
 8713TIP3    H126103   5.798   0.300   0.787  0.4345 -0.1793 -0.3933
 8713TIP3    H226104   5.855   0.396   0.888 -1.2425 -0.3358  0.7277
 8714TIP3   OH226105   1.812   4.552   1.016  0.4085  0.2525  0.0083
 8714TIP3    H126106   1.753   4.501   0.961  0.9434  0.0313 -0.3760
 8714TIP3    H226107   1.777   4.641   1.015 -0.1488  0.0365  0.1293
 8715TIP3   OH226108   2.463   1.926   0.519 -0.2142 -0.2875  0.3436
 8715TIP3    H126109   2.386   1.982   0.531  0.7279  1.6111 -2.0949
 8715TIP3    H226110   2.535   1.978   0.554  0.3873 -0.7896 -0.1458
 8716TIP3   OH226111   4.375   4.160   3.722  0.0185  0.3834  0.1017
 8716TIP3    H126112   4.396   4.177   3.630  0.4403 -0.5901  0.0092
 8716TIP3    H226113   4.381   4.065   3.731 -1.4935  0.3313  0.7824
 8717TIP3   OH226114   3.860   5.611   5.414  0.3384 -0.5091  0.2938
 8717TIP3    H126115   3.888   5.629   5.503  1.0815  1.7660 -0.3446
 8717TIP3    H226116   3.780   5.663   5.403  0.3860 -0.5786 -0.4221
 8718TIP3   OH226117   1.310   1.955   1.988 -0.0418 -0.0759  0.4902
 8718TIP3    H126118   1.349   1.899   1.921  0.8073 -0.9980  1.7190
 8718TIP3    H226119   1.335   2.044   1.964  0.3723 -0.4139 -0.3252
 8719TIP3   OH226120   3.326   2.708   5.771 -0.4199 -0.1627  0.3294
 8719TIP3    H126121   3.362   2.718   5.683  0.0329 -2.0383  0.2830
 8719TIP3    H226122   3.403   2.688   5.826 -0.8508 -0.1668  0.9336
 8720TIP3   OH226123   5.080   6.439   5.000  0.5563  0.2429 -0.2519
 8720TIP3    H126124   5.154   6.414   5.054  1.3982 -0.2133 -1.5871
 8720TIP3    H226125   5.059   6.528   5.026  0.9499  0.0258  0.8070
 8721TIP3   OH226126   1.680   0.780   1.211  0.4732 -0.3852 -0.4941
 8721TIP3    H126127   1.722   0.796   1.127 -1.0592  1.2915 -0.9612
 8721TIP3    H226128   1.589   0.759   1.189  0.1337 -0.2236  0.7115
 8722TIP3   OH226129   2.852   2.865   2.756 -0.3470 -0.4188  0.1593
 8722TIP3    H126130   2.913   2.820   2.815 -0.3025  2.9192  2.7943
 8722TIP3    H226131   2.766   2.832   2.780 -0.0349 -1.5302 -0.2220
 8723TIP3   OH226132   5.491   4.847   4.807 -0.3435 -0.1412  0.3102
 8723TIP3    H126133   5.586   4.860   4.812 -0.6100  1.8106  0.8469
 8723TIP3    H226134   5.462   4.846   4.899 -1.0286  0.7997  0.1090
 8724TIP3   OH226135   1.675   1.651   2.305  0.9182 -0.4353  0.4657
 8724TIP3    H126136   1.719   1.667   2.389  1.1362 -1.7753  0.6056
 8724TIP3    H226137   1.741   1.609   2.251  1.1133  1.3821 -0.7643
 8725TIP3   OH226138   1.285   1.906   1.115  0.0983 -0.5069 -0.3716
 8725TIP3    H126139   1.261   1.939   1.028 -0.4231 -2.9018 -1.1681
 8725TIP3    H226140   1.360   1.849   1.099  1.9437  1.4523  1.1849
 8726TIP3   OH226141   2.245   5.092   5.412 -0.1791 -0.3786 -0.1264
 8726TIP3    H126142   2.274   5.054   5.494 -1.8845 -0.3646  0.5036
 8726TIP3    H226143   2.194   5.022   5.370  0.9935 -0.5160 -1.3512
 8727TIP3   OH226144   3.112   5.530   5.593  0.5530  0.0044 -0.6022
 8727TIP3    H126145   3.113   5.596   5.524 -0.2044  0.9637  0.2825
 8727TIP3    H226146   3.126   5.579   5.674  1.0448 -1.0536 -0.0210
 8728TIP3   OH226147   3.106   4.713   5.082 -0.4792 -0.0497  0.3589
 8728TIP3    H126148   3.141   4.643   5.137 -0.6384  0.2662  0.8618
 8728TIP3    H226149   3.106   4.790   5.138 -0.1782  0.3871 -0.2315
 8729TIP3   OH226150   3.616   2.765   5.700 -0.6454  0.1859  0.6051
 8729TIP3    H126151   3.577   2.801   5.620 -0.8886  0.6176  0.9142
 8729TIP3    H226152   3.655   2.840   5.744 -0.0925 -0.1284  0.6608
 8730TIP3   OH226153   5.036   4.799   5.526  0.4209  0.3522  0.4872
 8730TIP3    H126154   5.072   4.712   5.542 -1.3699 -0.8765 -1.7407
 8730TIP3    H226155   4.961   4.806   5.586 -0.3812 -0.3077 -0.4161
 8731TIP3   OH226156   5.201   6.444   5.386 -0.1347 -0.1708  0.2549
 8731TIP3    H126157   5.178   6.478   5.300 -0.6941 -3.4046 -0.9317
 8731TIP3    H226158   5.295   6.461   5.394 -0.2443  0.8759 -0.6463
 8732TIP3   OH226159   2.626   6.280   5.706 -0.0675  0.7536  0.0248
 8732TIP3    H126160   2.558   6.333   5.664  1.3708  1.8608 -0.9476
 8732TIP3    H226161   2.707   6.304   5.661  0.7063 -1.9096 -0.1134
 8733TIP3   OH226162   4.420   2.798   0.410 -0.2354 -0.1990 -0.0652
 8733TIP3    H126163   4.380   2.742   0.477 -2.3397  1.2203 -0.0817
 8733TIP3    H226164   4.388   2.762   0.327  0.3532 -0.4225 -0.2005
 8734TIP3   OH226165   1.804   0.345   0.291  0.5895  0.3255  0.5082
 8734TIP3    H126166   1.745   0.383   0.356 -0.0745  0.3749 -0.1308
 8734TIP3    H226167   1.817   0.255   0.321 -1.0985 -0.1757 -0.2322
 8735TIP3   OH226168   0.791   0.615   0.718  0.4444 -0.3386  0.5046
 8735TIP3    H126169   0.754   0.638   0.803 -2.8095 -0.7576 -0.6960
 8735TIP3    H226170   0.808   0.699   0.675  0.9313 -0.1321  1.1036
 8736TIP3   OH226171   0.249   4.244   0.197  0.4703  0.2337 -0.1834
 8736TIP3    H126172   0.170   4.224   0.147  0.5172 -0.1464 -0.1112
 8736TIP3    H226173   0.312   4.177   0.169  0.5800  0.1795  0.1886
 8737TIP3   OH226174   6.488   0.484   4.639 -0.3452 -0.1714 -0.0140
 8737TIP3    H126175   6.570   0.532   4.640 -1.2843  1.4862  0.1744
 8737TIP3    H226176   6.505   0.408   4.583  1.7192 -0.6447  1.2240
 8738TIP3   OH226177   6.112   0.643   5.728 -0.3598 -0.1694 -0.4888
 8738TIP3    H126178   6.055   0.577   5.768 -0.8716 -0.2329 -1.2981
 8738TIP3    H226179   6.171   0.670   5.798 -0.5118 -1.0847  0.0003
 8739TIP3   OH226180   5.789   1.852   1.574 -0.6787 -0.0594  0.2888
 8739TIP3    H126181   5.872   1.867   1.529 -0.5862  1.4343  0.9022
 8739TIP3    H226182   5.735   1.927   1.550 -0.9550  0.2779  1.8917
 8740TIP3   OH226183   6.740   0.583   0.621 -0.4562 -0.0490 -0.6216
 8740TIP3    H126184   6.812   0.624   0.572  1.0928 -0.9047  0.8844
 8740TIP3    H226185   6.755   0.611   0.712 -2.0726 -0.1986 -0.3078
 8741TIP3   OH226186   3.214   1.105   1.389  0.1630  0.2024 -0.4261
 8741TIP3    H126187   3.294   1.085   1.341  0.5273  0.3070  0.1423
 8741TIP3    H226188   3.243   1.148   1.469 -0.4877  0.7537 -0.4811
 8742TIP3   OH226189   0.194   2.245   1.824  0.4138 -0.2743 -0.9274
 8742TIP3    H126190   0.251   2.285   1.889 -0.6986  0.2829 -0.2843
 8742TIP3    H226191   0.225   2.154   1.818  0.2437 -0.4514  0.7102
 8743TIP3   OH226192   5.885   6.437   0.222  0.7972  0.6317  0.2907
 8743TIP3    H126193   5.931   6.439   0.138  0.3752 -0.7726  0.0174
 8743TIP3    H226194   5.948   6.398   0.282  0.3521 -0.3215  0.1484
 8744TIP3   OH226195   1.562   2.786   2.783  0.0167 -0.6612  0.5095
 8744TIP3    H126196   1.500   2.853   2.754  0.8217  0.1424  0.6457
 8744TIP3    H226197   1.640   2.834   2.809  0.6353 -1.6581  0.5367
 8745TIP3   OH226198   3.166   5.966   5.374  0.0461  1.1725  0.1309
 8745TIP3    H126199   3.242   5.979   5.317  2.1455 -2.8530  1.9053
 8745TIP3    H226200   3.187   6.014   5.454  0.7889 -0.0902  0.6897
 8746TIP3   OH226201  -0.009   0.442   1.562  0.5816 -0.6909  0.2123
 8746TIP3    H126202  -0.060   0.523   1.567  0.0477 -1.1257  2.5875
 8746TIP3    H226203   0.081   0.469   1.576  0.4554 -0.4423  0.5568
 8747TIP3   OH226204   4.795   5.689   0.999  0.4354 -0.1504  0.4573
 8747TIP3    H126205   4.734   5.621   0.971 -0.8518  0.6146  1.3794
 8747TIP3    H226206   4.744   5.746   1.056  1.3517  1.9273 -0.7427
 8748TIP3   OH226207   1.873   0.111   0.424 -0.0080 -0.7317  0.5595
 8748TIP3    H126208   1.907   0.080   0.509 -1.3933 -1.8719  0.7250
 8748TIP3    H226209   1.807   0.045   0.400 -0.6052  0.3286 -0.7405
 8749TIP3   OH226210   1.190   1.626   1.779 -0.0066 -0.4204  0.3002
 8749TIP3    H126211   1.171   1.597   1.690  0.3535 -3.1769  1.0790
 8749TIP3    H226212   1.141   1.708   1.788 -2.6938 -1.7685 -1.3320
 8750TIP3   OH226213   3.798   4.929   5.784 -0.1122 -0.1399 -0.1012
 8750TIP3    H126214   3.789   5.000   5.721 -0.6983  0.4760  0.6757
 8750TIP3    H226215   3.792   4.849   5.731 -0.4215  0.3744 -0.8453
 8751TIP3   OH226216   3.942   4.431   3.879 -0.4523  0.1070 -0.1286
 8751TIP3    H126217   4.012   4.489   3.909 -1.3485  0.9611  0.3479
 8751TIP3    H226218   3.883   4.424   3.953 -0.4189 -1.3454 -0.2176
 8752TIP3   OH226219   1.027   0.766   0.246  0.7106  0.3586 -0.1886
 8752TIP3    H126220   1.035   0.785   0.340  2.7803 -0.6521 -0.1234
 8752TIP3    H226221   0.969   0.690   0.242  1.6109 -0.3700  0.3795
 8753TIP3   OH226222   7.237   0.569   0.304 -0.1131  0.1713  0.3336
 8753TIP3    H126223   7.229   0.502   0.371  1.9238  0.3609  0.7969
 8753TIP3    H226224   7.210   0.525   0.223  0.8305 -1.1031  0.6921
 8754TIP3   OH226225   3.164   5.521   4.932 -0.3619 -0.4874  0.2015
 8754TIP3    H126226   3.174   5.616   4.941  0.8543 -0.4628 -1.1707
 8754TIP3    H226227   3.070   5.507   4.924 -0.3917  0.9067 -2.4309
 8755TIP3   OH226228   3.310   5.512   3.016 -0.3992  0.7388 -0.1932
 8755TIP3    H126229   3.218   5.498   2.993 -0.6843 -0.6447  1.6411
 8755TIP3    H226230   3.319   5.607   3.023 -1.9075  0.8383  0.4999
 8756TIP3   OH226231   3.298   2.315   5.405  0.0932 -0.2017 -0.3425
 8756TIP3    H126232   3.362   2.268   5.352  0.4312  0.3031 -0.3760
 8756TIP3    H226233   3.293   2.265   5.487 -0.1032 -0.7268 -0.6727
 8757TIP3   OH226234   2.182   1.687   1.697  0.2592  0.0777 -0.8009
 8757TIP3    H126235   2.092   1.680   1.730  0.2110 -0.0760 -0.9630
 8757TIP3    H226236   2.177   1.656   1.606  0.6510 -0.8474 -0.5198
 8758TIP3   OH226237   6.786   2.930   0.136  0.0545  0.1235  0.8533
 8758TIP3    H126238   6.812   3.010   0.090  1.5602 -0.1356  1.1997
 8758TIP3    H226239   6.868   2.898   0.174 -0.7428 -0.9772  1.6562
 8759TIP3   OH226240   1.040   2.706   1.726 -0.1736  0.2014 -0.5446
 8759TIP3    H126241   1.082   2.758   1.658 -2.0118  1.6064 -0.6480
 8759TIP3    H226242   0.963   2.668   1.684  0.1885 -1.1867  0.0110
 8760TIP3   OH226243   3.689   5.526   5.939  0.4638 -0.3674 -0.0268
 8760TIP3    H126244   3.663   5.475   5.862  1.1918 -0.9403  0.1045
 8760TIP3    H226245   3.625   5.597   5.943  0.7335 -0.0394 -1.4640
 8761TIP3   OH226246   4.376   5.784   4.467  0.5803  0.4434 -0.1846
 8761TIP3    H126247   4.281   5.771   4.461  0.7053 -1.1171  0.9340
 8761TIP3    H226248   4.410   5.753   4.384  0.1596  0.5663 -0.4029
 8762TIP3   OH226249   3.883   5.688   5.049  0.0673 -0.1641  0.1507
 8762TIP3    H126250   3.891   5.724   4.961 -0.2749  1.8417  0.9016
 8762TIP3    H226251   3.925   5.754   5.105 -0.9350 -0.7648  1.6177
 8763TIP3   OH226252   5.423   4.294   5.122  0.3542 -0.4394 -0.3260
 8763TIP3    H126253   5.328   4.305   5.122  0.2801 -1.0275 -0.7039
 8763TIP3    H226254   5.441   4.244   5.202  0.1959 -1.4502 -0.9052
 8764TIP3   OH226255   5.821   6.315   4.524 -0.5026  0.0568  0.4719
 8764TIP3    H126256   5.911   6.343   4.507 -0.3515  0.1004  1.2877
 8764TIP3    H226257   5.824   6.282   4.615 -0.6412 -2.7343 -0.4805
 8765TIP3   OH226258   2.869   3.353   5.114  0.2178 -0.1576 -0.1324
 8765TIP3    H126259   2.845   3.405   5.037  1.2576 -1.7339 -1.5444
 8765TIP3    H226260   2.830   3.400   5.188 -1.9464  0.6573 -1.7547
 8766TIP3   OH226261   3.888   5.376   5.645 -0.1360  0.0257 -0.3069
 8766TIP3    H126262   3.798   5.367   5.677 -1.1143  1.7094 -2.4378
 8766TIP3    H226263   3.915   5.463   5.675  1.3221 -1.0394  1.5459
 8767TIP3   OH226264   3.169   3.398   5.894 -0.0984  0.4543  0.0052
 8767TIP3    H126265   3.111   3.378   5.820 -0.6436 -0.1342  0.5909
 8767TIP3    H226266   3.114   3.385   5.971  0.7644  0.1076  0.5544
 8768TIP3   OH226267   4.623   5.194   4.917 -0.0950 -0.4605 -0.7159
 8768TIP3    H126268   4.676   5.208   4.996  0.2405 -0.4618 -0.9422
 8768TIP3    H226269   4.538   5.232   4.939  0.2249  0.2156 -0.6254
 8769TIP3   OH226270   2.297   0.926   0.078  0.0842  0.0588 -0.0791
 8769TIP3    H126271   2.266   1.014   0.102  1.2930 -0.4306  3.6594
 8769TIP3    H226272   2.219   0.870   0.087 -0.0859  0.3225  0.0991
 8770TIP3   OH226273   5.266   3.517   5.465  0.4891 -0.5718  0.3086
 8770TIP3    H126274   5.189   3.464   5.485  0.3567  0.2416  1.9927
 8770TIP3    H226275   5.233   3.583   5.403 -0.0538 -0.5170  0.6554
 8771TIP3   OH226276   2.023   2.601   2.011  0.3732 -0.0746  0.1728
 8771TIP3    H126277   2.074   2.682   2.011  0.4498 -0.1066 -1.6329
 8771TIP3    H226278   1.973   2.604   1.929 -0.5270 -1.2940  0.6583
 8772TIP3   OH226279   4.133   5.859   4.992  0.2192  0.5000 -0.2880
 8772TIP3    H126280   4.157   5.769   4.969 -0.0887  0.1583  0.6704
 8772TIP3    H226281   4.214   5.909   4.979  0.7583 -0.1627  0.4399
 8773TIP3   OH226282   4.475   3.031   5.065 -0.1239  0.3222  0.1897
 8773TIP3    H126283   4.423   2.999   5.139  0.2929  1.0560  0.8037
 8773TIP3    H226284   4.557   2.982   5.071 -1.2112 -1.8048 -1.5522
 8774TIP3   OH226285   6.187   5.300   4.515  0.3394 -0.0847  0.4937
 8774TIP3    H126286   6.111   5.267   4.563  0.6457 -0.2687  0.8489
 8774TIP3    H226287   6.150   5.334   4.433 -0.1401 -0.0753  0.7115
 8775TIP3   OH226288   5.713   3.548   5.986  0.0462  0.2996 -0.2301
 8775TIP3    H126289   5.804   3.559   5.956 -0.3344 -0.7868 -1.8701
 8775TIP3    H226290   5.712   3.461   6.026  0.0730  0.9253  1.1297
 8776TIP3   OH226291   1.515   2.164   0.848 -0.4610  0.4432 -0.4752
 8776TIP3    H126292   1.521   2.249   0.803  0.3878  0.2130 -0.8123
 8776TIP3    H226293   1.588   2.165   0.910  0.2940 -0.5134 -1.3254
 8777TIP3   OH226294   5.982   6.278   5.407 -0.7585  0.7394 -0.2045
 8777TIP3    H126295   5.998   6.192   5.446  2.7359  0.0993 -2.7418
 8777TIP3    H226296   5.911   6.263   5.345  0.1226 -0.4743 -0.9505
 8778TIP3   OH226297   1.188   0.360   5.810  0.1222  0.0611 -0.1880
 8778TIP3    H126298   1.208   0.446   5.772 -2.0642  0.1902 -1.1242
 8778TIP3    H226299   1.093   0.359   5.818  0.2818 -1.4002  1.9516
 8779TIP3   OH226300   2.417   1.843   1.508  0.5695 -0.4684  0.1971
 8779TIP3    H126301   2.468   1.800   1.576 -0.7417 -3.7026 -0.7903
 8779TIP3    H226302   2.460   1.817   1.426  0.0923  0.5887 -0.4032
 8780TIP3   OH226303   3.007   1.680   2.683  0.1734  0.1048 -0.7059
 8780TIP3    H126304   3.077   1.685   2.748 -0.1040 -0.0790 -0.3913
 8780TIP3    H226305   3.040   1.620   2.617  0.0996 -0.3910 -0.2944
 8781TIP3   OH226306   6.768   0.826   5.404  0.0304  0.3275 -0.5108
 8781TIP3    H126307   6.706   0.882   5.357 -0.7736 -0.8411 -0.8726
 8781TIP3    H226308   6.839   0.885   5.429 -1.9390  2.0850  1.2980
 8782TIP3   OH226309   5.089   5.009   5.262  0.3895 -0.1384 -0.1166
 8782TIP3    H126310   5.159   4.975   5.317  0.6357 -0.4538 -0.6181
 8782TIP3    H226311   5.125   5.089   5.224  0.6454 -0.5392 -0.7257
 8783TIP3   OH226312   2.320   1.316   1.163  0.3768 -0.2777  0.3084
 8783TIP3    H126313   2.246   1.261   1.138 -0.5971  1.7150 -1.2380
 8783TIP3    H226314   2.397   1.265   1.137 -0.5213 -0.7950 -1.3743
 8784TIP3   OH226315   5.068   3.689   5.069  0.0041  0.0105 -0.5762
 8784TIP3    H126316   5.052   3.602   5.106  0.5349  0.5436  0.9536
 8784TIP3    H226317   5.028   3.749   5.131  3.0487  1.0567  0.4238
 8785TIP3   OH226318   3.754   1.268   0.876  0.5580 -0.1388 -0.1653
 8785TIP3    H126319   3.753   1.302   0.965 -0.1711 -0.5406 -0.0164
 8785TIP3    H226320   3.755   1.173   0.887  0.9337 -0.1856 -0.5861
 8786TIP3   OH226321   4.326   4.711   3.899  0.5877  0.0238 -0.7289
 8786TIP3    H126322   4.288   4.734   3.814  1.9415  1.7122 -0.9047
 8786TIP3    H226323   4.382   4.636   3.881 -1.0552 -1.1990 -0.8457
 8787TIP3   OH226324   4.226   0.220   1.347 -0.5118  0.0486 -0.5087
 8787TIP3    H126325   4.185   0.278   1.411 -2.4274 -1.8407  0.0511
 8787TIP3    H226326   4.304   0.267   1.318 -1.5375  2.4895  0.5649
 8788TIP3   OH226327   3.206   3.195   4.698  0.0815 -0.1519 -0.3672
 8788TIP3    H126328   3.259   3.144   4.638  0.6533 -0.2617  0.2197
 8788TIP3    H226329   3.243   3.283   4.694  0.0291 -0.1262 -0.2905
 8789TIP3   OH226330   6.796   3.994   4.906  0.1065  0.0353 -0.4279
 8789TIP3    H126331   6.701   3.989   4.914  0.1395 -0.0945 -0.1123
 8789TIP3    H226332   6.829   3.949   4.984  0.4298 -0.7096 -0.9891
 8790TIP3   OH226333   3.683   0.258   0.155 -0.2706 -0.3658  0.1239
 8790TIP3    H126334   3.763   0.277   0.205  0.3192  1.4452 -1.4269
 8790TIP3    H226335   3.704   0.286   0.066 -2.0177 -1.6093 -0.6970
 8791TIP3   OH226336   1.028   6.370   0.954 -0.8520 -0.0721  0.2184
 8791TIP3    H126337   0.954   6.324   0.914 -0.9343 -1.2284  1.6622
 8791TIP3    H226338   1.092   6.379   0.883 -2.0330  0.2054 -0.8263
 8792TIP3   OH226339   2.599   5.754   0.239  0.3021  0.0743  0.0181
 8792TIP3    H126340   2.581   5.660   0.251  2.2720 -0.4112 -0.5556
 8792TIP3    H226341   2.545   5.779   0.164  1.7097 -1.2638 -1.5090
 8793TIP3   OH226342   3.958   5.627   5.745  0.0751 -0.3351 -0.6649
 8793TIP3    H126343   4.047   5.655   5.766 -0.0225  1.7073 -2.7130
 8793TIP3    H226344   3.902   5.697   5.779 -0.7572 -1.5249  0.4563
 8794TIP3   OH226345   4.033   0.536   0.466  0.1411  0.4587 -0.1732
 8794TIP3    H126346   4.100   0.560   0.401 -0.9802  0.9898 -1.1596
 8794TIP3    H226347   4.048   0.595   0.539  0.3108  1.0515 -0.6831
 8795TIP3   OH226348   2.491   0.356   0.818 -0.3241  0.0868 -0.1121
 8795TIP3    H126349   2.502   0.261   0.814 -0.3789  0.0375  0.7348
 8795TIP3    H226350   2.539   0.389   0.742 -1.2839 -0.6942 -1.0748
 8796TIP3   OH226351   4.759   3.358   0.655  0.8998 -0.0515 -0.2405
 8796TIP3    H126352   4.758   3.268   0.689  3.1799 -0.8394 -2.1593
 8796TIP3    H226353   4.763   3.413   0.734  0.2056 -1.6241  0.9312
 8797TIP3   OH226354   2.942   2.346   0.568 -0.3174  0.3063 -0.4741
 8797TIP3    H126355   2.998   2.355   0.645  0.3033 -2.5581 -0.5229
 8797TIP3    H226356   2.855   2.369   0.599 -0.2241 -1.6326  1.3799
 8798TIP3   OH226357   2.822   2.728   0.452  0.2475  0.1015  0.3552
 8798TIP3    H126358   2.772   2.651   0.479 -1.0129  1.3805  1.7044
 8798TIP3    H226359   2.840   2.713   0.359  0.6796 -2.1719  0.7836
 8799TIP3   OH226360   4.149   1.234   1.879  0.7221  0.1288  0.2052
 8799TIP3    H126361   4.190   1.239   1.965  1.1350  1.2071 -0.0511
 8799TIP3    H226362   4.158   1.322   1.843 -1.6385  0.3373  0.0620
 8800TIP3   OH226363   4.341   4.283   5.923 -0.1435  0.1634 -0.1620
 8800TIP3    H126364   4.399   4.215   5.889 -1.3405 -1.7343  1.5067
 8800TIP3    H226365   4.266   4.283   5.864 -0.5613 -0.6220  0.3581
 8801TIP3   OH226366   4.099   2.152   1.772 -0.4425  0.3156 -0.2866
 8801TIP3    H126367   4.063   2.138   1.685 -0.9113 -1.1560  0.1329
 8801TIP3    H226368   4.043   2.101   1.831  1.8222 -1.3863  0.4675
 8802TIP3   OH226369   6.181   5.386   4.963 -0.2460 -0.3314  0.0309
 8802TIP3    H126370   6.195   5.302   4.917  2.2637 -0.6961  1.3607
 8802TIP3    H226371   6.269   5.416   4.983 -1.2118  1.6871  1.3104
 8803TIP3   OH226372   2.616   1.107   3.376  0.0111  0.6287  0.1940
 8803TIP3    H126373   2.625   1.069   3.463  0.6254 -0.4884 -0.3396
 8803TIP3    H226374   2.622   1.032   3.317 -1.5674  1.2185 -0.7550
 8804TIP3   OH226375   6.016   5.425   3.282  0.2682 -0.1356  0.2987
 8804TIP3    H126376   5.994   5.344   3.326  0.4782 -0.4422 -0.1585
 8804TIP3    H226377   6.099   5.408   3.238 -1.1341 -0.6473 -2.2401
 8805TIP3   OH226378   2.221   1.425   0.105  0.0511 -0.6998  0.5498
 8805TIP3    H126379   2.258   1.483   0.172  2.0904 -0.4174 -0.7819
 8805TIP3    H226380   2.275   1.440   0.028 -0.6253 -2.9663 -0.4004
 8806TIP3   OH226381   5.410   2.284   1.258  0.2386 -0.0723 -0.1450
 8806TIP3    H126382   5.503   2.292   1.277  0.1437  0.7730 -0.0465
 8806TIP3    H226383   5.397   2.331   1.176 -0.3150  0.8411  0.4565
 8807TIP3   OH226384   6.357   4.128   5.717  0.4404  0.6792 -0.3237
 8807TIP3    H126385   6.337   4.151   5.808  0.5625 -0.3528 -0.0204
 8807TIP3    H226386   6.427   4.187   5.691 -0.0083  1.3822  0.0582
 8808TIP3   OH226387   5.715   6.004   4.227 -0.5070  0.2428 -0.2739
 8808TIP3    H126388   5.704   5.986   4.134 -1.2654  2.0503 -0.5406
 8808TIP3    H226389   5.697   6.097   4.237  0.4218  0.2659  1.5532
 8809TIP3   OH226390   6.168   5.192   5.638  0.3097 -0.0144 -0.1279
 8809TIP3    H126391   6.132   5.153   5.558  1.2739 -1.9534  0.3535
 8809TIP3    H226392   6.244   5.137   5.659 -0.0692  0.3265  2.2376
 8810TIP3   OH226393   6.753   0.279   3.073 -0.2932  0.1555  0.3363
 8810TIP3    H126394   6.708   0.335   3.010  2.8608  0.6968 -1.5177
 8810TIP3    H226395   6.807   0.339   3.124 -0.9067 -0.5958  1.9111
 8811TIP3   OH226396   6.030   5.863   5.996 -0.1441 -0.0605  0.5470
 8811TIP3    H126397   5.986   5.779   5.984  0.4554 -0.2967 -0.0227
 8811TIP3    H226398   5.989   5.901   6.074 -1.4811 -0.1947 -0.0756
 8812TIP3   OH226399   6.108   5.461   5.769  0.0232  0.0687 -0.1258
 8812TIP3    H126400   6.089   5.372   5.739  0.5414  0.3176 -1.2204
 8812TIP3    H226401   6.103   5.514   5.689 -0.2502  1.0145  0.5170
 8813TIP3   OH226402   3.177   2.119   0.155 -0.4798  0.8782  0.4077
 8813TIP3    H126403   3.217   2.183   0.096  0.9449  0.3899  0.8086
 8813TIP3    H226404   3.107   2.167   0.199 -1.1227  1.4286 -1.1898
 8814TIP3   OH226405   1.557   0.093   0.959  0.0521  0.1894 -0.0141
 8814TIP3    H126406   1.611   0.171   0.962 -0.2268  0.3883 -0.2135
 8814TIP3    H226407   1.515   0.095   0.873 -1.2336  0.6862  0.6165
 8815TIP3   OH226408   2.767   0.283   0.390  0.1445 -0.2037 -0.0750
 8815TIP3    H126409   2.727   0.197   0.388  1.6957 -0.9811  0.9140
 8815TIP3    H226410   2.713   0.337   0.332  0.1210 -2.2512 -2.0095
 8816TIP3   OH226411   2.837   1.845   0.680 -0.1197  0.4268  0.4436
 8816TIP3    H126412   2.862   1.773   0.623 -1.2962  0.4150 -0.0838
 8816TIP3    H226413   2.855   1.924   0.628 -2.6793  0.3719 -0.6093
 8817TIP3   OH226414   2.319   6.569   5.120 -0.1923 -0.1432  0.5243
 8817TIP3    H126415   2.228   6.557   5.093 -0.0504  3.3769 -1.8810
 8817TIP3    H226416   2.371   6.548   5.042  0.9490 -0.3691  1.3285
 8818TIP3   OH226417   4.784   4.155   5.611  0.3073 -0.1400  0.4919
 8818TIP3    H126418   4.743   4.165   5.525  2.1321  0.8952 -0.2712
 8818TIP3    H226419   4.754   4.231   5.661 -0.4563 -0.5518  0.6836
 8819TIP3   OH226420   5.392   3.337   4.515 -0.0215 -0.4828  0.2022
 8819TIP3    H126421   5.463   3.353   4.577 -0.5032  0.5807  0.5068
 8819TIP3    H226422   5.436   3.315   4.433  0.6258 -1.5520  0.8338
 8820TIP3   OH226423   4.628   0.399   0.701  0.3036  0.4537 -0.2204
 8820TIP3    H126424   4.600   0.349   0.624 -0.0191 -0.6633  0.6107
 8820TIP3    H226425   4.664   0.480   0.665 -2.2191  1.0962 -1.4161
 8821TIP3   OH226426   3.642   3.497   5.900 -0.4003  0.3926  0.6077
 8821TIP3    H126427   3.551   3.518   5.924 -1.9788 -1.8400 -3.0605
 8821TIP3    H226428   3.661   3.417   5.949 -0.5345  0.6029  1.0146
 8822TIP3   OH226429   6.032   4.446   0.924 -0.7291  0.4853  0.1536
 8822TIP3    H126430   5.986   4.367   0.951 -1.4578  1.2068  1.0548
 8822TIP3    H226431   6.122   4.433   0.954 -0.7634 -0.1537 -0.0151
 8823TIP3   OH226432   5.459   3.675   4.825 -0.1437  0.1662  0.4363
 8823TIP3    H126433   5.528   3.614   4.798  0.4046  1.1050 -0.3215
 8823TIP3    H226434   5.386   3.657   4.766  0.8655  1.8543 -1.3851
 8824TIP3   OH226435   3.010   1.286  -0.002 -0.4619  0.3974 -0.0638
 8824TIP3    H126436   2.942   1.291   0.065 -0.1150 -2.0975  0.5180
 8824TIP3    H226437   3.064   1.364   0.011 -2.2428  1.5363  0.5171
 8825TIP3   OH226438   6.770   6.878   0.051 -0.3125  0.0062  0.0739
 8825TIP3    H126439   6.691   6.932   0.055 -0.4683 -0.3229  2.4603
 8825TIP3    H226440   6.822   6.907   0.126  0.4701 -1.8329  0.2674
 8826TIP3   OH226441   3.188   5.339   4.425 -0.1010  0.5532  0.6192
 8826TIP3    H126442   3.100   5.344   4.463 -1.5896 -0.3187 -2.5212
 8826TIP3    H226443   3.179   5.383   4.340  1.9166 -1.4552 -0.6861
 8827TIP3   OH226444   3.738   1.522   0.246  0.8182  0.2157 -0.2395
 8827TIP3    H126445   3.780   1.608   0.237 -0.6218  0.8982 -0.7567
 8827TIP3    H226446   3.797   1.472   0.302  1.3464  1.7893  0.6613
 8828TIP3   OH226447   6.255   3.547   5.718  0.3909  0.4030  0.0716
 8828TIP3    H126448   6.258   3.631   5.672  0.4031  0.4629  0.1832
 8828TIP3    H226449   6.272   3.482   5.650  0.1045  0.4721 -0.0680
 8829TIP3   OH226450   1.407   1.192   0.529  0.3803 -0.4136  0.5160
 8829TIP3    H126451   1.360   1.263   0.485  1.5745  1.1934  1.7432
 8829TIP3    H226452   1.485   1.178   0.475  1.2545  0.7532  1.4440
 8830TIP3   OH226453   3.386   6.105   5.899 -0.3777  0.3357  0.2152
 8830TIP3    H126454   3.455   6.138   5.956 -0.8864  0.1733  0.9259
 8830TIP3    H226455   3.318   6.172   5.902 -0.3015  0.4452 -0.3997
 8831TIP3   OH226456   6.916   5.212   5.881 -0.3056  0.0192  0.3865
 8831TIP3    H126457   6.902   5.119   5.863 -0.5580  0.3716 -1.3076
 8831TIP3    H226458   6.830   5.244   5.908 -0.4866  0.0124 -0.1772
 8832TIP3   OH226459   1.265   4.142   4.976  0.5098 -0.7155 -0.3221
 8832TIP3    H126460   1.207   4.213   5.001  1.1725 -0.4516  0.4590
 8832TIP3    H226461   1.213   4.063   4.991  0.4714 -0.4972  0.6941
 8833TIP3   OH226462   5.225   6.655   5.998  0.9554  0.4880  0.4062
 8833TIP3    H126463   5.202   6.603   5.921  0.5656  0.7743  0.3270
 8833TIP3    H226464   5.293   6.715   5.967  0.4690  0.9173  0.1687
 8834TIP3   OH226465   2.999   1.048   0.675 -0.4031 -0.4111 -0.0888
 8834TIP3    H126466   3.078   1.010   0.714  1.0243  1.9301 -0.6337
 8834TIP3    H226467   2.954   1.089   0.748 -0.1749 -0.1775 -0.0769
 8835TIP3   OH226468   4.380   5.907   3.753 -0.5549  0.3647  0.2860
 8835TIP3    H126469   4.329   5.950   3.684  0.4015  0.5943 -0.2858
 8835TIP3    H226470   4.347   5.817   3.754  0.0265  0.1170 -1.0979
 8836TIP3   OH226471   2.125   0.817   0.459 -0.1549 -0.0505  0.3684
 8836TIP3    H126472   2.166   0.868   0.389  1.5972 -0.0303  1.3948
 8836TIP3    H226473   2.096   0.737   0.416  1.3559 -0.2589 -0.3075
 8837TIP3   OH226474   4.847   4.812   5.765 -0.0603  0.2856  0.0986
 8837TIP3    H126475   4.769   4.760   5.781 -0.7502  0.5693 -2.1151
 8837TIP3    H226476   4.814   4.899   5.740  0.9445  0.3987 -0.8897
 8838TIP3   OH226477   2.929   3.225   2.189 -0.2124 -0.3475  0.4730
 8838TIP3    H126478   2.931   3.145   2.242  0.8191  0.6142  1.9194
 8838TIP3    H226479   3.018   3.233   2.155 -0.2894  0.2193  0.3968
 8839TIP3   OH226480   1.931   1.621  -0.000 -0.2036  0.3966 -0.2544
 8839TIP3    H126481   1.852   1.591   0.046  0.5440  1.0231  1.4550
 8839TIP3    H226482   1.978   1.540  -0.021  0.0728  0.1511  1.2385
 8840TIP3   OH226483   1.985   3.289   0.093 -0.6931  0.2755 -0.3718
 8840TIP3    H126484   2.013   3.211   0.044 -2.2849 -2.0107  2.2026
 8840TIP3    H226485   1.891   3.295   0.078 -1.1061 -0.1192  1.8467
 8841TIP3   OH226486   1.538   6.765   1.042  0.1657 -0.5288 -0.3569
 8841TIP3    H126487   1.507   6.762   0.952 -0.8467 -1.1554  0.0110
 8841TIP3    H226488   1.634   6.760   1.034  0.1021 -0.2873 -1.4031
 8842TIP3   OH226489   6.828   6.674   1.226  0.3988 -0.7007 -0.5028
 8842TIP3    H126490   6.776   6.742   1.270 -0.1488 -0.6089 -1.2877
 8842TIP3    H226491   6.861   6.716   1.147 -0.4976 -1.5549 -1.3373
 8843TIP3   OH226492   5.613   0.460   5.137  0.4342  0.1911  0.4102
 8843TIP3    H126493   5.642   0.392   5.075  1.1999 -0.8164  1.8417
 8843TIP3    H226494   5.650   0.541   5.102 -0.3912 -0.1365 -1.2618
 8844TIP3   OH226495   3.995   4.934   5.507  0.5410  0.2250  0.1408
 8844TIP3    H126496   3.961   4.850   5.539 -0.5314  0.6513  0.1751
 8844TIP3    H226497   3.953   4.946   5.422  0.0132  1.1069  0.5092
 8845TIP3   OH226498   5.635   3.775   5.044 -0.3501  0.3878 -0.0857
 8845TIP3    H126499   5.711   3.808   4.996  0.3946 -0.5130  0.4669
 8845TIP3    H226500   5.657   3.787   5.136 -0.8677  0.0976  0.0809
 8846TIP3   OH226501   0.159   5.155   4.571 -0.5626 -0.3110 -0.1004
 8846TIP3    H126502   0.135   5.132   4.481 -0.2404 -1.9686  0.2303
 8846TIP3    H226503   0.241   5.204   4.562 -0.1430 -1.1151 -0.6538
 8847TIP3   OH226504   5.933   4.816   3.654 -0.0769  0.4181  0.2294
 8847TIP3    H126505   5.932   4.911   3.644 -1.7403  0.5615  1.6121
 8847TIP3    H226506   5.855   4.796   3.705  0.0330 -1.7467 -0.4035
 8848TIP3   OH226507   5.170   2.218   0.865 -0.2357 -0.6059  0.1070
 8848TIP3    H126508   5.162   2.306   0.828 -1.4310 -0.1847  1.3463
 8848TIP3    H226509   5.093   2.171   0.832 -0.1957 -0.8583  0.3735
 8849TIP3   OH226510   6.425   4.094   4.249  0.5580  0.0679  0.3789
 8849TIP3    H126511   6.510   4.072   4.287  1.7071 -0.2538 -2.3174
 8849TIP3    H226512   6.415   4.034   4.175 -0.4030  2.4267 -1.4778
 8850TIP3   OH226513   5.089   5.199   5.707 -0.1229 -0.3027  0.4483
 8850TIP3    H126514   5.126   5.115   5.679  1.2051 -0.4352  2.4646
 8850TIP3    H226515   5.109   5.259   5.635 -0.8076 -1.6301 -0.8742
 8851TIP3   OH226516   3.283   4.202   4.957 -0.4344 -0.4237  0.1647
 8851TIP3    H126517   3.276   4.288   4.915 -0.8592 -0.3279  0.4305
 8851TIP3    H226518   3.302   4.222   5.048  1.8870 -0.6486 -0.2373
 8852TIP3   OH226519   4.373   4.841   3.114  0.2784 -0.3172 -0.0765
 8852TIP3    H126520   4.308   4.793   3.164 -0.4493 -1.2137 -1.8449
 8852TIP3    H226521   4.403   4.779   3.047  2.4558  0.3027  0.2865
 8853TIP3   OH226522   2.961   4.535   5.773 -0.0614  0.0582 -0.1224
 8853TIP3    H126523   2.915   4.567   5.695 -0.8777  0.7786  0.6509
 8853TIP3    H226524   2.909   4.460   5.802 -1.4787  1.6173  1.4673
 8854TIP3   OH226525   2.217   2.249   1.001 -0.0974  1.0119  0.2312
 8854TIP3    H126526   2.148   2.227   1.063 -1.0593 -3.1335 -2.1644
 8854TIP3    H226527   2.295   2.260   1.055 -1.3790 -0.1703  2.3850
 8855TIP3   OH226528   5.313   5.860   5.461 -0.1643 -0.0515 -0.3800
 8855TIP3    H126529   5.355   5.933   5.506  1.3705  0.6156 -2.7543
 8855TIP3    H226530   5.339   5.782   5.509  1.1862  0.6626  0.0486
 8856TIP3   OH226531   2.137   0.311   0.072  0.1455 -0.3765  0.3944
 8856TIP3    H126532   2.139   0.288   0.164 -0.3731 -1.2921  0.1784
 8856TIP3    H226533   2.198   0.250   0.030  1.9654  1.3570  0.4026
 8857TIP3   OH226534   5.443   6.057   5.098  0.2805  0.4531 -0.0661
 8857TIP3    H126535   5.484   6.027   5.017  0.1485  1.5650 -0.5597
 8857TIP3    H226536   5.414   5.977   5.142 -1.0883 -0.0734 -1.8876
 8858TIP3   OH226537   5.029   5.770   4.194  0.6160  0.4049  0.2308
 8858TIP3    H126538   5.033   5.701   4.127 -1.2020 -0.1338  0.6401
 8858TIP3    H226539   5.103   5.752   4.252 -0.2838 -1.7155  0.7761
 8859TIP3   OH226540   5.620   5.331   4.824 -0.5882 -0.4492 -0.9151
 8859TIP3    H126541   5.574   5.377   4.894 -0.2759  0.0962 -1.0615
 8859TIP3    H226542   5.668   5.400   4.778 -1.7860 -0.6113 -2.4438
 8860TIP3   OH226543   3.128   2.913   1.343 -0.9129 -0.7783  0.2154
 8860TIP3    H126544   3.160   2.981   1.403  0.3742 -0.3805 -0.8881
 8860TIP3    H226545   3.109   2.838   1.399 -1.9132  0.3518  1.3968
 8861TIP3   OH226546   4.838   5.970   5.257  0.1568 -0.4693 -0.3781
 8861TIP3    H126547   4.820   5.910   5.184  0.5352 -0.0677 -0.8031
 8861TIP3    H226548   4.934   5.976   5.260  0.1176  0.1723 -0.3861
 8862TIP3   OH226549   2.054   2.068   0.612  0.1832  0.2583 -0.5472
 8862TIP3    H126550   1.972   2.086   0.657  0.5820 -1.0070  0.6814
 8862TIP3    H226551   2.033   2.079   0.519 -1.9764 -2.3931 -0.4022
 8863TIP3   OH226552   3.898   4.714   4.874 -0.5248 -0.2096 -0.5724
 8863TIP3    H126553   3.953   4.758   4.938 -1.7831 -0.0157  0.3833
 8863TIP3    H226554   3.936   4.738   4.789  0.2438  0.7309  0.0326
 8864TIP3   OH226555   5.597   6.076   3.551  0.0813 -0.5522 -0.0828
 8864TIP3    H126556   5.603   6.051   3.459  1.0241 -0.6511 -0.0025
 8864TIP3    H226557   5.677   6.125   3.568 -0.3773 -0.0081  0.5269
 8865TIP3   OH226558   4.877   4.523   4.809  0.0567 -0.3964  0.1569
 8865TIP3    H126559   4.892   4.605   4.762  0.5402 -0.7385 -0.2895
 8865TIP3    H226560   4.782   4.517   4.816  0.0476  1.0277  1.6511
 8866TIP3   OH226561   2.503   2.322   3.727 -0.3356  0.1753  0.6509
 8866TIP3    H126562   2.494   2.250   3.665  1.3789 -0.7249  1.3860
 8866TIP3    H226563   2.538   2.395   3.675  1.0770 -0.5695  0.5145
 8867TIP3   OH226564   0.914   3.784   3.752  0.0224  0.0326  0.6467
 8867TIP3    H126565   0.978   3.851   3.728 -0.3775 -0.2580 -1.3541
 8867TIP3    H226566   0.830   3.818   3.720 -0.3962 -0.7949  0.8469
 8868TIP3   OH226567   5.486   5.385   5.967  0.2363  0.0186  0.0176
 8868TIP3    H126568   5.491   5.329   6.045 -1.2423  2.0036  1.5914
 8868TIP3    H226569   5.399   5.370   5.932 -0.4504  1.7922  0.8664
 8869TIP3   OH226570   5.553   5.722   4.839 -0.1548 -0.1034  0.0260
 8869TIP3    H126571   5.539   5.669   4.918 -0.2987 -0.2849 -0.1195
 8869TIP3    H226572   5.581   5.659   4.773  0.4436  0.1253  0.0642
 8870TIP3   OH226573   5.206   4.952   5.652  0.1542 -0.1892 -0.1459
 8870TIP3    H126574   5.256   4.893   5.708  1.2593  0.8873  0.0202
 8870TIP3    H226575   5.134   4.899   5.619  0.6335 -1.3782  0.7102
 8871TIP3   OH226576   6.235   3.413   4.760  0.4665  0.7704 -0.3532
 8871TIP3    H126577   6.241   3.437   4.852  0.8289 -0.2008 -0.1197
 8871TIP3    H226578   6.245   3.318   4.759  1.9302  0.9058 -1.5231
 8872TIP3   OH226579   2.451   4.632   4.851  0.0291 -0.0775 -0.5581
 8872TIP3    H126580   2.441   4.543   4.815  0.6947 -0.3675 -0.0414
 8872TIP3    H226581   2.537   4.660   4.822 -0.7148  0.9147 -1.8038
 8873TIP3   OH226582   4.699   5.898   1.133 -0.4257  0.1535 -0.4980
 8873TIP3    H126583   4.735   5.970   1.081  0.2559  0.2597  0.1122
 8873TIP3    H226584   4.611   5.927   1.158  0.2576  1.2563  0.6870
 8874TIP3   OH226585   3.573   0.215   0.411  0.0542  0.7016 -0.2859
 8874TIP3    H126586   3.614   0.259   0.337 -0.9733  0.8813 -0.7526
 8874TIP3    H226587   3.611   0.257   0.488  0.4881  1.0915 -0.7120
 8875TIP3   OH226588   2.999   6.253   0.319  0.0340  0.3301 -0.0127
 8875TIP3    H126589   2.969   6.169   0.352 -2.3172  1.1866  0.1158
 8875TIP3    H226590   2.932   6.279   0.256  1.3189  1.5898 -0.8990
 8876TIP3   OH226591   2.004   6.101   5.275  0.0756  0.3183 -0.6421
 8876TIP3    H126592   1.921   6.056   5.261  0.6812 -0.7537 -0.8701
 8876TIP3    H226593   2.064   6.031   5.301  0.0841  1.5515  2.9042
 8877TIP3   OH226594   3.368   1.922   0.401  0.2562 -0.5386 -0.0404
 8877TIP3    H126595   3.427   1.851   0.423  1.7546  0.5172 -0.5264
 8877TIP3    H226596   3.315   1.936   0.480  0.8851 -1.2780  0.5123
 8878TIP3   OH226597   2.541   1.327   0.199  0.0526 -0.2286  0.0659
 8878TIP3    H126598   2.556   1.358   0.288 -0.2287  2.5856 -0.8088
 8878TIP3    H226599   2.459   1.278   0.203 -1.6284  2.5165  0.8125
 8879TIP3   OH226600   5.026   3.412   5.555  0.2848  0.0411  0.4601
 8879TIP3    H126601   5.058   3.323   5.572  0.2439 -0.0544  0.0571
 8879TIP3    H226602   4.935   3.410   5.585  0.3264 -0.0109  0.5831
 8880TIP3   OH226603   4.676   5.293   5.583  0.6006 -0.0810 -0.1334
 8880TIP3    H126604   4.688   5.372   5.531 -1.1358 -0.3030 -0.9239
 8880TIP3    H226605   4.654   5.326   5.671 -0.9546  0.3564 -0.6583
 8881TIP3   OH226606   3.709   4.751   5.339 -0.6379  0.4446  0.2117
 8881TIP3    H126607   3.785   4.768   5.283 -1.2930  1.9764 -0.2437
 8881TIP3    H226608   3.656   4.689   5.289 -0.7900  1.1340 -0.5137
 8882TIP3   OH226609   2.935   1.954   3.282  0.1906  0.4949  0.4019
 8882TIP3    H126610   2.989   1.906   3.219 -1.9963  0.0879 -1.2075
 8882TIP3    H226611   2.890   2.020   3.230 -0.7123  0.9735  1.7580
 8883TIP3   OH226612   3.901   5.802   4.739 -0.5817 -0.2534  0.5046
 8883TIP3    H126613   3.872   5.863   4.671  2.5499 -1.5407 -2.1256
 8883TIP3    H226614   3.955   5.854   4.798 -0.0593  0.0431 -0.2417
 8884TIP3   OH226615   4.200   1.064   1.044 -0.0914 -0.1101  0.7420
 8884TIP3    H126616   4.242   1.109   1.117 -1.1727  0.4249  1.0422
 8884TIP3    H226617   4.160   0.986   1.084  1.4001 -1.1279  0.2991
 8885TIP3   OH226618   4.844   5.286   4.733  0.4682 -0.0891 -0.2988
 8885TIP3    H126619   4.792   5.364   4.750  0.4725  0.3872 -2.3041
 8885TIP3    H226620   4.801   5.217   4.783 -0.3917  0.8886  0.3277
 8886TIP3   OH226621   0.854   0.694   1.680  0.5358 -0.1129 -0.1888
 8886TIP3    H126622   0.867   0.761   1.747 -0.2567 -0.1073 -0.0363
 8886TIP3    H226623   0.885   0.736   1.599  0.4508  0.2805 -0.0207
 8887TIP3   OH226624   4.762   5.961   5.522  0.5432  0.2685  0.0323
 8887TIP3    H126625   4.790   5.882   5.567  1.1166  1.0619  1.0748
 8887TIP3    H226626   4.779   5.944   5.429  0.5593 -0.8634  0.2433
 8888TIP3   OH226627   5.594   3.942   5.970  0.1640  0.0022 -0.4992
 8888TIP3    H126628   5.563   3.894   6.047 -0.8092  2.6677  0.8008
 8888TIP3    H226629   5.655   4.007   6.004 -1.3255  2.1243 -1.7811
 8889TIP3   OH226630   4.839   6.687   4.736 -0.4599  0.3057  0.5187
 8889TIP3    H126631   4.785   6.722   4.807  0.0100  0.2188  0.9239
 8889TIP3    H226632   4.779   6.677   4.662 -1.0347  0.0220  1.0223
 8890TIP3   OH226633   3.422   5.903   5.234  0.4884 -0.1393 -0.5960
 8890TIP3    H126634   3.474   5.873   5.160  0.5583 -0.0545 -0.5806
 8890TIP3    H226635   3.420   5.829   5.294  1.5364  0.2451 -0.0809
 8891TIP3   OH226636   4.172   1.682   2.034  0.4731 -0.3389  0.1587
 8891TIP3    H126637   4.100   1.620   2.038  0.8183 -0.7147  0.5930
 8891TIP3    H226638   4.251   1.629   2.045  0.8569 -0.0095 -0.9016
 8892TIP3   OH226639   2.385   2.135   0.255 -0.4913  0.6018  0.3798
 8892TIP3    H126640   2.374   2.167   0.345 -0.2795 -0.3742  0.7561
 8892TIP3    H226641   2.297   2.139   0.218 -0.6938  0.4188  0.8333
 8893TIP3   OH226642   2.398   1.808   0.149  0.9865  0.1027 -0.4033
 8893TIP3    H126643   2.314   1.780   0.113  0.3615  2.1015 -0.5216
 8893TIP3    H226644   2.382   1.895   0.185  2.1727 -0.8903  2.7083
 8894TIP3   OH226645   3.942   6.846   5.119  0.4257 -1.0818  0.0935
 8894TIP3    H126646   3.967   6.767   5.071 -0.0242 -1.8270  1.0697
 8894TIP3    H226647   3.883   6.814   5.188  0.9219 -0.0071  1.0205
 8895TIP3   OH226648   3.939   1.825   2.194  0.0471 -0.0787  0.0169
 8895TIP3    H126649   4.004   1.755   2.197  1.2686  1.0288 -0.4727
 8895TIP3    H226650   3.858   1.780   2.169  0.5904 -1.4767  0.6939
 8896TIP3   OH226651   4.932   4.809   4.707 -0.3719 -0.0742  0.5827
 8896TIP3    H126652   4.919   4.846   4.795 -1.2114  1.1752 -0.0453
 8896TIP3    H226653   5.007   4.857   4.671 -1.8856  1.5754 -0.4908
 8897TIP3   OH226654   4.162   5.263   5.399  0.4910  0.0115 -0.3568
 8897TIP3    H126655   4.247   5.283   5.361  1.4991 -2.1701  0.6834
 8897TIP3    H226656   4.110   5.229   5.326  0.2781  1.9081 -1.1206
 8898TIP3   OH226657   4.624   4.949   4.764 -0.4193  0.2991  0.1099
 8898TIP3    H126658   4.709   4.938   4.807 -0.4167  0.2868  0.1023
 8898TIP3    H226659   4.601   5.041   4.778 -1.3509 -0.1664  1.9051
 8899TIP3   OH226660   1.893   1.684   1.510 -0.5855  0.1729 -0.2450
 8899TIP3    H126661   1.981   1.657   1.483 -0.6228 -0.8590  0.6125
 8899TIP3    H226662   1.840   1.679   1.430  0.1421  0.8560 -0.7733
 8900TIP3   OH226663   6.360   5.817   4.293  0.5924  0.1044 -0.7478
 8900TIP3    H126664   6.410   5.823   4.212 -0.7143 -1.3954 -1.6896
 8900TIP3    H226665   6.371   5.727   4.323 -0.1174  0.2408 -0.0380
 8901TIP3   OH226666   2.621   2.534   0.536 -0.0416  0.4372  0.4831
 8901TIP3    H126667   2.535   2.574   0.529  0.0457  0.4415 -0.6676
 8901TIP3    H226668   2.615   2.477   0.613 -1.1954  0.1117  0.1583
 8902TIP3   OH226669   1.517   1.286   0.947  0.3207 -0.2683 -0.0065
 8902TIP3    H126670   1.442   1.238   0.913 -0.0003  0.9327 -1.0476
 8902TIP3    H226671   1.522   1.263   1.039 -2.4319  1.0560  0.5001
 8903TIP3   OH226672   2.380   1.009   1.008 -0.5428  0.4655 -0.7276
 8903TIP3    H126673   2.438   1.052   1.071 -1.4459  1.5371 -0.5970
 8903TIP3    H226674   2.433   1.001   0.928  0.2308  0.1439 -0.1919
 8904TIP3   OH226675   7.305   4.918   5.536  0.7072  0.1597  0.2135
 8904TIP3    H126676   7.369   4.989   5.528  0.9964 -0.2113 -0.9342
 8904TIP3    H226677   7.227   4.950   5.491  0.6566 -0.0388  0.1594
 8905TIP3   OH226678   2.964   2.275   0.257  0.1553  0.3616  0.2026
 8905TIP3    H126679   2.976   2.300   0.348  3.7972  0.2786 -0.1767
 8905TIP3    H226680   2.930   2.354   0.215  1.1157  1.2748  1.1166
 8906TIP3   OH226681   4.904   1.538   0.505  0.4154 -0.2447 -0.0614
 8906TIP3    H126682   4.864   1.465   0.551  0.4276 -1.3584 -1.7751
 8906TIP3    H226683   4.996   1.515   0.497  0.4662  0.0561 -0.3899
 8907TIP3   OH226684   5.315   5.059   4.806  0.1679 -0.3289  0.1194
 8907TIP3    H126685   5.389   5.000   4.818  0.5087 -0.3667 -1.9115
 8907TIP3    H226686   5.239   5.010   4.835  0.4765 -1.7017 -1.3221
 8908TIP3   OH226687   0.044   6.871   2.558 -0.0906 -0.1796  0.3427
 8908TIP3    H126688  -0.003   6.788   2.545 -0.8347  0.1415  0.9893
 8908TIP3    H226689   0.088   6.860   2.642  0.7181 -0.3390 -0.0932
 8909TIP3   OH226690   5.639   4.326   4.935  0.9148  0.9738  0.1632
 8909TIP3    H126691   5.547   4.323   4.959  1.1920  2.1755  1.4098
 8909TIP3    H226692   5.657   4.240   4.895 -0.1319 -0.1604  2.1071
 8910TIP3   OH226693   4.567   5.697   3.649 -0.6487  0.4487 -0.4374
 8910TIP3    H126694   4.593   5.653   3.730 -0.1992 -0.5420 -1.1129
 8910TIP3    H226695   4.537   5.783   3.678  1.1952  0.7802  0.5971
 8911TIP3   OH226696   4.416   4.813   4.861 -0.1454  0.6111  0.0226
 8911TIP3    H126697   4.498   4.843   4.822 -0.3330 -2.1242 -2.6696
 8911TIP3    H226698   4.348   4.855   4.808 -0.4187 -0.3707 -0.4249
 8912TIP3   OH226699   4.457   6.205   5.500  0.2336 -0.0453  0.3675
 8912TIP3    H126700   4.513   6.269   5.543 -0.4288 -0.3666  1.7136
 8912TIP3    H226701   4.457   6.129   5.558  0.4521 -1.0167 -0.8742
 8913TIP3   OH226702   0.590   1.271   0.815 -0.3333  0.1068  0.0019
 8913TIP3    H126703   0.608   1.354   0.771 -0.2412  1.0954  1.8879
 8913TIP3    H226704   0.502   1.280   0.850  0.1429 -0.1152  1.2826
 8914TIP3   OH226705   7.020   5.743   3.552  0.2998 -0.2260 -0.4124
 8914TIP3    H126706   6.932   5.778   3.566  0.3831  0.4482 -1.5362
 8914TIP3    H226707   7.014   5.652   3.581 -0.5593  0.0266  0.2451
 8915TIP3   OH226708   5.347   6.305   5.040 -0.1207 -0.3446  0.1347
 8915TIP3    H126709   5.379   6.216   5.054 -1.1690 -0.6772  0.4882
 8915TIP3    H226710   5.301   6.301   4.956  2.4844  0.6263 -1.4011
 8916TIP3   OH226711   7.032   4.894   3.876 -0.3354  0.1138  0.1260
 8916TIP3    H126712   7.007   4.953   3.947 -0.5806  1.0252 -0.7060
 8916TIP3    H226713   7.005   4.940   3.796 -2.5266 -2.0795 -0.4446
 8917TIP3   OH226714   4.955   4.276   4.521  0.5276  0.2288 -0.1021
 8917TIP3    H126715   4.877   4.305   4.569  0.1771  0.1717 -0.6347
 8917TIP3    H226716   5.017   4.251   4.590 -0.3952 -0.9712  0.3144
 8918TIP3   OH226717   1.531   4.350   5.165  0.2183 -0.3226 -0.1366
 8918TIP3    H126718   1.471   4.399   5.109 -0.8433 -0.8846  0.5090
 8918TIP3    H226719   1.607   4.333   5.109 -0.5102 -0.2172 -1.1642
 8919TIP3   OH226720   4.394   5.878   5.406 -0.1991 -0.2687  0.2912
 8919TIP3    H126721   4.438   5.872   5.490 -0.2427 -0.6132  0.2917
 8919TIP3    H226722   4.303   5.855   5.425  0.0744 -1.7224 -0.0843
 8920TIP3   OH226723   2.573   1.989   2.504 -0.2000 -0.3278 -0.4309
 8920TIP3    H126724   2.585   1.969   2.412 -0.9741 -4.6072  0.2849
 8920TIP3    H226725   2.644   1.942   2.548  0.4688  2.0743  1.1514
 8921TIP3   OH226726   3.902   3.321   4.237 -0.1787 -0.1370 -0.1522
 8921TIP3    H126727   3.897   3.415   4.222  1.0861 -0.1840 -0.9266
 8921TIP3    H226728   3.914   3.312   4.332 -1.6459  0.4104  0.1040
 8922TIP3   OH226729   4.955   4.296   3.641  0.0699 -0.4513  0.2710
 8922TIP3    H126730   5.018   4.367   3.635  0.0637 -0.6423 -3.5676
 8922TIP3    H226731   4.976   4.239   3.567 -3.9889 -0.9520 -0.6587
 8923TIP3   OH226732   4.329   0.311   4.670 -0.1017  0.3598  0.3321
 8923TIP3    H126733   4.399   0.376   4.680  0.9518  0.1795 -4.5146
 8923TIP3    H226734   4.372   0.227   4.686  0.3278  0.4112 -0.4817
 8924TIP3   OH226735   7.059   6.813   5.614 -0.3954 -0.2387  0.3590
 8924TIP3    H126736   7.093   6.857   5.692 -1.0331  1.4876 -0.3043
 8924TIP3    H226737   7.136   6.789   5.563 -0.0031 -0.8083  1.2156
 8925TIP3   OH226738   7.282   3.650   5.906 -0.4294 -0.3162  0.4620
 8925TIP3    H126739   7.320   3.630   5.992  3.0725  0.1341 -0.8893
 8925TIP3    H226740   7.302   3.572   5.853 -1.5896 -0.1311 -0.2664
 8926TIP3   OH226741   4.987   4.646   3.881 -0.1896  0.5611 -0.0314
 8926TIP3    H126742   4.921   4.618   3.944 -0.0069  0.6350  0.1926
 8926TIP3    H226743   4.943   4.641   3.796 -0.7270  1.3349  0.1907
 8927TIP3   OH226744   2.877   2.764   1.623  0.1064  0.2954 -0.0393
 8927TIP3    H126745   2.845   2.844   1.581  1.9668  1.3093  0.4228
 8927TIP3    H226746   2.801   2.728   1.668 -0.4555  2.4913  0.7889
 8928TIP3   OH226747   4.300   2.918   5.255  0.0195  0.3056 -0.2798
 8928TIP3    H126748   4.217   2.936   5.299  0.3866  0.4700  0.3571
 8928TIP3    H226749   4.285   2.838   5.204 -0.2977 -0.0931  0.4417
 8929TIP3   OH226750   5.847   4.808   5.370  0.0372 -0.0591 -0.5890
 8929TIP3    H126751   5.767   4.758   5.385 -0.1399  0.7219  1.2033
 8929TIP3    H226752   5.818   4.889   5.327 -0.3587  0.9252  1.4698
 8930TIP3   OH226753   3.762   1.373   1.874  0.0333  0.1010  0.4091
 8930TIP3    H126754   3.671   1.400   1.869  0.0312  0.0047 -0.0516
 8930TIP3    H226755   3.804   1.413   1.798 -0.0623 -1.5219 -0.5146
 8931TIP3   OH226756   3.569   2.583   0.813 -0.2435 -0.4301  0.6699
 8931TIP3    H126757   3.583   2.605   0.905 -0.9245 -1.6766  1.0854
 8931TIP3    H226758   3.641   2.522   0.792  1.3117  1.6942 -0.3117
 8932TIP3   OH226759   2.853   0.733   1.195 -0.1937  0.3214  0.6336
 8932TIP3    H126760   2.840   0.730   1.289  0.0119 -1.1917  0.6279
 8932TIP3    H226761   2.913   0.661   1.176 -1.8581 -0.7158 -0.8844
 8933TIP3   OH226762   2.554   5.075   4.131 -0.3357 -0.3932 -0.2951
 8933TIP3    H126763   2.606   5.096   4.208 -0.0319 -0.5358 -0.4602
 8933TIP3    H226764   2.489   5.012   4.163 -1.1083  0.6271  0.1460
 8934TIP3   OH226765   1.225   0.483   0.662  0.2533 -0.1691  0.1560
 8934TIP3    H126766   1.247   0.447   0.747  0.3066 -2.1804 -0.6967
 8934TIP3    H226767   1.167   0.557   0.682 -0.2133 -0.9807  1.9005
 8935TIP3   OH226768   5.500   6.569   5.748  0.4538 -0.2784  0.5764
 8935TIP3    H126769   5.525   6.615   5.669 -1.8073  2.2811  1.2918
 8935TIP3    H226770   5.410   6.539   5.731  0.7146 -1.5690  1.3796
 8936TIP3   OH226771   5.155   3.699   4.789  0.5777 -0.1306  0.0244
 8936TIP3    H126772   5.144   3.710   4.884  3.3346  0.8802  0.2801
 8936TIP3    H226773   5.114   3.615   4.770 -0.1335 -0.2934  2.0873
 8937TIP3   OH226774   6.265   0.777   0.630  0.0515 -0.1326  0.2037
 8937TIP3    H126775   6.356   0.806   0.619  0.0459 -0.2296 -0.0759
 8937TIP3    H226776   6.273   0.684   0.654 -0.0219 -0.4086 -0.8447
 8938TIP3   OH226777   6.651   6.244   3.750  0.0055  0.4693  0.3257
 8938TIP3    H126778   6.615   6.270   3.666 -0.5735 -0.2758  0.3430
 8938TIP3    H226779   6.582   6.262   3.813 -0.4564 -1.1730  0.3268
 8939TIP3   OH226780   2.494   2.101   4.114 -0.7984  0.1689  0.5348
 8939TIP3    H126781   2.534   2.160   4.179  1.1780  0.3228 -0.7694
 8939TIP3    H226782   2.550   2.023   4.115  0.3536  0.9183 -2.2819
 8940TIP3   OH226783   5.596   5.965   5.557  0.5058 -0.1742 -0.2014
 8940TIP3    H126784   5.645   6.042   5.587  0.8787 -0.0862 -1.0448
 8940TIP3    H226785   5.622   5.896   5.617  0.4617  0.2570  0.3246
 8941TIP3   OH226786   2.483   3.115   1.101 -0.0042  0.2036  0.3425
 8941TIP3    H126787   2.502   3.152   1.014 -0.4028 -3.0036 -1.1938
 8941TIP3    H226788   2.569   3.093   1.137  0.1084  0.6510  0.3495
 8942TIP3   OH226789   0.966   1.743   1.294 -0.1245  0.0892 -0.0438
 8942TIP3    H126790   1.024   1.760   1.368 -0.7787  0.8156  0.3126
 8942TIP3    H226791   0.885   1.712   1.334 -0.8857  1.6014 -0.3838
 8943TIP3   OH226792   4.270   2.639   0.573 -0.6040  0.5438 -0.0360
 8943TIP3    H126793   4.297   2.555   0.610 -1.0043  0.2465 -0.4164
 8943TIP3    H226794   4.176   2.643   0.589 -1.4423 -1.1195 -3.9821
 8944TIP3   OH226795   2.908   2.025   0.314  0.2669  0.3081 -0.0309
 8944TIP3    H126796   2.938   2.106   0.273 -0.7932  0.1368 -1.1743
 8944TIP3    H226797   2.813   2.034   0.320  0.2002 -0.5897  0.3890
 8945TIP3   OH226798   5.181   2.121   2.787 -0.1971  0.0475  0.5685
 8945TIP3    H126799   5.100   2.168   2.768 -0.5563 -1.1655 -0.9550
 8945TIP3    H226800   5.213   2.092   2.702  1.6136  0.1185  1.1943
 8946TIP3   OH226801   2.342   2.948   1.350  0.5965  0.1347 -0.5717
 8946TIP3    H126802   2.372   3.019   1.293 -0.6011  0.7759 -0.4171
 8946TIP3    H226803   2.277   2.902   1.298  0.8613 -0.4188 -0.4109
 8947TIP3   OH226804   3.724   5.370   4.472 -0.5071  0.0261 -0.1608
 8947TIP3    H126805   3.676   5.348   4.392  0.5118  0.7885 -0.9907
 8947TIP3    H226806   3.656   5.379   4.539 -1.2561 -2.0986 -0.5808
 8948TIP3   OH226807   3.707   5.498   5.011  0.3044 -0.3290  0.3923
 8948TIP3    H126808   3.777   5.552   5.048  1.0468  0.4659 -2.0753
 8948TIP3    H226809   3.694   5.533   4.923 -3.0827 -0.5928  0.7146
 8949TIP3   OH226810   4.742   4.856   0.486 -0.1676  0.2578 -0.0081
 8949TIP3    H126811   4.727   4.864   0.581  0.5318 -0.8748  0.2083
 8949TIP3    H226812   4.758   4.945   0.457 -1.1241  0.7148  0.8158
 8950TIP3   OH226813   3.937   4.834   5.225 -0.2179 -0.1778 -0.2793
 8950TIP3    H126814   4.000   4.765   5.247  1.8366  1.9594  0.9062
 8950TIP3    H226815   3.975   4.877   5.148 -0.2797  1.0431  0.3553
 8951TIP3   OH226816   5.185   4.373   5.167  0.4939 -0.5727  0.0466
 8951TIP3    H126817   5.092   4.379   5.145  0.5366  2.9353  0.5686
 8951TIP3    H226818   5.187   4.361   5.262  0.5486  1.7547  0.3770
 8952TIP3   OH226819   5.180   5.318   5.966  0.5267 -0.5468  0.2888
 8952TIP3    H126820   5.152   5.281   5.883  1.4711 -1.4971  0.3877
 8952TIP3    H226821   5.169   5.248   6.029  0.5635 -0.0791  0.8188
 8953TIP3   OH226822   6.797   5.019   4.533  0.0267 -0.0332  0.0059
 8953TIP3    H126823   6.876   5.073   4.529 -0.1034  0.2490  1.2314
 8953TIP3    H226824   6.757   5.029   4.447 -0.5216  2.6033  0.5389
 8954TIP3   OH226825   6.435   2.724   5.611 -0.2005  0.4697 -0.5758
 8954TIP3    H126826   6.484   2.802   5.585  0.4665 -0.4252 -2.0834
 8954TIP3    H226827   6.362   2.758   5.662 -0.4670  2.1615 -2.0206
 8955TIP3   OH226828   5.562   3.632   4.505 -0.5207  0.2918  0.3397
 8955TIP3    H126829   5.603   3.588   4.580  1.0773  1.3734  0.1415
 8955TIP3    H226830   5.636   3.658   4.450 -1.6513  0.0189 -1.3369
 8956TIP3   OH226831   2.345   4.392   5.500 -0.3231 -0.0670  0.1245
 8956TIP3    H126832   2.267   4.350   5.464  0.4573 -0.5889 -0.9654
 8956TIP3    H226833   2.369   4.458   5.436  0.7765 -0.6524 -0.0785
 8957TIP3   OH226834   3.076   2.416   4.931  0.3804 -0.3125  0.4877
 8957TIP3    H126835   3.116   2.330   4.945  1.2392 -0.4375 -2.3677
 8957TIP3    H226836   2.982   2.400   4.930  0.5085 -1.0846  0.9075
 8958TIP3   OH226837   2.277   6.902   0.223  0.1943  0.3776 -0.1251
 8958TIP3    H126838   2.315   6.842   0.288 -0.4970 -0.3686 -0.4059
 8958TIP3    H226839   2.224   6.846   0.167 -1.1332  1.3864  0.1044
 8959TIP3   OH226840   1.197   1.335   1.175  0.5237 -0.7481  0.1499
 8959TIP3    H126841   1.286   1.325   1.140  1.0063 -1.6795  1.5716
 8959TIP3    H226842   1.148   1.378   1.105  2.7459  2.2586  0.3380
 8960TIP3   OH226843   5.793   4.296   5.391 -0.1350 -0.0762 -0.0018
 8960TIP3    H126844   5.818   4.217   5.440 -3.1198 -2.3769 -1.9590
 8960TIP3    H226845   5.735   4.343   5.451  1.0900  0.2674  0.9168
 8961TIP3   OH226846   6.923   6.437   0.030 -0.2277  0.5886 -0.2839
 8961TIP3    H126847   7.003   6.411  -0.015 -1.7144 -0.8951 -2.1287
 8961TIP3    H226848   6.925   6.389   0.113 -0.1620 -1.0000 -1.1886
 8962TIP3   OH226849   0.797   1.271   1.053  0.4473 -0.0481 -0.2939
 8962TIP3    H126850   0.715   1.253   1.009 -0.9892 -0.2371  2.3352
 8962TIP3    H226851   0.783   1.355   1.097  1.9245  0.2972 -0.4674
 8963TIP3   OH226852   6.606   0.373   3.612 -0.1755  0.8556 -0.6875
 8963TIP3    H126853   6.622   0.413   3.697 -2.0058 -0.2689  0.2106
 8963TIP3    H226854   6.678   0.404   3.557  0.3874  2.5179  0.9387
 8964TIP3   OH226855   5.301   5.897   3.235  0.0204 -0.5827 -0.1171
 8964TIP3    H126856   5.242   5.903   3.160 -0.5019 -1.2473  0.2441
 8964TIP3    H226857   5.350   5.815   3.220  1.0015  0.0628 -0.5224
 8965TIP3   OH226858   5.740   1.524   4.823 -0.5958 -0.2275  0.0604
 8965TIP3    H126859   5.647   1.526   4.845 -0.6598  2.5885 -0.2827
 8965TIP3    H226860   5.767   1.616   4.823  1.3192 -0.6870 -3.4353
 8966TIP3   OH226861   3.063   1.399   1.876 -0.1395 -0.4838 -0.1592
 8966TIP3    H126862   3.044   1.311   1.908  0.0306 -0.4640 -0.0074
 8966TIP3    H226863   2.981   1.427   1.834  0.6228 -1.7451 -2.5814
 8967TIP3   OH226864   5.217   1.355   2.861  0.8022 -0.3115 -0.7824
 8967TIP3    H126865   5.304   1.388   2.881 -0.1096  1.2484  0.8350
 8967TIP3    H226866   5.206   1.280   2.919  1.0467 -0.4738 -0.9457
 8968TIP3   OH226867   5.373   5.647   5.917 -0.0133 -0.2860 -0.2300
 8968TIP3    H126868   5.448   5.595   5.947 -0.1033 -0.3958 -0.1956
 8968TIP3    H226869   5.309   5.641   5.989 -0.6183 -1.3347 -0.8488
 8969TIP3   OH226870   3.716   2.013   0.580 -0.5609 -0.1027 -0.2892
 8969TIP3    H126871   3.680   1.927   0.559 -1.5900  0.1167  0.5162
 8969TIP3    H226872   3.734   2.053   0.495  0.8297 -1.4856 -0.6522
 8970TIP3   OH226873   3.077   1.219   0.459 -0.0052 -0.1458  0.2329
 8970TIP3    H126874   3.063   1.168   0.539 -0.4966 -0.3729  0.0030
 8970TIP3    H226875   3.140   1.286   0.485 -0.9452  0.4177  1.0801
 8971TIP3   OH226876   0.768   3.398   4.951  0.3222  0.0403 -0.0694
 8971TIP3    H126877   0.697   3.342   4.920 -0.6186  0.1072  1.9175
 8971TIP3    H226878   0.787   3.367   5.040 -0.1737  2.7750  1.0465
 8972TIP3   OH226879   0.504   6.034   3.550 -0.0804 -0.1744  0.0435
 8972TIP3    H126880   0.409   6.045   3.543  0.1155  2.8868  1.2061
 8972TIP3    H226881   0.517   5.993   3.635 -0.4043 -1.4539 -0.5200
 8973TIP3   OH226882   6.683   5.811   5.126 -0.7127 -0.1015  0.2348
 8973TIP3    H126883   6.776   5.792   5.140 -1.0691 -2.6993 -0.5241
 8973TIP3    H226884   6.666   5.891   5.176  1.9217  0.3972  0.3735
 8974TIP3   OH226885   5.302   5.846   4.554 -0.1024  0.5119  0.2711
 8974TIP3    H126886   5.222   5.795   4.573  0.4448 -0.1271  0.9384
 8974TIP3    H226887   5.364   5.781   4.520  0.6275  0.6987  1.1956
 8975TIP3   OH226888   4.413   0.373   0.181 -0.2364 -0.1248 -0.2292
 8975TIP3    H126889   4.392   0.430   0.107 -4.4325 -3.0647 -1.5016
 8975TIP3    H226890   4.483   0.316   0.149  1.1019  1.5070 -0.3092
 8976TIP3   OH226891   0.009   5.756   4.408  0.0025 -0.1588 -0.3651
 8976TIP3    H126892  -0.065   5.791   4.458  0.6309  0.5214  0.0956
 8976TIP3    H226893   0.087   5.788   4.454  0.6056  1.0901 -2.1786
 8977TIP3   OH226894   1.959   4.349   3.763 -0.1845 -0.5376  0.5196
 8977TIP3    H126895   2.019   4.418   3.734  0.0960 -1.1720 -0.4343
 8977TIP3    H226896   1.986   4.271   3.713 -0.0350 -1.5191  2.0907
 8978TIP3   OH226897   4.922   5.535   5.485 -0.4341  0.2358  0.6247
 8978TIP3    H126898   4.895   5.605   5.545  1.4190  0.9609  0.6320
 8978TIP3    H226899   4.869   5.549   5.407  0.8911  2.5395  0.0798
 8979TIP3   OH226900   0.073   6.323   4.426  0.1645 -0.3538 -0.1844
 8979TIP3    H126901  -0.014   6.289   4.405 -0.7074  1.3193  0.6382
 8979TIP3    H226902   0.088   6.394   4.364  0.8036 -0.3997 -0.0921
 8980TIP3   OH226903   4.359   1.157   0.334  0.9082  0.0125 -0.2226
 8980TIP3    H126904   4.392   1.074   0.368 -0.5190 -0.0522  1.0285
 8980TIP3    H226905   4.286   1.133   0.277  1.1476  0.3439 -0.6758
 8981TIP3   OH226906   0.395   5.700   3.452  0.2315  0.2853 -0.0332
 8981TIP3    H126907   0.346   5.738   3.525  2.1142  2.2673  0.2470
 8981TIP3    H226908   0.392   5.606   3.468  0.0476  0.6471  2.2410
 8982TIP3   OH226909   6.809   2.902   5.954  0.1776  0.1707 -0.2041
 8982TIP3    H126910   6.793   2.824   6.007  0.7826  1.3715  1.7885
 8982TIP3    H226911   6.734   2.958   5.971  0.8904  1.0031  0.1991
 8983TIP3   OH226912   1.503   4.865   3.831 -0.3755  0.3116 -0.6303
 8983TIP3    H126913   1.510   4.960   3.840 -1.4779  0.5950 -2.4810
 8983TIP3    H226914   1.411   4.850   3.807  0.5873 -0.9203 -3.7596
 8984TIP3   OH226915   0.072   5.733   5.157  0.8261  0.0468  0.4048
 8984TIP3    H126916   0.151   5.679   5.154  0.4710 -0.4171 -0.8980
 8984TIP3    H226917   0.045   5.741   5.066 -0.4540  0.4710  0.8144
 8985TIP3   OH226918   6.196   4.128   4.394 -0.6187  0.1653  0.6427
 8985TIP3    H126919   6.277   4.142   4.345  0.0206 -0.4066  1.5278
 8985TIP3    H226920   6.157   4.215   4.401  0.3351  0.5711  0.9317
 8986TIP3   OH226921   0.602   6.636   1.046  0.1264  0.1749  0.2814
 8986TIP3    H126922   0.585   6.721   1.087  0.3108  0.8434 -1.0053
 8986TIP3    H226923   0.671   6.654   0.982 -0.5157 -0.7380 -0.6816
 8987TIP3   OH226924   3.759   4.528   5.035  0.2221 -0.2784  0.4432
 8987TIP3    H126925   3.712   4.511   4.954 -1.0343  1.3597  0.8214
 8987TIP3    H226926   3.815   4.603   5.016  0.5791 -0.4322  0.8568
 8988TIP3   OH226927   0.665   5.490   4.276 -0.1363  0.0700  0.3779
 8988TIP3    H126928   0.733   5.515   4.338  0.9235 -0.6764 -0.4595
 8988TIP3    H226929   0.584   5.496   4.326  0.6719 -0.3383  1.7755
 8989TIP3   OH226930   7.243   6.338   5.181  0.0367 -0.6809 -0.1813
 8989TIP3    H126931   7.325   6.345   5.230 -0.7100 -1.1168  1.1536
 8989TIP3    H226932   7.182   6.299   5.243 -1.3588  0.2460 -0.9656
 8990TIP3   OH226933   7.081   5.300   3.374  0.0392  0.0754  0.1880
 8990TIP3    H126934   7.057   5.377   3.322  2.0127 -0.4568 -1.5598
 8990TIP3    H226935   7.022   5.231   3.343 -1.5467  0.7635  1.5661
 8991TIP3   OH226936   7.205   4.795   2.960  0.5148  0.2071  0.0292
 8991TIP3    H126937   7.187   4.889   2.964  0.7172  0.2835 -0.7188
 8991TIP3    H226938   7.142   4.762   2.896 -0.0531 -0.2882  0.8460
 8992TIP3   OH226939   6.740   4.143   4.295 -0.0236  0.0540 -0.0215
 8992TIP3    H126940   6.711   4.054   4.315 -0.6990 -0.2667 -2.3042
 8992TIP3    H226941   6.762   4.141   4.202  0.9030  2.0273  0.1371
 8993TIP3   OH226942   1.806   0.492   2.410  0.2443  0.1590  0.5650
 8993TIP3    H126943   1.864   0.426   2.448  2.3218  1.2870 -0.5712
 8993TIP3    H226944   1.825   0.488   2.316 -0.2893  1.7433  0.3867
 8994TIP3   OH226945   2.311   1.148   0.488 -0.0023 -0.3720  0.1034
 8994TIP3    H126946   2.293   1.152   0.582  0.5020 -0.6187  0.2116
 8994TIP3    H226947   2.244   1.203   0.449 -1.5379 -1.9434  0.4380
 8995TIP3   OH226948   6.916   5.463   3.559  0.3780  0.2823  0.4359
 8995TIP3    H126949   6.878   5.469   3.646  1.3344  1.9045  0.7390
 8995TIP3    H226950   6.848   5.498   3.501 -0.0569 -0.3316  0.5649
 8996TIP3   OH226951   7.170   6.155   3.737  0.0432 -0.2183 -0.5801
 8996TIP3    H126952   7.111   6.229   3.749  2.6877  2.1626 -1.6481
 8996TIP3    H226953   7.201   6.135   3.825  0.2801  0.8136 -0.4174
 8997TIP3   OH226954   5.619   5.850   3.696 -0.2940  0.7170  0.3018
 8997TIP3    H126955   5.675   5.810   3.629  0.6482  1.8505  0.3887
 8997TIP3    H226956   5.603   5.938   3.663 -1.4388  0.6385  0.6420
 8998TIP3   OH226957   2.301   4.299   3.317 -0.4466  0.2772 -0.4429
 8998TIP3    H126958   2.297   4.367   3.250 -1.1123  0.1231 -0.5632
 8998TIP3    H226959   2.328   4.220   3.269 -2.4821 -0.2053 -0.8326
 8999TIP3   OH226960   1.383   5.735   5.126  0.5755 -0.4544 -0.1854
 8999TIP3    H126961   1.360   5.649   5.161  0.7312  0.3531  1.9183
 8999TIP3    H226962   1.316   5.752   5.059 -0.5061 -1.4373  0.6244
 9000TIP3   OH226963   6.698   6.736   5.739 -0.2471  0.0278  0.1551
 9000TIP3    H126964   6.746   6.815   5.767  1.2628 -0.3652 -1.2510
 9000TIP3    H226965   6.766   6.670   5.725 -1.4086 -1.2113  0.2526
 9001TIP3   OH226966   5.604   6.713   5.539 -0.1279  0.7819  0.7650
 9001TIP3    H126967   5.587   6.774   5.467  1.5101  0.0409 -0.2887
 9001TIP3    H226968   5.700   6.715   5.549 -0.2356 -0.0995  2.0569
 9002TIP3   OH226969   7.019   5.640   5.732  0.1893  0.1568  0.4468
 9002TIP3    H126970   7.099   5.595   5.759  0.4501  0.6722  0.5357
 9002TIP3    H226971   7.042   5.733   5.732  0.0830  0.1916 -1.2324
 9003TIP3   OH226972   0.026   0.132   2.560  0.9378  0.3075 -0.0439
 9003TIP3    H126973   0.021   0.144   2.465  0.5323  1.5956  0.1335
 9003TIP3    H226974  -0.043   0.070   2.580  0.3219  0.8461 -0.4639
 9004TIP3   OH226975   6.449   5.560   3.499 -0.0843 -0.0687  0.2402
 9004TIP3    H126976   6.373   5.591   3.449 -0.5554 -0.1891  0.8799
 9004TIP3    H226977   6.420   5.562   3.590  0.6702 -0.1560  0.4818
 9005TIP3   OH226978   1.717   1.154   0.771 -0.1404  0.4172  0.0939
 9005TIP3    H126979   1.656   1.221   0.801 -1.1338 -0.5304  0.2193
 9005TIP3    H226980   1.673   1.071   0.788  0.1565 -0.2228 -2.0189
 9006TIP3   OH226981   0.626   4.548   5.121  0.1754 -0.0461  0.3675
 9006TIP3    H126982   0.542   4.581   5.154 -0.4560 -1.8647  0.6207
 9006TIP3    H226983   0.688   4.619   5.138 -1.2938  1.2881  0.2358
 9007TIP3   OH226984   7.046   3.388   5.833  0.6599 -0.2591  0.3226
 9007TIP3    H126985   7.059   3.297   5.808  1.7698 -0.1018  0.2661
 9007TIP3    H226986   7.005   3.385   5.919  0.7098 -0.8191  0.3235
 9008TIP3   OH226987   7.268   4.111   5.585 -0.5456 -0.1181 -0.2241
 9008TIP3    H126988   7.246   4.154   5.667 -0.3729 -2.0007  0.8342
 9008TIP3    H226989   7.233   4.022   5.594 -0.4438 -0.3767 -2.1424
 9009TIP3   OH226990   6.488   3.951   4.008 -0.2871 -0.4387  0.2325
 9009TIP3    H126991   6.545   3.884   4.046  0.8044  0.9875  1.1646
 9009TIP3    H226992   6.525   3.968   3.921 -0.4315 -0.8813  0.0836
 9010TIP3   OH226993   4.852   4.915   4.973 -0.4799 -0.0987 -0.5134
 9010TIP3    H126994   4.830   4.835   5.021  0.3700  0.0119  0.0671
 9010TIP3    H226995   4.833   4.986   5.034  1.7656 -0.0145  0.1255
 9011TIP3   OH226996   2.318   5.014   0.300 -0.1459 -0.1232  0.2243
 9011TIP3    H126997   2.372   5.037   0.375  0.5246  0.3289 -0.3943
 9011TIP3    H226998   2.243   5.073   0.306 -0.1736 -0.1951  0.6235
 9012TIP3   OH226999   1.787   6.489   0.607  0.4890 -0.1022 -0.1644
 9012TIP3    H127000   1.862   6.431   0.596  0.2528  0.0993 -3.2105
 9012TIP3    H227001   1.802   6.561   0.546 -1.9981  0.0862 -0.6330
 9013TIP3   OH227002   1.015   4.507   5.553 -0.1937 -0.0832  0.4005
 9013TIP3    H127003   1.019   4.418   5.589  0.5819 -0.3334 -0.2861
 9013TIP3    H227004   1.039   4.563   5.627  0.5615 -0.5376  0.5063
 9014TIP3   OH227005   0.286   5.147   6.016 -0.3955  0.0558 -0.8438
 9014TIP3    H127006   0.265   5.224   6.069  2.0716  0.2151 -0.0099
 9014TIP3    H227007   0.299   5.183   5.928  0.3048  0.5462 -0.5488
 9015TIP3   OH227008   6.926   3.818   4.749 -0.7731  0.1720  0.5313
 9015TIP3    H127009   6.856   3.753   4.745 -1.2217  0.7286 -1.5270
 9015TIP3    H227010   6.882   3.899   4.778 -1.3298  0.8778 -2.0959
 9016TIP3   OH227011   7.074   5.324   2.010 -1.0909 -0.2832  0.5178
 9016TIP3    H127012   7.019   5.381   1.955  0.8970  1.2966  0.1015
 9016TIP3    H227013   7.103   5.255   1.950 -0.8207  0.1261  0.1730
 9017TIP3   OH227014   4.580   5.761   4.662  0.3701  0.0239  0.2493
 9017TIP3    H127015   4.535   5.709   4.728  1.5224 -2.4444 -0.8706
 9017TIP3    H227016   4.511   5.787   4.601 -0.0009 -1.4524  0.0236
 9018TIP3   OH227017   3.109   0.443   4.742 -0.0115 -0.4893 -0.1454
 9018TIP3    H127018   3.186   0.486   4.781 -0.4942 -0.1677  0.4616
 9018TIP3    H227019   3.061   0.515   4.701  0.5675 -0.8469 -1.4789
 9019TIP3   OH227020   3.826   4.892   3.138  0.2273  0.6922  0.2360
 9019TIP3    H127021   3.806   4.986   3.131 -0.8173  0.4538  0.0288
 9019TIP3    H227022   3.824   4.861   3.048  1.9973  0.7506  0.1594
 9020TIP3   OH227023   5.233   2.195   0.133  0.1774  0.1115  0.6202
 9020TIP3    H127024   5.284   2.228   0.059  0.1363 -0.5603  0.2897
 9020TIP3    H227025   5.147   2.175   0.096  0.0122  0.2138  0.9474
 9021TIP3   OH227026   7.138   5.261   4.233  0.8676 -0.5240  0.5459
 9021TIP3    H127027   7.130   5.356   4.226  1.5566 -0.4991 -0.0099
 9021TIP3    H227028   7.078   5.237   4.304 -0.6277  0.1133 -0.4889
 9022TIP3   OH227029   5.108   5.617   3.982  0.1223  0.1057 -0.3571
 9022TIP3    H127030   5.050   5.541   3.988  0.1342  0.2535  2.0630
 9022TIP3    H227031   5.179   5.588   3.925 -0.9943 -0.9395 -1.2415
 9023TIP3   OH227032   4.505   0.442   0.982  0.0759  0.3326 -0.4180
 9023TIP3    H127033   4.511   0.399   0.897 -0.8729  1.8371 -1.2499
 9023TIP3    H227034   4.592   0.480   0.996  0.7708 -1.4072  0.1002
 9024TIP3   OH227035   6.843   3.791   5.117  0.3024 -0.2214  0.4241
 9024TIP3    H127036   6.858   3.701   5.090  0.9993 -0.6580  2.2568
 9024TIP3    H227037   6.930   3.827   5.134  0.0079  0.7118  0.0587
 9025TIP3   OH227038   0.063   5.193   3.789  0.2646  0.2383 -0.0161
 9025TIP3    H127039   0.143   5.142   3.802  0.6709  0.7467 -0.4836
 9025TIP3    H227040   0.044   5.233   3.874  1.2451  1.1687 -0.2243
 9026TIP3   OH227041   1.495   4.570   4.085  0.4895 -0.1460  0.0797
 9026TIP3    H127042   1.434   4.526   4.026 -0.4629  2.0689 -0.6607
 9026TIP3    H227043   1.551   4.623   4.027 -0.8904  2.5787  1.1110
 9027TIP3   OH227044   6.412   6.755   4.431 -0.1282  0.3343  0.0548
 9027TIP3    H127045   6.447   6.835   4.392 -2.0322  0.9535 -0.4300
 9027TIP3    H227046   6.366   6.785   4.509  0.0685 -0.4159  0.4595
 9028TIP3   OH227047   0.121   5.573   3.939 -0.0700 -0.1181  0.2734
 9028TIP3    H127048   0.075   5.620   3.870  0.5713  1.4879  0.9056
 9028TIP3    H227049   0.083   5.606   4.020 -0.0478 -1.1653  0.7175
 9029TIP3   OH227050   2.697   0.687   0.968 -0.0551  0.0596 -0.0348
 9029TIP3    H127051   2.742   0.703   1.051 -0.3125 -0.5311  0.2237
 9029TIP3    H227052   2.682   0.592   0.967 -0.5411  0.1400 -0.5047
 9030TIP3   OH227053   6.389   3.994   2.919 -0.2297 -0.6952 -0.1612
 9030TIP3    H127054   6.304   3.950   2.909 -0.7746  0.3532 -0.2700
 9030TIP3    H227055   6.391   4.057   2.847  0.5789 -0.6091 -0.0599
 9031TIP3   OH227056   0.303   5.026   3.925 -0.1903  0.3625 -0.3531
 9031TIP3    H127057   0.351   4.982   3.996  2.7748  0.7961 -1.9938
 9031TIP3    H227058   0.314   4.967   3.850 -1.9395  0.6766 -0.8626
 9032TIP3   OH227059   6.073   3.756   5.500  0.3923  0.3679 -0.3647
 9032TIP3    H127060   5.991   3.785   5.541  0.0668  0.3780 -1.0223
 9032TIP3    H227061   6.142   3.792   5.557  0.0068  2.6828 -1.2972
 9033TIP3   OH227062   4.780   5.229   4.171 -0.0955 -0.6590 -0.0368
 9033TIP3    H127063   4.859   5.275   4.199 -1.5362  0.8590  1.6515
 9033TIP3    H227064   4.754   5.272   4.090 -2.0523  2.3799  2.0954
 9034TIP3   OH227065   6.083   6.055   5.603  0.0799  0.0285  0.3782
 9034TIP3    H127066   5.997   6.067   5.644 -0.8851 -0.3163 -1.4810
 9034TIP3    H227067   6.108   5.966   5.627  0.5877  0.6153  2.1022
 9035TIP3   OH227068   4.524   1.492   1.148 -0.4261 -0.1638  0.1620
 9035TIP3    H127069   4.582   1.551   1.196  0.1838 -0.7914  0.2036
 9035TIP3    H227070   4.476   1.549   1.087  0.7760  0.2669 -0.3917
 9036TIP3   OH227071   6.940   6.237   5.030 -0.2801  0.2136 -0.0423
 9036TIP3    H127072   6.991   6.242   5.111  0.0708  1.0074 -0.2974
 9036TIP3    H227073   6.852   6.215   5.058 -0.5381  2.1466  0.7227
 9037TIP3   OH227074   0.968  -0.005   4.096  0.1325 -0.2602 -0.0813
 9037TIP3    H127075   1.016   0.063   4.049  0.5991  0.2138  1.0790
 9037TIP3    H227076   0.923  -0.054   4.027 -0.9626  1.7995 -0.8795
 9038TIP3   OH227077   3.190   6.201   0.135 -0.7045 -0.3926  0.3308
 9038TIP3    H127078   3.194   6.280   0.081  0.4201  0.5180  1.6990
 9038TIP3    H227079   3.133   6.225   0.209  1.1480 -0.2158  1.7323
 9039TIP3   OH227080   0.149   2.651   3.772 -0.4100 -0.1247 -0.3472
 9039TIP3    H127081   0.150   2.635   3.866  3.5352 -2.0232 -0.6179
 9039TIP3    H227082   0.180   2.741   3.762  0.3588 -0.3325  0.1376
 9040TIP3   OH227083   4.802   6.502   5.774  0.5018 -0.2923  0.0226
 9040TIP3    H127084   4.714   6.468   5.757  0.8896 -1.1404 -0.2996
 9040TIP3    H227085   4.789   6.566   5.845 -0.6940  1.1712 -1.4504
 9041TIP3   OH227086   5.251   5.321   4.441 -0.5280  0.4341  0.3750
 9041TIP3    H127087   5.322   5.275   4.485 -0.1398  0.6349 -0.0445
 9041TIP3    H227088   5.181   5.256   4.432  1.4771 -1.2605 -3.8540
 9042TIP3   OH227089   1.690   5.294   4.208  0.0287  0.2058 -0.5808
 9042TIP3    H127090   1.705   5.309   4.302 -0.6756  1.5945 -0.6808
 9042TIP3    H227091   1.675   5.200   4.201 -2.4032  0.4285  1.0603
 9043TIP3   OH227092   7.284   6.507   2.882  0.1816 -0.4049  0.1652
 9043TIP3    H127093   7.369   6.498   2.838 -0.2169 -0.2813 -0.6478
 9043TIP3    H227094   7.229   6.441   2.841  0.3102 -1.5122  1.7634
 9044TIP3   OH227095   4.428   3.180   0.034  0.1333  0.0114  0.1304
 9044TIP3    H127096   4.495   3.247   0.025 -0.1037  0.2672  0.2660
 9044TIP3    H227097   4.408   3.154  -0.056 -0.7399  1.0871  0.0106
 9045TIP3   OH227098   0.306   5.303   3.967 -0.0634  0.3267 -0.5921
 9045TIP3    H127099   0.271   5.263   4.046 -1.6967 -0.3038 -1.5920
 9045TIP3    H227100   0.345   5.230   3.918 -1.1038  0.3090 -1.4159
 9046TIP3   OH227101   2.332   5.379   0.848  0.5120 -0.2880 -0.2800
 9046TIP3    H127102   2.369   5.381   0.936  1.3792 -0.1804 -0.6443
 9046TIP3    H227103   2.307   5.287   0.834 -0.7470 -0.0815  0.5324
 9047TIP3   OH227104   6.793   6.760   5.163 -0.2476 -0.5038 -0.3177
 9047TIP3    H127105   6.781   6.851   5.139 -0.1191 -0.5634 -0.6088
 9047TIP3    H227106   6.732   6.711   5.108  1.9764 -0.8958 -2.5179
 9048TIP3   OH227107   5.913   4.541   5.836 -0.4571  0.2013  0.2474
 9048TIP3    H127108   5.893   4.561   5.745  0.5694 -2.6380 -0.6639
 9048TIP3    H227109   5.835   4.496   5.869 -0.3758  0.1715  0.4032
 9049TIP3   OH227110   6.433   3.605   4.673  0.3645 -0.5013 -0.4345
 9049TIP3    H127111   6.343   3.588   4.699  0.9777  0.5777  2.6369
 9049TIP3    H227112   6.426   3.642   4.585 -2.1162 -1.0480 -0.4958
 9050TIP3   OH227113   6.464   6.618   5.195 -0.3438  0.3420 -0.1275
 9050TIP3    H127114   6.370   6.601   5.199 -0.0575 -1.1123  1.1574
 9050TIP3    H227115   6.480   6.647   5.105 -1.8192 -0.6302 -0.7190
 9051TIP3   OH227116   5.722   5.024   5.123 -0.3309 -0.3002 -0.3244
 9051TIP3    H127117   5.657   4.972   5.170 -0.2502 -1.8753 -1.9112
 9051TIP3    H227118   5.678   5.050   5.042  0.2751  0.4912 -0.3998
 9052TIP3   OH227119   2.116   0.367   1.167 -0.6109  0.0885 -0.3191
 9052TIP3    H127120   2.212   0.375   1.171 -0.7943  2.1387  0.0872
 9052TIP3    H227121   2.099   0.276   1.194  1.2154 -0.3415 -0.5291
 9053TIP3   OH227122   7.034   5.187   4.608  0.3493 -0.3888 -0.6011
 9053TIP3    H127123   7.118   5.196   4.652 -0.7819 -1.5031  1.8948
 9053TIP3    H227124   7.009   5.277   4.586  1.2012  0.1626  0.5983
 9054TIP3   OH227125   5.414   4.301   4.630  0.4406  0.2404  0.2637
 9054TIP3    H127126   5.414   4.266   4.541  1.4058 -0.0266  0.3630
 9054TIP3    H227127   5.448   4.230   4.684  1.4552  0.9820  0.6121
 9055TIP3   OH227128   7.309   6.819   3.922 -0.0031  0.1467 -0.0143
 9055TIP3    H127129   7.311   6.769   3.840  1.0069  0.5869 -0.2569
 9055TIP3    H227130   7.226   6.868   3.918  0.9232  1.6391 -1.6519
 9056TIP3   OH227131   6.194   4.342   4.135 -0.1717 -0.6298  0.6756
 9056TIP3    H127132   6.154   4.419   4.094  1.1135 -0.6349 -0.6154
 9056TIP3    H227133   6.202   4.367   4.227 -2.0155 -0.1743  0.7310
 9057TIP3   OH227134   6.247   6.665   2.957 -0.2212  0.1837  0.2062
 9057TIP3    H127135   6.182   6.699   3.019 -0.5618 -0.1293  0.0199
 9057TIP3    H227136   6.305   6.611   3.011 -0.5935 -0.1914  0.2279
 9058TIP3   OH227137   6.851   5.483   4.558 -0.1158 -0.0445 -0.0110
 9058TIP3    H127138   6.801   5.499   4.638  0.3789 -0.6541  0.4336
 9058TIP3    H227139   6.888   5.568   4.535  0.8586 -0.1266  1.1828
 9059TIP3   OH227140   7.050   4.623   3.819 -0.2063 -0.3339 -0.1863
 9059TIP3    H127141   7.058   4.715   3.847  1.8077 -0.5814  0.1006
 9059TIP3    H227142   7.113   4.614   3.748  1.0478 -2.0290  1.1351
 9060TIP3   OH227143   6.732   6.131   1.218 -0.5237 -0.6724 -0.2368
 9060TIP3    H127144   6.792   6.204   1.236  0.9249 -1.9889  0.4584
 9060TIP3    H227145   6.646   6.163   1.245  0.2293  0.4620  0.8817
 9061TIP3   OH227146   7.219   5.432   5.778 -0.1229 -0.1826 -0.0240
 9061TIP3    H127147   7.145   5.375   5.756  0.8844 -1.2847 -0.6495
 9061TIP3    H227148   7.246   5.403   5.865  1.2578 -1.6465 -0.9007
 9062TIP3   OH227149   7.052   6.302   5.681 -0.1779 -0.1845  0.1267
 9062TIP3    H127150   7.080   6.235   5.743  0.7300 -0.0822 -0.1675
 9062TIP3    H227151   6.964   6.274   5.653  0.3375 -1.4327 -0.2522
 9063TIP3   OH227152   6.672   6.250   5.749  0.1520  0.2420 -0.0345
 9063TIP3    H127153   6.702   6.286   5.832 -0.5677 -0.1041  0.3773
 9063TIP3    H227154   6.584   6.286   5.738 -0.7681 -1.7294  0.6080
 9064TIP3   OH227155   5.855   6.719   5.856 -0.0831 -0.1757  0.1882
 9064TIP3    H127156   5.885   6.629   5.868  0.4894  0.0137  0.1511
 9064TIP3    H227157   5.784   6.729   5.921 -0.6696 -0.8920 -0.3330
 9065TIP3   OH227158   0.982   6.227   5.599 -0.2517 -0.5741 -0.6905
 9065TIP3    H127159   0.955   6.217   5.507 -0.8727 -1.2424 -0.4376
 9065TIP3    H227160   0.904   6.203   5.649  0.3956 -1.1608  0.0257
 9066TIP3   OH227161   5.978   4.660   5.597 -0.2434  0.0119  0.5379
 9066TIP3    H127162   5.939   4.714   5.528  1.1690  0.4084  0.0340
 9066TIP3    H227163   6.070   4.685   5.598 -0.0263 -0.7934  1.8272
 9067TIP3   OH227164   5.390   6.319   4.375 -0.0358  0.3149  0.4300
 9067TIP3    H127165   5.350   6.261   4.310  0.6828 -0.6595  0.8556
 9067TIP3    H227166   5.445   6.262   4.428 -0.9775  1.0229  2.2204
 9068TIP3   OH227167   3.772   0.396   1.628  0.1772 -0.2302  0.4806
 9068TIP3    H127168   3.820   0.456   1.572 -1.0332  1.2676  1.0112
 9068TIP3    H227169   3.682   0.401   1.596 -0.1738 -0.7879  1.3729
 9069TIP3   OH227170   0.447   6.146   3.207  0.1251 -0.0415  0.2707
 9069TIP3    H127171   0.375   6.135   3.270  1.6515  0.3256  2.1219
 9069TIP3    H227172   0.473   6.237   3.216 -0.7914  0.4979 -2.2080
 9070TIP3   OH227173   0.235   5.381   2.762  0.0498  0.2771  0.3625
 9070TIP3    H127174   0.191   5.449   2.712 -0.6463 -0.1551  0.3702
 9070TIP3    H227175   0.167   5.348   2.822  1.0720  1.3356  2.1641
 9071TIP3   OH227176   0.908   5.358   2.521 -0.6830 -0.5176 -0.4656
 9071TIP3    H127177   0.929   5.440   2.476 -1.2878  0.3956  0.8857
 9071TIP3    H227178   0.961   5.292   2.477  0.6983  0.8018 -0.7987
 9072TIP3   OH227179   5.959   4.685   3.208  0.1646 -0.5938  0.3202
 9072TIP3    H127180   5.888   4.707   3.147  0.3141  2.1762  1.0736
 9072TIP3    H227181   6.026   4.645   3.153 -0.2515  0.6570 -1.1471
 9073TIP3   OH227182   6.622   5.694   4.359  1.0765  0.3837 -0.1070
 9073TIP3    H127183   6.557   5.637   4.400  0.1812  0.8184 -0.9022
 9073TIP3    H227184   6.664   5.639   4.293  0.1045  0.6906 -0.9798
 9074TIP3   OH227185   5.821   0.048   0.957 -0.1496 -0.4202 -0.3080
 9074TIP3    H127186   5.916   0.062   0.963 -0.2559  1.8116 -2.6855
 9074TIP3    H227187   5.783   0.116   1.012 -0.4081 -1.2915  0.6157
 9075TIP3   OH227188   2.587   1.051   0.813  0.1494 -0.0054  0.1314
 9075TIP3    H127189   2.593   1.057   0.718 -1.9112 -0.5346 -0.0355
 9075TIP3    H227190   2.656   1.110   0.845 -0.2048  1.4126 -1.6780
 9076TIP3   OH227191   1.773   3.653   3.064  0.2819  0.6298  0.4570
 9076TIP3    H127192   1.776   3.571   3.112 -1.0172  0.6527  0.5783
 9076TIP3    H227193   1.809   3.718   3.124  0.1872  0.3688  0.7942
 9077TIP3   OH227194   7.324   4.211   4.322  0.1386 -0.2496  0.2281
 9077TIP3    H127195   7.332   4.295   4.276 -2.9364 -1.0955 -2.0130
 9077TIP3    H227196   7.405   4.165   4.301  0.5491  0.9791 -0.9705
 9078TIP3   OH227197   6.272   1.139   1.253  0.2117 -0.3088  0.0470
 9078TIP3    H127198   6.302   1.060   1.297  2.1708 -0.6894 -1.9177
 9078TIP3    H227199   6.332   1.207   1.282 -1.0059  0.3292  1.1363
 9079TIP3   OH227200   4.959   0.112   0.100  0.1572  0.6491  0.3825
 9079TIP3    H127201   4.926   0.038   0.152 -1.9734  0.3332 -1.3779
 9079TIP3    H227202   4.945   0.188   0.156 -2.4877  0.3656  0.1470
 9080TIP3   OH227203   6.034   5.606   5.545  0.0972 -0.4363  0.0237
 9080TIP3    H127204   5.992   5.678   5.498  1.0488 -0.1786 -0.4427
 9080TIP3    H227205   6.094   5.568   5.481  1.1715 -0.2776  0.9345
 9081TIP3   OH227206   6.536   3.638   4.071 -0.0434  0.1148  0.0959
 9081TIP3    H127207   6.625   3.663   4.048  0.3601 -1.3022  0.1084
 9081TIP3    H227208   6.511   3.573   4.005 -0.0635 -1.5434  1.6952
 9082TIP3   OH227209   3.730   4.200   4.370  0.3195 -0.1729  1.0055
 9082TIP3    H127210   3.795   4.167   4.308 -0.7162 -1.4502  0.5902
 9082TIP3    H227211   3.710   4.125   4.426 -0.8219  0.2191  1.1210
 9083TIP3   OH227212   6.120   5.509   4.726  0.1479  0.6051  0.3986
 9083TIP3    H127213   6.116   5.459   4.807  0.7460 -0.3546 -0.1513
 9083TIP3    H227214   6.176   5.457   4.668 -1.6719  0.4142 -1.2442
 9084TIP3   OH227215   6.567   5.584   5.195  0.4652  0.2301 -0.8830
 9084TIP3    H127216   6.585   5.666   5.149  1.5221  0.7037  0.3672
 9084TIP3    H227217   6.524   5.610   5.276  3.1045 -0.2413  0.7344
 9085TIP3   OH227218   5.142   3.199   5.731  0.2066  0.4303  0.4292
 9085TIP3    H127219   5.090   3.240   5.800 -0.1713 -0.7832  0.8639
 9085TIP3    H227220   5.197   3.135   5.776 -0.0153 -0.3430 -0.3831
 9086TIP3   OH227221   6.649   6.199   4.304  0.2021 -0.1811  0.5761
 9086TIP3    H127222   6.725   6.144   4.321 -0.0081 -1.0016 -1.0316
 9086TIP3    H227223   6.656   6.222   4.211 -0.5297  1.2516  0.8604
 9087TIP3   OH227224   6.419   2.798   5.155 -0.0925  0.1057  0.4493
 9087TIP3    H127225   6.342   2.771   5.204 -0.1988 -1.4169 -0.5156
 9087TIP3    H227226   6.384   2.842   5.077 -0.0003 -1.0786 -0.2632
 9088TIP3   OH227227   6.965   3.693   5.876 -0.1018  0.7530  0.0632
 9088TIP3    H127228   6.977   3.724   5.966  0.6056  1.4303 -0.2555
 9088TIP3    H227229   7.053   3.664   5.850 -0.2521  0.8205 -0.5110
 9089TIP3   OH227230   7.256   5.063   3.629  0.4582 -0.2705  0.4488
 9089TIP3    H127231   7.321   5.097   3.690  1.0641  3.2875 -2.0049
 9089TIP3    H227232   7.173   5.069   3.676  0.9916  1.9634  1.1867
 9090TIP3   OH227233   7.161   5.259   0.553 -0.4373 -0.2484 -0.3700
 9090TIP3    H127234   7.231   5.220   0.501 -1.5550  0.4284 -2.4167
 9090TIP3    H227235   7.081   5.219   0.521 -1.0677 -0.7540  1.7196
 9091TIP3   OH227236   5.966   4.422   5.207  0.4620  0.2486  0.2414
 9091TIP3    H127237   5.922   4.373   5.276  0.1248 -1.0437 -0.8872
 9091TIP3    H227238   5.896   4.467   5.160  0.6657  0.9173  0.5752
 9092TIP3   OH227239   0.468   4.691   3.906 -0.0948  0.0942 -0.4060
 9092TIP3    H127240   0.526   4.696   3.982 -1.6690 -0.4761  0.8587
 9092TIP3    H227241   0.493   4.609   3.863  0.3536  0.0832 -0.1284
 9093TIP3   OH227242   0.372   3.358   5.040  0.0009  0.5539  0.1617
 9093TIP3    H127243   0.378   3.349   5.135  1.6165  0.7999  0.0948
 9093TIP3    H227244   0.373   3.453   5.025  0.1929  0.5063 -0.1301
 9094TIP3   OH227245   6.651   5.141   3.575 -0.0418  0.3108 -0.3885
 9094TIP3    H127246   6.741   5.133   3.607 -0.7321 -1.1820  1.2701
 9094TIP3    H227247   6.655   5.211   3.510  2.2050  0.6540  0.0711
 9095TIP3   OH227248   2.136   0.821   1.528  0.6479 -0.1283  0.1676
 9095TIP3    H127249   2.059   0.768   1.550  1.6263 -1.0818  1.3036
 9095TIP3    H227250   2.145   0.810   1.433 -1.3730  1.0297 -0.1822
 9096TIP3   OH227251   5.628   4.878   3.520 -0.4374 -0.0947  0.0706
 9096TIP3    H127252   5.552   4.931   3.497 -0.8603 -0.3327  0.9203
 9096TIP3    H227253   5.602   4.788   3.500  0.5821  0.0729 -2.1870
 9097TIP3   OH227254   5.433   5.252   4.621 -0.4879  0.0747  0.0468
 9097TIP3    H127255   5.507   5.290   4.669 -0.5835  0.1760  0.1118
 9097TIP3    H227256   5.384   5.204   4.687 -0.3567 -0.1792 -0.0400
 9098TIP3   OH227257   5.694   5.087   3.153  0.4876  0.0345 -0.1317
 9098TIP3    H127258   5.628   5.116   3.215  0.1520 -0.7448 -0.1166
 9098TIP3    H227259   5.750   5.027   3.203  0.2008 -0.6153 -0.5792
 9099TIP3   OH227260   0.191   5.436   2.104 -0.1220  0.2332 -0.3390
 9099TIP3    H127261   0.206   5.382   2.182  0.1190  0.2313 -0.3871
 9099TIP3    H227262   0.214   5.525   2.132 -0.5909  0.3244 -0.2380
 9100TIP3   OH227263   4.603   0.115   0.869  0.4870 -0.5789 -0.3019
 9100TIP3    H127264   4.665   0.142   0.936  0.6513 -0.2518 -0.5832
 9100TIP3    H227265   4.597   0.191   0.810 -1.2629 -0.0630  0.5148
 9101TIP3   OH227266   1.381   3.834   5.046  0.2429 -0.0586 -0.3182
 9101TIP3    H127267   1.302   3.780   5.051 -0.6077  1.0881 -1.1694
 9101TIP3    H227268   1.439   3.796   5.112 -0.5700 -1.6215 -0.4584
 9102TIP3   OH227269   5.225   0.511   1.853  0.2302 -0.0870 -0.4292
 9102TIP3    H127270   5.285   0.583   1.871  1.9280 -1.4323 -0.6436
 9102TIP3    H227271   5.190   0.486   1.939  0.8543 -0.0638 -0.1715
 9103TIP3   OH227272   5.191   4.149   4.176 -0.0677 -0.5163  0.5471
 9103TIP3    H127273   5.230   4.078   4.126 -1.1601 -1.8723  1.5673
 9103TIP3    H227274   5.098   4.127   4.180 -0.5006  1.1938  0.5311
 9104TIP3   OH227275   7.243   6.200   3.314 -0.4311  0.5142  0.2382
 9104TIP3    H127276   7.318   6.209   3.373 -0.4931  0.7557  0.2808
 9104TIP3    H227277   7.278   6.220   3.227 -0.1689 -0.5979  0.0930
 9105TIP3   OH227278   7.045   4.849   3.569 -0.4229 -0.3157 -0.6290
 9105TIP3    H127279   6.959   4.819   3.596 -1.0804 -0.3315 -2.6029
 9105TIP3    H227280   7.042   4.944   3.580 -0.9318 -0.2504 -1.2699
 9106TIP3   OH227281   6.902   5.985   3.976  0.1235  0.0300  0.1229
 9106TIP3    H127282   6.960   6.058   3.953  1.8989 -1.2354  0.4845
 9106TIP3    H227283   6.866   5.956   3.893 -0.9664  1.6160  0.0276
 9107TIP3   OH227284   6.863   5.935   3.264 -0.7086 -0.2011  0.3910
 9107TIP3    H127285   6.901   5.848   3.260 -0.1961  0.0288  0.1949
 9107TIP3    H227286   6.769   5.921   3.267 -0.5995 -0.7987  1.3226
 9108TIP3   OH227287   2.499   0.042   3.779  0.1919  0.2411  0.2931
 9108TIP3    H127288   2.439   0.105   3.739  1.5866  1.7443  0.5245
 9108TIP3    H227289   2.443  -0.014   3.832 -1.0484  1.4243  0.2630
 9109TIP3   OH227290   1.094   5.082   4.816 -0.2540 -0.0652 -0.4287
 9109TIP3    H127291   1.086   5.024   4.740 -1.7194 -1.4151  0.6982
 9109TIP3    H227292   1.089   5.170   4.780 -0.7374 -0.6830 -1.9222
 9110TIP3   OH227293   0.374   5.007   2.881  0.2973 -0.4716  0.7608
 9110TIP3    H127294   0.452   5.062   2.873 -1.0458  1.4910  0.9964
 9110TIP3    H227295   0.383   4.964   2.966 -0.1173  1.7159  1.9284
 9111TIP3   OH227296   0.446   5.490   2.929 -0.5372  0.0742 -0.1769
 9111TIP3    H127297   0.520   5.437   2.960  0.8893  1.2824 -1.4790
 9111TIP3    H227298   0.426   5.454   2.843  0.0511  1.2299 -0.8125
 9112TIP3   OH227299   1.717   4.493   3.539  0.2650 -0.2651  0.0333
 9112TIP3    H127300   1.702   4.400   3.521 -0.6042 -0.6016  2.2880
 9112TIP3    H227301   1.794   4.515   3.488 -0.5777 -1.7684 -1.9448
 9113TIP3   OH227302   0.871   5.546   2.776 -0.0046 -0.4101  0.3520
 9113TIP3    H127303   0.851   5.453   2.769 -0.4386 -0.3564  0.8548
 9113TIP3    H227304   0.890   5.560   2.868 -0.2086  0.0490  0.3250
 9114TIP3   OH227305   6.597   5.935   3.189 -0.0736 -0.1121 -0.7164
 9114TIP3    H127306   6.584   5.923   3.095  0.4866 -0.9155 -0.6885
 9114TIP3    H227307   6.510   5.920   3.227 -0.3481  0.4212 -1.1193
 9115TIP3   OH227308   2.505   5.822   4.266  0.4817 -0.1577  1.2604
 9115TIP3    H127309   2.419   5.784   4.251  0.4551 -0.5850  2.4223
 9115TIP3    H227310   2.488   5.899   4.320  0.8323 -0.3503  1.6542
 9116TIP3   OH227311   1.004   4.691   4.475  0.5448 -0.1951  0.1748
 9116TIP3    H127312   1.062   4.699   4.400  0.3365  0.4323  0.0874
 9116TIP3    H227313   0.930   4.638   4.444  0.0766  0.7256 -0.2769
 9117TIP3   OH227314   4.587   4.804   4.529 -0.0808  0.3002  0.1718
 9117TIP3    H127315   4.575   4.843   4.616  1.0241 -1.2752  1.0583
 9117TIP3    H227316   4.607   4.878   4.472 -3.6663  1.7326  0.6456
 9118TIP3   OH227317   7.051   4.743   5.317  0.3491  0.0247  0.4380
 9118TIP3    H127318   7.078   4.835   5.317  1.7147 -0.3686  0.6772
 9118TIP3    H227319   7.080   4.710   5.403 -1.4114 -0.2669  0.9508
 9119TIP3   OH227320   0.490   5.312   1.344 -0.3622 -0.0406 -0.1029
 9119TIP3    H127321   0.409   5.260   1.348  0.1174 -0.6955  2.0610
 9119TIP3    H227322   0.558   5.248   1.324 -0.2839  0.4216 -1.3626
 9120TIP3   OH227323   4.006   0.038   5.596 -0.0359 -0.2163 -0.0379
 9120TIP3    H127324   4.069   0.076   5.535 -0.9826  0.9513 -0.2880
 9120TIP3    H227325   3.957   0.112   5.631 -1.6184 -1.1372 -0.2212
 9121TIP3   OH227326   2.629   5.662   5.942 -0.0355  0.2072 -0.0276
 9121TIP3    H127327   2.695   5.623   5.885 -0.9098  0.5780 -1.3146
 9121TIP3    H227328   2.576   5.589   5.971  1.6658 -0.2637  2.0122
 9122TIP3   OH227329   0.963   2.124   1.891 -0.2443  0.0374 -0.0144
 9122TIP3    H127330   1.019   2.195   1.923  0.7734  0.1372 -1.9279
 9122TIP3    H227331   0.894   2.116   1.957  0.0848  2.2564  0.6409
 9123TIP3   OH227332   7.172   4.230   5.816  0.3937  0.4976 -0.1677
 9123TIP3    H127333   7.090   4.279   5.814  0.4961  0.6183 -1.6086
 9123TIP3    H227334   7.236   4.292   5.851 -0.3217  0.0895  1.9156
 9124TIP3   OH227335   0.634   4.737   4.862 -0.0892 -0.4025 -0.1319
 9124TIP3    H127336   0.562   4.681   4.890  0.1274 -1.0877 -0.9347
 9124TIP3    H227337   0.653   4.709   4.772  2.4018 -1.4897  0.6877
 9125TIP3   OH227338   2.739   4.669   2.870  0.6853  0.0738  0.3465
 9125TIP3    H127339   2.700   4.615   2.801  0.1110  0.5821  0.2749
 9125TIP3    H227340   2.827   4.689   2.838  0.4379  0.2592 -0.2128
 9126TIP3   OH227341   5.308   3.956   0.153 -0.2398 -0.3998 -0.1704
 9126TIP3    H127342   5.337   3.865   0.152 -0.9005 -0.6085 -0.2411
 9126TIP3    H227343   5.354   3.995   0.227 -0.5981 -0.9949  0.3681
 9127TIP3   OH227344   2.740   6.114   5.437  0.0901  0.1237 -0.1322
 9127TIP3    H127345   2.665   6.067   5.399  0.4711 -1.4244  0.9533
 9127TIP3    H227346   2.734   6.095   5.531  2.1613 -0.4928 -0.1074
 9128TIP3   OH227347   1.220   5.520   6.016  0.0183  0.3042  0.0900
 9128TIP3    H127348   1.278   5.554   5.948  1.0476 -1.1278  0.2329
 9128TIP3    H227349   1.145   5.484   5.968  0.2265  0.2910 -0.2281
 9129TIP3   OH227350   6.568   1.006   0.037 -0.2026 -0.1575  0.2242
 9129TIP3    H127351   6.638   1.069   0.020 -1.9731  2.0282  0.8070
 9129TIP3    H227352   6.520   1.000  -0.045 -0.7244  0.1311  0.5063
 9130TIP3   OH227353   6.923   0.921   1.113  0.2245 -0.1929  0.0776
 9130TIP3    H127354   6.871   0.867   1.174  0.8938  0.1519  0.9653
 9130TIP3    H227355   6.994   0.956   1.167  0.0085  1.2730 -0.5792
 9131TIP3   OH227356   6.137   2.972  -0.012  0.0843 -0.2645  0.2644
 9131TIP3    H127357   6.107   2.952   0.077  0.8830 -0.8392  0.4074
 9131TIP3    H227358   6.176   3.060  -0.005  1.3850 -0.8711  0.7830
 9132TIP3   OH227359   2.054   4.263   5.974 -0.4959 -0.1605 -0.9039
 9132TIP3    H127360   1.964   4.230   5.983 -0.0786 -1.7622 -2.3217
 9132TIP3    H227361   2.042   4.356   5.951 -1.8193 -0.4386 -1.4376
 9133TIP3   OH227362   6.556   1.491   0.575  0.4476  0.3945 -0.2591
 9133TIP3    H127363   6.477   1.512   0.526  0.5403  0.2955 -0.4551
 9133TIP3    H227364   6.579   1.402   0.547 -0.2130 -0.1476  0.9356
 9134TIP3   OH227365   1.977   6.725   5.346 -0.3523 -0.1856 -0.5029
 9134TIP3    H127366   1.996   6.681   5.264  0.7905  1.2113 -0.9945
 9134TIP3    H227367   2.062   6.756   5.377 -0.9906  0.6771  0.4098
 9135TIP3   OH227368   1.201   5.692   4.932 -0.1864  0.0912  0.5889
 9135TIP3    H127369   1.191   5.706   4.838 -2.8053 -1.5301  0.5973
 9135TIP3    H227370   1.116   5.715   4.970  0.8185  0.6997  2.5833
 9136TIP3   OH227371   3.264   1.712   3.315  0.4908 -0.4276 -0.5886
 9136TIP3    H127372   3.339   1.686   3.369  0.8170 -0.4253 -1.0354
 9136TIP3    H227373   3.188   1.676   3.360  0.7917 -0.7278 -0.3162
 9137TIP3   OH227374   0.662   3.789   5.813 -0.2266 -0.0914  0.3221
 9137TIP3    H127375   0.613   3.830   5.741  0.4596 -0.1357 -0.1703
 9137TIP3    H227376   0.744   3.761   5.773  0.6246  0.8500  1.3614
 9138TIP3   OH227377   2.144   6.810   3.783  0.4852  0.3417  0.6182
 9138TIP3    H127378   2.101   6.894   3.797  1.4321  0.8867  0.1797
 9138TIP3    H227379   2.233   6.822   3.816  0.6513 -0.4581  0.4717
 9139TIP3   OH227380   7.193   5.678   5.417  0.6602  0.2505 -0.0368
 9139TIP3    H127381   7.160   5.765   5.436 -1.3283 -0.5758  0.4033
 9139TIP3    H227382   7.243   5.654   5.495 -0.5870  0.1517  0.7434
 9140TIP3   OH227383   5.272   4.337   1.162  0.4155  0.0547  0.0531
 9140TIP3    H127384   5.301   4.335   1.253 -0.8107 -1.0170  0.4371
 9140TIP3    H227385   5.177   4.324   1.167  0.0496  2.0317 -1.2549
 9141TIP3   OH227386   4.930   0.243   5.548  0.5769 -0.1092 -0.1979
 9141TIP3    H127387   4.982   0.218   5.472 -0.5245 -0.6222 -0.7824
 9141TIP3    H227388   4.940   0.338   5.554  1.5123 -0.1979 -0.3547
 9142TIP3   OH227389   6.193   3.268   0.175  0.0787  0.1249 -0.3824
 9142TIP3    H127390   6.250   3.241   0.103  0.0474  1.1176 -0.7908
 9142TIP3    H227391   6.215   3.360   0.189 -1.5363  0.5634 -0.6522
 9143TIP3   OH227392   6.633   6.966   5.056 -0.1316  0.2326 -0.1504
 9143TIP3    H127393   6.627   6.974   5.152  0.1925  1.9928 -0.2524
 9143TIP3    H227394   6.545   6.988   5.025 -0.1532 -0.0265 -0.2696
 9144TIP3   OH227395   4.261   1.149   5.907 -0.1500 -0.2768  0.3540
 9144TIP3    H127396   4.299   1.069   5.870 -0.6348 -0.6781  0.7107
 9144TIP3    H227397   4.312   1.165   5.987  1.2205  0.8672 -0.7308
 9145TIP3   OH227398   2.186   3.690   0.365  0.4539 -0.4774 -0.0850
 9145TIP3    H127399   2.264   3.682   0.419  0.2716 -2.5993 -0.0827
 9145TIP3    H227400   2.196   3.623   0.298 -1.7049 -1.3220  0.3727
 9146TIP3   OH227401   6.096   0.725   0.847  0.2312  0.6089 -0.5549
 9146TIP3    H127402   6.148   0.711   0.927  0.3592  1.2974 -0.5122
 9146TIP3    H227403   6.155   0.771   0.788  0.0666  0.2827 -0.9738
 9147TIP3   OH227404   1.912   4.311   5.307  0.2372 -0.8080 -0.3021
 9147TIP3    H127405   1.826   4.293   5.343 -0.5746  0.5530 -1.4913
 9147TIP3    H227406   1.927   4.404   5.325  1.4116 -1.0055 -0.1934
 9148TIP3   OH227407   2.015   6.231   4.621 -0.4336 -0.3767 -0.4934
 9148TIP3    H127408   1.983   6.144   4.644 -2.0134  0.4082  0.3222
 9148TIP3    H227409   2.063   6.218   4.539  1.1796 -2.3912  0.7161
 9149TIP3   OH227410   6.471   2.563   0.391 -0.5897 -0.6174 -0.1805
 9149TIP3    H127411   6.498   2.628   0.456 -0.9350  0.4132 -1.0522
 9149TIP3    H227412   6.507   2.480   0.424 -0.3394 -0.0362  1.0603
 9150TIP3   OH227413   5.141   2.853   1.806  0.2320  0.1240 -0.3030
 9150TIP3    H127414   5.067   2.904   1.840  1.3985  1.8384 -0.2979
 9150TIP3    H227415   5.211   2.868   1.869  0.6907 -1.3128 -0.4360
 9151TIP3   OH227416   0.545   4.805   5.736  0.0959  0.1225 -0.4612
 9151TIP3    H127417   0.606   4.778   5.667  0.5346  2.0726 -0.8647
 9151TIP3    H227418   0.459   4.782   5.702  0.3557  0.5198 -1.4130
 9152TIP3   OH227419   5.735   0.938   4.036 -0.3026  0.2180  0.2464
 9152TIP3    H127420   5.663   0.949   3.973 -0.9449 -0.2918  0.8853
 9152TIP3    H227421   5.807   0.901   3.985  0.1476  2.4900 -0.8183
 9153TIP3   OH227422   7.127   2.065   2.726  0.1186  0.3432  0.1305
 9153TIP3    H127423   7.153   1.981   2.765  0.2169  0.6537  0.7237
 9153TIP3    H227424   7.033   2.070   2.740  0.0850  0.2618 -0.0540
 9154TIP3   OH227425   4.500   1.154   0.046  0.3457 -0.0457 -0.2468
 9154TIP3    H127426   4.422   1.146  -0.010  0.7365 -1.1002 -0.6551
 9154TIP3    H227427   4.466   1.143   0.135 -0.3047  1.8063 -0.2351
 9155TIP3   OH227428   6.919   1.798   0.743 -0.1950 -0.3671  0.6177
 9155TIP3    H127429   6.880   1.763   0.663  0.4975  1.0799 -0.3668
 9155TIP3    H227430   7.002   1.751   0.752  0.0367 -0.0486  0.1245
 9156TIP3   OH227431   5.520   1.156   5.040  0.1562 -0.1947  0.4967
 9156TIP3    H127432   5.479   1.139   5.125 -0.5280 -1.0857 -0.0068
 9156TIP3    H227433   5.579   1.082   5.026 -0.2458 -0.4004 -0.1207
 9157TIP3   OH227434   3.453   6.482   0.272 -0.0303  0.3523  0.1762
 9157TIP3    H127435   3.430   6.406   0.326 -0.8142  0.1334 -0.4746
 9157TIP3    H227436   3.375   6.501   0.221  0.4944  0.9854 -0.4051
 9158TIP3   OH227437   2.532   5.684   3.864  0.3098 -0.8385 -0.3945
 9158TIP3    H127438   2.442   5.711   3.881  0.2129 -2.1049  1.2029
 9158TIP3    H227439   2.586   5.743   3.917  0.4062 -0.4028 -0.9687
 9159TIP3   OH227440   2.783   3.488   5.361 -0.2702 -0.1933 -0.5908
 9159TIP3    H127441   2.801   3.565   5.309 -2.9466  0.2280 -0.9507
 9159TIP3    H227442   2.745   3.522   5.442  2.9857 -0.8896  1.3310
 9160TIP3   OH227443   1.207   6.185   5.966 -0.3765 -0.3181  0.1430
 9160TIP3    H127444   1.194   6.152   5.877 -0.3424 -0.3600  0.1530
 9160TIP3    H227445   1.222   6.279   5.955  1.0644 -0.5579 -0.0213
 9161TIP3   OH227446   2.964   6.239   5.355  0.3697 -0.4897 -0.1502
 9161TIP3    H127447   2.872   6.211   5.358  0.6372 -1.3312  0.1637
 9161TIP3    H227448   3.014   6.159   5.371  1.0981  0.5903  3.4263
 9162TIP3   OH227449   3.982   5.940   5.204  0.5768 -0.0199  0.4780
 9162TIP3    H127450   4.058   5.947   5.146  0.7351  0.8918  0.7792
 9162TIP3    H227451   4.010   5.984   5.285 -0.2067  0.1718  0.6485
 9163TIP3   OH227452   6.345   4.010   1.881  0.3642  0.1327  0.6154
 9163TIP3    H127453   6.359   3.950   1.955 -1.6082  1.2702  1.9489
 9163TIP3    H227454   6.429   4.055   1.870  0.9087 -0.6148  1.6432
 9164TIP3   OH227455   1.014   1.430   0.111  0.3731 -0.3916 -0.3074
 9164TIP3    H127456   1.045   1.435   0.021 -0.0167 -0.3232 -0.4408
 9164TIP3    H227457   0.980   1.518   0.129 -0.9861 -0.8342 -0.6261
 9165TIP3   OH227458   5.033   0.530   5.558 -0.0701  0.2432 -0.2246
 9165TIP3    H127459   4.977   0.607   5.560 -0.8119 -0.2382 -1.6568
 9165TIP3    H227460   5.094   0.546   5.486  0.8553  0.2220  0.5363
 9166TIP3   OH227461   3.494   0.828   5.575  0.4067 -0.2059  0.3805
 9166TIP3    H127462   3.501   0.801   5.483  0.2937  2.6898 -0.5306
 9166TIP3    H227463   3.557   0.899   5.584 -0.8427  0.7374  2.0556
 9167TIP3   OH227464   4.974   0.834   4.860 -0.4899 -0.1907 -0.4445
 9167TIP3    H127465   4.942   0.761   4.807  0.4185 -0.7886 -0.1867
 9167TIP3    H227466   4.981   0.798   4.948 -0.1121  0.2272 -0.3019
 9168TIP3   OH227467   5.011   3.102   1.244  0.1328 -0.8198  0.1939
 9168TIP3    H127468   5.006   3.142   1.157 -2.2910  3.0306  1.9912
 9168TIP3    H227469   5.099   3.126   1.276  0.6163 -1.3096 -0.7566
 9169TIP3   OH227470   7.109   6.310   0.354  0.2754 -0.7293  0.3542
 9169TIP3    H127471   7.042   6.280   0.416 -1.2711  3.6577  1.0178
 9169TIP3    H227472   7.157   6.377   0.403 -0.1615  1.9344 -2.7003
 9170TIP3   OH227473   0.100   3.519   0.216 -0.1934 -0.0143  0.2996
 9170TIP3    H127474   0.080   3.439   0.265  2.1563 -1.2669 -0.7250
 9170TIP3    H227475   0.048   3.513   0.136  1.7397 -1.7305 -0.8861
 9171TIP3   OH227476   3.883   5.537   4.310 -0.2679  0.6164 -0.1515
 9171TIP3    H127477   3.828   5.538   4.231 -0.1168 -0.4913 -0.2754
 9171TIP3    H227478   3.843   5.471   4.367  0.0080  0.9419  0.4215
 9172TIP3   OH227479   6.116   2.018   0.585  0.3299  0.6199  0.1259
 9172TIP3    H127480   6.046   2.084   0.594 -0.1333  0.2468 -0.6830
 9172TIP3    H227481   6.184   2.063   0.535  0.2628  0.6748  0.0827
 9173TIP3   OH227482   0.854   5.803   4.846  0.5159  0.2595  0.1858
 9173TIP3    H127483   0.890   5.763   4.767  0.7927 -0.4912  0.6798
 9173TIP3    H227484   0.897   5.756   4.918 -1.4357 -0.6610  0.7863
 9174TIP3   OH227485   6.809   1.828   0.106 -0.0445  0.6394  0.6931
 9174TIP3    H127486   6.787   1.855   0.017 -1.5431  1.6232  1.3370
 9174TIP3    H227487   6.727   1.797   0.143  0.9301 -1.4139  1.1798
 9175TIP3   OH227488   5.030   2.396   1.651  0.0382 -0.5980  0.0826
 9175TIP3    H127489   5.119   2.374   1.676  0.7732  0.1806 -1.7549
 9175TIP3    H227490   5.023   2.490   1.669  0.5681 -0.0337 -2.5249
 9176TIP3   OH227491   7.253   1.042   0.583 -0.1661 -0.0323  0.1550
 9176TIP3    H127492   7.318   1.094   0.631 -0.5512  0.7493 -0.1532
 9176TIP3    H227493   7.271   1.060   0.491  0.0115 -0.8430  0.0268
 9177TIP3   OH227494   5.306   1.359   2.191 -0.2829 -0.3454  0.2322
 9177TIP3    H127495   5.231   1.392   2.141  0.5642  1.2933  0.0199
 9177TIP3    H227496   5.309   1.414   2.269  2.2164  1.3236 -0.9750
 9178TIP3   OH227497   4.149   1.517   5.302 -0.7765 -0.2600  0.4854
 9178TIP3    H127498   4.216   1.529   5.235 -0.3107  1.8551  1.2862
 9178TIP3    H227499   4.162   1.590   5.363 -2.5602 -0.9169  1.7179
 9179TIP3   OH227500   4.021   0.288   3.935 -0.3050 -0.1224  0.2253
 9179TIP3    H127501   3.962   0.298   3.860 -0.4267  0.5976  0.4146
 9179TIP3    H227502   3.966   0.307   4.011  0.0866  0.2214  0.4253
 9180TIP3   OH227503   3.201   4.205   0.047  0.0032  0.3400 -0.0558
 9180TIP3    H127504   3.210   4.125   0.098  0.8721  0.3738 -0.1519
 9180TIP3    H227505   3.282   4.210  -0.004 -0.9115  0.2144 -1.5506
 9181TIP3   OH227506   4.476   0.132   4.486  0.0243 -0.0275  0.2333
 9181TIP3    H127507   4.438   0.067   4.545 -0.9000 -1.1920 -1.6215
 9181TIP3    H227508   4.557   0.093   4.455  0.1262  0.2565  0.1432
 9182TIP3   OH227509   5.749   1.475   4.562 -0.1095 -0.2898  0.2672
 9182TIP3    H127510   5.777   1.465   4.653  1.5776 -0.5933 -0.2756
 9182TIP3    H227511   5.751   1.570   4.547  1.4017 -0.3426  0.0160
 9183TIP3   OH227512   0.668   2.932   0.618  0.0669  0.1527  0.0209
 9183TIP3    H127513   0.692   2.886   0.537 -1.0313 -3.0085  1.4194
 9183TIP3    H227514   0.732   2.903   0.682  0.2696  1.8135  0.6109
 9184TIP3   OH227515   0.584   3.921   0.098  0.2716 -0.0710  0.5308
 9184TIP3    H127516   0.498   3.950   0.066  0.9339  0.8505 -0.4499
 9184TIP3    H227517   0.571   3.907   0.192 -0.6166  1.4482  0.6602
 9185TIP3   OH227518   7.240   3.012   0.243 -0.4874  0.3076 -0.3517
 9185TIP3    H127519   7.298   2.950   0.199 -0.2401  0.3849 -0.1292
 9185TIP3    H227520   7.242   3.091   0.188 -0.1477  0.4177 -0.1811
 9186TIP3   OH227521   0.314   4.506   0.131 -0.3882  0.3586 -0.1114
 9186TIP3    H127522   0.307   4.414   0.159 -0.6101 -0.6089 -3.2075
 9186TIP3    H227523   0.402   4.514   0.096 -1.1001  0.6894 -1.8921
 9187TIP3   OH227524   0.151   6.062   1.040  0.0776  0.1461  0.1704
 9187TIP3    H127525   0.176   6.084   1.130 -0.7496 -1.0950  0.7015
 9187TIP3    H227526   0.211   5.992   1.015 -0.4358 -0.2762  0.1352
 9188TIP3   OH227527   4.581   1.759   4.400  0.5221 -0.7730 -0.1601
 9188TIP3    H127528   4.536   1.708   4.467  0.2036  0.5347  0.6316
 9188TIP3    H227529   4.669   1.772   4.433  0.3544 -0.0953  0.0446
 9189TIP3   OH227530   1.597   6.850   2.934 -0.2049  0.0158 -0.3180
 9189TIP3    H127531   1.508   6.840   2.968 -0.6763  0.4957 -1.3794
 9189TIP3    H227532   1.628   6.761   2.920 -1.1172 -0.1408 -1.4391
 9190TIP3   OH227533   3.780   6.977   4.966  0.4213 -0.0433  0.2508
 9190TIP3    H127534   3.700   6.926   4.957 -0.5093  1.3508  0.4032
 9190TIP3    H227535   3.841   6.918   5.010 -1.0315 -0.6172  1.5747
 9191TIP3   OH227536   5.864   3.664   2.360 -0.4656 -0.3286 -0.0753
 9191TIP3    H127537   5.910   3.701   2.284  0.2421  0.3879  0.6979
 9191TIP3    H227538   5.782   3.713   2.364  0.1398  0.6597  0.4902
 9192TIP3   OH227539   1.642   0.733   5.638  0.4800  0.0148 -0.4512
 9192TIP3    H127540   1.554   0.696   5.624  0.0929  0.7181  0.0604
 9192TIP3    H227541   1.639   0.818   5.595  0.5256  0.5388  0.5714
 9193TIP3   OH227542   4.572   1.450   5.995 -0.2014  0.4383  1.0071
 9193TIP3    H127543   4.518   1.393   6.050  0.0490  1.6337  2.5508
 9193TIP3    H227544   4.636   1.488   6.055  1.8421 -0.2850 -0.6414
 9194TIP3   OH227545   1.532   6.588   5.545 -0.4565 -0.3123 -0.2456
 9194TIP3    H127546   1.614   6.549   5.515 -0.1656 -0.1234  0.2919
 9194TIP3    H227547   1.511   6.540   5.625 -0.6771 -0.1091 -0.1827
 9195TIP3   OH227548   4.071   0.498   4.403 -0.2487 -0.1346  0.1042
 9195TIP3    H127549   4.105   0.467   4.319  1.0559  1.0600  0.1923
 9195TIP3    H227550   4.129   0.569   4.429 -0.8069 -0.2976  1.8908
 9196TIP3   OH227551   0.537   2.886   0.934  0.8026  0.4336  0.2494
 9196TIP3    H127552   0.504   2.905   0.847  0.2529 -3.0352 -0.3885
 9196TIP3    H227553   0.630   2.869   0.922  0.7689  0.1579  0.3794
 9197TIP3   OH227554   6.185   5.212   0.966 -0.4465  0.4802 -0.0420
 9197TIP3    H127555   6.162   5.136   1.019 -1.6422  1.2730  0.5842
 9197TIP3    H227556   6.120   5.214   0.896 -1.5154  1.9480  0.9641
 9198TIP3   OH227557   4.806   0.171   4.414  0.2888 -0.1895  0.6715
 9198TIP3    H127558   4.798   0.266   4.424 -0.4767  0.0249 -1.6258
 9198TIP3    H227559   4.883   0.159   4.358 -0.1663 -0.8597  0.1737
 9199TIP3   OH227560   4.444   0.064   3.791  0.6162  0.1983 -0.7901
 9199TIP3    H127561   4.382   0.115   3.843  0.4898  1.4290 -2.1099
 9199TIP3    H227562   4.460   0.118   3.713  1.1723 -1.3896 -1.7922
 9200TIP3   OH227563   0.879   6.816   5.141  0.4035  0.1552 -0.3759
 9200TIP3    H127564   0.909   6.778   5.223 -0.2315 -0.1914 -0.3089
 9200TIP3    H227565   0.784   6.805   5.141  0.4717 -0.5360 -1.5083
 9201TIP3   OH227566   3.756   6.762   5.604 -0.2867  0.4166  0.0456
 9201TIP3    H127567   3.676   6.729   5.644 -0.1389 -0.1399 -0.1074
 9201TIP3    H227568   3.737   6.763   5.510 -0.2639  0.6887  0.0448
 9202TIP3   OH227569   3.897   1.607   5.613 -0.1805  0.2015 -0.1047
 9202TIP3    H127570   3.859   1.659   5.542 -1.3980 -0.9314 -0.3037
 9202TIP3    H227571   3.902   1.667   5.687 -1.7097  0.5609 -0.2822
 9203TIP3   OH227572   0.094   3.943   0.822  0.3275 -0.1971  0.3120
 9203TIP3    H127573   0.171   3.967   0.873  2.0674 -0.2498 -2.1965
 9203TIP3    H227574   0.063   4.026   0.786  1.3119 -0.5728 -1.4793
 9204TIP3   OH227575   2.498   0.463   5.060  0.0725 -0.3788 -0.7150
 9204TIP3    H127576   2.549   0.441   5.137 -0.9320 -0.8554 -0.1875
 9204TIP3    H227577   2.491   0.381   5.011  0.5502 -0.1194 -1.2369
 9205TIP3   OH227578   1.150   6.433   4.685  0.0055  0.4665  0.0919
 9205TIP3    H127579   1.095   6.387   4.623  0.9831 -2.3600  1.2497
 9205TIP3    H227580   1.235   6.440   4.642 -0.2370  1.5743 -0.2311
 9206TIP3   OH227581   0.380   2.989   0.436  0.3646  0.3029 -0.0619
 9206TIP3    H127582   0.292   2.964   0.465 -0.4255  0.7823 -2.0062
 9206TIP3    H227583   0.419   3.031   0.513 -0.7168 -0.8533  1.1428
 9207TIP3   OH227584   5.916   1.576   5.146  0.3590 -0.4070 -0.3245
 9207TIP3    H127585   5.991   1.528   5.109  1.3672  0.3467  0.7080
 9207TIP3    H227586   5.864   1.508   5.189  1.1678 -0.7456  0.1334
 9208TIP3   OH227587   6.900   2.415   1.398  0.1548 -0.1138 -0.3279
 9208TIP3    H127588   6.839   2.358   1.444  0.5266  0.5295  1.0116
 9208TIP3    H227589   6.986   2.391   1.432  0.2263  1.8996  1.0450
 9209TIP3   OH227590   6.727   2.836   0.838 -0.4525 -0.4430  0.1931
 9209TIP3    H127591   6.654   2.780   0.863 -0.0751 -0.5954  0.9780
 9209TIP3    H227592   6.687   2.918   0.809 -0.9990 -1.0559 -0.7934
 9210TIP3   OH227593   2.693   3.410   5.934  0.0983 -0.1029  0.3544
 9210TIP3    H127594   2.703   3.397   5.839  1.6809  0.8278  0.3758
 9210TIP3    H227595   2.782   3.408   5.968 -0.4471 -0.1890  1.8057
 9211TIP3   OH227596   7.180   0.779   5.913 -0.0320  0.1795 -0.0870
 9211TIP3    H127597   7.258   0.754   5.962 -0.2999  0.7218  0.6147
 9211TIP3    H227598   7.109   0.774   5.976 -0.6567 -0.8003 -0.8495
 9212TIP3   OH227599   2.142   5.882   5.962  0.0087 -0.1236  0.4390
 9212TIP3    H127600   2.235   5.858   5.960 -0.7179 -3.1242 -2.3149
 9212TIP3    H227601   2.113   5.858   6.050  1.4866 -0.5704  0.8329
 9213TIP3   OH227602   0.263   2.910   0.942 -0.0593  0.0321 -0.2249
 9213TIP3    H127603   0.261   2.832   0.887  0.4170 -1.1447  1.3784
 9213TIP3    H227604   0.350   2.909   0.981 -1.1342 -0.4359  2.2802
 9214TIP3   OH227605   0.803   4.120   0.357 -0.3880  0.2995  0.2131
 9214TIP3    H127606   0.854   4.125   0.438 -1.0856  2.0584  0.5790
 9214TIP3    H227607   0.748   4.043   0.367  0.9433 -0.6239  0.5558
 9215TIP3   OH227608   4.352   0.697   5.535  0.2024  0.3023  0.0508
 9215TIP3    H127609   4.447   0.692   5.531  0.3180  2.3983 -0.5199
 9215TIP3    H227610   4.334   0.740   5.620 -0.2832 -1.1089  0.6729
 9216TIP3   OH227611   7.186   2.452   1.410  0.3137 -0.0781  1.0680
 9216TIP3    H127612   7.222   2.385   1.468 -2.7011  0.4828  3.7308
 9216TIP3    H227613   7.215   2.535   1.448  1.7130  0.2391 -0.6240
 9217TIP3   OH227614   2.473   3.915   0.261  0.3288 -0.1611 -0.0023
 9217TIP3    H127615   2.395   3.889   0.212  0.9540 -0.6696 -0.7465
 9217TIP3    H227616   2.544   3.912   0.197  1.2377 -1.2477  1.0080
 9218TIP3   OH227617   0.293   1.288   1.735 -0.1354  0.4735  0.9079
 9218TIP3    H127618   0.294   1.355   1.803 -0.2858  0.7225  0.6668
 9218TIP3    H227619   0.301   1.205   1.782  0.7558  0.7021  1.1547
 9219TIP3   OH227620   1.742   5.055   5.433  0.2307  0.2978 -0.3157
 9219TIP3    H127621   1.675   5.095   5.488  1.1364 -0.3815  1.3410
 9219TIP3    H227622   1.763   4.973   5.478  3.2410  1.2107  0.0581
 9220TIP3   OH227623   4.092   6.241   4.497  0.2064  0.2356 -0.0757
 9220TIP3    H127624   4.183   6.258   4.471 -0.2187 -0.5677 -2.1974
 9220TIP3    H227625   4.065   6.322   4.540  1.6779  0.7873 -0.1337
 9221TIP3   OH227626   1.777   4.845   5.622  0.1397 -0.2111 -0.5274
 9221TIP3    H127627   1.723   4.901   5.678 -0.3198 -2.5236  1.4235
 9221TIP3    H227628   1.717   4.780   5.587  1.1029 -1.0273 -0.7038
 9222TIP3   OH227629   6.610   2.947   2.915  0.5393 -0.2020 -0.0408
 9222TIP3    H127630   6.689   2.940   2.969  0.5111  1.2950  0.2089
 9222TIP3    H227631   6.544   2.983   2.974  0.1623  0.2420 -0.7330
 9223TIP3   OH227632   7.019   0.755   3.893  0.2695 -0.0789 -0.1044
 9223TIP3    H127633   7.029   0.669   3.852 -0.3784  0.7683 -2.0541
 9223TIP3    H227634   6.959   0.740   3.966  0.3499 -1.3222 -0.2810
 9224TIP3   OH227635   5.292   0.214   4.929 -0.6598 -0.4134  0.5908
 9224TIP3    H127636   5.309   0.169   5.011 -1.9016 -0.1595  0.9914
 9224TIP3    H227637   5.291   0.307   4.952 -2.0627 -0.3934  0.4934
 9225TIP3   OH227638   4.838   6.129   4.562 -0.5612  0.0718 -0.7391
 9225TIP3    H127639   4.873   6.105   4.476 -1.0946 -1.9080 -0.4150
 9225TIP3    H227640   4.910   6.110   4.623  0.5803  3.3866 -0.8998
 9226TIP3   OH227641   6.966   0.357   5.943  0.2599  0.2975 -0.3069
 9226TIP3    H127642   6.923   0.433   5.981  0.8057  0.4434  0.0248
 9226TIP3    H227643   6.986   0.383   5.853 -0.7851  0.0512 -0.6165
 9227TIP3   OH227644   1.462   5.822   5.757  0.4234 -0.6648 -0.1148
 9227TIP3    H127645   1.526   5.856   5.819  0.8789  0.3233 -1.1011
 9227TIP3    H227646   1.498   5.843   5.671 -1.1237 -0.2413 -0.6925
 9228TIP3   OH227647   0.672   1.810   2.056  0.7041  0.2030  0.2338
 9228TIP3    H127648   0.681   1.903   2.035 -0.3568  0.6732  1.7881
 9228TIP3    H227649   0.757   1.784   2.090  1.2110  0.4327 -0.8498
 9229TIP3   OH227650   7.355   3.850   0.075 -0.0936 -0.1620 -0.1715
 9229TIP3    H127651   7.328   3.875   0.164  1.4991  1.2822 -0.0713
 9229TIP3    H227652   7.273   3.832   0.030 -0.9757 -0.1077  1.3691
 9230TIP3   OH227653   1.150   5.080   0.670  0.2535 -0.2772  0.2938
 9230TIP3    H127654   1.183   5.159   0.714 -0.4664  0.5849 -0.7115
 9230TIP3    H227655   1.083   5.046   0.730  1.7932 -1.1381  1.5756
 9231TIP3   OH227656   1.921   5.247   3.856  0.0441 -0.4008 -0.0080
 9231TIP3    H127657   1.972   5.325   3.835  0.4937 -1.2947 -2.3397
 9231TIP3    H227658   1.847   5.250   3.794  0.5103 -2.2433 -0.6663
 9232TIP3   OH227659   5.675   6.807   4.474  0.1619 -0.2129 -0.4002
 9232TIP3    H127660   5.669   6.775   4.565 -1.8060 -0.1013 -0.4695
 9232TIP3    H227661   5.671   6.728   4.421 -0.3158 -0.1601 -0.4415
 9233TIP3   OH227662   5.829   0.953   4.699  0.2729  0.2214 -0.0120
 9233TIP3    H127663   5.790   1.014   4.762  0.9636  1.4409 -0.7468
 9233TIP3    H227664   5.790   0.976   4.615 -2.2794 -2.8205  0.2602
 9234TIP3   OH227665   7.060   0.244   3.007  0.0915  0.0500  0.0129
 9234TIP3    H127666   7.036   0.330   2.971 -0.0198 -0.0741 -0.2107
 9234TIP3    H227667   7.093   0.195   2.931 -0.8250 -0.4641 -0.0671
 9235TIP3   OH227668   6.629   3.647   0.887  0.0490  0.1163 -0.1054
 9235TIP3    H127669   6.588   3.586   0.825 -0.1626 -1.2178  1.3070
 9235TIP3    H227670   6.685   3.702   0.833 -0.9071 -0.3563 -1.6101
 9236TIP3   OH227671   2.345   6.619   5.891 -0.0168 -0.0440 -0.9838
 9236TIP3    H127672   2.258   6.580   5.878  0.0079 -0.0497 -1.1403
 9236TIP3    H227673   2.401   6.546   5.916 -0.1536  0.0362 -0.4424
 9237TIP3   OH227674   3.126   6.772   5.095  0.5976 -0.5651  0.6737
 9237TIP3    H127675   3.058   6.776   5.162  0.4392 -1.7252  0.5846
 9237TIP3    H227676   3.152   6.863   5.083 -0.7872 -0.1301  0.8575
 9238TIP3   OH227677   0.450   1.895   5.630 -0.4758  0.3692 -0.2456
 9238TIP3    H127678   0.367   1.901   5.584 -0.9022 -0.3491  0.4126
 9238TIP3    H227679   0.475   1.986   5.647 -1.2819  0.5762 -0.1768
 9239TIP3   OH227680   3.528   6.771   4.399 -0.4588  0.0765 -0.6798
 9239TIP3    H127681   3.606   6.820   4.374 -1.2414  0.6147 -2.1483
 9239TIP3    H227682   3.561   6.695   4.447  0.9383  0.4768 -0.9948
 9240TIP3   OH227683   5.723   0.047   5.132  0.0344  0.3954  0.0073
 9240TIP3    H127684   5.791   0.108   5.161  1.3229 -0.9521 -0.1358
 9240TIP3    H227685   5.681   0.091   5.058  1.7463  0.6165 -0.8532
 9241TIP3   OH227686   1.630   6.155   5.502 -0.0888 -0.1919 -0.5414
 9241TIP3    H127687   1.555   6.182   5.555 -0.1925 -0.9453 -0.2975
 9241TIP3    H227688   1.685   6.233   5.496 -1.3546  0.6482 -1.5154
 9242TIP3   OH227689   1.044   4.567   5.285 -0.1923 -0.7265  0.1499
 9242TIP3    H127690   1.023   4.658   5.302 -0.2264 -0.4196 -1.4527
 9242TIP3    H227691   0.994   4.518   5.350 -0.9768  0.3383  0.3579
 9243TIP3   OH227692   2.934   1.255   5.022  0.0709  0.4295  0.0574
 9243TIP3    H127693   2.959   1.225   5.109 -1.5541  0.9999  0.7374
 9243TIP3    H227694   2.901   1.344   5.035 -3.1283 -0.5748 -0.6165
 9244TIP3   OH227695   1.936   5.635   5.251  0.4078 -0.3193  0.1008
 9244TIP3    H127696   1.866   5.673   5.198 -0.1097  0.0603  1.0433
 9244TIP3    H227697   2.016   5.672   5.215  0.0492  0.0313 -0.3409
 9245TIP3   OH227698   2.168   5.292   4.713 -0.3871  0.1192  0.0816
 9245TIP3    H127699   2.224   5.238   4.769  0.9004  0.1233 -1.1964
 9245TIP3    H227700   2.227   5.356   4.673 -1.5660  1.1598 -0.0256
 9246TIP3   OH227701   1.078   3.255  -0.004 -0.1065 -0.0751  0.0826
 9246TIP3    H127702   1.111   3.319   0.058  0.6990 -1.3641  1.0235
 9246TIP3    H227703   0.989   3.236   0.026  0.7692 -1.7278  1.7102
 9247TIP3   OH227704   7.369   1.641   4.495 -0.0736  0.6418  0.7586
 9247TIP3    H127705   7.375   1.545   4.500  0.3270  0.5081 -1.4581
 9247TIP3    H227706   7.288   1.663   4.540 -0.8021 -0.8624  0.2188
 9248TIP3   OH227707   5.425   1.936   0.993  0.4921  0.8085  0.4040
 9248TIP3    H127708   5.451   2.011   0.940 -0.6629  1.2322  0.4273
 9248TIP3    H227709   5.355   1.969   1.049 -0.0787 -0.2991  0.3584
 9249TIP3   OH227710   1.128   5.367   5.724 -0.0468 -0.2858  0.3119
 9249TIP3    H127711   1.168   5.454   5.730  0.7914 -0.6835  0.5247
 9249TIP3    H227712   1.200   5.306   5.737 -0.6175 -1.0226  0.0794
 9250TIP3   OH227713   7.291   3.875   0.627 -0.1775  0.3053  0.5527
 9250TIP3    H127714   7.375   3.880   0.672 -0.6912 -0.2772  1.6089
 9250TIP3    H227715   7.272   3.781   0.620 -1.3925  0.4567  1.6029
 9251TIP3   OH227716   1.194   5.870   0.648  0.3511  0.4584 -0.1739
 9251TIP3    H127717   1.285   5.863   0.677 -0.0854 -1.2797  0.8657
 9251TIP3    H227718   1.168   5.959   0.672  1.5222  0.6764  0.3157
 9252TIP3   OH227719   0.125   5.169   0.249  0.0684 -0.3946  0.5692
 9252TIP3    H127720   0.156   5.088   0.210 -0.0656 -0.1377 -0.0689
 9252TIP3    H227721   0.059   5.142   0.313  1.7060 -0.9666  2.0647
 9253TIP3   OH227722   4.370   5.518   5.613  0.0226  0.3849 -0.3067
 9253TIP3    H127723   4.334   5.604   5.635  1.5930  0.8074  0.6275
 9253TIP3    H227724   4.296   5.458   5.624 -0.9695  1.5478 -0.5527
 9254TIP3   OH227725   2.204   4.662   5.385  0.0300  0.2654  0.2026
 9254TIP3    H127726   2.299   4.670   5.387 -0.1115  3.3051 -1.0877
 9254TIP3    H227727   2.178   4.647   5.476  1.7260 -0.2691  0.6025
 9255TIP3   OH227728   6.470   3.827   0.997 -0.1595  0.1816  0.1361
 9255TIP3    H127729   6.521   3.769   0.940 -0.3672 -0.3020  0.4351
 9255TIP3    H227730   6.381   3.792   0.993 -0.2777  0.4601  0.3497
 9256TIP3   OH227731   0.276   1.953   0.141  0.2047 -0.0280  0.8486
 9256TIP3    H127732   0.199   1.975   0.089  1.2395 -1.1142 -1.1857
 9256TIP3    H227733   0.288   2.029   0.199 -0.9970  1.1862 -0.4495
 9257TIP3   OH227734   6.997   0.466   5.691 -0.2188  0.3114  0.2972
 9257TIP3    H127735   7.007   0.560   5.708  0.6993  0.3808 -0.5331
 9257TIP3    H227736   7.083   0.429   5.712 -0.2951 -0.1949 -0.2859
 9258TIP3   OH227737   0.647   2.687  -0.023  0.2460  0.3335 -0.3759
 9258TIP3    H127738   0.564   2.660   0.017  0.6808  0.0253  0.3359
 9258TIP3    H227739   0.709   2.687   0.050  0.7112  1.2695 -0.7676
 9259TIP3   OH227740   6.318   2.137   0.442 -0.3735 -0.4336  0.3510
 9259TIP3    H127741   6.272   2.212   0.402  1.0944  0.1010 -0.3851
 9259TIP3    H227742   6.360   2.093   0.368  1.4085 -0.1301  1.1651
 9260TIP3   OH227743   5.539   0.925   5.872 -0.1874 -0.5139  0.2485
 9260TIP3    H127744   5.592   0.882   5.804 -0.2530 -0.2568  0.0327
 9260TIP3    H227745   5.467   0.863   5.888 -0.8153 -0.0552 -0.7589
 9261TIP3   OH227746   6.238   0.174   6.048 -0.1381  0.2652  0.1435
 9261TIP3    H127747   6.294   0.194   5.973  1.5678 -1.2034  0.9892
 9261TIP3    H227748   6.195   0.257   6.068  2.6856  1.7766  0.2620
 9262TIP3   OH227749   0.893   4.341   0.685 -0.2849  0.6391  0.0613
 9262TIP3    H127750   0.874   4.361   0.777 -0.0288  1.5990 -0.0975
 9262TIP3    H227751   0.974   4.387   0.667  0.8428 -1.3012 -0.0256
 9263TIP3   OH227752   2.383   5.590   5.180 -0.4003 -0.5715 -0.2402
 9263TIP3    H127753   2.350   5.502   5.197  0.7739 -0.8674  0.5853
 9263TIP3    H227754   2.439   5.609   5.255  0.9975  0.0531 -1.4318
 9264TIP3   OH227755   7.342   1.044   5.696  0.1190 -0.2052  0.0918
 9264TIP3    H127756   7.262   1.088   5.727  0.6275  0.5556  0.3451
 9264TIP3    H227757   7.350   0.966   5.750 -1.0214 -0.8396 -0.6296
 9265TIP3   OH227758   6.370   3.662   5.149  0.7462 -0.3148  0.5036
 9265TIP3    H127759   6.407   3.602   5.214 -1.3198  0.3138  2.3343
 9265TIP3    H227760   6.446   3.710   5.115  2.2120 -2.7300  0.2501
 9266TIP3   OH227761   3.219   6.123   5.595  0.0496  0.0058 -0.2855
 9266TIP3    H127762   3.304   6.079   5.583 -0.5460 -1.6742  1.3688
 9266TIP3    H227763   3.241   6.206   5.637  0.8996 -0.2740 -0.1682
 9267TIP3   OH227764   2.038   5.818   5.664  0.3116 -0.0735  0.4311
 9267TIP3    H127765   1.994   5.760   5.602 -1.1764 -0.7457  2.0983
 9267TIP3    H227766   2.130   5.790   5.662  0.0685 -0.8285 -0.6280
 9268TIP3   OH227767   3.845   1.046   4.248 -0.2384 -0.1318  0.0252
 9268TIP3    H127768   3.878   1.056   4.337  0.7306  1.0796 -0.4485
 9268TIP3    H227769   3.860   1.131   4.207 -0.1473 -0.8428 -1.4598
 9269TIP3   OH227770   2.275   5.556   5.738  0.3923  0.6790  0.5066
 9269TIP3    H127771   2.266   5.650   5.721  0.0723  0.3694 -1.0980
 9269TIP3    H227772   2.222   5.540   5.816  1.0233  1.9516  1.2133
 9270TIP3   OH227773   7.158   6.822   4.320 -0.3955  0.0423 -0.1321
 9270TIP3    H127774   7.211   6.836   4.398  0.5265  0.7325 -0.8705
 9270TIP3    H227775   7.128   6.909   4.295 -0.6800 -0.1736 -0.5572
 9271TIP3   OH227776   4.467   0.966   4.426  0.0023 -0.4918  0.1341
 9271TIP3    H127777   4.413   0.888   4.409  0.5587 -0.8129 -0.1726
 9271TIP3    H227778   4.429   1.004   4.505 -2.0725  0.5326 -1.2896
 9272TIP3   OH227779   4.751   0.397   4.955 -0.4138  0.4704  0.3427
 9272TIP3    H127780   4.729   0.368   4.866 -2.8547  2.4465  0.2644
 9272TIP3    H227781   4.747   0.317   5.007 -1.3642 -0.3101 -0.8830
 9273TIP3   OH227782   2.600   5.864   4.717 -0.4964  0.5289  0.1496
 9273TIP3    H127783   2.674   5.895   4.770 -0.4045  1.1690 -0.3459
 9273TIP3    H227784   2.523   5.888   4.769 -0.4377  1.9192 -0.3896
 9274TIP3   OH227785   2.782   4.033   2.297  0.4807 -0.7153  0.1683
 9274TIP3    H127786   2.745   4.014   2.211  1.9802  0.8054 -0.8569
 9274TIP3    H227787   2.864   4.079   2.278  0.7179 -0.1449  2.4095
 9275TIP3   OH227788   2.307   6.344   4.747  0.3916  0.1582  0.2364
 9275TIP3    H127789   2.214   6.334   4.730  0.5769  0.7488 -1.2080
 9275TIP3    H227790   2.350   6.289   4.682  1.0578 -0.0507  0.8375
 9276TIP3   OH227791   5.000   6.336   5.899  0.1362 -0.3073  0.3482
 9276TIP3    H127792   4.937   6.387   5.849 -0.3748  1.2900  2.5614
 9276TIP3    H227793   4.988   6.246   5.868  0.5249  0.7506 -3.0616
 9277TIP3   OH227794   7.010   2.909   0.545  0.0988 -0.3623 -0.4393
 9277TIP3    H127795   7.090   2.864   0.572  0.9581  1.3426 -0.0528
 9277TIP3    H227796   7.028   3.002   0.560 -1.4310  0.1758 -1.7055
 9278TIP3   OH227797   6.807   2.649   1.464  0.4394  0.0225 -0.4548
 9278TIP3    H127798   6.872   2.694   1.409  0.8396  1.1223  0.9050
 9278TIP3    H227799   6.830   2.556   1.457  2.3233  0.4195  0.2201
 9279TIP3   OH227800   1.216   5.676   0.853 -0.3678  0.1193  0.0869
 9279TIP3    H127801   1.302   5.708   0.825 -0.4280 -0.8368 -1.2130
 9279TIP3    H227802   1.212   5.698   0.946  0.7736  1.2830 -0.1206
 9280TIP3   OH227803   1.134   3.014   0.698 -0.3557  0.2221  0.4376
 9280TIP3    H127804   1.210   2.962   0.672 -1.3539 -1.2657  0.4654
 9280TIP3    H227805   1.153   3.043   0.787  0.9796  1.3914 -0.2115
 9281TIP3   OH227806   7.198   3.588   0.769 -0.4531 -0.3825  0.0044
 9281TIP3    H127807   7.158   3.522   0.826 -0.6114 -0.5978 -0.3567
 9281TIP3    H227808   7.287   3.556   0.755 -1.0475 -1.3803 -1.5300
 9282TIP3   OH227809   5.354   0.232   5.922  0.0638  0.8825 -0.3647
 9282TIP3    H127810   5.320   0.299   5.983 -3.0467 -0.3663 -0.6235
 9282TIP3    H227811   5.407   0.281   5.860 -1.3608  3.0249  0.0309
 9283TIP3   OH227812   2.760   0.919   5.229 -0.6272 -0.6458 -0.1230
 9283TIP3    H127813   2.731   1.010   5.215 -2.1009 -1.1056 -0.1299
 9283TIP3    H227814   2.704   0.867   5.172  1.9021 -1.3644 -2.0331
 9284TIP3   OH227815   1.106   0.957   2.101  1.2465  0.0455  0.2886
 9284TIP3    H127816   1.089   0.979   2.193 -0.2239  1.2500 -0.2439
 9284TIP3    H227817   1.132   1.040   2.061 -0.9376  0.1621 -0.9860
 9285TIP3   OH227818   7.420   0.784   1.206  0.1088 -0.3940 -1.3206
 9285TIP3    H127819   7.350   0.808   1.267  0.0329 -0.8930 -1.2112
 9285TIP3    H227820   7.412   0.689   1.196  1.5022 -0.6114 -0.4148
 9286TIP3   OH227821   0.165   2.737   0.706 -0.2699 -0.6465  0.0927
 9286TIP3    H127822   0.075   2.712   0.726 -0.6949  0.1636 -0.7471
 9286TIP3    H227823   0.156   2.815   0.651  0.9742  0.2241  1.1000
 9287TIP3   OH227824   6.673   3.332   0.883 -0.4293 -0.1455 -0.1975
 9287TIP3    H127825   6.673   3.255   0.826 -1.0522 -0.2940 -0.0024
 9287TIP3    H227826   6.591   3.377   0.861 -0.4142  0.0757  0.2019
 9288TIP3   OH227827   5.192   0.544   5.337 -0.7108  0.1518 -0.0864
 9288TIP3    H127828   5.199   0.619   5.278 -0.6161 -0.0367 -0.3147
 9288TIP3    H227829   5.279   0.504   5.334 -0.0865  1.3062  1.7379
 9289TIP3   OH227830   4.366   0.486   4.981  0.2715  0.5496  0.7037
 9289TIP3    H127831   4.307   0.543   4.931 -1.0547 -1.4496 -0.0827
 9289TIP3    H227832   4.312   0.455   5.055 -0.0364 -2.1078 -0.5866
 9290TIP3   OH227833   2.172   5.726   5.113 -0.2282  0.3476  0.3348
 9290TIP3    H127834   2.163   5.727   5.018  1.8466  1.7838  0.1313
 9290TIP3    H227835   2.246   5.668   5.130 -1.8888 -1.5751  1.2355
 9291TIP3   OH227836   4.091   0.710   5.934 -0.2005  0.2465  0.1142
 9291TIP3    H127837   4.072   0.802   5.952 -0.6182  0.0537  0.6765
 9291TIP3    H227838   4.186   0.707   5.923 -0.5272  1.4409 -3.9924
 9292TIP3   OH227839   5.577   0.227   5.540  0.0700  0.1482  0.0377
 9292TIP3    H127840   5.643   0.265   5.597 -1.5270  3.1719 -0.0239
 9292TIP3    H227841   5.551   0.146   5.583  3.0564 -0.5657  0.5690
 9293TIP3   OH227842   5.388   2.091   5.775 -0.0682  0.0603 -0.1698
 9293TIP3    H127843   5.434   2.049   5.847 -1.6724 -0.3864  0.6043
 9293TIP3    H227844   5.416   2.043   5.697  0.4786 -0.4541  0.3452
 9294TIP3   OH227845   5.250   6.305   5.622 -0.2667 -0.7782 -0.9672
 9294TIP3    H127846   5.325   6.337   5.572  0.6257 -0.9979  0.2201
 9294TIP3    H227847   5.277   6.219   5.654 -0.6839 -0.4777  0.2082
 9295TIP3   OH227848   0.905   2.394   0.945  0.1618  0.1596 -0.4804
 9295TIP3    H127849   0.972   2.366   1.008 -0.7171  1.1214  0.9099
 9295TIP3    H227850   0.860   2.313   0.921  0.8685 -0.2916 -0.3103
 9296TIP3   OH227851   3.747   6.918   4.069 -0.5143  0.0999  0.4472
 9296TIP3    H127852   3.825   6.905   4.015  0.6539  0.9798  1.8885
 9296TIP3    H227853   3.677   6.937   4.006  0.9314  1.6805 -0.7397
 9297TIP3   OH227854   6.305   1.005   5.719 -0.5888  0.2060 -0.0691
 9297TIP3    H127855   6.268   1.092   5.734 -2.2953 -0.7107  1.1429
 9297TIP3    H227856   6.318   1.001   5.624 -0.7431  1.6716 -0.1671
 9298TIP3   OH227857   2.900   5.006   0.081 -0.6646 -0.1083 -0.0452
 9298TIP3    H127858   2.986   5.016   0.039 -1.0506  0.8779 -0.6155
 9298TIP3    H227859   2.857   4.937   0.031 -0.2926 -0.4477  0.0988
 9299TIP3   OH227860   5.122   4.608   2.652  0.8012 -0.1641  0.9376
 9299TIP3    H127861   5.059   4.675   2.679 -0.8172 -1.8148  1.3505
 9299TIP3    H227862   5.071   4.548   2.597  2.0481 -1.4332  1.1476
 9300TIP3   OH227863   0.326   1.253   0.310  0.2125 -0.4051 -1.0997
 9300TIP3    H127864   0.366   1.172   0.343  0.1055 -1.0186 -2.4328
 9300TIP3    H227865   0.388   1.322   0.332 -0.2669 -0.6623  1.1621
 9301TIP3   OH227866   3.528   4.974   5.862  0.4030 -0.5807  0.2654
 9301TIP3    H127867   3.507   4.921   5.786  0.6562  0.8827 -0.8369
 9301TIP3    H227868   3.623   4.985   5.860  0.1709  1.4573 -0.5776
 9302TIP3   OH227869   1.831   2.699   0.071 -0.5129 -0.0204 -0.0382
 9302TIP3    H127870   1.767   2.719   0.002 -0.7034  1.6756  0.6057
 9302TIP3    H227871   1.788   2.635   0.127 -0.5534 -1.0310 -1.2077
 9303TIP3   OH227872   6.195   6.297   4.645  0.3420 -0.4456  0.0408
 9303TIP3    H127873   6.289   6.298   4.627  0.2312 -0.0814 -0.5187
 9303TIP3    H227874   6.185   6.234   4.717  0.7445 -2.2682 -1.4484
 9304TIP3   OH227875   2.687   5.870   4.022  0.1995  0.5992 -0.7159
 9304TIP3    H127876   2.631   5.844   4.095 -1.1582 -1.1442 -2.3078
 9304TIP3    H227877   2.773   5.833   4.043 -0.0549  0.5491  0.2474
 9305TIP3   OH227878   2.800   6.604   5.413  0.2492  0.2683 -0.1917
 9305TIP3    H127879   2.890   6.574   5.426 -0.2958 -1.4186 -0.2241
 9305TIP3    H227880   2.780   6.655   5.492  1.4350  1.1631 -0.4610
 9306TIP3   OH227881   2.119   1.777   0.151 -0.2105 -0.0742  0.6778
 9306TIP3    H127882   2.052   1.709   0.161  0.7102 -1.2336 -0.7693
 9306TIP3    H227883   2.103   1.815   0.065  1.7572 -1.2815 -0.2711
 9307TIP3   OH227884   4.437   6.576   0.567 -0.2501 -0.1407 -0.6705
 9307TIP3    H127885   4.362   6.634   0.550 -0.2608  0.7781  2.2107
 9307TIP3    H227886   4.405   6.488   0.546 -1.2685  0.5373 -2.0044
 9308TIP3   OH227887   1.164   4.683   0.547  0.5005 -0.2210  0.3547
 9308TIP3    H127888   1.079   4.728   0.545  0.0841 -0.9458  1.3980
 9308TIP3    H227889   1.145   4.597   0.584  1.3179 -1.2405 -1.4851
 9309TIP3   OH227890   4.505   2.010  -0.001 -0.4134  0.2922  0.5145
 9309TIP3    H127891   4.418   1.995  -0.039  0.1951 -1.6089 -0.1737
 9309TIP3    H227892   4.488   2.030   0.091 -1.6712  1.4235  0.0514
 9310TIP3   OH227893   4.432   5.212   5.790  0.6337  0.2924 -0.0946
 9310TIP3    H127894   4.346   5.235   5.753  0.7128  1.9546  0.7309
 9310TIP3    H227895   4.411   5.162   5.869  0.4618 -1.4816 -1.2157
 9311TIP3   OH227896   4.130   5.823   5.524 -0.1689 -0.4945  0.1331
 9311TIP3    H127897   4.122   5.812   5.619  0.9543 -0.4572  0.2383
 9311TIP3    H227898   4.089   5.907   5.506  1.9947  0.7544  0.9476
 9312TIP3   OH227899   5.078   3.456   3.803 -0.5433 -0.0121 -0.0257
 9312TIP3    H127900   5.058   3.509   3.881  0.8737 -0.5625  0.7319
 9312TIP3    H227901   5.041   3.370   3.822  0.6552 -0.4297  0.4813
 9313TIP3   OH227902   2.047   1.975   0.329  0.1640 -0.0535  0.1234
 9313TIP3    H127903   2.056   1.902   0.267 -0.6068  0.5399 -0.7070
 9313TIP3    H227904   2.094   2.047   0.288  1.3739 -0.2157  1.1924
 9314TIP3   OH227905   7.264   3.129   0.803 -0.7377  0.9038 -0.5643
 9314TIP3    H127906   7.312   3.112   0.722  0.9866 -0.9428  0.7925
 9314TIP3    H227907   7.329   3.162   0.864 -1.7423  0.9911  0.4851
 9315TIP3   OH227908   4.529   5.424   5.969 -0.2377  0.2509 -0.6999
 9315TIP3    H127909   4.446   5.472   5.961 -0.8286 -0.6394 -0.0531
 9315TIP3    H227910   4.513   5.341   5.923 -0.5919 -1.0296  1.6586
 9316TIP3   OH227911   3.771   6.161   5.508 -0.4056  0.8433  0.1999
 9316TIP3    H127912   3.728   6.246   5.497  0.3577  1.4721  1.9795
 9316TIP3    H227913   3.801   6.161   5.599  1.5101 -0.4572 -0.4210
 9317TIP3   OH227914   1.763   4.892   4.874  0.2067  0.5645 -0.3365
 9317TIP3    H127915   1.697   4.960   4.857  0.8862  0.6493 -2.7777
 9317TIP3    H227916   1.846   4.939   4.875  0.5796 -0.0728 -1.0126
 9318TIP3   OH227917   2.401   2.807   0.691  0.0088  0.7148 -0.2534
 9318TIP3    H127918   2.458   2.845   0.624  0.8895  0.1802  0.1882
 9318TIP3    H227919   2.386   2.718   0.661 -0.0670  0.6522 -0.0264
 9319TIP3   OH227920   4.393   0.674   6.050  0.4661  0.1482  0.8104
 9319TIP3    H127921   4.343   0.739   6.100 -0.0934 -0.6617  1.3202
 9319TIP3    H227922   4.385   0.704   5.959 -2.1169 -0.6973  0.7166
 9320TIP3   OH227923   1.186   1.349   0.423  0.1781 -0.5295  0.4754
 9320TIP3    H127924   1.190   1.412   0.350 -2.8163  1.7954  2.1967
 9320TIP3    H227925   1.110   1.294   0.403 -0.4163 -0.1367  1.6137
 9321TIP3   OH227926   2.988   6.852   5.355 -0.6691 -0.2083  0.0940
 9321TIP3    H127927   3.069   6.814   5.387  0.3908  1.3176 -0.7173
 9321TIP3    H227928   2.937   6.871   5.433 -0.2390 -1.1392  0.6084
 9322TIP3   OH227929   2.536   6.333   4.421 -0.1753  0.0519 -0.3383
 9322TIP3    H127930   2.562   6.295   4.505  0.5559  1.7000  0.2101
 9322TIP3    H227931   2.558   6.266   4.356  0.8842 -0.5463  0.6246
 9323TIP3   OH227932   3.308   0.218   5.136  0.0873  0.3745  0.3371
 9323TIP3    H127933   3.314   0.170   5.219  0.2656 -0.6389 -0.2570
 9323TIP3    H227934   3.395   0.256   5.124  0.7822 -1.4151 -0.5277
 9324TIP3   OH227935   1.322   6.463   5.386 -0.2807 -0.5333 -0.2245
 9324TIP3    H127936   1.245   6.480   5.441 -1.8859 -1.2101 -2.1746
 9324TIP3    H227937   1.396   6.490   5.440 -1.9614  1.4393  1.2267
 9325TIP3   OH227938   2.171   3.335   4.936  0.4236  0.1797  0.2299
 9325TIP3    H127939   2.123   3.382   5.004 -0.1266 -0.2523  0.1342
 9325TIP3    H227940   2.241   3.396   4.910 -0.0510  0.7899  0.3835
 9326TIP3   OH227941   3.209   5.598   4.274 -0.2649 -0.0850  0.3952
 9326TIP3    H127942   3.236   5.643   4.194 -1.9242  1.0444  0.4381
 9326TIP3    H227943   3.132   5.547   4.248  0.5635 -1.5477  0.7541
 9327TIP3   OH227944   2.402   6.432   5.660  0.3047 -0.0397 -0.0910
 9327TIP3    H127945   2.313   6.401   5.643  0.4630 -1.3386  1.3545
 9327TIP3    H227946   2.396   6.527   5.650 -1.2929 -0.0895  0.2349
 9328TIP3   OH227947   5.141   0.232   3.854 -0.0028  0.0984 -0.2333
 9328TIP3    H127948   5.068   0.280   3.894  0.6771  0.5548  0.4750
 9328TIP3    H227949   5.188   0.192   3.927 -1.5072 -3.0786 -0.9245
 9329TIP3   OH227950   3.516   4.852   5.572  0.2135  0.0724 -0.4500
 9329TIP3    H127951   3.582   4.821   5.509  1.3403  1.8392 -0.1778
 9329TIP3    H227952   3.510   4.781   5.636  2.9641  0.4656  0.3147
 9330TIP3   OH227953   0.161   3.062   1.895 -0.0447 -0.0538  0.5324
 9330TIP3    H127954   0.138   2.973   1.868 -0.3586  0.3402 -0.5445
 9330TIP3    H227955   0.210   3.051   1.976 -0.8294 -1.1502  0.8719
 9331TIP3   OH227956   1.127   6.677   4.825  0.1700  0.3602  0.0926
 9331TIP3    H127957   1.174   6.741   4.772 -0.0115 -0.1743 -0.7322
 9331TIP3    H227958   1.157   6.592   4.792 -0.2387  0.0231  0.5829
 9332TIP3   OH227959   1.325   1.684   0.685 -0.0089  0.1572 -0.7670
 9332TIP3    H127960   1.350   1.702   0.594 -0.0751  1.5788 -0.5232
 9332TIP3    H227961   1.369   1.753   0.735  0.1670 -0.7205  0.3021
 9333TIP3   OH227962   2.180   3.436   0.636 -0.3131  0.3810 -0.2240
 9333TIP3    H127963   2.108   3.489   0.671 -0.2048 -0.3042  1.0412
 9333TIP3    H227964   2.158   3.424   0.544 -1.4548  0.7862 -0.0087
 9334TIP3   OH227965   0.028   0.301   4.412 -0.6491  0.0219 -0.3488
 9334TIP3    H127966  -0.033   0.282   4.340 -2.0268  1.3990  0.4265
 9334TIP3    H227967   0.105   0.248   4.392 -0.9323  0.5326 -2.9436
 9335TIP3   OH227968   6.449   0.230   5.871 -0.0305  0.0911  0.0564
 9335TIP3    H127969   6.456   0.206   5.778 -1.7243 -1.4826  0.3075
 9335TIP3    H227970   6.514   0.299   5.883  2.3302 -1.7561 -1.6256
 9336TIP3   OH227971   3.552   6.481   5.276 -0.1855 -0.0882  0.5658
 9336TIP3    H127972   3.578   6.401   5.230  2.6579  0.6908  0.6697
 9336TIP3    H227973   3.463   6.498   5.247 -0.0069 -2.0175 -1.2532
 9337TIP3   OH227974   3.854   6.330   5.272 -0.1498 -0.6346 -0.1497
 9337TIP3    H127975   3.927   6.318   5.211  2.3467 -0.8444  2.7582
 9337TIP3    H227976   3.875   6.410   5.319 -1.4089 -1.1221  1.2664
 9338TIP3   OH227977   6.704   0.613   5.066 -0.0343 -0.0136 -0.2802
 9338TIP3    H127978   6.692   0.582   5.156 -0.8379 -0.7931 -0.6474
 9338TIP3    H227979   6.783   0.666   5.070  0.9723 -1.5101  0.5505
 9339TIP3   OH227980   1.166   6.425   0.401 -0.6720 -0.7952 -0.0452
 9339TIP3    H127981   1.110   6.494   0.436  0.8156  0.3929  0.0238
 9339TIP3    H227982   1.182   6.367   0.475  0.5605  0.4464  0.6741
 9340TIP3   OH227983   6.465   1.401   5.762  0.6550  0.7103  0.0919
 9340TIP3    H127984   6.558   1.400   5.739  0.9389 -1.2628  1.1561
 9340TIP3    H227985   6.462   1.450   5.845  1.0086 -0.6888  0.9532
 9341TIP3   OH227986   1.773   4.960   0.226  0.0695  0.0748 -0.3725
 9341TIP3    H127987   1.856   4.914   0.234 -0.3610 -0.3975  1.7400
 9341TIP3    H227988   1.793   5.051   0.246  0.2438  0.1238 -0.7756
 9342TIP3   OH227989   0.554   0.033   4.820 -0.3090 -0.0115  0.0684
 9342TIP3    H127990   0.500  -0.025   4.766 -1.9274  1.2866  0.2429
 9342TIP3    H227991   0.596   0.093   4.758 -0.3866  0.0399  0.0655
 9343TIP3   OH227992   4.672   2.403   0.187  0.3196 -0.3751 -0.1029
 9343TIP3    H127993   4.688   2.354   0.267  1.5255  0.6320  0.2887
 9343TIP3    H227994   4.758   2.409   0.144 -0.2144 -0.4583 -1.2183
 9344TIP3   OH227995   4.111   4.214   5.277 -0.4266 -0.1453 -0.3047
 9344TIP3    H127996   4.084   4.221   5.186 -2.8743 -1.8460  0.2295
 9344TIP3    H227997   4.079   4.294   5.318 -1.1783 -0.3362 -0.5156
 9345TIP3   OH227998   6.604   0.056   5.438 -0.0555 -0.4317  0.2809
 9345TIP3    H127999   6.622   0.057   5.344  0.8260 -3.3387  0.3578
 9345TIP3    H228000   6.684   0.090   5.479  0.4735 -1.4172  0.0741
 9346TIP3   OH228001   4.979   4.680   0.602 -0.4273  0.2755  0.1180
 9346TIP3    H128002   5.017   4.699   0.688  0.1691  0.2554 -0.1405
 9346TIP3    H228003   4.932   4.759   0.578 -0.9579  0.1313  0.6538
 9347TIP3   OH228004   3.455   6.597   4.910 -0.1890  0.6871 -0.7694
 9347TIP3    H128005   3.411   6.541   4.973  0.8158 -1.0502 -1.5780
 9347TIP3    H228006   3.386   6.621   4.847 -0.5749  0.1974 -0.5359
 9348TIP3   OH228007   3.039   3.973   0.782  0.3063  0.4121 -0.3653
 9348TIP3    H128008   2.987   3.928   0.849  1.3321  0.2150  0.3170
 9348TIP3    H228009   2.978   3.988   0.710 -1.2618  2.1262  1.2684
 9349TIP3   OH228010   7.331   1.163   5.419 -0.2827 -0.3632 -0.0212
 9349TIP3    H128011   7.273   1.096   5.454  0.7374 -0.1993  2.1175
 9349TIP3    H228012   7.416   1.119   5.409  0.1175  0.3130  0.3515
 9350TIP3   OH228013   5.098   5.943   5.254  0.0256  0.5865  0.3641
 9350TIP3    H128014   5.163   5.916   5.319  0.2962 -0.5957 -0.3636
 9350TIP3    H228015   5.142   5.929   5.170 -0.6297  1.2588 -0.0963
 9351TIP3   OH228016   1.271   0.263   4.806  0.1642 -0.1684 -0.1101
 9351TIP3    H128017   1.270   0.173   4.839  0.7495  0.1964  0.9216
 9351TIP3    H228018   1.210   0.310   4.862 -1.8917 -0.3941 -2.0845
 9352TIP3   OH228019   6.379   0.504   3.461  0.2613  0.0866 -0.2597
 9352TIP3    H128020   6.458   0.452   3.475  0.0819 -0.2222 -0.4056
 9352TIP3    H228021   6.409   0.578   3.408  0.2751 -0.4993 -1.0708
 9353TIP3   OH228022   6.429   6.060   4.449 -0.2508 -0.0940  0.1476
 9353TIP3    H128023   6.500   6.124   4.446 -0.7089  0.4223  0.2012
 9353TIP3    H228024   6.425   6.025   4.359  1.2724 -1.4729  0.5964
 9354TIP3   OH228025   3.843   6.005   2.624 -0.3165 -0.0220 -0.1192
 9354TIP3    H128026   3.777   6.038   2.685 -0.5136  0.0426 -0.3677
 9354TIP3    H228027   3.805   5.926   2.588  0.3843 -0.8274  0.8819
 9355TIP3   OH228028   4.118   2.613   0.080  0.8310  0.1020  0.1866
 9355TIP3    H128029   4.036   2.638   0.123 -0.1526 -0.7502 -1.1346
 9355TIP3    H228030   4.148   2.693   0.037  0.2950  0.2372  0.0604
 9356TIP3   OH228031   5.629   0.180   3.990  0.0042 -0.1604 -0.0843
 9356TIP3    H128032   5.702   0.206   3.934 -0.0908  0.0874 -0.0931
 9356TIP3    H228033   5.569   0.255   3.988 -0.1269 -0.2579  0.1308
 9357TIP3   OH228034   0.242   1.205   4.296 -0.5607  0.3052  0.4779
 9357TIP3    H128035   0.175   1.236   4.235 -1.2280  0.7410  1.4119
 9357TIP3    H228036   0.194   1.190   4.378  0.3787  0.0354  0.9818
 9358TIP3   OH228037   3.938   6.848   3.350  0.2700 -0.5846 -0.0456
 9358TIP3    H128038   3.874   6.852   3.422 -0.4922  1.2495 -0.7934
 9358TIP3    H228039   3.984   6.932   3.355  0.9187 -0.8780 -1.0613
 9359TIP3   OH228040   6.217   1.004   2.251 -0.0825  0.1209  0.2362
 9359TIP3    H128041   6.226   1.094   2.280  1.0613  0.3904 -0.8989
 9359TIP3    H228042   6.306   0.968   2.255 -0.2563 -0.4648 -0.8080
 9360TIP3   OH228043   0.421   0.073   3.786  0.4507 -1.0327 -0.1552
 9360TIP3    H128044   0.353   0.029   3.836 -0.7790 -0.6302 -1.4260
 9360TIP3    H228045   0.373   0.135   3.731  1.7323 -1.6624 -2.0158
 9361TIP3   OH228046   6.306   0.195   4.492  0.0946 -0.1422  0.4518
 9361TIP3    H128047   6.256   0.172   4.414 -0.0796 -2.1439  1.1207
 9361TIP3    H228048   6.392   0.223   4.459  0.1983 -1.4854 -0.4254
 9362TIP3   OH228049   5.701   6.840   4.971  0.5438  0.3072 -0.4323
 9362TIP3    H128050   5.671   6.915   4.919  0.9471  2.0037  1.7159
 9362TIP3    H228051   5.637   6.771   4.952 -2.8714  2.7914  1.4673
 9363TIP3   OH228052   0.562   0.160   5.678  0.2414  0.2725 -0.1293
 9363TIP3    H128053   0.543   0.067   5.659  0.0430 -0.0856  1.7978
 9363TIP3    H228054   0.646   0.158   5.723 -0.0477  0.9951  0.4333
 9364TIP3   OH228055   1.541   4.534   0.141  0.0021  0.2255  0.5581
 9364TIP3    H128056   1.527   4.608   0.201  0.0240 -0.4263  1.3845
 9364TIP3    H228057   1.455   4.494   0.132 -0.0454  0.4634 -0.0376
 9365TIP3   OH228058   3.366   3.520   0.963 -0.6282 -0.4890  0.0652
 9365TIP3    H128059   3.294   3.465   0.933  0.0979 -2.0450  1.1115
 9365TIP3    H228060   3.438   3.459   0.979  1.3797  1.2044 -2.2796
 9366TIP3   OH228061   6.847   0.128   5.547  0.3244  0.1726 -0.4536
 9366TIP3    H128062   6.883   0.120   5.635 -2.0081 -0.2857  0.4721
 9366TIP3    H228063   6.924   0.126   5.490  1.7276 -1.5072  1.4333
 9367TIP3   OH228064   4.378   5.432   5.339 -0.0147 -0.1540  0.4793
 9367TIP3    H128065   4.382   5.513   5.288  0.3267 -1.1821 -1.1958
 9367TIP3    H228066   4.398   5.458   5.428 -1.0004  1.7687  0.1580
 9368TIP3   OH228067   7.181   0.761   4.410  0.6032  0.3087 -0.4341
 9368TIP3    H128068   7.238   0.703   4.461 -2.4352 -1.3716  1.2113
 9368TIP3    H228069   7.141   0.819   4.476 -0.0271  1.0619 -1.4645
 9369TIP3   OH228070   6.869   1.235   4.611 -0.5634 -0.0929 -0.0860
 9369TIP3    H128071   6.925   1.306   4.643  0.4676 -0.6418 -0.6491
 9369TIP3    H228072   6.904   1.156   4.652  0.0871 -0.6540 -1.6840
 9370TIP3   OH228073   2.988   0.708   5.042  0.0768 -0.8631  0.6713
 9370TIP3    H128074   2.979   0.766   5.118  0.0256  1.1438 -0.8245
 9370TIP3    H228075   2.920   0.641   5.054  0.5598 -1.0097  2.7570
 9371TIP3   OH228076   2.767   5.650   4.810  0.0342 -0.5779  0.1980
 9371TIP3    H128077   2.677   5.677   4.831 -0.0620 -0.5280 -0.2832
 9371TIP3    H228078   2.795   5.711   4.742 -1.0228 -3.0986 -2.6225
 9372TIP3   OH228079   6.105   1.049   2.915 -0.1513 -0.6038 -0.5668
 9372TIP3    H128080   6.067   1.134   2.892  0.3484 -0.4535 -0.8456
 9372TIP3    H228081   6.200   1.063   2.909 -0.0097 -0.6997  1.0934
 9373TIP3   OH228082   5.190   6.578   5.734  0.5661 -0.0461  0.6120
 9373TIP3    H128083   5.165   6.618   5.651  0.3775  0.6783  1.0089
 9373TIP3    H228084   5.184   6.484   5.718  1.3828  0.0740 -0.4490
 9374TIP3   OH228085   0.817   0.874   4.743  0.0406  0.4806  0.0905
 9374TIP3    H128086   0.866   0.913   4.671 -0.7809 -0.2902 -0.9161
 9374TIP3    H228087   0.731   0.853   4.705  0.3801 -2.0737  0.6276
 9375TIP3   OH228088   2.561   3.344   0.099 -0.3077 -0.5450 -0.8087
 9375TIP3    H128089   2.633   3.281   0.091  0.7437  0.6213 -0.6450
 9375TIP3    H228090   2.536   3.362   0.008  0.1764 -0.2993 -0.8925
 9376TIP3   OH228091   4.969   6.181   5.557 -0.2419 -0.6642  0.4603
 9376TIP3    H128092   4.911   6.116   5.517  0.9385 -1.5515  0.1613
 9376TIP3    H228093   4.976   6.155   5.648  0.5159 -1.1642  0.2587
 9377TIP3   OH228094   3.169   4.946   5.216 -0.6942  0.0436  0.4648
 9377TIP3    H128095   3.231   4.986   5.277 -0.4667 -0.8997  0.8560
 9377TIP3    H228096   3.083   4.971   5.250 -0.5518  0.4217  0.5541
 9378TIP3   OH228097   5.035   0.196   0.560  0.1428 -0.3253 -0.2715
 9378TIP3    H128098   4.988   0.278   0.576 -0.5632 -0.5939 -0.9461
 9378TIP3    H228099   5.084   0.212   0.480  0.8808 -0.1927  0.2002
 9379TIP3   OH228100   7.244   0.347   5.774  0.1596 -0.3622 -0.1315
 9379TIP3    H128101   7.303   0.418   5.798 -0.1096 -0.5146  0.9872
 9379TIP3    H228102   7.296   0.292   5.715  0.5020  0.5184 -0.6710
 9380TIP3   OH228103   3.365   0.830   0.796 -0.1960  0.0159 -0.2307
 9380TIP3    H128104   3.301   0.766   0.765 -1.6118  1.4881 -0.3802
 9380TIP3    H228105   3.370   0.816   0.890  0.8520 -1.5171 -0.4935
 9381TIP3   OH228106   2.147   4.006   0.346 -0.5836 -0.3490  0.8209
 9381TIP3    H128107   2.079   4.038   0.286  1.2864  0.9062 -0.6893
 9381TIP3    H228108   2.204   3.952   0.291  0.0998 -0.7395  1.8961
 9382TIP3   OH228109   5.727   1.246   4.778 -0.1414  0.0421 -0.1647
 9382TIP3    H128110   5.725   1.342   4.789  0.0736 -0.1877  2.3036
 9382TIP3    H228111   5.679   1.230   4.697 -0.5932  2.2125 -0.3699
 9383TIP3   OH228112   5.477   6.408   5.436  0.6542 -0.3187  0.0067
 9383TIP3    H128113   5.559   6.455   5.452  0.5636 -0.0346 -0.3527
 9383TIP3    H228114   5.488   6.370   5.348 -1.4546  3.7106 -2.1303
 9384TIP3   OH228115   1.284   0.348   5.134 -0.6067  0.7779  0.0995
 9384TIP3    H128116   1.194   0.316   5.137  0.0865 -1.3121 -0.4896
 9384TIP3    H228117   1.322   0.321   5.218 -0.6031  1.9201  0.4732
 9385TIP3   OH228118   4.948   4.739   5.179  0.7347 -0.2744 -0.8971
 9385TIP3    H128119   4.987   4.821   5.209 -0.9549  0.6084 -1.0511
 9385TIP3    H228120   4.913   4.698   5.258  2.0677 -1.1405 -0.7364
 9386TIP3   OH228121   3.977   6.342   3.781  0.0737 -0.0635 -0.6335
 9386TIP3    H128122   4.071   6.357   3.768  0.1726  0.2585  0.3700
 9386TIP3    H228123   3.971   6.250   3.806  0.3113  0.3394  0.9598
 9387TIP3   OH228124   6.998   1.223   0.833 -0.5757 -0.1282  0.2720
 9387TIP3    H128125   7.002   1.312   0.867 -2.3770  0.1296 -0.1478
 9387TIP3    H228126   6.928   1.181   0.883  0.2833 -1.3345  0.4939
 9388TIP3   OH228127   6.020   5.808   3.963 -0.0705  0.0221 -1.3660
 9388TIP3    H128128   6.046   5.868   4.033  0.1617 -3.2516  1.4915
 9388TIP3    H228129   5.925   5.819   3.957  0.0130  0.9536 -1.1857
 9389TIP3   OH228130   3.476   5.693   5.964  0.3824 -0.1856  0.0259
 9389TIP3    H128131   3.480   5.669   6.057  0.2758 -0.9488 -0.1611
 9389TIP3    H228132   3.419   5.769   5.962 -3.1207 -2.7045  0.1089
 9390TIP3   OH228133   6.933   0.107   5.808  0.1030 -0.3470 -0.2561
 9390TIP3    H128134   6.918   0.181   5.867 -1.3948  0.1843 -1.2442
 9390TIP3    H228135   7.026   0.089   5.814  0.2091  0.6116  1.1913
 9391TIP3   OH228136   5.460   6.779   5.928 -0.1185  0.1436  0.0902
 9391TIP3    H128137   5.484   6.698   5.883 -0.5434 -1.1423  2.1143
 9391TIP3    H228138   5.540   6.803   5.976 -1.1669 -1.2607  2.6257
 9392TIP3   OH228139   2.677   2.109   0.042  0.4636 -0.0845 -0.1552
 9392TIP3    H128140   2.675   2.090   0.136  0.4195 -0.2270 -0.1851
 9392TIP3    H228141   2.682   2.023  -0.000  0.8361 -0.0044 -0.2735
 9393TIP3   OH228142   5.922   6.553   5.002 -0.1378  0.6505 -0.1773
 9393TIP3    H128143   5.847   6.532   5.058  0.0361 -1.3111 -0.6729
 9393TIP3    H228144   5.965   6.470   4.986  2.3919  1.8046  0.3872
 9394TIP3   OH228145   6.759   0.496   4.645 -0.4857 -0.3264  0.5311
 9394TIP3    H128146   6.759   0.404   4.671  0.2183 -0.8467 -1.2349
 9394TIP3    H228147   6.849   0.525   4.660  0.0509 -0.7602 -1.6551
 9395TIP3   OH228148   0.444   2.588   0.133 -0.2018  0.1616 -0.2576
 9395TIP3    H128149   0.401   2.506   0.108 -0.6394  0.2774  0.1173
 9395TIP3    H228150   0.373   2.646   0.158  0.0532  0.9375 -1.3062
 9396TIP3   OH228151   0.855   5.410   0.651 -0.0272  0.3747 -0.1761
 9396TIP3    H128152   0.922   5.387   0.715 -0.0207  0.3422 -0.1944
 9396TIP3    H228153   0.848   5.505   0.656 -2.4716  0.1326  2.3755
 9397TIP3   OH228154   0.408   0.422   4.943 -0.2769 -0.0134  0.0811
 9397TIP3    H128155   0.423   0.422   4.849 -0.8098  0.6696 -0.0134
 9397TIP3    H228156   0.469   0.358   4.978 -1.3107 -1.5879 -0.9291
 9398TIP3   OH228157   6.299   1.116   4.401 -0.4307 -0.2165 -0.2598
 9398TIP3    H128158   6.293   1.155   4.489 -2.9700  0.5413 -0.7116
 9398TIP3    H228159   6.370   1.053   4.407  0.1942  0.6551  2.0199
 9399TIP3   OH228160   3.165   3.127   0.644  0.3831 -0.1098 -0.5394
 9399TIP3    H128161   3.198   3.171   0.565  0.8079 -0.1643 -0.3907
 9399TIP3    H228162   3.078   3.097   0.619  1.1912 -1.6534 -1.5646
 9400TIP3   OH228163   6.807   0.026   4.994  0.2167  0.3094  0.4759
 9400TIP3    H128164   6.811   0.077   4.913 -0.9584  1.0996  0.8899
 9400TIP3    H228165   6.725   0.054   5.036  0.2252 -0.9375  1.3729
 9401TIP3   OH228166   5.508   1.315   5.962  0.0240 -0.4491  0.1006
 9401TIP3    H128167   5.488   1.275   5.877  0.7965 -0.5750 -0.0237
 9401TIP3    H228168   5.489   1.246   6.026 -1.7254  0.0399  0.1327
 9402TIP3   OH228169   6.331   0.269   4.780  0.7681  0.3088 -0.4399
 9402TIP3    H128170   6.375   0.351   4.759 -0.1702  1.1988  1.0438
 9402TIP3    H228171   6.259   0.293   4.838 -0.3826 -1.3918 -1.1046
 9403TIP3   OH228172   5.988   0.828   5.072  0.4452 -0.6866  0.4309
 9403TIP3    H128173   6.062   0.877   5.036 -0.3277  0.0226 -0.2208
 9403TIP3    H228174   5.982   0.858   5.163 -0.2679  0.7596 -0.0710
 9404TIP3   OH228175   4.481   6.753   5.508 -0.7173  0.1540  0.1835
 9404TIP3    H128176   4.391   6.770   5.482 -0.4858  0.2159 -0.5921
 9404TIP3    H228177   4.533   6.809   5.450 -0.1815  0.0904  0.6014
 9405TIP3   OH228178   6.651   0.085   3.278 -0.0092 -0.5089  0.0551
 9405TIP3    H128179   6.565   0.123   3.262  0.2583  0.6831  1.2878
 9405TIP3    H228180   6.706   0.121   3.208 -0.2965 -0.5083 -0.1713
 9406TIP3   OH228181   7.182   0.938   3.388  0.1269  0.0834 -0.1846
 9406TIP3    H128182   7.212   0.981   3.468  1.1047 -1.9440  0.5430
 9406TIP3    H228183   7.262   0.912   3.342 -0.4459  0.1860 -1.2740
 9407TIP3   OH228184   6.195   0.945   4.169  0.0789 -0.1522  0.0220
 9407TIP3    H128185   6.196   0.849   4.170  2.4575 -0.1439  1.1673
 9407TIP3    H228186   6.166   0.968   4.258  0.5155  0.1845  0.0747
 9408TIP3   OH228187   4.506   5.525   4.144 -0.3807 -0.1752  0.6469
 9408TIP3    H128188   4.571   5.490   4.083  1.2227  1.9678  1.0707
 9408TIP3    H228189   4.487   5.453   4.203 -0.4885 -1.6841 -1.1653
 9409TIP3   OH228190   5.909   1.210   3.144  0.6242  0.0248 -0.0769
 9409TIP3    H128191   5.964   1.244   3.075 -0.9540  4.3496  0.6658
 9409TIP3    H228192   5.820   1.216   3.110 -0.0524  0.8410  1.7270
 9410TIP3   OH228193   0.369   1.675   4.355  0.1123  0.4283 -0.2624
 9410TIP3    H128194   0.404   1.682   4.266 -0.8232 -0.0885 -0.6751
 9410TIP3    H228195   0.399   1.590   4.386  0.4842  0.6320 -0.0656
 9411TIP3   OH228196   5.646   1.104   3.347  0.7890  0.4332 -0.0151
 9411TIP3    H128197   5.691   1.047   3.285  0.7290  0.6976 -0.3039
 9411TIP3    H228198   5.587   1.046   3.394 -0.0585  0.4348 -1.0591
 9412TIP3   OH228199   3.216   4.037   0.984  0.0567  0.4052 -0.2407
 9412TIP3    H128200   3.267   3.959   0.963  0.4462  0.8182 -0.8196
 9412TIP3    H228201   3.141   4.034   0.925 -0.3148  0.0784  0.2461
 9413TIP3   OH228202   1.706   1.453   5.405 -0.4877 -0.0911 -0.3384
 9413TIP3    H128203   1.716   1.360   5.389  1.8659 -0.1232  1.1155
 9413TIP3    H228204   1.709   1.462   5.500 -0.6878  1.4781 -0.4659
 9414TIP3   OH228205   2.342   2.571   0.522  0.0072  0.2937 -0.4134
 9414TIP3    H128206   2.274   2.618   0.473 -2.4273  0.9765  3.4040
 9414TIP3    H228207   2.294   2.506   0.573  2.5383 -0.9848  0.4119
 9415TIP3   OH228208   1.803   0.533   4.109  0.3411 -0.2101 -0.0609
 9415TIP3    H128209   1.749   0.610   4.130 -0.7351 -1.4627  2.0204
 9415TIP3    H228210   1.877   0.540   4.169  1.2746  0.2562 -1.2689
 9416TIP3   OH228211   1.165   4.415   0.690 -0.2085 -0.0569 -0.3729
 9416TIP3    H128212   1.195   4.394   0.601  0.6117 -1.4303  0.1989
 9416TIP3    H228213   1.213   4.354   0.746  0.7249  2.0938  1.2153
 9417TIP3   OH228214   5.884   0.413   4.408  0.8728 -0.1528  0.9560
 9417TIP3    H128215   5.943   0.412   4.333  0.4231  0.0954  0.5907
 9417TIP3    H228216   5.858   0.321   4.419  0.1175 -0.0466  0.1384
 9418TIP3   OH228217   2.385   2.520   2.853  0.2689 -0.2281  0.2423
 9418TIP3    H128218   2.455   2.518   2.788 -0.0089 -0.1792 -0.0621
 9418TIP3    H228219   2.390   2.434   2.896 -0.1823 -0.6580 -0.5377
 9419TIP3   OH228220   5.776   4.844   5.813  0.0981 -0.3164 -0.2688
 9419TIP3    H128221   5.726   4.816   5.736 -0.0715  2.0585 -1.0776
 9419TIP3    H228222   5.859   4.798   5.806 -0.3974 -1.1105 -1.1663
 9420TIP3   OH228223   2.904   5.649   2.322  0.0374  0.5605 -0.0971
 9420TIP3    H128224   2.917   5.689   2.408 -1.5045 -1.2503  0.9892
 9420TIP3    H228225   2.992   5.623   2.295  0.3637 -0.1647  1.5851
 9421TIP3   OH228226   0.142   0.263   4.118  0.7025  0.7304  0.4277
 9421TIP3    H128227   0.210   0.303   4.065 -1.1962 -0.5974 -3.1974
 9421TIP3    H228228   0.184   0.186   4.158  1.8295  1.0384 -0.1666
 9422TIP3   OH228229   2.533   1.049   3.730  0.1356 -0.0492 -0.0643
 9422TIP3    H128230   2.491   1.022   3.812  0.2521  1.0311  0.3515
 9422TIP3    H228231   2.626   1.032   3.744  0.0209 -1.0178 -0.4305
 9423TIP3   OH228232   5.301   6.050   5.695  0.2684  0.4810 -0.4377
 9423TIP3    H128233   5.246   5.972   5.696 -0.3589  0.9180 -0.1149
 9423TIP3    H228234   5.360   6.040   5.769  0.6163  0.0112 -0.7801
 9424TIP3   OH228235   3.756   6.576   5.972  0.1435 -0.0128 -0.0798
 9424TIP3    H128236   3.720   6.550   5.887 -0.6866 -0.0498  0.2743
 9424TIP3    H228237   3.690   6.635   6.009  0.7815  0.4868  0.2781
 9425TIP3   OH228238   3.019   3.461   2.641 -0.2082 -0.3113 -0.1908
 9425TIP3    H128239   3.083   3.530   2.660 -0.2763  0.1534 -1.6039
 9425TIP3    H228240   2.934   3.503   2.656 -0.2276 -0.4060 -0.0329
 9426TIP3   OH228241   6.514   1.951   4.901 -0.4468 -0.0884  0.0875
 9426TIP3    H128242   6.593   1.985   4.857 -0.4808 -1.6987 -1.2931
 9426TIP3    H228243   6.471   1.899   4.833 -1.6578 -0.8451  1.4348
 9427TIP3   OH228244   1.769   3.791   0.605  0.1176  0.4723  0.4663
 9427TIP3    H128245   1.687   3.743   0.602  0.3290  0.2252 -1.8667
 9427TIP3    H228246   1.774   3.837   0.521  2.9073 -0.4554  0.0497
 9428TIP3   OH228247   4.853   5.924   4.939 -0.4641  0.0702 -0.0536
 9428TIP3    H128248   4.918   5.946   4.872 -1.5144  2.0415 -0.4514
 9428TIP3    H228249   4.774   5.971   4.914 -1.5705 -0.9597  1.3530
 9429TIP3   OH228250   5.295   5.063   3.082  0.3258 -0.6689  0.2342
 9429TIP3    H128251   5.270   5.063   3.174  1.5707 -0.7953  0.5816
 9429TIP3    H228252   5.382   5.023   3.081  0.7851  0.3295 -0.8615
 9430TIP3   OH228253   3.226   2.765   0.056 -0.1150  0.5374 -0.6554
 9430TIP3    H128254   3.176   2.845   0.071 -1.0016 -0.3554  1.2335
 9430TIP3    H228255   3.317   2.791   0.073 -0.6234  0.6431  2.2219
 9431TIP3   OH228256   7.007   0.778   4.878 -0.0059 -0.0089  0.2682
 9431TIP3    H128257   7.009   0.701   4.821 -0.6638  0.4340 -0.3580
 9431TIP3    H228258   6.994   0.743   4.966  0.5133 -0.6602  0.0889
 9432TIP3   OH228259   3.759   6.891   3.565  0.2812  0.4892 -0.0411
 9432TIP3    H128260   3.767   6.859   3.655 -0.2937 -0.0864 -0.1969
 9432TIP3    H228261   3.697   6.963   3.571  0.8717  0.9895  0.1547
 9433TIP3   OH228262   3.346   0.600   4.766  0.2764  0.3877 -0.6654
 9433TIP3    H128263   3.362   0.619   4.674 -0.8918 -1.7031 -1.3191
 9433TIP3    H228264   3.388   0.515   4.781 -1.3013 -0.2573  0.1991
 9434TIP3   OH228265   0.617   4.004   0.737 -0.5134  0.2986 -0.1290
 9434TIP3    H128266   0.571   3.921   0.752 -0.5860  0.7777  2.6651
 9434TIP3    H228267   0.710   3.980   0.740 -0.5440  0.1315 -0.5161
 9435TIP3   OH228268   3.384   6.127   3.897 -0.1627  0.3863 -0.0690
 9435TIP3    H128269   3.443   6.064   3.939 -0.4213 -0.8537 -1.5238
 9435TIP3    H228270   3.442   6.195   3.863  0.3290 -0.2409 -0.4885
 9436TIP3   OH228271   5.913   0.239   5.186 -0.1648 -0.1470 -0.3427
 9436TIP3    H128272   5.878   0.327   5.174  0.2928 -0.0432 -0.9135
 9436TIP3    H228273   6.006   0.246   5.165 -0.0587 -0.6963 -0.0698
 9437TIP3   OH228274   4.202   5.968   5.850 -0.2596 -0.0674  0.0492
 9437TIP3    H128275   4.155   6.028   5.907  1.0905  0.6372  0.4479
 9437TIP3    H228276   4.238   6.024   5.781 -1.7144 -0.8827 -1.3833
 9438TIP3   OH228277   4.438   5.646   4.880  0.1540 -0.3823  0.4742
 9438TIP3    H128278   4.470   5.732   4.905  0.0645  0.3634 -1.8812
 9438TIP3    H228279   4.358   5.634   4.931  1.5713 -0.2322  2.8156
 9439TIP3   OH228280   6.225   1.017   2.598 -0.7647  0.1851 -0.0999
 9439TIP3    H128281   6.252   0.928   2.621 -0.9232 -0.0416 -0.7829
 9439TIP3    H228282   6.250   1.070   2.674  0.8498 -0.1554 -0.3747
 9440TIP3   OH228283   3.862   0.855   0.571  0.1861  0.0982 -0.5696
 9440TIP3    H128284   3.813   0.814   0.643 -1.8223 -0.4570 -2.1954
 9440TIP3    H228285   3.844   0.948   0.580  1.9332  0.2949  1.0825
 9441TIP3   OH228286   2.698   2.454   0.803  0.7665 -0.1896  0.0856
 9441TIP3    H128287   2.642   2.493   0.871 -0.0597  0.8634 -1.1862
 9441TIP3    H228288   2.727   2.371   0.842 -0.8606 -0.2795  1.1770
 9442TIP3   OH228289   6.110   6.524   5.513 -0.4914  0.4408  0.0691
 9442TIP3    H128290   6.034   6.548   5.460  0.1755 -0.9503 -1.5531
 9442TIP3    H228291   6.174   6.592   5.494  0.7195 -1.4539 -3.0762
 9443TIP3   OH228292   3.543   2.154   0.747  0.0740 -0.1755  0.1778
 9443TIP3    H128293   3.600   2.102   0.691 -1.7061  1.1529 -2.9587
 9443TIP3    H228294   3.460   2.105   0.749 -0.0316  0.0199  1.3337
 9444TIP3   OH228295   2.473   3.162   0.600 -0.1037 -0.3688  0.1950
 9444TIP3    H128296   2.531   3.098   0.560  2.9390  2.4101 -0.0297
 9444TIP3    H228297   2.449   3.221   0.528  0.3859  1.0428  1.1514
 9445TIP3   OH228298   1.429   0.380   4.342 -0.1734 -0.0757 -0.4110
 9445TIP3    H128299   1.416   0.448   4.408  2.7667 -0.3179  0.4902
 9445TIP3    H228300   1.428   0.298   4.392 -1.9123 -0.5852 -1.2425
 9446TIP3   OH228301   0.380   1.013   4.842 -0.1819 -0.8082 -0.0002
 9446TIP3    H128302   0.435   1.091   4.840 -2.7665  1.0434 -0.6649
 9446TIP3    H228303   0.438   0.944   4.876  2.4127  1.1380 -0.3295
 9447TIP3   OH228304   3.022   3.741   0.227  0.0073  0.5234 -0.1802
 9447TIP3    H128305   3.077   3.667   0.251  1.5265  1.8302  0.4635
 9447TIP3    H228306   2.948   3.736   0.287  0.1722 -0.3867 -0.0459
 9448TIP3   OH228307   5.747   0.081   4.218  0.2781  0.0553  0.2748
 9448TIP3    H128308   5.779   0.008   4.165 -0.9726  0.4427 -1.0497
 9448TIP3    H228309   5.697   0.135   4.157 -0.3155  1.0689  1.6261
 9449TIP3   OH228310   0.733   3.725   0.651 -0.7358  0.1302  0.3997
 9449TIP3    H128311   0.740   3.676   0.734  0.7474 -2.1307 -1.0175
 9449TIP3    H228312   0.804   3.691   0.597  0.9512  4.5990 -0.3168
 9450TIP3   OH228313   5.750   1.746   4.602 -0.2073  0.7310  0.2418
 9450TIP3    H128314   5.716   1.810   4.664  1.5795  1.6442  0.3083
 9450TIP3    H228315   5.845   1.745   4.617 -0.2762 -2.5709  0.8664
 9451TIP3   OH228316   4.790   5.021   5.394 -0.8045 -0.4642 -1.1213
 9451TIP3    H128317   4.797   5.084   5.322 -1.7939 -2.5751 -3.1268
 9451TIP3    H228318   4.871   4.970   5.390 -0.5189 -0.0883 -0.2306
 9452TIP3   OH228319   4.453   6.673   5.751  0.6376  0.0955 -0.0729
 9452TIP3    H128320   4.471   6.705   5.663 -0.3574  0.5500 -0.1168
 9452TIP3    H228321   4.390   6.735   5.787  2.0400  0.6723  1.4434
 9453TIP3   OH228322   3.212   1.077   0.160  0.0415  0.7699  0.1542
 9453TIP3    H128323   3.185   1.077   0.069 -2.4733  2.0778  0.8523
 9453TIP3    H228324   3.226   1.169   0.182  0.1460  0.5122  1.2288
 9454TIP3   OH228325   1.311   0.185   6.029  0.0169  0.2063  0.0584
 9454TIP3    H128326   1.300   0.227   5.944  2.0640 -0.4705 -0.5693
 9454TIP3    H228327   1.369   0.111   6.012 -0.2037 -0.4115  1.9066
 9455TIP3   OH228328   5.044   4.887   4.245 -0.2155 -0.2888  0.3710
 9455TIP3    H128329   5.028   4.870   4.338 -1.9267  1.1855  0.3836
 9455TIP3    H228330   5.097   4.813   4.216 -1.3545 -1.8317  2.0651
 9456TIP3   OH228331   3.150   6.750   5.754  0.3158 -0.1712 -0.2508
 9456TIP3    H128332   3.080   6.692   5.783 -0.5383  0.5531 -0.8381
 9456TIP3    H228333   3.108   6.836   5.744  1.4170  0.4099 -0.0088
 9457TIP3   OH228334   1.118   1.793   0.133  0.7581  0.2583 -0.5338
 9457TIP3    H128335   1.051   1.802   0.064  1.9711  1.9819 -1.5196
 9457TIP3    H228336   1.070   1.809   0.214 -0.4337 -0.4893 -1.0722
 9458TIP3   OH228337   6.455   3.340   5.061 -0.2908 -0.1195  0.3494
 9458TIP3    H128338   6.367   3.376   5.056  0.4291  1.4976 -0.8417
 9458TIP3    H228339   6.459   3.277   4.989 -0.8886 -1.2102  1.2335
 9459TIP3   OH228340   4.803   6.351   3.877 -0.6071  0.3636 -0.5136
 9459TIP3    H128341   4.794   6.266   3.833 -2.9764  0.3813 -0.1335
 9459TIP3    H228342   4.757   6.340   3.960  1.5231  1.1638  0.8078
 9460TIP3   OH228343   3.685   2.549   0.268  0.1343 -0.5815 -0.3382
 9460TIP3    H128344   3.669   2.520   0.357 -0.7590 -0.1607 -0.3529
 9460TIP3    H228345   3.674   2.644   0.271 -2.2393 -0.7682 -1.3438
 9461TIP3   OH228346   5.338   4.855   5.101 -0.5517 -0.3559  0.0339
 9461TIP3    H128347   5.336   4.765   5.070 -1.7904 -0.6793  1.0039
 9461TIP3    H228348   5.266   4.898   5.056  0.2056  0.2334 -0.6343
 9462TIP3   OH228349   3.908   4.239   0.974  0.0085 -0.1437 -0.0811
 9462TIP3    H128350   3.846   4.195   1.032 -0.9508 -0.0249 -0.9838
 9462TIP3    H228351   3.981   4.178   0.966 -0.6963 -0.9875 -0.2210
 9463TIP3   OH228352   5.130   6.921   5.048  0.1557  0.0458 -0.0144
 9463TIP3    H128353   5.134   6.945   4.955  1.8646  1.3319  0.3714
 9463TIP3    H228354   5.083   6.994   5.089  0.1835 -0.0921  0.2602
 9464TIP3   OH228355   2.687   6.211   4.596  0.2486 -0.6083  0.2497
 9464TIP3    H128356   2.728   6.182   4.677  1.3170  1.5855  0.5408
 9464TIP3    H228357   2.756   6.259   4.551 -0.7705 -0.5406 -1.2813
 9465TIP3   OH228358   7.270   1.807   4.985 -0.1573  0.5108 -0.1352
 9465TIP3    H128359   7.311   1.766   5.061 -2.5554 -0.5639  0.6132
 9465TIP3    H228360   7.330   1.789   4.913  0.9890 -0.5021  1.0524
 9466TIP3   OH228361   4.756   6.723   3.082  0.3121 -0.1276 -0.0679
 9466TIP3    H128362   4.733   6.692   2.994 -0.7685  1.1237 -0.2521
 9466TIP3    H228363   4.783   6.644   3.129  0.8785 -0.8108 -1.5145
 9467TIP3   OH228364   0.440   0.759   4.357  0.1552 -0.2294 -0.0717
 9467TIP3    H128365   0.484   0.675   4.347  0.5109  0.1025 -1.3518
 9467TIP3    H228366   0.348   0.741   4.336 -0.2626 -0.8276  2.1636
 9468TIP3   OH228367   3.634   5.357   5.724  0.1200  0.4911  0.3552
 9468TIP3    H128368   3.623   5.283   5.664  0.0083 -0.1327  1.1227
 9468TIP3    H228369   3.569   5.421   5.696  1.4867  1.0917 -1.4931
 9469TIP3   OH228370   0.270   1.344   5.983  0.4184 -0.5616  0.3328
 9469TIP3    H128371   0.200   1.279   5.989  1.1701 -1.4114 -0.0773
 9469TIP3    H228372   0.233   1.414   5.928 -0.6388 -0.3037  1.3495
 9470TIP3   OH228373   1.124   2.470   0.154 -0.8783 -0.5841  0.0380
 9470TIP3    H128374   1.141   2.544   0.095  0.4561 -1.9240 -1.2891
 9470TIP3    H228375   1.038   2.438   0.129 -2.5298  1.9622  2.2070
 9471TIP3   OH228376   6.501   6.947   0.049 -0.4164  0.0592 -0.1712
 9471TIP3    H128377   6.471   6.875   0.104  0.8104 -0.0765  0.3445
 9471TIP3    H228378   6.445   7.021   0.073 -0.3459 -0.1863  0.7572
 9472TIP3   OH228379   1.190   3.516   0.989 -0.8404  0.4082 -0.0696
 9472TIP3    H128380   1.213   3.449   1.052  0.2977  1.3183  0.4834
 9472TIP3    H228381   1.270   3.533   0.940 -1.3495  0.7281 -0.8145
 9473TIP3   OH228382   4.010   0.138   5.187 -0.2071  0.0674 -0.2515
 9473TIP3    H128383   4.015   0.054   5.232 -0.5469  1.0449  1.6520
 9473TIP3    H228384   3.920   0.141   5.153  0.1932 -0.8699 -1.4536
 9474TIP3   OH228385   6.629   1.009   5.248 -0.1220  0.3065  0.1072
 9474TIP3    H128386   6.568   1.082   5.241 -0.3538 -0.0308 -1.6713
 9474TIP3    H228387   6.705   1.037   5.196  0.0356 -0.4699 -0.0805
 9475TIP3   OH228388   4.342   6.408   4.691 -0.2596 -0.7093 -0.4084
 9475TIP3    H128389   4.359   6.364   4.607  0.5829 -0.7856 -0.1994
 9475TIP3    H228390   4.356   6.501   4.672 -1.3365 -0.5846 -0.6672
 9476TIP3   OH228391   3.918   6.582   5.397  0.3070  0.0078  0.5004
 9476TIP3    H128392   4.013   6.593   5.393  0.2791 -0.0159 -0.2181
 9476TIP3    H228393   3.883   6.664   5.362  0.0823 -0.9866 -1.6593
 9477TIP3   OH228394   0.623   6.528   0.535 -0.3626 -0.4698 -0.1872
 9477TIP3    H128395   0.678   6.597   0.498  0.0969 -0.3933  0.6351
 9477TIP3    H228396   0.533   6.562   0.527 -0.1549  0.1373  0.0364
 9478TIP3   OH228397   6.855   5.306   4.310  0.6316 -0.0980 -0.0544
 9478TIP3    H128398   6.862   5.366   4.385 -0.2803  0.0695 -0.1002
 9478TIP3    H228399   6.765   5.315   4.280  1.0795  0.0784 -1.3898
 9479TIP3   OH228400   6.981   5.509   5.009 -0.1947  0.2295 -0.4846
 9479TIP3    H128401   7.004   5.586   5.061 -0.4997 -0.4642  0.6870
 9479TIP3    H228402   7.001   5.535   4.919 -0.3712  1.7097 -0.1203
 9480TIP3   OH228403   2.737   1.568   0.073  0.2769 -0.0714 -0.3722
 9480TIP3    H128404   2.698   1.522  -0.001 -0.8799  1.2087 -0.5711
 9480TIP3    H228405   2.713   1.515   0.150  0.3204 -0.6530 -0.7534
 9481TIP3   OH228406   3.802   4.936   4.587 -0.0812 -0.2083 -0.6147
 9481TIP3    H128407   3.886   4.934   4.632 -0.1888 -0.4579 -0.4221
 9481TIP3    H228408   3.741   4.893   4.648 -0.3608  0.0371 -0.7214
 9482TIP3   OH228409   5.558   5.495   5.021  0.6732 -0.0110 -0.4884
 9482TIP3    H128410   5.479   5.450   5.049  1.0891  0.9376  2.3797
 9482TIP3    H228411   5.616   5.491   5.098  2.6783  0.9518 -1.9060
 9483TIP3   OH228412   3.034   4.628   3.130 -0.0068  0.1654 -0.7389
 9483TIP3    H128413   2.992   4.543   3.144 -2.1273  1.2956  0.1174
 9483TIP3    H228414   2.960   4.689   3.119  1.4745  1.9041 -1.2714
 9484TIP3   OH228415   2.341   3.641   0.706 -0.2476  0.8060 -0.1809
 9484TIP3    H128416   2.307   3.561   0.667  1.6280  0.9634 -2.2759
 9484TIP3    H228417   2.365   3.695   0.631 -1.2179  3.2447  1.1868
 9485TIP3   OH228418   3.264   4.493   4.394  0.1794  0.0062 -0.0090
 9485TIP3    H128419   3.307   4.418   4.437  1.1897  0.0468 -0.9431
 9485TIP3    H228420   3.251   4.556   4.465 -0.6225 -1.0096  0.7793
 9486TIP3   OH228421   5.042   6.038   4.730 -0.1770  0.6130  0.0638
 9486TIP3    H128422   5.094   6.011   4.806  0.2096  1.0953 -0.0235
 9486TIP3    H228423   5.092   6.111   4.692  0.0214 -0.1197 -1.0885
 9487TIP3   OH228424   4.682   6.650   4.516  0.0031  0.5455 -0.4420
 9487TIP3    H128425   4.641   6.677   4.434 -0.3279 -0.7294 -0.7096
 9487TIP3    H228426   4.727   6.568   4.495 -0.0359  0.2367  0.6372
 9488TIP3   OH228427   2.751   6.783   4.641 -0.2542  0.4060 -0.0953
 9488TIP3    H128428   2.692   6.724   4.594  0.0352  0.8041 -0.9594
 9488TIP3    H228429   2.839   6.757   4.612 -0.0129 -0.0084  0.9858
 9489TIP3   OH228430   4.354   6.872   5.245  0.0878 -0.3479  0.0283
 9489TIP3    H128431   4.412   6.798   5.227  0.0821 -0.1741 -0.7089
 9489TIP3    H228432   4.341   6.914   5.160 -1.2447 -0.4655  0.1760
 9490TIP3   OH228433   2.397   2.119   1.597  0.9517 -0.3291 -1.0817
 9490TIP3    H128434   2.461   2.176   1.555  2.5185  0.7661  2.6125
 9490TIP3    H228435   2.425   2.030   1.575  1.6085  0.2117 -2.4825
 9491TIP3   OH228436   5.858   2.068   4.184 -0.3202 -0.0823 -0.6530
 9491TIP3    H128437   5.770   2.049   4.151  0.0587  0.0536 -1.7508
 9491TIP3    H228438   5.913   2.069   4.106  0.2568  2.1754 -0.2350
 9492TIP3   OH228439   6.865   0.366   5.025  0.5691  0.0212  0.2279
 9492TIP3    H128440   6.800   0.433   5.047  2.4959  1.7287  0.9918
 9492TIP3    H228441   6.848   0.344   4.934 -1.8817 -0.5248  0.7902
 9493TIP3   OH228442   5.864   2.341   4.163 -0.0991  0.0039 -1.3750
 9493TIP3    H128443   5.880   2.249   4.140  3.2154  0.1574  0.0277
 9493TIP3    H228444   5.907   2.391   4.093 -1.6521  0.5392 -1.9814
 9494TIP3   OH228445   6.746   6.974   3.488 -0.5662  0.3607 -0.2562
 9494TIP3    H128446   6.661   6.971   3.445 -1.4312  1.5062  1.3060
 9494TIP3    H228447   6.728   6.951   3.579  1.1160 -1.3433 -0.3327
 9495TIP3   OH228448   5.569   6.838   5.277 -0.4018 -0.0635 -0.0165
 9495TIP3    H128449   5.603   6.921   5.309 -0.1960 -0.1277 -0.0689
 9495TIP3    H228450   5.583   6.842   5.182  0.7181 -0.6631  0.1146
 9496TIP3   OH228451   7.022   0.583   4.644  0.0242  0.1636 -0.6659
 9496TIP3    H128452   7.054   0.496   4.619  0.5730  0.3913 -0.7563
 9496TIP3    H228453   7.019   0.631   4.561 -0.5337  0.1485 -0.6538
 9497TIP3   OH228454   7.219   4.831   4.452  0.0577  0.0359 -0.0945
 9497TIP3    H128455   7.216   4.903   4.516  0.7926  0.5008 -0.5770
 9497TIP3    H228456   7.159   4.859   4.382 -0.2748 -0.1944  0.0940
 9498TIP3   OH228457   6.919   3.540   5.031 -0.5923  0.2123  0.7443
 9498TIP3    H128458   6.937   3.447   5.013 -0.2949  0.4144 -0.0413
 9498TIP3    H228459   7.005   3.582   5.026 -1.1348  1.0913 -2.4005
 9499TIP3   OH228460   7.305   1.552   4.155  0.0712 -0.0950 -0.5513
 9499TIP3    H128461   7.210   1.549   4.145  0.1286 -0.4976 -1.0009
 9499TIP3    H228462   7.319   1.588   4.243 -0.4891  0.9040 -0.8583
 9500TIP3   OH228463   7.188   6.738   4.667 -0.3174 -0.4762 -0.3750
 9500TIP3    H128464   7.245   6.748   4.743 -0.5151 -0.9434 -0.1626
 9500TIP3    H228465   7.141   6.821   4.661 -0.4678 -0.5183  0.1550
 9501TIP3   OH228466   6.342   5.894   3.265 -0.0185 -0.0996 -0.0576
 9501TIP3    H128467   6.306   5.831   3.328  0.4875  0.0941  0.4292
 9501TIP3    H228468   6.335   5.978   3.309  1.9489 -0.1836  0.4603
 9502TIP3   OH228469   5.745   6.473   5.195  0.5788  0.1086 -0.2562
 9502TIP3    H128470   5.756   6.502   5.286  0.6243  0.8902 -0.5086
 9502TIP3    H228471   5.711   6.384   5.203 -0.4596  0.5632  0.5266
 9503TIP3   OH228472   5.341   6.832   3.089  0.4942 -0.0977  0.4542
 9503TIP3    H128473   5.385   6.909   3.123 -1.2513  0.1403  2.2978
 9503TIP3    H228474   5.301   6.861   3.007  1.8767  0.2622 -0.1084
 9504TIP3   OH228475   2.031   0.157   3.742 -0.1727  0.1822  0.2660
 9504TIP3    H128476   2.052   0.192   3.828 -0.9674  2.1450 -0.3125
 9504TIP3    H228477   2.002   0.067   3.759  1.2378  0.0000  1.8471
 9505TIP3   OH228478   1.005   7.002   4.683 -0.0262 -0.2247  0.3731
 9505TIP3    H128479   0.962   6.936   4.738 -0.7961 -0.8886 -0.9841
 9505TIP3    H228480   1.098   6.981   4.690 -0.1888 -0.8866  0.6724
 9506TIP3   OH228481   6.794   0.679   4.056 -0.0734 -0.5361  0.0028
 9506TIP3    H128482   6.701   0.673   4.080  0.0988 -0.7206  0.6247
 9506TIP3    H228483   6.840   0.681   4.140  0.3196  2.4680 -0.2340
 9507TIP3   OH228484   5.797   5.798   5.228  0.5136 -0.0007 -0.3674
 9507TIP3    H128485   5.789   5.704   5.210 -1.2326  0.3147 -1.4016
 9507TIP3    H228486   5.861   5.830   5.165 -0.1617 -0.2182 -1.1834
 9508TIP3   OH228487   2.473   4.024   0.853  0.1192  0.9293  0.4277
 9508TIP3    H128488   2.391   4.003   0.807  0.3535  1.8092 -0.4020
 9508TIP3    H228489   2.447   4.090   0.918  0.1602  1.1661  0.2037
 9509TIP3   OH228490   2.394   0.637   0.533 -0.2997  0.1828  0.0913
 9509TIP3    H128491   2.349   0.715   0.499  1.3653  1.2134  0.2199
 9509TIP3    H228492   2.468   0.671   0.582  0.5766 -1.5019 -0.0209
 9510TIP3   OH228493   5.636   6.578   3.054 -0.3189 -0.0796 -0.5991
 9510TIP3    H128494   5.635   6.673   3.046 -1.1196  0.0448  0.8107
 9510TIP3    H228495   5.622   6.546   2.965  1.7869  1.0947 -1.3759
 9511TIP3   OH228496   6.994   1.251   3.633 -0.1693  0.0886  0.1985
 9511TIP3    H128497   6.923   1.249   3.570  3.5684  0.7956 -4.3176
 9511TIP3    H228498   7.025   1.161   3.638  1.4709  0.5258 -1.4352
 9512TIP3   OH228499   1.377   0.619   4.473  0.2591  0.1007 -0.6882
 9512TIP3    H128500   1.386   0.585   4.563  0.1823 -0.5457 -0.9185
 9512TIP3    H228501   1.286   0.647   4.467 -0.1992 -1.4100 -1.0838
 9513TIP3   OH228502   4.362   6.940   4.537  0.4600  0.2801  0.2211
 9513TIP3    H128503   4.383   6.866   4.594  3.7072  1.5105  0.7125
 9513TIP3    H228504   4.346   7.013   4.596 -0.1781  0.6146 -0.3484
 9514TIP3   OH228505   0.592   0.189   3.970  0.5149 -0.3317 -0.3562
 9514TIP3    H128506   0.529   0.254   4.000  2.0135  1.2246 -0.4600
 9514TIP3    H228507   0.544   0.137   3.906 -0.7866  0.5234 -0.1008
 9515TIP3   OH228508   0.716   0.736   5.477 -0.0450 -0.2683 -0.4783
 9515TIP3    H128509   0.743   0.827   5.464  0.2878 -0.2101  0.5748
 9515TIP3    H228510   0.798   0.686   5.467 -0.2222 -0.4526 -1.0281
 9516TIP3   OH228511   6.573   5.720   5.689 -0.6213 -0.0529 -0.1651
 9516TIP3    H128512   6.643   5.660   5.714  0.4049  0.6611 -1.2725
 9516TIP3    H228513   6.559   5.775   5.767 -0.5400 -0.7314  0.3346
 9517TIP3   OH228514   6.132   5.987   4.214  0.6066 -0.8193  0.2541
 9517TIP3    H128515   6.079   5.917   4.253  0.3363 -1.6787 -1.6011
 9517TIP3    H228516   6.222   5.966   4.240  0.3575 -0.9904  0.9878
 9518TIP3   OH228517   5.971   5.127   4.629  0.2678 -0.0278  0.3795
 9518TIP3    H128518   5.912   5.055   4.650  0.0440  0.4466  1.3910
 9518TIP3    H228519   5.969   5.183   4.706 -0.0409  1.3932 -0.6410
 9519TIP3   OH228520   4.425   1.251   0.683 -0.4862  0.0271  0.4181
 9519TIP3    H128521   4.412   1.315   0.753 -2.6544  1.5389 -1.3466
 9519TIP3    H228522   4.512   1.270   0.649 -0.5579  1.1009  0.8269
 9520TIP3   OH228523   6.528   0.307   4.414 -0.6670 -0.0736 -0.0691
 9520TIP3    H128524   6.601   0.276   4.467 -0.9186  0.2764  0.4835
 9520TIP3    H228525   6.563   0.310   4.325 -0.4251 -1.2652 -0.0267
 9521TIP3   OH228526   0.417   0.411   5.952  0.1547 -0.3312  0.0305
 9521TIP3    H128527   0.415   0.315   5.954 -2.0952 -0.3621 -1.0226
 9521TIP3    H228528   0.358   0.437   6.023  0.6126  0.2695  0.1911
 9522TIP3   OH228529   4.534   6.078   5.176 -0.0883  0.0332  0.5073
 9522TIP3    H128530   4.626   6.105   5.169 -0.3958  1.1845  0.8258
 9522TIP3    H228531   4.522   6.060   5.269  0.2396 -1.7104  0.2337
 9523TIP3   OH228532   1.990   4.340   0.005 -0.2569 -0.6211 -0.0568
 9523TIP3    H128533   1.956   4.352   0.094  1.2336 -0.0144  0.4526
 9523TIP3    H228534   1.962   4.418  -0.043 -0.7947 -0.8017 -0.0437
 9524TIP3   OH228535   1.180   0.118   3.933  0.0146 -0.4226 -0.2456
 9524TIP3    H128536   1.217   0.074   4.010  1.0201  1.0224  0.1271
 9524TIP3    H228537   1.213   0.067   3.859  2.9113  0.8748  0.0815
 9525TIP3   OH228538   5.383   6.901   3.442 -0.4994  0.6357  0.4084
 9525TIP3    H128539   5.312   6.962   3.462 -0.1127  1.0146  0.6521
 9525TIP3    H228540   5.425   6.885   3.527  0.0217  0.8244  0.1915
 9526TIP3   OH228541   0.607   1.020   3.328  0.4868  0.2796 -0.1728
 9526TIP3    H128542   0.664   1.040   3.402  0.4657 -1.7027  0.4018
 9526TIP3    H228543   0.622   0.927   3.310 -1.4928  0.0732 -0.9243
 9527TIP3   OH228544   6.781   1.579   5.837 -0.1243 -0.1231  0.3360
 9527TIP3    H128545   6.863   1.627   5.842 -1.6049  2.3399  1.6766
 9527TIP3    H228546   6.765   1.568   5.743  1.4757 -0.1930  0.0666
 9528TIP3   OH228547   6.034   5.921   5.107  0.0120  0.6383  0.6735
 9528TIP3    H128548   6.097   5.860   5.146  0.4941  0.6448 -0.0864
 9528TIP3    H228549   6.000   5.875   5.030 -1.6860  0.2159  1.6468
 9529TIP3   OH228550   5.290   6.149   4.198  0.8019  0.2197  0.4714
 9529TIP3    H128551   5.308   6.205   4.123  0.0648  0.3470  0.3834
 9529TIP3    H228552   5.307   6.060   4.167 -0.2589  0.2068 -0.0857
 9530TIP3   OH228553   0.530   4.676   4.583 -0.5098 -0.5210 -0.2460
 9530TIP3    H128554   0.547   4.615   4.511  1.9566 -0.5025  0.2904
 9530TIP3    H228555   0.439   4.704   4.569 -1.7732 -4.4042 -0.4019
 9531TIP3   OH228556   3.253   0.102   3.014  0.2121  0.3166 -0.1527
 9531TIP3    H128557   3.218   0.123   2.928 -1.9946 -0.7355  0.4575
 9531TIP3    H228558   3.330   0.159   3.023 -0.3039  1.4031 -2.2492
 9532TIP3   OH228559   3.212   3.378   0.774 -0.0189 -0.1563 -0.0761
 9532TIP3    H128560   3.123   3.412   0.787 -0.0928 -0.7339  1.0121
 9532TIP3    H228561   3.200   3.294   0.730 -0.1090 -0.8956  1.3244
 9533TIP3   OH228562   6.345   0.124   5.612 -0.0428  0.0454 -0.0304
 9533TIP3    H128563   6.272   0.062   5.606  0.1189 -0.0800 -0.6502
 9533TIP3    H228564   6.418   0.080   5.570  0.1200  0.5868 -0.3167
 9534TIP3   OH228565   7.241   5.355   3.653 -0.3194  0.0608 -0.2353
 9534TIP3    H128566   7.314   5.294   3.664 -0.0535  0.2689 -0.8645
 9534TIP3    H228567   7.271   5.436   3.693 -0.8148 -0.3184  0.9380
 9535TIP3   OH228568   1.110   1.172   5.208 -0.7909 -0.1685 -0.1087
 9535TIP3    H128569   1.087   1.264   5.222  2.4854  0.4729  1.3904
 9535TIP3    H228570   1.163   1.149   5.284  0.1389 -2.7120 -1.4781
 9536TIP3   OH228571   4.299   1.790   1.481 -0.0914  0.1919 -0.3233
 9536TIP3    H128572   4.212   1.793   1.520 -0.8111  1.2226 -1.9528
 9536TIP3    H228573   4.344   1.867   1.517 -0.2497  0.3154 -0.3906
 9537TIP3   OH228574   1.583   4.053   3.691  0.3641 -0.1221 -0.2363
 9537TIP3    H128575   1.633   4.020   3.616  0.0223  1.2656 -1.0927
 9537TIP3    H228576   1.637   4.031   3.767  1.4289 -0.2249 -1.0047
 9538TIP3   OH228577   5.365   4.562   5.021  0.3097 -0.0023 -0.6076
 9538TIP3    H128578   5.426   4.492   5.046  0.3393 -0.3850 -1.7045
 9538TIP3    H228579   5.280   4.533   5.053  0.1648 -0.9853 -1.8252
 9539TIP3   OH228580   6.076   5.917   3.440  0.1572  0.5911 -0.1368
 9539TIP3    H128581   6.063   5.914   3.345 -0.3409 -1.0776 -0.0317
 9539TIP3    H228582   6.024   5.844   3.474  1.2312  0.4754  1.3228
 9540TIP3   OH228583   5.050   6.966   2.189 -0.2852  0.2758  0.0037
 9540TIP3    H128584   5.110   7.040   2.176  0.8237 -0.7008 -0.5527
 9540TIP3    H228585   5.067   6.908   2.115 -3.1112  0.7398 -1.0726
 9541TIP3   OH228586   6.104   3.734   5.223 -0.6359  0.2741  0.2581
 9541TIP3    H128587   6.069   3.701   5.305 -2.3747  0.2001 -0.4851
 9541TIP3    H228588   6.199   3.728   5.233 -0.8490 -0.8563  1.7903
 9542TIP3   OH228589   7.327   5.248   3.192  0.3055 -0.2294  0.3095
 9542TIP3    H128590   7.244   5.284   3.222 -0.0031  0.6804 -1.6238
 9542TIP3    H228591   7.352   5.185   3.261 -1.6285 -0.0207  1.2192
 9543TIP3   OH228592   6.309   0.488   4.315  0.1161  0.2736  0.4446
 9543TIP3    H128593   6.398   0.500   4.349 -0.1967  0.1439  1.3306
 9543TIP3    H228594   6.282   0.402   4.348  1.1683 -1.5651 -3.2418
 9544TIP3   OH228595   1.496   6.197   4.292 -0.5306 -0.1625 -0.2340
 9544TIP3    H128596   1.578   6.246   4.279 -0.9739  0.9598  1.1301
 9544TIP3    H228597   1.498   6.130   4.223 -0.2726  2.2077 -2.6383
 9545TIP3   OH228598   3.797   5.879   5.811 -0.3398  0.2792  0.0111
 9545TIP3    H128599   3.716   5.871   5.760  0.6865 -0.9256 -1.4792
 9545TIP3    H228600   3.814   5.973   5.814  0.5847  0.2800 -3.5625
 9546TIP3   OH228601   3.551   6.787   3.369 -0.0716  0.1017  0.4166
 9546TIP3    H128602   3.643   6.806   3.387 -0.1516 -0.7866  1.8570
 9546TIP3    H228603   3.514   6.765   3.454 -2.2338  2.8548  0.2936
 9547TIP3   OH228604   0.875   6.207   4.049 -0.1044  0.3084  0.3080
 9547TIP3    H128605   0.784   6.232   4.032 -0.4571 -0.5829  0.8697
 9547TIP3    H228606   0.922   6.231   3.969 -0.3110  3.3010  1.0107
 9548TIP3   OH228607   5.949   2.616   5.576  0.4358 -0.0906 -0.4126
 9548TIP3    H128608   6.023   2.569   5.539  2.1421  2.4491 -0.3483
 9548TIP3    H228609   5.983   2.704   5.594 -1.7665  0.2569  2.3931
 9549TIP3   OH228610   0.424   3.790   0.802 -0.5666 -0.0045 -0.1014
 9549TIP3    H128611   0.412   3.706   0.846 -0.1117 -0.6900 -1.2776
 9549TIP3    H228612   0.401   3.855   0.869 -1.6212 -1.0668  0.5938
 9550TIP3   OH228613   0.596   4.578   0.062  0.4766 -0.5509 -0.6207
 9550TIP3    H128614   0.641   4.524   0.127  0.4494 -0.4632 -0.5276
 9550TIP3    H228615   0.613   4.535  -0.021  1.7866  0.1938 -0.7343
 9551TIP3   OH228616   0.291   2.731   5.499 -0.5689 -0.0303 -0.3330
 9551TIP3    H128617   0.383   2.703   5.497 -0.8074 -0.8352 -0.2689
 9551TIP3    H228618   0.295   2.826   5.504  0.2592  0.0332 -1.7987
 9552TIP3   OH228619   3.999   6.727   5.693 -0.3555 -0.1406 -0.2640
 9552TIP3    H128620   4.004   6.632   5.688 -0.0715 -0.2355  1.5949
 9552TIP3    H228621   3.907   6.747   5.678 -0.1695 -0.5967 -2.1125
 9553TIP3   OH228622   4.469   6.368   5.954 -0.1721 -0.3577 -0.3631
 9553TIP3    H128623   4.400   6.428   5.981  0.6418  0.8352 -0.8586
 9553TIP3    H228624   4.465   6.296   6.016 -0.2410  0.9170  1.1262
 9554TIP3   OH228625   2.559   5.074   0.055  0.7328 -0.2197  0.3611
 9554TIP3    H128626   2.529   5.031  -0.025  0.6284  0.9237 -0.2240
 9554TIP3    H228627   2.552   5.007   0.123 -0.4746 -0.7928 -0.3183
 9555TIP3   OH228628   0.117   0.372   5.285 -0.1904  0.1937  0.6157
 9555TIP3    H128629   0.127   0.467   5.276  0.2617  0.0939 -0.0135
 9555TIP3    H228630   0.190   0.345   5.340  0.1586  0.1126  0.1231
 9556TIP3   OH228631   6.621   2.724   4.762  0.1877 -0.5371 -0.2879
 9556TIP3    H128632   6.647   2.803   4.811  1.1199 -0.6123 -0.6582
 9556TIP3    H228633   6.588   2.757   4.678 -1.4035 -0.4089  0.3576
 9557TIP3   OH228634   1.494   5.356   0.552  0.1776 -0.0254  0.2371
 9557TIP3    H128635   1.422   5.316   0.503  0.1687 -1.1608  1.1665
 9557TIP3    H228636   1.474   5.450   0.551 -0.8022 -0.2363 -0.3244
 9558TIP3   OH228637   0.813   3.333   0.403 -0.0334 -0.2084 -0.1686
 9558TIP3    H128638   0.782   3.362   0.317 -0.1062 -1.2898 -0.5121
 9558TIP3    H228639   0.734   3.327   0.456 -0.4885 -3.2448 -1.1262
 9559TIP3   OH228640   0.487   1.090   4.527  0.1558  0.4130  0.6702
 9559TIP3    H128641   0.489   1.132   4.613  0.7871 -1.0083  1.3754
 9559TIP3    H228642   0.574   1.104   4.491  0.4376 -0.4416  0.9972
 9560TIP3   OH228643   5.693   0.673   5.387  0.1159  0.3409  0.0712
 9560TIP3    H128644   5.787   0.689   5.383 -0.1675  2.2426  0.6883
 9560TIP3    H228645   5.657   0.720   5.312 -0.6633  2.1250  1.5353
 9561TIP3   OH228646   1.364   6.743   3.320 -0.4822  0.7110 -0.3357
 9561TIP3    H128647   1.403   6.690   3.390  1.6407  0.5491 -1.5759
 9561TIP3    H228648   1.293   6.690   3.286 -0.1067 -0.1684  0.2360
 9562TIP3   OH228649   0.560   6.274   2.537  0.1280 -0.0547 -0.0000
 9562TIP3    H128650   0.518   6.351   2.575  0.3850 -0.0344  0.2420
 9562TIP3    H228651   0.636   6.309   2.491  0.4020 -0.1969  0.3459
 9563TIP3   OH228652   4.867   2.475   5.488  0.1209  0.3962  0.2806
 9563TIP3    H128653   4.927   2.447   5.557 -0.2474 -1.7503 -0.2469
 9563TIP3    H228654   4.914   2.545   5.442  1.1148  0.5691  1.5145
 9564TIP3   OH228655   3.647   1.817   5.649 -0.5207  0.6309  0.3820
 9564TIP3    H128656   3.634   1.912   5.653 -0.7626  0.5451  1.8611
 9564TIP3    H228657   3.701   1.804   5.571 -1.3510  1.8778 -0.4217
 9565TIP3   OH228658   5.929   5.679   4.619  0.2353  0.5274 -0.6923
 9565TIP3    H128659   5.986   5.606   4.642 -2.5141 -1.7408 -0.8684
 9565TIP3    H228660   5.924   5.677   4.523 -0.2752  0.6346 -0.6673
 9566TIP3   OH228661   1.354   1.073   1.722 -0.1011  0.0817  0.7183
 9566TIP3    H128662   1.396   1.154   1.694  0.9971 -0.1922  1.5615
 9566TIP3    H228663   1.262   1.097   1.736 -0.0850  0.8420 -0.4096
 9567TIP3   OH228664   2.127   2.984   0.644 -0.4069  0.0045 -0.0026
 9567TIP3    H128665   2.179   2.904   0.631 -1.5105 -0.9160  1.1592
 9567TIP3    H228666   2.184   3.042   0.695  0.3521 -0.0712 -0.7481
 9568TIP3   OH228667   2.869   0.414   2.404  0.4963  0.3298  0.4815
 9568TIP3    H128668   2.942   0.425   2.464  1.7828  1.1715 -1.1803
 9568TIP3    H228669   2.902   0.353   2.337  0.1876  1.7805 -1.0374
 9569TIP3   OH228670   2.887   2.370   2.381  0.0343 -0.2010  0.4842
 9569TIP3    H128671   2.905   2.381   2.474 -1.7246  0.3406  0.7785
 9569TIP3    H228672   2.868   2.459   2.350 -2.3426 -0.7294  0.2837
 9570TIP3   OH228673   2.404   0.897   0.382  0.3322  0.2510  0.3682
 9570TIP3    H128674   2.365   0.983   0.400 -2.2870 -1.2594  2.0887
 9570TIP3    H228675   2.399   0.888   0.287  0.5432  1.9249  0.1689
 9571TIP3   OH228676   2.383   1.884   0.824  0.6156  0.0750 -0.6497
 9571TIP3    H128677   2.401   1.974   0.798 -0.2632  0.7752  1.0494
 9571TIP3    H228678   2.300   1.889   0.871  0.3605 -1.6930 -0.8703
 9572TIP3   OH228679   2.602   2.256   3.289 -0.3774 -0.0121 -0.2980
 9572TIP3    H128680   2.589   2.245   3.195  0.7358  2.4896 -0.7801
 9572TIP3    H228681   2.696   2.271   3.299 -0.4030 -0.7746  1.2850
 9573TIP3   OH228682   2.262   0.799   1.942 -0.8142  0.3236  0.1907
 9573TIP3    H128683   2.167   0.792   1.930 -0.8113  0.1836  0.2377
 9573TIP3    H228684   2.286   0.882   1.902 -0.8580  0.0361 -0.4433
 9574TIP3   OH228685   1.152   3.284   4.870 -0.0130  0.3684 -1.0289
 9574TIP3    H128686   1.215   3.351   4.841  1.5980 -0.0960  1.2229
 9574TIP3    H228687   1.152   3.219   4.800  1.3591  0.8406 -1.4868
 9575TIP3   OH228688   6.637   6.529   0.141 -0.0810 -0.9042  0.5911
 9575TIP3    H128689   6.676   6.550   0.056 -0.5726 -0.2054  0.5372
 9575TIP3    H228690   6.710   6.534   0.203  0.2225 -1.1281  0.2543
 9576TIP3   OH228691   0.686   5.321   0.151 -0.3544 -0.2501 -0.9056
 9576TIP3    H128692   0.745   5.342   0.224 -1.3727 -0.6739  0.0656
 9576TIP3    H228693   0.736   5.340   0.073  1.1852 -0.9039 -0.0981
 9577TIP3   OH228694   4.680   4.994   1.456 -0.3717  0.6210 -0.8448
 9577TIP3    H128695   4.585   4.992   1.460 -0.3623  0.9367 -0.4113
 9577TIP3    H228696   4.703   5.082   1.485  0.0878  0.2849 -0.1931
 9578TIP3   OH228697   6.547   6.634   2.068 -0.3465  0.2869  0.7386
 9578TIP3    H128698   6.586   6.720   2.081  1.0757 -0.0761 -0.9993
 9578TIP3    H228699   6.453   6.651   2.064 -0.0637  1.7846  0.2340
 9579TIP3   OH228700   0.044   6.027   5.110 -0.7323  0.1156 -0.0342
 9579TIP3    H128701   0.057   5.933   5.115 -2.7472 -0.4115 -3.4248
 9579TIP3    H228702   0.106   6.057   5.043 -0.8082  1.0761  0.3051
 9580TIP3   OH228703   1.464   5.756   2.129  0.0967  0.0939 -0.1346
 9580TIP3    H128704   1.498   5.825   2.072 -0.6553 -0.1009 -0.8396
 9580TIP3    H228705   1.486   5.675   2.084 -0.2332 -0.0686 -0.0084
 9581TIP3   OH228706   1.320   0.122   1.184  0.1681 -0.5301  0.5311
 9581TIP3    H128707   1.339   0.136   1.277 -1.6812 -0.0963  0.8638
 9581TIP3    H228708   1.403   0.140   1.139  1.1026 -0.8544  2.1053
 9582TIP3   OH228709   3.217   1.647   1.180 -0.3240 -0.2170 -0.6632
 9582TIP3    H128710   3.200   1.616   1.269  2.4059 -1.1815 -0.4415
 9582TIP3    H228711   3.219   1.567   1.127  0.6119  0.1193 -1.1462
 9583TIP3   OH228712   7.249   6.892   1.088 -0.2309  0.2180 -0.3584
 9583TIP3    H128713   7.194   6.900   1.166 -1.1747 -0.7178 -0.9180
 9583TIP3    H228714   7.330   6.854   1.119 -0.0461  1.2148  0.4048
 9584TIP3   OH228715   1.424   0.874   2.470 -0.3874  0.6237 -0.5449
 9584TIP3    H128716   1.390   0.861   2.381 -0.3672 -0.0643 -0.4593
 9584TIP3    H228717   1.508   0.829   2.470 -0.1257  1.1053 -0.3389
 9585TIP3   OH228718   6.154   0.322   0.905  0.0791  0.1421  0.2848
 9585TIP3    H128719   6.129   0.327   0.997 -0.7500 -0.1032  0.0772
 9585TIP3    H228720   6.071   0.309   0.858  0.3842  1.2637 -0.5821
 9586TIP3   OH228721   7.030   6.533   1.878 -0.2365  0.2324  0.3772
 9586TIP3    H128722   6.966   6.587   1.925 -1.7159 -0.6616 -0.5550
 9586TIP3    H228723   6.978   6.463   1.839  1.1324  0.2290 -1.5235
 9587TIP3   OH228724   5.566   3.902   5.526  0.2362 -0.2349  0.2458
 9587TIP3    H128725   5.556   3.976   5.587 -0.1955 -0.7446  0.7992
 9587TIP3    H228726   5.505   3.836   5.558  1.2954 -1.1984  0.3099
 9588TIP3   OH228727   2.032   1.650   1.920  0.1897 -0.0586 -0.3620
 9588TIP3    H128728   2.020   1.704   1.998 -0.9219 -1.3749  0.3787
 9588TIP3    H228729   2.064   1.566   1.953 -0.0484 -0.5445 -1.3549
 9589TIP3   OH228730   0.828   6.388   0.364 -0.1727 -0.1278  0.3127
 9589TIP3    H128731   0.847   6.405   0.272 -2.2182 -0.1063 -0.1255
 9589TIP3    H228732   0.879   6.453   0.412  1.6651 -0.7609 -0.7386
 9590TIP3   OH228733   3.563   3.720   5.472 -0.2999 -0.1420 -0.3799
 9590TIP3    H128734   3.600   3.657   5.534  0.1234  0.9356  0.4717
 9590TIP3    H228735   3.468   3.705   5.476 -0.2635 -0.1589  0.4433
 9591TIP3   OH228736   2.602   0.830   1.567  0.0766  0.4915  0.2950
 9591TIP3    H128737   2.521   0.786   1.590 -1.3699  2.5062 -0.8205
 9591TIP3    H228738   2.576   0.900   1.507  2.8263  0.0958 -1.4753
 9592TIP3   OH228739   0.366   6.219   1.248  0.1031 -0.0430 -0.4004
 9592TIP3    H128740   0.428   6.292   1.251 -0.3949  0.3719 -0.1249
 9592TIP3    H228741   0.304   6.237   1.319 -0.0485 -0.7106 -0.3599
 9593TIP3   OH228742   1.725   1.775   0.716 -0.5508 -0.4618  0.1423
 9593TIP3    H128743   1.765   1.786   0.630  0.2785  1.8796  0.8022
 9593TIP3    H228744   1.777   1.708   0.759  0.3136 -0.1558 -0.4208
 9594TIP3   OH228745   0.969   6.567   0.514 -0.1395  0.1975  0.4155
 9594TIP3    H128746   0.956   6.657   0.485  0.3168  0.3443  0.6704
 9594TIP3    H228747   1.005   6.574   0.602  2.0654 -0.1817 -0.4134
 9595TIP3   OH228748   3.343   2.900   2.747  0.2321  0.4177  0.3524
 9595TIP3    H128749   3.314   2.849   2.823  0.5062  0.6699  0.6268
 9595TIP3    H228750   3.325   2.843   2.672 -1.4699  0.7741  0.4713
 9596TIP3   OH228751   6.486   6.309   1.504 -0.0804 -0.4103  0.2743
 9596TIP3    H128752   6.556   6.280   1.563  0.3013  0.0502  0.0469
 9596TIP3    H228753   6.524   6.381   1.454 -0.0965 -1.3867 -1.1943
 9597TIP3   OH228754   0.789   6.417   0.750 -0.3841  0.3926 -0.6149
 9597TIP3    H128755   0.799   6.489   0.813 -0.3247  1.4281 -1.7812
 9597TIP3    H228756   0.757   6.460   0.671 -2.7836 -1.2351 -0.5636
 9598TIP3   OH228757   4.327   2.351   0.498 -0.0723  0.8523  0.2025
 9598TIP3    H128758   4.308   2.394   0.414 -0.7337 -1.7593 -1.0626
 9598TIP3    H228759   4.422   2.352   0.505  0.0546  0.1597 -1.1515
 9599TIP3   OH228760   2.144   5.755   0.914 -0.5518 -0.0769 -0.3107
 9599TIP3    H128761   2.193   5.741   0.833  0.8852 -2.5483  0.9073
 9599TIP3    H228762   2.196   5.820   0.962 -1.6673  1.7616 -1.5504
 9600TIP3   OH228763   6.610   4.356   5.342 -0.1000 -0.3443 -0.3169
 9600TIP3    H128764   6.636   4.448   5.344 -1.0949 -0.0545 -0.6001
 9600TIP3    H228765   6.599   4.337   5.249 -1.2073 -0.3753 -0.1821
 9601TIP3   OH228766   3.481   4.963   5.118 -0.0075  0.4030 -0.6428
 9601TIP3    H128767   3.420   4.929   5.184  0.4981  0.0203 -0.3777
 9601TIP3    H228768   3.535   5.026   5.165 -0.7745  1.3971 -1.0769
 9602TIP3   OH228769   1.099   6.956   3.104 -0.4702  0.1667  0.1449
 9602TIP3    H128770   1.129   7.004   3.027  2.7404 -4.7356 -1.9488
 9602TIP3    H228771   1.012   6.923   3.079  1.2105 -2.7380 -2.2016
 9603TIP3   OH228772   6.035   2.985   0.494  0.2995 -0.1212  0.3738
 9603TIP3    H128773   6.122   2.973   0.532 -0.0846  0.5906  1.5167
 9603TIP3    H228774   5.975   2.964   0.566 -0.4725 -0.3862 -0.3412
 9604TIP3   OH228775   2.365   0.469   1.246  0.1126  0.0211  0.4539
 9604TIP3    H128776   2.366   0.540   1.183  1.5267 -0.3346  0.0452
 9604TIP3    H228777   2.434   0.409   1.216 -0.6751 -1.2471  1.0935
 9605TIP3   OH228778   6.252   6.616   5.753  0.2523 -0.0455 -0.5035
 9605TIP3    H128779   6.179   6.562   5.725  1.0900 -0.8884 -1.0970
 9605TIP3    H228780   6.250   6.693   5.696  0.7301 -0.7878 -1.5432
 9606TIP3   OH228781   4.860   6.525   0.264  0.6528 -0.1454  0.0561
 9606TIP3    H128782   4.926   6.595   0.266  3.5156 -2.7394 -0.5223
 9606TIP3    H228783   4.823   6.530   0.176  0.3943  1.0139  0.2213
 9607TIP3   OH228784   2.910   2.171   1.260 -0.6372 -0.0242 -0.1384
 9607TIP3    H128785   2.930   2.226   1.336  0.4436 -0.1156 -0.3557
 9607TIP3    H228786   2.995   2.147   1.225 -1.1316 -0.5358 -0.9878
 9608TIP3   OH228787   5.964   5.004   1.282 -0.1592 -0.5176 -0.1106
 9608TIP3    H128788   5.938   4.914   1.305 -1.1639  0.1537  1.5116
 9608TIP3    H228789   6.043   4.993   1.229 -0.8509 -2.4034 -0.8176
 9609TIP3   OH228790   0.207   6.254   2.096  0.4103  0.0868  0.2729
 9609TIP3    H128791   0.292   6.291   2.073  1.1809 -0.7655  1.6612
 9609TIP3    H228792   0.225   6.199   2.173 -1.3799 -0.1629  0.5311
 9610TIP3   OH228793   6.707   6.901   1.295  0.3213  0.8624  0.2864
 9610TIP3    H128794   6.650   6.859   1.230 -0.5522  2.6963 -0.1442
 9610TIP3    H228795   6.675   6.991   1.301  0.9586  0.9776  2.6091
 9611TIP3   OH228796   0.417   6.833   1.491 -0.3448 -0.1730 -0.8693
 9611TIP3    H128797   0.468   6.767   1.537 -1.0364  0.2627  0.5606
 9611TIP3    H228798   0.327   6.804   1.499 -0.6979  1.1240  0.1202
 9612TIP3   OH228799   3.595   0.697   4.085  0.1563 -0.0283 -0.2192
 9612TIP3    H128800   3.502   0.677   4.096  0.0541  0.8257  0.5023
 9612TIP3    H228801   3.636   0.663   4.164  0.7222 -1.9240 -1.2897
 9613TIP3   OH228802   0.138   5.596   2.628  0.0797  0.5932  0.4238
 9613TIP3    H128803   0.069   5.641   2.678 -0.9345 -0.6959  0.2202
 9613TIP3    H228804   0.128   5.630   2.539 -0.2648  0.4557  0.4074
 9614TIP3   OH228805   5.932   6.597   2.524  0.5044 -0.1990  0.2030
 9614TIP3    H128806   5.989   6.640   2.588 -0.3935  0.0500  0.8315
 9614TIP3    H228807   5.993   6.546   2.470  1.1716 -1.3112  1.9517
 9615TIP3   OH228808   0.768   6.235   1.238 -0.1111 -0.0171  0.1631
 9615TIP3    H128809   0.841   6.291   1.267  0.2401  0.5353 -1.7081
 9615TIP3    H228810   0.697   6.297   1.220 -0.3136 -0.3540 -0.1723
 9616TIP3   OH228811   3.660   1.649   1.798  0.5140 -0.5986  0.1295
 9616TIP3    H128812   3.568   1.664   1.777  0.0955 -2.2710  0.6655
 9616TIP3    H228813   3.708   1.715   1.747 -0.9255 -0.1474 -0.6626
 9617TIP3   OH228814   3.369   2.597   0.472 -0.7133  0.1735  0.1411
 9617TIP3    H128815   3.282   2.608   0.510 -0.5697  1.7144  0.0471
 9617TIP3    H228816   3.398   2.686   0.451  0.5198 -0.3964 -0.6414
 9618TIP3   OH228817   3.920   1.883   1.289 -0.4972 -0.3651  0.0394
 9618TIP3    H128818   3.857   1.954   1.300 -1.3695 -1.1524  0.1264
 9618TIP3    H228819   3.902   1.848   1.201 -1.0857 -1.4673  0.5941
 9619TIP3   OH228820   3.346   0.821   1.067  0.1275  0.0445 -0.0299
 9619TIP3    H128821   3.363   0.904   1.111 -0.1878 -0.7878  1.7096
 9619TIP3    H228822   3.401   0.758   1.113 -0.5265 -0.9298 -0.5602
 9620TIP3   OH228823   5.475   2.184   5.370  0.1259 -0.4895  0.0434
 9620TIP3    H128824   5.423   2.237   5.431  1.1427  1.6047 -0.8569
 9620TIP3    H228825   5.552   2.160   5.421 -0.3229 -1.0845  0.4477
 9621TIP3   OH228826   7.413   6.854   0.704 -0.3364  0.0424 -0.0785
 9621TIP3    H128827   7.333   6.829   0.750 -1.2244  1.9058 -0.5570
 9621TIP3    H228828   7.418   6.794   0.630 -1.6254  0.2982 -0.3916
 9622TIP3   OH228829   4.130   1.196   0.600 -0.3241  0.5590  0.0521
 9622TIP3    H128830   4.111   1.164   0.512 -2.4475  0.9602  0.3288
 9622TIP3    H228831   4.224   1.209   0.601  0.0344 -1.6162 -1.4366
 9623TIP3   OH228832   0.469   6.217   2.887  0.2590  0.2336 -0.1130
 9623TIP3    H128833   0.496   6.150   2.950 -0.3167 -1.7373 -1.9037
 9623TIP3    H228834   0.541   6.219   2.823 -0.6385 -0.0825 -1.1329
 9624TIP3   OH228835   1.141  -0.024   1.034 -0.5496  0.3563 -0.1099
 9624TIP3    H128836   1.183   0.022   1.106  0.7254 -0.5792 -0.2356
 9624TIP3    H228837   1.122   0.045   0.969  0.1067  0.8948  0.2685
 9625TIP3   OH228838   2.295   0.232   2.062 -0.5248  0.2920  0.5109
 9625TIP3    H128839   2.268   0.152   2.015  0.9459 -0.0507  0.2350
 9625TIP3    H228840   2.355   0.201   2.129  1.3245  1.3377 -0.6284
 9626TIP3   OH228841   6.485   6.897   0.671 -0.5598 -0.0550 -0.0742
 9626TIP3    H128842   6.509   6.973   0.618  0.0785  2.1098  3.1574
 9626TIP3    H228843   6.405   6.924   0.716  0.8826 -0.4072  2.7846
 9627TIP3   OH228844   4.602  -0.005   1.632  0.3814  0.3116  0.2006
 9627TIP3    H128845   4.586   0.080   1.673 -0.8957  0.2827 -0.2121
 9627TIP3    H228846   4.695  -0.005   1.612  0.3343  1.7364 -0.0621
 9628TIP3   OH228847   5.122   0.327   0.846 -0.4091 -0.5006  0.3110
 9628TIP3    H128848   5.056   0.388   0.813 -2.3632 -1.6633  1.8967
 9628TIP3    H228849   5.186   0.382   0.892  0.0198  0.6954 -1.6782
 9629TIP3   OH228850   4.519   0.834   3.043  0.2678 -0.3505 -0.3456
 9629TIP3    H128851   4.518   0.858   3.135 -0.0589  3.6668 -1.3227
 9629TIP3    H228852   4.436   0.788   3.029 -1.0523  1.6416  0.7469
 9630TIP3   OH228853   1.995   5.842   0.555 -0.1945  0.9743 -0.2367
 9630TIP3    H128854   1.954   5.835   0.641 -0.2891 -1.4267 -0.4480
 9630TIP3    H228855   2.089   5.835   0.573 -0.1995  0.7100 -0.3251
 9631TIP3   OH228856   2.782   0.646   0.274  0.4479 -0.9754 -0.2465
 9631TIP3    H128857   2.713   0.600   0.322  0.9945 -3.3574 -1.6428
 9631TIP3    H228858   2.735   0.700   0.211 -0.2168  0.4672  1.4635
 9632TIP3   OH228859   4.036   2.940   0.390  0.3392 -0.0937  0.7033
 9632TIP3    H128860   4.086   2.976   0.317 -0.7083 -0.8187 -0.3913
 9632TIP3    H228861   4.004   3.017   0.438  0.3639  0.4012 -0.0639
 9633TIP3   OH228862   2.261   0.911   2.577  0.5971 -0.9947  0.4361
 9633TIP3    H128863   2.182   0.889   2.528 -0.2431  2.4010  0.1611
 9633TIP3    H228864   2.232   0.918   2.668  0.3102  1.4247  0.1731
 9634TIP3   OH228865   2.983   1.784   2.992  0.0336  0.6656 -0.4513
 9634TIP3    H128866   2.969   1.691   3.010 -1.6959  0.6352 -1.8269
 9634TIP3    H228867   3.077   1.796   3.000  0.0545 -0.7441  1.8350
 9635TIP3   OH228868   0.461   5.583   1.683  0.0698  0.3739 -0.8476
 9635TIP3    H128869   0.503   5.498   1.696  0.5215  0.7685  0.3516
 9635TIP3    H228870   0.529   5.638   1.644  0.3781  0.7335  0.1850
 9636TIP3   OH228871   6.936   6.200   1.788  0.0679  0.1135 -0.6020
 9636TIP3    H128872   6.924   6.172   1.879 -0.3336  0.1695 -0.6362
 9636TIP3    H228873   7.030   6.195   1.774 -0.0735 -2.2699 -0.9394
 9637TIP3   OH228874   2.715   4.740   4.826 -0.1284  0.0164  0.0545
 9637TIP3    H128875   2.680   4.825   4.856 -1.3809  0.0715 -1.4785
 9637TIP3    H228876   2.810   4.751   4.830 -0.2743  1.3519  0.2783
 9638TIP3   OH228877   6.341   1.692   5.744 -0.2557  0.0975 -0.1314
 9638TIP3    H128878   6.413   1.724   5.691 -1.5194  1.8575 -0.8323
 9638TIP3    H228879   6.308   1.769   5.790 -2.1004 -0.5365 -0.3374
 9639TIP3   OH228880   0.253   3.962   5.814 -0.2450 -0.1565 -0.3901
 9639TIP3    H128881   0.279   3.872   5.835  0.2292 -0.0483 -0.5236
 9639TIP3    H228882   0.288   3.978   5.726 -0.7586 -0.0123 -0.5708
 9640TIP3   OH228883   1.235   4.462   5.847  0.3372 -0.2362  0.2150
 9640TIP3    H128884   1.150   4.505   5.843  0.9433  1.0119  0.5092
 9640TIP3    H228885   1.240   4.409   5.768 -0.5983 -0.1103  0.0719
 9641TIP3   OH228886   5.053   1.617   1.755  0.4744  0.2885  0.0687
 9641TIP3    H128887   4.971   1.654   1.724  0.9416  1.5638  0.3304
 9641TIP3    H228888   5.069   1.659   1.839  0.2943 -1.5885  1.0690
 9642TIP3   OH228889   6.946   2.685   3.402 -0.4800  0.5157  0.4986
 9642TIP3    H128890   6.979   2.654   3.317 -0.1079  0.6780  0.5873
 9642TIP3    H228891   6.998   2.762   3.422 -1.0608  0.8997  0.5335
 9643TIP3   OH228892   0.464   3.521   0.065  0.2896  0.0880 -0.1916
 9643TIP3    H128893   0.400   3.457   0.032  1.3488 -0.9972 -0.1684
 9643TIP3    H228894   0.449   3.599   0.011  0.1280 -0.7508 -1.3897
 9644TIP3   OH228895   0.907   0.382   0.817  0.0584  0.1090  0.1930
 9644TIP3    H128896   0.828   0.365   0.868  0.6253  2.1440  1.8777
 9644TIP3    H228897   0.889   0.465   0.772  1.2212  0.6504  0.6804
 9645TIP3   OH228898   3.371   6.369   4.634 -0.5697 -0.2697 -0.1132
 9645TIP3    H128899   3.299   6.422   4.668 -0.9145 -0.5163 -0.4532
 9645TIP3    H228900   3.342   6.278   4.647  0.2126 -0.3880  0.8926
 9646TIP3   OH228901   2.091   1.746   2.205 -0.1687  0.2066  0.5242
 9646TIP3    H128902   2.152   1.677   2.177 -0.2071  0.0469  0.8293
 9646TIP3    H228903   2.148   1.818   2.233 -0.1245  0.1710  0.5254
 9647TIP3   OH228904   0.934   3.181   2.866 -0.3932  0.0778 -0.2423
 9647TIP3    H128905   0.863   3.128   2.900  0.9419 -1.8254 -0.3429
 9647TIP3    H228906   0.891   3.252   2.818 -2.2131 -0.1387  1.0428
 9648TIP3   OH228907   2.462   2.503   0.939 -0.2708 -0.3182  0.3263
 9648TIP3    H128908   2.413   2.462   0.868  0.7056 -1.7041  0.4537
 9648TIP3    H228909   2.394   2.528   1.002 -1.0654  0.1907 -0.7058
 9649TIP3   OH228910   2.361   1.539   2.905 -0.3279  0.2576  0.1738
 9649TIP3    H128911   2.336   1.613   2.850  1.8450 -0.9238 -2.4807
 9649TIP3    H228912   2.440   1.569   2.951  1.1226 -0.6754 -1.6322
 9650TIP3   OH228913   6.807   3.663   2.954  0.0032  0.6110  0.4632
 9650TIP3    H128914   6.893   3.698   2.929  0.8182 -1.0257  0.9005
 9650TIP3    H228915   6.752   3.680   2.878  0.9130  0.9907 -0.1294
 9651TIP3   OH228916   0.898   1.899   1.001 -0.1347  0.0697  0.2830
 9651TIP3    H128917   0.990   1.897   0.974 -0.2958  1.5980 -0.4013
 9651TIP3    H228918   0.873   1.807   1.006  1.0010 -0.3259 -1.0197
 9652TIP3   OH228919   0.114   2.917   0.490 -0.1804  0.1709  0.3897
 9652TIP3    H128920   0.070   2.842   0.451  0.3657  0.4904 -0.8992
 9652TIP3    H228921   0.045   2.982   0.503 -0.6013 -0.4474  1.2253
 9653TIP3   OH228922   3.188   0.924   2.437 -0.9197 -0.5000  0.3376
 9653TIP3    H128923   3.262   0.869   2.463  0.0723  0.2783 -0.8132
 9653TIP3    H228924   3.180   0.988   2.507  0.5607  0.4356 -0.3240
 9654TIP3   OH228925   5.021   4.315   5.433  0.0692  0.5177 -0.0964
 9654TIP3    H128926   5.088   4.249   5.412  0.2403  1.3520 -2.2144
 9654TIP3    H228927   4.949   4.264   5.471  0.9810 -0.6551  0.1092
 9655TIP3   OH228928   0.906   1.993   2.348  0.1218  0.7997  0.4538
 9655TIP3    H128929   0.898   1.952   2.261  0.1259 -0.0755  0.8545
 9655TIP3    H228930   0.868   1.928   2.407 -1.0042  1.9203  0.9756
 9656TIP3   OH228931   0.487   2.448   1.679 -0.2261 -0.4278 -0.8273
 9656TIP3    H128932   0.455   2.535   1.704 -0.5682 -0.6205 -0.5852
 9656TIP3    H228933   0.575   2.444   1.716 -0.6896 -0.6691  0.2710
 9657TIP3   OH228934   0.922   1.010   0.930  0.1646  0.1769  0.0533
 9657TIP3    H128935   0.917   1.084   0.991 -0.1829 -0.4083  0.7500
 9657TIP3    H228936   0.957   1.047   0.849  2.6888  0.5789  1.2699
 9658TIP3   OH228937   1.403   1.513   2.089 -0.4743 -0.1209  0.2295
 9658TIP3    H128938   1.432   1.472   2.171  0.1003  0.0821  0.1311
 9658TIP3    H228939   1.353   1.445   2.045 -0.4426 -0.3657  0.5677
 9659TIP3   OH228940   4.885   2.138   2.592 -0.3178  0.0241 -0.3749
 9659TIP3    H128941   4.908   2.218   2.640  0.2845  0.4105 -1.2828
 9659TIP3    H228942   4.793   2.124   2.612 -0.2034  0.4426  0.5106
 9660TIP3   OH228943   7.241   2.061   1.704 -0.0903 -0.4290 -0.0738
 9660TIP3    H128944   7.155   2.020   1.709 -0.3159  0.0930  0.2724
 9660TIP3    H228945   7.267   2.075   1.795 -0.4920  1.2105 -0.2020
 9661TIP3   OH228946   3.381   5.363   4.838  0.2386 -0.3388 -0.0577
 9661TIP3    H128947   3.337   5.418   4.903 -1.5265 -3.1643  1.2631
 9661TIP3    H228948   3.454   5.324   4.886  0.9463  0.1487 -0.7330
 9662TIP3   OH228949   5.088   4.532   5.597 -0.4932 -0.2700  0.0096
 9662TIP3    H128950   5.041   4.495   5.672 -1.2234 -1.0382 -0.8265
 9662TIP3    H228951   5.105   4.458   5.540  0.0107  0.3249 -0.6184
 9663TIP3   OH228952   3.963   6.527   2.818  0.0538  0.7621 -0.1037
 9663TIP3    H128953   3.927   6.439   2.831  0.4852  0.6050  0.0260
 9663TIP3    H228954   4.017   6.520   2.739  0.3982  0.8186  0.1285
 9664TIP3   OH228955   5.838   5.394   5.480  0.1505  0.4816  0.2387
 9664TIP3    H128956   5.858   5.323   5.542  0.6855  0.1703 -0.2853
 9664TIP3    H228957   5.846   5.474   5.532 -1.7757  0.0930  1.1709
 9665TIP3   OH228958   1.290   2.738   2.911  0.8105 -0.5120 -0.0991
 9665TIP3    H128959   1.322   2.794   2.982  1.7653 -1.2439  0.0516
 9665TIP3    H228960   1.360   2.675   2.896  0.5472 -0.4725 -1.5843
 9666TIP3   OH228961   0.288   3.821   0.561 -0.5517  0.4023 -0.2545
 9666TIP3    H128962   0.238   3.899   0.587  1.6773  1.9446 -0.3998
 9666TIP3    H228963   0.345   3.803   0.636  0.6180  0.3565 -1.1432
 9667TIP3   OH228964   1.722   2.818   2.265  0.0717  0.0334  0.0420
 9667TIP3    H128965   1.706   2.860   2.181  1.0015 -2.6056 -1.5238
 9667TIP3    H228966   1.813   2.837   2.285  0.6231 -1.4915 -0.8831
 9668TIP3   OH228967   0.044   2.703   3.199 -0.2712 -0.1480  0.4296
 9668TIP3    H128968   0.005   2.782   3.163  0.3039 -0.0238  0.0793
 9668TIP3    H228969  -0.031   2.653   3.234 -0.7284  0.1337 -0.1431
 9669TIP3   OH228970   6.810   2.985   1.036 -0.0212  0.2883 -0.0790
 9669TIP3    H128971   6.792   2.907   0.984  0.7654  2.1286 -3.2086
 9669TIP3    H228972   6.889   2.963   1.085 -0.1685 -1.1035 -0.4436
 9670TIP3   OH228973   6.275   6.336   1.081  0.0319  0.3463 -0.0010
 9670TIP3    H128974   6.356   6.387   1.073 -0.5057  1.3180  0.7119
 9670TIP3    H228975   6.205   6.399   1.067 -0.6652 -0.0621  1.5534
 9671TIP3   OH228976   1.663   2.926   0.730  0.5667  0.5655 -0.0347
 9671TIP3    H128977   1.646   2.984   0.804  1.8685  0.2736  0.5056
 9671TIP3    H228978   1.646   2.981   0.652 -0.8071  0.8667  0.4658
 9672TIP3   OH228979   2.743   4.610   2.355 -0.2867 -0.4374 -0.1842
 9672TIP3    H128980   2.823   4.622   2.304  1.6646 -2.4915  2.2418
 9672TIP3    H228981   2.726   4.697   2.393 -0.3099  0.4651 -2.2063
 9673TIP3   OH228982   2.899   5.821   4.644 -0.4083  0.2832 -0.2197
 9673TIP3    H128983   2.926   5.858   4.560 -1.8004  0.8470 -0.4212
 9673TIP3    H228984   2.936   5.881   4.709  1.2106 -0.4964 -0.3805
 9674TIP3   OH228985   0.784   1.390   2.044  0.5713 -0.1562 -0.2925
 9674TIP3    H128986   0.859   1.392   2.103 -0.1959 -1.8153  0.7666
 9674TIP3    H228987   0.815   1.434   1.965  2.5257 -0.4461  0.2785
 9675TIP3   OH228988   0.910   0.247   1.112 -0.3055 -0.3402 -0.1483
 9675TIP3    H128989   0.939   0.306   1.182 -1.6861  1.0051 -0.6765
 9675TIP3    H228990   0.990   0.223   1.067  0.1916  2.0780 -0.6382
 9676TIP3   OH228991   0.855   3.323   1.622 -0.0823  0.1616  0.1421
 9676TIP3    H128992   0.833   3.408   1.660  2.2752  1.3170 -0.9958
 9676TIP3    H228993   0.831   3.331   1.530 -0.2406 -0.5491  0.1189
 9677TIP3   OH228994   7.339   1.894   1.950  0.5679  0.3643 -0.0062
 9677TIP3    H128995   7.423   1.850   1.937  0.8266  0.7831  0.2612
 9677TIP3    H228996   7.361   1.985   1.968  0.0776  0.3770  0.5452
 9678TIP3   OH228997   1.262   3.238   0.534 -0.6433 -0.5033 -0.3120
 9678TIP3    H128998   1.232   3.196   0.615 -1.3264  2.0151  0.8079
 9678TIP3    H228999   1.317   3.172   0.492 -0.9776 -2.1904  1.7769
 9679TIP3   OH229000   1.066   2.359   1.956 -0.4217 -0.0543 -0.2453
 9679TIP3    H129001   0.988   2.415   1.962  1.1085  2.1101  0.1184
 9679TIP3    H229002   1.140   2.419   1.965  1.3185 -2.0584 -0.6020
 9680TIP3   OH229003   1.067   1.189   3.543 -0.1387 -0.0881 -0.1771
 9680TIP3    H129004   1.053   1.101   3.577  1.3958 -0.5755 -0.7499
 9680TIP3    H229005   1.108   1.236   3.616 -0.9882  0.1597  0.1398
 9681TIP3   OH229006   7.080   1.075   3.166  0.0867 -0.1974  0.3829
 9681TIP3    H129007   7.103   1.012   3.233  0.5176  0.5606  0.9571
 9681TIP3    H229008   7.057   1.155   3.214  1.8944  0.8351 -0.4143
 9682TIP3   OH229009   1.123   1.816   1.517  0.1053  0.2168 -0.2430
 9682TIP3    H129010   1.047   1.812   1.575  0.5756 -1.6041  0.2521
 9682TIP3    H229011   1.166   1.899   1.540  0.1856 -0.3876  1.8981
 9683TIP3   OH229012   2.290   3.383   2.253 -0.4166  0.3390 -0.3194
 9683TIP3    H129013   2.229   3.400   2.325  1.5156  2.4606  0.8875
 9683TIP3    H229014   2.270   3.451   2.188  1.0366  1.4661  0.3709
 9684TIP3   OH229015   2.073   1.689   0.829 -0.0125  0.1516 -0.2002
 9684TIP3    H129016   2.023   1.623   0.780 -0.6462  0.6819 -0.2709
 9684TIP3    H229017   2.131   1.728   0.763 -0.2620  0.2742 -0.3476
 9685TIP3   OH229018   3.263   1.473   1.697 -0.2263 -0.2260  0.2801
 9685TIP3    H129019   3.231   1.538   1.635  0.4431  0.1219  0.2966
 9685TIP3    H229020   3.185   1.423   1.722 -0.5344 -0.2119 -0.6500
 9686TIP3   OH229021   1.802   2.790   3.200 -0.2104  0.3886 -0.3385
 9686TIP3    H129022   1.772   2.771   3.288  0.3468  0.9116 -0.0297
 9686TIP3    H229023   1.897   2.782   3.204 -0.0492  1.9335 -0.4947
 9687TIP3   OH229024   2.363   0.889   3.588  0.1378 -0.6334  0.3084
 9687TIP3    H129025   2.306   0.878   3.664 -2.0774  1.8516 -0.9221
 9687TIP3    H229026   2.426   0.955   3.614 -1.1876  0.8975 -0.2612
 9688TIP3   OH229027   4.070   1.387   1.104 -0.7521 -0.5135  0.0053
 9688TIP3    H129028   4.157   1.349   1.099 -0.0335  1.1565 -0.3564
 9688TIP3    H229029   4.018   1.322   1.153  0.3529 -2.0724 -0.8634
 9689TIP3   OH229030   1.431   0.819   1.001  0.3023 -0.2883  0.5499
 9689TIP3    H129031   1.432   0.763   1.079  1.0907 -0.2066  0.6087
 9689TIP3    H229032   1.357   0.878   1.014  0.2183 -0.5072  1.0704
 9690TIP3   OH229033   1.812   2.717   1.372 -0.3901 -0.2109  0.0399
 9690TIP3    H129034   1.853   2.762   1.447 -0.4264  2.2104 -1.3502
 9690TIP3    H229035   1.885   2.677   1.325 -0.3085 -1.2706  1.0515
 9691TIP3   OH229036   0.594   0.592   2.190  0.3567 -0.0029 -0.0746
 9691TIP3    H129037   0.658   0.610   2.258  0.5557  0.3769 -0.3601
 9691TIP3    H229038   0.635   0.524   2.136  0.5347  0.2657 -0.2780
 9692TIP3   OH229039   3.465   5.567   5.701 -0.0775  0.2795  0.3033
 9692TIP3    H129040   3.482   5.651   5.658  0.7312  0.1189  0.2887
 9692TIP3    H229041   3.459   5.589   5.794  1.8972  0.1349  0.4955
 9693TIP3   OH229042   5.876   2.151   0.680  0.4218 -0.7631 -0.2181
 9693TIP3    H129043   5.885   2.197   0.764 -2.9692  0.5751 -0.5044
 9693TIP3    H229044   5.840   2.065   0.703 -1.6951  0.0552 -0.3314
 9694TIP3   OH229045   2.751   2.984   1.480  0.0179 -0.0953  0.2228
 9694TIP3    H129046   2.749   3.037   1.400 -1.1571 -0.8778 -0.2654
 9694TIP3    H229047   2.710   3.039   1.547 -1.8707 -0.6492 -0.4558
 9695TIP3   OH229048   3.346   1.865   1.087 -0.3641 -0.5959 -0.1595
 9695TIP3    H129049   3.428   1.854   1.134  0.2353  0.7003 -0.8773
 9695TIP3    H229050   3.288   1.797   1.123  1.2334 -2.0027 -0.1676
 9696TIP3   OH229051   4.602   1.932   2.004 -0.4346 -0.2771  0.4556
 9696TIP3    H129052   4.585   2.008   1.949 -2.6126 -2.0586 -1.4897
 9696TIP3    H229053   4.683   1.895   1.969 -0.5701 -0.0719 -0.0904
 9697TIP3   OH229054   4.948   2.106   1.099  0.5325 -0.4699  0.1022
 9697TIP3    H129055   4.903   2.154   1.169  0.1977 -0.1378 -0.3322
 9697TIP3    H229056   5.011   2.050   1.144  0.7123  0.1572  0.6316
 9698TIP3   OH229057   2.550   4.745   5.661 -0.5939 -0.0576 -0.1803
 9698TIP3    H129058   2.546   4.737   5.756 -0.4854 -2.3109 -0.3342
 9698TIP3    H229059   2.560   4.838   5.645  0.6090  0.2332  2.0773
 9699TIP3   OH229060   7.184   5.405   3.942  0.0748  0.0457  0.0080
 9699TIP3    H129061   7.255   5.468   3.938  0.2502 -0.0987  0.7895
 9699TIP3    H229062   7.227   5.321   3.960 -0.2206 -0.1663 -0.2684
 9700TIP3   OH229063   4.835   6.405   4.249  0.4694 -0.2955 -0.4260
 9700TIP3    H129064   4.926   6.383   4.229  1.2554  0.8742  1.7426
 9700TIP3    H229065   4.829   6.398   4.344 -1.9588 -1.1930 -0.6089
 9701TIP3   OH229066   1.425   1.503   2.686  0.0696  0.4681  0.0671
 9701TIP3    H129067   1.408   1.462   2.770  0.1281  0.7899  0.2333
 9701TIP3    H229068   1.501   1.455   2.651 -0.2733 -0.0021 -0.0328
 9702TIP3   OH229069   1.129   0.774   2.559 -0.3878  0.1622 -0.0314
 9702TIP3    H129070   1.121   0.679   2.555 -3.6296  0.4696 -2.3927
 9702TIP3    H229071   1.180   0.797   2.481 -0.2699  0.4498  0.1297
 9703TIP3   OH229072   3.246   2.153   1.471 -0.0643  0.5014  0.0627
 9703TIP3    H129073   3.225   2.246   1.475 -1.5950  0.1308  1.0227
 9703TIP3    H229074   3.206   2.122   1.389  0.4486  0.6885 -0.2582
 9704TIP3   OH229075   1.795   1.897   1.628  0.4865 -0.7285 -0.1306
 9704TIP3    H129076   1.813   1.879   1.720 -0.5121 -1.2994 -0.0395
 9704TIP3    H229077   1.844   1.830   1.580 -0.0695 -1.2616  0.0453
 9705TIP3   OH229078   4.053   3.666   0.595 -0.4702  0.1384  0.7559
 9705TIP3    H129079   3.976   3.655   0.539  1.2578 -1.2341 -1.3766
 9705TIP3    H229080   4.043   3.599   0.662 -0.2562 -1.1975 -0.5345
 9706TIP3   OH229081   3.821   1.857   1.703 -0.2583 -0.2190  0.6310
 9706TIP3    H129082   3.842   1.877   1.795  1.6635 -0.2882  0.2441
 9706TIP3    H229083   3.747   1.913   1.682  0.6644  1.4091  1.6062
 9707TIP3   OH229084   2.903   3.473   0.521 -0.0996  0.0044  0.3086
 9707TIP3    H129085   2.821   3.503   0.481  0.0411  0.5788  0.4450
 9707TIP3    H229086   2.969   3.483   0.452  0.3335  1.9365  0.9749
 9708TIP3   OH229087   5.691   5.722   5.659  0.0503  0.1029 -0.5871
 9708TIP3    H129088   5.720   5.639   5.697 -0.5039  0.3004  0.2552
 9708TIP3    H229089   5.770   5.757   5.617  0.8399  0.2238  0.9664
 9709TIP3   OH229090   5.625   5.008   5.979 -0.0587  0.5099 -0.4538
 9709TIP3    H129091   5.677   4.940   5.937 -0.9070  0.3526 -1.2549
 9709TIP3    H229092   5.683   5.084   5.982  0.0968  0.4344 -1.6339
 9710TIP3   OH229093   1.267   3.154   1.409 -0.0668  0.2752  0.5904
 9710TIP3    H129094   1.300   3.215   1.475 -0.3124  1.1897 -0.1158
 9710TIP3    H229095   1.176   3.138   1.434 -0.2973  0.9806  0.2311
 9711TIP3   OH229096   2.757   1.793   1.293  0.1239 -0.1710 -0.5980
 9711TIP3    H129097   2.852   1.795   1.285  0.1726 -0.8676 -0.2310
 9711TIP3    H229098   2.739   1.829   1.380 -0.0165  0.9256 -1.0637
 9712TIP3   OH229099   3.792   2.899   1.399 -0.3323  0.2448 -0.0714
 9712TIP3    H129100   3.757   2.888   1.310  1.5689  2.2321 -1.0845
 9712TIP3    H229101   3.721   2.941   1.447 -0.9660  0.1694 -0.9216
 9713TIP3   OH229102   0.669   6.870   0.534 -0.3186 -0.3952  0.3221
 9713TIP3    H129103   0.656   6.955   0.492 -0.2099 -1.9085 -2.9342
 9713TIP3    H229104   0.756   6.843   0.507  0.2075 -0.9877  2.4764
 9714TIP3   OH229105   0.148   1.719   1.476 -0.2344 -0.3380  0.1487
 9714TIP3    H129106   0.158   1.630   1.510 -2.1450 -0.4668  0.4337
 9714TIP3    H229107   0.225   1.766   1.509 -1.1513 -0.8951  3.2409
 9715TIP3   OH229108   3.751   0.674   2.692  0.1662  0.1341  0.2835
 9715TIP3    H129109   3.681   0.713   2.744  0.0966  1.1921 -0.5966
 9715TIP3    H229110   3.799   0.748   2.656 -0.0406 -0.5664 -1.5081
 9716TIP3   OH229111   0.758   2.460   0.548  0.0127 -0.1591  0.3427
 9716TIP3    H129112   0.746   2.471   0.642 -0.6203  0.8421  0.1553
 9716TIP3    H229113   0.779   2.547   0.516  1.4767 -0.7242 -0.2771
 9717TIP3   OH229114   3.463   6.016   5.473  0.6983 -0.5432 -0.3003
 9717TIP3    H129115   3.441   6.004   5.381  2.5316 -1.0897 -0.6856
 9717TIP3    H229116   3.552   6.050   5.472  1.1572 -1.6357  1.3080
 9718TIP3   OH229117   4.614   4.671   5.790  0.9640 -0.4244 -0.1475
 9718TIP3    H129118   4.552   4.618   5.839  2.5376 -0.7465  1.5191
 9718TIP3    H229119   4.572   4.757   5.783  1.1734 -0.0449  2.7424
 9719TIP3   OH229120   5.432   5.668   5.648 -0.3907  0.4143  0.2982
 9719TIP3    H129121   5.397   5.673   5.737 -0.5175 -2.9341  0.5018
 9719TIP3    H229122   5.527   5.673   5.659 -0.4303  0.6155  0.5597
 9720TIP3   OH229123   2.985   1.481   1.394  0.5802  0.7615  0.1227
 9720TIP3    H129124   3.038   1.547   1.438 -0.4122  0.9220  1.0850
 9720TIP3    H229125   2.919   1.455   1.458 -0.8860  1.0012 -1.2461
 9721TIP3   OH229126   3.094   0.713   2.684  0.0578  0.0871  0.9000
 9721TIP3    H129127   3.139   0.689   2.603 -0.4565  0.2376  0.5690
 9721TIP3    H229128   3.151   0.679   2.754  0.2322 -0.5102  0.4711
 9722TIP3   OH229129   6.403   4.716   5.109  0.3708  0.1541 -0.6822
 9722TIP3    H129130   6.383   4.809   5.115 -1.3292 -0.0770 -2.3262
 9722TIP3    H229131   6.318   4.672   5.113  0.9089 -1.1526 -2.7207
 9723TIP3   OH229132   3.505   0.420   1.513  0.1764  0.5658  0.1001
 9723TIP3    H129133   3.440   0.368   1.559  1.7810  0.8801  2.8468
 9723TIP3    H229134   3.512   0.380   1.427 -1.2334 -1.5205  0.9224
 9724TIP3   OH229135   0.756   6.205   5.790 -0.0143  0.1339 -0.5857
 9724TIP3    H129136   0.725   6.270   5.854  1.6241 -0.0996  0.4824
 9724TIP3    H229137   0.778   6.129   5.843  3.7084  0.7922 -1.0991
 9725TIP3   OH229138   7.074   5.308   5.209 -0.0503  0.0870 -0.1377
 9725TIP3    H129139   7.152   5.351   5.246  0.8303  0.0694 -1.9054
 9725TIP3    H229140   7.038   5.371   5.148 -1.5656  0.1599  0.7954
 9726TIP3   OH229141   1.688   4.868   5.991 -0.7457 -0.0789  0.1234
 9726TIP3    H129142   1.737   4.792   5.960 -2.0891 -1.1546  0.6523
 9726TIP3    H229143   1.700   4.868   6.086 -0.1538  0.7991  0.0625
 9727TIP3   OH229144   1.292   3.314   1.133 -0.4248 -0.4754 -0.1607
 9727TIP3    H129145   1.386   3.317   1.114 -0.0318  0.6700  1.8347
 9727TIP3    H229146   1.287   3.291   1.226 -2.1162 -0.4914 -0.2399
 9728TIP3   OH229147   3.412   1.300   2.685  0.0589  0.0727  0.6185
 9728TIP3    H129148   3.431   1.359   2.612 -1.7128  0.2073  0.2591
 9728TIP3    H229149   3.371   1.223   2.644 -0.4575 -0.0789  1.4142
 9729TIP3   OH229150   2.177   1.916   1.416  0.1233  0.6172  0.2375
 9729TIP3    H129151   2.131   1.887   1.495 -0.1610  0.7438  0.1215
 9729TIP3    H229152   2.270   1.906   1.436  0.0257 -0.4496  0.1663
 9730TIP3   OH229153   2.614   0.998   0.541 -0.4794 -0.3000 -0.0744
 9730TIP3    H129154   2.697   0.952   0.530 -0.5802 -1.2799  2.8876
 9730TIP3    H229155   2.559   0.965   0.471  0.7638 -1.6628 -0.4437
 9731TIP3   OH229156   2.246   1.181   2.366  0.2743 -0.1243 -0.2032
 9731TIP3    H129157   2.188   1.115   2.328 -1.5297  0.0753  2.0891
 9731TIP3    H229158   2.332   1.140   2.364 -0.2425 -1.1922 -1.9187
 9732TIP3   OH229159   3.730   2.098   1.304  0.6332 -0.2172 -0.4627
 9732TIP3    H129160   3.775   2.182   1.306 -1.0903  0.7171  0.3657
 9732TIP3    H229161   3.648   2.114   1.350  0.7529 -2.6389  0.6678
 9733TIP3   OH229162   1.488   1.859   0.255  0.2069  0.5719  0.3187
 9733TIP3    H129163   1.556   1.850   0.188  0.6987  1.0481  0.7382
 9733TIP3    H229164   1.432   1.930   0.223 -0.0798  0.1900 -0.0205
 9734TIP3   OH229165   4.664   5.866   5.881  0.5611  0.0229  0.3938
 9734TIP3    H129166   4.687   5.773   5.884  0.1305 -0.1081 -0.3373
 9734TIP3    H229167   4.620   5.882   5.964  0.2050 -0.5371  0.3167
 9735TIP3   OH229168   2.717   3.176   1.286 -0.3379 -0.1584 -0.0137
 9735TIP3    H129169   2.652   3.240   1.316  0.4958  1.0431 -0.6820
 9735TIP3    H229170   2.778   3.228   1.233  0.0832 -1.6140 -0.9931
 9736TIP3   OH229171   0.601   1.056   0.412  0.3043  0.1642 -0.5754
 9736TIP3    H129172   0.693   1.043   0.391  0.3657 -2.7143  1.1968
 9736TIP3    H229173   0.554   1.020   0.337  0.6009 -0.4767 -0.4528
 9737TIP3   OH229174   2.976   2.051   0.581 -0.5259 -0.1932 -0.2824
 9737TIP3    H129175   2.968   2.045   0.485 -1.1563 -0.0514 -0.2400
 9737TIP3    H229176   2.971   2.145   0.599 -0.9951 -0.2627 -0.0586
 9738TIP3   OH229177   0.439   3.525   0.859  0.3085  0.1122  0.2573
 9738TIP3    H129178   0.441   3.505   0.765  0.2740 -1.9326  0.6675
 9738TIP3    H229179   0.445   3.439   0.902 -2.4641  0.7727  2.1096
 9739TIP3   OH229180   3.016   6.509   3.872  0.1284  0.0862 -0.8390
 9739TIP3    H129181   3.015   6.413   3.872 -0.1636  0.0896 -1.5447
 9739TIP3    H229182   3.011   6.534   3.780  2.2885  0.7754 -0.8014
 9740TIP3   OH229183   4.354   1.071   5.487 -0.2883 -0.6934  0.1774
 9740TIP3    H129184   4.409   1.060   5.409 -1.3909 -1.8514 -0.4585
 9740TIP3    H229185   4.411   1.113   5.551  0.3424  1.2139 -1.5817
 9741TIP3   OH229186   6.270   4.740   0.776 -0.2491 -0.0043 -0.2130
 9741TIP3    H129187   6.253   4.745   0.870 -1.3166  0.5717 -0.4289
 9741TIP3    H229188   6.311   4.655   0.764 -0.5350 -0.2845  0.7074
 9742TIP3   OH229189   7.179   2.275   0.597  0.1082  0.3184  0.3600
 9742TIP3    H129190   7.113   2.279   0.666 -0.9650 -1.3051 -0.5303
 9742TIP3    H229191   7.129   2.250   0.519  1.8949 -1.6024 -0.1813
 9743TIP3   OH229192   3.253   6.273   4.940 -0.8725  0.0065  0.4403
 9743TIP3    H129193   3.237   6.234   4.854 -0.6641  1.2285 -0.1579
 9743TIP3    H229194   3.167   6.274   4.982 -1.3095  1.0430 -0.4531
 9744TIP3   OH229195   1.112   1.187   1.716  0.2032  0.3756 -0.1901
 9744TIP3    H129196   1.070   1.235   1.644  0.0435  0.3970 -0.0837
 9744TIP3    H229197   1.112   1.249   1.789 -2.4709 -0.6926  0.7759
 9745TIP3   OH229198   1.932   3.527   1.513 -0.1572 -0.6564  0.2988
 9745TIP3    H129199   2.015   3.562   1.479 -0.4806 -0.3996 -0.2184
 9745TIP3    H229200   1.946   3.432   1.515  0.5239 -0.5464  1.1955
 9746TIP3   OH229201   1.160   3.551   1.750  0.0517 -0.0793 -0.4121
 9746TIP3    H129202   1.113   3.488   1.805  0.8841 -2.7087 -2.6227
 9746TIP3    H229203   1.183   3.622   1.810 -0.3718 -2.1517  2.3159
 9747TIP3   OH229204   0.659   2.471   0.818 -0.0317  0.0917  0.4142
 9747TIP3    H129205   0.726   2.437   0.877  0.3916  0.1653 -0.0250
 9747TIP3    H229206   0.577   2.436   0.853  0.1341  0.7674  1.4937
 9748TIP3   OH229207   1.631   2.514   1.294 -0.7812 -0.0074  0.0084
 9748TIP3    H129208   1.663   2.504   1.205 -2.2214  1.6965 -0.7292
 9748TIP3    H229209   1.679   2.590   1.328 -1.4600  0.3761  0.1075
 9749TIP3   OH229210   0.861   2.396   0.094 -0.1305 -0.1232  0.0821
 9749TIP3    H129211   0.834   2.469   0.037 -1.9049 -1.2707 -0.5981
 9749TIP3    H229212   0.780   2.370   0.138  1.2652  0.9612  3.4294
   7.40000   6.97679   6.04207   0.00000   0.00000  -2.46667   0.00000  -2.46667  -3.48839
