Title t= 257.00000 step= 128500
44463
    1GLY      N    1   2.700   3.222   4.111
    1GLY    HT1    2   2.675   3.223   4.212
    1GLY    HT2    3   2.642   3.299   4.070
    1GLY    HT3    4   2.799   3.251   4.119
    1GLY     CA    5   2.679   3.095   4.030
    1GLY    HA1    6   2.727   3.114   3.935
    1GLY    HA2    7   2.572   3.086   4.018
    1GLY      C    8   2.734   2.972   4.094
    1GLY      O    9   2.817   2.973   4.185
    2PRO      N   10   2.687   2.853   4.047
    2PRO     CD   11   2.617   2.834   3.920
    2PRO    HD1   12   2.649   2.898   3.835
    2PRO    HD2   13   2.507   2.843   3.935
    2PRO     CA   14   2.766   2.728   4.078
    2PRO     HA   15   2.756   2.709   4.183
    2PRO     CB   16   2.692   2.614   4.009
    2PRO    HB1   17   2.600   2.591   4.067
    2PRO    HB2   18   2.749   2.519   4.001
    2PRO     CG   19   2.644   2.686   3.877
    2PRO    HG1   20   2.721   2.675   3.797
    2PRO    HG2   21   2.555   2.628   3.843
    2PRO      C   22   2.919   2.723   4.049
    2PRO      O   23   2.954   2.772   3.939
    3GLY      N   24   3.004   2.674   4.140
    3GLY     HN   25   2.970   2.626   4.221
    3GLY     CA   26   3.151   2.663   4.118
    3GLY    HA1   27   3.199   2.674   4.214
    3GLY    HA2   28   3.181   2.740   4.048
    3GLY      C   29   3.182   2.533   4.049
    3GLY      O   30   3.114   2.489   3.957
    4ASP      N   31   3.283   2.474   4.102
    4ASP     HN   32   3.346   2.521   4.164
    4ASP     CA   33   3.334   2.346   4.044
    4ASP     HA   34   3.342   2.364   3.938
    4ASP     CB   35   3.481   2.315   4.094
    4ASP    HB1   36   3.518   2.218   4.055
    4ASP    HB2   37   3.481   2.306   4.204
    4ASP     CG   38   3.587   2.424   4.048
    4ASP    OD1   39   3.687   2.431   4.123
    4ASP    OD2   40   3.573   2.476   3.935
    4ASP      C   41   3.247   2.228   4.073
    4ASP      O   42   3.200   2.219   4.187
    5PRO      N   43   3.222   2.135   3.981
    5PRO     CD   44   3.267   2.143   3.840
    5PRO    HD1   45   3.376   2.122   3.831
    5PRO    HD2   46   3.244   2.242   3.797
    5PRO     CA   47   3.150   2.014   4.010
    5PRO     HA   48   3.055   2.054   4.042
    5PRO     CB   49   3.160   1.936   3.868
    5PRO    HB1   50   3.068   1.874   3.860
    5PRO    HB2   51   3.247   1.868   3.874
    5PRO     CG   52   3.181   2.045   3.771
    5PRO    HG1   53   3.220   2.010   3.673
    5PRO    HG2   54   3.084   2.089   3.740
    5PRO      C   55   3.220   1.930   4.119
    5PRO      O   56   3.345   1.915   4.114
    6GLY      N   57   3.142   1.877   4.214
    6GLY     HN   58   3.045   1.899   4.211
    6GLY     CA   59   3.196   1.787   4.313
    6GLY    HA1   60   3.110   1.759   4.372
    6GLY    HA2   61   3.280   1.831   4.364
    6GLY      C   62   3.250   1.651   4.268
    6GLY      O   63   3.233   1.613   4.154
    7PRO      N   64   3.315   1.574   4.353
    7PRO     CD   65   3.348   1.613   4.490
    7PRO    HD1   66   3.267   1.648   4.557
    7PRO    HD2   67   3.416   1.701   4.485
    7PRO     CA   68   3.342   1.431   4.340
    7PRO     HA   69   3.364   1.404   4.239
    7PRO     CB   70   3.451   1.404   4.447
    7PRO    HB1   71   3.555   1.415   4.411
    7PRO    HB2   72   3.436   1.301   4.486
    7PRO     CG   73   3.418   1.498   4.559
    7PRO    HG1   74   3.342   1.442   4.618
    7PRO    HG2   75   3.501   1.533   4.624
    7PRO      C   76   3.215   1.352   4.371
    7PRO      O   77   3.117   1.405   4.426
    8GLY      N   78   3.209   1.229   4.315
    8GLY     HN   79   3.297   1.195   4.281
    8GLY     CA   80   3.098   1.135   4.319
    8GLY    HA1   81   3.015   1.178   4.372
    8GLY    HA2   82   3.131   1.038   4.355
    8GLY      C   83   3.041   1.119   4.181
    8GLY      O   84   3.079   1.184   4.084
    9ASP      N   85   2.956   1.014   4.157
    9ASP     HN   86   2.912   0.968   4.234
    9ASP     CA   87   2.896   0.997   4.030
    9ASP     HA   88   2.977   0.990   3.958
    9ASP     CB   89   2.815   0.866   4.025
    9ASP    HB1   90   2.759   0.851   3.930
    9ASP    HB2   91   2.739   0.863   4.106
    9ASP     CG   92   2.886   0.736   4.038
    9ASP    OD1   93   2.995   0.725   3.984
    9ASP    OD2   94   2.819   0.637   4.070
    9ASP      C   95   2.803   1.116   3.998
    9ASP      O   96   2.747   1.169   4.093
   10PRO      N   97   2.784   1.161   3.870
   10PRO     CD   98   2.841   1.079   3.755
   10PRO    HD1   99   2.783   0.988   3.731
   10PRO    HD2  100   2.950   1.059   3.767
   10PRO     CA  101   2.683   1.257   3.829
   10PRO     HA  102   2.727   1.351   3.859
   10PRO     CB  103   2.687   1.238   3.675
   10PRO    HB1  104   2.664   1.335   3.627
   10PRO    HB2  105   2.609   1.165   3.646
   10PRO     CG  106   2.829   1.180   3.648
   10PRO    HG1  107   2.828   1.139   3.545
   10PRO    HG2  108   2.911   1.254   3.660
   10PRO      C  109   2.541   1.255   3.882
   10PRO      O  110   2.492   1.144   3.910
   11GLY      N  111   2.481   1.374   3.909
   11GLY     HN  112   2.519   1.458   3.871
   11GLY     CA  113   2.343   1.375   3.959
   11GLY    HA1  114   2.291   1.289   3.920
   11GLY    HA2  115   2.301   1.465   3.916
   11GLY      C  116   2.330   1.368   4.117
   11GLY      O  117   2.429   1.348   4.183
   12PRO      N  118   2.209   1.379   4.165
   12PRO     CD  119   2.089   1.362   4.079
   12PRO    HD1  120   2.078   1.254   4.054
   12PRO    HD2  121   2.085   1.425   3.987
   12PRO     CA  122   2.176   1.382   4.308
   12PRO     HA  123   2.182   1.485   4.339
   12PRO     CB  124   2.023   1.356   4.302
   12PRO    HB1  125   1.957   1.390   4.385
   12PRO    HB2  126   2.016   1.245   4.296
   12PRO     CG  127   1.976   1.401   4.171
   12PRO    HG1  128   1.889   1.354   4.121
   12PRO    HG2  129   1.980   1.511   4.161
   12PRO      C  130   2.262   1.294   4.406
   12PRO      O  131   2.293   1.176   4.374
   13GLY      N  132   2.297   1.355   4.526
   13GLY     HN  133   2.270   1.450   4.534
   13GLY     CA  134   2.362   1.286   4.638
   13GLY    HA1  135   2.379   1.362   4.713
   13GLY    HA2  136   2.456   1.245   4.604
   13GLY      C  137   2.297   1.169   4.709
   13GLY      O  138   2.202   1.107   4.667
   14ASP      N  139   2.354   1.143   4.830
   14ASP     HN  140   2.438   1.187   4.862
   14ASP     CA  141   2.312   1.036   4.924
   14ASP     HA  142   2.325   0.943   4.870
   14ASP     CB  143   2.402   1.017   5.045
   14ASP    HB1  144   2.362   0.956   5.128
   14ASP    HB2  145   2.405   1.117   5.092
   14ASP     CG  146   2.543   0.968   5.012
   14ASP    OD1  147   2.569   0.922   4.898
   14ASP    OD2  148   2.626   0.958   5.110
   14ASP      C  149   2.164   1.060   4.963
   14ASP      O  150   2.124   1.176   4.984
   15PRO      N  151   2.076   0.954   4.980
   15PRO     CD  152   2.107   0.806   4.969
   15PRO    HD1  153   2.205   0.788   5.018
   15PRO    HD2  154   2.109   0.767   4.865
   15PRO     CA  155   1.933   0.977   4.989
   15PRO     HA  156   1.895   1.036   4.907
   15PRO     CB  157   1.872   0.836   4.992
   15PRO    HB1  158   1.837   0.814   4.889
   15PRO    HB2  159   1.781   0.832   5.055
   15PRO     CG  160   1.983   0.743   5.025
   15PRO    HG1  161   2.009   0.730   5.133
   15PRO    HG2  162   1.957   0.647   4.977
   15PRO      C  163   1.892   1.050   5.114
   15PRO    OT1  164   1.937   1.024   5.228
   15PRO    OT2  165   1.813   1.149   5.101
   16LIT    LIT  166   1.807   1.167   5.282
   17LIT    LIT  167   2.051   2.286   5.853
   18LIT    LIT  168   2.431   6.531   1.613
   19LIT    LIT  169   5.623   5.857   1.084
   20LIT    LIT  170   1.831   6.421   3.333
   21LIT    LIT  171   0.413   1.896   2.947
   22LIT    LIT  172   8.263   1.810   3.664
   23LIT    LIT  173   1.285   3.212   2.762
   24LIT    LIT  174   0.240   2.897   5.605
   25LIT    LIT  175   4.901   0.410   4.283
   26LIT    LIT  176   7.502   1.916   2.392
   27LIT    LIT  177   1.096   3.656   6.275
   28LIT    LIT  178   3.769   1.039   4.749
   29LIT    LIT  179   2.172   5.225   0.846
   30LIT    LIT  180   3.590   3.909   0.188
   31LIT    LIT  181   7.923   5.524   5.255
   32LIT    LIT  182   5.019   4.140   0.731
   33LIT    LIT  183   7.292   2.224   0.741
   34LIT    LIT  184   4.557   6.914   3.596
   35LIT    LIT  185   4.164   7.105   6.748
   36LIT    LIT  186   3.423   0.217   3.234
   37LIT    LIT  187   0.830   6.789   0.405
   38LIT    LIT  188   4.789   7.802   4.520
   39LIT    LIT  189   7.910   7.523   3.701
   40LIT    LIT  190   0.070   0.646   2.480
   41LIT    LIT  191   3.987   0.427   5.011
   42LIT    LIT  192   6.340   1.173   0.672
   43LIT    LIT  193   5.065   2.347   0.776
   44LIT    LIT  194   6.703   1.365   5.237
   45LIT    LIT  195   7.540   5.649   3.213
   46LIT    LIT  196   7.093   4.626   1.747
   47LIT    LIT  197   1.032   4.966   1.618
   48LIT    LIT  198   6.420   2.243   3.745
   49LIT    LIT  199   8.296   1.875   6.517
   50LIT    LIT  200   7.972   1.399   4.238
   51LIT    LIT  201   2.026   0.504   3.487
   52LIT    LIT  202   7.463   5.685   0.322
   53LIT    LIT  203   0.550   3.324   1.877
   54LIT    LIT  204   1.324   3.374   1.784
   55LIT    LIT  205   0.898   0.070   3.309
   56LIT    LIT  206   4.254   7.036   1.829
   57LIT    LIT  207   6.312   3.580   2.426
   58LIT    LIT  208   2.751   0.873   4.994
   59LIT    LIT  209   1.516   5.569   4.630
   60LIT    LIT  210   3.191   4.733   4.432
   61CLA    CLA  211   7.836   5.070   3.658
   62CLA    CLA  212   2.864   4.268   4.370
   63CLA    CLA  213   1.719   1.316   3.586
   64CLA    CLA  214   5.148   2.952   1.487
   65CLA    CLA  215   6.871   0.497   2.184
   66CLA    CLA  216   7.923   0.373   3.608
   67CLA    CLA  217   0.680   0.856   5.222
   68CLA    CLA  218   5.451   0.085   5.603
   69CLA    CLA  219   1.529   2.166   5.523
   70CLA    CLA  220   4.413   6.076   4.914
   71CLA    CLA  221   0.387   5.928   6.391
   72CLA    CLA  222   2.421   6.171   0.985
   73CLA    CLA  223   8.001   3.149   1.560
   74CLA    CLA  224   7.741   6.170   3.417
   75CLA    CLA  225   3.602   7.684   5.014
   76CLA    CLA  226   4.323   1.344   1.028
   77CLA    CLA  227   3.546   4.484   3.689
   78CLA    CLA  228   4.414   5.102   1.646
   79CLA    CLA  229   5.250   1.791   6.275
   80CLA    CLA  230   7.587   4.153   1.834
   81CLA    CLA  231   5.432   6.266   6.298
   82CLA    CLA  232   8.111   1.035   6.293
   83CLA    CLA  233   2.603   5.438   0.334
   84CLA    CLA  234   1.915   1.008   0.273
   85CLA    CLA  235   4.010   5.331   5.764
   86CLA    CLA  236   6.902   3.505   3.918
   87CLA    CLA  237   2.616   6.323   2.043
   88CLA    CLA  238   4.869   4.573   1.164
   89CLA    CLA  239   7.198   4.362   4.558
   90CLA    CLA  240   1.091   6.067   6.626
   91CLA    CLA  241   3.802   3.867   1.970
   92CLA    CLA  242   7.051   6.805   5.696
   93CLA    CLA  243   4.080   0.951   4.444
   94CLA    CLA  244   4.892   6.313   0.240
   95CLA    CLA  245   3.125   6.094   3.477
   96CLA    CLA  246   0.304   1.559   2.685
   97CLA    CLA  247   7.060   1.906   4.415
   98CLA    CLA  248   1.554   6.136   4.495
   99CLA    CLA  249   7.248   2.002   0.734
  100CLA    CLA  250   2.037   3.144   4.532
  101CLA    CLA  251   0.317   1.792   3.132
  102CLA    CLA  252   0.177   0.622   4.741
  103TIP3   OH2  253   2.409   6.314   4.409
  103TIP3    H1  254   2.502   6.339   4.409
  103TIP3    H2  255   2.378   6.338   4.496
  104TIP3   OH2  256   5.876   6.706   6.053
  104TIP3    H1  257   5.839   6.760   5.983
  104TIP3    H2  258   5.926   6.639   6.007
  105TIP3   OH2  259   7.666   2.428   3.198
  105TIP3    H1  260   7.715   2.347   3.186
  105TIP3    H2  261   7.597   2.424   3.131
  106TIP3   OH2  262   6.470   5.603   0.993
  106TIP3    H1  263   6.487   5.543   1.066
  106TIP3    H2  264   6.486   5.690   1.030
  107TIP3   OH2  265   2.028   5.313   2.855
  107TIP3    H1  266   2.123   5.313   2.841
  107TIP3    H2  267   2.015   5.261   2.934
  108TIP3   OH2  268   7.300   2.281   6.267
  108TIP3    H1  269   7.219   2.257   6.313
  108TIP3    H2  270   7.276   2.360   6.217
  109TIP3   OH2  271   7.452   6.695   2.897
  109TIP3    H1  272   7.451   6.724   2.806
  109TIP3    H2  273   7.365   6.716   2.930
  110TIP3   OH2  274   5.865   5.851   4.759
  110TIP3    H1  275   5.869   5.945   4.780
  110TIP3    H2  276   5.824   5.812   4.836
  111TIP3   OH2  277   0.079   6.052   5.277
  111TIP3    H1  278   0.015   5.984   5.253
  111TIP3    H2  279   0.137   6.058   5.202
  112TIP3   OH2  280   2.908   2.047   5.376
  112TIP3    H1  281   2.916   2.041   5.471
  112TIP3    H2  282   2.912   1.957   5.345
  113TIP3   OH2  283   7.707   2.482   4.180
  113TIP3    H1  284   7.760   2.543   4.231
  113TIP3    H2  285   7.622   2.525   4.172
  114TIP3   OH2  286   2.291   1.312   1.240
  114TIP3    H1  287   2.334   1.397   1.250
  114TIP3    H2  288   2.215   1.317   1.298
  115TIP3   OH2  289   5.018   7.269   3.823
  115TIP3    H1  290   5.074   7.286   3.898
  115TIP3    H2  291   4.975   7.353   3.805
  116TIP3   OH2  292   1.590   2.416   4.528
  116TIP3    H1  293   1.544   2.488   4.572
  116TIP3    H2  294   1.551   2.413   4.440
  117TIP3   OH2  295   6.333   5.851   4.513
  117TIP3    H1  296   6.238   5.846   4.526
  117TIP3    H2  297   6.349   5.791   4.440
  118TIP3   OH2  298   8.278   4.616   6.721
  118TIP3    H1  299   8.297   4.710   6.723
  118TIP3    H2  300   8.191   4.610   6.682
  119TIP3   OH2  301   0.146   7.289   2.260
  119TIP3    H1  302   0.063   7.328   2.287
  119TIP3    H2  303   0.127   7.249   2.175
  120TIP3   OH2  304   3.871   3.340   1.271
  120TIP3    H1  305   3.850   3.406   1.337
  120TIP3    H2  306   3.788   3.324   1.226
  121TIP3   OH2  307   1.117   2.216   6.043
  121TIP3    H1  308   1.145   2.215   6.134
  121TIP3    H2  309   1.022   2.225   6.047
  122TIP3   OH2  310   5.359   7.116   5.425
  122TIP3    H1  311   5.312   7.075   5.497
  122TIP3    H2  312   5.380   7.043   5.366
  123TIP3   OH2  313   5.475   5.725   2.431
  123TIP3    H1  314   5.472   5.814   2.467
  123TIP3    H2  315   5.501   5.737   2.340
  124TIP3   OH2  316   0.140   5.768   3.667
  124TIP3    H1  317   0.061   5.730   3.705
  124TIP3    H2  318   0.108   5.827   3.599
  125TIP3   OH2  319   0.341   5.605   3.411
  125TIP3    H1  320   0.422   5.647   3.440
  125TIP3    H2  321   0.288   5.677   3.377
  126TIP3   OH2  322   2.011   1.064   0.939
  126TIP3    H1  323   1.926   1.062   0.896
  126TIP3    H2  324   2.014   0.982   0.990
  127TIP3   OH2  325   1.574   2.700   6.676
  127TIP3    H1  326   1.551   2.621   6.724
  127TIP3    H2  327   1.496   2.721   6.626
  128TIP3   OH2  328   5.471   7.175   6.314
  128TIP3    H1  329   5.504   7.109   6.254
  128TIP3    H2  330   5.382   7.194   6.283
  129TIP3   OH2  331   8.173   7.122   0.781
  129TIP3    H1  332   8.234   7.159   0.844
  129TIP3    H2  333   8.148   7.195   0.725
  130TIP3   OH2  334   0.178   1.328   2.095
  130TIP3    H1  335   0.147   1.308   2.006
  130TIP3    H2  336   0.104   1.304   2.151
  131TIP3   OH2  337   4.650   3.256  -0.022
  131TIP3    H1  338   4.615   3.196   0.043
  131TIP3    H2  339   4.584   3.257  -0.092
  132TIP3   OH2  340   3.957   3.317   3.743
  132TIP3    H1  341   4.042   3.322   3.700
  132TIP3    H2  342   3.971   3.261   3.818
  133TIP3   OH2  343   0.985   7.547   5.787
  133TIP3    H1  344   0.939   7.565   5.705
  133TIP3    H2  345   0.998   7.452   5.786
  134TIP3   OH2  346   2.442   0.276   3.782
  134TIP3    H1  347   2.509   0.296   3.847
  134TIP3    H2  348   2.364   0.320   3.814
  135TIP3   OH2  349   0.853   0.113   6.227
  135TIP3    H1  350   0.810   0.162   6.157
  135TIP3    H2  351   0.927   0.167   6.253
  136TIP3   OH2  352   1.128   3.388   1.791
  136TIP3    H1  353   1.079   3.444   1.731
  136TIP3    H2  354   1.080   3.393   1.873
  137TIP3   OH2  355   2.137   4.845   0.296
  137TIP3    H1  356   2.185   4.911   0.346
  137TIP3    H2  357   2.206   4.790   0.258
  138TIP3   OH2  358   1.766   4.064   5.685
  138TIP3    H1  359   1.845   4.021   5.652
  138TIP3    H2  360   1.742   4.125   5.615
  139TIP3   OH2  361   4.749   0.264   6.715
  139TIP3    H1  362   4.742   0.195   6.782
  139TIP3    H2  363   4.842   0.269   6.696
  140TIP3   OH2  364   0.631   7.688   1.322
  140TIP3    H1  365   0.722   7.658   1.325
  140TIP3    H2  366   0.579   7.608   1.327
  141TIP3   OH2  367   3.062   4.604   1.438
  141TIP3    H1  368   2.980   4.575   1.398
  141TIP3    H2  369   3.111   4.645   1.367
  142TIP3   OH2  370   5.493   4.117   3.017
  142TIP3    H1  371   5.402   4.137   3.040
  142TIP3    H2  372   5.545   4.155   3.088
  143TIP3   OH2  373   6.029   2.083   5.886
  143TIP3    H1  374   6.086   2.034   5.827
  143TIP3    H2  375   5.942   2.078   5.845
  144TIP3   OH2  376   0.464   5.914   2.372
  144TIP3    H1  377   0.498   5.893   2.459
  144TIP3    H2  378   0.400   5.984   2.387
  145TIP3   OH2  379   0.198   5.446   4.646
  145TIP3    H1  380   0.122   5.425   4.592
  145TIP3    H2  381   0.172   5.523   4.696
  146TIP3   OH2  382   7.047   4.142   2.435
  146TIP3    H1  383   7.105   4.218   2.433
  146TIP3    H2  384   6.965   4.175   2.472
  147TIP3   OH2  385   1.157   2.856   2.996
  147TIP3    H1  386   1.242   2.897   3.009
  147TIP3    H2  387   1.144   2.856   2.901
  148TIP3   OH2  388   7.418   3.532   2.676
  148TIP3    H1  389   7.436   3.549   2.768
  148TIP3    H2  390   7.464   3.450   2.657
  149TIP3   OH2  391   7.163   1.620   6.140
  149TIP3    H1  392   7.136   1.625   6.232
  149TIP3    H2  393   7.113   1.547   6.104
  150TIP3   OH2  394   5.638   6.367   2.855
  150TIP3    H1  395   5.684   6.353   2.938
  150TIP3    H2  396   5.549   6.391   2.881
  151TIP3   OH2  397   0.110   5.005   4.316
  151TIP3    H1  398   0.182   4.942   4.312
  151TIP3    H2  399   0.124   5.053   4.397
  152TIP3   OH2  400   1.016   6.336   5.556
  152TIP3    H1  401   0.924   6.314   5.540
  152TIP3    H2  402   1.013   6.408   5.618
  153TIP3   OH2  403   6.713   5.440   3.099
  153TIP3    H1  404   6.671   5.443   3.013
  153TIP3    H2  405   6.661   5.501   3.153
  154TIP3   OH2  406   5.239   6.999   4.321
  154TIP3    H1  407   5.226   6.918   4.273
  154TIP3    H2  408   5.264   6.971   4.409
  155TIP3   OH2  409   5.537   6.430   0.294
  155TIP3    H1  410   5.491   6.423   0.378
  155TIP3    H2  411   5.486   6.374   0.235
  156TIP3   OH2  412   1.803   4.154   3.389
  156TIP3    H1  413   1.778   4.061   3.392
  156TIP3    H2  414   1.746   4.192   3.322
  157TIP3   OH2  415   0.756   2.902   0.777
  157TIP3    H1  416   0.738   2.808   0.775
  157TIP3    H2  417   0.695   2.936   0.843
  158TIP3   OH2  418   3.359   0.685   1.413
  158TIP3    H1  419   3.354   0.620   1.483
  158TIP3    H2  420   3.448   0.677   1.379
  159TIP3   OH2  421   5.166   7.220   1.440
  159TIP3    H1  422   5.126   7.135   1.420
  159TIP3    H2  423   5.199   7.251   1.356
  160TIP3   OH2  424   3.415   3.825   1.353
  160TIP3    H1  425   3.397   3.731   1.362
  160TIP3    H2  426   3.467   3.847   1.431
  161TIP3   OH2  427   2.982   0.550   6.430
  161TIP3    H1  428   2.929   0.626   6.406
  161TIP3    H2  429   2.956   0.529   6.519
  162TIP3   OH2  430   2.601   6.898   6.701
  162TIP3    H1  431   2.512   6.869   6.721
  162TIP3    H2  432   2.649   6.817   6.686
  163TIP3   OH2  433   0.392   1.503   3.015
  163TIP3    H1  434   0.390   1.583   3.068
  163TIP3    H2  435   0.359   1.531   2.929
  164TIP3   OH2  436   0.283   6.641   0.060
  164TIP3    H1  437   0.293   6.567   0.001
  164TIP3    H2  438   0.322   6.715   0.013
  165TIP3   OH2  439   5.382   3.515   4.532
  165TIP3    H1  440   5.364   3.422   4.544
  165TIP3    H2  441   5.408   3.522   4.440
  166TIP3   OH2  442   6.255   7.398   0.304
  166TIP3    H1  443   6.268   7.419   0.397
  166TIP3    H2  444   6.217   7.310   0.305
  167TIP3   OH2  445   7.404   2.379   4.970
  167TIP3    H1  446   7.433   2.434   4.897
  167TIP3    H2  447   7.477   2.318   4.983
  168TIP3   OH2  448   7.545   6.390   1.876
  168TIP3    H1  449   7.505   6.450   1.813
  168TIP3    H2  450   7.627   6.362   1.835
  169TIP3   OH2  451   5.795   2.408   3.320
  169TIP3    H1  452   5.754   2.468   3.259
  169TIP3    H2  453   5.889   2.417   3.303
  170TIP3   OH2  454   4.261   0.388   0.670
  170TIP3    H1  455   4.257   0.292   0.670
  170TIP3    H2  456   4.343   0.409   0.626
  171TIP3   OH2  457   3.409   4.145   6.702
  171TIP3    H1  458   3.458   4.227   6.689
  171TIP3    H2  459   3.476   4.080   6.720
  172TIP3   OH2  460   5.248   1.187   2.350
  172TIP3    H1  461   5.257   1.092   2.361
  172TIP3    H2  462   5.272   1.203   2.259
  173TIP3   OH2  463   3.034   4.745   4.546
  173TIP3    H1  464   2.983   4.825   4.558
  173TIP3    H2  465   2.983   4.677   4.590
  174TIP3   OH2  466   7.357   4.440   3.204
  174TIP3    H1  467   7.388   4.493   3.277
  174TIP3    H2  468   7.286   4.491   3.164
  175TIP3   OH2  469   3.608   6.302   5.153
  175TIP3    H1  470   3.623   6.226   5.096
  175TIP3    H2  471   3.529   6.280   5.203
  176TIP3   OH2  472   4.403   4.447   3.517
  176TIP3    H1  473   4.433   4.358   3.499
  176TIP3    H2  474   4.464   4.482   3.581
  177TIP3   OH2  475   1.077   7.147   4.203
  177TIP3    H1  476   1.075   7.184   4.291
  177TIP3    H2  477   1.016   7.199   4.152
  178TIP3   OH2  478   7.170   0.636   2.201
  178TIP3    H1  479   7.122   0.671   2.276
  178TIP3    H2  480   7.104   0.594   2.147
  179TIP3   OH2  481   0.194   5.938   4.028
  179TIP3    H1  482   0.201   5.843   4.021
  179TIP3    H2  483   0.274   5.965   4.074
  180TIP3   OH2  484   8.196   0.675   4.891
  180TIP3    H1  485   8.143   0.595   4.881
  180TIP3    H2  486   8.282   0.651   4.856
  181TIP3   OH2  487   7.722   7.584   2.242
  181TIP3    H1  488   7.661   7.602   2.171
  181TIP3    H2  489   7.718   7.662   2.297
  182TIP3   OH2  490   7.645   6.686   0.878
  182TIP3    H1  491   7.647   6.761   0.818
  182TIP3    H2  492   7.560   6.645   0.861
  183TIP3   OH2  493   6.350   0.744   0.711
  183TIP3    H1  494   6.268   0.790   0.730
  183TIP3    H2  495   6.354   0.674   0.776
  184TIP3   OH2  496   0.155   7.108   2.028
  184TIP3    H1  497   0.189   7.076   1.944
  184TIP3    H2  498   0.155   7.030   2.085
  185TIP3   OH2  499   4.280   3.558   0.532
  185TIP3    H1  500   4.285   3.617   0.607
  185TIP3    H2  501   4.361   3.506   0.537
  186TIP3   OH2  502   4.001   7.423   5.559
  186TIP3    H1  503   3.952   7.370   5.621
  186TIP3    H2  504   4.030   7.498   5.611
  187TIP3   OH2  505   3.280   5.967   5.125
  187TIP3    H1  506   3.194   5.929   5.109
  187TIP3    H2  507   3.342   5.903   5.091
  188TIP3   OH2  508   3.254   3.029   5.816
  188TIP3    H1  509   3.197   3.094   5.857
  188TIP3    H2  510   3.228   2.946   5.856
  189TIP3   OH2  511   4.992   3.305   1.214
  189TIP3    H1  512   5.045   3.326   1.136
  189TIP3    H2  513   5.019   3.370   1.279
  190TIP3   OH2  514   4.199   6.376   0.992
  190TIP3    H1  515   4.128   6.318   1.019
  190TIP3    H2  516   4.156   6.456   0.964
  191TIP3   OH2  517   7.425   5.928   0.848
  191TIP3    H1  518   7.448   5.954   0.937
  191TIP3    H2  519   7.488   5.858   0.827
  192TIP3   OH2  520   4.669   5.035   6.377
  192TIP3    H1  521   4.765   5.030   6.375
  192TIP3    H2  522   4.647   5.039   6.470
  193TIP3   OH2  523   6.918   6.006   1.390
  193TIP3    H1  524   6.921   6.061   1.311
  193TIP3    H2  525   6.904   6.067   1.462
  194TIP3   OH2  526   5.486   4.056   3.732
  194TIP3    H1  527   5.544   3.988   3.699
  194TIP3    H2  528   5.465   4.028   3.821
  195TIP3   OH2  529   0.680   0.071   1.047
  195TIP3    H1  530   0.704   0.111   0.963
  195TIP3    H2  531   0.593   0.033   1.031
  196TIP3   OH2  532   1.711   2.585   1.005
  196TIP3    H1  533   1.735   2.492   1.010
  196TIP3    H2  534   1.744   2.623   1.086
  197TIP3   OH2  535   0.275   1.090   1.755
  197TIP3    H1  536   0.251   1.168   1.705
  197TIP3    H2  537   0.227   1.098   1.837
  198TIP3   OH2  538   6.746   6.970   2.356
  198TIP3    H1  539   6.733   7.005   2.444
  198TIP3    H2  540   6.667   6.919   2.339
  199TIP3   OH2  541   6.388   6.208   6.029
  199TIP3    H1  542   6.470   6.203   5.981
  199TIP3    H2  543   6.404   6.275   6.096
  200TIP3   OH2  544   4.330   3.450   4.271
  200TIP3    H1  545   4.337   3.541   4.299
  200TIP3    H2  546   4.388   3.443   4.195
  201TIP3   OH2  547   0.228   3.963   5.522
  201TIP3    H1  548   0.282   4.026   5.474
  201TIP3    H2  549   0.275   3.880   5.515
  202TIP3   OH2  550   7.896   7.290   4.708
  202TIP3    H1  551   7.806   7.261   4.722
  202TIP3    H2  552   7.901   7.311   4.615
  203TIP3   OH2  553   7.799   6.391   1.209
  203TIP3    H1  554   7.802   6.355   1.120
  203TIP3    H2  555   7.812   6.485   1.198
  204TIP3   OH2  556   4.812   3.955   3.143
  204TIP3    H1  557   4.738   4.008   3.115
  204TIP3    H2  558   4.818   3.886   3.077
  205TIP3   OH2  559   0.599   5.623   2.113
  205TIP3    H1  560   0.514   5.593   2.144
  205TIP3    H2  561   0.656   5.616   2.189
  206TIP3   OH2  562   4.384   4.361   5.638
  206TIP3    H1  563   4.471   4.381   5.603
  206TIP3    H2  564   4.325   4.423   5.594
  207TIP3   OH2  565   3.642   6.196   4.568
  207TIP3    H1  566   3.667   6.221   4.657
  207TIP3    H2  567   3.724   6.194   4.520
  208TIP3   OH2  568   6.654   0.980   3.054
  208TIP3    H1  569   6.606   1.057   3.083
  208TIP3    H2  570   6.712   1.012   2.986
  209TIP3   OH2  571   3.282   4.766   1.637
  209TIP3    H1  572   3.257   4.805   1.720
  209TIP3    H2  573   3.255   4.674   1.645
  210TIP3   OH2  574   7.267   2.050   5.181
  210TIP3    H1  575   7.211   2.108   5.233
  210TIP3    H2  576   7.330   2.108   5.139
  211TIP3   OH2  577   8.202   5.574   0.161
  211TIP3    H1  578   8.248   5.614   0.235
  211TIP3    H2  579   8.169   5.649   0.111
  212TIP3   OH2  580   0.946   7.366   0.995
  212TIP3    H1  581   1.018   7.331   0.943
  212TIP3    H2  582   0.918   7.444   0.947
  213TIP3   OH2  583   5.064   6.485   1.236
  213TIP3    H1  584   5.026   6.511   1.152
  213TIP3    H2  585   4.993   6.495   1.299
  214TIP3   OH2  586   2.816   5.213   0.367
  214TIP3    H1  587   2.802   5.136   0.312
  214TIP3    H2  588   2.741   5.269   0.351
  215TIP3   OH2  589   8.064   4.098   1.889
  215TIP3    H1  590   7.974   4.093   1.856
  215TIP3    H2  591   8.056   4.070   1.981
  216TIP3   OH2  592   2.127   4.287   3.266
  216TIP3    H1  593   2.183   4.246   3.200
  216TIP3    H2  594   2.123   4.223   3.337
  217TIP3   OH2  595   2.153   5.614   5.397
  217TIP3    H1  596   2.216   5.687   5.393
  217TIP3    H2  597   2.196   5.543   5.350
  218TIP3   OH2  598  -0.027   2.735   2.735
  218TIP3    H1  599   0.026   2.794   2.789
  218TIP3    H2  600   0.007   2.747   2.646
  219TIP3   OH2  601   4.094   4.461   2.622
  219TIP3    H1  602   4.021   4.420   2.670
  219TIP3    H2  603   4.138   4.515   2.688
  220TIP3   OH2  604   1.662   4.207   1.717
  220TIP3    H1  605   1.709   4.127   1.744
  220TIP3    H2  606   1.696   4.226   1.630
  221TIP3   OH2  607   6.191   1.241   1.374
  221TIP3    H1  608   6.267   1.184   1.381
  221TIP3    H2  609   6.118   1.187   1.406
  222TIP3   OH2  610   1.579   0.339   4.667
  222TIP3    H1  611   1.539   0.363   4.584
  222TIP3    H2  612   1.595   0.245   4.660
  223TIP3   OH2  613   1.110   0.362   4.911
  223TIP3    H1  614   1.048   0.289   4.907
  223TIP3    H2  615   1.139   0.364   5.002
  224TIP3   OH2  616   1.124   3.992   6.189
  224TIP3    H1  617   1.217   3.975   6.176
  224TIP3    H2  618   1.108   4.074   6.143
  225TIP3   OH2  619   5.405   2.768   3.378
  225TIP3    H1  620   5.381   2.795   3.467
  225TIP3    H2  621   5.321   2.754   3.334
  226TIP3   OH2  622   1.687   7.124   4.339
  226TIP3    H1  623   1.769   7.112   4.387
  226TIP3    H2  624   1.632   7.051   4.368
  227TIP3   OH2  625   2.780   3.516   0.555
  227TIP3    H1  626   2.745   3.587   0.501
  227TIP3    H2  627   2.849   3.477   0.502
  228TIP3   OH2  628   0.770   7.533   3.660
  228TIP3    H1  629   0.694   7.591   3.658
  228TIP3    H2  630   0.748   7.467   3.726
  229TIP3   OH2  631   7.427   1.792   4.210
  229TIP3    H1  632   7.517   1.792   4.179
  229TIP3    H2  633   7.434   1.781   4.305
  230TIP3   OH2  634   7.293   3.725   2.511
  230TIP3    H1  635   7.369   3.678   2.545
  230TIP3    H2  636   7.240   3.745   2.589
  231TIP3   OH2  637   5.131   4.618   4.748
  231TIP3    H1  638   5.108   4.528   4.772
  231TIP3    H2  639   5.055   4.670   4.776
  232TIP3   OH2  640   3.990   4.141   1.600
  232TIP3    H1  641   4.062   4.093   1.641
  232TIP3    H2  642   3.912   4.090   1.622
  233TIP3   OH2  643   2.519   2.268   6.446
  233TIP3    H1  644   2.552   2.268   6.536
  233TIP3    H2  645   2.597   2.255   6.392
  234TIP3   OH2  646   3.528   0.066   3.856
  234TIP3    H1  647   3.494   0.078   3.944
  234TIP3    H2  648   3.622   0.081   3.865
  235TIP3   OH2  649   3.365   2.864   0.873
  235TIP3    H1  650   3.344   2.775   0.902
  235TIP3    H2  651   3.285   2.895   0.832
  236TIP3   OH2  652   4.476   2.244   3.975
  236TIP3    H1  653   4.445   2.201   4.054
  236TIP3    H2  654   4.401   2.294   3.944
  237TIP3   OH2  655   4.047   5.687   4.288
  237TIP3    H1  656   3.971   5.705   4.233
  237TIP3    H2  657   4.017   5.702   4.377
  238TIP3   OH2  658   2.458   5.473   3.774
  238TIP3    H1  659   2.531   5.446   3.719
  238TIP3    H2  660   2.465   5.419   3.852
  239TIP3   OH2  661   5.578   6.847   4.205
  239TIP3    H1  662   5.654   6.789   4.202
  239TIP3    H2  663   5.599   6.912   4.271
  240TIP3   OH2  664   1.778   2.722   4.703
  240TIP3    H1  665   1.788   2.799   4.647
  240TIP3    H2  666   1.714   2.749   4.769
  241TIP3   OH2  667   6.019   1.394   6.208
  241TIP3    H1  668   5.992   1.466   6.151
  241TIP3    H2  669   6.098   1.426   6.251
  242TIP3   OH2  670   4.290   6.592   3.657
  242TIP3    H1  671   4.272   6.625   3.569
  242TIP3    H2  672   4.364   6.533   3.646
  243TIP3   OH2  673   4.083   6.524   0.703
  243TIP3    H1  674   3.994   6.528   0.740
  243TIP3    H2  675   4.088   6.438   0.663
  244TIP3   OH2  676   2.169   1.994   2.055
  244TIP3    H1  677   2.096   2.008   2.115
  244TIP3    H2  678   2.129   1.986   1.969
  245TIP3   OH2  679   5.482   4.886   0.568
  245TIP3    H1  680   5.439   4.940   0.502
  245TIP3    H2  681   5.560   4.935   0.592
  246TIP3   OH2  682   5.288   6.111   3.928
  246TIP3    H1  683   5.278   6.021   3.898
  246TIP3    H2  684   5.336   6.103   4.010
  247TIP3   OH2  685   2.710   6.083   6.707
  247TIP3    H1  686   2.740   6.061   6.619
  247TIP3    H2  687   2.671   6.170   6.699
  248TIP3   OH2  688   2.310   2.412   3.127
  248TIP3    H1  689   2.258   2.489   3.150
  248TIP3    H2  690   2.359   2.437   3.049
  249TIP3   OH2  691   1.832   1.519   6.433
  249TIP3    H1  692   1.801   1.570   6.358
  249TIP3    H2  693   1.796   1.431   6.419
  250TIP3   OH2  694   4.223   0.902   5.895
  250TIP3    H1  695   4.185   0.827   5.941
  250TIP3    H2  696   4.232   0.970   5.962
  251TIP3   OH2  697   2.866   3.350   3.847
  251TIP3    H1  698   2.913   3.426   3.882
  251TIP3    H2  699   2.789   3.388   3.805
  252TIP3   OH2  700   0.325   4.266   2.739
  252TIP3    H1  701   0.338   4.308   2.824
  252TIP3    H2  702   0.233   4.240   2.738
  253TIP3   OH2  703   2.706   2.875   1.070
  253TIP3    H1  704   2.626   2.881   1.017
  253TIP3    H2  705   2.741   2.788   1.051
  254TIP3   OH2  706   3.768   4.509   5.149
  254TIP3    H1  707   3.784   4.448   5.221
  254TIP3    H2  708   3.676   4.495   5.125
  255TIP3   OH2  709   5.457   1.915   3.074
  255TIP3    H1  710   5.425   1.908   3.163
  255TIP3    H2  711   5.499   2.001   3.070
  256TIP3   OH2  712   7.054   4.580   2.893
  256TIP3    H1  713   7.142   4.558   2.925
  256TIP3    H2  714   7.059   4.674   2.875
  257TIP3   OH2  715   1.891   2.239   0.705
  257TIP3    H1  716   1.849   2.323   0.684
  257TIP3    H2  717   1.850   2.177   0.645
  258TIP3   OH2  718   6.331   7.551   6.383
  258TIP3    H1  719   6.337   7.461   6.352
  258TIP3    H2  720   6.421   7.576   6.403
  259TIP3   OH2  721   4.202   7.647   5.940
  259TIP3    H1  722   4.180   7.566   5.986
  259TIP3    H2  723   4.192   7.625   5.848
  260TIP3   OH2  724   6.475   4.776   0.980
  260TIP3    H1  725   6.472   4.845   0.914
  260TIP3    H2  726   6.406   4.799   1.042
  261TIP3   OH2  727   6.652   4.171   3.707
  261TIP3    H1  728   6.641   4.191   3.800
  261TIP3    H2  729   6.739   4.205   3.686
  262TIP3   OH2  730   4.654   4.383   1.013
  262TIP3    H1  731   4.701   4.439   1.074
  262TIP3    H2  732   4.606   4.443   0.956
  263TIP3   OH2  733   4.560   0.619   2.201
  263TIP3    H1  734   4.616   0.631   2.124
  263TIP3    H2  735   4.575   0.697   2.254
  264TIP3   OH2  736   6.257   5.625   1.239
  264TIP3    H1  737   6.274   5.575   1.319
  264TIP3    H2  738   6.308   5.579   1.172
  265TIP3   OH2  739   0.379   4.685   0.140
  265TIP3    H1  740   0.381   4.780   0.148
  265TIP3    H2  741   0.411   4.668   0.051
  266TIP3   OH2  742   5.474   4.691   0.798
  266TIP3    H1  743   5.390   4.709   0.840
  266TIP3    H2  744   5.475   4.748   0.721
  267TIP3   OH2  745   5.353   7.032   2.887
  267TIP3    H1  746   5.324   7.062   2.973
  267TIP3    H2  747   5.316   7.095   2.825
  268TIP3   OH2  748   6.935   2.821   5.391
  268TIP3    H1  749   6.856   2.771   5.368
  268TIP3    H2  750   6.984   2.762   5.448
  269TIP3   OH2  751   8.129  -0.016   3.946
  269TIP3    H1  752   8.210  -0.067   3.954
  269TIP3    H2  753   8.150   0.052   3.882
  270TIP3   OH2  754   7.599   3.253   3.742
  270TIP3    H1  755   7.530   3.272   3.679
  270TIP3    H2  756   7.676   3.233   3.689
  271TIP3   OH2  757   1.809   6.864   5.835
  271TIP3    H1  758   1.782   6.784   5.789
  271TIP3    H2  759   1.904   6.866   5.825
  272TIP3   OH2  760   7.989   4.184   0.207
  272TIP3    H1  761   7.977   4.264   0.156
  272TIP3    H2  762   7.991   4.114   0.141
  273TIP3   OH2  763   2.160   5.728   3.832
  273TIP3    H1  764   2.121   5.812   3.807
  273TIP3    H2  765   2.250   5.733   3.800
  274TIP3   OH2  766   0.497   2.352   5.077
  274TIP3    H1  767   0.478   2.433   5.124
  274TIP3    H2  768   0.559   2.305   5.133
  275TIP3   OH2  769   4.665   7.390   4.217
  275TIP3    H1  770   4.689   7.307   4.176
  275TIP3    H2  771   4.730   7.401   4.287
  276TIP3   OH2  772   4.640   6.718   4.217
  276TIP3    H1  773   4.697   6.739   4.291
  276TIP3    H2  774   4.599   6.635   4.241
  277TIP3   OH2  775   3.517   1.314   5.528
  277TIP3    H1  776   3.513   1.244   5.463
  277TIP3    H2  777   3.428   1.317   5.565
  278TIP3   OH2  778   7.732   7.009   1.666
  278TIP3    H1  779   7.654   7.003   1.721
  278TIP3    H2  780   7.791   7.066   1.714
  279TIP3   OH2  781   7.706   7.213   5.342
  279TIP3    H1  782   7.779   7.180   5.395
  279TIP3    H2  783   7.723   7.180   5.254
  280TIP3   OH2  784   3.644   5.474   3.418
  280TIP3    H1  785   3.552   5.476   3.393
  280TIP3    H2  786   3.674   5.387   3.391
  281TIP3   OH2  787   4.421   0.811   3.890
  281TIP3    H1  788   4.373   0.801   3.972
  281TIP3    H2  789   4.364   0.772   3.824
  282TIP3   OH2  790   0.043   2.070   1.443
  282TIP3    H1  791   0.090   2.141   1.487
  282TIP3    H2  792  -0.042   2.108   1.422
  283TIP3   OH2  793   5.726   4.503   1.971
  283TIP3    H1  794   5.660   4.433   1.978
  283TIP3    H2  795   5.744   4.528   2.061
  284TIP3   OH2  796   1.471   0.849   5.773
  284TIP3    H1  797   1.418   0.895   5.708
  284TIP3    H2  798   1.459   0.756   5.752
  285TIP3   OH2  799   5.477   0.152   4.968
  285TIP3    H1  800   5.537   0.082   4.996
  285TIP3    H2  801   5.391   0.122   4.997
  286TIP3   OH2  802   3.184   2.208   5.217
  286TIP3    H1  803   3.180   2.120   5.253
  286TIP3    H2  804   3.256   2.250   5.264
  287TIP3   OH2  805   1.271   7.478   5.336
  287TIP3    H1  806   1.335   7.464   5.406
  287TIP3    H2  807   1.298   7.416   5.267
  288TIP3   OH2  808   5.215   5.741   1.110
  288TIP3    H1  809   5.157   5.796   1.162
  288TIP3    H2  810   5.229   5.663   1.164
  289TIP3   OH2  811   1.780   5.684   5.008
  289TIP3    H1  812   1.694   5.643   4.996
  289TIP3    H2  813   1.820   5.634   5.079
  290TIP3   OH2  814   7.759   2.237   2.426
  290TIP3    H1  815   7.822   2.165   2.439
  290TIP3    H2  816   7.692   2.222   2.493
  291TIP3   OH2  817   0.540   5.042   3.518
  291TIP3    H1  818   0.566   5.089   3.439
  291TIP3    H2  819   0.448   5.066   3.530
  292TIP3   OH2  820   0.560   0.262   0.569
  292TIP3    H1  821   0.633   0.247   0.509
  292TIP3    H2  822   0.482   0.264   0.513
  293TIP3   OH2  823   0.510   2.216   5.374
  293TIP3    H1  824   0.525   2.160   5.450
  293TIP3    H2  825   0.556   2.172   5.302
  294TIP3   OH2  826   2.285   7.612   4.942
  294TIP3    H1  827   2.278   7.646   4.853
  294TIP3    H2  828   2.226   7.667   4.994
  295TIP3   OH2  829   2.239   5.094   3.571
  295TIP3    H1  830   2.221   5.002   3.592
  295TIP3    H2  831   2.202   5.143   3.643
  296TIP3   OH2  832   3.948   2.593   1.876
  296TIP3    H1  833   3.890   2.666   1.899
  296TIP3    H2  834   3.986   2.619   1.792
  297TIP3   OH2  835   7.456   6.575   1.697
  297TIP3    H1  836   7.405   6.589   1.618
  297TIP3    H2  837   7.547   6.583   1.669
  298TIP3   OH2  838   8.052   2.113   1.443
  298TIP3    H1  839   8.068   2.124   1.536
  298TIP3    H2  840   8.048   2.018   1.430
  299TIP3   OH2  841   0.676   4.994   4.580
  299TIP3    H1  842   0.677   4.955   4.667
  299TIP3    H2  843   0.662   4.920   4.521
  300TIP3   OH2  844   2.049   3.650   0.864
  300TIP3    H1  845   2.036   3.733   0.818
  300TIP3    H2  846   1.999   3.659   0.945
  301TIP3   OH2  847   2.620   7.777   1.028
  301TIP3    H1  848   2.632   7.823   1.112
  301TIP3    H2  849   2.540   7.726   1.040
  302TIP3   OH2  850   5.811   4.823   2.300
  302TIP3    H1  851   5.769   4.846   2.383
  302TIP3    H2  852   5.893   4.871   2.300
  303TIP3   OH2  853   4.127   3.856   3.624
  303TIP3    H1  854   4.055   3.794   3.635
  303TIP3    H2  855   4.111   3.923   3.691
  304TIP3   OH2  856   5.619   5.160   4.375
  304TIP3    H1  857   5.656   5.072   4.384
  304TIP3    H2  858   5.687   5.218   4.410
  305TIP3   OH2  859   1.986   4.999   4.039
  305TIP3    H1  860   1.999   4.911   4.005
  305TIP3    H2  861   2.027   4.998   4.125
  306TIP3   OH2  862   3.810   3.437   5.719
  306TIP3    H1  863   3.763   3.511   5.680
  306TIP3    H2  864   3.814   3.458   5.812
  307TIP3   OH2  865   2.377   6.850   5.732
  307TIP3    H1  866   2.420   6.932   5.706
  307TIP3    H2  867   2.449   6.787   5.740
  308TIP3   OH2  868   6.194   7.570   5.894
  308TIP3    H1  869   6.234   7.483   5.898
  308TIP3    H2  870   6.231   7.617   5.968
  309TIP3   OH2  871   1.619   5.501   5.414
  309TIP3    H1  872   1.671   5.550   5.478
  309TIP3    H2  873   1.566   5.442   5.467
  310TIP3   OH2  874   1.425   7.481   1.652
  310TIP3    H1  875   1.498   7.482   1.713
  310TIP3    H2  876   1.348   7.495   1.706
  311TIP3   OH2  877   2.791   2.327   0.548
  311TIP3    H1  878   2.733   2.279   0.607
  311TIP3    H2  879   2.843   2.259   0.504
  312TIP3   OH2  880   7.174   4.226   2.879
  312TIP3    H1  881   7.141   4.137   2.888
  312TIP3    H2  882   7.234   4.223   2.805
  313TIP3   OH2  883   3.502   1.813   3.074
  313TIP3    H1  884   3.435   1.757   3.034
  313TIP3    H2  885   3.506   1.785   3.165
  314TIP3   OH2  886   0.653   6.740   0.326
  314TIP3    H1  887   0.680   6.681   0.254
  314TIP3    H2  888   0.588   6.798   0.286
  315TIP3   OH2  889   7.776   5.419   5.197
  315TIP3    H1  890   7.755   5.399   5.105
  315TIP3    H2  891   7.712   5.368   5.247
  316TIP3   OH2  892   5.925   5.040   4.800
  316TIP3    H1  893   6.014   5.030   4.834
  316TIP3    H2  894   5.937   5.061   4.707
  317TIP3   OH2  895   1.132   5.288   5.620
  317TIP3    H1  896   1.047   5.332   5.618
  317TIP3    H2  897   1.189   5.349   5.666
  318TIP3   OH2  898   0.766   3.279   5.968
  318TIP3    H1  899   0.748   3.186   5.978
  318TIP3    H2  900   0.861   3.286   5.980
  319TIP3   OH2  901   6.860   0.414   5.756
  319TIP3    H1  902   6.771   0.381   5.767
  319TIP3    H2  903   6.915   0.335   5.761
  320TIP3   OH2  904   3.637   0.350   0.981
  320TIP3    H1  905   3.564   0.360   0.919
  320TIP3    H2  906   3.673   0.438   0.990
  321TIP3   OH2  907   1.935   7.474   3.092
  321TIP3    H1  908   1.901   7.438   3.173
  321TIP3    H2  909   1.858   7.486   3.036
  322TIP3   OH2  910   5.534   0.692   1.816
  322TIP3    H1  911   5.618   0.721   1.852
  322TIP3    H2  912   5.542   0.708   1.722
  323TIP3   OH2  913   4.778   1.600   1.000
  323TIP3    H1  914   4.822   1.619   0.917
  323TIP3    H2  915   4.693   1.564   0.974
  324TIP3   OH2  916   6.529   2.900   2.070
  324TIP3    H1  917   6.456   2.889   2.009
  324TIP3    H2  918   6.500   2.970   2.129
  325TIP3   OH2  919   5.888   0.937   5.832
  325TIP3    H1  920   5.905   1.029   5.853
  325TIP3    H2  921   5.870   0.895   5.916
  326TIP3   OH2  922   0.119   6.358   5.683
  326TIP3    H1  923   0.085   6.404   5.606
  326TIP3    H2  924   0.177   6.291   5.646
  327TIP3   OH2  925   6.383   7.373   0.071
  327TIP3    H1  926   6.343   7.396   0.155
  327TIP3    H2  927   6.309   7.356   0.013
  328TIP3   OH2  928   2.571   0.749   2.404
  328TIP3    H1  929   2.604   0.835   2.379
  328TIP3    H2  930   2.552   0.706   2.321
  329TIP3   OH2  931   7.131   7.508   5.617
  329TIP3    H1  932   7.129   7.412   5.616
  329TIP3    H2  933   7.153   7.530   5.707
  330TIP3   OH2  934   4.423   7.096   5.954
  330TIP3    H1  935   4.516   7.076   5.964
  330TIP3    H2  936   4.422   7.186   5.921
  331TIP3   OH2  937   1.222   5.217   3.193
  331TIP3    H1  938   1.169   5.180   3.123
  331TIP3    H2  939   1.308   5.231   3.153
  332TIP3   OH2  940   3.463   2.095   3.477
  332TIP3    H1  941   3.481   2.124   3.567
  332TIP3    H2  942   3.388   2.147   3.450
  333TIP3   OH2  943   3.851   1.314   4.533
  333TIP3    H1  944   3.933   1.268   4.517
  333TIP3    H2  945   3.874   1.386   4.591
  334TIP3   OH2  946   3.714   3.794   0.791
  334TIP3    H1  947   3.699   3.712   0.838
  334TIP3    H2  948   3.655   3.790   0.716
  335TIP3   OH2  949   2.443   5.163   5.164
  335TIP3    H1  950   2.450   5.069   5.182
  335TIP3    H2  951   2.530   5.187   5.131
  336TIP3   OH2  952   1.151   6.004   0.487
  336TIP3    H1  953   1.182   5.963   0.568
  336TIP3    H2  954   1.124   6.092   0.513
  337TIP3   OH2  955   4.489   0.308   2.492
  337TIP3    H1  956   4.405   0.352   2.482
  337TIP3    H2  957   4.545   0.373   2.535
  338TIP3   OH2  958   4.449   2.346   0.085
  338TIP3    H1  959   4.458   2.251   0.084
  338TIP3    H2  960   4.358   2.362   0.058
  339TIP3   OH2  961   6.845   3.066   4.884
  339TIP3    H1  962   6.871   3.113   4.805
  339TIP3    H2  963   6.831   2.976   4.856
  340TIP3   OH2  964   5.031   5.507   3.991
  340TIP3    H1  965   5.017   5.442   3.922
  340TIP3    H2  966   4.944   5.523   4.027
  341TIP3   OH2  967   6.711   4.904   0.934
  341TIP3    H1  968   6.742   4.912   1.024
  341TIP3    H2  969   6.642   4.838   0.939
  342TIP3   OH2  970   4.400   7.675   1.343
  342TIP3    H1  971   4.433   7.665   1.432
  342TIP3    H2  972   4.322   7.619   1.340
  343TIP3   OH2  973   3.518   3.169   0.228
  343TIP3    H1  974   3.443   3.134   0.276
  343TIP3    H2  975   3.559   3.230   0.289
  344TIP3   OH2  976   1.631   5.904   2.054
  344TIP3    H1  977   1.625   5.834   1.989
  344TIP3    H2  978   1.611   5.984   2.006
  345TIP3   OH2  979   1.537   5.343   6.025
  345TIP3    H1  980   1.623   5.327   6.064
  345TIP3    H2  981   1.479   5.282   6.070
  346TIP3   OH2  982   3.169   0.237   5.862
  346TIP3    H1  983   3.201   0.221   5.951
  346TIP3    H2  984   3.248   0.241   5.808
  347TIP3   OH2  985   3.223   4.051   4.514
  347TIP3    H1  986   3.295   4.011   4.465
  347TIP3    H2  987   3.154   3.984   4.515
  348TIP3   OH2  988   3.728   5.818   2.762
  348TIP3    H1  989   3.705   5.813   2.855
  348TIP3    H2  990   3.679   5.747   2.721
  349TIP3   OH2  991   5.523   2.288   2.894
  349TIP3    H1  992   5.573   2.360   2.931
  349TIP3    H2  993   5.434   2.322   2.884
  350TIP3   OH2  994   3.841   6.960   2.021
  350TIP3    H1  995   3.864   6.900   2.092
  350TIP3    H2  996   3.748   6.945   2.006
  351TIP3   OH2  997   6.226   7.264   2.877
  351TIP3    H1  998   6.191   7.176   2.886
  351TIP3    H2  999   6.162   7.320   2.921
  352TIP3   OH2 1000   1.228   2.596   2.559
  352TIP3    H1 1001   1.259   2.570   2.646
  352TIP3    H2 1002   1.216   2.513   2.513
  353TIP3   OH2 1003   7.526   2.889   5.284
  353TIP3    H1 1004   7.436   2.864   5.266
  353TIP3    H2 1005   7.522   2.983   5.301
  354TIP3   OH2 1006   8.182   1.676   5.070
  354TIP3    H1 1007   8.239   1.739   5.113
  354TIP3    H2 1008   8.241   1.626   5.013
  355TIP3   OH2 1009   7.853   7.342   3.686
  355TIP3    H1 1010   7.774   7.327   3.739
  355TIP3    H2 1011   7.871   7.257   3.646
  356TIP3   OH2 1012   0.097   1.316   0.889
  356TIP3    H1 1013   0.144   1.394   0.860
  356TIP3    H2 1014   0.132   1.245   0.835
  357TIP3   OH2 1015   0.915   7.611   1.282
  357TIP3    H1 1016   0.959   7.645   1.204
  357TIP3    H2 1017   0.972   7.639   1.355
  358TIP3   OH2 1018   0.858   4.065   6.500
  358TIP3    H1 1019   0.789   4.020   6.548
  358TIP3    H2 1020   0.830   4.062   6.408
  359TIP3   OH2 1021   3.982   7.546   3.025
  359TIP3    H1 1022   3.908   7.503   2.983
  359TIP3    H2 1023   3.943   7.608   3.085
  360TIP3   OH2 1024   1.150   7.167   2.493
  360TIP3    H1 1025   1.056   7.179   2.508
  360TIP3    H2 1026   1.161   7.072   2.483
  361TIP3   OH2 1027   3.103   4.576   2.668
  361TIP3    H1 1028   3.180   4.563   2.613
  361TIP3    H2 1029   3.042   4.625   2.612
  362TIP3   OH2 1030   2.429   4.358   1.123
  362TIP3    H1 1031   2.426   4.385   1.031
  362TIP3    H2 1032   2.349   4.395   1.161
  363TIP3   OH2 1033   8.156   7.420   1.726
  363TIP3    H1 1034   8.207   7.462   1.657
  363TIP3    H2 1035   8.077   7.475   1.733
  364TIP3   OH2 1036   5.916   4.527   3.998
  364TIP3    H1 1037   5.877   4.506   4.083
  364TIP3    H2 1038   5.893   4.452   3.943
  365TIP3   OH2 1039   7.318   6.660   3.846
  365TIP3    H1 1040   7.396   6.715   3.855
  365TIP3    H2 1041   7.276   6.666   3.932
  366TIP3   OH2 1042   2.074   7.794   4.278
  366TIP3    H1 1043   2.029   7.712   4.302
  366TIP3    H2 1044   2.010   7.842   4.225
  367TIP3   OH2 1045   3.581   6.173   5.506
  367TIP3    H1 1046   3.530   6.201   5.582
  367TIP3    H2 1047   3.596   6.254   5.457
  368TIP3   OH2 1048   3.969   6.066   6.636
  368TIP3    H1 1049   4.013   6.076   6.552
  368TIP3    H2 1050   3.969   6.154   6.674
  369TIP3   OH2 1051   0.035   5.109   0.406
  369TIP3    H1 1052   0.036   5.030   0.461
  369TIP3    H2 1053   0.073   5.177   0.461
  370TIP3   OH2 1054   1.362   4.686   4.002
  370TIP3    H1 1055   1.344   4.747   4.073
  370TIP3    H2 1056   1.414   4.737   3.939
  371TIP3   OH2 1057   7.712   2.949   4.744
  371TIP3    H1 1058   7.806   2.938   4.758
  371TIP3    H2 1059   7.682   3.003   4.817
  372TIP3   OH2 1060   1.859   2.386   4.379
  372TIP3    H1 1061   1.772   2.406   4.344
  372TIP3    H2 1062   1.909   2.467   4.365
  373TIP3   OH2 1063   4.105   1.410   6.628
  373TIP3    H1 1064   4.036   1.364   6.676
  373TIP3    H2 1065   4.176   1.419   6.692
  374TIP3   OH2 1066   4.595   4.082   4.506
  374TIP3    H1 1067   4.567   4.063   4.595
  374TIP3    H2 1068   4.646   4.162   4.513
  375TIP3   OH2 1069   4.773   1.578   6.331
  375TIP3    H1 1070   4.772   1.530   6.414
  375TIP3    H2 1071   4.850   1.544   6.285
  376TIP3   OH2 1072   8.047   3.306   4.678
  376TIP3    H1 1073   8.058   3.212   4.669
  376TIP3    H2 1074   8.135   3.339   4.696
  377TIP3   OH2 1075   0.526   7.050   2.961
  377TIP3    H1 1076   0.585   7.105   3.013
  377TIP3    H2 1077   0.578   7.025   2.884
  378TIP3   OH2 1078   3.291   0.487   1.224
  378TIP3    H1 1079   3.222   0.478   1.158
  378TIP3    H2 1080   3.253   0.543   1.292
  379TIP3   OH2 1081   7.705   2.499   0.786
  379TIP3    H1 1082   7.653   2.509   0.707
  379TIP3    H2 1083   7.789   2.464   0.755
  380TIP3   OH2 1084   0.483   7.831   4.523
  380TIP3    H1 1085   0.426   7.769   4.569
  380TIP3    H2 1086   0.544   7.862   4.590
  381TIP3   OH2 1087   1.232   4.778   4.633
  381TIP3    H1 1088   1.157   4.836   4.618
  381TIP3    H2 1089   1.199   4.712   4.694
  382TIP3   OH2 1090   6.397   3.276   3.453
  382TIP3    H1 1091   6.416   3.184   3.470
  382TIP3    H2 1092   6.411   3.320   3.537
  383TIP3   OH2 1093   3.861   3.577   5.977
  383TIP3    H1 1094   3.861   3.673   5.975
  383TIP3    H2 1095   3.788   3.555   6.034
  384TIP3   OH2 1096   6.101   5.941   5.063
  384TIP3    H1 1097   6.089   5.846   5.061
  384TIP3    H2 1098   6.178   5.955   5.119
  385TIP3   OH2 1099   1.914   4.135   0.407
  385TIP3    H1 1100   1.920   4.115   0.500
  385TIP3    H2 1101   1.989   4.089   0.368
  386TIP3   OH2 1102   4.616   2.245   0.365
  386TIP3    H1 1103   4.687   2.185   0.345
  386TIP3    H2 1104   4.639   2.283   0.450
  387TIP3   OH2 1105   7.609   0.361   2.177
  387TIP3    H1 1106   7.675   0.365   2.107
  387TIP3    H2 1107   7.651   0.403   2.252
  388TIP3   OH2 1108   5.243   4.438   3.417
  388TIP3    H1 1109   5.256   4.471   3.328
  388TIP3    H2 1110   5.330   4.408   3.444
  389TIP3   OH2 1111   5.692   6.389   0.531
  389TIP3    H1 1112   5.720   6.447   0.459
  389TIP3    H2 1113   5.685   6.447   0.607
  390TIP3   OH2 1114   7.642   5.139   5.700
  390TIP3    H1 1115   7.708   5.142   5.630
  390TIP3    H2 1116   7.690   5.106   5.776
  391TIP3   OH2 1117   3.535   3.000   6.251
  391TIP3    H1 1118   3.522   2.908   6.273
  391TIP3    H2 1119   3.540   3.045   6.335
  392TIP3   OH2 1120   2.052   2.869   1.841
  392TIP3    H1 1121   2.091   2.793   1.884
  392TIP3    H2 1122   1.961   2.869   1.872
  393TIP3   OH2 1123   3.273   1.373   3.397
  393TIP3    H1 1124   3.358   1.415   3.385
  393TIP3    H2 1125   3.274   1.300   3.335
  394TIP3   OH2 1126   0.962   0.602   4.850
  394TIP3    H1 1127   1.011   0.524   4.824
  394TIP3    H2 1128   0.877   0.569   4.879
  395TIP3   OH2 1129   4.308   5.306   0.974
  395TIP3    H1 1130   4.376   5.293   1.041
  395TIP3    H2 1131   4.271   5.392   0.994
  396TIP3   OH2 1132   7.924   1.496   3.447
  396TIP3    H1 1133   7.839   1.484   3.404
  396TIP3    H2 1134   7.987   1.492   3.375
  397TIP3   OH2 1135   2.881   6.523   4.019
  397TIP3    H1 1136   2.849   6.534   4.109
  397TIP3    H2 1137   2.948   6.455   4.026
  398TIP3   OH2 1138   5.887   1.898   3.545
  398TIP3    H1 1139   5.921   1.818   3.586
  398TIP3    H2 1140   5.849   1.948   3.616
  399TIP3   OH2 1141   1.679   5.742   1.819
  399TIP3    H1 1142   1.772   5.762   1.809
  399TIP3    H2 1143   1.647   5.737   1.729
  400TIP3   OH2 1144   6.926   5.901   2.659
  400TIP3    H1 1145   6.951   5.988   2.689
  400TIP3    H2 1146   6.974   5.841   2.716
  401TIP3   OH2 1147   1.716   0.364   5.387
  401TIP3    H1 1148   1.792   0.382   5.442
  401TIP3    H2 1149   1.728   0.422   5.311
  402TIP3   OH2 1150   3.174   1.258   1.304
  402TIP3    H1 1151   3.152   1.166   1.317
  402TIP3    H2 1152   3.108   1.290   1.243
  403TIP3   OH2 1153   0.661   5.751   3.753
  403TIP3    H1 1154   0.619   5.774   3.836
  403TIP3    H2 1155   0.672   5.834   3.707
  404TIP3   OH2 1156   5.321   3.249   4.568
  404TIP3    H1 1157   5.287   3.211   4.487
  404TIP3    H2 1158   5.378   3.182   4.604
  405TIP3   OH2 1159   0.502   5.169   0.744
  405TIP3    H1 1160   0.463   5.212   0.819
  405TIP3    H2 1161   0.433   5.171   0.677
  406TIP3   OH2 1162   5.916   3.252   3.487
  406TIP3    H1 1163   5.930   3.276   3.579
  406TIP3    H2 1164   5.954   3.324   3.437
  407TIP3   OH2 1165   5.830   6.949   5.515
  407TIP3    H1 1166   5.768   6.992   5.573
  407TIP3    H2 1167   5.792   6.959   5.428
  408TIP3   OH2 1168   3.589   1.425   2.583
  408TIP3    H1 1169   3.570   1.507   2.537
  408TIP3    H2 1170   3.587   1.358   2.515
  409TIP3   OH2 1171   3.579   6.435   5.839
  409TIP3    H1 1172   3.599   6.342   5.832
  409TIP3    H2 1173   3.662   6.477   5.863
  410TIP3   OH2 1174   4.478   1.222   2.783
  410TIP3    H1 1175   4.556   1.273   2.805
  410TIP3    H2 1176   4.506   1.131   2.785
  411TIP3   OH2 1177   6.424   2.549   2.136
  411TIP3    H1 1178   6.458   2.466   2.102
  411TIP3    H2 1179   6.443   2.546   2.230
  412TIP3   OH2 1180   0.554   2.676   0.464
  412TIP3    H1 1181   0.488   2.696   0.398
  412TIP3    H2 1182   0.508   2.624   0.529
  413TIP3   OH2 1183   5.256   0.706   2.979
  413TIP3    H1 1184   5.196   0.754   3.036
  413TIP3    H2 1185   5.266   0.761   2.902
  414TIP3   OH2 1186   3.740   4.939   0.703
  414TIP3    H1 1187   3.802   4.920   0.773
  414TIP3    H2 1188   3.782   4.906   0.624
  415TIP3   OH2 1189   2.193   2.712   6.160
  415TIP3    H1 1190   2.220   2.773   6.091
  415TIP3    H2 1191   2.254   2.727   6.232
  416TIP3   OH2 1192   3.304   1.292   3.851
  416TIP3    H1 1193   3.322   1.204   3.882
  416TIP3    H2 1194   3.237   1.280   3.783
  417TIP3   OH2 1195   3.002   0.575   0.341
  417TIP3    H1 1196   3.035   0.598   0.254
  417TIP3    H2 1197   3.060   0.619   0.402
  418TIP3   OH2 1198   7.468   2.546   1.989
  418TIP3    H1 1199   7.506   2.584   1.909
  418TIP3    H2 1200   7.410   2.477   1.958
  419TIP3   OH2 1201   7.401   7.694   1.802
  419TIP3    H1 1202   7.443   7.710   1.717
  419TIP3    H2 1203   7.411   7.600   1.816
  420TIP3   OH2 1204   6.364   3.295   0.923
  420TIP3    H1 1205   6.437   3.357   0.922
  420TIP3    H2 1206   6.385   3.232   0.853
  421TIP3   OH2 1207   8.231   1.755   0.641
  421TIP3    H1 1208   8.240   1.790   0.730
  421TIP3    H2 1209   8.198   1.666   0.654
  422TIP3   OH2 1210   6.206   5.842   1.399
  422TIP3    H1 1211   6.133   5.783   1.417
  422TIP3    H2 1212   6.262   5.794   1.338
  423TIP3   OH2 1213   2.688   3.139   0.255
  423TIP3    H1 1214   2.675   3.228   0.222
  423TIP3    H2 1215   2.624   3.130   0.325
  424TIP3   OH2 1216   6.364   7.266   6.359
  424TIP3    H1 1217   6.384   7.291   6.269
  424TIP3    H2 1218   6.447   7.271   6.405
  425TIP3   OH2 1219   0.241   4.125   5.765
  425TIP3    H1 1220   0.247   4.211   5.725
  425TIP3    H2 1221   0.230   4.065   5.691
  426TIP3   OH2 1222   6.060   4.721   3.486
  426TIP3    H1 1223   5.973   4.701   3.453
  426TIP3    H2 1224   6.047   4.795   3.545
  427TIP3   OH2 1225   1.383   6.639   5.803
  427TIP3    H1 1226   1.358   6.592   5.883
  427TIP3    H2 1227   1.420   6.722   5.835
  428TIP3   OH2 1228   2.206   6.979   4.053
  428TIP3    H1 1229   2.259   6.961   4.130
  428TIP3    H2 1230   2.269   6.995   3.983
  429TIP3   OH2 1231   0.428   0.115   1.282
  429TIP3    H1 1232   0.440   0.021   1.269
  429TIP3    H2 1233   0.423   0.126   1.377
  430TIP3   OH2 1234   1.826   3.969   2.533
  430TIP3    H1 1235   1.893   3.998   2.472
  430TIP3    H2 1236   1.844   4.018   2.613
  431TIP3   OH2 1237   5.770   3.340   6.197
  431TIP3    H1 1238   5.859   3.346   6.234
  431TIP3    H2 1239   5.735   3.429   6.204
  432TIP3   OH2 1240   5.890   7.680   4.515
  432TIP3    H1 1241   5.945   7.659   4.439
  432TIP3    H2 1242   5.802   7.688   4.479
  433TIP3   OH2 1243   2.243   3.112   6.063
  433TIP3    H1 1244   2.304   3.039   6.060
  433TIP3    H2 1245   2.187   3.101   5.987
  434TIP3   OH2 1246   4.619   2.816   5.908
  434TIP3    H1 1247   4.539   2.818   5.855
  434TIP3    H2 1248   4.601   2.751   5.976
  435TIP3   OH2 1249   0.722   1.967   4.624
  435TIP3    H1 1250   0.791   1.978   4.690
  435TIP3    H2 1251   0.750   2.024   4.552
  436TIP3   OH2 1252   2.587   6.519   2.600
  436TIP3    H1 1253   2.565   6.492   2.511
  436TIP3    H2 1254   2.612   6.611   2.591
  437TIP3   OH2 1255   0.208   5.143   6.747
  437TIP3    H1 1256   0.137   5.193   6.787
  437TIP3    H2 1257   0.248   5.204   6.684
  438TIP3   OH2 1258   5.501   3.767   0.443
  438TIP3    H1 1259   5.453   3.703   0.390
  438TIP3    H2 1260   5.539   3.827   0.380
  439TIP3   OH2 1261   2.702   6.829   3.603
  439TIP3    H1 1262   2.754   6.899   3.642
  439TIP3    H2 1263   2.748   6.749   3.626
  440TIP3   OH2 1264   7.361   6.579   6.053
  440TIP3    H1 1265   7.280   6.530   6.069
  440TIP3    H2 1266   7.348   6.618   5.967
  441TIP3   OH2 1267   3.892   0.463   5.440
  441TIP3    H1 1268   3.823   0.489   5.501
  441TIP3    H2 1269   3.875   0.370   5.424
  442TIP3   OH2 1270   5.333   3.835   6.723
  442TIP3    H1 1271   5.364   3.811   6.635
  442TIP3    H2 1272   5.403   3.890   6.758
  443TIP3   OH2 1273   5.169   5.242   0.182
  443TIP3    H1 1274   5.117   5.167   0.153
  443TIP3    H2 1275   5.184   5.293   0.102
  444TIP3   OH2 1276   5.439   6.049   3.352
  444TIP3    H1 1277   5.436   5.990   3.277
  444TIP3    H2 1278   5.367   6.110   3.337
  445TIP3   OH2 1279   3.290   6.959   1.530
  445TIP3    H1 1280   3.202   6.924   1.544
  445TIP3    H2 1281   3.278   7.054   1.526
  446TIP3   OH2 1282   6.829   1.876   6.017
  446TIP3    H1 1283   6.764   1.892   5.948
  446TIP3    H2 1284   6.913   1.887   5.972
  447TIP3   OH2 1285   3.700   7.124   0.133
  447TIP3    H1 1286   3.707   7.053   0.197
  447TIP3    H2 1287   3.790   7.152   0.119
  448TIP3   OH2 1288   2.364   3.229   1.130
  448TIP3    H1 1289   2.456   3.211   1.144
  448TIP3    H2 1290   2.355   3.233   1.034
  449TIP3   OH2 1291   7.727   1.485   2.953
  449TIP3    H1 1292   7.699   1.530   3.033
  449TIP3    H2 1293   7.712   1.392   2.971
  450TIP3   OH2 1294   5.987   6.759   4.920
  450TIP3    H1 1295   6.054   6.726   4.980
  450TIP3    H2 1296   6.038   6.801   4.850
  451TIP3   OH2 1297   5.856   2.017   4.257
  451TIP3    H1 1298   5.854   1.932   4.213
  451TIP3    H2 1299   5.844   1.996   4.349
  452TIP3   OH2 1300   0.736   6.037   1.257
  452TIP3    H1 1301   0.686   6.005   1.182
  452TIP3    H2 1302   0.671   6.052   1.325
  453TIP3   OH2 1303   2.575   7.063   5.704
  453TIP3    H1 1304   2.668   7.042   5.709
  453TIP3    H2 1305   2.572   7.148   5.660
  454TIP3   OH2 1306   7.967   2.588   6.146
  454TIP3    H1 1307   7.912   2.548   6.079
  454TIP3    H2 1308   7.915   2.659   6.181
  455TIP3   OH2 1309   2.436   6.597   3.808
  455TIP3    H1 1310   2.521   6.583   3.849
  455TIP3    H2 1311   2.376   6.609   3.882
  456TIP3   OH2 1312   2.338   6.523   6.712
  456TIP3    H1 1313   2.296   6.462   6.774
  456TIP3    H2 1314   2.315   6.610   6.745
  457TIP3   OH2 1315   1.276   7.771   3.876
  457TIP3    H1 1316   1.220   7.840   3.911
  457TIP3    H2 1317   1.365   7.798   3.900
  458TIP3   OH2 1318   3.553   2.444   6.421
  458TIP3    H1 1319   3.570   2.350   6.430
  458TIP3    H2 1320   3.460   2.453   6.439
  459TIP3   OH2 1321  -0.019   3.544   3.159
  459TIP3    H1 1322   0.029   3.466   3.131
  459TIP3    H2 1323   0.045   3.615   3.152
  460TIP3   OH2 1324   5.932   3.439   2.435
  460TIP3    H1 1325   5.915   3.382   2.360
  460TIP3    H2 1326   5.849   3.441   2.483
  461TIP3   OH2 1327   3.226   4.304   6.293
  461TIP3    H1 1328   3.182   4.292   6.209
  461TIP3    H2 1329   3.243   4.215   6.324
  462TIP3   OH2 1330   1.208   2.569   1.240
  462TIP3    H1 1331   1.268   2.495   1.241
  462TIP3    H2 1332   1.129   2.536   1.284
  463TIP3   OH2 1333   3.784   4.474   0.900
  463TIP3    H1 1334   3.865   4.520   0.920
  463TIP3    H2 1335   3.730   4.485   0.978
  464TIP3   OH2 1336   3.010   0.853   5.416
  464TIP3    H1 1337   3.080   0.868   5.480
  464TIP3    H2 1338   2.932   0.890   5.456
  465TIP3   OH2 1339   0.989   1.168   5.287
  465TIP3    H1 1340   1.009   1.180   5.194
  465TIP3    H2 1341   0.980   1.257   5.321
  466TIP3   OH2 1342   6.635   5.014   0.619
  466TIP3    H1 1343   6.694   5.089   0.610
  466TIP3    H2 1344   6.691   4.938   0.608
  467TIP3   OH2 1345   1.902   4.125   0.685
  467TIP3    H1 1346   1.887   4.159   0.774
  467TIP3    H2 1347   1.912   4.031   0.698
  468TIP3   OH2 1348   0.586   2.952   4.246
  468TIP3    H1 1349   0.596   3.047   4.244
  468TIP3    H2 1350   0.666   2.919   4.204
  469TIP3   OH2 1351   3.285   7.346   3.341
  469TIP3    H1 1352   3.232   7.339   3.261
  469TIP3    H2 1353   3.290   7.257   3.374
  470TIP3   OH2 1354   0.215   0.697   5.324
  470TIP3    H1 1355   0.302   0.706   5.362
  470TIP3    H2 1356   0.229   0.700   5.229
  471TIP3   OH2 1357   8.140   6.728   5.142
  471TIP3    H1 1358   8.094   6.767   5.068
  471TIP3    H2 1359   8.080   6.737   5.216
  472TIP3   OH2 1360   1.667   7.737   3.120
  472TIP3    H1 1361   1.618   7.809   3.079
  472TIP3    H2 1362   1.747   7.779   3.153
  473TIP3   OH2 1363   5.840   0.523   5.593
  473TIP3    H1 1364   5.818   0.517   5.686
  473TIP3    H2 1365   5.855   0.617   5.578
  474TIP3   OH2 1366   4.882   2.949   4.197
  474TIP3    H1 1367   4.846   3.030   4.158
  474TIP3    H2 1368   4.866   2.958   4.291
  475TIP3   OH2 1369   8.075   0.337   5.277
  475TIP3    H1 1370   8.072   0.243   5.295
  475TIP3    H2 1371   8.018   0.376   5.344
  476TIP3   OH2 1372   4.191   2.268   1.151
  476TIP3    H1 1373   4.265   2.328   1.140
  476TIP3    H2 1374   4.114   2.320   1.127
  477TIP3   OH2 1375   2.193   3.773   5.367
  477TIP3    H1 1376   2.229   3.735   5.287
  477TIP3    H2 1377   2.101   3.791   5.345
  478TIP3   OH2 1378   0.875   4.383   6.232
  478TIP3    H1 1379   0.931   4.406   6.307
  478TIP3    H2 1380   0.922   4.312   6.188
  479TIP3   OH2 1381   7.053   0.306   3.402
  479TIP3    H1 1382   7.107   0.294   3.480
  479TIP3    H2 1383   6.999   0.227   3.397
  480TIP3   OH2 1384   0.148   6.243   5.035
  480TIP3    H1 1385   0.065   6.204   5.061
  480TIP3    H2 1386   0.135   6.337   5.050
  481TIP3   OH2 1387   6.679   3.679   5.558
  481TIP3    H1 1388   6.759   3.723   5.530
  481TIP3    H2 1389   6.697   3.652   5.648
  482TIP3   OH2 1390   5.039   6.569   3.653
  482TIP3    H1 1391   5.006   6.623   3.724
  482TIP3    H2 1392   5.134   6.564   3.668
  483TIP3   OH2 1393   0.345   1.879   0.757
  483TIP3    H1 1394   0.373   1.920   0.676
  483TIP3    H2 1395   0.250   1.890   0.758
  484TIP3   OH2 1396   0.081   7.548   3.734
  484TIP3    H1 1397   0.089   7.459   3.700
  484TIP3    H2 1398   0.142   7.551   3.808
  485TIP3   OH2 1399   7.200   0.728   0.020
  485TIP3    H1 1400   7.283   0.690  -0.009
  485TIP3    H2 1401   7.182   0.684   0.104
  486TIP3   OH2 1402   1.944   5.643   1.516
  486TIP3    H1 1403   1.905   5.581   1.454
  486TIP3    H2 1404   1.873   5.705   1.535
  487TIP3   OH2 1405   3.758   1.774   2.534
  487TIP3    H1 1406   3.774   1.738   2.621
  487TIP3    H2 1407   3.683   1.724   2.501
  488TIP3   OH2 1408   6.650   6.333   4.302
  488TIP3    H1 1409   6.690   6.279   4.234
  488TIP3    H2 1410   6.568   6.289   4.323
  489TIP3   OH2 1411   4.121   0.269   5.014
  489TIP3    H1 1412   4.190   0.294   5.076
  489TIP3    H2 1413   4.155   0.191   4.971
  490TIP3   OH2 1414   2.008   6.196   5.032
  490TIP3    H1 1415   1.955   6.117   5.023
  490TIP3    H2 1416   2.061   6.181   5.110
  491TIP3   OH2 1417   0.506   2.591   5.202
  491TIP3    H1 1418   0.453   2.666   5.176
  491TIP3    H2 1419   0.594   2.610   5.169
  492TIP3   OH2 1420   0.735   2.774   3.067
  492TIP3    H1 1421   0.754   2.732   2.983
  492TIP3    H2 1422   0.648   2.741   3.091
  493TIP3   OH2 1423   3.255   7.161   6.520
  493TIP3    H1 1424   3.254   7.223   6.593
  493TIP3    H2 1425   3.341   7.119   6.525
  494TIP3   OH2 1426   6.761   3.704   2.764
  494TIP3    H1 1427   6.817   3.769   2.721
  494TIP3    H2 1428   6.715   3.661   2.692
  495TIP3   OH2 1429   3.062   5.090   3.944
  495TIP3    H1 1430   3.137   5.031   3.950
  495TIP3    H2 1431   3.100   5.177   3.948
  496TIP3   OH2 1432   1.346   4.727   1.660
  496TIP3    H1 1433   1.426   4.690   1.621
  496TIP3    H2 1434   1.341   4.687   1.747
  497TIP3   OH2 1435   1.225   3.840   0.939
  497TIP3    H1 1436   1.189   3.768   0.886
  497TIP3    H2 1437   1.148   3.886   0.972
  498TIP3   OH2 1438   4.492   5.131   0.093
  498TIP3    H1 1439   4.430   5.184   0.143
  498TIP3    H2 1440   4.577   5.148   0.135
  499TIP3   OH2 1441   6.927   7.829   1.077
  499TIP3    H1 1442   6.892   7.858   1.161
  499TIP3    H2 1443   6.910   7.735   1.075
  500TIP3   OH2 1444   5.170   4.370   4.004
  500TIP3    H1 1445   5.155   4.372   3.910
  500TIP3    H2 1446   5.090   4.332   4.041
  501TIP3   OH2 1447   1.337   1.629   4.399
  501TIP3    H1 1448   1.328   1.722   4.422
  501TIP3    H2 1449   1.418   1.601   4.441
  502TIP3   OH2 1450   6.838   6.912   4.798
  502TIP3    H1 1451   6.750   6.934   4.767
  502TIP3    H2 1452   6.838   6.939   4.890
  503TIP3   OH2 1453   3.184   5.334   4.033
  503TIP3    H1 1454   3.244   5.332   3.959
  503TIP3    H2 1455   3.232   5.380   4.102
  504TIP3   OH2 1456   1.885   4.457   1.263
  504TIP3    H1 1457   1.811   4.505   1.226
  504TIP3    H2 1458   1.846   4.398   1.327
  505TIP3   OH2 1459   7.481   7.709   1.526
  505TIP3    H1 1460   7.432   7.765   1.466
  505TIP3    H2 1461   7.487   7.625   1.480
  506TIP3   OH2 1462   2.208   6.643   6.462
  506TIP3    H1 1463   2.237   6.706   6.528
  506TIP3    H2 1464   2.243   6.559   6.491
  507TIP3   OH2 1465   2.706   5.864   4.758
  507TIP3    H1 1466   2.785   5.830   4.716
  507TIP3    H2 1467   2.662   5.914   4.690
  508TIP3   OH2 1468   4.752   3.916   3.925
  508TIP3    H1 1469   4.776   3.838   3.975
  508TIP3    H2 1470   4.708   3.972   3.989
  509TIP3   OH2 1471   3.787   2.582   0.284
  509TIP3    H1 1472   3.787   2.527   0.362
  509TIP3    H2 1473   3.871   2.628   0.288
  510TIP3   OH2 1474   4.004   2.649   0.664
  510TIP3    H1 1475   4.021   2.680   0.575
  510TIP3    H2 1476   3.912   2.671   0.680
  511TIP3   OH2 1477   7.029   5.586   4.507
  511TIP3    H1 1478   7.043   5.535   4.587
  511TIP3    H2 1479   6.959   5.647   4.530
  512TIP3   OH2 1480   3.093   6.128   1.403
  512TIP3    H1 1481   3.049   6.190   1.345
  512TIP3    H2 1482   3.060   6.148   1.490
  513TIP3   OH2 1483   0.445   1.490   4.893
  513TIP3    H1 1484   0.509   1.467   4.827
  513TIP3    H2 1485   0.414   1.405   4.926
  514TIP3   OH2 1486   5.091   6.664   0.507
  514TIP3    H1 1487   5.002   6.666   0.541
  514TIP3    H2 1488   5.111   6.755   0.487
  515TIP3   OH2 1489   4.900   7.745   2.112
  515TIP3    H1 1490   4.970   7.702   2.161
  515TIP3    H2 1491   4.877   7.822   2.165
  516TIP3   OH2 1492   2.285   1.455   0.022
  516TIP3    H1 1493   2.316   1.406   0.099
  516TIP3    H2 1494   2.285   1.391  -0.049
  517TIP3   OH2 1495   4.508   2.178   1.184
  517TIP3    H1 1496   4.582   2.158   1.241
  517TIP3    H2 1497   4.458   2.244   1.233
  518TIP3   OH2 1498   5.976   5.950   4.267
  518TIP3    H1 1499   6.067   5.944   4.238
  518TIP3    H2 1500   5.956   5.862   4.300
  519TIP3   OH2 1501   1.450   7.214   5.934
  519TIP3    H1 1502   1.496   7.136   5.904
  519TIP3    H2 1503   1.377   7.224   5.873
  520TIP3   OH2 1504   3.021   7.512   6.323
  520TIP3    H1 1505   3.105   7.498   6.279
  520TIP3    H2 1506   3.044   7.560   6.403
  521TIP3   OH2 1507   2.208   4.829   3.636
  521TIP3    H1 1508   2.215   4.734   3.642
  521TIP3    H2 1509   2.115   4.845   3.619
  522TIP3   OH2 1510   0.686   4.586   5.160
  522TIP3    H1 1511   0.697   4.504   5.113
  522TIP3    H2 1512   0.606   4.624   5.122
  523TIP3   OH2 1513   3.393   6.868   4.748
  523TIP3    H1 1514   3.299   6.850   4.736
  523TIP3    H2 1515   3.437   6.790   4.716
  524TIP3   OH2 1516   6.605   5.247   5.174
  524TIP3    H1 1517   6.567   5.311   5.234
  524TIP3    H2 1518   6.530   5.216   5.122
  525TIP3   OH2 1519   6.455   7.760   3.917
  525TIP3    H1 1520   6.370   7.760   3.873
  525TIP3    H2 1521   6.519   7.760   3.846
  526TIP3   OH2 1522   2.854   1.383   1.531
  526TIP3    H1 1523   2.792   1.398   1.460
  526TIP3    H2 1524   2.844   1.459   1.589
  527TIP3   OH2 1525   0.677   6.379   6.038
  527TIP3    H1 1526   0.661   6.315   6.108
  527TIP3    H2 1527   0.668   6.329   5.957
  528TIP3   OH2 1528   1.037   2.739   5.596
  528TIP3    H1 1529   0.998   2.731   5.684
  528TIP3    H2 1530   1.114   2.683   5.600
  529TIP3   OH2 1531   3.563   3.465   1.291
  529TIP3    H1 1532   3.547   3.543   1.237
  529TIP3    H2 1533   3.506   3.398   1.254
  530TIP3   OH2 1534   2.352   4.611   4.661
  530TIP3    H1 1535   2.287   4.652   4.718
  530TIP3    H2 1536   2.341   4.517   4.676
  531TIP3   OH2 1537   1.125   4.947   1.972
  531TIP3    H1 1538   1.157   5.030   1.936
  531TIP3    H2 1539   1.127   4.959   2.066
  532TIP3   OH2 1540   2.805   0.987   2.256
  532TIP3    H1 1541   2.887   0.938   2.267
  532TIP3    H2 1542   2.793   0.992   2.161
  533TIP3   OH2 1543   4.756   6.453   2.399
  533TIP3    H1 1544   4.841   6.492   2.420
  533TIP3    H2 1545   4.735   6.400   2.476
  534TIP3   OH2 1546   8.188   3.576   1.847
  534TIP3    H1 1547   8.277   3.589   1.815
  534TIP3    H2 1548   8.148   3.515   1.786
  535TIP3   OH2 1549   5.068   3.019   3.843
  535TIP3    H1 1550   5.019   2.940   3.820
  535TIP3    H2 1551   5.008   3.070   3.897
  536TIP3   OH2 1552   0.966   2.060   0.249
  536TIP3    H1 1553   0.884   2.045   0.203
  536TIP3    H2 1554   0.976   1.984   0.306
  537TIP3   OH2 1555   2.132   2.154   1.180
  537TIP3    H1 1556   2.151   2.185   1.269
  537TIP3    H2 1557   2.214   2.168   1.132
  538TIP3   OH2 1558   0.864   2.752   4.418
  538TIP3    H1 1559   0.818   2.699   4.483
  538TIP3    H2 1560   0.955   2.723   4.423
  539TIP3   OH2 1561   3.602   5.723   3.256
  539TIP3    H1 1562   3.635   5.654   3.314
  539TIP3    H2 1563   3.621   5.805   3.303
  540TIP3   OH2 1564   1.288   6.090   6.037
  540TIP3    H1 1565   1.228   6.143   5.985
  540TIP3    H2 1566   1.249   6.003   6.039
  541TIP3   OH2 1567   8.256   3.616   2.348
  541TIP3    H1 1568   8.218   3.528   2.336
  541TIP3    H2 1569   8.213   3.670   2.282
  542TIP3   OH2 1570   6.153   5.322   1.369
  542TIP3    H1 1571   6.090   5.258   1.401
  542TIP3    H2 1572   6.113   5.358   1.290
  543TIP3   OH2 1573   3.676   3.298   2.251
  543TIP3    H1 1574   3.586   3.272   2.232
  543TIP3    H2 1575   3.727   3.218   2.242
  544TIP3   OH2 1576   1.429   2.543   4.742
  544TIP3    H1 1577   1.463   2.624   4.781
  544TIP3    H2 1578   1.424   2.482   4.816
  545TIP3   OH2 1579   7.326   0.301   3.742
  545TIP3    H1 1580   7.402   0.351   3.711
  545TIP3    H2 1581   7.322   0.224   3.686
  546TIP3   OH2 1582   0.619   0.793   2.930
  546TIP3    H1 1583   0.529   0.805   2.961
  546TIP3    H2 1584   0.613   0.799   2.835
  547TIP3   OH2 1585   2.691   7.517   2.311
  547TIP3    H1 1586   2.642   7.434   2.314
  547TIP3    H2 1587   2.770   7.500   2.363
  548TIP3   OH2 1588   0.767   7.688   5.668
  548TIP3    H1 1589   0.740   7.648   5.586
  548TIP3    H2 1590   0.685   7.717   5.709
  549TIP3   OH2 1591   3.310   5.444   5.025
  549TIP3    H1 1592   3.293   5.510   5.093
  549TIP3    H2 1593   3.233   5.448   4.968
  550TIP3   OH2 1594   5.952   0.464   6.418
  550TIP3    H1 1595   5.875   0.415   6.387
  550TIP3    H2 1596   5.981   0.513   6.342
  551TIP3   OH2 1597   7.371   1.985   4.422
  551TIP3    H1 1598   7.279   1.960   4.421
  551TIP3    H2 1599   7.416   1.907   4.455
  552TIP3   OH2 1600   1.045   2.864   0.390
  552TIP3    H1 1601   1.090   2.945   0.413
  552TIP3    H2 1602   0.987   2.846   0.464
  553TIP3   OH2 1603   3.405   1.888   0.322
  553TIP3    H1 1604   3.328   1.883   0.266
  553TIP3    H2 1605   3.428   1.981   0.324
  554TIP3   OH2 1606   3.690   7.038   6.345
  554TIP3    H1 1607   3.626   7.091   6.298
  554TIP3    H2 1608   3.750   7.007   6.276
  555TIP3   OH2 1609   2.028   1.731   3.333
  555TIP3    H1 1610   2.114   1.691   3.347
  555TIP3    H2 1611   1.973   1.695   3.402
  556TIP3   OH2 1612   2.705   0.500   3.878
  556TIP3    H1 1613   2.697   0.573   3.816
  556TIP3    H2 1614   2.763   0.533   3.947
  557TIP3   OH2 1615   5.953   1.262   2.947
  557TIP3    H1 1616   5.951   1.192   2.882
  557TIP3    H2 1617   5.987   1.220   3.026
  558TIP3   OH2 1618   5.236   2.885   0.772
  558TIP3    H1 1619   5.231   2.798   0.733
  558TIP3    H2 1620   5.228   2.869   0.866
  559TIP3   OH2 1621   2.046   3.988   6.146
  559TIP3    H1 1622   2.051   3.942   6.063
  559TIP3    H2 1623   1.967   4.041   6.140
  560TIP3   OH2 1624   3.932   6.807   3.052
  560TIP3    H1 1625   3.884   6.771   3.127
  560TIP3    H2 1626   3.912   6.900   3.053
  561TIP3   OH2 1627   4.489   6.163   4.421
  561TIP3    H1 1628   4.462   6.176   4.512
  561TIP3    H2 1629   4.440   6.228   4.371
  562TIP3   OH2 1630   6.480   0.718   5.652
  562TIP3    H1 1631   6.395   0.705   5.610
  562TIP3    H2 1632   6.527   0.636   5.638
  563TIP3   OH2 1633   6.729   4.618   1.536
  563TIP3    H1 1634   6.708   4.710   1.520
  563TIP3    H2 1635   6.649   4.581   1.573
  564TIP3   OH2 1636   6.424   1.003   0.242
  564TIP3    H1 1637   6.362   1.000   0.170
  564TIP3    H2 1638   6.412   1.090   0.280
  565TIP3   OH2 1639   6.613   1.472   5.779
  565TIP3    H1 1640   6.690   1.522   5.750
  565TIP3    H2 1641   6.595   1.504   5.867
  566TIP3   OH2 1642   5.798   5.056   1.707
  566TIP3    H1 1643   5.838   4.977   1.746
  566TIP3    H2 1644   5.771   5.108   1.782
  567TIP3   OH2 1645   4.958   5.487   3.238
  567TIP3    H1 1646   4.940   5.414   3.297
  567TIP3    H2 1647   5.046   5.470   3.205
  568TIP3   OH2 1648   5.286   7.442   6.429
  568TIP3    H1 1649   5.238   7.367   6.465
  568TIP3    H2 1650   5.272   7.435   6.334
  569TIP3   OH2 1651   5.945   2.359   2.318
  569TIP3    H1 1652   5.925   2.350   2.411
  569TIP3    H2 1653   6.037   2.331   2.311
  570TIP3   OH2 1654   3.074   0.510   2.020
  570TIP3    H1 1655   3.056   0.528   2.113
  570TIP3    H2 1656   3.135   0.436   2.022
  571TIP3   OH2 1657   4.995   3.908   1.052
  571TIP3    H1 1658   5.073   3.964   1.055
  571TIP3    H2 1659   5.016   3.835   1.110
  572TIP3   OH2 1660   6.757   2.016   5.078
  572TIP3    H1 1661   6.781   2.064   4.998
  572TIP3    H2 1662   6.694   1.950   5.048
  573TIP3   OH2 1663   6.203   0.915   1.061
  573TIP3    H1 1664   6.264   0.903   1.134
  573TIP3    H2 1665   6.158   0.997   1.081
  574TIP3   OH2 1666   0.289   2.454   1.818
  574TIP3    H1 1667   0.278   2.522   1.884
  574TIP3    H2 1668   0.299   2.373   1.868
  575TIP3   OH2 1669   4.505   6.011   0.652
  575TIP3    H1 1670   4.514   6.100   0.687
  575TIP3    H2 1671   4.578   6.001   0.591
  576TIP3   OH2 1672   5.540   2.224   6.444
  576TIP3    H1 1673   5.617   2.166   6.452
  576TIP3    H2 1674   5.469   2.165   6.419
  577TIP3   OH2 1675   4.564   6.517   2.226
  577TIP3    H1 1676   4.628   6.512   2.296
  577TIP3    H2 1677   4.486   6.472   2.261
  578TIP3   OH2 1678   0.104   2.007   3.203
  578TIP3    H1 1679   0.062   1.930   3.241
  578TIP3    H2 1680   0.191   1.976   3.178
  579TIP3   OH2 1681   7.693   5.918   1.305
  579TIP3    H1 1682   7.763   5.919   1.371
  579TIP3    H2 1683   7.642   5.840   1.326
  580TIP3   OH2 1684   3.334   3.275   2.548
  580TIP3    H1 1685   3.263   3.326   2.586
  580TIP3    H2 1686   3.343   3.199   2.605
  581TIP3   OH2 1687   0.423   4.234   3.851
  581TIP3    H1 1688   0.389   4.322   3.865
  581TIP3    H2 1689   0.352   4.187   3.807
  582TIP3   OH2 1690   1.012   4.083   5.722
  582TIP3    H1 1691   1.031   4.133   5.642
  582TIP3    H2 1692   0.954   4.140   5.772
  583TIP3   OH2 1693   7.028   6.533   5.808
  583TIP3    H1 1694   6.936   6.529   5.834
  583TIP3    H2 1695   7.038   6.618   5.765
  584TIP3   OH2 1696   2.762   6.862   0.282
  584TIP3    H1 1697   2.829   6.795   0.290
  584TIP3    H2 1698   2.809   6.941   0.257
  585TIP3   OH2 1699   2.207   2.373   5.740
  585TIP3    H1 1700   2.224   2.457   5.782
  585TIP3    H2 1701   2.293   2.344   5.709
  586TIP3   OH2 1702   8.127   6.111   6.429
  586TIP3    H1 1703   8.077   6.156   6.498
  586TIP3    H2 1704   8.078   6.130   6.349
  587TIP3   OH2 1705   0.458   3.210   5.400
  587TIP3    H1 1706   0.430   3.176   5.315
  587TIP3    H2 1707   0.381   3.257   5.433
  588TIP3   OH2 1708   1.384   7.456   4.929
  588TIP3    H1 1709   1.309   7.516   4.937
  588TIP3    H2 1710   1.346   7.376   4.892
  589TIP3   OH2 1711   8.130   3.556   4.207
  589TIP3    H1 1712   8.120   3.463   4.229
  589TIP3    H2 1713   8.144   3.599   4.290
  590TIP3   OH2 1714   5.768   4.451   4.527
  590TIP3    H1 1715   5.802   4.362   4.532
  590TIP3    H2 1716   5.677   4.440   4.497
  591TIP3   OH2 1717   1.066   1.686   1.142
  591TIP3    H1 1718   1.050   1.779   1.157
  591TIP3    H2 1719   1.146   1.668   1.189
  592TIP3   OH2 1720   3.566   7.219   3.198
  592TIP3    H1 1721   3.644   7.250   3.153
  592TIP3    H2 1722   3.495   7.274   3.164
  593TIP3   OH2 1723   3.709   5.780   5.440
  593TIP3    H1 1724   3.656   5.757   5.364
  593TIP3    H2 1725   3.769   5.707   5.450
  594TIP3   OH2 1726   2.563   5.980   1.841
  594TIP3    H1 1727   2.559   6.055   1.899
  594TIP3    H2 1728   2.567   5.904   1.899
  595TIP3   OH2 1729   8.114   4.691   0.977
  595TIP3    H1 1730   8.111   4.695   1.073
  595TIP3    H2 1731   8.049   4.626   0.953
  596TIP3   OH2 1732   2.089   2.696   2.848
  596TIP3    H1 1733   2.159   2.696   2.783
  596TIP3    H2 1734   2.050   2.609   2.841
  597TIP3   OH2 1735   6.720   5.704   4.558
  597TIP3    H1 1736   6.691   5.616   4.537
  597TIP3    H2 1737   6.683   5.721   4.645
  598TIP3   OH2 1738   2.263   3.935   3.222
  598TIP3    H1 1739   2.289   3.849   3.189
  598TIP3    H2 1740   2.307   3.997   3.164
  599TIP3   OH2 1741   5.263   6.029   6.407
  599TIP3    H1 1742   5.174   6.065   6.407
  599TIP3    H2 1743   5.320   6.105   6.393
  600TIP3   OH2 1744   5.557   0.072   3.320
  600TIP3    H1 1745   5.622   0.117   3.374
  600TIP3    H2 1746   5.528  -0.001   3.375
  601TIP3   OH2 1747   2.785   5.815   6.286
  601TIP3    H1 1748   2.821   5.839   6.372
  601TIP3    H2 1749   2.766   5.722   6.293
  602TIP3   OH2 1750   7.812   3.112   2.800
  602TIP3    H1 1751   7.895   3.097   2.847
  602TIP3    H2 1752   7.750   3.052   2.842
  603TIP3   OH2 1753   6.396   4.575   0.249
  603TIP3    H1 1754   6.359   4.545   0.333
  603TIP3    H2 1755   6.337   4.538   0.183
  604TIP3   OH2 1756   1.844   1.364   5.588
  604TIP3    H1 1757   1.825   1.312   5.510
  604TIP3    H2 1758   1.798   1.447   5.573
  605TIP3   OH2 1759   4.079   7.160   5.899
  605TIP3    H1 1760   4.137   7.092   5.865
  605TIP3    H2 1761   4.124   7.193   5.977
  606TIP3   OH2 1762   6.705   6.168   1.814
  606TIP3    H1 1763   6.701   6.084   1.860
  606TIP3    H2 1764   6.743   6.146   1.729
  607TIP3   OH2 1765   6.807   1.249   4.788
  607TIP3    H1 1766   6.876   1.274   4.726
  607TIP3    H2 1767   6.760   1.331   4.805
  608TIP3   OH2 1768   7.932   4.420   1.501
  608TIP3    H1 1769   7.973   4.353   1.556
  608TIP3    H2 1770   7.863   4.373   1.454
  609TIP3   OH2 1771   3.454   5.938   2.223
  609TIP3    H1 1772   3.439   5.928   2.317
  609TIP3    H2 1773   3.421   5.857   2.184
  610TIP3   OH2 1774   6.300   0.973   3.315
  610TIP3    H1 1775   6.258   0.933   3.391
  610TIP3    H2 1776   6.380   1.013   3.351
  611TIP3   OH2 1777   0.547   1.261   1.368
  611TIP3    H1 1778   0.508   1.186   1.324
  611TIP3    H2 1779   0.567   1.229   1.456
  612TIP3   OH2 1780   2.538   3.630   5.625
  612TIP3    H1 1781   2.446   3.615   5.607
  612TIP3    H2 1782   2.585   3.575   5.563
  613TIP3   OH2 1783   2.551   0.040   2.915
  613TIP3    H1 1784   2.500  -0.037   2.890
  613TIP3    H2 1785   2.487   0.106   2.939
  614TIP3   OH2 1786   0.092   4.387   2.383
  614TIP3    H1 1787   0.181   4.356   2.370
  614TIP3    H2 1788   0.078   4.452   2.314
  615TIP3   OH2 1789   0.885   6.035   4.934
  615TIP3    H1 1790   0.842   5.953   4.911
  615TIP3    H2 1791   0.970   6.031   4.891
  616TIP3   OH2 1792   5.846   6.846   1.419
  616TIP3    H1 1793   5.882   6.897   1.347
  616TIP3    H2 1794   5.762   6.889   1.439
  617TIP3   OH2 1795   4.730   2.247   4.763
  617TIP3    H1 1796   4.761   2.253   4.673
  617TIP3    H2 1797   4.766   2.326   4.805
  618TIP3   OH2 1798   7.810   0.972   4.336
  618TIP3    H1 1799   7.869   0.935   4.271
  618TIP3    H2 1800   7.796   0.901   4.399
  619TIP3   OH2 1801   6.235   3.697   0.204
  619TIP3    H1 1802   6.198   3.615   0.238
  619TIP3    H2 1803   6.266   3.743   0.283
  620TIP3   OH2 1804   6.303   4.947   3.087
  620TIP3    H1 1805   6.338   5.034   3.066
  620TIP3    H2 1806   6.368   4.908   3.145
  621TIP3   OH2 1807   5.201   6.869   5.335
  621TIP3    H1 1808   5.256   6.805   5.288
  621TIP3    H2 1809   5.114   6.859   5.297
  622TIP3   OH2 1810   8.245   6.172   1.778
  622TIP3    H1 1811   8.170   6.113   1.788
  622TIP3    H2 1812   8.227   6.221   1.698
  623TIP3   OH2 1813   5.889   7.456   6.311
  623TIP3    H1 1814   5.867   7.454   6.218
  623TIP3    H2 1815   5.932   7.540   6.324
  624TIP3   OH2 1816   6.400   4.176   1.071
  624TIP3    H1 1817   6.487   4.214   1.065
  624TIP3    H2 1818   6.344   4.234   1.019
  625TIP3   OH2 1819   4.203   6.161   3.454
  625TIP3    H1 1820   4.159   6.239   3.486
  625TIP3    H2 1821   4.132   6.102   3.428
  626TIP3   OH2 1822   4.176   3.248   3.143
  626TIP3    H1 1823   4.234   3.178   3.170
  626TIP3    H2 1824   4.220   3.289   3.068
  627TIP3   OH2 1825   5.025   7.103   3.562
  627TIP3    H1 1826   5.085   7.047   3.612
  627TIP3    H2 1827   5.002   7.174   3.622
  628TIP3   OH2 1828   6.338   2.343   0.288
  628TIP3    H1 1829   6.374   2.254   0.295
  628TIP3    H2 1830   6.373   2.376   0.205
  629TIP3   OH2 1831   3.149   7.508   1.899
  629TIP3    H1 1832   3.121   7.544   1.815
  629TIP3    H2 1833   3.244   7.513   1.898
  630TIP3   OH2 1834   5.006   0.793   2.234
  630TIP3    H1 1835   4.973   0.834   2.314
  630TIP3    H2 1836   5.093   0.760   2.257
  631TIP3   OH2 1837   0.612   1.643   3.195
  631TIP3    H1 1838   0.540   1.702   3.173
  631TIP3    H2 1839   0.596   1.618   3.286
  632TIP3   OH2 1840   3.630   0.097   4.113
  632TIP3    H1 1841   3.721   0.096   4.084
  632TIP3    H2 1842   3.607   0.005   4.124
  633TIP3   OH2 1843   2.585   7.034   6.181
  633TIP3    H1 1844   2.665   7.022   6.233
  633TIP3    H2 1845   2.553   6.945   6.166
  634TIP3   OH2 1846   0.307   5.610   4.968
  634TIP3    H1 1847   0.389   5.659   4.963
  634TIP3    H2 1848   0.252   5.648   4.899
  635TIP3   OH2 1849   7.846   0.032   3.943
  635TIP3    H1 1850   7.835   0.015   3.850
  635TIP3    H2 1851   7.941   0.032   3.957
  636TIP3   OH2 1852   2.774   5.583   0.551
  636TIP3    H1 1853   2.719   5.658   0.573
  636TIP3    H2 1854   2.723   5.532   0.489
  637TIP3   OH2 1855   7.699   4.760   2.102
  637TIP3    H1 1856   7.702   4.840   2.050
  637TIP3    H2 1857   7.790   4.737   2.116
  638TIP3   OH2 1858   4.588   4.817   6.068
  638TIP3    H1 1859   4.537   4.748   6.024
  638TIP3    H2 1860   4.678   4.800   6.042
  639TIP3   OH2 1861   7.579   0.112   1.757
  639TIP3    H1 1862   7.490   0.087   1.780
  639TIP3    H2 1863   7.625   0.118   1.841
  640TIP3   OH2 1864   0.365   0.530   2.728
  640TIP3    H1 1865   0.421   0.492   2.796
  640TIP3    H2 1866   0.277   0.525   2.764
  641TIP3   OH2 1867   5.768   0.089   4.361
  641TIP3    H1 1868   5.674   0.079   4.345
  641TIP3    H2 1869   5.796   0.155   4.297
  642TIP3   OH2 1870   7.930   5.016   2.118
  642TIP3    H1 1871   8.017   5.017   2.159
  642TIP3    H2 1872   7.945   4.982   2.030
  643TIP3   OH2 1873   2.620   3.879   3.553
  643TIP3    H1 1874   2.525   3.890   3.553
  643TIP3    H2 1875   2.655   3.968   3.548
  644TIP3   OH2 1876   1.983   4.624   5.806
  644TIP3    H1 1877   1.951   4.676   5.880
  644TIP3    H2 1878   1.934   4.655   5.731
  645TIP3   OH2 1879   6.167   7.568   3.408
  645TIP3    H1 1880   6.256   7.534   3.406
  645TIP3    H2 1881   6.158   7.607   3.495
  646TIP3   OH2 1882   7.496   3.431   1.355
  646TIP3    H1 1883   7.434   3.435   1.282
  646TIP3    H2 1884   7.485   3.343   1.391
  647TIP3   OH2 1885   8.195   1.230   1.346
  647TIP3    H1 1886   8.227   1.140   1.349
  647TIP3    H2 1887   8.113   1.228   1.396
  648TIP3   OH2 1888   0.539   5.739   6.061
  648TIP3    H1 1889   0.445   5.752   6.062
  648TIP3    H2 1890   0.553   5.660   6.114
  649TIP3   OH2 1891   5.242   2.196   3.831
  649TIP3    H1 1892   5.224   2.185   3.738
  649TIP3    H2 1893   5.179   2.140   3.875
  650TIP3   OH2 1894   4.095   1.085   0.310
  650TIP3    H1 1895   4.181   1.073   0.350
  650TIP3    H2 1896   4.092   1.020   0.240
  651TIP3   OH2 1897   5.118   4.448   6.315
  651TIP3    H1 1898   5.066   4.368   6.319
  651TIP3    H2 1899   5.110   4.487   6.402
  652TIP3   OH2 1900   5.659   7.154   4.686
  652TIP3    H1 1901   5.675   7.231   4.632
  652TIP3    H2 1902   5.647   7.188   4.774
  653TIP3   OH2 1903   1.144   1.691   6.354
  653TIP3    H1 1904   1.165   1.631   6.283
  653TIP3    H2 1905   1.228   1.727   6.381
  654TIP3   OH2 1906   6.839   7.498   5.912
  654TIP3    H1 1907   6.928   7.483   5.944
  654TIP3    H2 1908   6.818   7.419   5.862
  655TIP3   OH2 1909   0.574   1.235   2.446
  655TIP3    H1 1910   0.499   1.221   2.390
  655TIP3    H2 1911   0.573   1.329   2.465
  656TIP3   OH2 1912   4.637   6.987   6.618
  656TIP3    H1 1913   4.633   7.056   6.553
  656TIP3    H2 1914   4.583   6.917   6.583
  657TIP3   OH2 1915   0.073   4.261   2.627
  657TIP3    H1 1916   0.014   4.188   2.611
  657TIP3    H2 1917   0.084   4.303   2.541
  658TIP3   OH2 1918   0.732   4.947   6.810
  658TIP3    H1 1919   0.675   5.001   6.755
  658TIP3    H2 1920   0.772   4.886   6.748
  659TIP3   OH2 1921   0.239   4.373   1.755
  659TIP3    H1 1922   0.286   4.397   1.675
  659TIP3    H2 1923   0.170   4.438   1.763
  660TIP3   OH2 1924   5.104   3.903   0.240
  660TIP3    H1 1925   5.081   3.944   0.156
  660TIP3    H2 1926   5.147   3.973   0.289
  661TIP3   OH2 1927   6.481   3.248   3.881
  661TIP3    H1 1928   6.454   3.305   3.809
  661TIP3    H2 1929   6.572   3.275   3.899
  662TIP3   OH2 1930   1.097   2.585   3.338
  662TIP3    H1 1931   1.049   2.644   3.397
  662TIP3    H2 1932   1.032   2.559   3.272
  663TIP3   OH2 1933   0.777   3.594   3.561
  663TIP3    H1 1934   0.714   3.527   3.534
  663TIP3    H2 1935   0.749   3.673   3.514
  664TIP3   OH2 1936   2.693   4.664   3.708
  664TIP3    H1 1937   2.663   4.588   3.759
  664TIP3    H2 1938   2.685   4.738   3.768
  665TIP3   OH2 1939   0.758   6.021   5.452
  665TIP3    H1 1940   0.808   6.045   5.374
  665TIP3    H2 1941   0.798   5.939   5.482
  666TIP3   OH2 1942   4.895   7.446   5.113
  666TIP3    H1 1943   4.829   7.389   5.072
  666TIP3    H2 1944   4.978   7.403   5.094
  667TIP3   OH2 1945   0.660   2.137   1.164
  667TIP3    H1 1946   0.698   2.180   1.087
  667TIP3    H2 1947   0.566   2.138   1.147
  668TIP3   OH2 1948   2.349   2.458   6.534
  668TIP3    H1 1949   2.396   2.407   6.468
  668TIP3    H2 1950   2.315   2.393   6.595
  669TIP3   OH2 1951   3.388   1.522   2.176
  669TIP3    H1 1952   3.379   1.616   2.194
  669TIP3    H2 1953   3.416   1.485   2.260
  670TIP3   OH2 1954   3.341   1.590   3.906
  670TIP3    H1 1955   3.294   1.509   3.888
  670TIP3    H2 1956   3.314   1.615   3.994
  671TIP3   OH2 1957   1.284   0.377   0.239
  671TIP3    H1 1958   1.247   0.455   0.199
  671TIP3    H2 1959   1.373   0.403   0.265
  672TIP3   OH2 1960   4.250   3.506   2.531
  672TIP3    H1 1961   4.323   3.550   2.489
  672TIP3    H2 1962   4.172   3.541   2.488
  673TIP3   OH2 1963   6.356   6.113   3.686
  673TIP3    H1 1964   6.443   6.077   3.669
  673TIP3    H2 1965   6.315   6.117   3.599
  674TIP3   OH2 1966   6.470   2.183   2.477
  674TIP3    H1 1967   6.536   2.252   2.475
  674TIP3    H2 1968   6.437   2.179   2.387
  675TIP3   OH2 1969   8.158   2.978   1.769
  675TIP3    H1 1970   8.087   2.985   1.833
  675TIP3    H2 1971   8.126   3.027   1.693
  676TIP3   OH2 1972   0.986   0.556   4.055
  676TIP3    H1 1973   0.957   0.644   4.032
  676TIP3    H2 1974   1.032   0.566   4.138
  677TIP3   OH2 1975   7.356   5.952   5.165
  677TIP3    H1 1976   7.440   5.910   5.183
  677TIP3    H2 1977   7.369   5.998   5.082
  678TIP3   OH2 1978   7.004   4.233   3.290
  678TIP3    H1 1979   6.960   4.263   3.210
  678TIP3    H2 1980   6.934   4.194   3.342
  679TIP3   OH2 1981   3.000   3.455   0.847
  679TIP3    H1 1982   3.068   3.474   0.782
  679TIP3    H2 1983   2.925   3.507   0.819
  680TIP3   OH2 1984   6.954   5.392   2.000
  680TIP3    H1 1985   6.978   5.471   1.951
  680TIP3    H2 1986   7.034   5.366   2.045
  681TIP3   OH2 1987   0.765   4.348   1.190
  681TIP3    H1 1988   0.736   4.379   1.104
  681TIP3    H2 1989   0.841   4.403   1.211
  682TIP3   OH2 1990   6.964   0.355   1.785
  682TIP3    H1 1991   6.926   0.269   1.769
  682TIP3    H2 1992   7.053   0.337   1.814
  683TIP3   OH2 1993   3.527   5.871   4.575
  683TIP3    H1 1994   3.591   5.890   4.507
  683TIP3    H2 1995   3.572   5.894   4.657
  684TIP3   OH2 1996   3.414   6.486   5.603
  684TIP3    H1 1997   3.473   6.476   5.678
  684TIP3    H2 1998   3.367   6.403   5.599
  685TIP3   OH2 1999   3.441   2.391   4.577
  685TIP3    H1 2000   3.390   2.461   4.537
  685TIP3    H2 2001   3.445   2.414   4.670
  686TIP3   OH2 2002   3.840   4.879   0.464
  686TIP3    H1 2003   3.845   4.923   0.380
  686TIP3    H2 2004   3.881   4.794   0.450
  687TIP3   OH2 2005   5.322   5.518   5.181
  687TIP3    H1 2006   5.358   5.440   5.139
  687TIP3    H2 2007   5.228   5.503   5.183
  688TIP3   OH2 2008   4.242   6.591   2.230
  688TIP3    H1 2009   4.291   6.620   2.307
  688TIP3    H2 2010   4.269   6.650   2.160
  689TIP3   OH2 2011   5.261   3.129   1.215
  689TIP3    H1 2012   5.197   3.093   1.277
  689TIP3    H2 2013   5.344   3.127   1.263
  690TIP3   OH2 2014   0.501   0.215   5.826
  690TIP3    H1 2015   0.410   0.188   5.811
  690TIP3    H2 2016   0.494   0.302   5.866
  691TIP3   OH2 2017   6.563   3.194   4.909
  691TIP3    H1 2018   6.614   3.200   4.828
  691TIP3    H2 2019   6.625   3.159   4.973
  692TIP3   OH2 2020   4.230   6.150   1.597
  692TIP3    H1 2021   4.172   6.084   1.559
  692TIP3    H2 2022   4.306   6.150   1.539
  693TIP3   OH2 2023   4.338   3.909   6.739
  693TIP3    H1 2024   4.353   3.822   6.701
  693TIP3    H2 2025   4.419   3.957   6.724
  694TIP3   OH2 2026   7.733   5.639   5.547
  694TIP3    H1 2027   7.739   5.733   5.566
  694TIP3    H2 2028   7.669   5.607   5.611
  695TIP3   OH2 2029   0.997   2.131   5.785
  695TIP3    H1 2030   1.077   2.151   5.834
  695TIP3    H2 2031   1.020   2.148   5.694
  696TIP3   OH2 2032   3.230   5.864   4.539
  696TIP3    H1 2033   3.325   5.868   4.530
  696TIP3    H2 2034   3.216   5.810   4.617
  697TIP3   OH2 2035   1.734   5.577   3.406
  697TIP3    H1 2036   1.781   5.614   3.481
  697TIP3    H2 2037   1.759   5.631   3.332
  698TIP3   OH2 2038   8.179   5.700   2.785
  698TIP3    H1 2039   8.101   5.644   2.785
  698TIP3    H2 2040   8.157   5.772   2.844
  699TIP3   OH2 2041   7.131   7.282   0.700
  699TIP3    H1 2042   7.226   7.282   0.691
  699TIP3    H2 2043   7.098   7.302   0.612
  700TIP3   OH2 2044   4.714   0.590   0.981
  700TIP3    H1 2045   4.621   0.602   0.960
  700TIP3    H2 2046   4.737   0.667   1.032
  701TIP3   OH2 2047   5.252   3.372   0.630
  701TIP3    H1 2048   5.221   3.432   0.698
  701TIP3    H2 2049   5.220   3.286   0.658
  702TIP3   OH2 2050   1.150   5.690   4.797
  702TIP3    H1 2051   1.232   5.717   4.839
  702TIP3    H2 2052   1.118   5.619   4.852
  703TIP3   OH2 2053   7.656   0.900   3.255
  703TIP3    H1 2054   7.653   0.995   3.270
  703TIP3    H2 2055   7.601   0.863   3.324
  704TIP3   OH2 2056   1.279   1.537   0.106
  704TIP3    H1 2057   1.301   1.606   0.043
  704TIP3    H2 2058   1.317   1.457   0.069
  705TIP3   OH2 2059   6.699   4.581   5.987
  705TIP3    H1 2060   6.616   4.591   6.034
  705TIP3    H2 2061   6.673   4.563   5.897
  706TIP3   OH2 2062   3.889   0.415   2.948
  706TIP3    H1 2063   3.879   0.448   2.859
  706TIP3    H2 2064   3.849   0.328   2.946
  707TIP3   OH2 2065   3.871   3.094   6.228
  707TIP3    H1 2066   3.837   3.036   6.160
  707TIP3    H2 2067   3.795   3.142   6.260
  708TIP3   OH2 2068   6.580   1.567   4.963
  708TIP3    H1 2069   6.521   1.602   4.896
  708TIP3    H2 2070   6.664   1.610   4.945
  709TIP3   OH2 2071   6.897   3.988   1.943
  709TIP3    H1 2072   6.912   3.979   2.037
  709TIP3    H2 2073   6.812   3.946   1.928
  710TIP3   OH2 2074   6.527   4.833   3.700
  710TIP3    H1 2075   6.584   4.804   3.771
  710TIP3    H2 2076   6.440   4.836   3.740
  711TIP3   OH2 2077   7.535   7.323   6.309
  711TIP3    H1 2078   7.498   7.395   6.360
  711TIP3    H2 2079   7.618   7.358   6.276
  712TIP3   OH2 2080   0.463   1.251   4.611
  712TIP3    H1 2081   0.488   1.196   4.686
  712TIP3    H2 2082   0.499   1.337   4.631
  713TIP3   OH2 2083   6.295   2.441   3.124
  713TIP3    H1 2084   6.270   2.437   3.032
  713TIP3    H2 2085   6.389   2.424   3.124
  714TIP3   OH2 2086   0.107   5.762   3.358
  714TIP3    H1 2087   0.078   5.711   3.282
  714TIP3    H2 2088   0.027   5.780   3.406
  715TIP3   OH2 2089   6.009   3.009   0.148
  715TIP3    H1 2090   5.976   2.998   0.059
  715TIP3    H2 2091   6.086   2.953   0.153
  716TIP3   OH2 2092   1.792   2.903   2.010
  716TIP3    H1 2093   1.788   2.905   2.106
  716TIP3    H2 2094   1.701   2.898   1.982
  717TIP3   OH2 2095   2.005   6.369   1.903
  717TIP3    H1 2096   2.067   6.388   1.973
  717TIP3    H2 2097   1.945   6.443   1.903
  718TIP3   OH2 2098   0.035   5.896   2.670
  718TIP3    H1 2099   0.075   5.871   2.587
  718TIP3    H2 2100  -0.043   5.841   2.677
  719TIP3   OH2 2101   4.555   2.345   3.513
  719TIP3    H1 2102   4.475   2.297   3.490
  719TIP3    H2 2103   4.595   2.293   3.583
  720TIP3   OH2 2104   2.360   3.189   3.280
  720TIP3    H1 2105   2.424   3.120   3.266
  720TIP3    H2 2106   2.329   3.175   3.370
  721TIP3   OH2 2107   6.038   7.603   1.869
  721TIP3    H1 2108   6.058   7.581   1.778
  721TIP3    H2 2109   6.086   7.685   1.884
  722TIP3   OH2 2110   0.401   2.952   2.319
  722TIP3    H1 2111   0.326   2.948   2.379
  722TIP3    H2 2112   0.406   2.865   2.280
  723TIP3   OH2 2113   2.545   1.272   6.678
  723TIP3    H1 2114   2.506   1.195   6.637
  723TIP3    H2 2115   2.633   1.245   6.701
  724TIP3   OH2 2116   7.310   3.410   3.161
  724TIP3    H1 2117   7.248   3.475   3.193
  724TIP3    H2 2118   7.256   3.343   3.121
  725TIP3   OH2 2119   3.703   1.193   0.945
  725TIP3    H1 2120   3.773   1.234   0.894
  725TIP3    H2 2121   3.626   1.200   0.889
  726TIP3   OH2 2122   4.931   1.398   6.504
  726TIP3    H1 2123   4.915   1.343   6.581
  726TIP3    H2 2124   5.024   1.385   6.485
  727TIP3   OH2 2125   0.464   4.740   2.489
  727TIP3    H1 2126   0.485   4.668   2.548
  727TIP3    H2 2127   0.381   4.774   2.521
  728TIP3   OH2 2128   1.069   7.394   1.823
  728TIP3    H1 2129   1.142   7.437   1.866
  728TIP3    H2 2130   1.109   7.343   1.752
  729TIP3   OH2 2131   3.134   4.650   5.543
  729TIP3    H1 2132   3.091   4.574   5.502
  729TIP3    H2 2133   3.228   4.630   5.537
  730TIP3   OH2 2134   2.303   7.225   2.259
  730TIP3    H1 2135   2.303   7.203   2.166
  730TIP3    H2 2136   2.237   7.167   2.298
  731TIP3   OH2 2137   3.501   1.078   3.023
  731TIP3    H1 2138   3.536   1.010   3.080
  731TIP3    H2 2139   3.552   1.156   3.044
  732TIP3   OH2 2140   6.674   0.182   5.346
  732TIP3    H1 2141   6.593   0.151   5.305
  732TIP3    H2 2142   6.644   0.227   5.425
  733TIP3   OH2 2143   5.146   3.122   1.774
  733TIP3    H1 2144   5.083   3.193   1.766
  733TIP3    H2 2145   5.144   3.078   1.689
  734TIP3   OH2 2146   0.034   6.575   3.685
  734TIP3    H1 2147   0.087   6.547   3.609
  734TIP3    H2 2148   0.002   6.662   3.660
  735TIP3   OH2 2149   3.539   3.085   4.897
  735TIP3    H1 2150   3.631   3.073   4.874
  735TIP3    H2 2151   3.534   3.060   4.989
  736TIP3   OH2 2152   7.496   3.320   5.511
  736TIP3    H1 2153   7.587   3.303   5.532
  736TIP3    H2 2154   7.448   3.298   5.591
  737TIP3   OH2 2155   0.415   6.946   1.546
  737TIP3    H1 2156   0.435   6.852   1.552
  737TIP3    H2 2157   0.384   6.969   1.633
  738TIP3   OH2 2158   0.349   5.002   5.075
  738TIP3    H1 2159   0.338   4.952   4.995
  738TIP3    H2 2160   0.283   5.070   5.070
  739TIP3   OH2 2161   6.956   4.166   6.537
  739TIP3    H1 2162   6.873   4.165   6.584
  739TIP3    H2 2163   6.938   4.215   6.457
  740TIP3   OH2 2164   4.633   5.866   0.937
  740TIP3    H1 2165   4.702   5.872   1.002
  740TIP3    H2 2166   4.674   5.894   0.855
  741TIP3   OH2 2167   6.698   1.795   4.705
  741TIP3    H1 2168   6.686   1.701   4.714
  741TIP3    H2 2169   6.697   1.828   4.795
  742TIP3   OH2 2170   0.783   4.064   0.283
  742TIP3    H1 2171   0.865   4.061   0.233
  742TIP3    H2 2172   0.799   4.129   0.351
  743TIP3   OH2 2173   5.213   7.456   5.458
  743TIP3    H1 2174   5.217   7.434   5.365
  743TIP3    H2 2175   5.184   7.375   5.501
  744TIP3   OH2 2176   7.253   1.870   3.826
  744TIP3    H1 2177   7.277   1.918   3.905
  744TIP3    H2 2178   7.211   1.935   3.770
  745TIP3   OH2 2179   0.260   4.476   6.065
  745TIP3    H1 2180   0.278   4.394   6.111
  745TIP3    H2 2181   0.293   4.463   5.977
  746TIP3   OH2 2182   4.688   0.678   3.758
  746TIP3    H1 2183   4.758   0.685   3.823
  746TIP3    H2 2184   4.607   0.695   3.806
  747TIP3   OH2 2185   2.521   2.202   5.812
  747TIP3    H1 2186   2.450   2.174   5.754
  747TIP3    H2 2187   2.518   2.297   5.808
  748TIP3   OH2 2188   5.174   7.295   0.379
  748TIP3    H1 2189   5.217   7.255   0.455
  748TIP3    H2 2190   5.120   7.224   0.343
  749TIP3   OH2 2191   7.824   6.764   0.451
  749TIP3    H1 2192   7.907   6.811   0.452
  749TIP3    H2 2193   7.763   6.823   0.407
  750TIP3   OH2 2194   1.233   5.797   5.998
  750TIP3    H1 2195   1.150   5.824   6.039
  750TIP3    H2 2196   1.242   5.705   6.021
  751TIP3   OH2 2197   5.251   0.360   6.402
  751TIP3    H1 2198   5.215   0.411   6.329
  751TIP3    H2 2199   5.330   0.408   6.427
  752TIP3   OH2 2200   6.299   3.739   3.283
  752TIP3    H1 2201   6.350   3.660   3.301
  752TIP3    H2 2202   6.285   3.779   3.369
  753TIP3   OH2 2203   3.196   2.577   0.417
  753TIP3    H1 2204   3.110   2.582   0.458
  753TIP3    H2 2205   3.194   2.494   0.368
  754TIP3   OH2 2206   7.125   3.195   0.373
  754TIP3    H1 2207   7.075   3.195   0.455
  754TIP3    H2 2208   7.206   3.240   0.395
  755TIP3   OH2 2209   7.030   0.364   2.417
  755TIP3    H1 2210   6.999   0.399   2.500
  755TIP3    H2 2211   6.999   0.428   2.352
  756TIP3   OH2 2212   8.189   7.041   6.778
  756TIP3    H1 2213   8.180   7.029   6.683
  756TIP3    H2 2214   8.282   7.028   6.795
  757TIP3   OH2 2215   6.168   4.929   0.612
  757TIP3    H1 2216   6.194   4.874   0.685
  757TIP3    H2 2217   6.228   5.004   0.614
  758TIP3   OH2 2218   6.394   0.609   2.756
  758TIP3    H1 2219   6.399   0.669   2.682
  758TIP3    H2 2220   6.413   0.663   2.833
  759TIP3   OH2 2221   8.212   6.069   5.031
  759TIP3    H1 2222   8.142   6.090   4.969
  759TIP3    H2 2223   8.169   6.070   5.117
  760TIP3   OH2 2224   7.085   7.671   6.525
  760TIP3    H1 2225   7.163   7.616   6.517
  760TIP3    H2 2226   7.084   7.724   6.445
  761TIP3   OH2 2227   4.454   0.330   4.871
  761TIP3    H1 2228   4.432   0.329   4.964
  761TIP3    H2 2229   4.495   0.245   4.855
  762TIP3   OH2 2230   0.081   2.890   2.936
  762TIP3    H1 2231   0.041   2.911   3.021
  762TIP3    H2 2232   0.077   2.972   2.887
  763TIP3   OH2 2233   7.116   0.289   3.095
  763TIP3    H1 2234   7.206   0.287   3.064
  763TIP3    H2 2235   7.124   0.300   3.190
  764TIP3   OH2 2236   1.143   4.924   2.677
  764TIP3    H1 2237   1.184   5.010   2.676
  764TIP3    H2 2238   1.216   4.862   2.683
  765TIP3   OH2 2239   1.262   3.166   4.802
  765TIP3    H1 2240   1.265   3.071   4.792
  765TIP3    H2 2241   1.179   3.182   4.847
  766TIP3   OH2 2242   0.266   4.502   6.403
  766TIP3    H1 2243   0.353   4.535   6.381
  766TIP3    H2 2244   0.216   4.580   6.426
  767TIP3   OH2 2245   3.215   0.289   5.227
  767TIP3    H1 2246   3.291   0.293   5.168
  767TIP3    H2 2247   3.145   0.253   5.173
  768TIP3   OH2 2248   7.836   4.103   1.645
  768TIP3    H1 2249   7.762   4.114   1.705
  768TIP3    H2 2250   7.841   4.009   1.631
  769TIP3   OH2 2251   2.326   2.892   6.713
  769TIP3    H1 2252   2.351   2.800   6.719
  769TIP3    H2 2253   2.265   2.896   6.639
  770TIP3   OH2 2254   3.735   1.536   1.829
  770TIP3    H1 2255   3.761   1.521   1.738
  770TIP3    H2 2256   3.683   1.616   1.827
  771TIP3   OH2 2257   7.974   5.665   1.233
  771TIP3    H1 2258   7.926   5.694   1.155
  771TIP3    H2 2259   7.971   5.740   1.292
  772TIP3   OH2 2260   2.135   2.213   6.010
  772TIP3    H1 2261   2.222   2.225   6.049
  772TIP3    H2 2262   2.083   2.173   6.079
  773TIP3   OH2 2263   3.651   4.909   5.280
  773TIP3    H1 2264   3.592   4.903   5.355
  773TIP3    H2 2265   3.656   5.002   5.260
  774TIP3   OH2 2266   3.202   5.690   0.710
  774TIP3    H1 2267   3.157   5.606   0.699
  774TIP3    H2 2268   3.292   5.673   0.682
  775TIP3   OH2 2269   5.161   6.696   5.080
  775TIP3    H1 2270   5.168   6.634   5.007
  775TIP3    H2 2271   5.120   6.773   5.042
  776TIP3   OH2 2272   0.147   4.335   5.572
  776TIP3    H1 2273   0.129   4.420   5.611
  776TIP3    H2 2274   0.076   4.278   5.603
  777TIP3   OH2 2275   3.159   0.076   3.493
  777TIP3    H1 2276   3.084   0.078   3.553
  777TIP3    H2 2277   3.232   0.112   3.544
  778TIP3   OH2 2278   4.197   6.248   6.156
  778TIP3    H1 2279   4.128   6.214   6.099
  778TIP3    H2 2280   4.263   6.283   6.095
  779TIP3   OH2 2281   7.609   2.351   5.927
  779TIP3    H1 2282   7.641   2.265   5.953
  779TIP3    H2 2283   7.577   2.339   5.838
  780TIP3   OH2 2284   5.440   0.755   3.552
  780TIP3    H1 2285   5.454   0.846   3.579
  780TIP3    H2 2286   5.489   0.703   3.615
  781TIP3   OH2 2287   7.794   0.717   5.882
  781TIP3    H1 2288   7.741   0.638   5.886
  781TIP3    H2 2289   7.853   0.703   5.807
  782TIP3   OH2 2290   2.762   0.611   1.439
  782TIP3    H1 2291   2.778   0.590   1.530
  782TIP3    H2 2292   2.666   0.606   1.430
  783TIP3   OH2 2293   3.105   0.835   0.458
  783TIP3    H1 2294   3.149   0.843   0.543
  783TIP3    H2 2295   3.142   0.906   0.405
  784TIP3   OH2 2296   4.217   3.562   3.940
  784TIP3    H1 2297   4.285   3.559   4.008
  784TIP3    H2 2298   4.262   3.599   3.864
  785TIP3   OH2 2299   2.726   2.072   1.821
  785TIP3    H1 2300   2.692   1.995   1.776
  785TIP3    H2 2301   2.712   2.055   1.914
  786TIP3   OH2 2302   6.285   2.575   1.747
  786TIP3    H1 2303   6.367   2.604   1.788
  786TIP3    H2 2304   6.287   2.614   1.659
  787TIP3   OH2 2305   6.912   3.651   4.215
  787TIP3    H1 2306   6.912   3.599   4.134
  787TIP3    H2 2307   6.918   3.742   4.185
  788TIP3   OH2 2308   4.459   3.550   3.550
  788TIP3    H1 2309   4.437   3.611   3.621
  788TIP3    H2 2310   4.539   3.508   3.580
  789TIP3   OH2 2311   4.771   0.055   0.413
  789TIP3    H1 2312   4.766  -0.004   0.488
  789TIP3    H2 2313   4.775   0.142   0.452
  790TIP3   OH2 2314   5.164   4.682   5.639
  790TIP3    H1 2315   5.082   4.727   5.618
  790TIP3    H2 2316   5.183   4.709   5.729
  791TIP3   OH2 2317   1.861   5.387   2.438
  791TIP3    H1 2318   1.867   5.298   2.473
  791TIP3    H2 2319   1.933   5.393   2.376
  792TIP3   OH2 2320   3.786   2.780   4.879
  792TIP3    H1 2321   3.779   2.857   4.823
  792TIP3    H2 2322   3.698   2.743   4.881
  793TIP3   OH2 2323   5.540   1.161   1.357
  793TIP3    H1 2324   5.626   1.198   1.336
  793TIP3    H2 2325   5.487   1.236   1.382
  794TIP3   OH2 2326   4.885   1.106   0.127
  794TIP3    H1 2327   4.826   1.170   0.164
  794TIP3    H2 2328   4.845   1.021   0.147
  795TIP3   OH2 2329   4.950   4.487   5.107
  795TIP3    H1 2330   4.993   4.513   5.026
  795TIP3    H2 2331   4.984   4.547   5.173
  796TIP3   OH2 2332   3.627   2.306   3.025
  796TIP3    H1 2333   3.608   2.246   3.097
  796TIP3    H2 2334   3.542   2.344   3.003
  797TIP3   OH2 2335   4.476   3.433   3.293
  797TIP3    H1 2336   4.503   3.495   3.226
  797TIP3    H2 2337   4.481   3.482   3.375
  798TIP3   OH2 2338   3.555   4.914   0.467
  798TIP3    H1 2339   3.614   4.867   0.408
  798TIP3    H2 2340   3.599   4.911   0.552
  799TIP3   OH2 2341   5.099   4.433   1.013
  799TIP3    H1 2342   5.033   4.485   1.060
  799TIP3    H2 2343   5.180   4.451   1.059
  800TIP3   OH2 2344   5.380   4.496   6.439
  800TIP3    H1 2345   5.336   4.579   6.421
  800TIP3    H2 2346   5.310   4.431   6.433
  801TIP3   OH2 2347   2.816   0.226   0.610
  801TIP3    H1 2348   2.892   0.276   0.580
  801TIP3    H2 2349   2.850   0.138   0.626
  802TIP3   OH2 2350   6.709   3.493   5.158
  802TIP3    H1 2351   6.756   3.461   5.081
  802TIP3    H2 2352   6.626   3.445   5.157
  803TIP3   OH2 2353   1.882   3.217   0.233
  803TIP3    H1 2354   1.885   3.239   0.326
  803TIP3    H2 2355   1.807   3.157   0.225
  804TIP3   OH2 2356   0.907   3.068   5.417
  804TIP3    H1 2357   0.831   3.126   5.414
  804TIP3    H2 2358   0.940   3.067   5.327
  805TIP3   OH2 2359   3.133   2.823   0.694
  805TIP3    H1 2360   3.089   2.891   0.643
  805TIP3    H2 2361   3.166   2.762   0.628
  806TIP3   OH2 2362   3.649   2.854   6.710
  806TIP3    H1 2363   3.680   2.778   6.662
  806TIP3    H2 2364   3.671   2.929   6.654
  807TIP3   OH2 2365   4.816   4.974   4.022
  807TIP3    H1 2366   4.809   5.066   4.046
  807TIP3    H2 2367   4.889   4.941   4.074
  808TIP3   OH2 2368   6.766   2.716   0.494
  808TIP3    H1 2369   6.845   2.745   0.448
  808TIP3    H2 2370   6.722   2.658   0.432
  809TIP3   OH2 2371   4.052   5.529   2.878
  809TIP3    H1 2372   4.029   5.531   2.785
  809TIP3    H2 2373   3.969   5.519   2.924
  810TIP3   OH2 2374   5.583   6.254   4.101
  810TIP3    H1 2375   5.521   6.181   4.109
  810TIP3    H2 2376   5.669   6.213   4.108
  811TIP3   OH2 2377   7.336   1.053   3.975
  811TIP3    H1 2378   7.288   0.973   3.999
  811TIP3    H2 2379   7.272   1.123   3.986
  812TIP3   OH2 2380   5.028   1.123   1.619
  812TIP3    H1 2381   5.100   1.059   1.613
  812TIP3    H2 2382   4.967   1.084   1.682
  813TIP3   OH2 2383   1.945   3.038   2.667
  813TIP3    H1 2384   1.880   3.094   2.625
  813TIP3    H2 2385   1.895   2.961   2.696
  814TIP3   OH2 2386   4.634   5.030   0.529
  814TIP3    H1 2387   4.677   5.033   0.444
  814TIP3    H2 2388   4.573   5.103   0.529
  815TIP3   OH2 2389   2.880  -0.012   4.481
  815TIP3    H1 2390   2.948  -0.053   4.534
  815TIP3    H2 2391   2.895   0.082   4.492
  816TIP3   OH2 2392   4.183   3.535   3.240
  816TIP3    H1 2393   4.247   3.465   3.228
  816TIP3    H2 2394   4.164   3.535   3.334
  817TIP3   OH2 2395   3.434   5.553   6.500
  817TIP3    H1 2396   3.379   5.609   6.446
  817TIP3    H2 2397   3.476   5.494   6.438
  818TIP3   OH2 2398   6.264   3.739   2.530
  818TIP3    H1 2399   6.341   3.754   2.584
  818TIP3    H2 2400   6.192   3.780   2.578
  819TIP3   OH2 2401   7.001   3.234   0.135
  819TIP3    H1 2402   7.022   3.327   0.148
  819TIP3    H2 2403   7.036   3.191   0.213
  820TIP3   OH2 2404   7.437   6.373   4.458
  820TIP3    H1 2405   7.347   6.343   4.449
  820TIP3    H2 2406   7.469   6.332   4.538
  821TIP3   OH2 2407   0.857   7.588   1.754
  821TIP3    H1 2408   0.840   7.681   1.767
  821TIP3    H2 2409   0.924   7.566   1.819
  822TIP3   OH2 2410   4.971   6.191   2.507
  822TIP3    H1 2411   4.965   6.107   2.554
  822TIP3    H2 2412   4.890   6.237   2.531
  823TIP3   OH2 2413   1.834   2.324   3.893
  823TIP3    H1 2414   1.914   2.361   3.930
  823TIP3    H2 2415   1.840   2.230   3.912
  824TIP3   OH2 2416   2.784   1.147   4.578
  824TIP3    H1 2417   2.870   1.188   4.578
  824TIP3    H2 2418   2.737   1.189   4.506
  825TIP3   OH2 2419   3.888   1.577   4.062
  825TIP3    H1 2420   3.802   1.575   4.019
  825TIP3    H2 2421   3.896   1.491   4.104
  826TIP3   OH2 2422   6.614   1.455   1.229
  826TIP3    H1 2423   6.522   1.474   1.249
  826TIP3    H2 2424   6.643   1.531   1.179
  827TIP3   OH2 2425   2.784   6.322   2.592
  827TIP3    H1 2426   2.717   6.388   2.576
  827TIP3    H2 2427   2.840   6.361   2.659
  828TIP3   OH2 2428   0.480   2.198   6.751
  828TIP3    H1 2429   0.427   2.275   6.772
  828TIP3    H2 2430   0.435   2.126   6.794
  829TIP3   OH2 2431   4.290   5.066   5.592
  829TIP3    H1 2432   4.220   5.001   5.589
  829TIP3    H2 2433   4.301   5.093   5.501
  830TIP3   OH2 2434   4.151   7.504   0.459
  830TIP3    H1 2435   4.152   7.550   0.375
  830TIP3    H2 2436   4.234   7.528   0.500
  831TIP3   OH2 2437   0.427   0.015   5.037
  831TIP3    H1 2438   0.446   0.041   5.127
  831TIP3    H2 2439   0.461   0.086   4.984
  832TIP3   OH2 2440   1.180   1.740   2.430
  832TIP3    H1 2441   1.208   1.653   2.401
  832TIP3    H2 2442   1.232   1.801   2.377
  833TIP3   OH2 2443   2.884   2.669   1.214
  833TIP3    H1 2444   2.951   2.637   1.154
  833TIP3    H2 2445   2.932   2.720   1.279
  834TIP3   OH2 2446   4.367   6.200   3.244
  834TIP3    H1 2447   4.329   6.182   3.330
  834TIP3    H2 2448   4.291   6.212   3.187
  835TIP3   OH2 2449   6.605   0.296   5.802
  835TIP3    H1 2450   6.624   0.202   5.794
  835TIP3    H2 2451   6.533   0.300   5.865
  836TIP3   OH2 2452   2.134   3.175   3.835
  836TIP3    H1 2453   2.116   3.087   3.803
  836TIP3    H2 2454   2.062   3.228   3.803
  837TIP3   OH2 2455   4.059   4.412   5.359
  837TIP3    H1 2456   3.968   4.383   5.364
  837TIP3    H2 2457   4.110   4.340   5.396
  838TIP3   OH2 2458   8.164   0.631   0.961
  838TIP3    H1 2459   8.229   0.587   0.906
  838TIP3    H2 2460   8.108   0.679   0.900
  839TIP3   OH2 2461   3.523   1.726   1.878
  839TIP3    H1 2462   3.454   1.672   1.839
  839TIP3    H2 2463   3.497   1.816   1.860
  840TIP3   OH2 2464   5.746   1.132   5.533
  840TIP3    H1 2465   5.695   1.051   5.537
  840TIP3    H2 2466   5.758   1.149   5.439
  841TIP3   OH2 2467   7.861   2.369   5.598
  841TIP3    H1 2468   7.950   2.373   5.635
  841TIP3    H2 2469   7.870   2.408   5.511
  842TIP3   OH2 2470   5.481   4.114   1.920
  842TIP3    H1 2471   5.452   4.037   1.969
  842TIP3    H2 2472   5.573   4.125   1.945
  843TIP3   OH2 2473   0.360   1.652   1.452
  843TIP3    H1 2474   0.264   1.654   1.451
  843TIP3    H2 2475   0.386   1.705   1.376
  844TIP3   OH2 2476   2.773   4.924   4.601
  844TIP3    H1 2477   2.700   4.919   4.663
  844TIP3    H2 2478   2.808   5.013   4.612
  845TIP3   OH2 2479   4.631   1.754   3.580
  845TIP3    H1 2480   4.698   1.773   3.515
  845TIP3    H2 2481   4.554   1.802   3.551
  846TIP3   OH2 2482   0.442   6.702   1.982
  846TIP3    H1 2483   0.531   6.718   2.014
  846TIP3    H2 2484   0.403   6.646   2.049
  847TIP3   OH2 2485   7.921   5.621   3.440
  847TIP3    H1 2486   7.896   5.575   3.359
  847TIP3    H2 2487   7.927   5.713   3.414
  848TIP3   OH2 2488   2.016   6.382   4.485
  848TIP3    H1 2489   1.970   6.300   4.503
  848TIP3    H2 2490   2.044   6.375   4.394
  849TIP3   OH2 2491   7.868   1.121   4.838
  849TIP3    H1 2492   7.812   1.115   4.761
  849TIP3    H2 2493   7.810   1.099   4.911
  850TIP3   OH2 2494   4.108   5.116   0.235
  850TIP3    H1 2495   4.039   5.173   0.271
  850TIP3    H2 2496   4.143   5.069   0.310
  851TIP3   OH2 2497   7.908   2.847   0.095
  851TIP3    H1 2498   7.925   2.773   0.152
  851TIP3    H2 2499   7.841   2.899   0.140
  852TIP3   OH2 2500   3.147   5.334   0.785
  852TIP3    H1 2501   3.092   5.282   0.727
  852TIP3    H2 2502   3.235   5.297   0.774
  853TIP3   OH2 2503   7.409   3.683   1.162
  853TIP3    H1 2504   7.408   3.770   1.202
  853TIP3    H2 2505   7.318   3.669   1.133
  854TIP3   OH2 2506   2.260   0.565   5.825
  854TIP3    H1 2507   2.276   0.642   5.879
  854TIP3    H2 2508   2.347   0.536   5.798
  855TIP3   OH2 2509   0.049   3.330   5.198
  855TIP3    H1 2510   0.008   3.416   5.206
  855TIP3    H2 2511  -0.024   3.268   5.201
  856TIP3   OH2 2512   7.058   5.980   4.646
  856TIP3    H1 2513   6.990   6.019   4.591
  856TIP3    H2 2514   7.139   5.993   4.598
  857TIP3   OH2 2515   1.894   1.611   3.550
  857TIP3    H1 2516   1.844   1.533   3.525
  857TIP3    H2 2517   1.907   1.602   3.644
  858TIP3   OH2 2518   2.557   6.298   6.692
  858TIP3    H1 2519   2.550   6.389   6.663
  858TIP3    H2 2520   2.476   6.284   6.743
  859TIP3   OH2 2521   0.150   0.462   3.643
  859TIP3    H1 2522   0.132   0.474   3.550
  859TIP3    H2 2523   0.211   0.389   3.647
  860TIP3   OH2 2524   5.350   5.103   4.398
  860TIP3    H1 2525   5.308   5.178   4.358
  860TIP3    H2 2526   5.439   5.133   4.418
  861TIP3   OH2 2527   7.332   6.432   6.716
  861TIP3    H1 2528   7.255   6.457   6.665
  861TIP3    H2 2529   7.299   6.364   6.776
  862TIP3   OH2 2530   4.790   2.545   0.506
  862TIP3    H1 2531   4.782   2.458   0.547
  862TIP3    H2 2532   4.717   2.595   0.542
  863TIP3   OH2 2533   3.983   2.946   0.583
  863TIP3    H1 2534   4.010   2.976   0.669
  863TIP3    H2 2535   3.907   2.890   0.599
  864TIP3   OH2 2536   7.533   1.309   0.371
  864TIP3    H1 2537   7.455   1.295   0.316
  864TIP3    H2 2538   7.501   1.298   0.460
  865TIP3   OH2 2539   4.026   0.747   2.746
  865TIP3    H1 2540   4.102   0.723   2.692
  865TIP3    H2 2541   4.050   0.720   2.834
  866TIP3   OH2 2542   3.260   7.244   4.460
  866TIP3    H1 2543   3.347   7.205   4.474
  866TIP3    H2 2544   3.203   7.170   4.443
  867TIP3   OH2 2545   7.639   1.632   3.160
  867TIP3    H1 2546   7.547   1.656   3.150
  867TIP3    H2 2547   7.650   1.617   3.253
  868TIP3   OH2 2548   6.937   6.199   5.854
  868TIP3    H1 2549   6.943   6.292   5.874
  868TIP3    H2 2550   7.000   6.158   5.914
  869TIP3   OH2 2551   1.240   2.563   4.083
  869TIP3    H1 2552   1.215   2.589   3.995
  869TIP3    H2 2553   1.253   2.469   4.078
  870TIP3   OH2 2554   5.282   7.736   0.720
  870TIP3    H1 2555   5.191   7.738   0.751
  870TIP3    H2 2556   5.334   7.767   0.794
  871TIP3   OH2 2557   2.596   1.364   2.892
  871TIP3    H1 2558   2.664   1.350   2.826
  871TIP3    H2 2559   2.548   1.441   2.862
  872TIP3   OH2 2560   2.944   1.898   4.514
  872TIP3    H1 2561   2.939   1.907   4.609
  872TIP3    H2 2562   2.888   1.822   4.494
  873TIP3   OH2 2563   5.713   3.094   0.028
  873TIP3    H1 2564   5.774   3.168   0.031
  873TIP3    H2 2565   5.764   3.022  -0.010
  874TIP3   OH2 2566   0.377   0.830   0.256
  874TIP3    H1 2567   0.310   0.835   0.187
  874TIP3    H2 2568   0.460   0.841   0.209
  875TIP3   OH2 2569   3.732   7.105   2.596
  875TIP3    H1 2570   3.644   7.136   2.576
  875TIP3    H2 2571   3.784   7.130   2.520
  876TIP3   OH2 2572   3.384   6.116   3.669
  876TIP3    H1 2573   3.427   6.193   3.633
  876TIP3    H2 2574   3.314   6.096   3.607
  877TIP3   OH2 2575   0.145   2.566   5.022
  877TIP3    H1 2576   0.175   2.538   4.936
  877TIP3    H2 2577   0.052   2.542   5.023
  878TIP3   OH2 2578   3.884   1.266   3.861
  878TIP3    H1 2579   3.968   1.243   3.898
  878TIP3    H2 2580   3.819   1.225   3.919
  879TIP3   OH2 2581   0.465   5.251   5.388
  879TIP3    H1 2582   0.470   5.216   5.477
  879TIP3    H2 2583   0.375   5.237   5.361
  880TIP3   OH2 2584   4.962   4.810   0.960
  880TIP3    H1 2585   4.925   4.759   0.889
  880TIP3    H2 2586   4.956   4.753   1.037
  881TIP3   OH2 2587   0.551   7.748   1.677
  881TIP3    H1 2588   0.564   7.729   1.769
  881TIP3    H2 2589   0.527   7.664   1.637
  882TIP3   OH2 2590   5.889   3.157   3.765
  882TIP3    H1 2591   5.973   3.115   3.744
  882TIP3    H2 2592   5.898   3.184   3.857
  883TIP3   OH2 2593   7.821  -0.011   3.650
  883TIP3    H1 2594   7.741  -0.016   3.597
  883TIP3    H2 2595   7.876   0.052   3.605
  884TIP3   OH2 2596   4.717   5.766   5.484
  884TIP3    H1 2597   4.751   5.688   5.528
  884TIP3    H2 2598   4.691   5.824   5.556
  885TIP3   OH2 2599   4.852   6.678   1.983
  885TIP3    H1 2600   4.759   6.695   1.969
  885TIP3    H2 2601   4.875   6.616   1.914
  886TIP3   OH2 2602   3.884   6.969   5.276
  886TIP3    H1 2603   3.847   6.898   5.224
  886TIP3    H2 2604   3.946   7.011   5.217
  887TIP3   OH2 2605   2.526   7.134   4.141
  887TIP3    H1 2606   2.536   7.089   4.058
  887TIP3    H2 2607   2.616   7.140   4.176
  888TIP3   OH2 2608   5.894   0.865   4.563
  888TIP3    H1 2609   5.882   0.939   4.503
  888TIP3    H2 2610   5.861   0.896   4.647
  889TIP3   OH2 2611   3.569   2.574   3.369
  889TIP3    H1 2612   3.659   2.590   3.339
  889TIP3    H2 2613   3.521   2.653   3.342
  890TIP3   OH2 2614   5.182   1.799   1.408
  890TIP3    H1 2615   5.226   1.775   1.490
  890TIP3    H2 2616   5.163   1.715   1.365
  891TIP3   OH2 2617   3.407   4.473   6.379
  891TIP3    H1 2618   3.336   4.413   6.354
  891TIP3    H2 2619   3.379   4.558   6.346
  892TIP3   OH2 2620   3.810   2.996   0.180
  892TIP3    H1 2621   3.725   3.039   0.192
  892TIP3    H2 2622   3.848   3.038   0.103
  893TIP3   OH2 2623   4.060   1.468   2.975
  893TIP3    H1 2624   4.098   1.419   3.048
  893TIP3    H2 2625   4.135   1.489   2.919
  894TIP3   OH2 2626   3.938   4.020   2.210
  894TIP3    H1 2627   3.926   4.101   2.160
  894TIP3    H2 2628   3.908   3.951   2.152
  895TIP3   OH2 2629   0.027   3.145   3.807
  895TIP3    H1 2630   0.073   3.085   3.865
  895TIP3    H2 2631   0.074   3.228   3.817
  896TIP3   OH2 2632   4.362   7.109   6.477
  896TIP3    H1 2633   4.289   7.157   6.441
  896TIP3    H2 2634   4.430   7.113   6.410
  897TIP3   OH2 2635   6.122   1.518   0.577
  897TIP3    H1 2636   6.068   1.441   0.594
  897TIP3    H2 2637   6.064   1.592   0.597
  898TIP3   OH2 2638   4.323   5.643   3.697
  898TIP3    H1 2639   4.247   5.591   3.721
  898TIP3    H2 2640   4.286   5.726   3.665
  899TIP3   OH2 2641   5.001   3.693   1.717
  899TIP3    H1 2642   5.055   3.771   1.703
  899TIP3    H2 2643   5.002   3.680   1.812
  900TIP3   OH2 2644   0.900   3.614   2.154
  900TIP3    H1 2645   0.878   3.608   2.247
  900TIP3    H2 2646   0.968   3.681   2.150
  901TIP3   OH2 2647   5.207   2.440   0.456
  901TIP3    H1 2648   5.177   2.516   0.506
  901TIP3    H2 2649   5.302   2.438   0.471
  902TIP3   OH2 2650   3.105   4.372   2.828
  902TIP3    H1 2651   3.086   4.443   2.767
  902TIP3    H2 2652   3.174   4.322   2.785
  903TIP3   OH2 2653   2.460   5.747   3.781
  903TIP3    H1 2654   2.480   5.657   3.809
  903TIP3    H2 2655   2.543   5.780   3.746
  904TIP3   OH2 2656   0.310   3.384   4.790
  904TIP3    H1 2657   0.351   3.320   4.732
  904TIP3    H2 2658   0.382   3.440   4.818
  905TIP3   OH2 2659   0.057   7.417   2.662
  905TIP3    H1 2660   0.145   7.419   2.698
  905TIP3    H2 2661   0.031   7.509   2.657
  906TIP3   OH2 2662   0.731   1.457   0.114
  906TIP3    H1 2663   0.822   1.430   0.133
  906TIP3    H2 2664   0.728   1.549   0.140
  907TIP3   OH2 2665   4.147   3.023   1.892
  907TIP3    H1 2666   4.112   3.005   1.805
  907TIP3    H2 2667   4.139   3.118   1.902
  908TIP3   OH2 2668   4.136   3.569   5.865
  908TIP3    H1 2669   4.163   3.521   5.786
  908TIP3    H2 2670   4.051   3.532   5.887
  909TIP3   OH2 2671   4.312   4.747   1.788
  909TIP3    H1 2672   4.234   4.783   1.831
  909TIP3    H2 2673   4.385   4.796   1.827
  910TIP3   OH2 2674   4.757   1.455   2.254
  910TIP3    H1 2675   4.841   1.462   2.208
  910TIP3    H2 2676   4.769   1.383   2.316
  911TIP3   OH2 2677   3.451   5.420   3.018
  911TIP3    H1 2678   3.388   5.487   3.044
  911TIP3    H2 2679   3.440   5.350   3.082
  912TIP3   OH2 2680   6.748   4.933   6.692
  912TIP3    H1 2681   6.828   4.973   6.724
  912TIP3    H2 2682   6.778   4.871   6.625
  913TIP3   OH2 2683   6.805   7.694   2.725
  913TIP3    H1 2684   6.820   7.626   2.658
  913TIP3    H2 2685   6.712   7.684   2.748
  914TIP3   OH2 2686   0.425   5.333   2.804
  914TIP3    H1 2687   0.517   5.339   2.828
  914TIP3    H2 2688   0.393   5.257   2.853
  915TIP3   OH2 2689   1.600   1.760   2.922
  915TIP3    H1 2690   1.566   1.672   2.937
  915TIP3    H2 2691   1.524   1.812   2.896
  916TIP3   OH2 2692   2.043   0.080   0.585
  916TIP3    H1 2693   2.124   0.076   0.636
  916TIP3    H2 2694   2.022   0.173   0.580
  917TIP3   OH2 2695   7.927   1.049   2.571
  917TIP3    H1 2696   7.967   0.972   2.612
  917TIP3    H2 2697   8.001   1.103   2.544
  918TIP3   OH2 2698   4.884   6.879   0.163
  918TIP3    H1 2699   4.836   6.890   0.081
  918TIP3    H2 2700   4.912   6.787   0.162
  919TIP3   OH2 2701   8.260   3.257   2.495
  919TIP3    H1 2702   8.206   3.224   2.423
  919TIP3    H2 2703   8.340   3.288   2.453
  920TIP3   OH2 2704   6.314   3.150   5.926
  920TIP3    H1 2705   6.358   3.195   5.999
  920TIP3    H2 2706   6.223   3.178   5.932
  921TIP3   OH2 2707   5.757   4.540   0.824
  921TIP3    H1 2708   5.746   4.465   0.882
  921TIP3    H2 2709   5.741   4.505   0.737
  922TIP3   OH2 2710   7.349   3.288   4.186
  922TIP3    H1 2711   7.289   3.273   4.113
  922TIP3    H2 2712   7.355   3.204   4.231
  923TIP3   OH2 2713   3.798   3.842   3.845
  923TIP3    H1 2714   3.763   3.838   3.934
  923TIP3    H2 2715   3.806   3.935   3.827
  924TIP3   OH2 2716   7.866   2.244   3.112
  924TIP3    H1 2717   7.877   2.159   3.155
  924TIP3    H2 2718   7.952   2.285   3.116
  925TIP3   OH2 2719   6.303   2.794   1.559
  925TIP3    H1 2720   6.234   2.758   1.502
  925TIP3    H2 2721   6.339   2.867   1.509
  926TIP3   OH2 2722   2.119   6.870   4.499
  926TIP3    H1 2723   2.198   6.902   4.542
  926TIP3    H2 2724   2.096   6.791   4.548
  927TIP3   OH2 2725   5.765   5.977   2.745
  927TIP3    H1 2726   5.798   5.900   2.792
  927TIP3    H2 2727   5.689   6.005   2.796
  928TIP3   OH2 2728   4.205   0.683   4.375
  928TIP3    H1 2729   4.273   0.686   4.442
  928TIP3    H2 2730   4.155   0.763   4.388
  929TIP3   OH2 2731   5.186   4.984   2.996
  929TIP3    H1 2732   5.181   4.900   2.950
  929TIP3    H2 2733   5.094   5.008   3.012
  930TIP3   OH2 2734   1.684   4.017   3.639
  930TIP3    H1 2735   1.641   4.093   3.678
  930TIP3    H2 2736   1.764   4.053   3.600
  931TIP3   OH2 2737   5.249   0.735   0.363
  931TIP3    H1 2738   5.182   0.671   0.337
  931TIP3    H2 2739   5.198   0.807   0.401
  932TIP3   OH2 2740   8.029   5.667   1.761
  932TIP3    H1 2741   8.091   5.595   1.749
  932TIP3    H2 2742   7.946   5.623   1.781
  933TIP3   OH2 2743   5.241   3.253   6.606
  933TIP3    H1 2744   5.226   3.296   6.690
  933TIP3    H2 2745   5.156   3.256   6.562
  934TIP3   OH2 2746   0.349   0.454   2.236
  934TIP3    H1 2747   0.383   0.467   2.147
  934TIP3    H2 2748   0.423   0.421   2.286
  935TIP3   OH2 2749   0.187   5.113   5.922
  935TIP3    H1 2750   0.204   5.110   6.016
  935TIP3    H2 2751   0.198   5.022   5.893
  936TIP3   OH2 2752   3.732   2.483   0.537
  936TIP3    H1 2753   3.642   2.487   0.571
  936TIP3    H2 2754   3.774   2.415   0.588
  937TIP3   OH2 2755   7.522   2.785   0.541
  937TIP3    H1 2756   7.568   2.845   0.600
  937TIP3    H2 2757   7.477   2.842   0.478
  938TIP3   OH2 2758   0.736   2.533   1.325
  938TIP3    H1 2759   0.752   2.441   1.348
  938TIP3    H2 2760   0.652   2.553   1.365
  939TIP3   OH2 2761   7.958   0.516   5.725
  939TIP3    H1 2762   8.006   0.559   5.796
  939TIP3    H2 2763   7.894   0.460   5.769
  940TIP3   OH2 2764   4.008   4.417   1.573
  940TIP3    H1 2765   4.090   4.432   1.527
  940TIP3    H2 2766   3.994   4.322   1.567
  941TIP3   OH2 2767   5.161   2.949   3.164
  941TIP3    H1 2768   5.226   2.980   3.101
  941TIP3    H2 2769   5.107   2.887   3.115
  942TIP3   OH2 2770   0.256   7.352   0.756
  942TIP3    H1 2771   0.335   7.373   0.806
  942TIP3    H2 2772   0.185   7.354   0.819
  943TIP3   OH2 2773   0.559   1.825   4.818
  943TIP3    H1 2774   0.610   1.849   4.741
  943TIP3    H2 2775   0.469   1.816   4.786
  944TIP3   OH2 2776   4.509   2.471   1.570
  944TIP3    H1 2777   4.595   2.456   1.531
  944TIP3    H2 2778   4.521   2.546   1.629
  945TIP3   OH2 2779   5.252   3.179   5.560
  945TIP3    H1 2780   5.210   3.125   5.627
  945TIP3    H2 2781   5.342   3.189   5.591
  946TIP3   OH2 2782   7.178   1.494   3.448
  946TIP3    H1 2783   7.188   1.548   3.526
  946TIP3    H2 2784   7.111   1.430   3.472
  947TIP3   OH2 2785   5.002   2.951   4.703
  947TIP3    H1 2786   4.914   2.969   4.670
  947TIP3    H2 2787   4.997   2.863   4.740
  948TIP3   OH2 2788   7.582   5.813   1.700
  948TIP3    H1 2789   7.514   5.746   1.689
  948TIP3    H2 2790   7.660   5.764   1.724
  949TIP3   OH2 2791   6.759   4.729   3.381
  949TIP3    H1 2792   6.715   4.653   3.342
  949TIP3    H2 2793   6.850   4.701   3.392
  950TIP3   OH2 2794   0.281   6.252   0.084
  950TIP3    H1 2795   0.283   6.307   0.005
  950TIP3    H2 2796   0.320   6.169   0.057
  951TIP3   OH2 2797   3.903   6.323   2.187
  951TIP3    H1 2798   3.812   6.311   2.213
  951TIP3    H2 2799   3.901   6.395   2.124
  952TIP3   OH2 2800   5.256   4.949   5.091
  952TIP3    H1 2801   5.341   4.944   5.133
  952TIP3    H2 2802   5.200   4.996   5.153
  953TIP3   OH2 2803   3.980   3.590   0.630
  953TIP3    H1 2804   3.998   3.659   0.694
  953TIP3    H2 2805   4.046   3.604   0.562
  954TIP3   OH2 2806   4.169   7.037   2.270
  954TIP3    H1 2807   4.231   7.054   2.341
  954TIP3    H2 2808   4.156   7.122   2.228
  955TIP3   OH2 2809   1.642   4.753   2.478
  955TIP3    H1 2810   1.603   4.666   2.491
  955TIP3    H2 2811   1.735   4.736   2.468
  956TIP3   OH2 2812   4.154   7.058   4.837
  956TIP3    H1 2813   4.115   7.065   4.924
  956TIP3    H2 2814   4.122   6.975   4.803
  957TIP3   OH2 2815   4.975   5.351   6.255
  957TIP3    H1 2816   4.952   5.420   6.317
  957TIP3    H2 2817   5.050   5.386   6.207
  958TIP3   OH2 2818   0.688   2.097   5.145
  958TIP3    H1 2819   0.681   2.114   5.051
  958TIP3    H2 2820   0.722   2.008   5.151
  959TIP3   OH2 2821   0.866   4.440   5.511
  959TIP3    H1 2822   0.922   4.463   5.437
  959TIP3    H2 2823   0.913   4.475   5.588
  960TIP3   OH2 2824   6.136   5.275   3.198
  960TIP3    H1 2825   6.205   5.214   3.171
  960TIP3    H2 2826   6.068   5.219   3.235
  961TIP3   OH2 2827   6.673   4.591   3.125
  961TIP3    H1 2828   6.603   4.626   3.069
  961TIP3    H2 2829   6.754   4.625   3.086
  962TIP3   OH2 2830   7.134   1.572   4.057
  962TIP3    H1 2831   7.101   1.661   4.059
  962TIP3    H2 2832   7.228   1.582   4.043
  963TIP3   OH2 2833   0.768   1.205   3.730
  963TIP3    H1 2834   0.798   1.137   3.669
  963TIP3    H2 2835   0.808   1.285   3.698
  964TIP3   OH2 2836   7.067   1.253   6.700
  964TIP3    H1 2837   7.024   1.177   6.661
  964TIP3    H2 2838   7.161   1.236   6.687
  965TIP3   OH2 2839   7.569   5.682   1.413
  965TIP3    H1 2840   7.525   5.597   1.420
  965TIP3    H2 2841   7.637   5.680   1.480
  966TIP3   OH2 2842   5.270   3.270   0.199
  966TIP3    H1 2843   5.326   3.250   0.124
  966TIP3    H2 2844   5.243   3.361   0.185
  967TIP3   OH2 2845   5.960   5.795   5.327
  967TIP3    H1 2846   5.996   5.768   5.242
  967TIP3    H2 2847   5.909   5.719   5.356
  968TIP3   OH2 2848   4.439   4.359   4.961
  968TIP3    H1 2849   4.426   4.379   5.054
  968TIP3    H2 2850   4.509   4.419   4.933
  969TIP3   OH2 2851   8.076   5.652   5.935
  969TIP3    H1 2852   8.084   5.735   5.982
  969TIP3    H2 2853   8.159   5.641   5.890
  970TIP3   OH2 2854   3.360   2.317   0.668
  970TIP3    H1 2855   3.373   2.273   0.753
  970TIP3    H2 2856   3.437   2.374   0.660
  971TIP3   OH2 2857   3.684   4.776   0.229
  971TIP3    H1 2858   3.737   4.845   0.190
  971TIP3    H2 2859   3.623   4.750   0.160
  972TIP3   OH2 2860   6.837   4.976   2.078
  972TIP3    H1 2861   6.831   5.052   2.136
  972TIP3    H2 2862   6.907   4.923   2.116
  973TIP3   OH2 2863   6.313   7.514   1.767
  973TIP3    H1 2864   6.302   7.539   1.859
  973TIP3    H2 2865   6.264   7.581   1.719
  974TIP3   OH2 2866   5.122   7.013   5.960
  974TIP3    H1 2867   5.089   6.939   6.011
  974TIP3    H2 2868   5.204   6.981   5.922
  975TIP3   OH2 2869   2.326   6.230   1.935
  975TIP3    H1 2870   2.298   6.321   1.939
  975TIP3    H2 2871   2.410   6.228   1.981
  976TIP3   OH2 2872  -0.023   0.151   3.520
  976TIP3    H1 2873   0.059   0.109   3.547
  976TIP3    H2 2874   0.001   0.243   3.507
  977TIP3   OH2 2875   0.948   1.853   1.738
  977TIP3    H1 2876   0.887   1.922   1.716
  977TIP3    H2 2877   0.939   1.841   1.832
  978TIP3   OH2 2878   7.329   4.183   2.647
  978TIP3    H1 2879   7.307   4.242   2.575
  978TIP3    H2 2880   7.307   4.096   2.613
  979TIP3   OH2 2881   1.729   5.818   0.642
  979TIP3    H1 2882   1.819   5.818   0.676
  979TIP3    H2 2883   1.683   5.753   0.694
  980TIP3   OH2 2884   2.244   5.501   3.609
  980TIP3    H1 2885   2.304   5.481   3.681
  980TIP3    H2 2886   2.243   5.596   3.604
  981TIP3   OH2 2887   0.910   3.250   4.534
  981TIP3    H1 2888   0.823   3.283   4.555
  981TIP3    H2 2889   0.895   3.162   4.499
  982TIP3   OH2 2890   6.947   4.662   4.308
  982TIP3    H1 2891   6.957   4.717   4.231
  982TIP3    H2 2892   7.020   4.686   4.365
  983TIP3   OH2 2893   2.616   0.257   0.421
  983TIP3    H1 2894   2.617   0.350   0.396
  983TIP3    H2 2895   2.687   0.248   0.484
  984TIP3   OH2 2896   5.922   3.301   0.099
  984TIP3    H1 2897   6.015   3.284   0.082
  984TIP3    H2 2898   5.907   3.262   0.185
  985TIP3   OH2 2899   7.778   6.616   5.605
  985TIP3    H1 2900   7.873   6.620   5.603
  985TIP3    H2 2901   7.752   6.684   5.667
  986TIP3   OH2 2902   1.040   0.911   6.626
  986TIP3    H1 2903   1.126   0.919   6.667
  986TIP3    H2 2904   0.982   0.960   6.684
  987TIP3   OH2 2905   3.607   0.123   1.139
  987TIP3    H1 2906   3.522   0.094   1.103
  987TIP3    H2 2907   3.625   0.206   1.095
  988TIP3   OH2 2908   6.078   5.650   6.156
  988TIP3    H1 2909   6.152   5.624   6.100
  988TIP3    H2 2910   6.070   5.580   6.220
  989TIP3   OH2 2911   5.575   1.817   4.154
  989TIP3    H1 2912   5.528   1.897   4.131
  989TIP3    H2 2913   5.587   1.823   4.249
  990TIP3   OH2 2914   1.751   4.879   6.654
  990TIP3    H1 2915   1.846   4.889   6.646
  990TIP3    H2 2916   1.740   4.816   6.725
  991TIP3   OH2 2917   3.328   0.612   0.241
  991TIP3    H1 2918   3.269   0.686   0.229
  991TIP3    H2 2919   3.304   0.550   0.173
  992TIP3   OH2 2920   6.068   1.316   6.583
  992TIP3    H1 2921   6.109   1.259   6.517
  992TIP3    H2 2922   6.140   1.341   6.641
  993TIP3   OH2 2923   0.851   3.409   0.239
  993TIP3    H1 2924   0.831   3.392   0.147
  993TIP3    H2 2925   0.821   3.331   0.285
  994TIP3   OH2 2926   1.264   4.589   3.730
  994TIP3    H1 2927   1.280   4.600   3.824
  994TIP3    H2 2928   1.169   4.584   3.722
  995TIP3   OH2 2929   0.740   7.063   5.704
  995TIP3    H1 2930   0.749   7.158   5.703
  995TIP3    H2 2931   0.810   7.032   5.646
  996TIP3   OH2 2932   5.671   5.960   0.479
  996TIP3    H1 2933   5.606   5.901   0.517
  996TIP3    H2 2934   5.694   5.921   0.395
  997TIP3   OH2 2935   2.339   4.597   3.654
  997TIP3    H1 2936   2.398   4.626   3.584
  997TIP3    H2 2937   2.378   4.515   3.685
  998TIP3   OH2 2938   4.525   1.330   5.174
  998TIP3    H1 2939   4.469   1.370   5.108
  998TIP3    H2 2940   4.555   1.249   5.133
  999TIP3   OH2 2941   6.029   0.529   4.390
  999TIP3    H1 2942   5.944   0.572   4.400
  999TIP3    H2 2943   6.033   0.468   4.463
 1000TIP3   OH2 2944   6.013   4.367   6.345
 1000TIP3    H1 2945   6.041   4.398   6.259
 1000TIP3    H2 2946   5.936   4.419   6.367
 1001TIP3   OH2 2947   6.282   6.890   4.099
 1001TIP3    H1 2948   6.361   6.872   4.149
 1001TIP3    H2 2949   6.310   6.887   4.007
 1002TIP3   OH2 2950   1.767   4.787   4.554
 1002TIP3    H1 2951   1.741   4.879   4.554
 1002TIP3    H2 2952   1.705   4.744   4.613
 1003TIP3   OH2 2953   2.515   5.337   4.388
 1003TIP3    H1 2954   2.550   5.248   4.396
 1003TIP3    H2 2955   2.576   5.381   4.330
 1004TIP3   OH2 2956   5.148   2.064   6.685
 1004TIP3    H1 2957   5.118   2.074   6.595
 1004TIP3    H2 2958   5.241   2.089   6.682
 1005TIP3   OH2 2959   4.831   1.071   5.185
 1005TIP3    H1 2960   4.846   0.984   5.221
 1005TIP3    H2 2961   4.892   1.128   5.232
 1006TIP3   OH2 2962   5.451   6.710   4.554
 1006TIP3    H1 2963   5.431   6.663   4.635
 1006TIP3    H2 2964   5.413   6.656   4.484
 1007TIP3   OH2 2965   6.126   7.539   5.250
 1007TIP3    H1 2966   6.088   7.612   5.299
 1007TIP3    H2 2967   6.215   7.569   5.229
 1008TIP3   OH2 2968   0.339   1.877   5.074
 1008TIP3    H1 2969   0.266   1.891   5.135
 1008TIP3    H2 2970   0.300   1.889   4.987
 1009TIP3   OH2 2971   4.468   7.666   2.992
 1009TIP3    H1 2972   4.397   7.671   3.056
 1009TIP3    H2 2973   4.428   7.692   2.909
 1010TIP3   OH2 2974   8.260   6.378   2.001
 1010TIP3    H1 2975   8.185   6.421   2.040
 1010TIP3    H2 2976   8.223   6.324   1.931
 1011TIP3   OH2 2977   6.885   3.034   2.207
 1011TIP3    H1 2978   6.938   2.969   2.253
 1011TIP3    H2 2979   6.891   3.009   2.115
 1012TIP3   OH2 2980   7.845   4.173   0.428
 1012TIP3    H1 2981   7.803   4.255   0.403
 1012TIP3    H2 2982   7.919   4.165   0.368
 1013TIP3   OH2 2983   3.907   6.808   2.518
 1013TIP3    H1 2984   3.963   6.858   2.579
 1013TIP3    H2 2985   3.911   6.858   2.436
 1014TIP3   OH2 2986   3.647   3.808   6.517
 1014TIP3    H1 2987   3.595   3.851   6.585
 1014TIP3    H2 2988   3.584   3.753   6.470
 1015TIP3   OH2 2989   0.446   3.736   6.415
 1015TIP3    H1 2990   0.406   3.772   6.336
 1015TIP3    H2 2991   0.423   3.798   6.484
 1016TIP3   OH2 2992   3.789   0.555   6.405
 1016TIP3    H1 2993   3.872   0.517   6.433
 1016TIP3    H2 2994   3.809   0.600   6.323
 1017TIP3   OH2 2995   7.953   1.310   6.269
 1017TIP3    H1 2996   7.864   1.276   6.261
 1017TIP3    H2 2997   8.008   1.233   6.281
 1018TIP3   OH2 2998   5.881   6.165   2.149
 1018TIP3    H1 2999   5.969   6.195   2.123
 1018TIP3    H2 3000   5.889   6.148   2.243
 1019TIP3   OH2 3001   6.146   6.060   0.389
 1019TIP3    H1 3002   6.173   6.036   0.300
 1019TIP3    H2 3003   6.228   6.083   0.433
 1020TIP3   OH2 3004   3.841   0.076   2.530
 1020TIP3    H1 3005   3.889   0.069   2.447
 1020TIP3    H2 3006   3.903   0.114   2.592
 1021TIP3   OH2 3007   2.050   3.863   0.641
 1021TIP3    H1 3008   2.084   3.834   0.556
 1021TIP3    H2 3009   2.105   3.938   0.664
 1022TIP3   OH2 3010   8.047   3.310   4.308
 1022TIP3    H1 3011   8.079   3.240   4.251
 1022TIP3    H2 3012   8.042   3.271   4.395
 1023TIP3   OH2 3013   0.805   1.272   0.415
 1023TIP3    H1 3014   0.820   1.362   0.443
 1023TIP3    H2 3015   0.833   1.218   0.488
 1024TIP3   OH2 3016   0.967   1.493   2.269
 1024TIP3    H1 3017   0.884   1.447   2.262
 1024TIP3    H2 3018   1.012   1.474   2.187
 1025TIP3   OH2 3019   0.996   0.064   6.532
 1025TIP3    H1 3020   0.981   0.146   6.485
 1025TIP3    H2 3021   1.022   0.091   6.620
 1026TIP3   OH2 3022   4.057   5.795   3.337
 1026TIP3    H1 3023   4.035   5.836   3.254
 1026TIP3    H2 3024   4.017   5.851   3.403
 1027TIP3   OH2 3025   4.409   7.144   1.858
 1027TIP3    H1 3026   4.489   7.157   1.807
 1027TIP3    H2 3027   4.440   7.142   1.949
 1028TIP3   OH2 3028   4.964   3.664   0.213
 1028TIP3    H1 3029   4.930   3.651   0.302
 1028TIP3    H2 3030   5.004   3.751   0.215
 1029TIP3   OH2 3031   2.772   4.843   1.650
 1029TIP3    H1 3032   2.717   4.801   1.584
 1029TIP3    H2 3033   2.860   4.842   1.612
 1030TIP3   OH2 3034   5.376   2.078   4.718
 1030TIP3    H1 3035   5.429   2.014   4.764
 1030TIP3    H2 3036   5.406   2.163   4.751
 1031TIP3   OH2 3037   4.305   2.013   0.462
 1031TIP3    H1 3038   4.383   1.959   0.446
 1031TIP3    H2 3039   4.265   1.974   0.540
 1032TIP3   OH2 3040   0.274   2.687   6.491
 1032TIP3    H1 3041   0.345   2.645   6.443
 1032TIP3    H2 3042   0.221   2.729   6.424
 1033TIP3   OH2 3043   4.637   1.777   1.958
 1033TIP3    H1 3044   4.673   1.863   1.982
 1033TIP3    H2 3045   4.603   1.742   2.041
 1034TIP3   OH2 3046   6.612   3.304   5.659
 1034TIP3    H1 3047   6.527   3.345   5.643
 1034TIP3    H2 3048   6.663   3.371   5.707
 1035TIP3   OH2 3049   4.327   4.926   6.693
 1035TIP3    H1 3050   4.337   4.899   6.785
 1035TIP3    H2 3051   4.414   4.916   6.655
 1036TIP3   OH2 3052   0.665   4.905   1.575
 1036TIP3    H1 3053   0.674   4.821   1.528
 1036TIP3    H2 3054   0.612   4.883   1.652
 1037TIP3   OH2 3055   0.870   5.967   2.160
 1037TIP3    H1 3056   0.784   5.947   2.124
 1037TIP3    H2 3057   0.930   5.910   2.112
 1038TIP3   OH2 3058   2.776   0.709   2.582
 1038TIP3    H1 3059   2.778   0.801   2.608
 1038TIP3    H2 3060   2.698   0.701   2.527
 1039TIP3   OH2 3061   5.157   5.480   6.067
 1039TIP3    H1 3062   5.209   5.551   6.104
 1039TIP3    H2 3063   5.197   5.463   5.981
 1040TIP3   OH2 3064   4.599   6.097   2.039
 1040TIP3    H1 3065   4.561   6.099   1.951
 1040TIP3    H2 3066   4.678   6.044   2.030
 1041TIP3   OH2 3067   2.504   7.502   0.920
 1041TIP3    H1 3068   2.428   7.530   0.972
 1041TIP3    H2 3069   2.525   7.579   0.866
 1042TIP3   OH2 3070   2.198   4.678   2.078
 1042TIP3    H1 3071   2.142   4.728   2.018
 1042TIP3    H2 3072   2.211   4.735   2.153
 1043TIP3   OH2 3073   4.793   2.416   5.675
 1043TIP3    H1 3074   4.725   2.483   5.684
 1043TIP3    H2 3075   4.744   2.335   5.659
 1044TIP3   OH2 3076   7.655   6.771   3.047
 1044TIP3    H1 3077   7.595   6.742   2.979
 1044TIP3    H2 3078   7.681   6.690   3.091
 1045TIP3   OH2 3079   1.806   0.542   2.585
 1045TIP3    H1 3080   1.729   0.493   2.611
 1045TIP3    H2 3081   1.800   0.547   2.489
 1046TIP3   OH2 3082   7.512   3.066   3.924
 1046TIP3    H1 3083   7.523   3.144   3.870
 1046TIP3    H2 3084   7.568   3.080   4.000
 1047TIP3   OH2 3085   2.916   6.201   3.264
 1047TIP3    H1 3086   2.950   6.274   3.212
 1047TIP3    H2 3087   2.984   6.184   3.329
 1048TIP3   OH2 3088   4.895   6.433   5.934
 1048TIP3    H1 3089   4.962   6.367   5.951
 1048TIP3    H2 3090   4.839   6.394   5.867
 1049TIP3   OH2 3091   3.757   1.919   4.435
 1049TIP3    H1 3092   3.669   1.955   4.426
 1049TIP3    H2 3093   3.812   1.994   4.459
 1050TIP3   OH2 3094   7.910   3.577   1.929
 1050TIP3    H1 3095   8.004   3.560   1.919
 1050TIP3    H2 3096   7.893   3.562   2.022
 1051TIP3   OH2 3097   4.557   5.506   6.014
 1051TIP3    H1 3098   4.520   5.582   5.970
 1051TIP3    H2 3099   4.488   5.440   6.010
 1052TIP3   OH2 3100   6.386   4.225   4.587
 1052TIP3    H1 3101   6.407   4.255   4.676
 1052TIP3    H2 3102   6.437   4.281   4.529
 1053TIP3   OH2 3103   8.093   3.573   5.934
 1053TIP3    H1 3104   8.072   3.664   5.913
 1053TIP3    H2 3105   8.187   3.574   5.951
 1054TIP3   OH2 3106   7.549   2.424   4.523
 1054TIP3    H1 3107   7.473   2.475   4.497
 1054TIP3    H2 3108   7.617   2.490   4.540
 1055TIP3   OH2 3109   1.025   0.914   0.802
 1055TIP3    H1 3110   0.960   0.947   0.864
 1055TIP3    H2 3111   1.099   0.889   0.857
 1056TIP3   OH2 3112   4.723   4.927   2.820
 1056TIP3    H1 3113   4.745   4.973   2.901
 1056TIP3    H2 3114   4.639   4.884   2.838
 1057TIP3   OH2 3115   5.404   4.335   4.124
 1057TIP3    H1 3116   5.310   4.339   4.107
 1057TIP3    H2 3117   5.442   4.402   4.068
 1058TIP3   OH2 3118   3.592   2.269   5.476
 1058TIP3    H1 3119   3.596   2.287   5.570
 1058TIP3    H2 3120   3.501   2.286   5.452
 1059TIP3   OH2 3121   4.051   4.374   6.339
 1059TIP3    H1 3122   3.988   4.303   6.331
 1059TIP3    H2 3123   4.090   4.381   6.252
 1060TIP3   OH2 3124   6.703   5.126   4.889
 1060TIP3    H1 3125   6.667   5.205   4.850
 1060TIP3    H2 3126   6.783   5.155   4.933
 1061TIP3   OH2 3127   7.046   7.583   3.192
 1061TIP3    H1 3128   7.040   7.570   3.097
 1061TIP3    H2 3129   7.137   7.609   3.208
 1062TIP3   OH2 3130   3.392   7.301   3.942
 1062TIP3    H1 3131   3.478   7.270   3.972
 1062TIP3    H2 3132   3.337   7.298   4.020
 1063TIP3   OH2 3133   0.528   7.450   4.713
 1063TIP3    H1 3134   0.510   7.357   4.722
 1063TIP3    H2 3135   0.568   7.476   4.796
 1064TIP3   OH2 3136   4.288   2.248   3.484
 1064TIP3    H1 3137   4.207   2.299   3.471
 1064TIP3    H2 3138   4.270   2.164   3.443
 1065TIP3   OH2 3139   4.921   6.806   5.263
 1065TIP3    H1 3140   4.828   6.784   5.260
 1065TIP3    H2 3141   4.924   6.901   5.250
 1066TIP3   OH2 3142   7.818   1.562   1.587
 1066TIP3    H1 3143   7.761   1.563   1.511
 1066TIP3    H2 3144   7.791   1.638   1.638
 1067TIP3   OH2 3145   4.434   0.608   3.176
 1067TIP3    H1 3146   4.478   0.527   3.149
 1067TIP3    H2 3147   4.389   0.585   3.257
 1068TIP3   OH2 3148   5.587   7.270   0.944
 1068TIP3    H1 3149   5.529   7.344   0.962
 1068TIP3    H2 3150   5.655   7.276   1.012
 1069TIP3   OH2 3151   2.827   0.860   4.371
 1069TIP3    H1 3152   2.735   0.882   4.355
 1069TIP3    H2 3153   2.824   0.786   4.431
 1070TIP3   OH2 3154   7.563   4.718   5.395
 1070TIP3    H1 3155   7.548   4.769   5.316
 1070TIP3    H2 3156   7.583   4.630   5.364
 1071TIP3   OH2 3157   3.818   0.106   2.255
 1071TIP3    H1 3158   3.855   0.193   2.243
 1071TIP3    H2 3159   3.739   0.119   2.307
 1072TIP3   OH2 3160   0.921   0.691   6.482
 1072TIP3    H1 3161   0.924   0.777   6.522
 1072TIP3    H2 3162   0.986   0.694   6.412
 1073TIP3   OH2 3163   5.499   0.471   5.297
 1073TIP3    H1 3164   5.589   0.452   5.273
 1073TIP3    H2 3165   5.502   0.492   5.391
 1074TIP3   OH2 3166   6.670   1.073   1.780
 1074TIP3    H1 3167   6.610   1.127   1.832
 1074TIP3    H2 3168   6.625   0.989   1.772
 1075TIP3   OH2 3169   5.829   1.379   2.353
 1075TIP3    H1 3170   5.739   1.348   2.365
 1075TIP3    H2 3171   5.861   1.396   2.442
 1076TIP3   OH2 3172   6.910   3.909   4.125
 1076TIP3    H1 3173   6.860   3.963   4.186
 1076TIP3    H2 3174   6.947   3.971   4.063
 1077TIP3   OH2 3175   1.479   0.440   1.055
 1077TIP3    H1 3176   1.443   0.353   1.039
 1077TIP3    H2 3177   1.554   0.446   0.995
 1078TIP3   OH2 3178   6.002   5.057   0.924
 1078TIP3    H1 3179   5.915   5.078   0.958
 1078TIP3    H2 3180   5.996   5.073   0.830
 1079TIP3   OH2 3181   7.112   5.200   2.574
 1079TIP3    H1 3182   7.143   5.110   2.578
 1079TIP3    H2 3183   7.073   5.207   2.486
 1080TIP3   OH2 3184   1.033   4.627   5.748
 1080TIP3    H1 3185   1.099   4.590   5.807
 1080TIP3    H2 3186   0.951   4.619   5.796
 1081TIP3   OH2 3187   3.015   6.109   0.250
 1081TIP3    H1 3188   3.009   6.019   0.219
 1081TIP3    H2 3189   3.056   6.102   0.336
 1082TIP3   OH2 3190   3.447   6.440   1.902
 1082TIP3    H1 3191   3.507   6.443   1.828
 1082TIP3    H2 3192   3.430   6.347   1.916
 1083TIP3   OH2 3193   3.280   5.782   3.397
 1083TIP3    H1 3194   3.272   5.875   3.420
 1083TIP3    H2 3195   3.330   5.744   3.469
 1084TIP3   OH2 3196   0.461   3.798   3.406
 1084TIP3    H1 3197   0.548   3.822   3.373
 1084TIP3    H2 3198   0.443   3.861   3.476
 1085TIP3   OH2 3199   6.105   3.252   4.203
 1085TIP3    H1 3200   6.065   3.252   4.291
 1085TIP3    H2 3201   6.198   3.236   4.219
 1086TIP3   OH2 3202   0.466   4.934   3.189
 1086TIP3    H1 3203   0.514   5.017   3.184
 1086TIP3    H2 3204   0.527   4.869   3.152
 1087TIP3   OH2 3205   4.607   6.399   1.353
 1087TIP3    H1 3206   4.602   6.335   1.282
 1087TIP3    H2 3207   4.562   6.476   1.319
 1088TIP3   OH2 3208   0.706   4.265   5.145
 1088TIP3    H1 3209   0.765   4.223   5.083
 1088TIP3    H2 3210   0.632   4.294   5.092
 1089TIP3   OH2 3211   0.357   4.457   2.110
 1089TIP3    H1 3212   0.377   4.538   2.157
 1089TIP3    H2 3213   0.338   4.393   2.178
 1090TIP3   OH2 3214   3.984   3.939   2.742
 1090TIP3    H1 3215   3.909   3.936   2.682
 1090TIP3    H2 3216   3.986   3.852   2.782
 1091TIP3   OH2 3217   4.515   6.519   3.425
 1091TIP3    H1 3218   4.519   6.430   3.458
 1091TIP3    H2 3219   4.604   6.553   3.435
 1092TIP3   OH2 3220   3.833   0.324   4.987
 1092TIP3    H1 3221   3.763   0.316   5.052
 1092TIP3    H2 3222   3.834   0.239   4.943
 1093TIP3   OH2 3223   0.501   4.474   2.654
 1093TIP3    H1 3224   0.587   4.439   2.680
 1093TIP3    H2 3225   0.438   4.410   2.687
 1094TIP3   OH2 3226   6.674   1.029   4.020
 1094TIP3    H1 3227   6.700   1.103   3.966
 1094TIP3    H2 3228   6.632   0.967   3.960
 1095TIP3   OH2 3229   4.988   1.937   0.185
 1095TIP3    H1 3230   4.998   1.843   0.172
 1095TIP3    H2 3231   4.953   1.970   0.102
 1096TIP3   OH2 3232   8.072   0.760   0.419
 1096TIP3    H1 3233   7.988   0.770   0.463
 1096TIP3    H2 3234   8.050   0.723   0.333
 1097TIP3   OH2 3235   3.231   6.774   2.240
 1097TIP3    H1 3236   3.286   6.748   2.166
 1097TIP3    H2 3237   3.286   6.760   2.317
 1098TIP3   OH2 3238   8.300   6.851   4.139
 1098TIP3    H1 3239   8.254   6.823   4.219
 1098TIP3    H2 3240   8.233   6.895   4.087
 1099TIP3   OH2 3241   1.510   4.286   6.078
 1099TIP3    H1 3242   1.515   4.346   6.152
 1099TIP3    H2 3243   1.598   4.285   6.041
 1100TIP3   OH2 3244   1.633   4.701   5.719
 1100TIP3    H1 3245   1.620   4.761   5.645
 1100TIP3    H2 3246   1.547   4.696   5.761
 1101TIP3   OH2 3247   5.763   2.653   3.669
 1101TIP3    H1 3248   5.703   2.584   3.699
 1101TIP3    H2 3249   5.725   2.681   3.586
 1102TIP3   OH2 3250   5.973   4.006   0.107
 1102TIP3    H1 3251   6.019   3.948   0.047
 1102TIP3    H2 3252   5.938   4.076   0.052
 1103TIP3   OH2 3253   2.630   1.957   5.793
 1103TIP3    H1 3254   2.578   2.035   5.815
 1103TIP3    H2 3255   2.567   1.886   5.792
 1104TIP3   OH2 3256   3.091   2.234   5.672
 1104TIP3    H1 3257   3.149   2.159   5.658
 1104TIP3    H2 3258   3.008   2.196   5.698
 1105TIP3   OH2 3259   1.065   2.874   3.782
 1105TIP3    H1 3260   1.161   2.872   3.791
 1105TIP3    H2 3261   1.040   2.959   3.819
 1106TIP3   OH2 3262   7.781   6.031   6.469
 1106TIP3    H1 3263   7.795   6.121   6.440
 1106TIP3    H2 3264   7.845   5.979   6.420
 1107TIP3   OH2 3265   8.008   0.633   4.608
 1107TIP3    H1 3266   7.929   0.603   4.652
 1107TIP3    H2 3267   8.037   0.708   4.661
 1108TIP3   OH2 3268   2.322   6.410   3.639
 1108TIP3    H1 3269   2.238   6.437   3.601
 1108TIP3    H2 3270   2.338   6.474   3.708
 1109TIP3   OH2 3271   2.612   2.040   0.504
 1109TIP3    H1 3272   2.653   1.961   0.468
 1109TIP3    H2 3273   2.552   2.069   0.436
 1110TIP3   OH2 3274   2.995   2.538   2.119
 1110TIP3    H1 3275   2.984   2.630   2.092
 1110TIP3    H2 3276   3.086   2.519   2.099
 1111TIP3   OH2 3277   3.554   2.446   0.192
 1111TIP3    H1 3278   3.618   2.479   0.255
 1111TIP3    H2 3279   3.596   2.458   0.107
 1112TIP3   OH2 3280   0.776   2.644   5.125
 1112TIP3    H1 3281   0.818   2.730   5.126
 1112TIP3    H2 3282   0.846   2.583   5.152
 1113TIP3   OH2 3283   0.166   6.774   6.547
 1113TIP3    H1 3284   0.084   6.754   6.592
 1113TIP3    H2 3285   0.166   6.717   6.471
 1114TIP3   OH2 3286   2.690   4.385   1.459
 1114TIP3    H1 3287   2.689   4.356   1.368
 1114TIP3    H2 3288   2.649   4.313   1.507
 1115TIP3   OH2 3289   6.781   2.424   0.040
 1115TIP3    H1 3290   6.759   2.394  -0.049
 1115TIP3    H2 3291   6.868   2.387   0.057
 1116TIP3   OH2 3292   4.894   6.730   3.826
 1116TIP3    H1 3293   4.834   6.786   3.876
 1116TIP3    H2 3294   4.919   6.662   3.888
 1117TIP3   OH2 3295   3.219   3.463   6.425
 1117TIP3    H1 3296   3.280   3.405   6.378
 1117TIP3    H2 3297   3.134   3.422   6.414
 1118TIP3   OH2 3298   1.380   6.595   3.927
 1118TIP3    H1 3299   1.459   6.546   3.904
 1118TIP3    H2 3300   1.405   6.645   4.005
 1119TIP3   OH2 3301   8.207   7.463   5.090
 1119TIP3    H1 3302   8.238   7.530   5.151
 1119TIP3    H2 3303   8.117   7.446   5.117
 1120TIP3   OH2 3304   7.896   5.274   0.459
 1120TIP3    H1 3305   7.968   5.328   0.492
 1120TIP3    H2 3306   7.937   5.192   0.433
 1121TIP3   OH2 3307   2.181   6.783   0.093
 1121TIP3    H1 3308   2.261   6.762   0.141
 1121TIP3    H2 3309   2.146   6.698   0.067
 1122TIP3   OH2 3310   1.342   1.129   5.115
 1122TIP3    H1 3311   1.370   1.045   5.152
 1122TIP3    H2 3312   1.270   1.106   5.056
 1123TIP3   OH2 3313   6.983   6.222   3.560
 1123TIP3    H1 3314   6.946   6.144   3.517
 1123TIP3    H2 3315   7.075   6.199   3.574
 1124TIP3   OH2 3316   5.057   0.694   1.165
 1124TIP3    H1 3317   5.070   0.606   1.200
 1124TIP3    H2 3318   5.122   0.748   1.210
 1125TIP3   OH2 3319   4.980   4.811   2.823
 1125TIP3    H1 3320   4.943   4.867   2.891
 1125TIP3    H2 3321   4.942   4.843   2.741
 1126TIP3   OH2 3322   5.248   4.433   2.724
 1126TIP3    H1 3323   5.177   4.384   2.683
 1126TIP3    H2 3324   5.316   4.438   2.657
 1127TIP3   OH2 3325   2.554   5.291   1.593
 1127TIP3    H1 3326   2.558   5.300   1.498
 1127TIP3    H2 3327   2.644   5.272   1.619
 1128TIP3   OH2 3328   7.192   5.489   3.410
 1128TIP3    H1 3329   7.106   5.503   3.371
 1128TIP3    H2 3330   7.231   5.418   3.359
 1129TIP3   OH2 3331   8.241   7.587   2.290
 1129TIP3    H1 3332   8.327   7.551   2.310
 1129TIP3    H2 3333   8.256   7.681   2.278
 1130TIP3   OH2 3334   6.909   6.792   2.180
 1130TIP3    H1 3335   6.847   6.850   2.223
 1130TIP3    H2 3336   6.855   6.734   2.127
 1131TIP3   OH2 3337   5.633   7.106   3.042
 1131TIP3    H1 3338   5.568   7.058   3.094
 1131TIP3    H2 3339   5.663   7.043   2.976
 1132TIP3   OH2 3340   3.965   3.760   0.393
 1132TIP3    H1 3341   3.963   3.845   0.437
 1132TIP3    H2 3342   4.058   3.742   0.379
 1133TIP3   OH2 3343   4.472   7.252  -0.013
 1133TIP3    H1 3344   4.498   7.311  -0.085
 1133TIP3    H2 3345   4.394   7.293   0.024
 1134TIP3   OH2 3346   2.392   4.188   6.275
 1134TIP3    H1 3347   2.397   4.134   6.195
 1134TIP3    H2 3348   2.352   4.130   6.340
 1135TIP3   OH2 3349   7.625   2.192   2.651
 1135TIP3    H1 3350   7.670   2.231   2.726
 1135TIP3    H2 3351   7.533   2.217   2.664
 1136TIP3   OH2 3352   6.225   2.522   6.291
 1136TIP3    H1 3353   6.175   2.554   6.216
 1136TIP3    H2 3354   6.302   2.578   6.295
 1137TIP3   OH2 3355   2.900   5.724   1.749
 1137TIP3    H1 3356   2.888   5.802   1.694
 1137TIP3    H2 3357   2.918   5.759   1.836
 1138TIP3   OH2 3358   0.122   3.159   6.611
 1138TIP3    H1 3359   0.122   3.253   6.592
 1138TIP3    H2 3360   0.207   3.143   6.651
 1139TIP3   OH2 3361   1.595   4.433   4.614
 1139TIP3    H1 3362   1.659   4.444   4.685
 1139TIP3    H2 3363   1.640   4.466   4.536
 1140TIP3   OH2 3364   3.298   7.531   4.970
 1140TIP3    H1 3365   3.380   7.553   4.926
 1140TIP3    H2 3366   3.284   7.603   5.032
 1141TIP3   OH2 3367   8.077   5.950   4.460
 1141TIP3    H1 3368   8.159   5.981   4.423
 1141TIP3    H2 3369   8.032   6.030   4.489
 1142TIP3   OH2 3370   0.418   1.362   6.164
 1142TIP3    H1 3371   0.377   1.321   6.087
 1142TIP3    H2 3372   0.438   1.451   6.136
 1143TIP3   OH2 3373   2.942   4.965   5.048
 1143TIP3    H1 3374   2.983   5.039   5.094
 1143TIP3    H2 3375   2.964   4.889   5.101
 1144TIP3   OH2 3376   5.275   3.179   2.891
 1144TIP3    H1 3377   5.225   3.200   2.970
 1144TIP3    H2 3378   5.334   3.254   2.880
 1145TIP3   OH2 3379   4.802   3.383   5.960
 1145TIP3    H1 3380   4.806   3.329   6.039
 1145TIP3    H2 3381   4.892   3.414   5.948
 1146TIP3   OH2 3382   1.712   5.643   5.631
 1146TIP3    H1 3383   1.769   5.712   5.597
 1146TIP3    H2 3384   1.656   5.688   5.695
 1147TIP3   OH2 3385   5.627   1.604   6.379
 1147TIP3    H1 3386   5.706   1.551   6.370
 1147TIP3    H2 3387   5.627   1.630   6.471
 1148TIP3   OH2 3388   5.008   4.906   4.218
 1148TIP3    H1 3389   5.003   4.860   4.301
 1148TIP3    H2 3390   5.102   4.904   4.195
 1149TIP3   OH2 3391   0.783   1.742   3.402
 1149TIP3    H1 3392   0.759   1.674   3.464
 1149TIP3    H2 3393   0.801   1.695   3.321
 1150TIP3   OH2 3394   2.833   6.010   3.885
 1150TIP3    H1 3395   2.911   6.007   3.831
 1150TIP3    H2 3396   2.825   5.922   3.921
 1151TIP3   OH2 3397   3.912   1.521   6.071
 1151TIP3    H1 3398   3.860   1.442   6.056
 1151TIP3    H2 3399   3.868   1.565   6.143
 1152TIP3   OH2 3400   0.209   0.735   2.612
 1152TIP3    H1 3401   0.270   0.682   2.663
 1152TIP3    H2 3402   0.248   0.823   2.611
 1153TIP3   OH2 3403   6.259   7.194   4.733
 1153TIP3    H1 3404   6.269   7.106   4.769
 1153TIP3    H2 3405   6.208   7.181   4.653
 1154TIP3   OH2 3406   4.877   2.357   3.883
 1154TIP3    H1 3407   4.881   2.272   3.840
 1154TIP3    H2 3408   4.917   2.418   3.821
 1155TIP3   OH2 3409   1.999   7.728   5.670
 1155TIP3    H1 3410   2.011   7.636   5.693
 1155TIP3    H2 3411   2.078   7.771   5.701
 1156TIP3   OH2 3412   3.606   7.602   1.766
 1156TIP3    H1 3413   3.512   7.612   1.782
 1156TIP3    H2 3414   3.620   7.508   1.757
 1157TIP3   OH2 3415   1.249   5.047   0.741
 1157TIP3    H1 3416   1.255   5.006   0.654
 1157TIP3    H2 3417   1.339   5.075   0.759
 1158TIP3   OH2 3418   4.331   0.455   4.007
 1158TIP3    H1 3419   4.357   0.421   3.921
 1158TIP3    H2 3420   4.249   0.409   4.027
 1159TIP3   OH2 3421   6.904   0.236   4.032
 1159TIP3    H1 3422   6.915   0.329   4.012
 1159TIP3    H2 3423   6.811   0.226   4.051
 1160TIP3   OH2 3424   4.556   1.193   2.226
 1160TIP3    H1 3425   4.528   1.126   2.163
 1160TIP3    H2 3426   4.556   1.275   2.176
 1161TIP3   OH2 3427   1.412   2.959   1.960
 1161TIP3    H1 3428   1.326   2.968   2.002
 1161TIP3    H2 3429   1.455   2.889   2.009
 1162TIP3   OH2 3430   3.361   0.257   1.400
 1162TIP3    H1 3431   3.369   0.303   1.317
 1162TIP3    H2 3432   3.275   0.283   1.434
 1163TIP3   OH2 3433   1.907   4.138   2.726
 1163TIP3    H1 3434   1.929   4.098   2.810
 1163TIP3    H2 3435   1.881   4.227   2.749
 1164TIP3   OH2 3436   2.034   4.655   6.526
 1164TIP3    H1 3437   2.028   4.750   6.515
 1164TIP3    H2 3438   2.119   4.640   6.567
 1165TIP3   OH2 3439   3.403   2.954   4.304
 1165TIP3    H1 3440   3.311   2.974   4.321
 1165TIP3    H2 3441   3.450   2.992   4.378
 1166TIP3   OH2 3442   5.347   2.396   6.248
 1166TIP3    H1 3443   5.398   2.333   6.298
 1166TIP3    H2 3444   5.256   2.369   6.260
 1167TIP3   OH2 3445   2.817   7.337   0.927
 1167TIP3    H1 3446   2.835   7.245   0.910
 1167TIP3    H2 3447   2.792   7.373   0.842
 1168TIP3   OH2 3448   0.949   7.423   1.561
 1168TIP3    H1 3449   0.944   7.516   1.537
 1168TIP3    H2 3450   0.892   7.414   1.637
 1169TIP3   OH2 3451   5.690   5.654   3.193
 1169TIP3    H1 3452   5.737   5.601   3.257
 1169TIP3    H2 3453   5.660   5.591   3.127
 1170TIP3   OH2 3454   3.417   1.281   6.231
 1170TIP3    H1 3455   3.415   1.194   6.192
 1170TIP3    H2 3456   3.498   1.283   6.282
 1171TIP3   OH2 3457   6.256   0.266   5.070
 1171TIP3    H1 3458   6.341   0.238   5.036
 1171TIP3    H2 3459   6.233   0.342   5.018
 1172TIP3   OH2 3460   4.534   0.227   3.923
 1172TIP3    H1 3461   4.500   0.288   3.858
 1172TIP3    H2 3462   4.511   0.141   3.890
 1173TIP3   OH2 3463   5.963   4.295   5.062
 1173TIP3    H1 3464   5.871   4.269   5.063
 1173TIP3    H2 3465   5.962   4.382   5.021
 1174TIP3   OH2 3466   6.780   4.662   1.202
 1174TIP3    H1 3467   6.747   4.751   1.208
 1174TIP3    H2 3468   6.775   4.628   1.291
 1175TIP3   OH2 3469   7.260   0.201   2.470
 1175TIP3    H1 3470   7.206   0.256   2.413
 1175TIP3    H2 3471   7.200   0.170   2.538
 1176TIP3   OH2 3472   3.990   2.280   3.609
 1176TIP3    H1 3473   4.010   2.366   3.647
 1176TIP3    H2 3474   3.939   2.235   3.676
 1177TIP3   OH2 3475   4.700   2.175   0.839
 1177TIP3    H1 3476   4.689   2.111   0.910
 1177TIP3    H2 3477   4.616   2.221   0.836
 1178TIP3   OH2 3478   0.983   0.278   4.183
 1178TIP3    H1 3479   1.036   0.220   4.129
 1178TIP3    H2 3480   0.991   0.364   4.141
 1179TIP3   OH2 3481   5.438   5.046   6.399
 1179TIP3    H1 3482   5.370   5.105   6.367
 1179TIP3    H2 3483   5.515   5.102   6.411
 1180TIP3   OH2 3484   1.100   6.477   3.106
 1180TIP3    H1 3485   1.195   6.486   3.106
 1180TIP3    H2 3486   1.079   6.434   3.024
 1181TIP3   OH2 3487   4.993   6.476   6.598
 1181TIP3    H1 3488   5.063   6.440   6.544
 1181TIP3    H2 3489   4.946   6.400   6.632
 1182TIP3   OH2 3490   4.170   4.661   2.025
 1182TIP3    H1 3491   4.250   4.616   2.051
 1182TIP3    H2 3492   4.125   4.598   1.967
 1183TIP3   OH2 3493   7.661   2.153   0.479
 1183TIP3    H1 3494   7.674   2.068   0.520
 1183TIP3    H2 3495   7.609   2.135   0.401
 1184TIP3   OH2 3496   3.294   0.501   3.457
 1184TIP3    H1 3497   3.335   0.587   3.472
 1184TIP3    H2 3498   3.210   0.521   3.416
 1185TIP3   OH2 3499   4.664   1.803   5.654
 1185TIP3    H1 3500   4.696   1.723   5.611
 1185TIP3    H2 3501   4.630   1.856   5.582
 1186TIP3   OH2 3502   0.347   5.454   3.032
 1186TIP3    H1 3503   0.356   5.430   2.939
 1186TIP3    H2 3504   0.436   5.471   3.061
 1187TIP3   OH2 3505   3.598   6.686   2.841
 1187TIP3    H1 3506   3.664   6.636   2.792
 1187TIP3    H2 3507   3.626   6.679   2.932
 1188TIP3   OH2 3508   4.152   3.117   2.255
 1188TIP3    H1 3509   4.207   3.110   2.177
 1188TIP3    H2 3510   4.127   3.210   2.257
 1189TIP3   OH2 3511   3.813   2.468   5.946
 1189TIP3    H1 3512   3.884   2.456   6.009
 1189TIP3    H2 3513   3.804   2.563   5.938
 1190TIP3   OH2 3514   7.450   5.002   3.755
 1190TIP3    H1 3515   7.525   4.944   3.739
 1190TIP3    H2 3516   7.419   4.979   3.842
 1191TIP3   OH2 3517   6.823   5.689   0.267
 1191TIP3    H1 3518   6.805   5.764   0.210
 1191TIP3    H2 3519   6.834   5.615   0.207
 1192TIP3   OH2 3520   4.475   6.649   5.421
 1192TIP3    H1 3521   4.559   6.687   5.397
 1192TIP3    H2 3522   4.448   6.600   5.342
 1193TIP3   OH2 3523   4.454   6.083   5.567
 1193TIP3    H1 3524   4.468   5.989   5.571
 1193TIP3    H2 3525   4.362   6.092   5.543
 1194TIP3   OH2 3526   0.707   5.169   3.731
 1194TIP3    H1 3527   0.655   5.162   3.811
 1194TIP3    H2 3528   0.666   5.107   3.671
 1195TIP3   OH2 3529   1.920   0.258   0.861
 1195TIP3    H1 3530   1.836   0.259   0.816
 1195TIP3    H2 3531   1.919   0.176   0.911
 1196TIP3   OH2 3532   0.810   0.612   1.350
 1196TIP3    H1 3533   0.764   0.567   1.279
 1196TIP3    H2 3534   0.891   0.643   1.310
 1197TIP3   OH2 3535   1.652   4.332   4.258
 1197TIP3    H1 3536   1.695   4.400   4.311
 1197TIP3    H2 3537   1.723   4.294   4.206
 1198TIP3   OH2 3538   0.714   3.302   5.449
 1198TIP3    H1 3539   0.723   3.335   5.539
 1198TIP3    H2 3540   0.622   3.276   5.444
 1199TIP3   OH2 3541   2.493   3.161   0.455
 1199TIP3    H1 3542   2.407   3.126   0.434
 1199TIP3    H2 3543   2.475   3.245   0.499
 1200TIP3   OH2 3544   4.021   7.658   2.249
 1200TIP3    H1 3545   4.022   7.629   2.158
 1200TIP3    H2 3546   3.945   7.716   2.256
 1201TIP3   OH2 3547   1.369   5.491   0.904
 1201TIP3    H1 3548   1.275   5.501   0.888
 1201TIP3    H2 3549   1.392   5.408   0.862
 1202TIP3   OH2 3550   7.360   2.139   1.174
 1202TIP3    H1 3551   7.391   2.166   1.261
 1202TIP3    H2 3552   7.279   2.189   1.162
 1203TIP3   OH2 3553   2.975   6.444   2.280
 1203TIP3    H1 3554   3.022   6.403   2.208
 1203TIP3    H2 3555   2.948   6.370   2.336
 1204TIP3   OH2 3556   3.354   5.679   3.143
 1204TIP3    H1 3557   3.432   5.680   3.198
 1204TIP3    H2 3558   3.285   5.717   3.198
 1205TIP3   OH2 3559   3.653   5.929   4.299
 1205TIP3    H1 3560   3.748   5.933   4.310
 1205TIP3    H2 3561   3.639   5.957   4.208
 1206TIP3   OH2 3562   1.051   7.359   0.439
 1206TIP3    H1 3563   1.078   7.269   0.458
 1206TIP3    H2 3564   0.982   7.350   0.374
 1207TIP3   OH2 3565   1.204   2.564   2.061
 1207TIP3    H1 3566   1.271   2.574   1.994
 1207TIP3    H2 3567   1.135   2.625   2.036
 1208TIP3   OH2 3568   7.528   5.725   0.493
 1208TIP3    H1 3569   7.531   5.662   0.564
 1208TIP3    H2 3570   7.553   5.808   0.534
 1209TIP3   OH2 3571   4.050   5.198   6.430
 1209TIP3    H1 3572   4.024   5.175   6.341
 1209TIP3    H2 3573   4.145   5.189   6.431
 1210TIP3   OH2 3574   6.515   2.260   1.978
 1210TIP3    H1 3575   6.596   2.210   1.965
 1210TIP3    H2 3576   6.470   2.255   1.894
 1211TIP3   OH2 3577   0.327   4.809   2.125
 1211TIP3    H1 3578   0.266   4.837   2.057
 1211TIP3    H2 3579   0.271   4.776   2.195
 1212TIP3   OH2 3580   5.433   0.783   1.125
 1212TIP3    H1 3581   5.424   0.712   1.061
 1212TIP3    H2 3582   5.516   0.766   1.168
 1213TIP3   OH2 3583   4.221   1.019   1.914
 1213TIP3    H1 3584   4.267   1.096   1.949
 1213TIP3    H2 3585   4.138   1.017   1.960
 1214TIP3   OH2 3586   2.041   1.630   2.081
 1214TIP3    H1 3587   2.061   1.537   2.090
 1214TIP3    H2 3588   2.118   1.668   2.040
 1215TIP3   OH2 3589   6.495   3.407   2.081
 1215TIP3    H1 3590   6.577   3.367   2.052
 1215TIP3    H2 3591   6.428   3.364   2.028
 1216TIP3   OH2 3592   8.261   7.513   5.479
 1216TIP3    H1 3593   8.215   7.431   5.464
 1216TIP3    H2 3594   8.273   7.551   5.392
 1217TIP3   OH2 3595   5.537   1.406   4.756
 1217TIP3    H1 3596   5.454   1.445   4.731
 1217TIP3    H2 3597   5.571   1.366   4.675
 1218TIP3   OH2 3598   4.921   3.861   5.854
 1218TIP3    H1 3599   4.995   3.843   5.796
 1218TIP3    H2 3600   4.900   3.953   5.839
 1219TIP3   OH2 3601   1.163   7.331   0.832
 1219TIP3    H1 3602   1.247   7.295   0.858
 1219TIP3    H2 3603   1.140   7.284   0.752
 1220TIP3   OH2 3604   1.059   0.224   5.302
 1220TIP3    H1 3605   1.031   0.144   5.345
 1220TIP3    H2 3606   0.984   0.252   5.249
 1221TIP3   OH2 3607   5.999   3.428   6.348
 1221TIP3    H1 3608   6.033   3.359   6.405
 1221TIP3    H2 3609   6.060   3.431   6.274
 1222TIP3   OH2 3610   6.543   2.581   5.802
 1222TIP3    H1 3611   6.570   2.649   5.741
 1222TIP3    H2 3612   6.494   2.519   5.749
 1223TIP3   OH2 3613   1.337   7.281   2.834
 1223TIP3    H1 3614   1.288   7.360   2.812
 1223TIP3    H2 3615   1.272   7.211   2.832
 1224TIP3   OH2 3616   0.205   0.692   0.760
 1224TIP3    H1 3617   0.149   0.645   0.698
 1224TIP3    H2 3618   0.280   0.720   0.707
 1225TIP3   OH2 3619   0.673   1.452   0.766
 1225TIP3    H1 3620   0.734   1.499   0.823
 1225TIP3    H2 3621   0.603   1.515   0.748
 1226TIP3   OH2 3622   1.019   2.302   4.086
 1226TIP3    H1 3623   0.931   2.336   4.068
 1226TIP3    H2 3624   1.025   2.222   4.034
 1227TIP3   OH2 3625   5.948   6.185   2.760
 1227TIP3    H1 3626   5.897   6.104   2.751
 1227TIP3    H2 3627   5.916   6.225   2.840
 1228TIP3   OH2 3628   3.016   3.576   1.731
 1228TIP3    H1 3629   3.094   3.629   1.742
 1228TIP3    H2 3630   3.035   3.494   1.777
 1229TIP3   OH2 3631   7.892   7.214   1.769
 1229TIP3    H1 3632   7.948   7.229   1.845
 1229TIP3    H2 3633   7.926   7.274   1.703
 1230TIP3   OH2 3634   2.539   6.498   6.315
 1230TIP3    H1 3635   2.458   6.487   6.364
 1230TIP3    H2 3636   2.608   6.480   6.379
 1231TIP3   OH2 3637   5.119   0.648   0.907
 1231TIP3    H1 3638   5.104   0.669   1.000
 1231TIP3    H2 3639   5.057   0.577   0.889
 1232TIP3   OH2 3640   1.784   3.904   0.918
 1232TIP3    H1 3641   1.822   3.864   0.996
 1232TIP3    H2 3642   1.815   3.995   0.920
 1233TIP3   OH2 3643   2.445   5.924   3.974
 1233TIP3    H1 3644   2.413   6.007   3.938
 1233TIP3    H2 3645   2.473   5.874   3.897
 1234TIP3   OH2 3646   3.637   7.760   2.974
 1234TIP3    H1 3647   3.672   7.822   2.911
 1234TIP3    H2 3648   3.580   7.703   2.922
 1235TIP3   OH2 3649   4.783   2.738   6.225
 1235TIP3    H1 3650   4.793   2.670   6.291
 1235TIP3    H2 3651   4.717   2.798   6.262
 1236TIP3   OH2 3652   2.220   3.054   1.807
 1236TIP3    H1 3653   2.184   3.090   1.726
 1236TIP3    H2 3654   2.167   2.976   1.825
 1237TIP3   OH2 3655   5.787   5.419   6.426
 1237TIP3    H1 3656   5.704   5.461   6.449
 1237TIP3    H2 3657   5.761   5.339   6.380
 1238TIP3   OH2 3658   2.050   0.610   0.612
 1238TIP3    H1 3659   2.102   0.601   0.692
 1238TIP3    H2 3660   2.101   0.564   0.545
 1239TIP3   OH2 3661   5.624   5.143   1.494
 1239TIP3    H1 3662   5.579   5.215   1.537
 1239TIP3    H2 3663   5.680   5.105   1.562
 1240TIP3   OH2 3664   1.738   6.007   2.540
 1240TIP3    H1 3665   1.655   6.009   2.586
 1240TIP3    H2 3666   1.742   5.919   2.501
 1241TIP3   OH2 3667   0.312   6.400   3.549
 1241TIP3    H1 3668   0.287   6.386   3.640
 1241TIP3    H2 3669   0.404   6.374   3.546
 1242TIP3   OH2 3670   6.548   5.375   6.232
 1242TIP3    H1 3671   6.566   5.368   6.325
 1242TIP3    H2 3672   6.474   5.315   6.217
 1243TIP3   OH2 3673   6.274   7.413   1.335
 1243TIP3    H1 3674   6.300   7.377   1.420
 1243TIP3    H2 3675   6.185   7.444   1.348
 1244TIP3   OH2 3676   3.022   2.434   2.447
 1244TIP3    H1 3677   3.036   2.428   2.541
 1244TIP3    H2 3678   3.064   2.356   2.410
 1245TIP3   OH2 3679   7.634   1.216   3.016
 1245TIP3    H1 3680   7.691   1.179   3.084
 1245TIP3    H2 3681   7.661   1.172   2.935
 1246TIP3   OH2 3682   1.561   3.174   2.106
 1246TIP3    H1 3683   1.571   3.268   2.091
 1246TIP3    H2 3684   1.522   3.141   2.026
 1247TIP3   OH2 3685   4.055   7.775   4.304
 1247TIP3    H1 3686   3.970   7.748   4.268
 1247TIP3    H2 3687   4.037   7.858   4.348
 1248TIP3   OH2 3688   6.653   3.898   1.888
 1248TIP3    H1 3689   6.576   3.923   1.938
 1248TIP3    H2 3690   6.645   3.803   1.877
 1249TIP3   OH2 3691   7.640   0.792   4.010
 1249TIP3    H1 3692   7.599   0.782   4.096
 1249TIP3    H2 3693   7.567   0.804   3.949
 1250TIP3   OH2 3694   2.084   0.357   3.594
 1250TIP3    H1 3695   2.103   0.263   3.603
 1250TIP3    H2 3696   2.028   0.377   3.669
 1251TIP3   OH2 3697   6.802   4.798   6.443
 1251TIP3    H1 3698   6.827   4.708   6.465
 1251TIP3    H2 3699   6.843   4.813   6.358
 1252TIP3   OH2 3700   1.502   5.571   6.425
 1252TIP3    H1 3701   1.492   5.666   6.417
 1252TIP3    H2 3702   1.582   5.551   6.376
 1253TIP3   OH2 3703   3.308   1.828   1.166
 1253TIP3    H1 3704   3.224   1.847   1.208
 1253TIP3    H2 3705   3.372   1.877   1.216
 1254TIP3   OH2 3706   7.711   6.541   2.763
 1254TIP3    H1 3707   7.754   6.529   2.678
 1254TIP3    H2 3708   7.632   6.591   2.743
 1255TIP3   OH2 3709   7.872   2.349   0.110
 1255TIP3    H1 3710   7.859   2.341   0.205
 1255TIP3    H2 3711   7.819   2.280   0.072
 1256TIP3   OH2 3712   2.855   6.031   1.263
 1256TIP3    H1 3713   2.951   6.024   1.262
 1256TIP3    H2 3714   2.838   6.102   1.325
 1257TIP3   OH2 3715   6.434   1.264   5.812
 1257TIP3    H1 3716   6.379   1.310   5.876
 1257TIP3    H2 3717   6.508   1.323   5.797
 1258TIP3   OH2 3718   2.353   2.469   1.399
 1258TIP3    H1 3719   2.415   2.516   1.456
 1258TIP3    H2 3720   2.404   2.448   1.321
 1259TIP3   OH2 3721   6.048   3.597   5.549
 1259TIP3    H1 3722   6.020   3.688   5.551
 1259TIP3    H2 3723   5.969   3.547   5.570
 1260TIP3   OH2 3724   8.217   1.732   6.634
 1260TIP3    H1 3725   8.267   1.666   6.682
 1260TIP3    H2 3726   8.126   1.717   6.660
 1261TIP3   OH2 3727   1.430   0.723   4.397
 1261TIP3    H1 3728   1.471   0.650   4.351
 1261TIP3    H2 3729   1.502   0.765   4.443
 1262TIP3   OH2 3730   4.684   5.579   6.236
 1262TIP3    H1 3731   4.687   5.489   6.266
 1262TIP3    H2 3732   4.630   5.576   6.157
 1263TIP3   OH2 3733   4.859   6.006   3.715
 1263TIP3    H1 3734   4.812   5.942   3.661
 1263TIP3    H2 3735   4.911   5.952   3.775
 1264TIP3   OH2 3736   2.364   1.440   3.600
 1264TIP3    H1 3737   2.297   1.371   3.594
 1264TIP3    H2 3738   2.436   1.407   3.546
 1265TIP3   OH2 3739   5.193   2.878   1.031
 1265TIP3    H1 3740   5.236   2.803   1.072
 1265TIP3    H2 3741   5.225   2.954   1.080
 1266TIP3   OH2 3742   2.621   4.412   5.252
 1266TIP3    H1 3743   2.549   4.353   5.230
 1266TIP3    H2 3744   2.622   4.476   5.181
 1267TIP3   OH2 3745   3.422   1.850   2.656
 1267TIP3    H1 3746   3.356   1.887   2.714
 1267TIP3    H2 3747   3.486   1.810   2.714
 1268TIP3   OH2 3748   5.242   5.849   2.993
 1268TIP3    H1 3749   5.284   5.827   3.076
 1268TIP3    H2 3750   5.251   5.944   2.986
 1269TIP3   OH2 3751   2.530   6.496   5.061
 1269TIP3    H1 3752   2.525   6.438   4.985
 1269TIP3    H2 3753   2.538   6.584   5.023
 1270TIP3   OH2 3754   1.904   5.978   3.006
 1270TIP3    H1 3755   1.930   5.927   2.929
 1270TIP3    H2 3756   1.852   6.050   2.970
 1271TIP3   OH2 3757   5.877   2.949   0.533
 1271TIP3    H1 3758   5.832   2.877   0.578
 1271TIP3    H2 3759   5.878   3.020   0.598
 1272TIP3   OH2 3760   3.116   3.455   2.207
 1272TIP3    H1 3761   3.095   3.481   2.297
 1272TIP3    H2 3762   3.031   3.440   2.166
 1273TIP3   OH2 3763   0.581   6.967   3.418
 1273TIP3    H1 3764   0.569   7.058   3.444
 1273TIP3    H2 3765   0.526   6.957   3.340
 1274TIP3   OH2 3766   2.921   1.997   0.891
 1274TIP3    H1 3767   2.962   2.042   0.817
 1274TIP3    H2 3768   2.881   1.919   0.853
 1275TIP3   OH2 3769   3.296   3.681   2.776
 1275TIP3    H1 3770   3.270   3.739   2.847
 1275TIP3    H2 3771   3.291   3.593   2.814
 1276TIP3   OH2 3772   6.050   3.296   3.146
 1276TIP3    H1 3773   6.124   3.349   3.115
 1276TIP3    H2 3774   5.983   3.359   3.171
 1277TIP3   OH2 3775   3.824   5.719   4.097
 1277TIP3    H1 3776   3.845   5.681   4.012
 1277TIP3    H2 3777   3.774   5.798   4.076
 1278TIP3   OH2 3778   7.357   0.885   2.305
 1278TIP3    H1 3779   7.280   0.841   2.341
 1278TIP3    H2 3780   7.417   0.893   2.378
 1279TIP3   OH2 3781   7.732   0.157   4.855
 1279TIP3    H1 3782   7.724   0.250   4.878
 1279TIP3    H2 3783   7.818   0.132   4.886
 1280TIP3   OH2 3784   3.667   5.358   3.898
 1280TIP3    H1 3785   3.711   5.286   3.853
 1280TIP3    H2 3786   3.623   5.317   3.972
 1281TIP3   OH2 3787   6.183   6.730   6.765
 1281TIP3    H1 3788   6.112   6.696   6.819
 1281TIP3    H2 3789   6.145   6.806   6.720
 1282TIP3   OH2 3790   1.243   4.209   2.819
 1282TIP3    H1 3791   1.182   4.227   2.747
 1282TIP3    H2 3792   1.330   4.219   2.780
 1283TIP3   OH2 3793   5.734   5.009   0.632
 1283TIP3    H1 3794   5.677   5.075   0.672
 1283TIP3    H2 3795   5.822   5.045   0.641
 1284TIP3   OH2 3796   6.335   0.307   4.388
 1284TIP3    H1 3797   6.388   0.256   4.449
 1284TIP3    H2 3798   6.245   0.278   4.404
 1285TIP3   OH2 3799   5.407   3.608   0.253
 1285TIP3    H1 3800   5.454   3.532   0.219
 1285TIP3    H2 3801   5.334   3.620   0.192
 1286TIP3   OH2 3802   1.844   0.407   4.446
 1286TIP3    H1 3803   1.915   0.389   4.507
 1286TIP3    H2 3804   1.869   0.489   4.403
 1287TIP3   OH2 3805   5.268   2.975   1.967
 1287TIP3    H1 3806   5.213   3.015   1.900
 1287TIP3    H2 3807   5.353   2.964   1.925
 1288TIP3   OH2 3808   6.839   1.658   6.201
 1288TIP3    H1 3809   6.874   1.583   6.153
 1288TIP3    H2 3810   6.842   1.731   6.138
 1289TIP3   OH2 3811   1.994   6.116   6.703
 1289TIP3    H1 3812   2.087   6.093   6.708
 1289TIP3    H2 3813   1.948   6.034   6.722
 1290TIP3   OH2 3814   7.189   4.484   0.663
 1290TIP3    H1 3815   7.229   4.425   0.728
 1290TIP3    H2 3816   7.108   4.441   0.638
 1291TIP3   OH2 3817   6.768   0.659   4.972
 1291TIP3    H1 3818   6.706   0.588   4.982
 1291TIP3    H2 3819   6.743   0.702   4.890
 1292TIP3   OH2 3820   2.754   3.394   1.745
 1292TIP3    H1 3821   2.793   3.448   1.676
 1292TIP3    H2 3822   2.827   3.341   1.778
 1293TIP3   OH2 3823   5.530   1.776   2.141
 1293TIP3    H1 3824   5.498   1.777   2.231
 1293TIP3    H2 3825   5.578   1.858   2.132
 1294TIP3   OH2 3826   2.653   1.802   4.949
 1294TIP3    H1 3827   2.709   1.878   4.935
 1294TIP3    H2 3828   2.564   1.836   4.942
 1295TIP3   OH2 3829   6.406   7.403   5.801
 1295TIP3    H1 3830   6.394   7.310   5.782
 1295TIP3    H2 3831   6.368   7.448   5.726
 1296TIP3   OH2 3832   6.143   6.936   6.482
 1296TIP3    H1 3833   6.128   7.031   6.484
 1296TIP3    H2 3834   6.093   6.906   6.406
 1297TIP3   OH2 3835   1.240   1.516   1.495
 1297TIP3    H1 3836   1.311   1.578   1.480
 1297TIP3    H2 3837   1.224   1.520   1.590
 1298TIP3   OH2 3838   1.533   7.027   2.822
 1298TIP3    H1 3839   1.465   7.088   2.795
 1298TIP3    H2 3840   1.587   7.014   2.744
 1299TIP3   OH2 3841   8.223   3.210   3.053
 1299TIP3    H1 3842   8.297   3.264   3.027
 1299TIP3    H2 3843   8.183   3.258   3.126
 1300TIP3   OH2 3844   3.759   6.765   0.976
 1300TIP3    H1 3845   3.786   6.824   1.047
 1300TIP3    H2 3846   3.670   6.738   1.000
 1301TIP3   OH2 3847   0.269   5.774   2.270
 1301TIP3    H1 3848   0.353   5.802   2.307
 1301TIP3    H2 3849   0.206   5.787   2.341
 1302TIP3   OH2 3850   4.809   2.487   3.544
 1302TIP3    H1 3851   4.743   2.523   3.604
 1302TIP3    H2 3852   4.766   2.412   3.502
 1303TIP3   OH2 3853   3.676   0.365   2.136
 1303TIP3    H1 3854   3.626   0.438   2.170
 1303TIP3    H2 3855   3.760   0.368   2.183
 1304TIP3   OH2 3856   7.926   4.700   2.427
 1304TIP3    H1 3857   7.967   4.725   2.345
 1304TIP3    H2 3858   7.938   4.605   2.432
 1305TIP3   OH2 3859   6.818   4.156   1.289
 1305TIP3    H1 3860   6.818   4.210   1.367
 1305TIP3    H2 3861   6.765   4.204   1.226
 1306TIP3   OH2 3862   5.532   2.022   4.477
 1306TIP3    H1 3863   5.611   2.002   4.528
 1306TIP3    H2 3864   5.463   2.033   4.542
 1307TIP3   OH2 3865   7.318   2.300   4.123
 1307TIP3    H1 3866   7.378   2.373   4.111
 1307TIP3    H2 3867   7.232   2.335   4.098
 1308TIP3   OH2 3868   6.377   3.948   4.348
 1308TIP3    H1 3869   6.437   3.968   4.420
 1308TIP3    H2 3870   6.372   4.029   4.298
 1309TIP3   OH2 3871   3.729   6.907   5.900
 1309TIP3    H1 3872   3.664   6.944   5.840
 1309TIP3    H2 3873   3.747   6.819   5.866
 1310TIP3   OH2 3874   2.785   1.167   1.013
 1310TIP3    H1 3875   2.724   1.196   0.945
 1310TIP3    H2 3876   2.729   1.131   1.082
 1311TIP3   OH2 3877   7.972   3.860   6.231
 1311TIP3    H1 3878   7.937   3.908   6.155
 1311TIP3    H2 3879   7.988   3.927   6.296
 1312TIP3   OH2 3880   2.181   7.536   1.835
 1312TIP3    H1 3881   2.249   7.564   1.896
 1312TIP3    H2 3882   2.163   7.613   1.782
 1313TIP3   OH2 3883   0.926   0.824   4.080
 1313TIP3    H1 3884   0.880   0.897   4.040
 1313TIP3    H2 3885   1.019   0.842   4.065
 1314TIP3   OH2 3886   4.300   2.556   5.892
 1314TIP3    H1 3887   4.292   2.470   5.933
 1314TIP3    H2 3888   4.332   2.613   5.962
 1315TIP3   OH2 3889   5.346   0.654   4.932
 1315TIP3    H1 3890   5.282   0.639   4.863
 1315TIP3    H2 3891   5.431   0.654   4.888
 1316TIP3   OH2 3892   1.824   0.433   0.280
 1316TIP3    H1 3893   1.872   0.384   0.213
 1316TIP3    H2 3894   1.862   0.521   0.277
 1317TIP3   OH2 3895   6.299   2.894   6.223
 1317TIP3    H1 3896   6.269   2.845   6.300
 1317TIP3    H2 3897   6.319   2.825   6.159
 1318TIP3   OH2 3898   3.610   4.279   1.924
 1318TIP3    H1 3899   3.694   4.239   1.943
 1318TIP3    H2 3900   3.600   4.271   1.829
 1319TIP3   OH2 3901   7.229   5.982   4.363
 1319TIP3    H1 3902   7.309   5.929   4.360
 1319TIP3    H2 3903   7.176   5.950   4.291
 1320TIP3   OH2 3904   8.283   4.279   1.975
 1320TIP3    H1 3905   8.240   4.206   1.930
 1320TIP3    H2 3906   8.225   4.354   1.959
 1321TIP3   OH2 3907   2.958   7.131   4.786
 1321TIP3    H1 3908   2.996   7.188   4.719
 1321TIP3    H2 3909   2.917   7.190   4.848
 1322TIP3   OH2 3910   5.098   1.177   3.803
 1322TIP3    H1 3911   5.025   1.228   3.839
 1322TIP3    H2 3912   5.063   1.138   3.723
 1323TIP3   OH2 3913   7.214   4.647   2.145
 1323TIP3    H1 3914   7.252   4.711   2.204
 1323TIP3    H2 3915   7.284   4.626   2.083
 1324TIP3   OH2 3916   4.352   4.040   5.223
 1324TIP3    H1 3917   4.435   4.075   5.257
 1324TIP3    H2 3918   4.370   3.948   5.205
 1325TIP3   OH2 3919   0.376   2.716   4.688
 1325TIP3    H1 3920   0.436   2.728   4.762
 1325TIP3    H2 3921   0.404   2.634   4.647
 1326TIP3   OH2 3922   0.078   1.813   2.710
 1326TIP3    H1 3923   0.167   1.780   2.696
 1326TIP3    H2 3924   0.056   1.784   2.799
 1327TIP3   OH2 3925   5.264   3.711   4.971
 1327TIP3    H1 3926   5.195   3.648   4.948
 1327TIP3    H2 3927   5.301   3.677   5.052
 1328TIP3   OH2 3928   5.063   1.512   5.216
 1328TIP3    H1 3929   5.040   1.468   5.298
 1328TIP3    H2 3930   5.071   1.442   5.152
 1329TIP3   OH2 3931   3.961   5.971   4.989
 1329TIP3    H1 3932   3.998   6.033   5.051
 1329TIP3    H2 3933   3.922   5.903   5.043
 1330TIP3   OH2 3934   2.564   1.321   2.337
 1330TIP3    H1 3935   2.538   1.355   2.423
 1330TIP3    H2 3936   2.658   1.304   2.346
 1331TIP3   OH2 3937   5.186   6.674   4.028
 1331TIP3    H1 3938   5.255   6.627   3.983
 1331TIP3    H2 3939   5.225   6.700   4.112
 1332TIP3   OH2 3940   0.302   0.451   1.226
 1332TIP3    H1 3941   0.386   0.412   1.250
 1332TIP3    H2 3942   0.307   0.540   1.260
 1333TIP3   OH2 3943   7.203   5.606   4.287
 1333TIP3    H1 3944   7.125   5.568   4.247
 1333TIP3    H2 3945   7.181   5.617   4.379
 1334TIP3   OH2 3946   5.524   2.519   3.668
 1334TIP3    H1 3947   5.480   2.494   3.750
 1334TIP3    H2 3948   5.460   2.499   3.600
 1335TIP3   OH2 3949   2.247   2.397   1.767
 1335TIP3    H1 3950   2.267   2.368   1.856
 1335TIP3    H2 3951   2.185   2.331   1.734
 1336TIP3   OH2 3952   4.583   6.477   4.313
 1336TIP3    H1 3953   4.620   6.460   4.400
 1336TIP3    H2 3954   4.496   6.438   4.315
 1337TIP3   OH2 3955   6.496   5.819   4.173
 1337TIP3    H1 3956   6.412   5.792   4.136
 1337TIP3    H2 3957   6.531   5.882   4.109
 1338TIP3   OH2 3958   3.272   7.615   0.580
 1338TIP3    H1 3959   3.239   7.562   0.653
 1338TIP3    H2 3960   3.308   7.551   0.519
 1339TIP3   OH2 3961   7.436   4.061   5.299
 1339TIP3    H1 3962   7.478   3.982   5.332
 1339TIP3    H2 3963   7.489   4.086   5.223
 1340TIP3   OH2 3964   3.198   3.677   5.695
 1340TIP3    H1 3965   3.222   3.587   5.721
 1340TIP3    H2 3966   3.187   3.672   5.600
 1341TIP3   OH2 3967   0.162   5.962   5.515
 1341TIP3    H1 3968   0.166   5.867   5.519
 1341TIP3    H2 3969   0.139   5.982   5.425
 1342TIP3   OH2 3970   7.829   2.361   6.244
 1342TIP3    H1 3971   7.878   2.442   6.254
 1342TIP3    H2 3972   7.737   2.387   6.255
 1343TIP3   OH2 3973   5.575   7.743   4.571
 1343TIP3    H1 3974   5.630   7.794   4.630
 1343TIP3    H2 3975   5.490   7.786   4.574
 1344TIP3   OH2 3976   3.564   5.589   0.402
 1344TIP3    H1 3977   3.578   5.681   0.383
 1344TIP3    H2 3978   3.477   5.570   0.367
 1345TIP3   OH2 3979   3.121   3.387   4.526
 1345TIP3    H1 3980   3.033   3.420   4.509
 1345TIP3    H2 3981   3.134   3.399   4.620
 1346TIP3   OH2 3982   7.136   2.285   2.585
 1346TIP3    H1 3983   7.224   2.303   2.551
 1346TIP3    H2 3984   7.098   2.223   2.523
 1347TIP3   OH2 3985   5.498   3.689   5.608
 1347TIP3    H1 3986   5.536   3.624   5.548
 1347TIP3    H2 3987   5.534   3.772   5.578
 1348TIP3   OH2 3988   7.407   6.574   0.797
 1348TIP3    H1 3989   7.319   6.538   0.786
 1348TIP3    H2 3990   7.450   6.556   0.713
 1349TIP3   OH2 3991   6.074   0.201   1.650
 1349TIP3    H1 3992   6.099   0.149   1.573
 1349TIP3    H2 3993   6.122   0.283   1.640
 1350TIP3   OH2 3994   3.600   6.324   2.933
 1350TIP3    H1 3995   3.605   6.229   2.922
 1350TIP3    H2 3996   3.686   6.348   2.966
 1351TIP3   OH2 3997   0.118   1.985   0.657
 1351TIP3    H1 3998   0.045   1.975   0.718
 1351TIP3    H2 3999   0.084   1.949   0.574
 1352TIP3   OH2 4000   0.982   2.967   0.933
 1352TIP3    H1 4001   0.927   2.919   0.871
 1352TIP3    H2 4002   1.053   3.004   0.880
 1353TIP3   OH2 4003   6.896   3.885   2.612
 1353TIP3    H1 4004   6.918   3.977   2.596
 1353TIP3    H2 4005   6.905   3.843   2.527
 1354TIP3   OH2 4006   5.290   7.587   3.758
 1354TIP3    H1 4007   5.302   7.635   3.841
 1354TIP3    H2 4008   5.301   7.495   3.782
 1355TIP3   OH2 4009   7.418   7.643   0.107
 1355TIP3    H1 4010   7.386   7.731   0.087
 1355TIP3    H2 4011   7.339   7.589   0.108
 1356TIP3   OH2 4012   2.753   2.564   4.445
 1356TIP3    H1 4013   2.804   2.495   4.487
 1356TIP3    H2 4014   2.668   2.525   4.428
 1357TIP3   OH2 4015   5.426   3.614   5.179
 1357TIP3    H1 4016   5.377   3.542   5.219
 1357TIP3    H2 4017   5.505   3.623   5.233
 1358TIP3   OH2 4018   8.183   2.011   2.947
 1358TIP3    H1 4019   8.192   2.046   3.036
 1358TIP3    H2 4020   8.206   2.085   2.890
 1359TIP3   OH2 4021   0.143   6.955   1.300
 1359TIP3    H1 4022   0.156   6.943   1.205
 1359TIP3    H2 4023   0.204   7.024   1.324
 1360TIP3   OH2 4024   1.848   5.178   5.008
 1360TIP3    H1 4025   1.788   5.225   5.066
 1360TIP3    H2 4026   1.913   5.244   4.982
 1361TIP3   OH2 4027   5.725   4.613   4.291
 1361TIP3    H1 4028   5.712   4.596   4.384
 1361TIP3    H2 4029   5.798   4.556   4.267
 1362TIP3   OH2 4030   5.229   1.057   6.013
 1362TIP3    H1 4031   5.207   1.093   5.928
 1362TIP3    H2 4032   5.286   1.123   6.053
 1363TIP3   OH2 4033   1.246   5.037   2.225
 1363TIP3    H1 4034   1.196   5.111   2.260
 1363TIP3    H2 4035   1.284   4.996   2.303
 1364TIP3   OH2 4036   6.991   4.306   0.488
 1364TIP3    H1 4037   6.945   4.225   0.468
 1364TIP3    H2 4038   6.926   4.375   0.475
 1365TIP3   OH2 4039   2.254   2.848   3.776
 1365TIP3    H1 4040   2.162   2.825   3.768
 1365TIP3    H2 4041   2.291   2.832   3.690
 1366TIP3   OH2 4042   7.805   4.509   2.975
 1366TIP3    H1 4043   7.745   4.545   3.041
 1366TIP3    H2 4044   7.748   4.477   2.905
 1367TIP3   OH2 4045   1.588   4.733   1.976
 1367TIP3    H1 4046   1.495   4.714   1.964
 1367TIP3    H2 4047   1.590   4.823   2.008
 1368TIP3   OH2 4048   5.611   6.460   3.598
 1368TIP3    H1 4049   5.579   6.550   3.599
 1368TIP3    H2 4050   5.584   6.424   3.682
 1369TIP3   OH2 4051   4.229   4.795   6.291
 1369TIP3    H1 4052   4.273   4.715   6.319
 1369TIP3    H2 4053   4.300   4.854   6.266
 1370TIP3   OH2 4054   3.355   6.618   1.629
 1370TIP3    H1 4055   3.421   6.632   1.561
 1370TIP3    H2 4056   3.315   6.534   1.607
 1371TIP3   OH2 4057   3.592   4.886   6.242
 1371TIP3    H1 4058   3.634   4.952   6.187
 1371TIP3    H2 4059   3.648   4.881   6.320
 1372TIP3   OH2 4060   6.960   4.851   1.523
 1372TIP3    H1 4061   6.909   4.781   1.563
 1372TIP3    H2 4062   6.929   4.931   1.566
 1373TIP3   OH2 4063   5.538   4.012   6.446
 1373TIP3    H1 4064   5.606   3.956   6.483
 1373TIP3    H2 4065   5.490   4.044   6.522
 1374TIP3   OH2 4066   5.829   6.411   6.279
 1374TIP3    H1 4067   5.752   6.465   6.295
 1374TIP3    H2 4068   5.861   6.439   6.193
 1375TIP3   OH2 4069   7.545   2.657   2.951
 1375TIP3    H1 4070   7.584   2.661   3.038
 1375TIP3    H2 4071   7.615   2.625   2.894
 1376TIP3   OH2 4072   7.687   7.161   3.269
 1376TIP3    H1 4073   7.781   7.146   3.260
 1376TIP3    H2 4074   7.650   7.128   3.188
 1377TIP3   OH2 4075   5.821   2.075   0.286
 1377TIP3    H1 4076   5.913   2.092   0.309
 1377TIP3    H2 4077   5.775   2.077   0.369
 1378TIP3   OH2 4078   3.421   7.419   2.045
 1378TIP3    H1 4079   3.424   7.514   2.028
 1378TIP3    H2 4080   3.390   7.412   2.135
 1379TIP3   OH2 4081   4.070   6.496   4.667
 1379TIP3    H1 4082   4.019   6.547   4.603
 1379TIP3    H2 4083   4.161   6.509   4.641
 1380TIP3   OH2 4084   7.793   0.078   0.287
 1380TIP3    H1 4085   7.857   0.009   0.305
 1380TIP3    H2 4086   7.831   0.156   0.327
 1381TIP3   OH2 4087   5.631   6.161   6.628
 1381TIP3    H1 4088   5.644   6.254   6.644
 1381TIP3    H2 4089   5.654   6.149   6.536
 1382TIP3   OH2 4090   6.136   6.600   5.115
 1382TIP3    H1 4091   6.230   6.589   5.132
 1382TIP3    H2 4092   6.101   6.634   5.198
 1383TIP3   OH2 4093   5.245   1.064   0.628
 1383TIP3    H1 4094   5.209   1.068   0.717
 1383TIP3    H2 4095   5.313   1.131   0.626
 1384TIP3   OH2 4096   2.889   5.383   1.462
 1384TIP3    H1 4097   2.966   5.325   1.465
 1384TIP3    H2 4098   2.840   5.354   1.385
 1385TIP3   OH2 4099   0.834   1.638   3.763
 1385TIP3    H1 4100   0.853   1.725   3.727
 1385TIP3    H2 4101   0.919   1.604   3.789
 1386TIP3   OH2 4102   1.131   0.090   4.026
 1386TIP3    H1 4103   1.055   0.089   3.967
 1386TIP3    H2 4104   1.110   0.023   4.092
 1387TIP3   OH2 4105   4.630   6.047   0.413
 1387TIP3    H1 4106   4.609   6.015   0.325
 1387TIP3    H2 4107   4.705   6.105   0.400
 1388TIP3   OH2 4108   1.344   6.362   4.577
 1388TIP3    H1 4109   1.401   6.289   4.552
 1388TIP3    H2 4110   1.346   6.363   4.672
 1389TIP3   OH2 4111   4.721   0.294   6.213
 1389TIP3    H1 4112   4.789   0.292   6.280
 1389TIP3    H2 4113   4.748   0.365   6.154
 1390TIP3   OH2 4114   0.357   3.540   0.967
 1390TIP3    H1 4115   0.328   3.519   1.056
 1390TIP3    H2 4116   0.323   3.467   0.914
 1391TIP3   OH2 4117   2.848   7.508   0.712
 1391TIP3    H1 4118   2.921   7.450   0.691
 1391TIP3    H2 4119   2.888   7.595   0.718
 1392TIP3   OH2 4120   7.393   3.413   2.294
 1392TIP3    H1 4121   7.425   3.392   2.207
 1392TIP3    H2 4122   7.318   3.471   2.279
 1393TIP3   OH2 4123   6.351   0.154   6.452
 1393TIP3    H1 4124   6.419   0.194   6.507
 1393TIP3    H2 4125   6.270   0.199   6.476
 1394TIP3   OH2 4126   7.643   4.754   3.766
 1394TIP3    H1 4127   7.690   4.835   3.787
 1394TIP3    H2 4128   7.692   4.686   3.812
 1395TIP3   OH2 4129   3.137   4.005   5.303
 1395TIP3    H1 4130   3.098   3.923   5.271
 1395TIP3    H2 4131   3.230   3.985   5.309
 1396TIP3   OH2 4132   0.555   4.863   0.227
 1396TIP3    H1 4133   0.542   4.843   0.320
 1396TIP3    H2 4134   0.636   4.817   0.204
 1397TIP3   OH2 4135   1.446   2.900   0.378
 1397TIP3    H1 4136   1.428   2.807   0.366
 1397TIP3    H2 4137   1.531   2.903   0.421
 1398TIP3   OH2 4138   6.114   6.398   3.900
 1398TIP3    H1 4139   6.167   6.436   3.969
 1398TIP3    H2 4140   6.138   6.447   3.821
 1399TIP3   OH2 4141   7.342   7.532   2.477
 1399TIP3    H1 4142   7.394   7.557   2.401
 1399TIP3    H2 4143   7.273   7.476   2.442
 1400TIP3   OH2 4144   3.382   6.566   2.698
 1400TIP3    H1 4145   3.433   6.587   2.776
 1400TIP3    H2 4146   3.409   6.478   2.673
 1401TIP3   OH2 4147   2.721   7.241   6.044
 1401TIP3    H1 4148   2.708   7.317   6.101
 1401TIP3    H2 4149   2.677   7.169   6.089
 1402TIP3   OH2 4150   0.431   1.312   3.226
 1402TIP3    H1 4151   0.462   1.359   3.149
 1402TIP3    H2 4152   0.432   1.377   3.296
 1403TIP3   OH2 4153   7.858   1.442   0.393
 1403TIP3    H1 4154   7.853   1.516   0.454
 1403TIP3    H2 4155   7.779   1.391   0.412
 1404TIP3   OH2 4156   0.734   3.987   5.988
 1404TIP3    H1 4157   0.676   4.057   6.018
 1404TIP3    H2 4158   0.747   4.005   5.895
 1405TIP3   OH2 4159   4.710   4.089   4.161
 1405TIP3    H1 4160   4.666   4.015   4.203
 1405TIP3    H2 4161   4.663   4.166   4.192
 1406TIP3   OH2 4162   3.671   6.485   1.716
 1406TIP3    H1 4163   3.645   6.577   1.711
 1406TIP3    H2 4164   3.683   6.459   1.624
 1407TIP3   OH2 4165   3.391   5.411   0.081
 1407TIP3    H1 4166   3.311   5.373   0.117
 1407TIP3    H2 4167   3.461   5.376   0.136
 1408TIP3   OH2 4168   7.944   1.074   3.417
 1408TIP3    H1 4169   7.909   1.069   3.506
 1408TIP3    H2 4170   7.995   0.994   3.407
 1409TIP3   OH2 4171   8.240   1.993   2.576
 1409TIP3    H1 4172   8.274   1.941   2.649
 1409TIP3    H2 4173   8.217   2.077   2.615
 1410TIP3   OH2 4174   3.042   3.241   5.566
 1410TIP3    H1 4175   3.088   3.275   5.642
 1410TIP3    H2 4176   3.046   3.145   5.577
 1411TIP3   OH2 4177   6.914   0.523   3.340
 1411TIP3    H1 4178   6.964   0.443   3.359
 1411TIP3    H2 4179   6.831   0.492   3.304
 1412TIP3   OH2 4180   4.149   7.777   1.613
 1412TIP3    H1 4181   4.104   7.692   1.615
 1412TIP3    H2 4182   4.101   7.831   1.676
 1413TIP3   OH2 4183   2.569   4.613   0.511
 1413TIP3    H1 4184   2.494   4.556   0.525
 1413TIP3    H2 4185   2.535   4.702   0.519
 1414TIP3   OH2 4186   1.999   2.821   4.430
 1414TIP3    H1 4187   1.905   2.837   4.440
 1414TIP3    H2 4188   2.041   2.897   4.471
 1415TIP3   OH2 4189   6.234   1.354   4.964
 1415TIP3    H1 4190   6.150   1.321   4.931
 1415TIP3    H2 4191   6.230   1.448   4.951
 1416TIP3   OH2 4192   6.507   3.942   0.150
 1416TIP3    H1 4193   6.419   3.940   0.115
 1416TIP3    H2 4194   6.563   3.913   0.078
 1417TIP3   OH2 4195   4.780   2.011   1.983
 1417TIP3    H1 4196   4.734   2.063   1.918
 1417TIP3    H2 4197   4.845   2.071   2.021
 1418TIP3   OH2 4198   6.373   5.569   2.374
 1418TIP3    H1 4199   6.336   5.579   2.461
 1418TIP3    H2 4200   6.398   5.658   2.348
 1419TIP3   OH2 4201   5.765   6.971   6.478
 1419TIP3    H1 4202   5.800   7.040   6.421
 1419TIP3    H2 4203   5.774   6.891   6.427
 1420TIP3   OH2 4204   3.857   0.115   1.918
 1420TIP3    H1 4205   3.860   0.110   1.822
 1420TIP3    H2 4206   3.792   0.182   1.937
 1421TIP3   OH2 4207   2.816   5.811   4.313
 1421TIP3    H1 4208   2.748   5.859   4.264
 1421TIP3    H2 4209   2.895   5.865   4.303
 1422TIP3   OH2 4210   0.058   1.076   3.514
 1422TIP3    H1 4211  -0.027   1.072   3.471
 1422TIP3    H2 4212   0.111   1.131   3.457
 1423TIP3   OH2 4213   3.069   2.964   5.591
 1423TIP3    H1 4214   2.988   2.916   5.573
 1423TIP3    H2 4215   3.089   2.944   5.683
 1424TIP3   OH2 4216   4.886   3.147   6.213
 1424TIP3    H1 4217   4.972   3.120   6.184
 1424TIP3    H2 4218   4.825   3.106   6.152
 1425TIP3   OH2 4219   4.060   0.458   6.521
 1425TIP3    H1 4220   4.106   0.385   6.562
 1425TIP3    H2 4221   4.066   0.529   6.585
 1426TIP3   OH2 4222   1.614   4.234   0.035
 1426TIP3    H1 4223   1.581   4.150   0.004
 1426TIP3    H2 4224   1.652   4.215   0.121
 1427TIP3   OH2 4225   2.765   6.867   2.054
 1427TIP3    H1 4226   2.751   6.775   2.074
 1427TIP3    H2 4227   2.861   6.878   2.056
 1428TIP3   OH2 4228   5.199   3.260   2.066
 1428TIP3    H1 4229   5.192   3.188   2.004
 1428TIP3    H2 4230   5.293   3.266   2.085
 1429TIP3   OH2 4231   0.445   7.322   0.974
 1429TIP3    H1 4232   0.534   7.301   0.947
 1429TIP3    H2 4233   0.414   7.243   1.019
 1430TIP3   OH2 4234   7.511   6.411   2.937
 1430TIP3    H1 4235   7.457   6.490   2.946
 1430TIP3    H2 4236   7.543   6.415   2.847
 1431TIP3   OH2 4237   4.888   6.469   1.451
 1431TIP3    H1 4238   4.883   6.466   1.547
 1431TIP3    H2 4239   4.801   6.445   1.422
 1432TIP3   OH2 4240   5.007   3.082   2.436
 1432TIP3    H1 4241   4.987   2.995   2.402
 1432TIP3    H2 4242   5.008   3.070   2.531
 1433TIP3   OH2 4243   0.022   7.727   2.839
 1433TIP3    H1 4244   0.044   7.719   2.746
 1433TIP3    H2 4245  -0.067   7.760   2.840
 1434TIP3   OH2 4246   3.621   3.967   5.550
 1434TIP3    H1 4247   3.559   3.899   5.574
 1434TIP3    H2 4248   3.698   3.951   5.605
 1435TIP3   OH2 4249   7.080   7.695   4.876
 1435TIP3    H1 4250   7.005   7.749   4.900
 1435TIP3    H2 4251   7.113   7.660   4.959
 1436TIP3   OH2 4252   7.390   4.615   3.411
 1436TIP3    H1 4253   7.380   4.611   3.506
 1436TIP3    H2 4254   7.451   4.688   3.396
 1437TIP3   OH2 4255   1.648   6.361   3.351
 1437TIP3    H1 4256   1.557   6.359   3.379
 1437TIP3    H2 4257   1.666   6.272   3.320
 1438TIP3   OH2 4258   6.396   3.613   4.831
 1438TIP3    H1 4259   6.431   3.631   4.743
 1438TIP3    H2 4260   6.460   3.651   4.891
 1439TIP3   OH2 4261   8.065   1.661   1.740
 1439TIP3    H1 4262   8.010   1.693   1.811
 1439TIP3    H2 4263   8.007   1.605   1.688
 1440TIP3   OH2 4264   2.027   2.555   3.433
 1440TIP3    H1 4265   2.103   2.498   3.423
 1440TIP3    H2 4266   2.011   2.556   3.528
 1441TIP3   OH2 4267   4.363   1.880   3.741
 1441TIP3    H1 4268   4.444   1.870   3.792
 1441TIP3    H2 4269   4.390   1.929   3.663
 1442TIP3   OH2 4270   4.919   5.252   5.675
 1442TIP3    H1 4271   4.873   5.288   5.751
 1442TIP3    H2 4272   4.998   5.305   5.666
 1443TIP3   OH2 4273   7.471   4.280   0.913
 1443TIP3    H1 4274   7.425   4.350   0.959
 1443TIP3    H2 4275   7.403   4.233   0.865
 1444TIP3   OH2 4276   5.315   7.002   1.619
 1444TIP3    H1 4277   5.226   7.020   1.588
 1444TIP3    H2 4278   5.334   7.075   1.679
 1445TIP3   OH2 4279   6.163   2.008   2.784
 1445TIP3    H1 4280   6.178   2.074   2.716
 1445TIP3    H2 4281   6.096   2.047   2.840
 1446TIP3   OH2 4282   7.226   2.074   3.201
 1446TIP3    H1 4283   7.196   2.033   3.283
 1446TIP3    H2 4284   7.308   2.117   3.225
 1447TIP3   OH2 4285   8.210   2.939   3.174
 1447TIP3    H1 4286   8.174   2.961   3.259
 1447TIP3    H2 4287   8.221   3.023   3.129
 1448TIP3   OH2 4288   5.313   7.229   1.778
 1448TIP3    H1 4289   5.221   7.223   1.804
 1448TIP3    H2 4290   5.360   7.244   1.860
 1449TIP3   OH2 4291   1.012   0.015   0.535
 1449TIP3    H1 4292   0.921   0.006   0.507
 1449TIP3    H2 4293   1.017   0.102   0.573
 1450TIP3   OH2 4294   5.381   2.630   5.807
 1450TIP3    H1 4295   5.289   2.607   5.811
 1450TIP3    H2 4296   5.400   2.668   5.893
 1451TIP3   OH2 4297   4.909   1.017   1.364
 1451TIP3    H1 4298   4.922   0.925   1.385
 1451TIP3    H2 4299   4.959   1.065   1.430
 1452TIP3   OH2 4300   2.481   6.714   3.136
 1452TIP3    H1 4301   2.504   6.794   3.183
 1452TIP3    H2 4302   2.450   6.654   3.204
 1453TIP3   OH2 4303   7.213   3.781   2.949
 1453TIP3    H1 4304   7.303   3.776   2.915
 1453TIP3    H2 4305   7.224   3.775   3.044
 1454TIP3   OH2 4306   2.320   7.440   4.375
 1454TIP3    H1 4307   2.386   7.454   4.307
 1454TIP3    H2 4308   2.323   7.519   4.428
 1455TIP3   OH2 4309   3.679   3.249   1.525
 1455TIP3    H1 4310   3.708   3.258   1.616
 1455TIP3    H2 4311   3.672   3.339   1.493
 1456TIP3   OH2 4312   6.683   4.268   4.062
 1456TIP3    H1 4313   6.738   4.324   4.117
 1456TIP3    H2 4314   6.687   4.182   4.104
 1457TIP3   OH2 4315   1.360   2.678   4.529
 1457TIP3    H1 4316   1.393   2.754   4.577
 1457TIP3    H2 4317   1.351   2.610   4.596
 1458TIP3   OH2 4318   3.638   6.793   4.273
 1458TIP3    H1 4319   3.554   6.801   4.318
 1458TIP3    H2 4320   3.703   6.792   4.343
 1459TIP3   OH2 4321   0.442   2.260   4.439
 1459TIP3    H1 4322   0.440   2.186   4.499
 1459TIP3    H2 4323   0.509   2.318   4.474
 1460TIP3   OH2 4324   3.976   2.991   2.561
 1460TIP3    H1 4325   4.024   2.982   2.479
 1460TIP3    H2 4326   3.917   2.916   2.562
 1461TIP3   OH2 4327   1.652   4.804   3.715
 1461TIP3    H1 4328   1.557   4.805   3.708
 1461TIP3    H2 4329   1.680   4.732   3.659
 1462TIP3   OH2 4330   8.217   2.788   4.987
 1462TIP3    H1 4331   8.136   2.768   5.034
 1462TIP3    H2 4332   8.201   2.755   4.898
 1463TIP3   OH2 4333   7.403   5.537   0.644
 1463TIP3    H1 4334   7.369   5.456   0.606
 1463TIP3    H2 4335   7.415   5.516   0.737
 1464TIP3   OH2 4336   3.393   4.946   2.988
 1464TIP3    H1 4337   3.381   4.870   3.044
 1464TIP3    H2 4338   3.339   5.014   3.027
 1465TIP3   OH2 4339   6.136   6.792   0.059
 1465TIP3    H1 4340   6.207   6.770   0.120
 1465TIP3    H2 4341   6.059   6.747   0.094
 1466TIP3   OH2 4342   1.927   2.519   0.053
 1466TIP3    H1 4343   1.969   2.459  -0.008
 1466TIP3    H2 4344   1.870   2.573  -0.002
 1467TIP3   OH2 4345   6.348   7.609   0.929
 1467TIP3    H1 4346   6.373   7.700   0.943
 1467TIP3    H2 4347   6.268   7.615   0.876
 1468TIP3   OH2 4348   6.452   0.003   1.311
 1468TIP3    H1 4349   6.422  -0.020   1.399
 1468TIP3    H2 4350   6.483   0.093   1.320
 1469TIP3   OH2 4351   2.625   5.367   3.576
 1469TIP3    H1 4352   2.547   5.363   3.520
 1469TIP3    H2 4353   2.698   5.352   3.516
 1470TIP3   OH2 4354   2.841   7.654   4.148
 1470TIP3    H1 4355   2.913   7.631   4.090
 1470TIP3    H2 4356   2.765   7.662   4.091
 1471TIP3   OH2 4357   0.932   4.224   1.422
 1471TIP3    H1 4358   0.860   4.179   1.378
 1471TIP3    H2 4359   1.010   4.202   1.370
 1472TIP3   OH2 4360   4.396   2.830   3.588
 1472TIP3    H1 4361   4.377   2.767   3.657
 1472TIP3    H2 4362   4.312   2.870   3.567
 1473TIP3   OH2 4363   1.625   2.795   1.268
 1473TIP3    H1 4364   1.689   2.727   1.287
 1473TIP3    H2 4365   1.569   2.757   1.200
 1474TIP3   OH2 4366   3.144   2.461   0.736
 1474TIP3    H1 4367   3.074   2.472   0.672
 1474TIP3    H2 4368   3.215   2.420   0.687
 1475TIP3   OH2 4369   1.818   4.118   6.196
 1475TIP3    H1 4370   1.747   4.075   6.148
 1475TIP3    H2 4371   1.816   4.076   6.282
 1476TIP3   OH2 4372   4.245   0.846   4.811
 1476TIP3    H1 4373   4.246   0.837   4.716
 1476TIP3    H2 4374   4.224   0.758   4.843
 1477TIP3   OH2 4375   0.209   3.066   0.726
 1477TIP3    H1 4376   0.114   3.075   0.728
 1477TIP3    H2 4377   0.237   3.079   0.817
 1478TIP3   OH2 4378   1.771   3.155   5.734
 1478TIP3    H1 4379   1.709   3.095   5.775
 1478TIP3    H2 4380   1.718   3.205   5.671
 1479TIP3   OH2 4381   2.895   7.563   2.043
 1479TIP3    H1 4382   2.889   7.507   2.120
 1479TIP3    H2 4383   2.953   7.515   1.983
 1480TIP3   OH2 4384   4.681   2.721   5.036
 1480TIP3    H1 4385   4.591   2.745   5.014
 1480TIP3    H2 4386   4.690   2.746   5.128
 1481TIP3   OH2 4387   8.014   6.991   2.307
 1481TIP3    H1 4388   8.083   7.049   2.274
 1481TIP3    H2 4389   7.958   6.976   2.231
 1482TIP3   OH2 4390   2.775   7.540   2.937
 1482TIP3    H1 4391   2.821   7.532   3.020
 1482TIP3    H2 4392   2.682   7.529   2.960
 1483TIP3   OH2 4393   6.054   5.992   2.521
 1483TIP3    H1 4394   6.128   5.958   2.472
 1483TIP3    H2 4395   6.091   6.024   2.603
 1484TIP3   OH2 4396   0.914   2.410   5.252
 1484TIP3    H1 4397   0.980   2.434   5.318
 1484TIP3    H2 4398   0.832   2.404   5.301
 1485TIP3   OH2 4399   6.798   6.961   5.073
 1485TIP3    H1 4400   6.733   6.966   5.143
 1485TIP3    H2 4401   6.839   7.048   5.072
 1486TIP3   OH2 4402   1.556   0.076   5.996
 1486TIP3    H1 4403   1.600   0.004   5.951
 1486TIP3    H2 4404   1.534   0.041   6.082
 1487TIP3   OH2 4405   0.273   5.653   6.745
 1487TIP3    H1 4406   0.205   5.606   6.696
 1487TIP3    H2 4407   0.241   5.653   6.835
 1488TIP3   OH2 4408   4.244   3.006   4.774
 1488TIP3    H1 4409   4.252   3.041   4.685
 1488TIP3    H2 4410   4.306   2.933   4.776
 1489TIP3   OH2 4411   6.032   4.531   1.653
 1489TIP3    H1 4412   5.962   4.534   1.589
 1489TIP3    H2 4413   6.101   4.480   1.611
 1490TIP3   OH2 4414   1.936  -0.003   0.996
 1490TIP3    H1 4415   1.855  -0.038   0.959
 1490TIP3    H2 4416   1.920   0.000   1.090
 1491TIP3   OH2 4417   0.091   5.720   1.212
 1491TIP3    H1 4418   0.103   5.805   1.255
 1491TIP3    H2 4419   0.109   5.738   1.120
 1492TIP3   OH2 4420   0.403   4.157   1.455
 1492TIP3    H1 4421   0.455   4.232   1.427
 1492TIP3    H2 4422   0.322   4.163   1.405
 1493TIP3   OH2 4423   4.529   1.002   2.018
 1493TIP3    H1 4424   4.516   1.001   1.924
 1493TIP3    H2 4425   4.608   0.951   2.033
 1494TIP3   OH2 4426   5.754   5.969   1.934
 1494TIP3    H1 4427   5.695   6.037   1.901
 1494TIP3    H2 4428   5.771   5.995   2.024
 1495TIP3   OH2 4429   8.218   2.106   4.408
 1495TIP3    H1 4430   8.248   2.021   4.376
 1495TIP3    H2 4431   8.265   2.169   4.354
 1496TIP3   OH2 4432   6.749   2.381   4.536
 1496TIP3    H1 4433   6.814   2.311   4.525
 1496TIP3    H2 4434   6.666   2.339   4.515
 1497TIP3   OH2 4435   5.371   7.385   1.579
 1497TIP3    H1 4436   5.349   7.348   1.664
 1497TIP3    H2 4437   5.319   7.334   1.517
 1498TIP3   OH2 4438   8.144   3.515   5.341
 1498TIP3    H1 4439   8.129   3.507   5.435
 1498TIP3    H2 4440   8.203   3.590   5.333
 1499TIP3   OH2 4441   2.165   5.142   3.300
 1499TIP3    H1 4442   2.135   5.052   3.289
 1499TIP3    H2 4443   2.187   5.149   3.393
 1500TIP3   OH2 4444   1.950   3.375   0.505
 1500TIP3    H1 4445   1.875   3.316   0.507
 1500TIP3    H2 4446   1.933   3.438   0.575
 1501TIP3   OH2 4447   5.366   0.300   3.750
 1501TIP3    H1 4448   5.458   0.326   3.744
 1501TIP3    H2 4449   5.368   0.214   3.792
 1502TIP3   OH2 4450   6.301   2.398   4.134
 1502TIP3    H1 4451   6.278   2.364   4.220
 1502TIP3    H2 4452   6.225   2.450   4.107
 1503TIP3   OH2 4453   2.660   3.787   1.064
 1503TIP3    H1 4454   2.670   3.853   0.997
 1503TIP3    H2 4455   2.727   3.722   1.044
 1504TIP3   OH2 4456   4.370   0.236   5.139
 1504TIP3    H1 4457   4.464   0.219   5.135
 1504TIP3    H2 4458   4.332   0.153   5.164
 1505TIP3   OH2 4459   0.668   4.275   5.425
 1505TIP3    H1 4460   0.664   4.281   5.329
 1505TIP3    H2 4461   0.742   4.330   5.449
 1506TIP3   OH2 4462   3.792   4.650   2.732
 1506TIP3    H1 4463   3.847   4.672   2.656
 1506TIP3    H2 4464   3.852   4.651   2.806
 1507TIP3   OH2 4465   1.751   2.356   5.624
 1507TIP3    H1 4466   1.703   2.382   5.703
 1507TIP3    H2 4467   1.696   2.289   5.583
 1508TIP3   OH2 4468   0.163   6.004   1.679
 1508TIP3    H1 4469   0.107   6.061   1.731
 1508TIP3    H2 4470   0.245   6.053   1.670
 1509TIP3   OH2 4471   5.795   2.034   1.331
 1509TIP3    H1 4472   5.775   1.948   1.294
 1509TIP3    H2 4473   5.742   2.094   1.280
 1510TIP3   OH2 4474   1.726   2.323   1.008
 1510TIP3    H1 4475   1.723   2.271   0.928
 1510TIP3    H2 4476   1.651   2.294   1.059
 1511TIP3   OH2 4477   4.023   2.363   2.007
 1511TIP3    H1 4478   4.081   2.373   2.083
 1511TIP3    H2 4479   4.017   2.451   1.970
 1512TIP3   OH2 4480   8.121   1.729   5.775
 1512TIP3    H1 4481   8.158   1.677   5.704
 1512TIP3    H2 4482   8.026   1.722   5.764
 1513TIP3   OH2 4483   6.704   2.088   1.878
 1513TIP3    H1 4484   6.725   1.995   1.872
 1513TIP3    H2 4485   6.728   2.123   1.792
 1514TIP3   OH2 4486   7.817   7.087   0.534
 1514TIP3    H1 4487   7.763   7.032   0.591
 1514TIP3    H2 4488   7.803   7.176   0.567
 1515TIP3   OH2 4489   6.784   5.163   3.065
 1515TIP3    H1 4490   6.718   5.107   3.023
 1515TIP3    H2 4491   6.754   5.252   3.048
 1516TIP3   OH2 4492   7.609   6.291   5.137
 1516TIP3    H1 4493   7.597   6.252   5.050
 1516TIP3    H2 4494   7.595   6.385   5.124
 1517TIP3   OH2 4495   3.705   7.561   3.628
 1517TIP3    H1 4496   3.646   7.548   3.702
 1517TIP3    H2 4497   3.672   7.639   3.584
 1518TIP3   OH2 4498   7.508   0.897   4.892
 1518TIP3    H1 4499   7.457   0.893   4.974
 1518TIP3    H2 4500   7.588   0.942   4.916
 1519TIP3   OH2 4501   3.293   1.970   1.768
 1519TIP3    H1 4502   3.214   2.018   1.795
 1519TIP3    H2 4503   3.364   2.034   1.774
 1520TIP3   OH2 4504   1.375   3.529   2.187
 1520TIP3    H1 4505   1.419   3.513   2.270
 1520TIP3    H2 4506   1.288   3.491   2.198
 1521TIP3   OH2 4507   1.766   4.520   4.427
 1521TIP3    H1 4508   1.773   4.599   4.373
 1521TIP3    H2 4509   1.846   4.471   4.408
 1522TIP3   OH2 4510   5.144   4.370   4.884
 1522TIP3    H1 4511   5.176   4.354   4.973
 1522TIP3    H2 4512   5.080   4.301   4.868
 1523TIP3   OH2 4513   3.261   4.833   2.144
 1523TIP3    H1 4514   3.355   4.837   2.164
 1523TIP3    H2 4515   3.246   4.742   2.117
 1524TIP3   OH2 4516   6.098   5.134   5.947
 1524TIP3    H1 4517   6.044   5.204   5.984
 1524TIP3    H2 4518   6.110   5.073   6.019
 1525TIP3   OH2 4519   3.238   4.865   4.013
 1525TIP3    H1 4520   3.291   4.944   4.008
 1525TIP3    H2 4521   3.299   4.797   4.043
 1526TIP3   OH2 4522   6.710   7.731   5.225
 1526TIP3    H1 4523   6.737   7.822   5.215
 1526TIP3    H2 4524   6.620   7.736   5.257
 1527TIP3   OH2 4525   2.554   4.139   4.492
 1527TIP3    H1 4526   2.490   4.208   4.474
 1527TIP3    H2 4527   2.633   4.186   4.519
 1528TIP3   OH2 4528   7.898   1.984   5.775
 1528TIP3    H1 4529   7.985   1.969   5.740
 1528TIP3    H2 4530   7.890   1.922   5.848
 1529TIP3   OH2 4531   8.161   4.977   0.925
 1529TIP3    H1 4532   8.255   4.969   0.938
 1529TIP3    H2 4533   8.125   4.895   0.957
 1530TIP3   OH2 4534   4.419   4.110   1.354
 1530TIP3    H1 4535   4.429   4.016   1.337
 1530TIP3    H2 4536   4.495   4.150   1.311
 1531TIP3   OH2 4537   5.982   0.321   2.203
 1531TIP3    H1 4538   6.055   0.281   2.155
 1531TIP3    H2 4539   5.921   0.348   2.134
 1532TIP3   OH2 4540   7.418   5.144   5.905
 1532TIP3    H1 4541   7.482   5.184   5.845
 1532TIP3    H2 4542   7.351   5.109   5.847
 1533TIP3   OH2 4543   6.033   0.934   2.809
 1533TIP3    H1 4544   6.074   0.977   2.734
 1533TIP3    H2 4545   6.097   0.942   2.879
 1534TIP3   OH2 4546   0.045   6.335   5.311
 1534TIP3    H1 4547   0.137   6.355   5.294
 1534TIP3    H2 4548   0.045   6.241   5.329
 1535TIP3   OH2 4549   0.721   1.913   2.659
 1535TIP3    H1 4550   0.793   1.936   2.599
 1535TIP3    H2 4551   0.717   1.986   2.720
 1536TIP3   OH2 4552   4.954   7.813   4.402
 1536TIP3    H1 4553   4.968   7.852   4.316
 1536TIP3    H2 4554   5.019   7.743   4.408
 1537TIP3   OH2 4555   4.900   3.309   3.271
 1537TIP3    H1 4556   4.925   3.295   3.362
 1537TIP3    H2 4557   4.811   3.274   3.264
 1538TIP3   OH2 4558   3.079   5.770   4.175
 1538TIP3    H1 4559   3.069   5.857   4.213
 1538TIP3    H2 4560   3.038   5.711   4.239
 1539TIP3   OH2 4561   2.668   5.437   5.262
 1539TIP3    H1 4562   2.630   5.522   5.240
 1539TIP3    H2 4563   2.739   5.458   5.324
 1540TIP3   OH2 4564   1.176   7.491   6.369
 1540TIP3    H1 4565   1.250   7.451   6.325
 1540TIP3    H2 4566   1.183   7.584   6.347
 1541TIP3   OH2 4567   0.717   7.226   0.962
 1541TIP3    H1 4568   0.713   7.194   0.871
 1541TIP3    H2 4569   0.810   7.239   0.978
 1542TIP3   OH2 4570   7.210   5.323   3.692
 1542TIP3    H1 4571   7.243   5.377   3.764
 1542TIP3    H2 4572   7.226   5.375   3.613
 1543TIP3   OH2 4573   4.800   7.380   2.945
 1543TIP3    H1 4574   4.771   7.302   2.899
 1543TIP3    H2 4575   4.890   7.393   2.917
 1544TIP3   OH2 4576   0.058   4.790   4.972
 1544TIP3    H1 4577   0.044   4.696   4.966
 1544TIP3    H2 4578  -0.030   4.827   4.983
 1545TIP3   OH2 4579   8.233   4.528   1.599
 1545TIP3    H1 4580   8.203   4.614   1.567
 1545TIP3    H2 4581   8.157   4.471   1.590
 1546TIP3   OH2 4582   7.096   5.167   5.513
 1546TIP3    H1 4583   7.125   5.258   5.523
 1546TIP3    H2 4584   7.010   5.165   5.554
 1547TIP3   OH2 4585   4.760   4.389   6.522
 1547TIP3    H1 4586   4.844   4.345   6.523
 1547TIP3    H2 4587   4.746   4.414   6.431
 1548TIP3   OH2 4588   0.682   4.864   5.742
 1548TIP3    H1 4589   0.656   4.773   5.729
 1548TIP3    H2 4590   0.604   4.907   5.777
 1549TIP3   OH2 4591   4.370   6.885   3.647
 1549TIP3    H1 4592   4.326   6.867   3.564
 1549TIP3    H2 4593   4.306   6.860   3.714
 1550TIP3   OH2 4594   7.546   6.618   3.426
 1550TIP3    H1 4595   7.609   6.559   3.385
 1550TIP3    H2 4596   7.479   6.560   3.463
 1551TIP3   OH2 4597   2.578   6.252   0.451
 1551TIP3    H1 4598   2.650   6.244   0.387
 1551TIP3    H2 4599   2.499   6.258   0.397
 1552TIP3   OH2 4600   5.432   1.784   5.894
 1552TIP3    H1 4601   5.472   1.796   5.980
 1552TIP3    H2 4602   5.343   1.752   5.913
 1553TIP3   OH2 4603   2.942   1.178   3.169
 1553TIP3    H1 4604   3.019   1.124   3.183
 1553TIP3    H2 4605   2.953   1.212   3.080
 1554TIP3   OH2 4606   3.373   3.647   3.127
 1554TIP3    H1 4607   3.365   3.568   3.073
 1554TIP3    H2 4608   3.446   3.628   3.186
 1555TIP3   OH2 4609   1.337   0.637   5.553
 1555TIP3    H1 4610   1.298   0.619   5.638
 1555TIP3    H2 4611   1.299   0.720   5.525
 1556TIP3   OH2 4612   6.513   3.609   1.155
 1556TIP3    H1 4613   6.514   3.624   1.061
 1556TIP3    H2 4614   6.422   3.626   1.181
 1557TIP3   OH2 4615   5.902   3.305   4.001
 1557TIP3    H1 4616   5.922   3.394   3.974
 1557TIP3    H2 4617   5.959   3.289   4.077
 1558TIP3   OH2 4618   5.688   7.746   3.657
 1558TIP3    H1 4619   5.679   7.742   3.752
 1558TIP3    H2 4620   5.647   7.666   3.626
 1559TIP3   OH2 4621   0.000   3.420   0.164
 1559TIP3    H1 4622   0.053   3.499   0.166
 1559TIP3    H2 4623  -0.020   3.408   0.071
 1560TIP3   OH2 4624   4.368   3.789   0.079
 1560TIP3    H1 4625   4.351   3.845   0.002
 1560TIP3    H2 4626   4.404   3.709   0.042
 1561TIP3   OH2 4627   0.352   5.606   2.671
 1561TIP3    H1 4628   0.405   5.527   2.663
 1561TIP3    H2 4629   0.262   5.575   2.656
 1562TIP3   OH2 4630   1.145   1.417   2.036
 1562TIP3    H1 4631   1.120   1.336   1.992
 1562TIP3    H2 4632   1.240   1.412   2.044
 1563TIP3   OH2 4633   1.724   4.234   1.383
 1563TIP3    H1 4634   1.796   4.216   1.444
 1563TIP3    H2 4635   1.717   4.154   1.331
 1564TIP3   OH2 4636   2.668   5.226   2.398
 1564TIP3    H1 4637   2.573   5.217   2.391
 1564TIP3    H2 4638   2.692   5.282   2.324
 1565TIP3   OH2 4639   4.579   0.639   1.469
 1565TIP3    H1 4640   4.670   0.612   1.464
 1565TIP3    H2 4641   4.558   0.671   1.381
 1566TIP3   OH2 4642   0.103   7.704   2.593
 1566TIP3    H1 4643   0.028   7.727   2.537
 1566TIP3    H2 4644   0.177   7.751   2.555
 1567TIP3   OH2 4645   0.042   2.719   0.721
 1567TIP3    H1 4646   0.099   2.733   0.797
 1567TIP3    H2 4647   0.054   2.797   0.667
 1568TIP3   OH2 4648   6.749   5.623   1.584
 1568TIP3    H1 4649   6.749   5.650   1.676
 1568TIP3    H2 4650   6.660   5.642   1.553
 1569TIP3   OH2 4651   6.426   1.193   3.388
 1569TIP3    H1 4652   6.497   1.257   3.399
 1569TIP3    H2 4653   6.374   1.202   3.468
 1570TIP3   OH2 4654   5.959   7.683   5.966
 1570TIP3    H1 4655   6.042   7.641   5.944
 1570TIP3    H2 4656   5.984   7.764   6.010
 1571TIP3   OH2 4657   2.535   2.417   1.206
 1571TIP3    H1 4658   2.490   2.426   1.122
 1571TIP3    H2 4659   2.553   2.323   1.213
 1572TIP3   OH2 4660   2.501   4.963   4.802
 1572TIP3    H1 4661   2.471   4.910   4.876
 1572TIP3    H2 4662   2.465   4.920   4.725
 1573TIP3   OH2 4663   6.528   2.118   2.741
 1573TIP3    H1 4664   6.597   2.054   2.723
 1573TIP3    H2 4665   6.509   2.158   2.656
 1574TIP3   OH2 4666   6.407   1.474   2.043
 1574TIP3    H1 4667   6.338   1.428   2.093
 1574TIP3    H2 4668   6.363   1.552   2.009
 1575TIP3   OH2 4669   3.751   1.657   6.286
 1575TIP3    H1 4670   3.806   1.609   6.348
 1575TIP3    H2 4671   3.694   1.711   6.341
 1576TIP3   OH2 4672   6.227   2.582   5.193
 1576TIP3    H1 4673   6.217   2.513   5.127
 1576TIP3    H2 4674   6.207   2.539   5.276
 1577TIP3   OH2 4675   7.571   4.291   4.312
 1577TIP3    H1 4676   7.522   4.371   4.293
 1577TIP3    H2 4677   7.590   4.254   4.226
 1578TIP3   OH2 4678   1.673   2.580   1.865
 1578TIP3    H1 4679   1.699   2.585   1.772
 1578TIP3    H2 4680   1.754   2.555   1.910
 1579TIP3   OH2 4681   4.069   6.453   5.908
 1579TIP3    H1 4682   4.075   6.368   5.863
 1579TIP3    H2 4683   3.982   6.452   5.948
 1580TIP3   OH2 4684   2.945   6.757   3.906
 1580TIP3    H1 4685   2.898   6.821   3.959
 1580TIP3    H2 4686   2.913   6.672   3.936
 1581TIP3   OH2 4687   4.087   6.460   6.350
 1581TIP3    H1 4688   4.096   6.420   6.436
 1581TIP3    H2 4689   4.102   6.388   6.288
 1582TIP3   OH2 4690   5.842   7.498   2.016
 1582TIP3    H1 4691   5.774   7.555   1.981
 1582TIP3    H2 4692   5.919   7.517   1.962
 1583TIP3   OH2 4693   6.772   4.568   2.813
 1583TIP3    H1 4694   6.724   4.496   2.854
 1583TIP3    H2 4695   6.861   4.560   2.847
 1584TIP3   OH2 4696   4.607   1.803   3.877
 1584TIP3    H1 4697   4.647   1.761   3.801
 1584TIP3    H2 4698   4.678   1.811   3.941
 1585TIP3   OH2 4699   3.092   2.708   2.371
 1585TIP3    H1 4700   3.098   2.613   2.376
 1585TIP3    H2 4701   3.067   2.726   2.281
 1586TIP3   OH2 4702   7.814   3.208   5.306
 1586TIP3    H1 4703   7.873   3.264   5.356
 1586TIP3    H2 4704   7.755   3.269   5.262
 1587TIP3   OH2 4705   4.977   0.672   5.766
 1587TIP3    H1 4706   5.046   0.673   5.832
 1587TIP3    H2 4707   4.947   0.581   5.763
 1588TIP3   OH2 4708   1.186   4.584   6.562
 1588TIP3    H1 4709   1.145   4.610   6.645
 1588TIP3    H2 4710   1.196   4.489   6.570
 1589TIP3   OH2 4711   6.023   1.371   1.812
 1589TIP3    H1 4712   6.032   1.463   1.838
 1589TIP3    H2 4713   5.979   1.329   1.886
 1590TIP3   OH2 4714   0.227   5.538   4.379
 1590TIP3    H1 4715   0.159   5.603   4.361
 1590TIP3    H2 4716   0.187   5.479   4.443
 1591TIP3   OH2 4717   3.433   6.980   1.811
 1591TIP3    H1 4718   3.381   7.043   1.862
 1591TIP3    H2 4719   3.374   6.953   1.741
 1592TIP3   OH2 4720   0.784   7.749   2.060
 1592TIP3    H1 4721   0.754   7.814   1.998
 1592TIP3    H2 4722   0.861   7.710   2.018
 1593TIP3   OH2 4723   1.177   3.345   2.211
 1593TIP3    H1 4724   1.219   3.282   2.268
 1593TIP3    H2 4725   1.104   3.297   2.172
 1594TIP3   OH2 4726   6.154   1.079   4.299
 1594TIP3    H1 4727   6.179   1.003   4.352
 1594TIP3    H2 4728   6.115   1.140   4.362
 1595TIP3   OH2 4729   7.441   2.030   1.757
 1595TIP3    H1 4730   7.483   2.054   1.840
 1595TIP3    H2 4731   7.482   2.087   1.692
 1596TIP3   OH2 4732   0.149   1.359   5.917
 1596TIP3    H1 4733   0.233   1.314   5.915
 1596TIP3    H2 4734   0.115   1.349   5.828
 1597TIP3   OH2 4735   2.597   6.020   4.946
 1597TIP3    H1 4736   2.643   5.997   5.026
 1597TIP3    H2 4737   2.619   5.950   4.884
 1598TIP3   OH2 4738   5.937   3.947   1.807
 1598TIP3    H1 4739   5.923   4.011   1.737
 1598TIP3    H2 4740   6.029   3.957   1.831
 1599TIP3   OH2 4741   0.922   5.876   1.558
 1599TIP3    H1 4742   0.871   5.797   1.573
 1599TIP3    H2 4743   0.921   5.889   1.463
 1600TIP3   OH2 4744   6.814   7.183   0.510
 1600TIP3    H1 4745   6.774   7.185   0.597
 1600TIP3    H2 4746   6.870   7.260   0.507
 1601TIP3   OH2 4747   4.885   6.330   5.088
 1601TIP3    H1 4748   4.868   6.406   5.033
 1601TIP3    H2 4749   4.834   6.259   5.048
 1602TIP3   OH2 4750   6.467   3.692   4.559
 1602TIP3    H1 4751   6.537   3.648   4.512
 1602TIP3    H2 4752   6.494   3.783   4.564
 1603TIP3   OH2 4753   0.665   0.747   4.411
 1603TIP3    H1 4754   0.630   0.750   4.500
 1603TIP3    H2 4755   0.714   0.665   4.407
 1604TIP3   OH2 4756   5.987   6.692   1.595
 1604TIP3    H1 4757   5.938   6.742   1.529
 1604TIP3    H2 4758   6.057   6.751   1.623
 1605TIP3   OH2 4759   4.775   1.146   2.754
 1605TIP3    H1 4760   4.754   1.056   2.778
 1605TIP3    H2 4761   4.755   1.150   2.660
 1606TIP3   OH2 4762   7.401   2.563   6.522
 1606TIP3    H1 4763   7.460   2.579   6.596
 1606TIP3    H2 4764   7.315   2.586   6.555
 1607TIP3   OH2 4765   2.759   0.207   1.505
 1607TIP3    H1 4766   2.728   0.116   1.507
 1607TIP3    H2 4767   2.805   0.214   1.421
 1608TIP3   OH2 4768   7.188   1.367   1.508
 1608TIP3    H1 4769   7.242   1.291   1.532
 1608TIP3    H2 4770   7.232   1.405   1.433
 1609TIP3   OH2 4771   1.500   4.402   6.332
 1609TIP3    H1 4772   1.444   4.407   6.409
 1609TIP3    H2 4773   1.586   4.377   6.366
 1610TIP3   OH2 4774   2.529   1.977   2.714
 1610TIP3    H1 4775   2.558   2.045   2.775
 1610TIP3    H2 4776   2.610   1.935   2.685
 1611TIP3   OH2 4777   3.040   5.429   2.670
 1611TIP3    H1 4778   2.985   5.485   2.724
 1611TIP3    H2 4779   3.028   5.462   2.581
 1612TIP3   OH2 4780   5.249   6.703   1.648
 1612TIP3    H1 4781   5.163   6.718   1.686
 1612TIP3    H2 4782   5.290   6.789   1.646
 1613TIP3   OH2 4783   5.495   0.159   4.085
 1613TIP3    H1 4784   5.491   0.112   4.168
 1613TIP3    H2 4785   5.577   0.209   4.090
 1614TIP3   OH2 4786   7.041   3.185   6.140
 1614TIP3    H1 4787   7.129   3.168   6.173
 1614TIP3    H2 4788   7.034   3.130   6.062
 1615TIP3   OH2 4789   1.283   7.553   1.922
 1615TIP3    H1 4790   1.305   7.635   1.966
 1615TIP3    H2 4791   1.351   7.492   1.950
 1616TIP3   OH2 4792   5.760   5.378   4.958
 1616TIP3    H1 4793   5.814   5.379   4.879
 1616TIP3    H2 4794   5.821   5.359   5.029
 1617TIP3   OH2 4795   6.688   6.343   2.938
 1617TIP3    H1 4796   6.686   6.290   2.858
 1617TIP3    H2 4797   6.622   6.410   2.924
 1618TIP3   OH2 4798   3.053   7.371   4.171
 1618TIP3    H1 4799   3.013   7.390   4.086
 1618TIP3    H2 4800   3.131   7.425   4.173
 1619TIP3   OH2 4801   0.020   4.550   2.162
 1619TIP3    H1 4802   0.076   4.541   2.084
 1619TIP3    H2 4803  -0.018   4.637   2.153
 1620TIP3   OH2 4804   2.119   6.446   1.295
 1620TIP3    H1 4805   2.077   6.443   1.209
 1620TIP3    H2 4806   2.208   6.416   1.278
 1621TIP3   OH2 4807   5.481   2.470   3.933
 1621TIP3    H1 4808   5.437   2.465   4.018
 1621TIP3    H2 4809   5.572   2.449   3.951
 1622TIP3   OH2 4810   8.212   6.756   2.104
 1622TIP3    H1 4811   8.284   6.760   2.041
 1622TIP3    H2 4812   8.247   6.795   2.184
 1623TIP3   OH2 4813   0.094   5.002   2.331
 1623TIP3    H1 4814   0.131   4.923   2.372
 1623TIP3    H2 4815   0.169   5.048   2.295
 1624TIP3   OH2 4816  -0.013   2.022   1.872
 1624TIP3    H1 4817   0.073   2.060   1.858
 1624TIP3    H2 4818   0.004   1.938   1.915
 1625TIP3   OH2 4819   0.077   2.879   5.185
 1625TIP3    H1 4820   0.059   2.825   5.262
 1625TIP3    H2 4821   0.036   2.832   5.112
 1626TIP3   OH2 4822   7.503   6.788   2.258
 1626TIP3    H1 4823   7.466   6.757   2.176
 1626TIP3    H2 4824   7.594   6.757   2.257
 1627TIP3   OH2 4825   0.865   5.992   0.103
 1627TIP3    H1 4826   0.901   6.013   0.017
 1627TIP3    H2 4827   0.932   5.939   0.145
 1628TIP3   OH2 4828   5.691   1.121   6.225
 1628TIP3    H1 4829   5.694   1.090   6.316
 1628TIP3    H2 4830   5.618   1.074   6.186
 1629TIP3   OH2 4831   7.898   5.132   5.576
 1629TIP3    H1 4832   7.970   5.193   5.565
 1629TIP3    H2 4833   7.930   5.068   5.640
 1630TIP3   OH2 4834   4.095   0.935   3.000
 1630TIP3    H1 4835   4.050   1.005   3.048
 1630TIP3    H2 4836   4.126   0.875   3.068
 1631TIP3   OH2 4837   1.951   5.781   1.944
 1631TIP3    H1 4838   1.935   5.727   2.022
 1631TIP3    H2 4839   1.999   5.724   1.885
 1632TIP3   OH2 4840   5.260   4.126   2.793
 1632TIP3    H1 4841   5.231   4.202   2.743
 1632TIP3    H2 4842   5.271   4.159   2.883
 1633TIP3   OH2 4843   6.903   3.173   0.532
 1633TIP3    H1 4844   6.898   3.258   0.576
 1633TIP3    H2 4845   6.815   3.159   0.496
 1634TIP3   OH2 4846   0.212   1.777   2.305
 1634TIP3    H1 4847   0.259   1.693   2.312
 1634TIP3    H2 4848   0.231   1.807   2.216
 1635TIP3   OH2 4849   5.250   4.050   0.446
 1635TIP3    H1 4850   5.199   4.054   0.527
 1635TIP3    H2 4851   5.339   4.028   0.474
 1636TIP3   OH2 4852   6.667   7.704   3.731
 1636TIP3    H1 4853   6.743   7.688   3.785
 1636TIP3    H2 4854   6.671   7.636   3.663
 1637TIP3   OH2 4855   4.824   0.539   0.031
 1637TIP3    H1 4856   4.794   0.611  -0.024
 1637TIP3    H2 4857   4.757   0.472   0.021
 1638TIP3   OH2 4858   7.738   3.383   0.992
 1638TIP3    H1 4859   7.735   3.438   1.071
 1638TIP3    H2 4860   7.805   3.318   1.011
 1639TIP3   OH2 4861   5.408   4.005   1.646
 1639TIP3    H1 4862   5.446   4.034   1.729
 1639TIP3    H2 4863   5.431   3.912   1.641
 1640TIP3   OH2 4864   4.562   6.538   1.943
 1640TIP3    H1 4865   4.543   6.452   1.905
 1640TIP3    H2 4866   4.548   6.526   2.037
 1641TIP3   OH2 4867   4.636   4.856   1.370
 1641TIP3    H1 4868   4.543   4.846   1.390
 1641TIP3    H2 4869   4.681   4.801   1.434
 1642TIP3   OH2 4870   5.418   1.691   3.363
 1642TIP3    H1 4871   5.442   1.781   3.386
 1642TIP3    H2 4872   5.502   1.647   3.348
 1643TIP3   OH2 4873   2.694   6.004   0.047
 1643TIP3    H1 4874   2.713   5.992   0.140
 1643TIP3    H2 4875   2.618   5.947   0.031
 1644TIP3   OH2 4876   2.899   3.343   6.023
 1644TIP3    H1 4877   2.862   3.399   6.091
 1644TIP3    H2 4878   2.867   3.255   6.045
 1645TIP3   OH2 4879   8.267   1.644   4.508
 1645TIP3    H1 4880   8.196   1.694   4.549
 1645TIP3    H2 4881   8.318   1.610   4.581
 1646TIP3   OH2 4882   8.270   4.188   4.396
 1646TIP3    H1 4883   8.257   4.153   4.484
 1646TIP3    H2 4884   8.199   4.252   4.385
 1647TIP3   OH2 4885   3.719   0.793   5.179
 1647TIP3    H1 4886   3.647   0.751   5.132
 1647TIP3    H2 4887   3.702   0.774   5.271
 1648TIP3   OH2 4888   4.543   0.913   5.342
 1648TIP3    H1 4889   4.451   0.939   5.350
 1648TIP3    H2 4890   4.547   0.825   5.379
 1649TIP3   OH2 4891   8.270   3.560   3.984
 1649TIP3    H1 4892   8.217   3.555   4.064
 1649TIP3    H2 4893   8.216   3.611   3.924
 1650TIP3   OH2 4894   7.349   3.290   0.475
 1650TIP3    H1 4895   7.363   3.275   0.569
 1650TIP3    H2 4896   7.409   3.361   0.453
 1651TIP3   OH2 4897   0.358   7.084   5.968
 1651TIP3    H1 4898   0.382   7.013   6.029
 1651TIP3    H2 4899   0.322   7.038   5.892
 1652TIP3   OH2 4900   2.921   0.327   5.584
 1652TIP3    H1 4901   2.958   0.256   5.531
 1652TIP3    H2 4902   2.888   0.390   5.520
 1653TIP3   OH2 4903   3.033   4.639   6.599
 1653TIP3    H1 4904   3.035   4.573   6.529
 1653TIP3    H2 4905   3.124   4.666   6.608
 1654TIP3   OH2 4906   5.174   4.948   2.236
 1654TIP3    H1 4907   5.228   5.004   2.180
 1654TIP3    H2 4908   5.098   4.926   2.182
 1655TIP3   OH2 4909   5.402   4.095   2.204
 1655TIP3    H1 4910   5.309   4.091   2.183
 1655TIP3    H2 4911   5.415   4.025   2.268
 1656TIP3   OH2 4912   7.525   4.232   6.525
 1656TIP3    H1 4913   7.481   4.158   6.482
 1656TIP3    H2 4914   7.504   4.222   6.617
 1657TIP3   OH2 4915   2.696   5.285   1.878
 1657TIP3    H1 4916   2.736   5.201   1.857
 1657TIP3    H2 4917   2.738   5.348   1.820
 1658TIP3   OH2 4918   7.415   5.566   2.102
 1658TIP3    H1 4919   7.396   5.636   2.040
 1658TIP3    H2 4920   7.430   5.489   2.047
 1659TIP3   OH2 4921   0.439   0.543   3.670
 1659TIP3    H1 4922   0.378   0.489   3.620
 1659TIP3    H2 4923   0.386   0.614   3.705
 1660TIP3   OH2 4924   6.503   3.322   5.315
 1660TIP3    H1 4925   6.424   3.337   5.368
 1660TIP3    H2 4926   6.473   3.335   5.224
 1661TIP3   OH2 4927   0.413   2.467   2.791
 1661TIP3    H1 4928   0.340   2.525   2.810
 1661TIP3    H2 4929   0.479   2.488   2.857
 1662TIP3   OH2 4930   1.095   3.856   3.745
 1662TIP3    H1 4931   1.165   3.901   3.700
 1662TIP3    H2 4932   1.086   3.902   3.829
 1663TIP3   OH2 4933   3.978   5.533   1.437
 1663TIP3    H1 4934   4.050   5.550   1.499
 1663TIP3    H2 4935   4.013   5.465   1.379
 1664TIP3   OH2 4936   5.422   1.267   0.631
 1664TIP3    H1 4937   5.474   1.263   0.711
 1664TIP3    H2 4938   5.479   1.231   0.563
 1665TIP3   OH2 4939   7.082   0.369   5.116
 1665TIP3    H1 4940   6.989   0.350   5.126
 1665TIP3    H2 4941   7.117   0.369   5.205
 1666TIP3   OH2 4942   4.357   7.120   6.748
 1666TIP3    H1 4943   4.370   7.118   6.653
 1666TIP3    H2 4944   4.412   7.048   6.780
 1667TIP3   OH2 4945   0.196   3.681   6.208
 1667TIP3    H1 4946   0.216   3.725   6.290
 1667TIP3    H2 4947   0.185   3.753   6.145
 1668TIP3   OH2 4948   7.061   4.976   4.969
 1668TIP3    H1 4949   7.038   5.069   4.960
 1668TIP3    H2 4950   7.076   4.964   5.063
 1669TIP3   OH2 4951   5.921   3.220   6.010
 1669TIP3    H1 4952   5.840   3.263   6.037
 1669TIP3    H2 4953   5.988   3.288   6.022
 1670TIP3   OH2 4954   4.100   5.425   4.416
 1670TIP3    H1 4955   4.035   5.477   4.369
 1670TIP3    H2 4956   4.066   5.335   4.412
 1671TIP3   OH2 4957   0.605   3.961   1.517
 1671TIP3    H1 4958   0.571   4.048   1.497
 1671TIP3    H2 4959   0.623   3.962   1.611
 1672TIP3   OH2 4960   1.323   5.421   1.315
 1672TIP3    H1 4961   1.376   5.385   1.387
 1672TIP3    H2 4962   1.343   5.365   1.240
 1673TIP3   OH2 4963   1.644   1.926   2.353
 1673TIP3    H1 4964   1.721   1.870   2.342
 1673TIP3    H2 4965   1.677   2.015   2.341
 1674TIP3   OH2 4966   7.055   1.601   2.796
 1674TIP3    H1 4967   7.147   1.578   2.806
 1674TIP3    H2 4968   7.030   1.639   2.880
 1675TIP3   OH2 4969   0.261   7.540   3.962
 1675TIP3    H1 4970   0.286   7.451   3.988
 1675TIP3    H2 4971   0.229   7.579   4.043
 1676TIP3   OH2 4972   6.610   1.715   5.505
 1676TIP3    H1 4973   6.699   1.683   5.514
 1676TIP3    H2 4974   6.591   1.707   5.412
 1677TIP3   OH2 4975   5.378   2.810   1.629
 1677TIP3    H1 4976   5.298   2.858   1.607
 1677TIP3    H2 4977   5.431   2.874   1.676
 1678TIP3   OH2 4978   0.894   7.671   4.557
 1678TIP3    H1 4979   0.939   7.649   4.476
 1678TIP3    H2 4980   0.806   7.633   4.546
 1679TIP3   OH2 4981   3.549   2.088   2.561
 1679TIP3    H1 4982   3.481   2.156   2.557
 1679TIP3    H2 4983   3.508   2.017   2.610
 1680TIP3   OH2 4984   5.555   6.928   1.485
 1680TIP3    H1 4985   5.633   6.946   1.537
 1680TIP3    H2 4986   5.484   6.973   1.530
 1681TIP3   OH2 4987   5.980   6.443   6.049
 1681TIP3    H1 4988   6.025   6.374   5.999
 1681TIP3    H2 4989   6.050   6.483   6.101
 1682TIP3   OH2 4990   7.747   1.757   0.183
 1682TIP3    H1 4991   7.672   1.790   0.233
 1682TIP3    H2 4992   7.821   1.807   0.215
 1683TIP3   OH2 4993   6.932   6.515   3.482
 1683TIP3    H1 4994   6.938   6.469   3.566
 1683TIP3    H2 4995   6.838   6.513   3.461
 1684TIP3   OH2 4996   7.970   3.886   2.496
 1684TIP3    H1 4997   7.898   3.920   2.549
 1684TIP3    H2 4998   7.929   3.863   2.413
 1685TIP3   OH2 4999   2.427   0.871   1.232
 1685TIP3    H1 5000   2.367   0.796   1.227
 1685TIP3    H2 5001   2.514   0.831   1.238
 1686TIP3   OH2 5002   7.921   4.996   4.638
 1686TIP3    H1 5003   7.914   4.913   4.591
 1686TIP3    H2 5004   7.866   5.056   4.588
 1687TIP3   OH2 5005   3.297   6.226   5.617
 1687TIP3    H1 5006   3.272   6.165   5.687
 1687TIP3    H2 5007   3.315   6.170   5.542
 1688TIP3   OH2 5008   3.695   4.359   1.661
 1688TIP3    H1 5009   3.633   4.290   1.636
 1688TIP3    H2 5010   3.754   4.367   1.587
 1689TIP3   OH2 5011   2.422   0.576   6.417
 1689TIP3    H1 5012   2.348   0.568   6.478
 1689TIP3    H2 5013   2.413   0.500   6.359
 1690TIP3   OH2 5014   5.846   7.416   3.481
 1690TIP3    H1 5015   5.855   7.397   3.388
 1690TIP3    H2 5016   5.755   7.445   3.491
 1691TIP3   OH2 5017   7.038   2.880   0.741
 1691TIP3    H1 5018   6.988   2.924   0.673
 1691TIP3    H2 5019   6.990   2.898   0.822
 1692TIP3   OH2 5020   7.290   6.553   2.073
 1692TIP3    H1 5021   7.218   6.543   2.011
 1692TIP3    H2 5022   7.260   6.622   2.133
 1693TIP3   OH2 5023   6.636   1.478   1.506
 1693TIP3    H1 5024   6.683   1.400   1.535
 1693TIP3    H2 5025   6.668   1.494   1.417
 1694TIP3   OH2 5026   6.316   3.186   2.628
 1694TIP3    H1 5027   6.233   3.192   2.675
 1694TIP3    H2 5028   6.298   3.127   2.554
 1695TIP3   OH2 5029   7.578   7.042   2.227
 1695TIP3    H1 5030   7.537   6.956   2.228
 1695TIP3    H2 5031   7.664   7.026   2.187
 1696TIP3   OH2 5032   4.442   4.406   1.189
 1696TIP3    H1 5033   4.513   4.397   1.125
 1696TIP3    H2 5034   4.363   4.388   1.138
 1697TIP3   OH2 5035   1.398   2.817   0.716
 1697TIP3    H1 5036   1.468   2.752   0.726
 1697TIP3    H2 5037   1.445   2.901   0.712
 1698TIP3   OH2 5038   1.367   2.863   3.833
 1698TIP3    H1 5039   1.423   2.837   3.760
 1698TIP3    H2 5040   1.428   2.902   3.896
 1699TIP3   OH2 5041   2.523   6.675   4.089
 1699TIP3    H1 5042   2.464   6.644   4.158
 1699TIP3    H2 5043   2.556   6.595   4.048
 1700TIP3   OH2 5044   5.067   7.317   0.739
 1700TIP3    H1 5045   5.116   7.266   0.676
 1700TIP3    H2 5046   5.111   7.402   0.742
 1701TIP3   OH2 5047   8.069   1.191   2.341
 1701TIP3    H1 5048   8.065   1.112   2.289
 1701TIP3    H2 5049   8.162   1.215   2.342
 1702TIP3   OH2 5050   5.370   7.261   4.916
 1702TIP3    H1 5051   5.439   7.268   4.983
 1702TIP3    H2 5052   5.337   7.172   4.926
 1703TIP3   OH2 5053   8.222   2.533   6.614
 1703TIP3    H1 5054   8.135   2.545   6.578
 1703TIP3    H2 5055   8.260   2.621   6.617
 1704TIP3   OH2 5056   8.100   6.532   4.554
 1704TIP3    H1 5057   8.159   6.461   4.528
 1704TIP3    H2 5058   8.030   6.489   4.603
 1705TIP3   OH2 5059   6.629   7.475   0.169
 1705TIP3    H1 5060   6.635   7.552   0.226
 1705TIP3    H2 5061   6.546   7.484   0.124
 1706TIP3   OH2 5062   2.145   6.280   2.700
 1706TIP3    H1 5063   2.053   6.272   2.674
 1706TIP3    H2 5064   2.150   6.235   2.784
 1707TIP3   OH2 5065   4.749   2.088   3.274
 1707TIP3    H1 5066   4.675   2.064   3.218
 1707TIP3    H2 5067   4.806   2.140   3.218
 1708TIP3   OH2 5068   2.979   3.725   1.209
 1708TIP3    H1 5069   2.930   3.782   1.269
 1708TIP3    H2 5070   3.070   3.754   1.218
 1709TIP3   OH2 5071   1.245   4.446   0.669
 1709TIP3    H1 5072   1.243   4.350   0.672
 1709TIP3    H2 5073   1.321   4.470   0.722
 1710TIP3   OH2 5074   1.304   1.424   6.738
 1710TIP3    H1 5075   1.277   1.373   6.662
 1710TIP3    H2 5076   1.388   1.463   6.713
 1711TIP3   OH2 5077   0.063   1.311   4.774
 1711TIP3    H1 5078  -0.033   1.309   4.772
 1711TIP3    H2 5079   0.089   1.299   4.683
 1712TIP3   OH2 5080   1.399   3.384   4.282
 1712TIP3    H1 5081   1.337   3.348   4.345
 1712TIP3    H2 5082   1.365   3.357   4.196
 1713TIP3   OH2 5083   3.132   1.013   1.489
 1713TIP3    H1 5084   3.180   0.970   1.419
 1713TIP3    H2 5085   3.199   1.039   1.552
 1714TIP3   OH2 5086   1.277   3.675   0.320
 1714TIP3    H1 5087   1.237   3.592   0.294
 1714TIP3    H2 5088   1.304   3.662   0.411
 1715TIP3   OH2 5089   1.058   3.926   1.708
 1715TIP3    H1 5090   1.117   3.987   1.663
 1715TIP3    H2 5091   1.038   3.859   1.643
 1716TIP3   OH2 5092   7.707   2.341   2.880
 1716TIP3    H1 5093   7.623   2.366   2.918
 1716TIP3    H2 5094   7.754   2.299   2.953
 1717TIP3   OH2 5095   1.894   6.041   1.822
 1717TIP3    H1 5096   1.970   6.094   1.798
 1717TIP3    H2 5097   1.930   5.965   1.867
 1718TIP3   OH2 5098   1.428   5.372   1.779
 1718TIP3    H1 5099   1.490   5.380   1.852
 1718TIP3    H2 5100   1.417   5.462   1.748
 1719TIP3   OH2 5101   4.252   4.549   5.503
 1719TIP3    H1 5102   4.219   4.629   5.543
 1719TIP3    H2 5103   4.185   4.523   5.440
 1720TIP3   OH2 5104   1.294   3.139   6.262
 1720TIP3    H1 5105   1.233   3.185   6.320
 1720TIP3    H2 5106   1.318   3.204   6.196
 1721TIP3   OH2 5107   7.020   3.856   0.331
 1721TIP3    H1 5108   7.083   3.789   0.304
 1721TIP3    H2 5109   6.973   3.817   0.404
 1722TIP3   OH2 5110   1.650   4.436   5.683
 1722TIP3    H1 5111   1.613   4.426   5.595
 1722TIP3    H2 5112   1.669   4.530   5.690
 1723TIP3   OH2 5113   1.139   2.835   4.140
 1723TIP3    H1 5114   1.219   2.886   4.131
 1723TIP3    H2 5115   1.169   2.745   4.152
 1724TIP3   OH2 5116   6.801   6.791   3.623
 1724TIP3    H1 5117   6.809   6.712   3.676
 1724TIP3    H2 5118   6.877   6.789   3.565
 1725TIP3   OH2 5119   2.127   4.162   2.569
 1725TIP3    H1 5120   2.048   4.149   2.622
 1725TIP3    H2 5121   2.191   4.101   2.607
 1726TIP3   OH2 5122   1.985   3.771   4.687
 1726TIP3    H1 5123   1.952   3.777   4.598
 1726TIP3    H2 5124   2.024   3.683   4.692
 1727TIP3   OH2 5125   5.768   1.831   3.300
 1727TIP3    H1 5126   5.731   1.748   3.328
 1727TIP3    H2 5127   5.831   1.854   3.369
 1728TIP3   OH2 5128   0.970   3.657   0.517
 1728TIP3    H1 5129   0.877   3.652   0.542
 1728TIP3    H2 5130   0.978   3.597   0.442
 1729TIP3   OH2 5131   4.425   3.379   5.962
 1729TIP3    H1 5132   4.441   3.455   5.906
 1729TIP3    H2 5133   4.379   3.317   5.906
 1730TIP3   OH2 5134   1.230   6.869   4.895
 1730TIP3    H1 5135   1.288   6.801   4.861
 1730TIP3    H2 5136   1.182   6.900   4.818
 1731TIP3   OH2 5137   5.224   4.917   5.442
 1731TIP3    H1 5138   5.259   4.934   5.529
 1731TIP3    H2 5139   5.258   4.830   5.419
 1732TIP3   OH2 5140   0.689   3.249   1.588
 1732TIP3    H1 5141   0.738   3.194   1.527
 1732TIP3    H2 5142   0.627   3.296   1.533
 1733TIP3   OH2 5143   1.828   4.921   2.119
 1733TIP3    H1 5144   1.867   4.859   2.181
 1733TIP3    H2 5145   1.848   4.883   2.033
 1734TIP3   OH2 5146   3.771   3.692   5.114
 1734TIP3    H1 5147   3.736   3.725   5.031
 1734TIP3    H2 5148   3.746   3.757   5.179
 1735TIP3   OH2 5149   6.592   2.584   4.689
 1735TIP3    H1 5150   6.590   2.641   4.612
 1735TIP3    H2 5151   6.638   2.506   4.659
 1736TIP3   OH2 5152   3.941   4.419   5.695
 1736TIP3    H1 5153   4.011   4.375   5.743
 1736TIP3    H2 5154   3.982   4.445   5.612
 1737TIP3   OH2 5155   6.125   4.385   3.637
 1737TIP3    H1 5156   6.095   4.341   3.717
 1737TIP3    H2 5157   6.221   4.383   3.643
 1738TIP3   OH2 5158   2.978   7.546   0.012
 1738TIP3    H1 5159   2.889   7.528   0.041
 1738TIP3    H2 5160   3.019   7.460   0.004
 1739TIP3   OH2 5161   1.091   0.106   5.655
 1739TIP3    H1 5162   1.028   0.084   5.724
 1739TIP3    H2 5163   1.177   0.097   5.698
 1740TIP3   OH2 5164   1.810   3.978   1.805
 1740TIP3    H1 5165   1.870   3.980   1.730
 1740TIP3    H2 5166   1.854   4.030   1.872
 1741TIP3   OH2 5167   7.690   4.084   1.328
 1741TIP3    H1 5168   7.631   4.108   1.257
 1741TIP3    H2 5169   7.704   4.166   1.376
 1742TIP3   OH2 5170   1.213   2.449   2.298
 1742TIP3    H1 5171   1.221   2.491   2.213
 1742TIP3    H2 5172   1.229   2.357   2.281
 1743TIP3   OH2 5173   6.289   7.341   5.016
 1743TIP3    H1 5174   6.351   7.269   5.011
 1743TIP3    H2 5175   6.217   7.314   4.958
 1744TIP3   OH2 5176   0.481   4.355   1.297
 1744TIP3    H1 5177   0.429   4.417   1.247
 1744TIP3    H2 5178   0.572   4.375   1.273
 1745TIP3   OH2 5179   8.172   7.407   5.799
 1745TIP3    H1 5180   8.137   7.495   5.789
 1745TIP3    H2 5181   8.260   7.412   5.762
 1746TIP3   OH2 5182   4.750   4.143   0.254
 1746TIP3    H1 5183   4.781   4.100   0.333
 1746TIP3    H2 5184   4.655   4.132   0.257
 1747TIP3   OH2 5185   4.159   1.683   3.158
 1747TIP3    H1 5186   4.170   1.588   3.156
 1747TIP3    H2 5187   4.100   1.698   3.232
 1748TIP3   OH2 5188   2.573   6.834   2.368
 1748TIP3    H1 5189   2.551   6.801   2.281
 1748TIP3    H2 5190   2.490   6.863   2.405
 1749TIP3   OH2 5191   4.918   1.171   3.109
 1749TIP3    H1 5192   4.890   1.088   3.070
 1749TIP3    H2 5193   4.888   1.166   3.200
 1750TIP3   OH2 5194   7.682   1.182   0.066
 1750TIP3    H1 5195   7.676   1.276   0.080
 1750TIP3    H2 5196   7.774   1.161   0.078
 1751TIP3   OH2 5197   5.504   4.035   2.643
 1751TIP3    H1 5198   5.421   4.067   2.677
 1751TIP3    H2 5199   5.570   4.090   2.684
 1752TIP3   OH2 5200   1.755   2.219   1.430
 1752TIP3    H1 5201   1.835   2.211   1.379
 1752TIP3    H2 5202   1.717   2.303   1.403
 1753TIP3   OH2 5203   1.300   0.946   2.512
 1753TIP3    H1 5204   1.234   0.920   2.447
 1753TIP3    H2 5205   1.277   1.036   2.534
 1754TIP3   OH2 5206   6.966   6.425   1.560
 1754TIP3    H1 5207   6.905   6.496   1.540
 1754TIP3    H2 5208   6.966   6.420   1.656
 1755TIP3   OH2 5209   3.053   0.837   5.754
 1755TIP3    H1 5210   3.038   0.742   5.755
 1755TIP3    H2 5211   2.966   0.875   5.755
 1756TIP3   OH2 5212   4.760   3.861   2.506
 1756TIP3    H1 5213   4.731   3.940   2.551
 1756TIP3    H2 5214   4.695   3.795   2.530
 1757TIP3   OH2 5215   0.025   0.290   5.690
 1757TIP3    H1 5216  -0.020   0.340   5.759
 1757TIP3    H2 5217  -0.045   0.239   5.649
 1758TIP3   OH2 5218   7.755   5.027   0.852
 1758TIP3    H1 5219   7.799   4.993   0.774
 1758TIP3    H2 5220   7.739   4.950   0.906
 1759TIP3   OH2 5221   4.277   1.947   6.346
 1759TIP3    H1 5222   4.319   1.956   6.432
 1759TIP3    H2 5223   4.288   1.855   6.323
 1760TIP3   OH2 5224   7.626   7.105   4.282
 1760TIP3    H1 5225   7.574   7.152   4.216
 1760TIP3    H2 5226   7.714   7.101   4.245
 1761TIP3   OH2 5227   3.577   4.409   0.426
 1761TIP3    H1 5228   3.483   4.393   0.438
 1761TIP3    H2 5229   3.616   4.388   0.511
 1762TIP3   OH2 5230   6.389   7.046   5.118
 1762TIP3    H1 5231   6.459   6.984   5.134
 1762TIP3    H2 5232   6.341   7.009   5.044
 1763TIP3   OH2 5233   4.802   0.980   3.807
 1763TIP3    H1 5234   4.794   1.059   3.861
 1763TIP3    H2 5235   4.889   0.986   3.769
 1764TIP3   OH2 5236   1.920   6.635   6.457
 1764TIP3    H1 5237   1.911   6.557   6.403
 1764TIP3    H2 5238   2.015   6.645   6.468
 1765TIP3   OH2 5239   0.893   4.508   4.385
 1765TIP3    H1 5240   0.843   4.589   4.394
 1765TIP3    H2 5241   0.942   4.518   4.304
 1766TIP3   OH2 5242   5.347   2.795   4.869
 1766TIP3    H1 5243   5.298   2.757   4.796
 1766TIP3    H2 5244   5.282   2.807   4.938
 1767TIP3   OH2 5245   6.986   5.782   4.793
 1767TIP3    H1 5246   6.896   5.787   4.826
 1767TIP3    H2 5247   6.998   5.863   4.744
 1768TIP3   OH2 5248   0.849   7.289   1.971
 1768TIP3    H1 5249   0.931   7.313   1.929
 1768TIP3    H2 5250   0.817   7.370   2.010
 1769TIP3   OH2 5251   4.856   3.976   0.445
 1769TIP3    H1 5252   4.914   3.911   0.404
 1769TIP3    H2 5253   4.831   3.936   0.528
 1770TIP3   OH2 5254   1.990   6.853   6.663
 1770TIP3    H1 5255   1.924   6.875   6.728
 1770TIP3    H2 5256   1.960   6.894   6.583
 1771TIP3   OH2 5257   6.452   3.594   2.301
 1771TIP3    H1 5258   6.469   3.537   2.226
 1771TIP3    H2 5259   6.538   3.631   2.323
 1772TIP3   OH2 5260   0.783   4.677   1.861
 1772TIP3    H1 5261   0.780   4.659   1.955
 1772TIP3    H2 5262   0.702   4.640   1.827
 1773TIP3   OH2 5263   4.708   0.887   0.144
 1773TIP3    H1 5264   4.615   0.908   0.138
 1773TIP3    H2 5265   4.716   0.835   0.224
 1774TIP3   OH2 5266   1.044   6.756   0.697
 1774TIP3    H1 5267   0.992   6.681   0.725
 1774TIP3    H2 5268   1.062   6.804   0.778
 1775TIP3   OH2 5269   2.795   0.487   2.094
 1775TIP3    H1 5270   2.755   0.572   2.114
 1775TIP3    H2 5271   2.836   0.500   2.008
 1776TIP3   OH2 5272   6.246   5.282   1.746
 1776TIP3    H1 5273   6.259   5.346   1.676
 1776TIP3    H2 5274   6.154   5.291   1.770
 1777TIP3   OH2 5275   5.165   2.200   1.850
 1777TIP3    H1 5276   5.132   2.215   1.761
 1777TIP3    H2 5277   5.186   2.288   1.883
 1778TIP3   OH2 5278   1.353   5.555   6.032
 1778TIP3    H1 5279   1.439   5.552   5.990
 1778TIP3    H2 5280   1.340   5.467   6.066
 1779TIP3   OH2 5281   6.190   5.918   4.079
 1779TIP3    H1 5282   6.246   5.901   4.004
 1779TIP3    H2 5283   6.149   6.003   4.060
 1780TIP3   OH2 5284   7.870   6.921   3.472
 1780TIP3    H1 5285   7.918   6.972   3.537
 1780TIP3    H2 5286   7.937   6.865   3.433
 1781TIP3   OH2 5287   3.466   5.408   2.196
 1781TIP3    H1 5288   3.521   5.387   2.121
 1781TIP3    H2 5289   3.446   5.324   2.236
 1782TIP3   OH2 5290   3.104   6.886   0.957
 1782TIP3    H1 5291   3.092   6.810   1.015
 1782TIP3    H2 5292   3.198   6.904   0.962
 1783TIP3   OH2 5293   3.706   5.315   4.697
 1783TIP3    H1 5294   3.665   5.401   4.693
 1783TIP3    H2 5295   3.674   5.276   4.778
 1784TIP3   OH2 5296   3.651   4.325   2.715
 1784TIP3    H1 5297   3.564   4.350   2.683
 1784TIP3    H2 5298   3.636   4.250   2.771
 1785TIP3   OH2 5299   7.154   6.565   5.521
 1785TIP3    H1 5300   7.128   6.629   5.587
 1785TIP3    H2 5301   7.076   6.512   5.507
 1786TIP3   OH2 5302   0.902   2.483   0.856
 1786TIP3    H1 5303   0.842   2.498   0.782
 1786TIP3    H2 5304   0.974   2.543   0.841
 1787TIP3   OH2 5305   6.395   5.012   3.499
 1787TIP3    H1 5306   6.490   5.003   3.486
 1787TIP3    H2 5307   6.383   5.103   3.526
 1788TIP3   OH2 5308   6.864   6.116   4.514
 1788TIP3    H1 5309   6.785   6.071   4.542
 1788TIP3    H2 5310   6.842   6.209   4.519
 1789TIP3   OH2 5311   7.105   3.256   2.832
 1789TIP3    H1 5312   7.079   3.310   2.757
 1789TIP3    H2 5313   7.200   3.245   2.822
 1790TIP3   OH2 5314   6.106   2.479   1.213
 1790TIP3    H1 5315   6.047   2.431   1.271
 1790TIP3    H2 5316   6.159   2.411   1.171
 1791TIP3   OH2 5317   3.720   5.933   3.402
 1791TIP3    H1 5318   3.743   5.908   3.492
 1791TIP3    H2 5319   3.802   5.962   3.363
 1792TIP3   OH2 5320   5.784   6.408   0.135
 1792TIP3    H1 5321   5.711   6.440   0.188
 1792TIP3    H2 5322   5.833   6.352   0.195
 1793TIP3   OH2 5323   3.449   1.652   0.450
 1793TIP3    H1 5324   3.432   1.729   0.396
 1793TIP3    H2 5325   3.409   1.672   0.535
 1794TIP3   OH2 5326   0.167   4.946   1.955
 1794TIP3    H1 5327   0.189   5.034   1.924
 1794TIP3    H2 5328   0.181   4.889   1.879
 1795TIP3   OH2 5329   0.365   4.741   1.071
 1795TIP3    H1 5330   0.451   4.721   1.108
 1795TIP3    H2 5331   0.377   4.825   1.027
 1796TIP3   OH2 5332   6.930   6.961   6.367
 1796TIP3    H1 5333   6.869   6.904   6.413
 1796TIP3    H2 5334   6.986   6.902   6.317
 1797TIP3   OH2 5335   3.543   0.569   1.240
 1797TIP3    H1 5336   3.450   0.549   1.231
 1797TIP3    H2 5337   3.575   0.504   1.303
 1798TIP3   OH2 5338   1.035   1.658   3.111
 1798TIP3    H1 5339   1.087   1.663   3.191
 1798TIP3    H2 5340   1.100   1.641   3.042
 1799TIP3   OH2 5341   3.932   6.679   4.951
 1799TIP3    H1 5342   3.879   6.747   4.992
 1799TIP3    H2 5343   3.869   6.621   4.908
 1800TIP3   OH2 5344   2.878   7.363   2.463
 1800TIP3    H1 5345   2.897   7.440   2.516
 1800TIP3    H2 5346   2.854   7.295   2.526
 1801TIP3   OH2 5347   7.757   6.238   0.453
 1801TIP3    H1 5348   7.849   6.225   0.474
 1801TIP3    H2 5349   7.739   6.329   0.477
 1802TIP3   OH2 5350   2.422   6.749   0.185
 1802TIP3    H1 5351   2.501   6.710   0.149
 1802TIP3    H2 5352   2.417   6.714   0.274
 1803TIP3   OH2 5353   5.810   5.288   0.425
 1803TIP3    H1 5354   5.852   5.227   0.486
 1803TIP3    H2 5355   5.880   5.317   0.368
 1804TIP3   OH2 5356   0.549   2.311   6.198
 1804TIP3    H1 5357   0.560   2.282   6.289
 1804TIP3    H2 5358   0.617   2.264   6.150
 1805TIP3   OH2 5359   3.274   0.351   2.145
 1805TIP3    H1 5360   3.234   0.265   2.158
 1805TIP3    H2 5361   3.293   0.382   2.233
 1806TIP3   OH2 5362   6.891   0.594   5.493
 1806TIP3    H1 5363   6.836   0.576   5.416
 1806TIP3    H2 5364   6.869   0.524   5.555
 1807TIP3   OH2 5365   7.081   2.943   5.621
 1807TIP3    H1 5366   7.033   2.871   5.661
 1807TIP3    H2 5367   7.033   2.964   5.541
 1808TIP3   OH2 5368   0.006   4.633   5.304
 1808TIP3    H1 5369   0.069   4.692   5.344
 1808TIP3    H2 5370   0.035   4.623   5.214
 1809TIP3   OH2 5371   7.272   0.812   4.091
 1809TIP3    H1 5372   7.350   0.759   4.101
 1809TIP3    H2 5373   7.200   0.755   4.118
 1810TIP3   OH2 5374   7.560   0.303  -0.019
 1810TIP3    H1 5375   7.485   0.362  -0.009
 1810TIP3    H2 5376   7.637   0.359  -0.011
 1811TIP3   OH2 5377   3.924   2.321   5.456
 1811TIP3    H1 5378   3.884   2.246   5.501
 1811TIP3    H2 5379   3.857   2.389   5.459
 1812TIP3   OH2 5380   2.602   0.967   4.650
 1812TIP3    H1 5381   2.590   0.963   4.745
 1812TIP3    H2 5382   2.670   1.033   4.637
 1813TIP3   OH2 5383   0.251   1.126   4.913
 1813TIP3    H1 5384   0.214   1.185   4.848
 1813TIP3    H2 5385   0.189   1.053   4.917
 1814TIP3   OH2 5386   5.829   3.480   5.200
 1814TIP3    H1 5387   5.791   3.516   5.120
 1814TIP3    H2 5388   5.906   3.535   5.216
 1815TIP3   OH2 5389   7.911   0.038   6.301
 1815TIP3    H1 5390   7.985   0.013   6.245
 1815TIP3    H2 5391   7.925  -0.009   6.383
 1816TIP3   OH2 5392   1.386   4.376   0.975
 1816TIP3    H1 5393   1.294   4.404   0.970
 1816TIP3    H2 5394   1.393   4.337   1.063
 1817TIP3   OH2 5395   0.554   5.524   1.285
 1817TIP3    H1 5396   0.589   5.449   1.237
 1817TIP3    H2 5397   0.502   5.485   1.355
 1818TIP3   OH2 5398   7.006   7.158   6.175
 1818TIP3    H1 5399   6.982   7.099   6.246
 1818TIP3    H2 5400   7.059   7.105   6.115
 1819TIP3   OH2 5401   0.319   5.916   5.137
 1819TIP3    H1 5402   0.348   5.875   5.219
 1819TIP3    H2 5403   0.400   5.943   5.093
 1820TIP3   OH2 5404   0.428   5.014   4.072
 1820TIP3    H1 5405   0.384   4.968   4.143
 1820TIP3    H2 5406   0.459   4.945   4.014
 1821TIP3   OH2 5407   0.156   4.774   5.487
 1821TIP3    H1 5408   0.230   4.714   5.497
 1821TIP3    H2 5409   0.111   4.771   5.571
 1822TIP3   OH2 5410   3.363   4.114   0.063
 1822TIP3    H1 5411   3.310   4.090  -0.013
 1822TIP3    H2 5412   3.448   4.140   0.027
 1823TIP3   OH2 5413   2.022   7.181   5.924
 1823TIP3    H1 5414   1.930   7.156   5.916
 1823TIP3    H2 5415   2.059   7.117   5.985
 1824TIP3   OH2 5416   7.166   5.343   2.169
 1824TIP3    H1 5417   7.102   5.312   2.233
 1824TIP3    H2 5418   7.179   5.435   2.193
 1825TIP3   OH2 5419   7.123   7.536   5.122
 1825TIP3    H1 5420   7.161   7.564   5.205
 1825TIP3    H2 5421   7.028   7.543   5.136
 1826TIP3   OH2 5422   2.559   1.766   1.197
 1826TIP3    H1 5423   2.492   1.833   1.188
 1826TIP3    H2 5424   2.557   1.719   1.114
 1827TIP3   OH2 5425   2.852   2.315   0.197
 1827TIP3    H1 5426   2.842   2.405   0.164
 1827TIP3    H2 5427   2.930   2.319   0.253
 1828TIP3   OH2 5428   6.156   5.879   4.768
 1828TIP3    H1 5429   6.068   5.858   4.738
 1828TIP3    H2 5430   6.150   5.877   4.864
 1829TIP3   OH2 5431   5.946   5.816   3.424
 1829TIP3    H1 5432   5.964   5.884   3.360
 1829TIP3    H2 5433   5.852   5.821   3.440
 1830TIP3   OH2 5434   0.721   1.563   5.241
 1830TIP3    H1 5435   0.708   1.508   5.318
 1830TIP3    H2 5436   0.635   1.567   5.199
 1831TIP3   OH2 5437   0.075   0.162   5.220
 1831TIP3    H1 5438   0.119   0.227   5.166
 1831TIP3    H2 5439   0.039   0.212   5.293
 1832TIP3   OH2 5440   3.451   7.797   1.120
 1832TIP3    H1 5441   3.536   7.817   1.158
 1832TIP3    H2 5442   3.390   7.804   1.193
 1833TIP3   OH2 5443   7.618   1.890   2.243
 1833TIP3    H1 5444   7.598   1.905   2.151
 1833TIP3    H2 5445   7.682   1.818   2.243
 1834TIP3   OH2 5446   1.490   0.824   3.664
 1834TIP3    H1 5447   1.463   0.878   3.739
 1834TIP3    H2 5448   1.410   0.812   3.613
 1835TIP3   OH2 5449   1.889   6.307   6.388
 1835TIP3    H1 5450   1.896   6.357   6.307
 1835TIP3    H2 5451   1.935   6.225   6.369
 1836TIP3   OH2 5452   7.874   3.604   2.230
 1836TIP3    H1 5453   7.936   3.539   2.264
 1836TIP3    H2 5454   7.788   3.572   2.259
 1837TIP3   OH2 5455   8.024   6.181   6.179
 1837TIP3    H1 5456   7.964   6.254   6.193
 1837TIP3    H2 5457   7.981   6.127   6.112
 1838TIP3   OH2 5458   4.704   4.770   5.153
 1838TIP3    H1 5459   4.642   4.841   5.135
 1838TIP3    H2 5460   4.739   4.790   5.240
 1839TIP3   OH2 5461   1.489   2.579   0.844
 1839TIP3    H1 5462   1.462   2.489   0.822
 1839TIP3    H2 5463   1.561   2.568   0.905
 1840TIP3   OH2 5464   3.664   6.099   2.190
 1840TIP3    H1 5465   3.667   6.101   2.095
 1840TIP3    H2 5466   3.591   6.041   2.211
 1841TIP3   OH2 5467   0.452   3.550   0.584
 1841TIP3    H1 5468   0.395   3.473   0.582
 1841TIP3    H2 5469   0.529   3.524   0.534
 1842TIP3   OH2 5470   2.128   4.685   4.328
 1842TIP3    H1 5471   2.074   4.689   4.248
 1842TIP3    H2 5472   2.217   4.672   4.295
 1843TIP3   OH2 5473   6.585   2.550   2.364
 1843TIP3    H1 5474   6.616   2.465   2.396
 1843TIP3    H2 5475   6.631   2.614   2.419
 1844TIP3   OH2 5476   6.358   3.813   3.542
 1844TIP3    H1 5477   6.379   3.906   3.550
 1844TIP3    H2 5478   6.378   3.776   3.628
 1845TIP3   OH2 5479   2.394   0.416   2.056
 1845TIP3    H1 5480   2.318   0.473   2.045
 1845TIP3    H2 5481   2.406   0.375   1.970
 1846TIP3   OH2 5482   7.870   4.167   4.212
 1846TIP3    H1 5483   7.945   4.166   4.153
 1846TIP3    H2 5484   7.813   4.236   4.179
 1847TIP3   OH2 5485   3.771   2.509   3.535
 1847TIP3    H1 5486   3.790   2.472   3.621
 1847TIP3    H2 5487   3.676   2.501   3.525
 1848TIP3   OH2 5488   5.738   3.865   5.039
 1848TIP3    H1 5489   5.780   3.925   4.977
 1848TIP3    H2 5490   5.768   3.778   5.011
 1849TIP3   OH2 5491   4.749   1.059   4.782
 1849TIP3    H1 5492   4.716   1.112   4.709
 1849TIP3    H2 5493   4.675   1.004   4.808
 1850TIP3   OH2 5494   6.978   1.701   4.637
 1850TIP3    H1 5495   6.886   1.727   4.644
 1850TIP3    H2 5496   7.015   1.760   4.571
 1851TIP3   OH2 5497   0.964   3.584   3.773
 1851TIP3    H1 5498   0.913   3.576   3.692
 1851TIP3    H2 5499   1.026   3.655   3.755
 1852TIP3   OH2 5500   5.051   4.455   2.081
 1852TIP3    H1 5501   5.117   4.502   2.132
 1852TIP3    H2 5502   5.096   4.433   2.000
 1853TIP3   OH2 5503   7.255   5.514   2.969
 1853TIP3    H1 5504   7.180   5.573   2.969
 1853TIP3    H2 5505   7.221   5.434   2.928
 1854TIP3   OH2 5506   8.156   4.560   2.668
 1854TIP3    H1 5507   8.136   4.545   2.575
 1854TIP3    H2 5508   8.090   4.510   2.715
 1855TIP3   OH2 5509   5.930   6.218   5.213
 1855TIP3    H1 5510   5.896   6.194   5.127
 1855TIP3    H2 5511   5.857   6.206   5.273
 1856TIP3   OH2 5512   7.611   4.056   2.143
 1856TIP3    H1 5513   7.690   4.109   2.129
 1856TIP3    H2 5514   7.560   4.068   2.062
 1857TIP3   OH2 5515   4.400   5.493   6.765
 1857TIP3    H1 5516   4.443   5.465   6.684
 1857TIP3    H2 5517   4.315   5.528   6.737
 1858TIP3   OH2 5518   3.890   4.181   6.633
 1858TIP3    H1 5519   3.854   4.093   6.634
 1858TIP3    H2 5520   3.980   4.170   6.665
 1859TIP3   OH2 5521   2.579   0.999   5.593
 1859TIP3    H1 5522   2.604   1.039   5.510
 1859TIP3    H2 5523   2.498   0.952   5.573
 1860TIP3   OH2 5524   1.383   3.026   0.117
 1860TIP3    H1 5525   1.378   3.028   0.213
 1860TIP3    H2 5526   1.302   2.983   0.090
 1861TIP3   OH2 5527   3.901   3.301   5.498
 1861TIP3    H1 5528   3.884   3.335   5.585
 1861TIP3    H2 5529   3.969   3.358   5.462
 1862TIP3   OH2 5530   2.289   6.366   6.363
 1862TIP3    H1 5531   2.225   6.353   6.293
 1862TIP3    H2 5532   2.236   6.367   6.443
 1863TIP3   OH2 5533   0.063   4.716   0.828
 1863TIP3    H1 5534   0.075   4.621   0.840
 1863TIP3    H2 5535  -0.030   4.731   0.844
 1864TIP3   OH2 5536   6.304   5.473   4.113
 1864TIP3    H1 5537   6.258   5.486   4.030
 1864TIP3    H2 5538   6.372   5.409   4.093
 1865TIP3   OH2 5539   2.192   6.446   2.100
 1865TIP3    H1 5540   2.253   6.507   2.142
 1865TIP3    H2 5541   2.177   6.379   2.166
 1866TIP3   OH2 5542   2.165   5.445   0.829
 1866TIP3    H1 5543   2.147   5.464   0.737
 1866TIP3    H2 5544   2.217   5.520   0.859
 1867TIP3   OH2 5545   3.579   7.270   4.441
 1867TIP3    H1 5546   3.562   7.361   4.417
 1867TIP3    H2 5547   3.540   7.260   4.528
 1868TIP3   OH2 5548   0.125   5.152   3.178
 1868TIP3    H1 5549   0.144   5.234   3.223
 1868TIP3    H2 5550   0.153   5.084   3.239
 1869TIP3   OH2 5551   7.165   3.615   6.124
 1869TIP3    H1 5552   7.147   3.702   6.086
 1869TIP3    H2 5553   7.163   3.630   6.218
 1870TIP3   OH2 5554   6.744   0.809   3.226
 1870TIP3    H1 5555   6.834   0.826   3.198
 1870TIP3    H2 5556   6.690   0.863   3.168
 1871TIP3   OH2 5557   5.177   5.566   1.314
 1871TIP3    H1 5558   5.177   5.566   1.410
 1871TIP3    H2 5559   5.112   5.500   1.291
 1872TIP3   OH2 5560   7.390   6.991   1.426
 1872TIP3    H1 5561   7.447   7.053   1.382
 1872TIP3    H2 5562   7.378   6.920   1.362
 1873TIP3   OH2 5563   7.760   4.516   1.205
 1873TIP3    H1 5564   7.785   4.431   1.168
 1873TIP3    H2 5565   7.680   4.497   1.255
 1874TIP3   OH2 5566   4.755   1.307   0.257
 1874TIP3    H1 5567   4.740   1.379   0.319
 1874TIP3    H2 5568   4.709   1.233   0.295
 1875TIP3   OH2 5569   3.833   0.190   5.411
 1875TIP3    H1 5570   3.903   0.126   5.393
 1875TIP3    H2 5571   3.761   0.137   5.445
 1876TIP3   OH2 5572   1.225   6.403   0.746
 1876TIP3    H1 5573   1.314   6.381   0.770
 1876TIP3    H2 5574   1.187   6.441   0.825
 1877TIP3   OH2 5575   7.798   0.563   1.238
 1877TIP3    H1 5576   7.821   0.647   1.198
 1877TIP3    H2 5577   7.774   0.586   1.328
 1878TIP3   OH2 5578   4.134   7.145   1.737
 1878TIP3    H1 5579   4.047   7.184   1.743
 1878TIP3    H2 5580   4.179   7.197   1.670
 1879TIP3   OH2 5581   5.642   3.914   5.523
 1879TIP3    H1 5582   5.690   3.911   5.440
 1879TIP3    H2 5583   5.617   4.006   5.532
 1880TIP3   OH2 5584   2.282   2.955   0.953
 1880TIP3    H1 5585   2.330   2.916   0.880
 1880TIP3    H2 5586   2.334   2.933   1.030
 1881TIP3   OH2 5587   5.126   6.334   2.330
 1881TIP3    H1 5588   5.082   6.276   2.393
 1881TIP3    H2 5589   5.112   6.422   2.366
 1882TIP3   OH2 5590   4.149   0.268   5.642
 1882TIP3    H1 5591   4.066   0.306   5.672
 1882TIP3    H2 5592   4.158   0.188   5.694
 1883TIP3   OH2 5593   4.674   0.149   1.554
 1883TIP3    H1 5594   4.656   0.057   1.537
 1883TIP3    H2 5595   4.655   0.193   1.471
 1884TIP3   OH2 5596   3.493   7.519   3.823
 1884TIP3    H1 5597   3.413   7.563   3.796
 1884TIP3    H2 5598   3.463   7.447   3.879
 1885TIP3   OH2 5599   6.470   2.717   0.548
 1885TIP3    H1 5600   6.433   2.629   0.553
 1885TIP3    H2 5601   6.557   2.708   0.587
 1886TIP3   OH2 5602   5.523   1.329   4.137
 1886TIP3    H1 5603   5.484   1.345   4.051
 1886TIP3    H2 5604   5.460   1.272   4.182
 1887TIP3   OH2 5605   1.892   3.425   3.131
 1887TIP3    H1 5606   1.856   3.361   3.193
 1887TIP3    H2 5607   1.914   3.373   3.054
 1888TIP3   OH2 5608   7.880   0.483   3.052
 1888TIP3    H1 5609   7.854   0.571   3.023
 1888TIP3    H2 5610   7.890   0.491   3.147
 1889TIP3   OH2 5611   4.896   5.665   5.319
 1889TIP3    H1 5612   4.822   5.669   5.380
 1889TIP3    H2 5613   4.856   5.648   5.234
 1890TIP3   OH2 5614   4.717   5.088   6.028
 1890TIP3    H1 5615   4.656   5.120   5.961
 1890TIP3    H2 5616   4.667   5.021   6.075
 1891TIP3   OH2 5617   3.721   4.936   2.532
 1891TIP3    H1 5618   3.675   4.883   2.467
 1891TIP3    H2 5619   3.813   4.917   2.517
 1892TIP3   OH2 5620   4.809   5.787   0.018
 1892TIP3    H1 5621   4.760   5.725  -0.036
 1892TIP3    H2 5622   4.773   5.775   0.106
 1893TIP3   OH2 5623   3.564   2.929   2.014
 1893TIP3    H1 5624   3.517   2.922   2.097
 1893TIP3    H2 5625   3.573   3.024   1.999
 1894TIP3   OH2 5626   6.247   1.692   2.004
 1894TIP3    H1 5627   6.192   1.691   1.925
 1894TIP3    H2 5628   6.186   1.704   2.076
 1895TIP3   OH2 5629   0.022   2.701   4.486
 1895TIP3    H1 5630   0.081   2.767   4.522
 1895TIP3    H2 5631   0.065   2.617   4.506
 1896TIP3   OH2 5632   5.462   5.268   5.982
 1896TIP3    H1 5633   5.414   5.187   5.997
 1896TIP3    H2 5634   5.427   5.301   5.900
 1897TIP3   OH2 5635   3.526   6.659   1.075
 1897TIP3    H1 5636   3.557   6.635   1.163
 1897TIP3    H2 5637   3.477   6.582   1.045
 1898TIP3   OH2 5638   4.469   4.046   2.505
 1898TIP3    H1 5639   4.396   4.032   2.565
 1898TIP3    H2 5640   4.472   3.966   2.453
 1899TIP3   OH2 5641   7.965   4.669   2.157
 1899TIP3    H1 5642   8.044   4.721   2.153
 1899TIP3    H2 5643   7.976   4.602   2.089
 1900TIP3   OH2 5644   7.591   2.052   2.024
 1900TIP3    H1 5645   7.579   2.115   2.095
 1900TIP3    H2 5646   7.672   2.079   1.981
 1901TIP3   OH2 5647   3.128   5.505   6.165
 1901TIP3    H1 5648   3.073   5.458   6.102
 1901TIP3    H2 5649   3.114   5.461   6.248
 1902TIP3   OH2 5650   7.010   2.259   6.765
 1902TIP3    H1 5651   6.930   2.215   6.792
 1902TIP3    H2 5652   7.008   2.343   6.811
 1903TIP3   OH2 5653   5.984   1.624   6.074
 1903TIP3    H1 5654   6.026   1.680   6.138
 1903TIP3    H2 5655   6.016   1.655   5.989
 1904TIP3   OH2 5656   7.437   5.243   5.546
 1904TIP3    H1 5657   7.427   5.186   5.470
 1904TIP3    H2 5658   7.508   5.204   5.596
 1905TIP3   OH2 5659   0.184   2.810   0.931
 1905TIP3    H1 5660   0.110   2.861   0.965
 1905TIP3    H2 5661   0.196   2.740   0.995
 1906TIP3   OH2 5662   3.365   6.229   5.230
 1906TIP3    H1 5663   3.304   6.171   5.185
 1906TIP3    H2 5664   3.330   6.317   5.213
 1907TIP3   OH2 5665   4.112   1.655   5.049
 1907TIP3    H1 5666   4.129   1.571   5.006
 1907TIP3    H2 5667   4.096   1.716   4.977
 1908TIP3   OH2 5668   2.372   1.793   4.330
 1908TIP3    H1 5669   2.422   1.713   4.313
 1908TIP3    H2 5670   2.351   1.790   4.423
 1909TIP3   OH2 5671   4.940   7.602   4.147
 1909TIP3    H1 5672   4.921   7.520   4.101
 1909TIP3    H2 5673   4.854   7.645   4.154
 1910TIP3   OH2 5674   4.149   0.692   6.038
 1910TIP3    H1 5675   4.241   0.686   6.064
 1910TIP3    H2 5676   4.131   0.609   5.992
 1911TIP3   OH2 5677   3.726   0.604   2.754
 1911TIP3    H1 5678   3.737   0.669   2.824
 1911TIP3    H2 5679   3.701   0.656   2.678
 1912TIP3   OH2 5680   3.769   2.723   6.174
 1912TIP3    H1 5681   3.674   2.714   6.179
 1912TIP3    H2 5682   3.801   2.683   6.255
 1913TIP3   OH2 5683   1.813   6.916   2.408
 1913TIP3    H1 5684   1.892   6.919   2.462
 1913TIP3    H2 5685   1.844   6.933   2.319
 1914TIP3   OH2 5686   4.015   1.184   3.151
 1914TIP3    H1 5687   4.060   1.215   3.230
 1914TIP3    H2 5688   3.965   1.259   3.121
 1915TIP3   OH2 5689   6.406   5.833   0.666
 1915TIP3    H1 5690   6.400   5.918   0.710
 1915TIP3    H2 5691   6.500   5.821   0.650
 1916TIP3   OH2 5692   7.879   6.545   2.529
 1916TIP3    H1 5693   7.909   6.622   2.482
 1916TIP3    H2 5694   7.957   6.513   2.576
 1917TIP3   OH2 5695   1.570   3.297   5.184
 1917TIP3    H1 5696   1.562   3.275   5.092
 1917TIP3    H2 5697   1.544   3.218   5.231
 1918TIP3   OH2 5698   6.232   3.372   6.537
 1918TIP3    H1 5699   6.284   3.406   6.464
 1918TIP3    H2 5700   6.257   3.280   6.543
 1919TIP3   OH2 5701   6.072   5.710   5.671
 1919TIP3    H1 5702   6.055   5.644   5.738
 1919TIP3    H2 5703   6.139   5.672   5.615
 1920TIP3   OH2 5704   4.832   0.850   1.056
 1920TIP3    H1 5705   4.863   0.938   1.076
 1920TIP3    H2 5706   4.902   0.792   1.086
 1921TIP3   OH2 5707   0.354   0.757   0.523
 1921TIP3    H1 5708   0.345   0.770   0.429
 1921TIP3    H2 5709   0.409   0.829   0.553
 1922TIP3   OH2 5710   8.272   6.311   6.139
 1922TIP3    H1 5711   8.185   6.272   6.134
 1922TIP3    H2 5712   8.260   6.400   6.107
 1923TIP3   OH2 5713   4.829   2.856   3.169
 1923TIP3    H1 5714   4.791   2.898   3.092
 1923TIP3    H2 5715   4.804   2.913   3.242
 1924TIP3   OH2 5716   0.466   0.188   5.268
 1924TIP3    H1 5717   0.480   0.275   5.231
 1924TIP3    H2 5718   0.459   0.202   5.362
 1925TIP3   OH2 5719   3.200   3.031   1.171
 1925TIP3    H1 5720   3.154   3.067   1.095
 1925TIP3    H2 5721   3.168   2.940   1.177
 1926TIP3   OH2 5722   8.137   1.145   5.128
 1926TIP3    H1 5723   8.142   1.056   5.093
 1926TIP3    H2 5724   8.146   1.201   5.052
 1927TIP3   OH2 5725   6.003   7.547   1.406
 1927TIP3    H1 5726   5.991   7.542   1.311
 1927TIP3    H2 5727   5.941   7.483   1.441
 1928TIP3   OH2 5728   4.606   7.768   5.499
 1928TIP3    H1 5729   4.583   7.771   5.592
 1928TIP3    H2 5730   4.702   7.764   5.498
 1929TIP3   OH2 5731   0.016   7.303   6.661
 1929TIP3    H1 5732   0.083   7.252   6.615
 1929TIP3    H2 5733   0.066   7.372   6.705
 1930TIP3   OH2 5734   6.732   0.905   6.440
 1930TIP3    H1 5735   6.735   0.810   6.425
 1930TIP3    H2 5736   6.731   0.942   6.351
 1931TIP3   OH2 5737   3.430   1.063   5.139
 1931TIP3    H1 5738   3.348   1.038   5.097
 1931TIP3    H2 5739   3.493   0.998   5.111
 1932TIP3   OH2 5740   3.082   5.355   3.282
 1932TIP3    H1 5741   3.073   5.382   3.191
 1932TIP3    H2 5742   3.045   5.427   3.333
 1933TIP3   OH2 5743   2.027   4.912   6.643
 1933TIP3    H1 5744   2.057   4.978   6.705
 1933TIP3    H2 5745   2.053   4.946   6.557
 1934TIP3   OH2 5746   5.214   4.631   2.227
 1934TIP3    H1 5747   5.187   4.714   2.189
 1934TIP3    H2 5748   5.309   4.635   2.230
 1935TIP3   OH2 5749   3.394   7.346   0.237
 1935TIP3    H1 5750   3.305   7.337   0.272
 1935TIP3    H2 5751   3.389   7.419   0.175
 1936TIP3   OH2 5752   1.303   1.962   1.937
 1936TIP3    H1 5753   1.301   1.926   1.848
 1936TIP3    H2 5754   1.396   1.971   1.957
 1937TIP3   OH2 5755   0.312   4.009   1.653
 1937TIP3    H1 5756   0.301   3.933   1.596
 1937TIP3    H2 5757   0.350   4.076   1.597
 1938TIP3   OH2 5758   7.227   3.604   1.414
 1938TIP3    H1 5759   7.163   3.596   1.343
 1938TIP3    H2 5760   7.183   3.658   1.480
 1939TIP3   OH2 5761   0.398   7.324   0.236
 1939TIP3    H1 5762   0.338   7.383   0.191
 1939TIP3    H2 5763   0.458   7.295   0.167
 1940TIP3   OH2 5764   7.880   5.115   6.723
 1940TIP3    H1 5765   7.838   5.031   6.705
 1940TIP3    H2 5766   7.811   5.167   6.766
 1941TIP3   OH2 5767   6.005   5.906   6.151
 1941TIP3    H1 5768   5.932   5.893   6.212
 1941TIP3    H2 5769   6.059   5.828   6.163
 1942TIP3   OH2 5770   5.691   0.117   1.053
 1942TIP3    H1 5771   5.723   0.196   1.096
 1942TIP3    H2 5772   5.624   0.082   1.112
 1943TIP3   OH2 5773   1.626   1.793   5.225
 1943TIP3    H1 5774   1.550   1.846   5.203
 1943TIP3    H2 5775   1.687   1.807   5.152
 1944TIP3   OH2 5776   3.106   1.082   2.167
 1944TIP3    H1 5777   3.063   1.013   2.218
 1944TIP3    H2 5778   3.129   1.039   2.084
 1945TIP3   OH2 5779   3.954   3.215   4.660
 1945TIP3    H1 5780   4.046   3.227   4.638
 1945TIP3    H2 5781   3.936   3.282   4.727
 1946TIP3   OH2 5782   4.290   4.654   4.125
 1946TIP3    H1 5783   4.383   4.632   4.120
 1946TIP3    H2 5784   4.276   4.678   4.217
 1947TIP3   OH2 5785   2.244   6.417   0.858
 1947TIP3    H1 5786   2.238   6.349   0.792
 1947TIP3    H2 5787   2.325   6.398   0.906
 1948TIP3   OH2 5788   5.189   3.310   3.168
 1948TIP3    H1 5789   5.202   3.379   3.233
 1948TIP3    H2 5790   5.101   3.278   3.184
 1949TIP3   OH2 5791   4.646   1.096   1.354
 1949TIP3    H1 5792   4.650   1.180   1.308
 1949TIP3    H2 5793   4.737   1.066   1.357
 1950TIP3   OH2 5794   4.089   5.023   4.711
 1950TIP3    H1 5795   4.184   5.011   4.704
 1950TIP3    H2 5796   4.057   4.941   4.749
 1951TIP3   OH2 5797   5.778   5.957   6.746
 1951TIP3    H1 5798   5.715   5.894   6.711
 1951TIP3    H2 5799   5.785   6.024   6.678
 1952TIP3   OH2 5800   1.542   7.826   3.927
 1952TIP3    H1 5801   1.551   7.883   4.004
 1952TIP3    H2 5802   1.556   7.738   3.961
 1953TIP3   OH2 5803   1.518   4.209   0.708
 1953TIP3    H1 5804   1.428   4.177   0.701
 1953TIP3    H2 5805   1.542   4.193   0.799
 1954TIP3   OH2 5806   4.103   6.984   6.611
 1954TIP3    H1 5807   4.049   6.915   6.650
 1954TIP3    H2 5808   4.100   6.965   6.517
 1955TIP3   OH2 5809   3.469   2.716   6.279
 1955TIP3    H1 5810   3.429   2.660   6.212
 1955TIP3    H2 5811   3.460   2.666   6.360
 1956TIP3   OH2 5812   6.878   2.973   1.260
 1956TIP3    H1 5813   6.826   2.922   1.323
 1956TIP3    H2 5814   6.966   2.973   1.296
 1957TIP3   OH2 5815   4.438   2.681   6.107
 1957TIP3    H1 5816   4.468   2.759   6.153
 1957TIP3    H2 5817   4.498   2.612   6.137
 1958TIP3   OH2 5818   8.285   2.974   2.087
 1958TIP3    H1 5819   8.291   2.907   2.155
 1958TIP3    H2 5820   8.193   2.975   2.062
 1959TIP3   OH2 5821   4.676   3.647   2.157
 1959TIP3    H1 5822   4.615   3.575   2.143
 1959TIP3    H2 5823   4.639   3.720   2.106
 1960TIP3   OH2 5824   3.259   0.518   6.596
 1960TIP3    H1 5825   3.342   0.527   6.550
 1960TIP3    H2 5826   3.206   0.592   6.566
 1961TIP3   OH2 5827   5.312   2.438   1.925
 1961TIP3    H1 5828   5.227   2.482   1.931
 1961TIP3    H2 5829   5.374   2.507   1.902
 1962TIP3   OH2 5830   3.889   0.377   6.159
 1962TIP3    H1 5831   3.865   0.456   6.110
 1962TIP3    H2 5832   3.810   0.354   6.208
 1963TIP3   OH2 5833   7.891   4.523   0.919
 1963TIP3    H1 5834   7.860   4.438   0.949
 1963TIP3    H2 5835   7.812   4.577   0.914
 1964TIP3   OH2 5836   4.834   6.574   0.577
 1964TIP3    H1 5837   4.842   6.478   0.574
 1964TIP3    H2 5838   4.781   6.596   0.501
 1965TIP3   OH2 5839   5.909   7.010   0.176
 1965TIP3    H1 5840   5.816   7.032   0.170
 1965TIP3    H2 5841   5.911   6.919   0.204
 1966TIP3   OH2 5842   5.131   5.073   1.378
 1966TIP3    H1 5843   5.082   5.126   1.441
 1966TIP3    H2 5844   5.064   5.030   1.325
 1967TIP3   OH2 5845   2.320   4.701   5.785
 1967TIP3    H1 5846   2.362   4.647   5.853
 1967TIP3    H2 5847   2.286   4.638   5.722
 1968TIP3   OH2 5848   0.232   4.636   4.477
 1968TIP3    H1 5849   0.223   4.556   4.426
 1968TIP3    H2 5850   0.323   4.637   4.505
 1969TIP3   OH2 5851   0.396   3.902   3.128
 1969TIP3    H1 5852   0.352   3.986   3.139
 1969TIP3    H2 5853   0.488   3.924   3.118
 1970TIP3   OH2 5854   3.920   6.533   1.126
 1970TIP3    H1 5855   3.971   6.556   1.048
 1970TIP3    H2 5856   3.947   6.596   1.193
 1971TIP3   OH2 5857   2.844   2.131   5.765
 1971TIP3    H1 5858   2.776   2.066   5.781
 1971TIP3    H2 5859   2.816   2.209   5.813
 1972TIP3   OH2 5860   4.552   4.824   0.056
 1972TIP3    H1 5861   4.532   4.914   0.083
 1972TIP3    H2 5862   4.620   4.833  -0.010
 1973TIP3   OH2 5863   4.453   5.663   2.844
 1973TIP3    H1 5864   4.370   5.673   2.891
 1973TIP3    H2 5865   4.429   5.624   2.760
 1974TIP3   OH2 5866   4.051   0.859   6.640
 1974TIP3    H1 5867   4.004   0.783   6.673
 1974TIP3    H2 5868   4.140   0.828   6.623
 1975TIP3   OH2 5869   1.711   3.880   5.194
 1975TIP3    H1 5870   1.634   3.826   5.209
 1975TIP3    H2 5871   1.736   3.861   5.103
 1976TIP3   OH2 5872   5.882   2.818   4.220
 1976TIP3    H1 5873   5.922   2.827   4.134
 1976TIP3    H2 5874   5.795   2.856   4.210
 1977TIP3   OH2 5875   3.977   3.634   2.390
 1977TIP3    H1 5876   3.964   3.701   2.324
 1977TIP3    H2 5877   3.913   3.566   2.369
 1978TIP3   OH2 5878   0.831   0.835   0.372
 1978TIP3    H1 5879   0.794   0.920   0.348
 1978TIP3    H2 5880   0.796   0.774   0.307
 1979TIP3   OH2 5881   4.093   2.216   6.397
 1979TIP3    H1 5882   4.141   2.264   6.330
 1979TIP3    H2 5883   4.146   2.138   6.414
 1980TIP3   OH2 5884   2.358   2.890   5.472
 1980TIP3    H1 5885   2.309   2.970   5.453
 1980TIP3    H2 5886   2.446   2.908   5.441
 1981TIP3   OH2 5887   2.657   1.511   6.251
 1981TIP3    H1 5888   2.708   1.592   6.254
 1981TIP3    H2 5889   2.591   1.527   6.184
 1982TIP3   OH2 5890   1.158   5.782   5.679
 1982TIP3    H1 5891   1.211   5.714   5.636
 1982TIP3    H2 5892   1.217   5.857   5.684
 1983TIP3   OH2 5893   7.423   1.534   6.502
 1983TIP3    H1 5894   7.361   1.607   6.495
 1983TIP3    H2 5895   7.469   1.549   6.585
 1984TIP3   OH2 5896   5.536   1.050   5.878
 1984TIP3    H1 5897   5.614   1.020   5.832
 1984TIP3    H2 5898   5.483   1.092   5.811
 1985TIP3   OH2 5899   4.841   1.273   3.894
 1985TIP3    H1 5900   4.820   1.317   3.976
 1985TIP3    H2 5901   4.785   1.314   3.829
 1986TIP3   OH2 5902   5.408   6.637   4.800
 1986TIP3    H1 5903   5.349   6.561   4.796
 1986TIP3    H2 5904   5.451   6.629   4.884
 1987TIP3   OH2 5905   2.336   6.521   2.744
 1987TIP3    H1 5906   2.428   6.499   2.763
 1987TIP3    H2 5907   2.287   6.445   2.775
 1988TIP3   OH2 5908   7.855   7.565   5.954
 1988TIP3    H1 5909   7.832   7.608   5.872
 1988TIP3    H2 5910   7.839   7.631   6.021
 1989TIP3   OH2 5911   6.048   1.065   5.581
 1989TIP3    H1 5912   6.112   1.127   5.547
 1989TIP3    H2 5913   5.970   1.117   5.599
 1990TIP3   OH2 5914   3.663   3.778   4.892
 1990TIP3    H1 5915   3.617   3.859   4.872
 1990TIP3    H2 5916   3.689   3.743   4.807
 1991TIP3   OH2 5917   0.556   3.907   0.275
 1991TIP3    H1 5918   0.586   3.818   0.259
 1991TIP3    H2 5919   0.635   3.957   0.295
 1992TIP3   OH2 5920   2.448   5.859   3.476
 1992TIP3    H1 5921   2.368   5.817   3.508
 1992TIP3    H2 5922   2.472   5.808   3.398
 1993TIP3   OH2 5923   0.039   6.482   0.753
 1993TIP3    H1 5924   0.093   6.464   0.676
 1993TIP3    H2 5925   0.080   6.433   0.823
 1994TIP3   OH2 5926   6.483   2.185   6.633
 1994TIP3    H1 5927   6.572   2.206   6.603
 1994TIP3    H2 5928   6.431   2.261   6.606
 1995TIP3   OH2 5929   5.448   4.282   2.374
 1995TIP3    H1 5930   5.404   4.219   2.317
 1995TIP3    H2 5931   5.541   4.267   2.360
 1996TIP3   OH2 5932   5.578   5.523   2.980
 1996TIP3    H1 5933   5.626   5.447   2.947
 1996TIP3    H2 5934   5.530   5.555   2.903
 1997TIP3   OH2 5935   1.938   6.617   0.347
 1997TIP3    H1 5936   1.876   6.682   0.378
 1997TIP3    H2 5937   1.979   6.582   0.426
 1998TIP3   OH2 5938   0.643   2.382  -0.016
 1998TIP3    H1 5939   0.700   2.453  -0.044
 1998TIP3    H2 5940   0.628   2.399   0.078
 1999TIP3   OH2 5941   5.400   3.919   3.454
 1999TIP3    H1 5942   5.391   3.872   3.537
 1999TIP3    H2 5943   5.357   4.003   3.469
 2000TIP3   OH2 5944   1.539   0.610   1.872
 2000TIP3    H1 5945   1.596   0.575   1.803
 2000TIP3    H2 5946   1.585   0.591   1.954
 2001TIP3   OH2 5947   7.872   0.467   3.315
 2001TIP3    H1 5948   7.894   0.447   3.406
 2001TIP3    H2 5949   7.854   0.561   3.315
 2002TIP3   OH2 5950   3.072   4.740   0.050
 2002TIP3    H1 5951   3.152   4.691   0.035
 2002TIP3    H2 5952   3.045   4.770  -0.037
 2003TIP3   OH2 5953   4.867   7.754   5.485
 2003TIP3    H1 5954   4.888   7.808   5.408
 2003TIP3    H2 5955   4.951   7.724   5.517
 2004TIP3   OH2 5956   6.196   3.324   1.199
 2004TIP3    H1 5957   6.139   3.284   1.265
 2004TIP3    H2 5958   6.152   3.306   1.116
 2005TIP3   OH2 5959   3.202   1.720   3.297
 2005TIP3    H1 5960   3.295   1.733   3.318
 2005TIP3    H2 5961   3.160   1.802   3.319
 2006TIP3   OH2 5962   3.439   3.680   2.546
 2006TIP3    H1 5963   3.388   3.675   2.627
 2006TIP3    H2 5964   3.519   3.631   2.566
 2007TIP3   OH2 5965   8.142   5.191   4.659
 2007TIP3    H1 5966   8.099   5.215   4.741
 2007TIP3    H2 5967   8.081   5.129   4.618
 2008TIP3   OH2 5968   7.599   2.824   5.873
 2008TIP3    H1 5969   7.642   2.765   5.812
 2008TIP3    H2 5970   7.573   2.768   5.946
 2009TIP3   OH2 5971   5.492   2.471   0.495
 2009TIP3    H1 5972   5.547   2.393   0.491
 2009TIP3    H2 5973   5.552   2.543   0.477
 2010TIP3   OH2 5974   4.790   1.093   6.491
 2010TIP3    H1 5975   4.825   1.144   6.564
 2010TIP3    H2 5976   4.825   1.005   6.505
 2011TIP3   OH2 5977   4.160   6.872   1.176
 2011TIP3    H1 5978   4.065   6.857   1.175
 2011TIP3    H2 5979   4.175   6.928   1.100
 2012TIP3   OH2 5980   6.651   3.819   4.005
 2012TIP3    H1 5981   6.632   3.831   3.912
 2012TIP3    H2 5982   6.745   3.805   4.009
 2013TIP3   OH2 5983   6.519   4.958   5.332
 2013TIP3    H1 5984   6.480   5.003   5.256
 2013TIP3    H2 5985   6.499   4.865   5.317
 2014TIP3   OH2 5986   3.758   1.650   5.403
 2014TIP3    H1 5987   3.838   1.698   5.380
 2014TIP3    H2 5988   3.698   1.718   5.434
 2015TIP3   OH2 5989   0.274   1.023   6.331
 2015TIP3    H1 5990   0.341   0.962   6.299
 2015TIP3    H2 5991   0.235   1.059   6.251
 2016TIP3   OH2 5992   2.254   5.236   1.020
 2016TIP3    H1 5993   2.213   5.230   1.107
 2016TIP3    H2 5994   2.348   5.231   1.038
 2017TIP3   OH2 5995   1.107   0.877   0.137
 2017TIP3    H1 5996   1.143   0.944   0.079
 2017TIP3    H2 5997   1.083   0.925   0.217
 2018TIP3   OH2 5998   5.247   5.251   1.900
 2018TIP3    H1 5999   5.292   5.196   1.964
 2018TIP3    H2 6000   5.276   5.217   1.815
 2019TIP3   OH2 6001   3.327   6.261   2.900
 2019TIP3    H1 6002   3.408   6.284   2.946
 2019TIP3    H2 6003   3.347   6.276   2.808
 2020TIP3   OH2 6004   1.087   4.314   0.964
 2020TIP3    H1 6005   1.073   4.343   1.054
 2020TIP3    H2 6006   1.057   4.388   0.910
 2021TIP3   OH2 6007   1.328   6.757   1.278
 2021TIP3    H1 6008   1.317   6.727   1.188
 2021TIP3    H2 6009   1.374   6.840   1.270
 2022TIP3   OH2 6010   2.392   0.882   4.459
 2022TIP3    H1 6011   2.478   0.901   4.497
 2022TIP3    H2 6012   2.346   0.965   4.463
 2023TIP3   OH2 6013   1.147   5.338   1.509
 2023TIP3    H1 6014   1.182   5.353   1.421
 2023TIP3    H2 6015   1.122   5.425   1.541
 2024TIP3   OH2 6016   5.844   1.525   3.818
 2024TIP3    H1 6017   5.903   1.593   3.786
 2024TIP3    H2 6018   5.795   1.566   3.889
 2025TIP3   OH2 6019   6.788   1.974   0.515
 2025TIP3    H1 6020   6.852   2.042   0.491
 2025TIP3    H2 6021   6.787   1.975   0.611
 2026TIP3   OH2 6022   2.556   5.518   5.735
 2026TIP3    H1 6023   2.539   5.434   5.693
 2026TIP3    H2 6024   2.476   5.537   5.784
 2027TIP3   OH2 6025   4.864   0.630   3.122
 2027TIP3    H1 6026   4.782   0.638   3.172
 2027TIP3    H2 6027   4.891   0.539   3.135
 2028TIP3   OH2 6028   4.482   4.714   5.496
 2028TIP3    H1 6029   4.399   4.676   5.465
 2028TIP3    H2 6030   4.464   4.739   5.586
 2029TIP3   OH2 6031   0.554   7.207   1.214
 2029TIP3    H1 6032   0.496   7.151   1.163
 2029TIP3    H2 6033   0.629   7.222   1.157
 2030TIP3   OH2 6034   4.738   7.785   3.162
 2030TIP3    H1 6035   4.832   7.802   3.152
 2030TIP3    H2 6036   4.730   7.690   3.153
 2031TIP3   OH2 6037   6.971   0.741   5.706
 2031TIP3    H1 6038   6.911   0.799   5.658
 2031TIP3    H2 6039   6.968   0.659   5.657
 2032TIP3   OH2 6040   4.882   6.773   3.173
 2032TIP3    H1 6041   4.977   6.779   3.180
 2032TIP3    H2 6042   4.850   6.858   3.204
 2033TIP3   OH2 6043   0.814   2.985   6.279
 2033TIP3    H1 6044   0.838   3.003   6.188
 2033TIP3    H2 6045   0.740   2.924   6.272
 2034TIP3   OH2 6046   0.502   5.455   0.461
 2034TIP3    H1 6047   0.425   5.400   0.448
 2034TIP3    H2 6048   0.575   5.394   0.459
 2035TIP3   OH2 6049   0.179   4.562   3.006
 2035TIP3    H1 6050   0.114   4.501   2.971
 2035TIP3    H2 6051   0.146   4.649   2.981
 2036TIP3   OH2 6052   6.098   4.215   5.568
 2036TIP3    H1 6053   6.086   4.207   5.473
 2036TIP3    H2 6054   6.009   4.217   5.603
 2037TIP3   OH2 6055   5.031   5.566   2.495
 2037TIP3    H1 6056   5.050   5.621   2.571
 2037TIP3    H2 6057   4.936   5.563   2.490
 2038TIP3   OH2 6058   1.464   3.561   3.164
 2038TIP3    H1 6059   1.374   3.529   3.168
 2038TIP3    H2 6060   1.515   3.486   3.134
 2039TIP3   OH2 6061   2.308   6.786   3.391
 2039TIP3    H1 6062   2.287   6.818   3.479
 2039TIP3    H2 6063   2.380   6.725   3.404
 2040TIP3   OH2 6064   5.986   4.148   2.968
 2040TIP3    H1 6065   5.979   4.068   2.916
 2040TIP3    H2 6066   6.017   4.119   3.053
 2041TIP3   OH2 6067   7.621   2.511   0.506
 2041TIP3    H1 6068   7.597   2.489   0.417
 2041TIP3    H2 6069   7.619   2.607   0.509
 2042TIP3   OH2 6070   5.266   3.801   0.754
 2042TIP3    H1 6071   5.324   3.757   0.816
 2042TIP3    H2 6072   5.324   3.848   0.696
 2043TIP3   OH2 6073   1.893   1.630   3.882
 2043TIP3    H1 6074   1.930   1.548   3.850
 2043TIP3    H2 6075   1.968   1.690   3.885
 2044TIP3   OH2 6076   5.148   2.343   2.426
 2044TIP3    H1 6077   5.081   2.290   2.384
 2044TIP3    H2 6078   5.126   2.339   2.519
 2045TIP3   OH2 6079   0.620   2.468   0.243
 2045TIP3    H1 6080   0.624   2.435   0.332
 2045TIP3    H2 6081   0.541   2.523   0.241
 2046TIP3   OH2 6082   0.160   0.309   1.534
 2046TIP3    H1 6083   0.243   0.352   1.514
 2046TIP3    H2 6084   0.171   0.279   1.625
 2047TIP3   OH2 6085   0.453   5.546   4.667
 2047TIP3    H1 6086   0.364   5.519   4.645
 2047TIP3    H2 6087   0.508   5.472   4.643
 2048TIP3   OH2 6088   2.076   6.254   5.899
 2048TIP3    H1 6089   2.011   6.324   5.910
 2048TIP3    H2 6090   2.027   6.182   5.858
 2049TIP3   OH2 6091   3.152   1.375   4.967
 2049TIP3    H1 6092   3.198   1.447   5.011
 2049TIP3    H2 6093   3.142   1.406   4.877
 2050TIP3   OH2 6094   8.216   1.216   0.555
 2050TIP3    H1 6095   8.151   1.186   0.490
 2050TIP3    H2 6096   8.259   1.136   0.584
 2051TIP3   OH2 6097   5.743   1.259   5.157
 2051TIP3    H1 6098   5.702   1.214   5.083
 2051TIP3    H2 6099   5.777   1.189   5.212
 2052TIP3   OH2 6100   5.664   5.359   5.364
 2052TIP3    H1 6101   5.583   5.394   5.400
 2052TIP3    H2 6102   5.724   5.433   5.365
 2053TIP3   OH2 6103   2.829   1.243   6.690
 2053TIP3    H1 6104   2.819   1.254   6.595
 2053TIP3    H2 6105   2.911   1.287   6.711
 2054TIP3   OH2 6106   4.954   5.299   5.072
 2054TIP3    H1 6107   5.030   5.307   5.015
 2054TIP3    H2 6108   4.879   5.305   5.013
 2055TIP3   OH2 6109   5.825   1.932   2.363
 2055TIP3    H1 6110   5.896   1.965   2.417
 2055TIP3    H2 6111   5.818   1.839   2.388
 2056TIP3   OH2 6112   3.146   6.465   6.718
 2056TIP3    H1 6113   3.239   6.489   6.711
 2056TIP3    H2 6114   3.099   6.546   6.698
 2057TIP3   OH2 6115   4.645   5.883   5.740
 2057TIP3    H1 6116   4.693   5.920   5.814
 2057TIP3    H2 6117   4.602   5.806   5.776
 2058TIP3   OH2 6118   7.503   6.125   1.289
 2058TIP3    H1 6119   7.448   6.059   1.332
 2058TIP3    H2 6120   7.592   6.105   1.318
 2059TIP3   OH2 6121   0.830   5.178   4.426
 2059TIP3    H1 6122   0.784   5.099   4.454
 2059TIP3    H2 6123   0.897   5.192   4.492
 2060TIP3   OH2 6124   5.417   6.746   3.403
 2060TIP3    H1 6125   5.460   6.779   3.325
 2060TIP3    H2 6126   5.361   6.675   3.371
 2061TIP3   OH2 6127   7.710   2.209   4.126
 2061TIP3    H1 6128   7.655   2.184   4.200
 2061TIP3    H2 6129   7.697   2.304   4.118
 2062TIP3   OH2 6130   8.184   1.022   3.093
 2062TIP3    H1 6131   8.224   1.108   3.109
 2062TIP3    H2 6132   8.090   1.039   3.089
 2063TIP3   OH2 6133   0.287   2.000   2.848
 2063TIP3    H1 6134   0.233   2.065   2.892
 2063TIP3    H2 6135   0.286   2.027   2.756
 2064TIP3   OH2 6136   3.895   4.885   0.919
 2064TIP3    H1 6137   3.941   4.944   0.978
 2064TIP3    H2 6138   3.946   4.804   0.921
 2065TIP3   OH2 6139   4.657   0.521   2.488
 2065TIP3    H1 6140   4.667   0.610   2.520
 2065TIP3    H2 6141   4.734   0.507   2.432
 2066TIP3   OH2 6142   4.335   3.709   4.379
 2066TIP3    H1 6143   4.285   3.733   4.458
 2066TIP3    H2 6144   4.416   3.759   4.386
 2067TIP3   OH2 6145   2.822   1.275   5.569
 2067TIP3    H1 6146   2.903   1.265   5.518
 2067TIP3    H2 6147   2.817   1.368   5.589
 2068TIP3   OH2 6148   3.150   6.273   2.613
 2068TIP3    H1 6149   3.167   6.278   2.519
 2068TIP3    H2 6150   3.143   6.179   2.631
 2069TIP3   OH2 6151   2.340   3.325   6.252
 2069TIP3    H1 6152   2.294   3.307   6.334
 2069TIP3    H2 6153   2.307   3.258   6.192
 2070TIP3   OH2 6154   1.998   0.377   6.416
 2070TIP3    H1 6155   1.930   0.329   6.461
 2070TIP3    H2 6156   1.951   0.436   6.356
 2071TIP3   OH2 6157   2.009   2.961   0.473
 2071TIP3    H1 6158   2.069   2.997   0.407
 2071TIP3    H2 6159   2.065   2.943   0.548
 2072TIP3   OH2 6160   2.445   1.079   1.928
 2072TIP3    H1 6161   2.517   1.141   1.939
 2072TIP3    H2 6162   2.488   0.994   1.925
 2073TIP3   OH2 6163   5.571   4.898   6.682
 2073TIP3    H1 6164   5.479   4.926   6.676
 2073TIP3    H2 6165   5.621   4.978   6.666
 2074TIP3   OH2 6166   2.171   5.004   4.728
 2074TIP3    H1 6167   2.186   4.909   4.728
 2074TIP3    H2 6168   2.149   5.025   4.819
 2075TIP3   OH2 6169   7.352   6.373   4.758
 2075TIP3    H1 6170   7.286   6.410   4.700
 2075TIP3    H2 6171   7.418   6.442   4.766
 2076TIP3   OH2 6172   2.838   2.731   0.350
 2076TIP3    H1 6173   2.846   2.746   0.256
 2076TIP3    H2 6174   2.911   2.779   0.388
 2077TIP3   OH2 6175   4.032   6.227   4.712
 2077TIP3    H1 6176   3.993   6.205   4.627
 2077TIP3    H2 6177   4.030   6.322   4.715
 2078TIP3   OH2 6178   4.694   4.166   6.236
 2078TIP3    H1 6179   4.599   4.156   6.229
 2078TIP3    H2 6180   4.710   4.260   6.226
 2079TIP3   OH2 6181   3.531   6.173   1.692
 2079TIP3    H1 6182   3.440   6.163   1.663
 2079TIP3    H2 6183   3.578   6.199   1.613
 2080TIP3   OH2 6184   5.466   5.172   5.506
 2080TIP3    H1 6185   5.403   5.206   5.442
 2080TIP3    H2 6186   5.412   5.130   5.573
 2081TIP3   OH2 6187   7.449   3.027   4.291
 2081TIP3    H1 6188   7.491   2.980   4.219
 2081TIP3    H2 6189   7.520   3.046   4.352
 2082TIP3   OH2 6190   2.252   6.865   6.619
 2082TIP3    H1 6191   2.157   6.859   6.631
 2082TIP3    H2 6192   2.288   6.829   6.699
 2083TIP3   OH2 6193   0.254   1.351   5.082
 2083TIP3    H1 6194   0.273   1.265   5.046
 2083TIP3    H2 6195   0.204   1.333   5.162
 2084TIP3   OH2 6196   5.208   5.144   0.707
 2084TIP3    H1 6197   5.208   5.156   0.802
 2084TIP3    H2 6198   5.115   5.138   0.683
 2085TIP3   OH2 6199   2.582   3.441   3.993
 2085TIP3    H1 6200   2.633   3.519   3.969
 2085TIP3    H2 6201   2.494   3.460   3.960
 2086TIP3   OH2 6202   3.219   3.534   1.177
 2086TIP3    H1 6203   3.198   3.548   1.269
 2086TIP3    H2 6204   3.237   3.621   1.143
 2087TIP3   OH2 6205   3.312   0.067   6.056
 2087TIP3    H1 6206   3.252   0.005   6.098
 2087TIP3    H2 6207   3.354   0.113   6.129
 2088TIP3   OH2 6208   7.547   4.786   5.116
 2088TIP3    H1 6209   7.553   4.716   5.051
 2088TIP3    H2 6210   7.476   4.842   5.085
 2089TIP3   OH2 6211   6.453   3.706   1.633
 2089TIP3    H1 6212   6.469   3.800   1.625
 2089TIP3    H2 6213   6.359   3.697   1.618
 2090TIP3   OH2 6214   1.737   4.992   5.906
 2090TIP3    H1 6215   1.766   4.903   5.924
 2090TIP3    H2 6216   1.646   4.982   5.879
 2091TIP3   OH2 6217   3.748   6.180   3.612
 2091TIP3    H1 6218   3.808   6.240   3.567
 2091TIP3    H2 6219   3.805   6.117   3.656
 2092TIP3   OH2 6220   3.235   6.277   2.365
 2092TIP3    H1 6221   3.241   6.314   2.277
 2092TIP3    H2 6222   3.326   6.267   2.393
 2093TIP3   OH2 6223   7.741   0.252   5.210
 2093TIP3    H1 6224   7.818   0.248   5.266
 2093TIP3    H2 6225   7.702   0.165   5.216
 2094TIP3   OH2 6226   2.210   4.365   4.049
 2094TIP3    H1 6227   2.156   4.289   4.025
 2094TIP3    H2 6228   2.193   4.429   3.979
 2095TIP3   OH2 6229   1.218   2.083   4.233
 2095TIP3    H1 6230   1.274   2.139   4.179
 2095TIP3    H2 6231   1.237   1.994   4.203
 2096TIP3   OH2 6232   3.118   0.055   4.887
 2096TIP3    H1 6233   3.036   0.064   4.838
 2096TIP3    H2 6234   3.185   0.089   4.827
 2097TIP3   OH2 6235   3.638   2.458   1.089
 2097TIP3    H1 6236   3.719   2.485   1.047
 2097TIP3    H2 6237   3.603   2.538   1.129
 2098TIP3   OH2 6238  -0.004   4.679   4.591
 2098TIP3    H1 6239   0.074   4.662   4.539
 2098TIP3    H2 6240   0.006   4.769   4.622
 2099TIP3   OH2 6241   2.002   5.179   5.271
 2099TIP3    H1 6242   1.943   5.181   5.197
 2099TIP3    H2 6243   2.053   5.099   5.259
 2100TIP3   OH2 6244   4.791   2.019   0.354
 2100TIP3    H1 6245   4.867   1.994   0.302
 2100TIP3    H2 6246   4.821   2.014   0.445
 2101TIP3   OH2 6247   3.966   6.737   6.006
 2101TIP3    H1 6248   4.022   6.802   5.963
 2101TIP3    H2 6249   3.930   6.783   6.082
 2102TIP3   OH2 6250   1.497   0.151   1.480
 2102TIP3    H1 6251   1.561   0.177   1.413
 2102TIP3    H2 6252   1.426   0.112   1.430
 2103TIP3   OH2 6253   7.462   2.313   1.361
 2103TIP3    H1 6254   7.476   2.320   1.455
 2103TIP3    H2 6255   7.468   2.403   1.330
 2104TIP3   OH2 6256   6.773   2.137   2.180
 2104TIP3    H1 6257   6.752   2.064   2.238
 2104TIP3    H2 6258   6.742   2.109   2.094
 2105TIP3   OH2 6259   4.617   2.085   0.024
 2105TIP3    H1 6260   4.689   2.030  -0.007
 2105TIP3    H2 6261   4.660   2.161   0.063
 2106TIP3   OH2 6262   3.144   4.892   5.368
 2106TIP3    H1 6263   3.178   4.803   5.353
 2106TIP3    H2 6264   3.064   4.879   5.418
 2107TIP3   OH2 6265   1.686   1.908   2.697
 2107TIP3    H1 6266   1.769   1.881   2.660
 2107TIP3    H2 6267   1.667   1.844   2.765
 2108TIP3   OH2 6268   0.934   3.591   2.439
 2108TIP3    H1 6269   1.003   3.648   2.472
 2108TIP3    H2 6270   0.955   3.505   2.474
 2109TIP3   OH2 6271   4.214   4.282   1.928
 2109TIP3    H1 6272   4.240   4.214   1.991
 2109TIP3    H2 6273   4.268   4.265   1.851
 2110TIP3   OH2 6274   2.974   3.548   3.987
 2110TIP3    H1 6275   2.924   3.610   4.041
 2110TIP3    H2 6276   3.048   3.598   3.954
 2111TIP3   OH2 6277   5.098   5.274   4.769
 2111TIP3    H1 6278   5.117   5.185   4.797
 2111TIP3    H2 6279   5.165   5.293   4.703
 2112TIP3   OH2 6280   4.364   4.933   4.718
 2112TIP3    H1 6281   4.411   4.927   4.635
 2112TIP3    H2 6282   4.404   4.866   4.773
 2113TIP3   OH2 6283   4.388   0.118   0.303
 2113TIP3    H1 6284   4.332   0.101   0.227
 2113TIP3    H2 6285   4.327   0.151   0.370
 2114TIP3   OH2 6286   0.384   5.800   5.384
 2114TIP3    H1 6287   0.405   5.874   5.442
 2114TIP3    H2 6288   0.460   5.742   5.392
 2115TIP3   OH2 6289   4.360   4.595   6.449
 2115TIP3    H1 6290   4.355   4.504   6.476
 2115TIP3    H2 6291   4.449   4.622   6.473
 2116TIP3   OH2 6292   7.687   5.061   2.306
 2116TIP3    H1 6293   7.614   5.084   2.249
 2116TIP3    H2 6294   7.755   5.029   2.246
 2117TIP3   OH2 6295   3.079   4.092   1.877
 2117TIP3    H1 6296   3.064   4.187   1.880
 2117TIP3    H2 6297   3.033   4.058   1.954
 2118TIP3   OH2 6298   6.942   0.596   2.569
 2118TIP3    H1 6299   6.973   0.636   2.488
 2118TIP3    H2 6300   6.893   0.665   2.614
 2119TIP3   OH2 6301   2.074   5.090   2.289
 2119TIP3    H1 6302   1.987   5.077   2.328
 2119TIP3    H2 6303   2.090   5.183   2.299
 2120TIP3   OH2 6304   4.620   5.133   1.080
 2120TIP3    H1 6305   4.578   5.209   1.121
 2120TIP3    H2 6306   4.702   5.168   1.045
 2121TIP3   OH2 6307   6.912   7.635   4.376
 2121TIP3    H1 6308   6.816   7.630   4.378
 2121TIP3    H2 6309   6.941   7.546   4.391
 2122TIP3   OH2 6310   4.479   0.618   5.893
 2122TIP3    H1 6311   4.425   0.605   5.815
 2122TIP3    H2 6312   4.564   0.646   5.858
 2123TIP3   OH2 6313   6.423   6.016   4.811
 2123TIP3    H1 6314   6.398   6.056   4.895
 2123TIP3    H2 6315   6.421   5.922   4.829
 2124TIP3   OH2 6316   7.382   6.275   5.981
 2124TIP3    H1 6317   7.323   6.199   5.985
 2124TIP3    H2 6318   7.349   6.327   5.908
 2125TIP3   OH2 6319   1.630   2.982   5.861
 2125TIP3    H1 6320   1.560   3.018   5.915
 2125TIP3    H2 6321   1.632   2.889   5.883
 2126TIP3   OH2 6322   6.553   6.451   3.576
 2126TIP3    H1 6323   6.569   6.356   3.572
 2126TIP3    H2 6324   6.577   6.483   3.489
 2127TIP3   OH2 6325   8.064   4.446   3.756
 2127TIP3    H1 6326   8.126   4.509   3.720
 2127TIP3    H2 6327   8.045   4.386   3.684
 2128TIP3   OH2 6328   4.871   2.441   5.971
 2128TIP3    H1 6329   4.852   2.437   5.877
 2128TIP3    H2 6330   4.839   2.358   6.006
 2129TIP3   OH2 6331   7.520   6.879   6.593
 2129TIP3    H1 6332   7.477   6.937   6.656
 2129TIP3    H2 6333   7.551   6.937   6.524
 2130TIP3   OH2 6334   7.057   6.591   2.337
 2130TIP3    H1 6335   7.049   6.528   2.264
 2130TIP3    H2 6336   7.039   6.676   2.297
 2131TIP3   OH2 6337   5.292   3.811   3.732
 2131TIP3    H1 6338   5.350   3.746   3.773
 2131TIP3    H2 6339   5.284   3.881   3.797
 2132TIP3   OH2 6340   5.817   4.657   5.408
 2132TIP3    H1 6341   5.823   4.661   5.504
 2132TIP3    H2 6342   5.769   4.735   5.384
 2133TIP3   OH2 6343   4.528   6.312   0.574
 2133TIP3    H1 6344   4.557   6.377   0.511
 2133TIP3    H2 6345   4.441   6.285   0.544
 2134TIP3   OH2 6346   2.797   5.728   3.953
 2134TIP3    H1 6347   2.874   5.673   3.947
 2134TIP3    H2 6348   2.731   5.673   3.995
 2135TIP3   OH2 6349   8.050   3.429   2.350
 2135TIP3    H1 6350   8.029   3.450   2.441
 2135TIP3    H2 6351   8.051   3.333   2.347
 2136TIP3   OH2 6352   7.253   2.894   0.944
 2136TIP3    H1 6353   7.186   2.847   0.993
 2136TIP3    H2 6354   7.240   2.867   0.853
 2137TIP3   OH2 6355   4.927   2.987   1.002
 2137TIP3    H1 6356   5.020   2.962   0.995
 2137TIP3    H2 6357   4.922   3.073   0.962
 2138TIP3   OH2 6358   7.969   0.324   4.096
 2138TIP3    H1 6359   7.910   0.250   4.107
 2138TIP3    H2 6360   7.927   0.378   4.029
 2139TIP3   OH2 6361   2.091   5.298   5.798
 2139TIP3    H1 6362   2.079   5.251   5.716
 2139TIP3    H2 6363   2.075   5.390   5.776
 2140TIP3   OH2 6364   1.997   1.645   6.169
 2140TIP3    H1 6365   1.949   1.647   6.087
 2140TIP3    H2 6366   2.021   1.553   6.181
 2141TIP3   OH2 6367   0.726   6.749   1.580
 2141TIP3    H1 6368   0.637   6.745   1.616
 2141TIP3    H2 6369   0.777   6.797   1.646
 2142TIP3   OH2 6370   6.763   4.873   4.524
 2142TIP3    H1 6371   6.797   4.938   4.463
 2142TIP3    H2 6372   6.840   4.841   4.571
 2143TIP3   OH2 6373   1.280   2.843   5.024
 2143TIP3    H1 6374   1.240   2.784   5.089
 2143TIP3    H2 6375   1.343   2.894   5.075
 2144TIP3   OH2 6376   6.444   0.747   5.256
 2144TIP3    H1 6377   6.447   0.744   5.161
 2144TIP3    H2 6378   6.423   0.657   5.282
 2145TIP3   OH2 6379   1.533   4.700   4.702
 2145TIP3    H1 6380   1.451   4.742   4.675
 2145TIP3    H2 6381   1.515   4.606   4.697
 2146TIP3   OH2 6382   6.689   7.155   5.525
 2146TIP3    H1 6383   6.777   7.127   5.497
 2146TIP3    H2 6384   6.678   7.241   5.485
 2147TIP3   OH2 6385   1.840   2.009   0.954
 2147TIP3    H1 6386   1.769   1.960   0.912
 2147TIP3    H2 6387   1.920   1.976   0.913
 2148TIP3   OH2 6388   3.746   4.990   4.744
 2148TIP3    H1 6389   3.756   4.919   4.808
 2148TIP3    H2 6390   3.777   5.068   4.790
 2149TIP3   OH2 6391   1.630   2.879   3.719
 2149TIP3    H1 6392   1.649   2.843   3.806
 2149TIP3    H2 6393   1.700   2.845   3.663
 2150TIP3   OH2 6394   4.941   7.668   0.508
 2150TIP3    H1 6395   4.944   7.734   0.439
 2150TIP3    H2 6396   5.006   7.697   0.571
 2151TIP3   OH2 6397   7.662   5.164   2.698
 2151TIP3    H1 6398   7.742   5.188   2.651
 2151TIP3    H2 6399   7.612   5.110   2.636
 2152TIP3   OH2 6400   4.928   6.674   2.898
 2152TIP3    H1 6401   4.837   6.644   2.889
 2152TIP3    H2 6402   4.926   6.735   2.972
 2153TIP3   OH2 6403   6.351   1.638   0.472
 2153TIP3    H1 6404   6.315   1.680   0.394
 2153TIP3    H2 6405   6.275   1.611   0.523
 2154TIP3   OH2 6406   0.874   5.086   6.441
 2154TIP3    H1 6407   0.866   5.173   6.402
 2154TIP3    H2 6408   0.913   5.100   6.527
 2155TIP3   OH2 6409   4.761   5.601   1.594
 2155TIP3    H1 6410   4.725   5.617   1.682
 2155TIP3    H2 6411   4.842   5.552   1.610
 2156TIP3   OH2 6412   7.331   1.715   0.389
 2156TIP3    H1 6413   7.302   1.652   0.454
 2156TIP3    H2 6414   7.330   1.666   0.307
 2157TIP3   OH2 6415   3.815   1.679   5.038
 2157TIP3    H1 6416   3.800   1.682   4.943
 2157TIP3    H2 6417   3.904   1.647   5.047
 2158TIP3   OH2 6418   7.205   7.654   0.961
 2158TIP3    H1 6419   7.146   7.592   1.002
 2158TIP3    H2 6420   7.165   7.674   0.876
 2159TIP3   OH2 6421   6.595   4.900   5.033
 2159TIP3    H1 6422   6.532   4.964   5.067
 2159TIP3    H2 6423   6.654   4.951   4.978
 2160TIP3   OH2 6424   0.574   0.263   4.070
 2160TIP3    H1 6425   0.497   0.319   4.061
 2160TIP3    H2 6426   0.640   0.319   4.112
 2161TIP3   OH2 6427   4.205   1.626   0.909
 2161TIP3    H1 6428   4.112   1.646   0.905
 2161TIP3    H2 6429   4.209   1.542   0.956
 2162TIP3   OH2 6430   5.774   1.659   4.048
 2162TIP3    H1 6431   5.848   1.720   4.057
 2162TIP3    H2 6432   5.696   1.714   4.062
 2163TIP3   OH2 6433   8.019   4.926   5.705
 2163TIP3    H1 6434   8.023   4.833   5.686
 2163TIP3    H2 6435   8.109   4.957   5.690
 2164TIP3   OH2 6436   1.483   2.824   1.664
 2164TIP3    H1 6437   1.572   2.855   1.681
 2164TIP3    H2 6438   1.457   2.781   1.745
 2165TIP3   OH2 6439   6.923   0.255   0.794
 2165TIP3    H1 6440   6.895   0.189   0.731
 2165TIP3    H2 6441   6.916   0.338   0.747
 2166TIP3   OH2 6442   3.477   5.569   3.918
 2166TIP3    H1 6443   3.413   5.530   3.978
 2166TIP3    H2 6444   3.543   5.501   3.906
 2167TIP3   OH2 6445   8.319   0.448   5.306
 2167TIP3    H1 6446   8.312   0.528   5.359
 2167TIP3    H2 6447   8.228   0.419   5.295
 2168TIP3   OH2 6448   1.392   4.191   0.364
 2168TIP3    H1 6449   1.437   4.176   0.447
 2168TIP3    H2 6450   1.426   4.123   0.306
 2169TIP3   OH2 6451   5.950   1.078   6.688
 2169TIP3    H1 6452   6.028   1.023   6.690
 2169TIP3    H2 6453   5.978   1.159   6.645
 2170TIP3   OH2 6454   5.206   6.571   3.304
 2170TIP3    H1 6455   5.123   6.617   3.315
 2170TIP3    H2 6456   5.197   6.526   3.220
 2171TIP3   OH2 6457   3.111   1.209   5.518
 2171TIP3    H1 6458   3.193   1.204   5.468
 2171TIP3    H2 6459   3.062   1.132   5.492
 2172TIP3   OH2 6460   5.628   6.930   2.271
 2172TIP3    H1 6461   5.690   6.866   2.237
 2172TIP3    H2 6462   5.596   6.977   2.193
 2173TIP3   OH2 6463   6.957   1.039   6.245
 2173TIP3    H1 6464   6.875   1.012   6.204
 2173TIP3    H2 6465   7.025   1.009   6.184
 2174TIP3   OH2 6466   7.580   7.635   6.102
 2174TIP3    H1 6467   7.631   7.717   6.098
 2174TIP3    H2 6468   7.571   7.618   6.196
 2175TIP3   OH2 6469   5.155   3.730   5.447
 2175TIP3    H1 6470   5.189   3.806   5.401
 2175TIP3    H2 6471   5.213   3.658   5.420
 2176TIP3   OH2 6472   5.742   7.195   5.671
 2176TIP3    H1 6473   5.693   7.245   5.605
 2176TIP3    H2 6474   5.832   7.228   5.665
 2177TIP3   OH2 6475   3.386   5.237   3.874
 2177TIP3    H1 6476   3.414   5.152   3.842
 2177TIP3    H2 6477   3.389   5.294   3.798
 2178TIP3   OH2 6478   2.305   7.188   1.998
 2178TIP3    H1 6479   2.399   7.175   2.006
 2178TIP3    H2 6480   2.289   7.190   1.904
 2179TIP3   OH2 6481   5.080   0.178   4.820
 2179TIP3    H1 6482   5.066   0.162   4.914
 2179TIP3    H2 6483   5.156   0.123   4.798
 2180TIP3   OH2 6484   6.668   1.573   4.147
 2180TIP3    H1 6485   6.695   1.656   4.187
 2180TIP3    H2 6486   6.655   1.595   4.055
 2181TIP3   OH2 6487   2.495   1.713   3.202
 2181TIP3    H1 6488   2.558   1.679   3.266
 2181TIP3    H2 6489   2.414   1.724   3.252
 2182TIP3   OH2 6490   6.963   5.288   2.355
 2182TIP3    H1 6491   6.956   5.383   2.363
 2182TIP3    H2 6492   6.887   5.262   2.303
 2183TIP3   OH2 6493   1.739   0.596   5.228
 2183TIP3    H1 6494   1.743   0.681   5.273
 2183TIP3    H2 6495   1.702   0.616   5.142
 2184TIP3   OH2 6496   0.763   6.332   2.565
 2184TIP3    H1 6497   0.778   6.253   2.513
 2184TIP3    H2 6498   0.829   6.326   2.635
 2185TIP3   OH2 6499   4.058   5.074   3.893
 2185TIP3    H1 6500   4.029   4.984   3.879
 2185TIP3    H2 6501   4.011   5.103   3.972
 2186TIP3   OH2 6502   7.945   4.280   0.691
 2186TIP3    H1 6503   7.929   4.255   0.600
 2186TIP3    H2 6504   7.860   4.313   0.721
 2187TIP3   OH2 6505   2.768   1.693   4.424
 2187TIP3    H1 6506   2.805   1.605   4.432
 2187TIP3    H2 6507   2.674   1.680   4.434
 2188TIP3   OH2 6508   6.486   7.232   2.840
 2188TIP3    H1 6509   6.396   7.261   2.853
 2188TIP3    H2 6510   6.514   7.202   2.927
 2189TIP3   OH2 6511   3.430   7.259   5.438
 2189TIP3    H1 6512   3.443   7.352   5.421
 2189TIP3    H2 6513   3.515   7.228   5.469
 2190TIP3   OH2 6514   5.367   1.465   0.205
 2190TIP3    H1 6515   5.357   1.482   0.111
 2190TIP3    H2 6516   5.296   1.404   0.226
 2191TIP3   OH2 6517   3.718   3.800   2.451
 2191TIP3    H1 6518   3.684   3.808   2.362
 2191TIP3    H2 6519   3.741   3.707   2.460
 2192TIP3   OH2 6520   2.231   3.023   0.289
 2192TIP3    H1 6521   2.301   2.960   0.305
 2192TIP3    H2 6522   2.230   3.035   0.194
 2193TIP3   OH2 6523   7.573   6.545   5.051
 2193TIP3    H1 6524   7.553   6.630   5.090
 2193TIP3    H2 6525   7.620   6.567   4.970
 2194TIP3   OH2 6526   4.292   5.364   5.952
 2194TIP3    H1 6527   4.220   5.364   5.889
 2194TIP3    H2 6528   4.315   5.272   5.962
 2195TIP3   OH2 6529   0.043   0.663   5.519
 2195TIP3    H1 6530  -0.037   0.714   5.508
 2195TIP3    H2 6531   0.102   0.695   5.451
 2196TIP3   OH2 6532   3.255   1.502   1.945
 2196TIP3    H1 6533   3.274   1.591   1.916
 2196TIP3    H2 6534   3.281   1.502   2.038
 2197TIP3   OH2 6535   0.549   3.963   1.777
 2197TIP3    H1 6536   0.594   3.959   1.861
 2197TIP3    H2 6537   0.461   3.995   1.798
 2198TIP3   OH2 6538   6.941   6.275   6.800
 2198TIP3    H1 6539   6.864   6.306   6.752
 2198TIP3    H2 6540   6.949   6.183   6.775
 2199TIP3   OH2 6541   8.244   6.882   6.116
 2199TIP3    H1 6542   8.325   6.932   6.105
 2199TIP3    H2 6543   8.241   6.861   6.209
 2200TIP3   OH2 6544   1.767   4.458   4.834
 2200TIP3    H1 6545   1.793   4.546   4.858
 2200TIP3    H2 6546   1.846   4.405   4.843
 2201TIP3   OH2 6547   3.531   6.279   0.053
 2201TIP3    H1 6548   3.573   6.195   0.039
 2201TIP3    H2 6549   3.580   6.341  -0.001
 2202TIP3   OH2 6550   5.931   2.879   5.473
 2202TIP3    H1 6551   5.925   2.892   5.379
 2202TIP3    H2 6552   6.021   2.852   5.488
 2203TIP3   OH2 6553   4.787   2.410   1.684
 2203TIP3    H1 6554   4.772   2.434   1.776
 2203TIP3    H2 6555   4.768   2.316   1.681
 2204TIP3   OH2 6556   0.445   2.524   6.065
 2204TIP3    H1 6557   0.402   2.477   5.994
 2204TIP3    H2 6558   0.514   2.465   6.095
 2205TIP3   OH2 6559   3.418   6.196   1.019
 2205TIP3    H1 6560   3.409   6.150   1.103
 2205TIP3    H2 6561   3.501   6.164   0.984
 2206TIP3   OH2 6562   5.835   0.815   0.302
 2206TIP3    H1 6563   5.783   0.750   0.256
 2206TIP3    H2 6564   5.822   0.896   0.253
 2207TIP3   OH2 6565   0.303   0.259   0.417
 2207TIP3    H1 6566   0.235   0.196   0.392
 2207TIP3    H2 6567   0.308   0.319   0.342
 2208TIP3   OH2 6568   3.354   5.552   4.665
 2208TIP3    H1 6569   3.412   5.594   4.601
 2208TIP3    H2 6570   3.414   5.513   4.729
 2209TIP3   OH2 6571   7.793   7.686   4.773
 2209TIP3    H1 6572   7.717   7.685   4.714
 2209TIP3    H2 6573   7.867   7.704   4.716
 2210TIP3   OH2 6574   0.104   5.767   6.432
 2210TIP3    H1 6575   0.035   5.833   6.441
 2210TIP3    H2 6576   0.184   5.818   6.418
 2211TIP3   OH2 6577   7.480   7.145   3.451
 2211TIP3    H1 6578   7.468   7.054   3.423
 2211TIP3    H2 6579   7.565   7.170   3.414
 2212TIP3   OH2 6580   2.640   0.693   4.584
 2212TIP3    H1 6581   2.626   0.785   4.607
 2212TIP3    H2 6582   2.676   0.653   4.663
 2213TIP3   OH2 6583   1.803   3.834   2.121
 2213TIP3    H1 6584   1.817   3.900   2.053
 2213TIP3    H2 6585   1.890   3.812   2.152
 2214TIP3   OH2 6586   6.966   4.244   1.870
 2214TIP3    H1 6587   6.878   4.277   1.887
 2214TIP3    H2 6588   6.958   4.149   1.878
 2215TIP3   OH2 6589   3.169   6.046   6.218
 2215TIP3    H1 6590   3.201   5.989   6.148
 2215TIP3    H2 6591   3.242   6.054   6.279
 2216TIP3   OH2 6592   4.385   4.680   3.008
 2216TIP3    H1 6593   4.343   4.741   3.069
 2216TIP3    H2 6594   4.430   4.617   3.065
 2217TIP3   OH2 6595   7.818   1.523   4.216
 2217TIP3    H1 6596   7.805   1.614   4.242
 2217TIP3    H2 6597   7.731   1.492   4.191
 2218TIP3   OH2 6598   6.964   0.454   3.876
 2218TIP3    H1 6599   7.052   0.486   3.892
 2218TIP3    H2 6600   6.907   0.516   3.922
 2219TIP3   OH2 6601   5.236   7.725   0.334
 2219TIP3    H1 6602   5.315   7.715   0.282
 2219TIP3    H2 6603   5.173   7.665   0.295
 2220TIP3   OH2 6604   1.810   0.146   2.385
 2220TIP3    H1 6605   1.758   0.196   2.448
 2220TIP3    H2 6606   1.867   0.091   2.438
 2221TIP3   OH2 6607   0.597   7.776   0.708
 2221TIP3    H1 6608   0.540   7.770   0.631
 2221TIP3    H2 6609   0.667   7.836   0.681
 2222TIP3   OH2 6610   3.373   2.323   1.084
 2222TIP3    H1 6611   3.353   2.281   1.168
 2222TIP3    H2 6612   3.457   2.367   1.099
 2223TIP3   OH2 6613   3.472   5.604   0.685
 2223TIP3    H1 6614   3.471   5.524   0.632
 2223TIP3    H2 6615   3.563   5.631   0.686
 2224TIP3   OH2 6616   3.883   7.754   0.159
 2224TIP3    H1 6617   3.862   7.828   0.215
 2224TIP3    H2 6618   3.838   7.772   0.076
 2225TIP3   OH2 6619   3.117   5.424   5.612
 2225TIP3    H1 6620   3.107   5.331   5.634
 2225TIP3    H2 6621   3.169   5.460   5.684
 2226TIP3   OH2 6622   6.015   1.541   4.523
 2226TIP3    H1 6623   5.977   1.542   4.435
 2226TIP3    H2 6624   5.969   1.611   4.570
 2227TIP3   OH2 6625   6.746   6.883   3.970
 2227TIP3    H1 6626   6.824   6.831   3.953
 2227TIP3    H2 6627   6.774   6.974   3.959
 2228TIP3   OH2 6628   4.647   6.816   2.426
 2228TIP3    H1 6629   4.572   6.757   2.421
 2228TIP3    H2 6630   4.710   6.771   2.481
 2229TIP3   OH2 6631   1.434   1.483   5.759
 2229TIP3    H1 6632   1.442   1.404   5.813
 2229TIP3    H2 6633   1.412   1.450   5.672
 2230TIP3   OH2 6634   3.764   0.889   1.357
 2230TIP3    H1 6635   3.675   0.866   1.329
 2230TIP3    H2 6636   3.806   0.921   1.277
 2231TIP3   OH2 6637   1.487   6.571   4.475
 2231TIP3    H1 6638   1.418   6.511   4.501
 2231TIP3    H2 6639   1.566   6.536   4.517
 2232TIP3   OH2 6640   7.884   6.990   4.736
 2232TIP3    H1 6641   7.941   7.067   4.740
 2232TIP3    H2 6642   7.849   6.992   4.647
 2233TIP3   OH2 6643   5.830   1.328   0.355
 2233TIP3    H1 6644   5.777   1.396   0.313
 2233TIP3    H2 6645   5.914   1.332   0.310
 2234TIP3   OH2 6646   0.758   7.113   6.016
 2234TIP3    H1 6647   0.705   7.076   5.946
 2234TIP3    H2 6648   0.697   7.167   6.066
 2235TIP3   OH2 6649   1.801   5.377   3.710
 2235TIP3    H1 6650   1.865   5.362   3.640
 2235TIP3    H2 6651   1.841   5.338   3.788
 2236TIP3   OH2 6652   6.973   1.430   4.610
 2236TIP3    H1 6653   6.957   1.426   4.515
 2236TIP3    H2 6654   7.003   1.520   4.625
 2237TIP3   OH2 6655   7.445   5.517   2.758
 2237TIP3    H1 6656   7.436   5.611   2.739
 2237TIP3    H2 6657   7.397   5.504   2.840
 2238TIP3   OH2 6658   0.993   1.898   5.328
 2238TIP3    H1 6659   0.910   1.883   5.282
 2238TIP3    H2 6660   1.057   1.909   5.258
 2239TIP3   OH2 6661   0.137   1.898   4.848
 2239TIP3    H1 6662   0.083   1.900   4.769
 2239TIP3    H2 6663   0.094   1.959   4.908
 2240TIP3   OH2 6664   0.671   7.043   2.718
 2240TIP3    H1 6665   0.655   7.014   2.628
 2240TIP3    H2 6666   0.766   7.044   2.727
 2241TIP3   OH2 6667   7.954   5.680   0.789
 2241TIP3    H1 6668   7.899   5.624   0.844
 2241TIP3    H2 6669   8.022   5.712   0.849
 2242TIP3   OH2 6670   1.028   5.449   4.312
 2242TIP3    H1 6671   1.060   5.474   4.399
 2242TIP3    H2 6672   1.054   5.357   4.303
 2243TIP3   OH2 6673   5.693   1.835   0.195
 2243TIP3    H1 6674   5.599   1.828   0.209
 2243TIP3    H2 6675   5.715   1.924   0.224
 2244TIP3   OH2 6676   0.414   7.006   3.687
 2244TIP3    H1 6677   0.359   7.081   3.709
 2244TIP3    H2 6678   0.500   7.044   3.670
 2245TIP3   OH2 6679   7.013   1.078   3.727
 2245TIP3    H1 6680   6.966   1.158   3.751
 2245TIP3    H2 6681   7.017   1.028   3.808
 2246TIP3   OH2 6682   3.796   7.450   3.256
 2246TIP3    H1 6683   3.846   7.370   3.272
 2246TIP3    H2 6684   3.721   7.444   3.317
 2247TIP3   OH2 6685   2.992   6.524   1.593
 2247TIP3    H1 6686   2.953   6.573   1.665
 2247TIP3    H2 6687   3.002   6.588   1.522
 2248TIP3   OH2 6688   7.119   2.932   1.630
 2248TIP3    H1 6689   7.122   2.849   1.677
 2248TIP3    H2 6690   7.159   2.995   1.689
 2249TIP3   OH2 6691   3.107   4.293   3.962
 2249TIP3    H1 6692   3.129   4.384   3.940
 2249TIP3    H2 6693   3.086   4.253   3.878
 2250TIP3   OH2 6694   3.535   2.023   1.147
 2250TIP3    H1 6695   3.463   2.075   1.181
 2250TIP3    H2 6696   3.567   1.973   1.222
 2251TIP3   OH2 6697   0.371   1.083   1.254
 2251TIP3    H1 6698   0.340   1.044   1.335
 2251TIP3    H2 6699   0.290   1.105   1.206
 2252TIP3   OH2 6700   7.958   2.346   0.673
 2252TIP3    H1 6701   7.979   2.258   0.705
 2252TIP3    H2 6702   8.035   2.398   0.694
 2253TIP3   OH2 6703   7.757   5.591   1.629
 2253TIP3    H1 6704   7.804   5.516   1.591
 2253TIP3    H2 6705   7.753   5.571   1.723
 2254TIP3   OH2 6706   7.780   0.667   1.502
 2254TIP3    H1 6707   7.720   0.687   1.574
 2254TIP3    H2 6708   7.827   0.589   1.531
 2255TIP3   OH2 6709   6.136   0.357   6.079
 2255TIP3    H1 6710   6.200   0.401   6.023
 2255TIP3    H2 6711   6.068   0.422   6.093
 2256TIP3   OH2 6712   5.987   7.612   1.143
 2256TIP3    H1 6713   5.989   7.639   1.051
 2256TIP3    H2 6714   5.895   7.615   1.167
 2257TIP3   OH2 6715   6.671   0.776   0.964
 2257TIP3    H1 6716   6.658   0.793   0.871
 2257TIP3    H2 6717   6.684   0.682   0.969
 2258TIP3   OH2 6718   1.515   7.294   3.051
 2258TIP3    H1 6719   1.435   7.315   3.002
 2258TIP3    H2 6720   1.487   7.293   3.142
 2259TIP3   OH2 6721   2.108   1.244   1.433
 2259TIP3    H1 6722   2.143   1.157   1.412
 2259TIP3    H2 6723   2.013   1.229   1.443
 2260TIP3   OH2 6724   3.946   7.141   0.660
 2260TIP3    H1 6725   3.898   7.205   0.608
 2260TIP3    H2 6726   3.899   7.139   0.744
 2261TIP3   OH2 6727   1.047   4.197   5.320
 2261TIP3    H1 6728   0.971   4.236   5.277
 2261TIP3    H2 6729   1.062   4.251   5.398
 2262TIP3   OH2 6730   1.517   7.703   5.734
 2262TIP3    H1 6731   1.508   7.611   5.711
 2262TIP3    H2 6732   1.590   7.734   5.681
 2263TIP3   OH2 6733   0.066   7.211   5.150
 2263TIP3    H1 6734   0.011   7.277   5.109
 2263TIP3    H2 6735   0.152   7.224   5.111
 2264TIP3   OH2 6736   6.122   2.647   0.615
 2264TIP3    H1 6737   6.039   2.665   0.660
 2264TIP3    H2 6738   6.108   2.563   0.571
 2265TIP3   OH2 6739   7.921   6.474   3.349
 2265TIP3    H1 6740   7.885   6.473   3.261
 2265TIP3    H2 6741   7.877   6.401   3.394
 2266TIP3   OH2 6742   1.789   3.530   4.593
 2266TIP3    H1 6743   1.736   3.473   4.537
 2266TIP3    H2 6744   1.739   3.537   4.674
 2267TIP3   OH2 6745   2.157   6.764   3.617
 2267TIP3    H1 6746   2.124   6.688   3.665
 2267TIP3    H2 6747   2.078   6.815   3.597
 2268TIP3   OH2 6748   2.313   7.311   1.306
 2268TIP3    H1 6749   2.231   7.322   1.354
 2268TIP3    H2 6750   2.353   7.232   1.344
 2269TIP3   OH2 6751   5.991   1.702   0.925
 2269TIP3    H1 6752   6.045   1.664   0.994
 2269TIP3    H2 6753   5.964   1.628   0.871
 2270TIP3   OH2 6754   1.684   5.361   2.237
 2270TIP3    H1 6755   1.745   5.297   2.200
 2270TIP3    H2 6756   1.732   5.399   2.311
 2271TIP3   OH2 6757   6.434   5.516   3.852
 2271TIP3    H1 6758   6.445   5.426   3.883
 2271TIP3    H2 6759   6.339   5.527   3.843
 2272TIP3   OH2 6760   1.038   6.246   0.608
 2272TIP3    H1 6761   1.101   6.280   0.671
 2272TIP3    H2 6762   0.974   6.316   0.598
 2273TIP3   OH2 6763   2.726   6.410   6.488
 2273TIP3    H1 6764   2.736   6.321   6.454
 2273TIP3    H2 6765   2.766   6.408   6.574
 2274TIP3   OH2 6766   6.654   1.989   5.846
 2274TIP3    H1 6767   6.659   2.036   5.763
 2274TIP3    H2 6768   6.601   2.045   5.902
 2275TIP3   OH2 6769   4.813   2.881   2.097
 2275TIP3    H1 6770   4.724   2.856   2.071
 2275TIP3    H2 6771   4.804   2.971   2.129
 2276TIP3   OH2 6772   1.922   5.184   6.005
 2276TIP3    H1 6773   1.872   5.119   5.956
 2276TIP3    H2 6774   1.992   5.211   5.945
 2277TIP3   OH2 6775   2.529   6.449   2.351
 2277TIP3    H1 6776   2.576   6.393   2.289
 2277TIP3    H2 6777   2.445   6.405   2.365
 2278TIP3   OH2 6778   4.616   4.996   3.083
 2278TIP3    H1 6779   4.657   5.082   3.073
 2278TIP3    H2 6780   4.537   5.013   3.135
 2279TIP3   OH2 6781   4.743   4.975   0.768
 2279TIP3    H1 6782   4.681   4.949   0.836
 2279TIP3    H2 6783   4.688   5.000   0.694
 2280TIP3   OH2 6784   0.905   6.268   6.482
 2280TIP3    H1 6785   0.946   6.196   6.528
 2280TIP3    H2 6786   0.951   6.273   6.398
 2281TIP3   OH2 6787   4.346   4.667   5.146
 2281TIP3    H1 6788   4.425   4.719   5.159
 2281TIP3    H2 6789   4.364   4.585   5.193
 2282TIP3   OH2 6790   4.468   6.284   2.696
 2282TIP3    H1 6791   4.442   6.277   2.604
 2282TIP3    H2 6792   4.410   6.223   2.742
 2283TIP3   OH2 6793   0.629   5.275   3.410
 2283TIP3    H1 6794   0.714   5.257   3.451
 2283TIP3    H2 6795   0.642   5.256   3.317
 2284TIP3   OH2 6796   6.144   7.648   1.614
 2284TIP3    H1 6797   6.084   7.644   1.540
 2284TIP3    H2 6798   6.190   7.731   1.603
 2285TIP3   OH2 6799   1.475   6.099   1.539
 2285TIP3    H1 6800   1.453   6.192   1.548
 2285TIP3    H2 6801   1.391   6.054   1.534
 2286TIP3   OH2 6802   4.093   7.651   5.676
 2286TIP3    H1 6803   4.126   7.688   5.594
 2286TIP3    H2 6804   4.005   7.688   5.685
 2287TIP3   OH2 6805   7.719   1.277   1.711
 2287TIP3    H1 6806   7.686   1.245   1.627
 2287TIP3    H2 6807   7.714   1.372   1.704
 2288TIP3   OH2 6808   4.890   0.241   5.127
 2288TIP3    H1 6809   4.910   0.328   5.092
 2288TIP3    H2 6810   4.933   0.238   5.212
 2289TIP3   OH2 6811   3.911   6.175   4.478
 2289TIP3    H1 6812   3.956   6.246   4.431
 2289TIP3    H2 6813   3.939   6.095   4.433
 2290TIP3   OH2 6814   4.690   4.776   4.730
 2290TIP3    H1 6815   4.626   4.734   4.673
 2290TIP3    H2 6816   4.745   4.828   4.671
 2291TIP3   OH2 6817   8.178   5.761   3.797
 2291TIP3    H1 6818   8.204   5.853   3.807
 2291TIP3    H2 6819   8.165   5.729   3.886
 2292TIP3   OH2 6820   6.360   1.645   4.735
 2292TIP3    H1 6821   6.358   1.675   4.644
 2292TIP3    H2 6822   6.380   1.551   4.730
 2293TIP3   OH2 6823   1.288   3.703   1.718
 2293TIP3    H1 6824   1.383   3.711   1.717
 2293TIP3    H2 6825   1.261   3.713   1.626
 2294TIP3   OH2 6826   3.985   3.453   4.827
 2294TIP3    H1 6827   3.983   3.547   4.849
 2294TIP3    H2 6828   4.035   3.413   4.898
 2295TIP3   OH2 6829   5.998   4.272   0.876
 2295TIP3    H1 6830   6.023   4.212   0.946
 2295TIP3    H2 6831   6.066   4.262   0.810
 2296TIP3   OH2 6832   1.105   2.416   2.939
 2296TIP3    H1 6833   1.128   2.347   3.002
 2296TIP3    H2 6834   1.074   2.369   2.862
 2297TIP3   OH2 6835   5.731   5.529   0.526
 2297TIP3    H1 6836   5.722   5.447   0.476
 2297TIP3    H2 6837   5.822   5.530   0.554
 2298TIP3   OH2 6838   6.077   4.354   6.072
 2298TIP3    H1 6839   6.007   4.324   6.015
 2298TIP3    H2 6840   6.145   4.287   6.064
 2299TIP3   OH2 6841   2.389   6.246   3.412
 2299TIP3    H1 6842   2.484   6.258   3.414
 2299TIP3    H2 6843   2.358   6.286   3.494
 2300TIP3   OH2 6844   6.216   3.324   1.909
 2300TIP3    H1 6845   6.247   3.413   1.927
 2300TIP3    H2 6846   6.158   3.334   1.833
 2301TIP3   OH2 6847   2.924   4.416   3.537
 2301TIP3    H1 6848   2.935   4.508   3.564
 2301TIP3    H2 6849   3.008   4.375   3.559
 2302TIP3   OH2 6850   7.747   1.721   4.625
 2302TIP3    H1 6851   7.772   1.813   4.623
 2302TIP3    H2 6852   7.700   1.711   4.708
 2303TIP3   OH2 6853   6.556   6.627   2.934
 2303TIP3    H1 6854   6.613   6.702   2.952
 2303TIP3    H2 6855   6.500   6.655   2.862
 2304TIP3   OH2 6856   0.378   6.553   2.904
 2304TIP3    H1 6857   0.462   6.598   2.907
 2304TIP3    H2 6858   0.401   6.460   2.903
 2305TIP3   OH2 6859   0.056   1.837   0.066
 2305TIP3    H1 6860   0.041   1.763   0.125
 2305TIP3    H2 6861   0.015   1.911   0.109
 2306TIP3   OH2 6862   0.390   6.131   6.004
 2306TIP3    H1 6863   0.416   6.046   5.970
 2306TIP3    H2 6864   0.435   6.194   5.948
 2307TIP3   OH2 6865   3.227   3.366   0.388
 2307TIP3    H1 6866   3.267   3.280   0.372
 2307TIP3    H2 6867   3.299   3.428   0.376
 2308TIP3   OH2 6868   4.401   5.846   1.463
 2308TIP3    H1 6869   4.384   5.846   1.369
 2308TIP3    H2 6870   4.480   5.793   1.473
 2309TIP3   OH2 6871   3.114   5.380   3.647
 2309TIP3    H1 6872   3.170   5.445   3.605
 2309TIP3    H2 6873   3.029   5.423   3.655
 2310TIP3   OH2 6874   2.002   2.248   3.555
 2310TIP3    H1 6875   2.047   2.305   3.618
 2310TIP3    H2 6876   2.015   2.160   3.590
 2311TIP3   OH2 6877   1.360   5.868   3.527
 2311TIP3    H1 6878   1.389   5.790   3.480
 2311TIP3    H2 6879   1.377   5.849   3.619
 2312TIP3   OH2 6880   4.337   3.726   3.746
 2312TIP3    H1 6881   4.412   3.785   3.734
 2312TIP3    H2 6882   4.265   3.769   3.701
 2313TIP3   OH2 6883   4.669   6.921   2.086
 2313TIP3    H1 6884   4.725   6.974   2.143
 2313TIP3    H2 6885   4.723   6.902   2.009
 2314TIP3   OH2 6886   5.279   7.016   4.970
 2314TIP3    H1 6887   5.216   6.945   4.981
 2314TIP3    H2 6888   5.359   6.973   4.941
 2315TIP3   OH2 6889   3.878   7.575   1.594
 2315TIP3    H1 6890   3.909   7.623   1.517
 2315TIP3    H2 6891   3.798   7.532   1.565
 2316TIP3   OH2 6892   3.260   1.137   3.275
 2316TIP3    H1 6893   3.268   1.109   3.184
 2316TIP3    H2 6894   3.215   1.065   3.318
 2317TIP3   OH2 6895   1.756   1.986   0.028
 2317TIP3    H1 6896   1.836   2.011  -0.018
 2317TIP3    H2 6897   1.694   2.056   0.010
 2318TIP3   OH2 6898   7.866   4.260   5.237
 2318TIP3    H1 6899   7.844   4.167   5.229
 2318TIP3    H2 6900   7.851   4.281   5.329
 2319TIP3   OH2 6901   2.496   6.162   1.611
 2319TIP3    H1 6902   2.534   6.154   1.523
 2319TIP3    H2 6903   2.544   6.099   1.664
 2320TIP3   OH2 6904   0.742   5.962   4.572
 2320TIP3    H1 6905   0.674   5.897   4.555
 2320TIP3    H2 6906   0.814   5.937   4.515
 2321TIP3   OH2 6907   2.650   2.357   5.525
 2321TIP3    H1 6908   2.715   2.310   5.474
 2321TIP3    H2 6909   2.669   2.450   5.509
 2322TIP3   OH2 6910   7.858   2.674   4.331
 2322TIP3    H1 6911   7.941   2.712   4.359
 2322TIP3    H2 6912   7.798   2.691   4.404
 2323TIP3   OH2 6913   7.063   0.916   4.906
 2323TIP3    H1 6914   7.057   0.862   4.985
 2323TIP3    H2 6915   7.075   0.854   4.835
 2324TIP3   OH2 6916   6.809   5.917   6.434
 2324TIP3    H1 6917   6.735   5.881   6.385
 2324TIP3    H2 6918   6.806   5.872   6.518
 2325TIP3   OH2 6919   0.268   6.784   0.460
 2325TIP3    H1 6920   0.192   6.737   0.424
 2325TIP3    H2 6921   0.278   6.861   0.405
 2326TIP3   OH2 6922   0.170   4.451   4.691
 2326TIP3    H1 6923   0.113   4.527   4.679
 2326TIP3    H2 6924   0.121   4.392   4.748
 2327TIP3   OH2 6925   5.562   3.061   5.350
 2327TIP3    H1 6926   5.555   2.986   5.291
 2327TIP3    H2 6927   5.515   3.034   5.428
 2328TIP3   OH2 6928   2.407   2.633   6.737
 2328TIP3    H1 6929   2.384   2.566   6.673
 2328TIP3    H2 6930   2.414   2.586   6.820
 2329TIP3   OH2 6931   1.430   5.762   5.795
 2329TIP3    H1 6932   1.427   5.857   5.784
 2329TIP3    H2 6933   1.360   5.742   5.856
 2330TIP3   OH2 6934   5.793   2.985   2.123
 2330TIP3    H1 6935   5.710   2.969   2.169
 2330TIP3    H2 6936   5.829   2.898   2.108
 2331TIP3   OH2 6937   7.547   0.132   4.055
 2331TIP3    H1 6938   7.545   0.090   3.969
 2331TIP3    H2 6939   7.589   0.217   4.039
 2332TIP3   OH2 6940   8.137   3.147   5.220
 2332TIP3    H1 6941   8.143   3.056   5.248
 2332TIP3    H2 6942   8.120   3.196   5.300
 2333TIP3   OH2 6943   7.166   4.800   3.703
 2333TIP3    H1 6944   7.160   4.818   3.797
 2333TIP3    H2 6945   7.223   4.723   3.697
 2334TIP3   OH2 6946   1.692   2.197   2.351
 2334TIP3    H1 6947   1.630   2.266   2.375
 2334TIP3    H2 6948   1.775   2.242   2.339
 2335TIP3   OH2 6949   1.582   3.645   5.310
 2335TIP3    H1 6950   1.511   3.604   5.260
 2335TIP3    H2 6951   1.633   3.571   5.345
 2336TIP3   OH2 6952   1.431   1.905   1.053
 2336TIP3    H1 6953   1.381   1.960   0.993
 2336TIP3    H2 6954   1.463   1.833   0.998
 2337TIP3   OH2 6955   0.729   6.163   5.835
 2337TIP3    H1 6956   0.815   6.142   5.798
 2337TIP3    H2 6957   0.714   6.095   5.900
 2338TIP3   OH2 6958   6.908   1.570   3.843
 2338TIP3    H1 6959   6.944   1.618   3.769
 2338TIP3    H2 6960   6.984   1.539   3.891
 2339TIP3   OH2 6961   2.810   1.829   0.708
 2339TIP3    H1 6962   2.871   1.759   0.683
 2339TIP3    H2 6963   2.756   1.842   0.631
 2340TIP3   OH2 6964   3.474   5.856   0.981
 2340TIP3    H1 6965   3.453   5.785   1.042
 2340TIP3    H2 6966   3.389   5.884   0.947
 2341TIP3   OH2 6967   5.563   1.148   3.131
 2341TIP3    H1 6968   5.567   1.239   3.102
 2341TIP3    H2 6969   5.590   1.097   3.055
 2342TIP3   OH2 6970   2.927   4.322   0.571
 2342TIP3    H1 6971   2.983   4.386   0.528
 2342TIP3    H2 6972   2.850   4.372   0.598
 2343TIP3   OH2 6973   5.775   4.212   0.296
 2343TIP3    H1 6974   5.817   4.215   0.383
 2343TIP3    H2 6975   5.838   4.166   0.241
 2344TIP3   OH2 6976   0.722   6.126   4.119
 2344TIP3    H1 6977   0.791   6.075   4.076
 2344TIP3    H2 6978   0.762   6.156   4.201
 2345TIP3   OH2 6979   6.417   2.409   0.030
 2345TIP3    H1 6980   6.345   2.406  -0.034
 2345TIP3    H2 6981   6.496   2.401  -0.023
 2346TIP3   OH2 6982   6.744   3.330   4.159
 2346TIP3    H1 6983   6.675   3.368   4.106
 2346TIP3    H2 6984   6.818   3.321   4.099
 2347TIP3   OH2 6985   0.837   1.461   4.565
 2347TIP3    H1 6986   0.911   1.406   4.540
 2347TIP3    H2 6987   0.876   1.547   4.583
 2348TIP3   OH2 6988   4.860   3.317   4.778
 2348TIP3    H1 6989   4.952   3.327   4.803
 2348TIP3    H2 6990   4.838   3.227   4.802
 2349TIP3   OH2 6991   4.354   3.763   5.541
 2349TIP3    H1 6992   4.359   3.859   5.541
 2349TIP3    H2 6993   4.378   3.737   5.453
 2350TIP3   OH2 6994   2.008   3.973   6.622
 2350TIP3    H1 6995   2.027   4.047   6.680
 2350TIP3    H2 6996   1.997   3.898   6.681
 2351TIP3   OH2 6997   0.238   0.621   1.665
 2351TIP3    H1 6998   0.302   0.574   1.611
 2351TIP3    H2 6999   0.283   0.701   1.691
 2352TIP3   OH2 7000   8.131   3.861   5.938
 2352TIP3    H1 7001   8.173   3.862   6.024
 2352TIP3    H2 7002   8.182   3.921   5.885
 2353TIP3   OH2 7003   6.175   5.292   0.977
 2353TIP3    H1 7004   6.103   5.348   0.949
 2353TIP3    H2 7005   6.133   5.216   1.016
 2354TIP3   OH2 7006   0.511   0.938   2.456
 2354TIP3    H1 7007   0.542   1.024   2.487
 2354TIP3    H2 7008   0.430   0.958   2.408
 2355TIP3   OH2 7009   7.159   4.423   6.512
 2355TIP3    H1 7010   7.207   4.345   6.485
 2355TIP3    H2 7011   7.164   4.423   6.608
 2356TIP3   OH2 7012   0.793   6.917   6.244
 2356TIP3    H1 7013   0.789   6.986   6.178
 2356TIP3    H2 7014   0.830   6.842   6.197
 2357TIP3   OH2 7015   4.776   1.157   1.001
 2357TIP3    H1 7016   4.720   1.232   1.020
 2357TIP3    H2 7017   4.715   1.089   0.971
 2358TIP3   OH2 7018   5.045   0.171   3.559
 2358TIP3    H1 7019   5.124   0.208   3.519
 2358TIP3    H2 7020   4.973   0.218   3.516
 2359TIP3   OH2 7021   0.967   5.453   2.298
 2359TIP3    H1 7022   0.977   5.524   2.361
 2359TIP3    H2 7023   1.015   5.483   2.221
 2360TIP3   OH2 7024   7.072   1.662   5.891
 2360TIP3    H1 7025   7.121   1.672   5.973
 2360TIP3    H2 7026   7.098   1.737   5.838
 2361TIP3   OH2 7027   0.971   3.000   2.617
 2361TIP3    H1 7028   0.986   3.004   2.522
 2361TIP3    H2 7029   0.890   3.050   2.630
 2362TIP3   OH2 7030   1.699   0.445   1.736
 2362TIP3    H1 7031   1.723   0.371   1.791
 2362TIP3    H2 7032   1.757   0.440   1.661
 2363TIP3   OH2 7033   0.730   7.404   0.405
 2363TIP3    H1 7034   0.710   7.478   0.347
 2363TIP3    H2 7035   0.785   7.347   0.352
 2364TIP3   OH2 7036   3.442   5.565   2.427
 2364TIP3    H1 7037   3.426   5.508   2.352
 2364TIP3    H2 7038   3.365   5.621   2.433
 2365TIP3   OH2 7039   6.227   0.268   2.944
 2365TIP3    H1 7040   6.223   0.231   2.856
 2365TIP3    H2 7041   6.189   0.201   3.001
 2366TIP3   OH2 7042   2.655   2.333   6.668
 2366TIP3    H1 7043   2.635   2.312   6.759
 2366TIP3    H2 7044   2.669   2.428   6.668
 2367TIP3   OH2 7045   1.666   5.852   6.770
 2367TIP3    H1 7046   1.598   5.853   6.838
 2367TIP3    H2 7047   1.643   5.925   6.713
 2368TIP3   OH2 7048   0.823   5.632   1.581
 2368TIP3    H1 7049   0.856   5.544   1.595
 2368TIP3    H2 7050   0.766   5.650   1.656
 2369TIP3   OH2 7051   2.007   0.140   4.501
 2369TIP3    H1 7052   1.982   0.084   4.575
 2369TIP3    H2 7053   1.999   0.229   4.535
 2370TIP3   OH2 7054   6.665   2.731   2.540
 2370TIP3    H1 7055   6.666   2.729   2.636
 2370TIP3    H2 7056   6.756   2.715   2.516
 2371TIP3   OH2 7057   5.292   0.780   1.899
 2371TIP3    H1 7058   5.376   0.744   1.871
 2371TIP3    H2 7059   5.312   0.832   1.976
 2372TIP3   OH2 7060   5.731   5.242   1.885
 2372TIP3    H1 7061   5.698   5.331   1.896
 2372TIP3    H2 7062   5.691   5.192   1.955
 2373TIP3   OH2 7063   0.624   3.501   3.933
 2373TIP3    H1 7064   0.566   3.445   3.881
 2373TIP3    H2 7065   0.661   3.562   3.869
 2374TIP3   OH2 7066   0.340   2.950   6.219
 2374TIP3    H1 7067   0.382   2.916   6.140
 2374TIP3    H2 7068   0.249   2.923   6.212
 2375TIP3   OH2 7069   5.230   3.047   4.802
 2375TIP3    H1 7070   5.151   3.018   4.756
 2375TIP3    H2 7071   5.298   2.987   4.772
 2376TIP3   OH2 7072   3.298   2.992   3.098
 2376TIP3    H1 7073   3.247   3.020   3.174
 2376TIP3    H2 7074   3.359   2.927   3.134
 2377TIP3   OH2 7075   4.252   5.393   4.032
 2377TIP3    H1 7076   4.176   5.352   4.073
 2377TIP3    H2 7077   4.266   5.473   4.083
 2378TIP3   OH2 7078   3.256   6.076   4.106
 2378TIP3    H1 7079   3.291   6.003   4.055
 2378TIP3    H2 7080   3.220   6.136   4.040
 2379TIP3   OH2 7081   0.809   4.032   1.267
 2379TIP3    H1 7082   0.801   4.099   1.199
 2379TIP3    H2 7083   0.733   3.975   1.254
 2380TIP3   OH2 7084   4.126   2.648   5.472
 2380TIP3    H1 7085   4.143   2.582   5.539
 2380TIP3    H2 7086   4.043   2.687   5.498
 2381TIP3   OH2 7087   1.263   4.388   1.673
 2381TIP3    H1 7088   1.287   4.437   1.595
 2381TIP3    H2 7089   1.188   4.436   1.710
 2382TIP3   OH2 7090   3.853   2.765   3.483
 2382TIP3    H1 7091   3.939   2.745   3.446
 2382TIP3    H2 7092   3.815   2.680   3.505
 2383TIP3   OH2 7093   5.777   4.559   0.489
 2383TIP3    H1 7094   5.720   4.635   0.477
 2383TIP3    H2 7095   5.865   4.595   0.498
 2384TIP3   OH2 7096   2.199   5.295   1.498
 2384TIP3    H1 7097   2.241   5.343   1.426
 2384TIP3    H2 7098   2.198   5.357   1.571
 2385TIP3   OH2 7099   7.716   1.697   4.898
 2385TIP3    H1 7100   7.795   1.738   4.935
 2385TIP3    H2 7101   7.732   1.603   4.906
 2386TIP3   OH2 7102   5.496   4.362   2.079
 2386TIP3    H1 7103   5.508   4.327   2.168
 2386TIP3    H2 7104   5.407   4.338   2.056
 2387TIP3   OH2 7105   2.271   7.246   1.727
 2387TIP3    H1 7106   2.234   7.248   1.639
 2387TIP3    H2 7107   2.222   7.313   1.775
 2388TIP3   OH2 7108   7.097   1.808   1.491
 2388TIP3    H1 7109   7.010   1.798   1.531
 2388TIP3    H2 7110   7.080   1.802   1.397
 2389TIP3   OH2 7111   7.134   5.756   6.100
 2389TIP3    H1 7112   7.158   5.669   6.133
 2389TIP3    H2 7113   7.136   5.812   6.177
 2390TIP3   OH2 7114   3.619   2.239   4.448
 2390TIP3    H1 7115   3.563   2.310   4.481
 2390TIP3    H2 7116   3.559   2.169   4.426
 2391TIP3   OH2 7117   6.246   7.819   0.489
 2391TIP3    H1 7118   6.163   7.808   0.536
 2391TIP3    H2 7119   6.219   7.825   0.397
 2392TIP3   OH2 7120   7.097   1.937   4.776
 2392TIP3    H1 7121   7.009   1.972   4.788
 2392TIP3    H2 7122   7.103   1.918   4.682
 2393TIP3   OH2 7123   0.619   3.870   4.871
 2393TIP3    H1 7124   0.699   3.877   4.819
 2393TIP3    H2 7125   0.623   3.944   4.931
 2394TIP3   OH2 7126   3.776   2.518   5.104
 2394TIP3    H1 7127   3.753   2.510   5.012
 2394TIP3    H2 7128   3.867   2.489   5.109
 2395TIP3   OH2 7129   5.246   0.995   5.151
 2395TIP3    H1 7130   5.327   0.953   5.120
 2395TIP3    H2 7131   5.208   0.931   5.212
 2396TIP3   OH2 7132   2.404   5.655   4.662
 2396TIP3    H1 7133   2.379   5.747   4.654
 2396TIP3    H2 7134   2.456   5.637   4.584
 2397TIP3   OH2 7135   6.111   3.406   5.157
 2397TIP3    H1 7136   6.071   3.330   5.198
 2397TIP3    H2 7137   6.154   3.453   5.229
 2398TIP3   OH2 7138   5.810   1.797   5.073
 2398TIP3    H1 7139   5.807   1.723   5.133
 2398TIP3    H2 7140   5.759   1.769   4.997
 2399TIP3   OH2 7141   3.913   2.812   5.126
 2399TIP3    H1 7142   3.854   2.828   5.200
 2399TIP3    H2 7143   3.854   2.791   5.053
 2400TIP3   OH2 7144   0.991   6.311   3.624
 2400TIP3    H1 7145   1.033   6.392   3.594
 2400TIP3    H2 7146   1.056   6.243   3.608
 2401TIP3   OH2 7147   4.680   0.077   3.621
 2401TIP3    H1 7148   4.585   0.068   3.621
 2401TIP3    H2 7149   4.712  -0.006   3.656
 2402TIP3   OH2 7150   6.331   6.899   2.580
 2402TIP3    H1 7151   6.341   6.994   2.571
 2402TIP3    H2 7152   6.324   6.867   2.490
 2403TIP3   OH2 7153   1.999   7.129   1.845
 2403TIP3    H1 7154   2.060   7.057   1.826
 2403TIP3    H2 7155   1.935   7.091   1.904
 2404TIP3   OH2 7156   5.768   5.552   5.751
 2404TIP3    H1 7157   5.801   5.463   5.742
 2404TIP3    H2 7158   5.796   5.579   5.839
 2405TIP3   OH2 7159   4.594   1.689   2.226
 2405TIP3    H1 7160   4.641   1.606   2.230
 2405TIP3    H2 7161   4.614   1.732   2.309
 2406TIP3   OH2 7162   0.633   5.161   6.185
 2406TIP3    H1 7163   0.665   5.171   6.095
 2406TIP3    H2 7164   0.639   5.249   6.221
 2407TIP3   OH2 7165   0.440   1.989   1.984
 2407TIP3    H1 7166   0.461   1.951   2.070
 2407TIP3    H2 7167   0.354   1.955   1.963
 2408TIP3   OH2 7168   0.208   7.737   3.176
 2408TIP3    H1 7169   0.193   7.731   3.271
 2408TIP3    H2 7170   0.123   7.758   3.139
 2409TIP3   OH2 7171   0.227   5.039   6.183
 2409TIP3    H1 7172   0.302   4.987   6.156
 2409TIP3    H2 7173   0.231   5.039   6.279
 2410TIP3   OH2 7174   3.370   0.995   4.479
 2410TIP3    H1 7175   3.391   1.046   4.401
 2410TIP3    H2 7176   3.423   0.916   4.472
 2411TIP3   OH2 7177   4.235   6.228   1.238
 2411TIP3    H1 7178   4.286   6.292   1.189
 2411TIP3    H2 7179   4.300   6.183   1.293
 2412TIP3   OH2 7180   3.215   1.927   2.822
 2412TIP3    H1 7181   3.158   1.886   2.886
 2412TIP3    H2 7182   3.234   2.014   2.859
 2413TIP3   OH2 7183   7.321   5.347   4.619
 2413TIP3    H1 7184   7.282   5.293   4.550
 2413TIP3    H2 7185   7.253   5.410   4.642
 2414TIP3   OH2 7186   7.643   1.515   3.696
 2414TIP3    H1 7187   7.703   1.583   3.727
 2414TIP3    H2 7188   7.645   1.448   3.764
 2415TIP3   OH2 7189   2.527   7.695   2.208
 2415TIP3    H1 7190   2.574   7.619   2.244
 2415TIP3    H2 7191   2.596   7.750   2.170
 2416TIP3   OH2 7192   0.993   1.317   0.133
 2416TIP3    H1 7193   0.963   1.233   0.168
 2416TIP3    H2 7194   1.036   1.296   0.051
 2417TIP3   OH2 7195   3.072   5.615   0.154
 2417TIP3    H1 7196   3.126   5.612   0.075
 2417TIP3    H2 7197   3.057   5.524   0.177
 2418TIP3   OH2 7198   3.895   4.447   6.553
 2418TIP3    H1 7199   3.887   4.374   6.615
 2418TIP3    H2 7200   3.939   4.409   6.477
 2419TIP3   OH2 7201   4.588   6.825   6.375
 2419TIP3    H1 7202   4.549   6.777   6.301
 2419TIP3    H2 7203   4.647   6.888   6.334
 2420TIP3   OH2 7204   3.839   2.655   1.620
 2420TIP3    H1 7205   3.780   2.614   1.557
 2420TIP3    H2 7206   3.865   2.737   1.578
 2421TIP3   OH2 7207   4.021   2.924   5.772
 2421TIP3    H1 7208   4.101   2.974   5.754
 2421TIP3    H2 7209   3.971   2.980   5.831
 2422TIP3   OH2 7210   0.679   6.384   2.036
 2422TIP3    H1 7211   0.651   6.320   2.101
 2422TIP3    H2 7212   0.731   6.335   1.973
 2423TIP3   OH2 7213   7.351   4.664   0.014
 2423TIP3    H1 7214   7.326   4.619   0.095
 2423TIP3    H2 7215   7.267   4.680  -0.031
 2424TIP3   OH2 7216   1.706   3.355   6.227
 2424TIP3    H1 7217   1.795   3.348   6.193
 2424TIP3    H2 7218   1.684   3.267   6.258
 2425TIP3   OH2 7219   7.895   7.265   0.075
 2425TIP3    H1 7220   7.894   7.355   0.107
 2425TIP3    H2 7221   7.898   7.211   0.154
 2426TIP3   OH2 7222   6.140   7.322   4.492
 2426TIP3    H1 7223   6.215   7.320   4.433
 2426TIP3    H2 7224   6.114   7.414   4.496
 2427TIP3   OH2 7225   6.618   5.362   0.780
 2427TIP3    H1 7226   6.667   5.444   0.786
 2427TIP3    H2 7227   6.639   5.315   0.860
 2428TIP3   OH2 7228   4.519   6.981   0.364
 2428TIP3    H1 7229   4.547   7.061   0.320
 2428TIP3    H2 7230   4.514   6.916   0.294
 2429TIP3   OH2 7231   4.098   3.721   6.429
 2429TIP3    H1 7232   4.193   3.715   6.429
 2429TIP3    H2 7233   4.071   3.671   6.352
 2430TIP3   OH2 7234   4.848   3.796   6.105
 2430TIP3    H1 7235   4.774   3.735   6.104
 2430TIP3    H2 7236   4.861   3.820   6.013
 2431TIP3   OH2 7237   6.370   7.222   4.274
 2431TIP3    H1 7238   6.308   7.226   4.201
 2431TIP3    H2 7239   6.394   7.314   4.289
 2432TIP3   OH2 7240   1.741   2.750   0.293
 2432TIP3    H1 7241   1.819   2.724   0.244
 2432TIP3    H2 7242   1.681   2.677   0.284
 2433TIP3   OH2 7243   6.135   3.034   2.438
 2433TIP3    H1 7244   6.040   3.038   2.451
 2433TIP3    H2 7245   6.147   2.987   2.356
 2434TIP3   OH2 7246   7.898   6.303   2.944
 2434TIP3    H1 7247   7.991   6.320   2.928
 2434TIP3    H2 7248   7.871   6.373   3.003
 2435TIP3   OH2 7249   2.840   6.194   0.858
 2435TIP3    H1 7250   2.774   6.138   0.899
 2435TIP3    H2 7251   2.919   6.178   0.910
 2436TIP3   OH2 7252   6.120   2.260   4.551
 2436TIP3    H1 7253   6.167   2.343   4.561
 2436TIP3    H2 7254   6.098   2.255   4.458
 2437TIP3   OH2 7255   4.532   7.362   5.981
 2437TIP3    H1 7256   4.608   7.418   5.971
 2437TIP3    H2 7257   4.496   7.354   5.892
 2438TIP3   OH2 7258   6.240   7.161   2.516
 2438TIP3    H1 7259   6.298   7.234   2.494
 2438TIP3    H2 7260   6.197   7.139   2.433
 2439TIP3   OH2 7261   7.709   2.295   4.872
 2439TIP3    H1 7262   7.636   2.251   4.829
 2439TIP3    H2 7263   7.785   2.240   4.854
 2440TIP3   OH2 7264   7.030   2.623   5.927
 2440TIP3    H1 7265   7.118   2.647   5.954
 2440TIP3    H2 7266   7.018   2.665   5.842
 2441TIP3   OH2 7267   3.087   1.590   3.547
 2441TIP3    H1 7268   3.135   1.509   3.529
 2441TIP3    H2 7269   3.154   1.658   3.544
 2442TIP3   OH2 7270   1.417   0.867   3.211
 2442TIP3    H1 7271   1.480   0.855   3.282
 2442TIP3    H2 7272   1.384   0.956   3.224
 2443TIP3   OH2 7273   2.920   2.548   4.790
 2443TIP3    H1 7274   2.857   2.544   4.861
 2443TIP3    H2 7275   2.984   2.613   4.817
 2444TIP3   OH2 7276   6.743   6.659   0.677
 2444TIP3    H1 7277   6.647   6.656   0.675
 2444TIP3    H2 7278   6.763   6.750   0.697
 2445TIP3   OH2 7279   7.783   6.458   2.261
 2445TIP3    H1 7280   7.697   6.467   2.221
 2445TIP3    H2 7281   7.769   6.481   2.353
 2446TIP3   OH2 7282   4.540   1.551   0.872
 2446TIP3    H1 7283   4.473   1.495   0.911
 2446TIP3    H2 7284   4.533   1.536   0.778
 2447TIP3   OH2 7285   6.193   0.394   0.164
 2447TIP3    H1 7286   6.116   0.382   0.109
 2447TIP3    H2 7287   6.245   0.461   0.119
 2448TIP3   OH2 7288   5.835   3.119   0.314
 2448TIP3    H1 7289   5.851   3.093   0.405
 2448TIP3    H2 7290   5.906   3.078   0.265
 2449TIP3   OH2 7291   4.365   7.413   0.808
 2449TIP3    H1 7292   4.270   7.408   0.819
 2449TIP3    H2 7293   4.383   7.357   0.733
 2450TIP3   OH2 7294   7.504   4.525   5.752
 2450TIP3    H1 7295   7.483   4.614   5.724
 2450TIP3    H2 7296   7.548   4.536   5.836
 2451TIP3   OH2 7297   5.818   3.412   2.793
 2451TIP3    H1 7298   5.803   3.393   2.886
 2451TIP3    H2 7299   5.863   3.497   2.793
 2452TIP3   OH2 7300   3.117   6.325   6.326
 2452TIP3    H1 7301   3.156   6.248   6.285
 2452TIP3    H2 7302   3.102   6.299   6.417
 2453TIP3   OH2 7303   6.699   6.381   0.202
 2453TIP3    H1 7304   6.706   6.468   0.164
 2453TIP3    H2 7305   6.750   6.386   0.283
 2454TIP3   OH2 7306   1.408   3.315   4.626
 2454TIP3    H1 7307   1.350   3.260   4.679
 2454TIP3    H2 7308   1.399   3.403   4.664
 2455TIP3   OH2 7309   2.949   2.540   0.548
 2455TIP3    H1 7310   2.898   2.599   0.603
 2455TIP3    H2 7311   2.897   2.461   0.543
 2456TIP3   OH2 7312   5.310   4.337   4.625
 2456TIP3    H1 7313   5.256   4.285   4.567
 2456TIP3    H2 7314   5.248   4.378   4.686
 2457TIP3   OH2 7315   4.276   1.348   2.619
 2457TIP3    H1 7316   4.286   1.411   2.690
 2457TIP3    H2 7317   4.345   1.284   2.634
 2458TIP3   OH2 7318   5.111   6.314   3.957
 2458TIP3    H1 7319   5.193   6.265   3.946
 2458TIP3    H2 7320   5.048   6.250   3.989
 2459TIP3   OH2 7321   7.492   4.782   1.839
 2459TIP3    H1 7322   7.449   4.712   1.888
 2459TIP3    H2 7323   7.504   4.746   1.751
 2460TIP3   OH2 7324   1.094   5.547   1.272
 2460TIP3    H1 7325   1.112   5.611   1.204
 2460TIP3    H2 7326   1.176   5.498   1.283
 2461TIP3   OH2 7327   2.610   3.445   2.796
 2461TIP3    H1 7328   2.596   3.538   2.814
 2461TIP3    H2 7329   2.660   3.413   2.871
 2462TIP3   OH2 7330   3.654   4.149   3.268
 2462TIP3    H1 7331   3.575   4.101   3.292
 2462TIP3    H2 7332   3.725   4.105   3.316
 2463TIP3   OH2 7333   4.105   1.055   1.232
 2463TIP3    H1 7334   4.198   1.057   1.209
 2463TIP3    H2 7335   4.084   1.146   1.255
 2464TIP3   OH2 7336   5.089   7.331   4.933
 2464TIP3    H1 7337   5.124   7.417   4.911
 2464TIP3    H2 7338   5.167   7.275   4.940
 2465TIP3   OH2 7339   5.750   7.445   2.843
 2465TIP3    H1 7340   5.661   7.418   2.866
 2465TIP3    H2 7341   5.739   7.503   2.768
 2466TIP3   OH2 7342   2.904   6.921   5.275
 2466TIP3    H1 7343   2.884   6.909   5.183
 2466TIP3    H2 7344   2.821   6.950   5.314
 2467TIP3   OH2 7345   5.891   2.906   5.214
 2467TIP3    H1 7346   5.849   2.976   5.165
 2467TIP3    H2 7347   5.964   2.879   5.158
 2468TIP3   OH2 7348   6.753   6.720   1.952
 2468TIP3    H1 7349   6.688   6.679   1.896
 2468TIP3    H2 7350   6.752   6.813   1.928
 2469TIP3   OH2 7351   4.848   3.136   0.282
 2469TIP3    H1 7352   4.847   3.116   0.375
 2469TIP3    H2 7353   4.857   3.231   0.278
 2470TIP3   OH2 7354   2.266   2.104   4.334
 2470TIP3    H1 7355   2.190   2.085   4.280
 2470TIP3    H2 7356   2.232   2.157   4.406
 2471TIP3   OH2 7357   2.956   1.856   5.096
 2471TIP3    H1 7358   2.895   1.800   5.145
 2471TIP3    H2 7359   2.900   1.905   5.036
 2472TIP3   OH2 7360   2.088   7.505   6.669
 2472TIP3    H1 7361   2.178   7.500   6.701
 2472TIP3    H2 7362   2.093   7.473   6.579
 2473TIP3   OH2 7363   0.925   1.155   2.169
 2473TIP3    H1 7364   0.919   1.150   2.264
 2473TIP3    H2 7365   0.834   1.148   2.139
 2474TIP3   OH2 7366   4.654   1.984   4.786
 2474TIP3    H1 7367   4.572   1.991   4.736
 2474TIP3    H2 7368   4.697   2.068   4.772
 2475TIP3   OH2 7369   6.582   3.235   0.389
 2475TIP3    H1 7370   6.488   3.219   0.386
 2475TIP3    H2 7371   6.598   3.296   0.317
 2476TIP3   OH2 7372   2.683   5.986   3.526
 2476TIP3    H1 7373   2.734   5.920   3.572
 2476TIP3    H2 7374   2.598   5.945   3.511
 2477TIP3   OH2 7375   0.884   5.023   2.213
 2477TIP3    H1 7376   0.946   4.995   2.281
 2477TIP3    H2 7377   0.800   4.989   2.243
 2478TIP3   OH2 7378   7.925   1.409   6.553
 2478TIP3    H1 7379   7.954   1.462   6.479
 2478TIP3    H2 7380   7.957   1.321   6.533
 2479TIP3   OH2 7381   4.352   7.090   4.368
 2479TIP3    H1 7382   4.391   7.065   4.284
 2479TIP3    H2 7383   4.269   7.132   4.344
 2480TIP3   OH2 7384   0.021   2.364   4.155
 2480TIP3    H1 7385   0.042   2.454   4.130
 2480TIP3    H2 7386   0.047   2.358   4.247
 2481TIP3   OH2 7387   2.606   3.317   3.726
 2481TIP3    H1 7388   2.655   3.255   3.671
 2481TIP3    H2 7389   2.533   3.265   3.760
 2482TIP3   OH2 7390   0.785   5.658   0.387
 2482TIP3    H1 7391   0.760   5.625   0.301
 2482TIP3    H2 7392   0.850   5.594   0.419
 2483TIP3   OH2 7393   4.969   2.198   2.045
 2483TIP3    H1 7394   5.035   2.175   1.980
 2483TIP3    H2 7395   4.971   2.294   2.048
 2484TIP3   OH2 7396   6.831   5.959   0.476
 2484TIP3    H1 7397   6.907   5.903   0.456
 2484TIP3    H2 7398   6.848   6.041   0.428
 2485TIP3   OH2 7399   6.277   1.026   0.792
 2485TIP3    H1 7400   6.220   0.953   0.768
 2485TIP3    H2 7401   6.297   1.011   0.885
 2486TIP3   OH2 7402   0.293   5.492   6.088
 2486TIP3    H1 7403   0.294   5.587   6.094
 2486TIP3    H2 7404   0.385   5.467   6.077
 2487TIP3   OH2 7405   6.672   1.700   2.893
 2487TIP3    H1 7406   6.694   1.736   2.979
 2487TIP3    H2 7407   6.651   1.608   2.910
 2488TIP3   OH2 7408   1.003   5.594   3.353
 2488TIP3    H1 7409   1.027   5.502   3.339
 2488TIP3    H2 7410   0.949   5.593   3.432
 2489TIP3   OH2 7411   4.355   2.066   5.475
 2489TIP3    H1 7412   4.293   2.136   5.456
 2489TIP3    H2 7413   4.322   2.025   5.555
 2490TIP3   OH2 7414   5.234   7.028   1.980
 2490TIP3    H1 7415   5.226   6.941   1.940
 2490TIP3    H2 7416   5.168   7.081   1.936
 2491TIP3   OH2 7417   5.650   7.152   6.669
 2491TIP3    H1 7418   5.690   7.082   6.617
 2491TIP3    H2 7419   5.568   7.171   6.623
 2492TIP3   OH2 7420   7.816   1.695   0.506
 2492TIP3    H1 7421   7.795   1.758   0.575
 2492TIP3    H2 7422   7.734   1.683   0.458
 2493TIP3   OH2 7423   1.170   3.339   3.799
 2493TIP3    H1 7424   1.220   3.421   3.807
 2493TIP3    H2 7425   1.121   3.348   3.718
 2494TIP3   OH2 7426   3.996   1.237   5.715
 2494TIP3    H1 7427   4.042   1.247   5.631
 2494TIP3    H2 7428   3.931   1.307   5.714
 2495TIP3   OH2 7429   2.492   7.642   2.505
 2495TIP3    H1 7430   2.407   7.608   2.531
 2495TIP3    H2 7431   2.551   7.568   2.514
 2496TIP3   OH2 7432   2.803   3.963   1.311
 2496TIP3    H1 7433   2.862   3.992   1.241
 2496TIP3    H2 7434   2.730   4.024   1.308
 2497TIP3   OH2 7435   7.185   5.976   2.303
 2497TIP3    H1 7436   7.263   5.929   2.333
 2497TIP3    H2 7437   7.190   6.061   2.348
 2498TIP3   OH2 7438   7.779   6.494   5.280
 2498TIP3    H1 7439   7.715   6.492   5.209
 2498TIP3    H2 7440   7.740   6.439   5.348
 2499TIP3   OH2 7441   7.040   7.824   5.656
 2499TIP3    H1 7442   7.072   7.745   5.700
 2499TIP3    H2 7443   7.039   7.800   5.563
 2500TIP3   OH2 7444   4.754   6.460   2.933
 2500TIP3    H1 7445   4.785   6.372   2.913
 2500TIP3    H2 7446   4.715   6.453   3.021
 2501TIP3   OH2 7447   7.146   7.632   5.865
 2501TIP3    H1 7448   7.134   7.565   5.933
 2501TIP3    H2 7449   7.239   7.652   5.866
 2502TIP3   OH2 7450   4.377   1.744   4.630
 2502TIP3    H1 7451   4.376   1.774   4.721
 2502TIP3    H2 7452   4.454   1.687   4.625
 2503TIP3   OH2 7453   8.021   3.249   3.417
 2503TIP3    H1 7454   8.077   3.191   3.468
 2503TIP3    H2 7455   8.054   3.337   3.436
 2504TIP3   OH2 7456   2.541   5.676   6.525
 2504TIP3    H1 7457   2.456   5.633   6.515
 2504TIP3    H2 7458   2.531   5.758   6.476
 2505TIP3   OH2 7459   1.024   5.512   3.995
 2505TIP3    H1 7460   0.940   5.548   3.967
 2505TIP3    H2 7461   1.074   5.501   3.915
 2506TIP3   OH2 7462   2.334   3.345   6.711
 2506TIP3    H1 7463   2.328   3.262   6.758
 2506TIP3    H2 7464   2.419   3.380   6.735
 2507TIP3   OH2 7465   3.647   2.163   3.281
 2507TIP3    H1 7466   3.587   2.128   3.348
 2507TIP3    H2 7467   3.730   2.118   3.299
 2508TIP3   OH2 7468   6.576   2.780   6.723
 2508TIP3    H1 7469   6.530   2.825   6.652
 2508TIP3    H2 7470   6.592   2.692   6.689
 2509TIP3   OH2 7471   2.429   1.925   5.259
 2509TIP3    H1 7472   2.489   1.997   5.279
 2509TIP3    H2 7473   2.445   1.862   5.329
 2510TIP3   OH2 7474   1.938   6.494   6.190
 2510TIP3    H1 7475   2.008   6.501   6.126
 2510TIP3    H2 7476   1.857   6.506   6.140
 2511TIP3   OH2 7477   2.856   2.964   6.258
 2511TIP3    H1 7478   2.799   2.893   6.285
 2511TIP3    H2 7479   2.826   3.040   6.309
 2512TIP3   OH2 7480   4.235   5.041   0.948
 2512TIP3    H1 7481   4.168   5.007   1.008
 2512TIP3    H2 7482   4.232   5.136   0.960
 2513TIP3   OH2 7483   7.780   4.257   2.506
 2513TIP3    H1 7484   7.686   4.246   2.490
 2513TIP3    H2 7485   7.808   4.174   2.542
 2514TIP3   OH2 7486   5.473   4.717   3.620
 2514TIP3    H1 7487   5.508   4.631   3.642
 2514TIP3    H2 7488   5.521   4.743   3.541
 2515TIP3   OH2 7489   5.854   4.440   3.546
 2515TIP3    H1 7490   5.838   4.505   3.479
 2515TIP3    H2 7491   5.942   4.460   3.579
 2516TIP3   OH2 7492   5.969   1.459   5.044
 2516TIP3    H1 7493   6.006   1.455   4.955
 2516TIP3    H2 7494   5.919   1.377   5.052
 2517TIP3   OH2 7495   2.104   5.340   2.199
 2517TIP3    H1 7496   2.125   5.431   2.221
 2517TIP3    H2 7497   2.177   5.311   2.144
 2518TIP3   OH2 7498   1.761   6.253   0.253
 2518TIP3    H1 7499   1.698   6.187   0.225
 2518TIP3    H2 7500   1.772   6.237   0.347
 2519TIP3   OH2 7501   7.727   4.833   3.387
 2519TIP3    H1 7502   7.802   4.888   3.362
 2519TIP3    H2 7503   7.721   4.845   3.482
 2520TIP3   OH2 7504   6.236   5.529   3.240
 2520TIP3    H1 7505   6.211   5.437   3.243
 2520TIP3    H2 7506   6.244   5.549   3.147
 2521TIP3   OH2 7507   3.758   0.167   5.991
 2521TIP3    H1 7508   3.744   0.212   6.074
 2521TIP3    H2 7509   3.729   0.077   6.008
 2522TIP3   OH2 7510   5.796   0.189   1.795
 2522TIP3    H1 7511   5.737   0.124   1.834
 2522TIP3    H2 7512   5.882   0.149   1.799
 2523TIP3   OH2 7513   0.536   5.450   6.423
 2523TIP3    H1 7514   0.448   5.438   6.387
 2523TIP3    H2 7515   0.534   5.536   6.464
 2524TIP3   OH2 7516   2.391   0.154   5.759
 2524TIP3    H1 7517   2.367   0.062   5.746
 2524TIP3    H2 7518   2.483   0.151   5.786
 2525TIP3   OH2 7519   4.048   6.298   1.873
 2525TIP3    H1 7520   4.060   6.221   1.929
 2525TIP3    H2 7521   4.017   6.262   1.790
 2526TIP3   OH2 7522   3.511   4.772   2.186
 2526TIP3    H1 7523   3.529   4.719   2.108
 2526TIP3    H2 7524   3.586   4.756   2.243
 2527TIP3   OH2 7525   0.359   1.549   3.745
 2527TIP3    H1 7526   0.298   1.615   3.712
 2527TIP3    H2 7527   0.304   1.479   3.779
 2528TIP3   OH2 7528   3.509   6.545   3.113
 2528TIP3    H1 7529   3.532   6.480   3.046
 2528TIP3    H2 7530   3.551   6.512   3.193
 2529TIP3   OH2 7531   4.959   0.827   1.556
 2529TIP3    H1 7532   4.895   0.845   1.625
 2529TIP3    H2 7533   5.044   0.840   1.599
 2530TIP3   OH2 7534   1.010   7.027   1.587
 2530TIP3    H1 7535   0.926   7.052   1.548
 2530TIP3    H2 7536   1.036   6.948   1.539
 2531TIP3   OH2 7537   5.333   0.768   0.761
 2531TIP3    H1 7538   5.259   0.723   0.802
 2531TIP3    H2 7539   5.293   0.834   0.705
 2532TIP3   OH2 7540   5.062   6.226   1.357
 2532TIP3    H1 7541   4.975   6.188   1.364
 2532TIP3    H2 7542   5.047   6.317   1.330
 2533TIP3   OH2 7543   5.803   4.726  -0.021
 2533TIP3    H1 7544   5.734   4.730   0.046
 2533TIP3    H2 7545   5.843   4.813  -0.019
 2534TIP3   OH2 7546   7.427   2.575   4.791
 2534TIP3    H1 7547   7.375   2.650   4.818
 2534TIP3    H2 7548   7.434   2.583   4.696
 2535TIP3   OH2 7549   7.850   3.784   0.470
 2535TIP3    H1 7550   7.769   3.835   0.464
 2535TIP3    H2 7551   7.851   3.751   0.560
 2536TIP3   OH2 7552   1.596   2.484   3.948
 2536TIP3    H1 7553   1.526   2.482   3.883
 2536TIP3    H2 7554   1.674   2.455   3.900
 2537TIP3   OH2 7555   7.452   4.303   3.004
 2537TIP3    H1 7556   7.378   4.287   2.946
 2537TIP3    H2 7557   7.417   4.360   3.073
 2538TIP3   OH2 7558   2.422   4.655   2.994
 2538TIP3    H1 7559   2.421   4.686   3.085
 2538TIP3    H2 7560   2.357   4.585   2.992
 2539TIP3   OH2 7561   7.536   1.884   6.355
 2539TIP3    H1 7562   7.480   1.933   6.415
 2539TIP3    H2 7563   7.475   1.842   6.294
 2540TIP3   OH2 7564   5.100   3.522   1.375
 2540TIP3    H1 7565   5.051   3.604   1.371
 2540TIP3    H2 7566   5.156   3.523   1.297
 2541TIP3   OH2 7567   2.349   6.743   0.851
 2541TIP3    H1 7568   2.417   6.686   0.816
 2541TIP3    H2 7569   2.331   6.710   0.939
 2542TIP3   OH2 7570   6.678   0.483   4.424
 2542TIP3    H1 7571   6.716   0.511   4.507
 2542TIP3    H2 7572   6.596   0.532   4.417
 2543TIP3   OH2 7573   4.247   0.430   2.528
 2543TIP3    H1 7574   4.220   0.391   2.445
 2543TIP3    H2 7575   4.285   0.515   2.504
 2544TIP3   OH2 7576   1.196   6.133   3.196
 2544TIP3    H1 7577   1.241   6.163   3.274
 2544TIP3    H2 7578   1.234   6.047   3.178
 2545TIP3   OH2 7579   4.594   0.055   2.787
 2545TIP3    H1 7580   4.573   0.124   2.851
 2545TIP3    H2 7581   4.632   0.102   2.713
 2546TIP3   OH2 7582   5.377   0.511   0.987
 2546TIP3    H1 7583   5.319   0.551   0.922
 2546TIP3    H2 7584   5.424   0.443   0.938
 2547TIP3   OH2 7585   6.082   2.438   0.425
 2547TIP3    H1 7586   6.159   2.425   0.370
 2547TIP3    H2 7587   6.017   2.477   0.367
 2548TIP3   OH2 7588   4.901   6.851   6.551
 2548TIP3    H1 7589   4.951   6.881   6.627
 2548TIP3    H2 7590   4.817   6.897   6.558
 2549TIP3   OH2 7591   3.966   4.776   2.543
 2549TIP3    H1 7592   3.993   4.846   2.603
 2549TIP3    H2 7593   4.049   4.734   2.517
 2550TIP3   OH2 7594   7.544   0.926   5.399
 2550TIP3    H1 7595   7.516   0.835   5.405
 2550TIP3    H2 7596   7.639   0.922   5.391
 2551TIP3   OH2 7597   4.495   4.874   4.476
 2551TIP3    H1 7598   4.528   4.962   4.455
 2551TIP3    H2 7599   4.571   4.816   4.464
 2552TIP3   OH2 7600   4.195   7.370   2.424
 2552TIP3    H1 7601   4.217   7.454   2.464
 2552TIP3    H2 7602   4.117   7.388   2.371
 2553TIP3   OH2 7603   6.086   1.297   4.453
 2553TIP3    H1 7604   6.141   1.261   4.523
 2553TIP3    H2 7605   6.046   1.375   4.492
 2554TIP3   OH2 7606   0.624   7.392   3.852
 2554TIP3    H1 7607   0.583   7.476   3.875
 2554TIP3    H2 7608   0.629   7.344   3.935
 2555TIP3   OH2 7609   5.155   0.710   4.689
 2555TIP3    H1 7610   5.116   0.797   4.698
 2555TIP3    H2 7611   5.119   0.660   4.763
 2556TIP3   OH2 7612   5.195   1.321   6.525
 2556TIP3    H1 7613   5.250   1.336   6.448
 2556TIP3    H2 7614   5.212   1.396   6.582
 2557TIP3   OH2 7615   3.024   1.779   2.979
 2557TIP3    H1 7616   2.962   1.844   3.012
 2557TIP3    H2 7617   3.077   1.756   3.055
 2558TIP3   OH2 7618   8.253   1.593   5.973
 2558TIP3    H1 7619   8.299   1.524   5.925
 2558TIP3    H2 7620   8.196   1.634   5.908
 2559TIP3   OH2 7621   6.995   0.922   3.976
 2559TIP3    H1 7622   6.976   0.986   4.045
 2559TIP3    H2 7623   6.951   0.842   4.005
 2560TIP3   OH2 7624   7.052   2.399   5.725
 2560TIP3    H1 7625   7.069   2.463   5.794
 2560TIP3    H2 7626   7.108   2.427   5.653
 2561TIP3   OH2 7627   4.485   5.369   3.617
 2561TIP3    H1 7628   4.486   5.450   3.566
 2561TIP3    H2 7629   4.434   5.391   3.695
 2562TIP3   OH2 7630   8.004   4.528   6.110
 2562TIP3    H1 7631   7.963   4.584   6.044
 2562TIP3    H2 7632   7.932   4.483   6.153
 2563TIP3   OH2 7633   1.955   3.561   5.081
 2563TIP3    H1 7634   1.972   3.470   5.108
 2563TIP3    H2 7635   2.039   3.592   5.047
 2564TIP3   OH2 7636   4.555   4.249   5.347
 2564TIP3    H1 7637   4.623   4.204   5.297
 2564TIP3    H2 7638   4.581   4.237   5.439
 2565TIP3   OH2 7639   4.137   3.865   0.689
 2565TIP3    H1 7640   4.087   3.935   0.648
 2565TIP3    H2 7641   4.219   3.906   0.715
 2566TIP3   OH2 7642   2.719   3.131   1.572
 2566TIP3    H1 7643   2.795   3.092   1.529
 2566TIP3    H2 7644   2.741   3.224   1.581
 2567TIP3   OH2 7645   6.263   6.871   2.272
 2567TIP3    H1 7646   6.184   6.916   2.301
 2567TIP3    H2 7647   6.237   6.780   2.264
 2568TIP3   OH2 7648   5.572   2.469   1.431
 2568TIP3    H1 7649   5.529   2.548   1.397
 2568TIP3    H2 7650   5.506   2.428   1.486
 2569TIP3   OH2 7651   6.327   2.484   0.808
 2569TIP3    H1 7652   6.394   2.453   0.747
 2569TIP3    H2 7653   6.246   2.480   0.757
 2570TIP3   OH2 7654   6.163   0.172   5.771
 2570TIP3    H1 7655   6.222   0.150   5.844
 2570TIP3    H2 7656   6.078   0.136   5.798
 2571TIP3   OH2 7657   0.281   4.363   5.317
 2571TIP3    H1 7658   0.226   4.353   5.394
 2571TIP3    H2 7659   0.272   4.455   5.293
 2572TIP3   OH2 7660   8.166   5.205   5.532
 2572TIP3    H1 7661   8.255   5.207   5.498
 2572TIP3    H2 7662   8.176   5.212   5.627
 2573TIP3   OH2 7663   7.641   0.578   6.779
 2573TIP3    H1 7664   7.587   0.598   6.702
 2573TIP3    H2 7665   7.591   0.513   6.827
 2574TIP3   OH2 7666   6.823   6.436   0.471
 2574TIP3    H1 7667   6.818   6.472   0.559
 2574TIP3    H2 7668   6.908   6.465   0.437
 2575TIP3   OH2 7669   1.811   7.338   3.594
 2575TIP3    H1 7670   1.875   7.372   3.656
 2575TIP3    H2 7671   1.731   7.387   3.614
 2576TIP3   OH2 7672   1.842   6.701   0.998
 2576TIP3    H1 7673   1.785   6.652   0.938
 2576TIP3    H2 7674   1.792   6.705   1.080
 2577TIP3   OH2 7675   2.387   3.447   5.015
 2577TIP3    H1 7676   2.442   3.450   4.937
 2577TIP3    H2 7677   2.313   3.391   4.991
 2578TIP3   OH2 7678   5.048   3.945   4.980
 2578TIP3    H1 7679   5.131   3.903   4.959
 2578TIP3    H2 7680   4.982   3.877   4.966
 2579TIP3   OH2 7681   8.218   2.648   0.423
 2579TIP3    H1 7682   8.271   2.705   0.480
 2579TIP3    H2 7683   8.239   2.677   0.334
 2580TIP3   OH2 7684   6.187   5.972   6.555
 2580TIP3    H1 7685   6.169   5.993   6.463
 2580TIP3    H2 7686   6.271   6.014   6.573
 2581TIP3   OH2 7687   4.835   4.652   3.827
 2581TIP3    H1 7688   4.809   4.742   3.806
 2581TIP3    H2 7689   4.912   4.636   3.773
 2582TIP3   OH2 7690   7.890   6.881   1.467
 2582TIP3    H1 7691   7.817   6.901   1.527
 2582TIP3    H2 7692   7.872   6.934   1.390
 2583TIP3   OH2 7693   5.629   3.686   0.656
 2583TIP3    H1 7694   5.715   3.655   0.626
 2583TIP3    H2 7695   5.586   3.718   0.576
 2584TIP3   OH2 7696   3.396   2.693   4.961
 2584TIP3    H1 7697   3.437   2.736   4.886
 2584TIP3    H2 7698   3.399   2.759   5.031
 2585TIP3   OH2 7699   1.821   6.494   0.783
 2585TIP3    H1 7700   1.884   6.509   0.714
 2585TIP3    H2 7701   1.841   6.406   0.816
 2586TIP3   OH2 7702   3.163   2.081   1.404
 2586TIP3    H1 7703   3.151   2.129   1.322
 2586TIP3    H2 7704   3.074   2.064   1.436
 2587TIP3   OH2 7705   7.012   3.120   1.906
 2587TIP3    H1 7706   6.944   3.123   1.973
 2587TIP3    H2 7707   6.963   3.110   1.824
 2588TIP3   OH2 7708   0.754   2.090   6.319
 2588TIP3    H1 7709   0.822   2.027   6.342
 2588TIP3    H2 7710   0.683   2.073   6.380
 2589TIP3   OH2 7711   5.127   3.690   0.477
 2589TIP3    H1 7712   5.172   3.688   0.392
 2589TIP3    H2 7713   5.182   3.745   0.532
 2590TIP3   OH2 7714   1.531   4.517   2.770
 2590TIP3    H1 7715   1.616   4.520   2.814
 2590TIP3    H2 7716   1.553   4.524   2.677
 2591TIP3   OH2 7717   5.384   6.818   6.350
 2591TIP3    H1 7718   5.340   6.749   6.301
 2591TIP3    H2 7719   5.442   6.860   6.285
 2592TIP3   OH2 7720   4.533   4.755   2.566
 2592TIP3    H1 7721   4.442   4.783   2.560
 2592TIP3    H2 7722   4.536   4.702   2.645
 2593TIP3   OH2 7723   3.502   3.754   3.879
 2593TIP3    H1 7724   3.577   3.806   3.907
 2593TIP3    H2 7725   3.522   3.665   3.909
 2594TIP3   OH2 7726   7.402   2.229   2.201
 2594TIP3    H1 7727   7.353   2.255   2.123
 2594TIP3    H2 7728   7.491   2.262   2.186
 2595TIP3   OH2 7729   2.309   5.597   5.891
 2595TIP3    H1 7730   2.247   5.592   5.818
 2595TIP3    H2 7731   2.255   5.584   5.969
 2596TIP3   OH2 7732   0.248   7.497   0.097
 2596TIP3    H1 7733   0.212   7.585   0.105
 2596TIP3    H2 7734   0.266   7.486   0.003
 2597TIP3   OH2 7735   6.071   6.662   3.105
 2597TIP3    H1 7736   6.048   6.754   3.089
 2597TIP3    H2 7737   6.063   6.652   3.200
 2598TIP3   OH2 7738   0.321   3.953   2.327
 2598TIP3    H1 7739   0.399   3.948   2.272
 2598TIP3    H2 7740   0.354   3.955   2.416
 2599TIP3   OH2 7741   5.554   7.303   5.104
 2599TIP3    H1 7742   5.566   7.397   5.111
 2599TIP3    H2 7743   5.613   7.267   5.171
 2600TIP3   OH2 7744   7.564   7.245   5.715
 2600TIP3    H1 7745   7.505   7.245   5.640
 2600TIP3    H2 7746   7.539   7.167   5.765
 2601TIP3   OH2 7747   3.477   0.853   4.902
 2601TIP3    H1 7748   3.407   0.913   4.880
 2601TIP3    H2 7749   3.532   0.850   4.823
 2602TIP3   OH2 7750   6.485   2.730   4.469
 2602TIP3    H1 7751   6.441   2.734   4.384
 2602TIP3    H2 7752   6.415   2.716   4.532
 2603TIP3   OH2 7753   4.648   5.795   3.619
 2603TIP3    H1 7754   4.632   5.750   3.702
 2603TIP3    H2 7755   4.603   5.879   3.628
 2604TIP3   OH2 7756   5.839   1.884   1.582
 2604TIP3    H1 7757   5.930   1.890   1.611
 2604TIP3    H2 7758   5.836   1.939   1.503
 2605TIP3   OH2 7759   6.507   6.944   5.527
 2605TIP3    H1 7760   6.579   7.007   5.538
 2605TIP3    H2 7761   6.497   6.904   5.613
 2606TIP3   OH2 7762   2.136   5.966   2.516
 2606TIP3    H1 7763   2.110   5.913   2.440
 2606TIP3    H2 7764   2.231   5.958   2.520
 2607TIP3   OH2 7765   0.374   3.190   3.778
 2607TIP3    H1 7766   0.311   3.253   3.814
 2607TIP3    H2 7767   0.340   3.170   3.691
 2608TIP3   OH2 7768   4.595   1.773   6.135
 2608TIP3    H1 7769   4.518   1.716   6.133
 2608TIP3    H2 7770   4.663   1.720   6.177
 2609TIP3   OH2 7771   5.321   6.409   1.245
 2609TIP3    H1 7772   5.364   6.493   1.262
 2609TIP3    H2 7773   5.228   6.431   1.240
 2610TIP3   OH2 7774   2.358   1.495   6.726
 2610TIP3    H1 7775   2.449   1.512   6.700
 2610TIP3    H2 7776   2.313   1.478   6.643
 2611TIP3   OH2 7777   7.787   3.078   6.674
 2611TIP3    H1 7778   7.782   2.991   6.714
 2611TIP3    H2 7779   7.710   3.125   6.708
 2612TIP3   OH2 7780   2.885   1.674   2.760
 2612TIP3    H1 7781   2.807   1.659   2.814
 2612TIP3    H2 7782   2.955   1.694   2.823
 2613TIP3   OH2 7783   2.839   6.513   2.791
 2613TIP3    H1 7784   2.832   6.601   2.754
 2613TIP3    H2 7785   2.931   6.505   2.817
 2614TIP3   OH2 7786   5.983   2.017   4.726
 2614TIP3    H1 7787   6.074   2.041   4.709
 2614TIP3    H2 7788   5.962   2.058   4.810
 2615TIP3   OH2 7789   1.458   7.667   4.318
 2615TIP3    H1 7790   1.507   7.655   4.237
 2615TIP3    H2 7791   1.416   7.582   4.334
 2616TIP3   OH2 7792   3.028   4.999   6.433
 2616TIP3    H1 7793   2.949   5.049   6.453
 2616TIP3    H2 7794   3.096   5.037   6.488
 2617TIP3   OH2 7795   2.092   5.115   1.668
 2617TIP3    H1 7796   2.061   5.056   1.600
 2617TIP3    H2 7797   2.143   5.181   1.621
 2618TIP3   OH2 7798   2.660   4.009   6.271
 2618TIP3    H1 7799   2.695   4.061   6.199
 2618TIP3    H2 7800   2.640   3.924   6.232
 2619TIP3   OH2 7801   7.457   6.258   0.864
 2619TIP3    H1 7802   7.390   6.214   0.915
 2619TIP3    H2 7803   7.421   6.261   0.775
 2620TIP3   OH2 7804   4.658   3.600   6.222
 2620TIP3    H1 7805   4.676   3.555   6.305
 2620TIP3    H2 7806   4.597   3.543   6.177
 2621TIP3   OH2 7807   7.062   5.943   4.152
 2621TIP3    H1 7808   7.067   5.975   4.062
 2621TIP3    H2 7809   6.990   5.992   4.191
 2622TIP3   OH2 7810   6.466   2.084   6.141
 2622TIP3    H1 7811   6.523   2.146   6.096
 2622TIP3    H2 7812   6.517   2.004   6.147
 2623TIP3   OH2 7813   7.837   2.965   5.187
 2623TIP3    H1 7814   7.760   2.995   5.137
 2623TIP3    H2 7815   7.863   3.042   5.237
 2624TIP3   OH2 7816   5.276   1.266   1.584
 2624TIP3    H1 7817   5.204   1.211   1.553
 2624TIP3    H2 7818   5.299   1.320   1.509
 2625TIP3   OH2 7819   2.042   5.351   3.515
 2625TIP3    H1 7820   2.063   5.286   3.582
 2625TIP3    H2 7821   2.106   5.421   3.529
 2626TIP3   OH2 7822   8.114   3.533   2.931
 2626TIP3    H1 7823   8.046   3.502   2.991
 2626TIP3    H2 7824   8.181   3.570   2.989
 2627TIP3   OH2 7825   7.243   0.222   0.270
 2627TIP3    H1 7826   7.259   0.240   0.177
 2627TIP3    H2 7827   7.311   0.160   0.295
 2628TIP3   OH2 7828   6.477   3.366   3.181
 2628TIP3    H1 7829   6.475   3.340   3.273
 2628TIP3    H2 7830   6.386   3.389   3.161
 2629TIP3   OH2 7831   5.506   7.698   0.417
 2629TIP3    H1 7832   5.558   7.646   0.355
 2629TIP3    H2 7833   5.448   7.634   0.459
 2630TIP3   OH2 7834   3.388   4.265   5.247
 2630TIP3    H1 7835   3.294   4.280   5.235
 2630TIP3    H2 7836   3.401   4.272   5.342
 2631TIP3   OH2 7837   0.715   3.519   0.529
 2631TIP3    H1 7838   0.771   3.442   0.530
 2631TIP3    H2 7839   0.714   3.550   0.620
 2632TIP3   OH2 7840   6.654   3.806   5.874
 2632TIP3    H1 7841   6.594   3.780   5.945
 2632TIP3    H2 7842   6.741   3.803   5.914
 2633TIP3   OH2 7843   1.043   0.111   4.651
 2633TIP3    H1 7844   1.033   0.204   4.631
 2633TIP3    H2 7845   1.019   0.103   4.743
 2634TIP3   OH2 7846   5.932   3.614   4.741
 2634TIP3    H1 7847   6.018   3.648   4.716
 2634TIP3    H2 7848   5.895   3.581   4.659
 2635TIP3   OH2 7849   2.692   6.391   3.005
 2635TIP3    H1 7850   2.721   6.300   2.995
 2635TIP3    H2 7851   2.733   6.437   2.932
 2636TIP3   OH2 7852   7.521   5.072   5.313
 2636TIP3    H1 7853   7.485   5.060   5.225
 2636TIP3    H2 7854   7.492   4.995   5.362
 2637TIP3   OH2 7855   2.484   0.805   1.891
 2637TIP3    H1 7856   2.432   0.727   1.869
 2637TIP3    H2 7857   2.538   0.821   1.814
 2638TIP3   OH2 7858   0.581   7.641   4.961
 2638TIP3    H1 7859   0.497   7.687   4.963
 2638TIP3    H2 7860   0.592   7.607   5.050
 2639TIP3   OH2 7861   3.420   3.350   6.285
 2639TIP3    H1 7862   3.478   3.298   6.341
 2639TIP3    H2 7863   3.404   3.294   6.209
 2640TIP3   OH2 7864   3.829   7.803   0.553
 2640TIP3    H1 7865   3.738   7.783   0.574
 2640TIP3    H2 7866   3.872   7.718   0.545
 2641TIP3   OH2 7867   5.036   1.964   5.522
 2641TIP3    H1 7868   4.981   1.898   5.481
 2641TIP3    H2 7869   5.121   1.956   5.479
 2642TIP3   OH2 7870   7.311   4.951   1.388
 2642TIP3    H1 7871   7.296   5.025   1.329
 2642TIP3    H2 7872   7.232   4.898   1.382
 2643TIP3   OH2 7873   2.164   5.150   1.250
 2643TIP3    H1 7874   2.071   5.174   1.257
 2643TIP3    H2 7875   2.197   5.159   1.340
 2644TIP3   OH2 7876   1.760   6.496   4.579
 2644TIP3    H1 7877   1.771   6.462   4.668
 2644TIP3    H2 7878   1.808   6.435   4.524
 2645TIP3   OH2 7879   3.897   2.121   3.894
 2645TIP3    H1 7880   3.866   2.102   3.982
 2645TIP3    H2 7881   3.989   2.093   3.894
 2646TIP3   OH2 7882   2.613   4.358   2.492
 2646TIP3    H1 7883   2.694   4.378   2.538
 2646TIP3    H2 7884   2.586   4.273   2.526
 2647TIP3   OH2 7885   3.396   0.129   4.715
 2647TIP3    H1 7886   3.446   0.125   4.796
 2647TIP3    H2 7887   3.461   0.153   4.648
 2648TIP3   OH2 7888   1.616   4.897   5.504
 2648TIP3    H1 7889   1.590   4.911   5.413
 2648TIP3    H2 7890   1.566   4.961   5.554
 2649TIP3   OH2 7891   0.437   7.479   6.458
 2649TIP3    H1 7892   0.352   7.472   6.414
 2649TIP3    H2 7893   0.417   7.465   6.551
 2650TIP3   OH2 7894   3.859   5.567   3.598
 2650TIP3    H1 7895   3.773   5.529   3.577
 2650TIP3    H2 7896   3.917   5.535   3.528
 2651TIP3   OH2 7897   1.254   2.011   2.584
 2651TIP3    H1 7898   1.251   2.004   2.488
 2651TIP3    H2 7899   1.344   2.038   2.603
 2652TIP3   OH2 7900   7.568   3.989   0.153
 2652TIP3    H1 7901   7.541   3.977   0.244
 2652TIP3    H2 7902   7.638   3.924   0.140
 2653TIP3   OH2 7903   5.646   7.606   0.202
 2653TIP3    H1 7904   5.675   7.694   0.180
 2653TIP3    H2 7905   5.721   7.550   0.182
 2654TIP3   OH2 7906   5.088   2.473   6.278
 2654TIP3    H1 7907   5.120   2.531   6.347
 2654TIP3    H2 7908   5.134   2.503   6.199
 2655TIP3   OH2 7909   6.900   2.025   5.347
 2655TIP3    H1 7910   6.842   2.048   5.420
 2655TIP3    H2 7911   6.850   2.047   5.268
 2656TIP3   OH2 7912   7.751   6.856   5.733
 2656TIP3    H1 7913   7.794   6.895   5.809
 2656TIP3    H2 7914   7.660   6.845   5.759
 2657TIP3   OH2 7915   2.519   7.017   2.086
 2657TIP3    H1 7916   2.484   6.953   2.024
 2657TIP3    H2 7917   2.614   7.004   2.083
 2658TIP3   OH2 7918   1.024   5.587   4.582
 2658TIP3    H1 7919   0.980   5.660   4.539
 2658TIP3    H2 7920   1.081   5.627   4.646
 2659TIP3   OH2 7921   5.623   6.422   0.865
 2659TIP3    H1 7922   5.655   6.419   0.956
 2659TIP3    H2 7923   5.529   6.438   0.874
 2660TIP3   OH2 7924   0.158   6.587   2.374
 2660TIP3    H1 7925   0.099   6.662   2.368
 2660TIP3    H2 7926   0.219   6.610   2.444
 2661TIP3   OH2 7927   3.205   3.386   5.726
 2661TIP3    H1 7928   3.195   3.409   5.818
 2661TIP3    H2 7929   3.297   3.360   5.718
 2662TIP3   OH2 7930   3.959   3.855   5.998
 2662TIP3    H1 7931   3.970   3.950   5.990
 2662TIP3    H2 7932   4.048   3.822   6.011
 2663TIP3   OH2 7933   1.672   4.302   2.050
 2663TIP3    H1 7934   1.603   4.314   2.115
 2663TIP3    H2 7935   1.629   4.321   1.966
 2664TIP3   OH2 7936   7.368   0.353   6.656
 2664TIP3    H1 7937   7.288   0.343   6.708
 2664TIP3    H2 7938   7.439   0.343   6.719
 2665TIP3   OH2 7939   7.339   6.277   0.608
 2665TIP3    H1 7940   7.267   6.334   0.638
 2665TIP3    H2 7941   7.370   6.318   0.528
 2666TIP3   OH2 7942   5.585   2.528   2.101
 2666TIP3    H1 7943   5.633   2.525   2.018
 2666TIP3    H2 7944   5.611   2.447   2.146
 2667TIP3   OH2 7945   7.190   5.230   0.271
 2667TIP3    H1 7946   7.231   5.316   0.266
 2667TIP3    H2 7947   7.260   5.169   0.244
 2668TIP3   OH2 7948   4.070   1.254   4.367
 2668TIP3    H1 7949   4.079   1.160   4.377
 2668TIP3    H2 7950   4.160   1.288   4.367
 2669TIP3   OH2 7951   4.915   2.272   4.570
 2669TIP3    H1 7952   4.965   2.334   4.624
 2669TIP3    H2 7953   4.965   2.191   4.574
 2670TIP3   OH2 7954   0.125   1.135   1.120
 2670TIP3    H1 7955   0.066   1.072   1.077
 2670TIP3    H2 7956   0.144   1.200   1.053
 2671TIP3   OH2 7957   1.616   7.410   0.895
 2671TIP3    H1 7958   1.538   7.405   0.950
 2671TIP3    H2 7959   1.586   7.386   0.807
 2672TIP3   OH2 7960   7.122   2.334   1.110
 2672TIP3    H1 7961   7.071   2.315   1.189
 2672TIP3    H2 7962   7.133   2.429   1.112
 2673TIP3   OH2 7963   0.094   2.298   5.240
 2673TIP3    H1 7964   0.023   2.272   5.298
 2673TIP3    H2 7965   0.163   2.328   5.299
 2674TIP3   OH2 7966   0.309   6.619   2.592
 2674TIP3    H1 7967   0.265   6.642   2.674
 2674TIP3    H2 7968   0.374   6.553   2.617
 2675TIP3   OH2 7969   4.705   2.853   4.740
 2675TIP3    H1 7970   4.624   2.843   4.791
 2675TIP3    H2 7971   4.747   2.931   4.777
 2676TIP3   OH2 7972   7.424   0.241   0.556
 2676TIP3    H1 7973   7.373   0.242   0.475
 2676TIP3    H2 7974   7.383   0.173   0.609
 2677TIP3   OH2 7975   4.705   5.009   1.675
 2677TIP3    H1 7976   4.644   5.076   1.644
 2677TIP3    H2 7977   4.665   4.926   1.651
 2678TIP3   OH2 7978   4.866   2.735   1.340
 2678TIP3    H1 7979   4.943   2.781   1.306
 2678TIP3    H2 7980   4.801   2.740   1.269
 2679TIP3   OH2 7981   0.108   7.270   1.405
 2679TIP3    H1 7982   0.131   7.356   1.368
 2679TIP3    H2 7983   0.189   7.219   1.397
 2680TIP3   OH2 7984   5.268   2.086   6.366
 2680TIP3    H1 7985   5.278   1.992   6.348
 2680TIP3    H2 7986   5.177   2.104   6.344
 2681TIP3   OH2 7987   4.528   5.934   0.171
 2681TIP3    H1 7988   4.583   5.857   0.185
 2681TIP3    H2 7989   4.458   5.903   0.113
 2682TIP3   OH2 7990   2.998   5.239   0.557
 2682TIP3    H1 7991   2.929   5.243   0.491
 2682TIP3    H2 7992   3.079   5.226   0.507
 2683TIP3   OH2 7993   6.138   5.177   5.366
 2683TIP3    H1 7994   6.052   5.149   5.333
 2683TIP3    H2 7995   6.196   5.103   5.347
 2684TIP3   OH2 7996   8.103   5.611   4.121
 2684TIP3    H1 7997   8.067   5.530   4.083
 2684TIP3    H2 7998   8.197   5.607   4.101
 2685TIP3   OH2 7999   6.834   4.693   3.708
 2685TIP3    H1 8000   6.866   4.717   3.621
 2685TIP3    H2 8001   6.748   4.654   3.692
 2686TIP3   OH2 8002   2.038   6.526   0.597
 2686TIP3    H1 8003   2.121   6.478   0.598
 2686TIP3    H2 8004   2.054   6.602   0.654
 2687TIP3   OH2 8005   1.391   3.658   3.430
 2687TIP3    H1 8006   1.434   3.737   3.461
 2687TIP3    H2 8007   1.420   3.647   3.340
 2688TIP3   OH2 8008   1.070   5.912   2.899
 2688TIP3    H1 8009   1.028   5.843   2.951
 2688TIP3    H2 8010   1.151   5.931   2.946
 2689TIP3   OH2 8011   2.744   5.520   5.521
 2689TIP3    H1 8012   2.801   5.451   5.554
 2689TIP3    H2 8013   2.666   5.516   5.578
 2690TIP3   OH2 8014   6.082   0.751   0.150
 2690TIP3    H1 8015   6.020   0.771   0.079
 2690TIP3    H2 8016   6.028   0.738   0.227
 2691TIP3   OH2 8017   6.629   1.118   3.702
 2691TIP3    H1 8018   6.549   1.070   3.723
 2691TIP3    H2 8019   6.667   1.073   3.627
 2692TIP3   OH2 8020   3.388   6.793   4.401
 2692TIP3    H1 8021   3.363   6.885   4.405
 2692TIP3    H2 8022   3.324   6.748   4.454
 2693TIP3   OH2 8023   0.638   6.659   4.140
 2693TIP3    H1 8024   0.662   6.575   4.101
 2693TIP3    H2 8025   0.682   6.660   4.225
 2694TIP3   OH2 8026   2.334   2.819   3.046
 2694TIP3    H1 8027   2.385   2.894   3.014
 2694TIP3    H2 8028   2.368   2.745   2.997
 2695TIP3   OH2 8029   8.063   4.960   0.177
 2695TIP3    H1 8030   8.077   4.865   0.169
 2695TIP3    H2 8031   8.054   4.989   0.086
 2696TIP3   OH2 8032   5.866   2.643   4.961
 2696TIP3    H1 8033   5.814   2.605   5.032
 2696TIP3    H2 8034   5.934   2.694   5.005
 2697TIP3   OH2 8035   3.384   7.433   2.304
 2697TIP3    H1 8036   3.478   7.433   2.321
 2697TIP3    H2 8037   3.347   7.489   2.372
 2698TIP3   OH2 8038   0.861   7.721   6.038
 2698TIP3    H1 8039   0.803   7.646   6.049
 2698TIP3    H2 8040   0.918   7.697   5.964
 2699TIP3   OH2 8041   1.360   4.820   6.171
 2699TIP3    H1 8042   1.334   4.740   6.216
 2699TIP3    H2 8043   1.334   4.890   6.231
 2700TIP3   OH2 8044   5.590   6.784   5.751
 2700TIP3    H1 8045   5.655   6.766   5.684
 2700TIP3    H2 8046   5.623   6.739   5.829
 2701TIP3   OH2 8047   2.131   2.759   6.543
 2701TIP3    H1 8048   2.226   2.753   6.528
 2701TIP3    H2 8049   2.121   2.741   6.636
 2702TIP3   OH2 8050   3.367   5.528   0.926
 2702TIP3    H1 8051   3.433   5.465   0.955
 2702TIP3    H2 8052   3.403   5.566   0.846
 2703TIP3   OH2 8053   1.743   3.475   2.248
 2703TIP3    H1 8054   1.799   3.409   2.208
 2703TIP3    H2 8055   1.719   3.439   2.333
 2704TIP3   OH2 8056   7.897   7.719   4.489
 2704TIP3    H1 8057   7.865   7.655   4.425
 2704TIP3    H2 8058   7.991   7.701   4.496
 2705TIP3   OH2 8059   8.125   5.561   5.625
 2705TIP3    H1 8060   8.094   5.649   5.648
 2705TIP3    H2 8061   8.048   5.519   5.586
 2706TIP3   OH2 8062   7.630   3.902   3.748
 2706TIP3    H1 8063   7.596   3.813   3.746
 2706TIP3    H2 8064   7.663   3.913   3.837
 2707TIP3   OH2 8065   6.229   3.037   6.685
 2707TIP3    H1 8066   6.152   3.062   6.634
 2707TIP3    H2 8067   6.226   2.941   6.688
 2708TIP3   OH2 8068   5.504   1.283   3.567
 2708TIP3    H1 8069   5.497   1.319   3.479
 2708TIP3    H2 8070   5.539   1.355   3.620
 2709TIP3   OH2 8071   8.128   2.814   4.327
 2709TIP3    H1 8072   8.127   2.769   4.242
 2709TIP3    H2 8073   8.214   2.793   4.363
 2710TIP3   OH2 8074   6.380   2.776   3.059
 2710TIP3    H1 8075   6.440   2.801   2.989
 2710TIP3    H2 8076   6.401   2.835   3.131
 2711TIP3   OH2 8077   0.351   6.890   2.833
 2711TIP3    H1 8078   0.263   6.927   2.843
 2711TIP3    H2 8079   0.406   6.942   2.892
 2712TIP3   OH2 8080   4.189   3.336   5.297
 2712TIP3    H1 8081   4.181   3.418   5.345
 2712TIP3    H2 8082   4.256   3.287   5.345
 2713TIP3   OH2 8083   5.833   4.063   2.574
 2713TIP3    H1 8084   5.774   4.036   2.503
 2713TIP3    H2 8085   5.878   4.141   2.539
 2714TIP3   OH2 8086   1.541   3.312   3.051
 2714TIP3    H1 8087   1.588   3.302   3.134
 2714TIP3    H2 8088   1.604   3.285   2.984
 2715TIP3   OH2 8089   4.450   6.169   6.658
 2715TIP3    H1 8090   4.516   6.213   6.604
 2715TIP3    H2 8091   4.371   6.223   6.648
 2716TIP3   OH2 8092   0.472   6.680   1.690
 2716TIP3    H1 8093   0.466   6.715   1.778
 2716TIP3    H2 8094   0.421   6.598   1.693
 2717TIP3   OH2 8095   1.103   7.085   0.523
 2717TIP3    H1 8096   1.071   7.095   0.613
 2717TIP3    H2 8097   1.186   7.039   0.532
 2718TIP3   OH2 8098   0.997   0.966   1.221
 2718TIP3    H1 8099   1.052   1.034   1.258
 2718TIP3    H2 8100   0.917   0.967   1.274
 2719TIP3   OH2 8101   1.906   2.320   2.265
 2719TIP3    H1 8102   1.949   2.344   2.184
 2719TIP3    H2 8103   1.947   2.375   2.332
 2720TIP3   OH2 8104   1.446   5.455   4.770
 2720TIP3    H1 8105   1.504   5.379   4.777
 2720TIP3    H2 8106   1.363   5.425   4.807
 2721TIP3   OH2 8107   0.558   6.001   5.032
 2721TIP3    H1 8108   0.580   6.052   5.110
 2721TIP3    H2 8109   0.589   6.055   4.959
 2722TIP3   OH2 8110   8.144   2.211   1.042
 2722TIP3    H1 8111   8.165   2.135   1.097
 2722TIP3    H2 8112   8.199   2.201   0.965
 2723TIP3   OH2 8113   4.873   0.026   6.318
 2723TIP3    H1 8114   4.909   0.115   6.315
 2723TIP3    H2 8115   4.909  -0.012   6.398
 2724TIP3   OH2 8116   6.209   2.836   0.157
 2724TIP3    H1 8117   6.270   2.767   0.185
 2724TIP3    H2 8118   6.264   2.898   0.110
 2725TIP3   OH2 8119   0.790   7.302   4.883
 2725TIP3    H1 8120   0.785   7.398   4.880
 2725TIP3    H2 8121   0.875   7.284   4.923
 2726TIP3   OH2 8122   4.449   6.281   0.866
 2726TIP3    H1 8123   4.360   6.316   0.858
 2726TIP3    H2 8124   4.441   6.209   0.928
 2727TIP3   OH2 8125   2.611   5.784   6.052
 2727TIP3    H1 8126   2.665   5.832   6.115
 2727TIP3    H2 8127   2.621   5.832   5.970
 2728TIP3   OH2 8128   0.382   3.699   1.271
 2728TIP3    H1 8129   0.317   3.748   1.321
 2728TIP3    H2 8130   0.354   3.608   1.276
 2729TIP3   OH2 8131   6.790   5.440   0.153
 2729TIP3    H1 8132   6.775   5.367   0.214
 2729TIP3    H2 8133   6.870   5.416   0.107
 2730TIP3   OH2 8134   6.713   2.019   1.423
 2730TIP3    H1 8135   6.645   2.015   1.356
 2730TIP3    H2 8136   6.719   1.930   1.456
 2731TIP3   OH2 8137   1.189   3.086   1.165
 2731TIP3    H1 8138   1.153   3.116   1.081
 2731TIP3    H2 8139   1.162   2.994   1.171
 2732TIP3   OH2 8140   3.893   2.140   5.728
 2732TIP3    H1 8141   3.982   2.174   5.732
 2732TIP3    H2 8142   3.897   2.066   5.668
 2733TIP3   OH2 8143   1.509   7.638   3.360
 2733TIP3    H1 8144   1.420   7.628   3.324
 2733TIP3    H2 8145   1.559   7.677   3.288
 2734TIP3   OH2 8146   6.294   0.947   1.562
 2734TIP3    H1 8147   6.370   0.977   1.512
 2734TIP3    H2 8148   6.268   1.023   1.613
 2735TIP3   OH2 8149   4.504   1.093   0.906
 2735TIP3    H1 8150   4.444   1.044   0.962
 2735TIP3    H2 8151   4.473   1.183   0.910
 2736TIP3   OH2 8152   3.146   6.161   4.924
 2736TIP3    H1 8153   3.112   6.141   5.011
 2736TIP3    H2 8154   3.222   6.103   4.914
 2737TIP3   OH2 8155   4.147   4.314   5.817
 2737TIP3    H1 8156   4.142   4.333   5.910
 2737TIP3    H2 8157   4.238   4.333   5.793
 2738TIP3   OH2 8158   4.970   1.262   2.879
 2738TIP3    H1 8159   4.891   1.222   2.843
 2738TIP3    H2 8160   4.957   1.258   2.974
 2739TIP3   OH2 8161   2.900   6.599   4.385
 2739TIP3    H1 8162   2.983   6.552   4.400
 2739TIP3    H2 8163   2.926   6.681   4.343
 2740TIP3   OH2 8164   7.373   7.778   4.012
 2740TIP3    H1 8165   7.283   7.777   3.979
 2740TIP3    H2 8166   7.366   7.822   4.097
 2741TIP3   OH2 8167   0.388   6.693   5.931
 2741TIP3    H1 8168   0.378   6.605   5.967
 2741TIP3    H2 8169   0.336   6.692   5.850
 2742TIP3   OH2 8170   2.407   1.051   6.575
 2742TIP3    H1 8171   2.445   0.982   6.521
 2742TIP3    H2 8172   2.384   1.008   6.657
 2743TIP3   OH2 8173   0.806   4.247   4.404
 2743TIP3    H1 8174   0.836   4.221   4.317
 2743TIP3    H2 8175   0.841   4.336   4.415
 2744TIP3   OH2 8176   2.904   2.336   3.934
 2744TIP3    H1 8177   2.896   2.321   4.029
 2744TIP3    H2 8178   2.986   2.385   3.925
 2745TIP3   OH2 8179   3.111   0.906   3.264
 2745TIP3    H1 8180   3.024   0.879   3.293
 2745TIP3    H2 8181   3.133   0.844   3.193
 2746TIP3   OH2 8182   5.079   7.351   3.369
 2746TIP3    H1 8183   5.150   7.305   3.416
 2746TIP3    H2 8184   5.010   7.285   3.360
 2747TIP3   OH2 8185   2.072   5.825   6.209
 2747TIP3    H1 8186   2.155   5.817   6.163
 2747TIP3    H2 8187   2.050   5.736   6.236
 2748TIP3   OH2 8188   1.152   1.885   0.888
 2748TIP3    H1 8189   1.230   1.833   0.871
 2748TIP3    H2 8190   1.134   1.872   0.981
 2749TIP3   OH2 8191   1.556   4.483   2.495
 2749TIP3    H1 8192   1.606   4.403   2.481
 2749TIP3    H2 8193   1.466   4.454   2.512
 2750TIP3   OH2 8194   0.544   3.161   6.139
 2750TIP3    H1 8195   0.505   3.248   6.134
 2750TIP3    H2 8196   0.470   3.103   6.159
 2751TIP3   OH2 8197   0.754   0.439   0.866
 2751TIP3    H1 8198   0.759   0.355   0.820
 2751TIP3    H2 8199   0.825   0.491   0.828
 2752TIP3   OH2 8200   6.783   0.490   0.409
 2752TIP3    H1 8201   6.797   0.584   0.410
 2752TIP3    H2 8202   6.734   0.472   0.490
 2753TIP3   OH2 8203   1.317   2.145   2.921
 2753TIP3    H1 8204   1.402   2.185   2.937
 2753TIP3    H2 8205   1.286   2.184   2.840
 2754TIP3   OH2 8206   5.584   0.753   6.686
 2754TIP3    H1 8207   5.627   0.838   6.694
 2754TIP3    H2 8208   5.525   0.763   6.611
 2755TIP3   OH2 8209   5.889   6.303   5.748
 2755TIP3    H1 8210   5.887   6.224   5.693
 2755TIP3    H2 8211   5.891   6.269   5.837
 2756TIP3   OH2 8212   2.141   5.211   3.795
 2756TIP3    H1 8213   2.202   5.266   3.843
 2756TIP3    H2 8214   2.079   5.180   3.861
 2757TIP3   OH2 8215   1.970   7.520   0.277
 2757TIP3    H1 8216   1.907   7.447   0.276
 2757TIP3    H2 8217   1.993   7.533   0.185
 2758TIP3   OH2 8218   6.613   3.932   1.261
 2758TIP3    H1 8219   6.669   3.855   1.245
 2758TIP3    H2 8220   6.675   4.001   1.285
 2759TIP3   OH2 8221   2.543   4.414   6.112
 2759TIP3    H1 8222   2.516   4.468   6.038
 2759TIP3    H2 8223   2.503   4.328   6.094
 2760TIP3   OH2 8224   5.644   3.677   2.371
 2760TIP3    H1 8225   5.564   3.693   2.321
 2760TIP3    H2 8226   5.689   3.607   2.322
 2761TIP3   OH2 8227   3.934   6.673   3.880
 2761TIP3    H1 8228   3.867   6.638   3.822
 2761TIP3    H2 8229   3.885   6.711   3.953
 2762TIP3   OH2 8230   3.408   3.510   6.656
 2762TIP3    H1 8231   3.363   3.546   6.579
 2762TIP3    H2 8232   3.369   3.556   6.730
 2763TIP3   OH2 8233   5.073   2.241   0.590
 2763TIP3    H1 8234   5.084   2.153   0.554
 2763TIP3    H2 8235   5.126   2.296   0.532
 2764TIP3   OH2 8236   1.644   5.623   2.157
 2764TIP3    H1 8237   1.630   5.529   2.169
 2764TIP3    H2 8238   1.599   5.643   2.075
 2765TIP3   OH2 8239   7.338   2.248   5.466
 2765TIP3    H1 8240   7.365   2.309   5.397
 2765TIP3    H2 8241   7.255   2.212   5.436
 2766TIP3   OH2 8242   2.938   1.351   0.767
 2766TIP3    H1 8243   2.926   1.389   0.680
 2766TIP3    H2 8244   2.897   1.265   0.760
 2767TIP3   OH2 8245   5.140   2.174   3.580
 2767TIP3    H1 8246   5.145   2.268   3.567
 2767TIP3    H2 8247   5.052   2.150   3.551
 2768TIP3   OH2 8248   1.059   1.337   4.517
 2768TIP3    H1 8249   1.099   1.336   4.430
 2768TIP3    H2 8250   1.078   1.251   4.553
 2769TIP3   OH2 8251   1.914   6.848   4.335
 2769TIP3    H1 8252   1.928   6.859   4.241
 2769TIP3    H2 8253   1.999   6.865   4.374
 2770TIP3   OH2 8254   4.254   5.548   0.805
 2770TIP3    H1 8255   4.346   5.572   0.794
 2770TIP3    H2 8256   4.249   5.457   0.774
 2771TIP3   OH2 8257   4.290   0.742   6.605
 2771TIP3    H1 8258   4.317   0.731   6.514
 2771TIP3    H2 8259   4.303   0.656   6.645
 2772TIP3   OH2 8260   1.866   6.846   4.737
 2772TIP3    H1 8261   1.876   6.874   4.828
 2772TIP3    H2 8262   1.924   6.903   4.688
 2773TIP3   OH2 8263   6.555   5.283   5.538
 2773TIP3    H1 8264   6.495   5.294   5.464
 2773TIP3    H2 8265   6.508   5.223   5.597
 2774TIP3   OH2 8266   1.110   5.830   4.053
 2774TIP3    H1 8267   1.040   5.874   4.004
 2774TIP3    H2 8268   1.179   5.896   4.061
 2775TIP3   OH2 8269   5.099   6.782   1.891
 2775TIP3    H1 8270   5.030   6.782   1.957
 2775TIP3    H2 8271   5.163   6.719   1.923
 2776TIP3   OH2 8272   1.409   2.450   1.650
 2776TIP3    H1 8273   1.353   2.374   1.638
 2776TIP3    H2 8274   1.469   2.448   1.575
 2777TIP3   OH2 8275   3.405   4.702   6.228
 2777TIP3    H1 8276   3.329   4.759   6.242
 2777TIP3    H2 8277   3.481   4.760   6.238
 2778TIP3   OH2 8278   1.770   6.568   4.306
 2778TIP3    H1 8279   1.754   6.566   4.401
 2778TIP3    H2 8280   1.842   6.630   4.295
 2779TIP3   OH2 8281   8.149   5.912   1.500
 2779TIP3    H1 8282   8.163   5.908   1.595
 2779TIP3    H2 8283   8.091   5.838   1.482
 2780TIP3   OH2 8284   1.907   1.416   2.666
 2780TIP3    H1 8285   1.909   1.364   2.747
 2780TIP3    H2 8286   1.991   1.461   2.665
 2781TIP3   OH2 8287   3.751   1.427   5.647
 2781TIP3    H1 8288   3.665   1.391   5.625
 2781TIP3    H2 8289   3.773   1.483   5.573
 2782TIP3   OH2 8290   3.346   2.466   4.817
 2782TIP3    H1 8291   3.340   2.387   4.871
 2782TIP3    H2 8292   3.401   2.526   4.868
 2783TIP3   OH2 8293   2.741   7.236   1.215
 2783TIP3    H1 8294   2.798   7.266   1.144
 2783TIP3    H2 8295   2.652   7.248   1.183
 2784TIP3   OH2 8296   4.431   0.891   0.210
 2784TIP3    H1 8297   4.391   0.804   0.208
 2784TIP3    H2 8298   4.409   0.924   0.297
 2785TIP3   OH2 8299   2.084   7.068   2.856
 2785TIP3    H1 8300   2.120   7.115   2.781
 2785TIP3    H2 8301   2.092   7.129   2.930
 2786TIP3   OH2 8302   0.541   4.329   0.809
 2786TIP3    H1 8303   0.623   4.361   0.845
 2786TIP3    H2 8304   0.567   4.272   0.737
 2787TIP3   OH2 8305   7.266   4.309   2.405
 2787TIP3    H1 8306   7.207   4.384   2.397
 2787TIP3    H2 8307   7.350   4.342   2.374
 2788TIP3   OH2 8308   7.920   2.309   4.326
 2788TIP3    H1 8309   7.831   2.344   4.323
 2788TIP3    H2 8310   7.953   2.337   4.411
 2789TIP3   OH2 8311   3.262   4.153   5.744
 2789TIP3    H1 8312   3.283   4.245   5.730
 2789TIP3    H2 8313   3.190   4.135   5.684
 2790TIP3   OH2 8314   5.876   7.487   0.536
 2790TIP3    H1 8315   5.940   7.558   0.533
 2790TIP3    H2 8316   5.884   7.451   0.625
 2791TIP3   OH2 8317   4.351   2.475   5.076
 2791TIP3    H1 8318   4.404   2.429   5.011
 2791TIP3    H2 8319   4.358   2.421   5.155
 2792TIP3   OH2 8320   0.654   1.770   1.890
 2792TIP3    H1 8321   0.608   1.854   1.890
 2792TIP3    H2 8322   0.660   1.746   1.797
 2793TIP3   OH2 8323   4.577   2.332   5.242
 2793TIP3    H1 8324   4.498   2.280   5.224
 2793TIP3    H2 8325   4.649   2.274   5.217
 2794TIP3   OH2 8326   6.542   0.681   3.629
 2794TIP3    H1 8327   6.495   0.674   3.546
 2794TIP3    H2 8328   6.610   0.614   3.624
 2795TIP3   OH2 8329   5.840   5.671   2.178
 2795TIP3    H1 8330   5.795   5.586   2.183
 2795TIP3    H2 8331   5.839   5.703   2.269
 2796TIP3   OH2 8332   0.391   3.433   6.387
 2796TIP3    H1 8333   0.481   3.401   6.390
 2796TIP3    H2 8334   0.396   3.522   6.422
 2797TIP3   OH2 8335   2.496   5.677   4.917
 2797TIP3    H1 8336   2.435   5.682   4.843
 2797TIP3    H2 8337   2.579   5.708   4.882
 2798TIP3   OH2 8338   6.241   0.117   0.889
 2798TIP3    H1 8339   6.185   0.184   0.928
 2798TIP3    H2 8340   6.252   0.052   0.959
 2799TIP3   OH2 8341   6.425   2.699   0.172
 2799TIP3    H1 8342   6.497   2.744   0.126
 2799TIP3    H2 8343   6.467   2.632   0.224
 2800TIP3   OH2 8344   7.746   6.743   3.628
 2800TIP3    H1 8345   7.778   6.800   3.557
 2800TIP3    H2 8346   7.679   6.689   3.586
 2801TIP3   OH2 8347   3.704   3.522   0.621
 2801TIP3    H1 8348   3.678   3.613   0.611
 2801TIP3    H2 8349   3.800   3.523   0.615
 2802TIP3   OH2 8350   3.278   2.859   2.822
 2802TIP3    H1 8351   3.296   2.892   2.910
 2802TIP3    H2 8352   3.332   2.913   2.765
 2803TIP3   OH2 8353   6.491   7.503   3.367
 2803TIP3    H1 8354   6.419   7.440   3.363
 2803TIP3    H2 8355   6.558   7.467   3.308
 2804TIP3   OH2 8356   6.234   3.266   4.668
 2804TIP3    H1 8357   6.304   3.324   4.638
 2804TIP3    H2 8358   6.202   3.307   4.749
 2805TIP3   OH2 8359   8.308   5.162   0.148
 2805TIP3    H1 8360   8.230   5.107   0.146
 2805TIP3    H2 8361   8.336   5.161   0.240
 2806TIP3   OH2 8362   7.174   3.744   5.111
 2806TIP3    H1 8363   7.157   3.650   5.114
 2806TIP3    H2 8364   7.110   3.778   5.049
 2807TIP3   OH2 8365   2.391   3.363   5.902
 2807TIP3    H1 8366   2.338   3.369   5.982
 2807TIP3    H2 8367   2.328   3.376   5.831
 2808TIP3   OH2 8368   7.893   3.513   6.145
 2808TIP3    H1 8369   7.963   3.536   6.084
 2808TIP3    H2 8370   7.937   3.470   6.217
 2809TIP3   OH2 8371   7.275   5.934   3.082
 2809TIP3    H1 8372   7.215   6.007   3.101
 2809TIP3    H2 8373   7.362   5.974   3.081
 2810TIP3   OH2 8374   5.939   2.944   6.212
 2810TIP3    H1 8375   5.991   3.005   6.160
 2810TIP3    H2 8376   5.854   2.987   6.221
 2811TIP3   OH2 8377   3.872   1.010   3.302
 2811TIP3    H1 8378   3.896   1.066   3.227
 2811TIP3    H2 8379   3.936   1.030   3.369
 2812TIP3   OH2 8380   0.951   2.906   3.188
 2812TIP3    H1 8381   0.875   2.874   3.139
 2812TIP3    H2 8382   1.024   2.894   3.128
 2813TIP3   OH2 8383   2.106   7.261   3.036
 2813TIP3    H1 8384   2.056   7.341   3.026
 2813TIP3    H2 8385   2.164   7.278   3.111
 2814TIP3   OH2 8386   1.311   7.776   0.994
 2814TIP3    H1 8387   1.220   7.784   1.020
 2814TIP3    H2 8388   1.318   7.687   0.958
 2815TIP3   OH2 8389   3.846   0.345   6.773
 2815TIP3    H1 8390   3.806   0.269   6.817
 2815TIP3    H2 8391   3.795   0.354   6.692
 2816TIP3   OH2 8392   1.310   7.539   4.576
 2816TIP3    H1 8393   1.232   7.491   4.604
 2816TIP3    H2 8394   1.380   7.474   4.576
 2817TIP3   OH2 8395   2.127   6.575   5.996
 2817TIP3    H1 8396   2.216   6.542   6.012
 2817TIP3    H2 8397   2.134   6.621   5.912
 2818TIP3   OH2 8398   4.642   4.154   1.655
 2818TIP3    H1 8399   4.719   4.207   1.677
 2818TIP3    H2 8400   4.568   4.212   1.668
 2819TIP3   OH2 8401   7.917   5.306   2.273
 2819TIP3    H1 8402   7.972   5.369   2.319
 2819TIP3    H2 8403   7.979   5.252   2.224
 2820TIP3   OH2 8404   6.530   1.476   0.600
 2820TIP3    H1 8405   6.470   1.539   0.561
 2820TIP3    H2 8406   6.582   1.443   0.527
 2821TIP3   OH2 8407   0.911   1.522   0.480
 2821TIP3    H1 8408   0.957   1.565   0.552
 2821TIP3    H2 8409   0.842   1.584   0.456
 2822TIP3   OH2 8410   0.625   0.835   0.893
 2822TIP3    H1 8411   0.697   0.874   0.941
 2822TIP3    H2 8412   0.553   0.898   0.903
 2823TIP3   OH2 8413   6.097   1.420   5.311
 2823TIP3    H1 8414   6.136   1.333   5.321
 2823TIP3    H2 8415   6.067   1.423   5.220
 2824TIP3   OH2 8416   4.428   5.908   2.701
 2824TIP3    H1 8417   4.521   5.925   2.686
 2824TIP3    H2 8418   4.426   5.834   2.761
 2825TIP3   OH2 8419   0.028   6.296   6.397
 2825TIP3    H1 8420   0.036   6.307   6.303
 2825TIP3    H2 8421  -0.036   6.225   6.408
 2826TIP3   OH2 8422   5.282   6.194   0.437
 2826TIP3    H1 8423   5.234   6.113   0.453
 2826TIP3    H2 8424   5.347   6.198   0.507
 2827TIP3   OH2 8425   0.123   7.055   5.736
 2827TIP3    H1 8426   0.202   7.071   5.684
 2827TIP3    H2 8427   0.056   7.109   5.696
 2828TIP3   OH2 8428   2.210   1.879   0.059
 2828TIP3    H1 8429   2.245   1.874   0.148
 2828TIP3    H2 8430   2.287   1.874   0.002
 2829TIP3   OH2 8431   3.650   2.841   5.605
 2829TIP3    H1 8432   3.557   2.826   5.587
 2829TIP3    H2 8433   3.661   2.816   5.697
 2830TIP3   OH2 8434   1.529   2.066   4.324
 2830TIP3    H1 8435   1.490   2.153   4.328
 2830TIP3    H2 8436   1.624   2.082   4.318
 2831TIP3   OH2 8437   5.501   1.350   3.297
 2831TIP3    H1 8438   5.518   1.272   3.244
 2831TIP3    H2 8439   5.571   1.411   3.273
 2832TIP3   OH2 8440   4.493   2.893   6.563
 2832TIP3    H1 8441   4.586   2.916   6.574
 2832TIP3    H2 8442   4.494   2.801   6.539
 2833TIP3   OH2 8443   4.181   2.204   1.851
 2833TIP3    H1 8444   4.140   2.267   1.910
 2833TIP3    H2 8445   4.213   2.134   1.908
 2834TIP3   OH2 8446   4.227   3.991   0.234
 2834TIP3    H1 8447   4.222   3.902   0.198
 2834TIP3    H2 8448   4.313   4.022   0.208
 2835TIP3   OH2 8449   1.651   3.046   6.643
 2835TIP3    H1 8450   1.569   3.008   6.614
 2835TIP3    H2 8451   1.631   3.139   6.658
 2836TIP3   OH2 8452   4.175   1.383   6.072
 2836TIP3    H1 8453   4.209   1.397   6.160
 2836TIP3    H2 8454   4.097   1.438   6.067
 2837TIP3   OH2 8455   1.416   1.964   3.365
 2837TIP3    H1 8456   1.476   1.900   3.404
 2837TIP3    H2 8457   1.472   2.033   3.331
 2838TIP3   OH2 8458   4.052   4.857   1.845
 2838TIP3    H1 8459   3.998   4.820   1.914
 2838TIP3    H2 8460   3.995   4.859   1.768
 2839TIP3   OH2 8461   6.936   7.622   2.341
 2839TIP3    H1 8462   7.011   7.579   2.300
 2839TIP3    H2 8463   6.957   7.715   2.338
 2840TIP3   OH2 8464   7.167   0.974   5.443
 2840TIP3    H1 8465   7.164   1.004   5.353
 2840TIP3    H2 8466   7.076   0.971   5.471
 2841TIP3   OH2 8467   2.110   0.979   4.336
 2841TIP3    H1 8468   2.038   1.041   4.324
 2841TIP3    H2 8469   2.185   1.022   4.294
 2842TIP3   OH2 8470   1.253   4.825   4.963
 2842TIP3    H1 8471   1.187   4.799   4.899
 2842TIP3    H2 8472   1.323   4.761   4.952
 2843TIP3   OH2 8473   1.427   4.956   2.041
 2843TIP3    H1 8474   1.361   4.988   2.103
 2843TIP3    H2 8475   1.398   4.867   2.019
 2844TIP3   OH2 8476   4.151   4.852   5.238
 2844TIP3    H1 8477   4.061   4.821   5.249
 2844TIP3    H2 8478   4.202   4.773   5.224
 2845TIP3   OH2 8479   7.718   5.582   6.673
 2845TIP3    H1 8480   7.722   5.607   6.581
 2845TIP3    H2 8481   7.690   5.490   6.673
 2846TIP3   OH2 8482   3.885   6.482   2.910
 2846TIP3    H1 8483   3.912   6.507   2.822
 2846TIP3    H2 8484   3.957   6.512   2.966
 2847TIP3   OH2 8485   6.887   4.775   5.968
 2847TIP3    H1 8486   6.823   4.704   5.959
 2847TIP3    H2 8487   6.929   4.759   6.053
 2848TIP3   OH2 8488   4.660   1.320   1.886
 2848TIP3    H1 8489   4.612   1.260   1.830
 2848TIP3    H2 8490   4.700   1.264   1.953
 2849TIP3   OH2 8491   3.664   2.095   6.161
 2849TIP3    H1 8492   3.696   2.116   6.073
 2849TIP3    H2 8493   3.591   2.035   6.146
 2850TIP3   OH2 8494   0.042   4.267   0.176
 2850TIP3    H1 8495   0.106   4.336   0.157
 2850TIP3    H2 8496   0.080   4.219   0.250
 2851TIP3   OH2 8497   5.823   4.044   4.171
 2851TIP3    H1 8498   5.876   4.088   4.238
 2851TIP3    H2 8499   5.734   4.075   4.187
 2852TIP3   OH2 8500   5.509   0.564   5.569
 2852TIP3    H1 8501   5.573   0.621   5.611
 2852TIP3    H2 8502   5.499   0.490   5.629
 2853TIP3   OH2 8503   4.772   5.478   3.689
 2853TIP3    H1 8504   4.848   5.423   3.707
 2853TIP3    H2 8505   4.697   5.419   3.695
 2854TIP3   OH2 8506   6.582   2.156   3.695
 2854TIP3    H1 8507   6.598   2.147   3.601
 2854TIP3    H2 8508   6.618   2.076   3.733
 2855TIP3   OH2 8509   3.167   3.657   6.753
 2855TIP3    H1 8510   3.123   3.571   6.752
 2855TIP3    H2 8511   3.119   3.709   6.688
 2856TIP3   OH2 8512   3.334   0.953   0.319
 2856TIP3    H1 8513   3.256   0.938   0.265
 2856TIP3    H2 8514   3.341   1.048   0.323
 2857TIP3   OH2 8515   1.639   3.960   2.984
 2857TIP3    H1 8516   1.656   3.873   3.019
 2857TIP3    H2 8517   1.581   3.945   2.909
 2858TIP3   OH2 8518   2.580   0.545   5.237
 2858TIP3    H1 8519   2.559   0.626   5.284
 2858TIP3    H2 8520   2.589   0.479   5.305
 2859TIP3   OH2 8521   3.001   3.724   4.304
 2859TIP3    H1 8522   3.092   3.698   4.288
 2859TIP3    H2 8523   3.002   3.819   4.296
 2860TIP3   OH2 8524   5.142   2.997   4.143
 2860TIP3    H1 8525   5.179   2.910   4.127
 2860TIP3    H2 8526   5.052   2.980   4.170
 2861TIP3   OH2 8527   1.822   0.515   4.094
 2861TIP3    H1 8528   1.888   0.458   4.053
 2861TIP3    H2 8529   1.874   0.579   4.142
 2862TIP3   OH2 8530   7.569   4.470   0.071
 2862TIP3    H1 8531   7.646   4.464   0.015
 2862TIP3    H2 8532   7.511   4.531   0.024
 2863TIP3   OH2 8533   0.915   6.808   5.977
 2863TIP3    H1 8534   0.829   6.832   5.942
 2863TIP3    H2 8535   0.972   6.881   5.954
 2864TIP3   OH2 8536   2.642   2.452   6.215
 2864TIP3    H1 8537   2.680   2.372   6.250
 2864TIP3    H2 8538   2.549   2.447   6.238
 2865TIP3   OH2 8539   7.254   1.611   2.547
 2865TIP3    H1 8540   7.269   1.552   2.621
 2865TIP3    H2 8541   7.208   1.685   2.585
 2866TIP3   OH2 8542   5.930   5.363   1.771
 2866TIP3    H1 8543   5.962   5.419   1.841
 2866TIP3    H2 8544   5.865   5.306   1.814
 2867TIP3   OH2 8545   5.629   4.204   4.229
 2867TIP3    H1 8546   5.604   4.169   4.314
 2867TIP3    H2 8547   5.546   4.233   4.190
 2868TIP3   OH2 8548   7.177   6.693   2.591
 2868TIP3    H1 8549   7.238   6.748   2.541
 2868TIP3    H2 8550   7.127   6.646   2.524
 2869TIP3   OH2 8551   5.225   5.674   3.464
 2869TIP3    H1 8552   5.284   5.599   3.474
 2869TIP3    H2 8553   5.155   5.658   3.527
 2870TIP3   OH2 8554   2.499   1.849   3.902
 2870TIP3    H1 8555   2.571   1.900   3.864
 2870TIP3    H2 8556   2.506   1.763   3.860
 2871TIP3   OH2 8557   1.663   5.012   0.468
 2871TIP3    H1 8558   1.629   5.102   0.469
 2871TIP3    H2 8559   1.587   4.958   0.447
 2872TIP3   OH2 8560   0.177   1.380   1.299
 2872TIP3    H1 8561   0.259   1.344   1.265
 2872TIP3    H2 8562   0.117   1.305   1.302
 2873TIP3   OH2 8563   1.740   0.623   1.342
 2873TIP3    H1 8564   1.824   0.586   1.313
 2873TIP3    H2 8565   1.687   0.625   1.262
 2874TIP3   OH2 8566   2.213   7.254   4.724
 2874TIP3    H1 8567   2.219   7.348   4.707
 2874TIP3    H2 8568   2.241   7.214   4.642
 2875TIP3   OH2 8569   5.285   6.002   2.279
 2875TIP3    H1 8570   5.218   6.063   2.247
 2875TIP3    H2 8571   5.361   6.020   2.224
 2876TIP3   OH2 8572   7.368   5.934  -0.015
 2876TIP3    H1 8573   7.409   5.897   0.063
 2876TIP3    H2 8574   7.322   5.861  -0.056
 2877TIP3   OH2 8575   4.727   3.562   4.757
 2877TIP3    H1 8576   4.663   3.553   4.686
 2877TIP3    H2 8577   4.773   3.478   4.757
 2878TIP3   OH2 8578   0.392   1.320   5.630
 2878TIP3    H1 8579   0.325   1.385   5.609
 2878TIP3    H2 8580   0.474   1.370   5.628
 2879TIP3   OH2 8581   1.092   4.156   1.223
 2879TIP3    H1 8582   1.038   4.157   1.144
 2879TIP3    H2 8583   1.179   4.133   1.192
 2880TIP3   OH2 8584   1.621   2.312   3.714
 2880TIP3    H1 8585   1.691   2.284   3.773
 2880TIP3    H2 8586   1.667   2.342   3.635
 2881TIP3   OH2 8587   6.659   3.229   2.275
 2881TIP3    H1 8588   6.621   3.309   2.239
 2881TIP3    H2 8589   6.733   3.209   2.217
 2882TIP3   OH2 8590   1.556   4.217   3.760
 2882TIP3    H1 8591   1.533   4.246   3.848
 2882TIP3    H2 8592   1.514   4.281   3.702
 2883TIP3   OH2 8593   5.635   0.292   3.729
 2883TIP3    H1 8594   5.656   0.263   3.640
 2883TIP3    H2 8595   5.673   0.226   3.786
 2884TIP3   OH2 8596   3.045   4.928   3.098
 2884TIP3    H1 8597   3.011   4.869   3.166
 2884TIP3    H2 8598   3.080   4.869   3.031
 2885TIP3   OH2 8599   1.377   1.903   5.389
 2885TIP3    H1 8600   1.365   1.905   5.295
 2885TIP3    H2 8601   1.428   1.982   5.409
 2886TIP3   OH2 8602   3.182   3.321   3.083
 2886TIP3    H1 8603   3.126   3.249   3.052
 2886TIP3    H2 8604   3.198   3.374   3.005
 2887TIP3   OH2 8605   7.983   1.635   0.071
 2887TIP3    H1 8606   7.894   1.655   0.101
 2887TIP3    H2 8607   8.010   1.713   0.022
 2888TIP3   OH2 8608   6.544   7.787   2.711
 2888TIP3    H1 8609   6.461   7.832   2.698
 2888TIP3    H2 8610   6.583   7.830   2.787
 2889TIP3   OH2 8611   2.521   2.995   1.445
 2889TIP3    H1 8612   2.588   2.927   1.443
 2889TIP3    H2 8613   2.558   3.062   1.502
 2890TIP3   OH2 8614   7.828   4.761   1.090
 2890TIP3    H1 8615   7.820   4.673   1.128
 2890TIP3    H2 8616   7.753   4.768   1.031
 2891TIP3   OH2 8617   6.884   7.093   1.212
 2891TIP3    H1 8618   6.882   7.146   1.292
 2891TIP3    H2 8619   6.967   7.045   1.217
 2892TIP3   OH2 8620   4.043   1.441   1.859
 2892TIP3    H1 8621   4.082   1.528   1.861
 2892TIP3    H2 8622   4.077   1.401   1.779
 2893TIP3   OH2 8623   2.708   4.245   2.882
 2893TIP3    H1 8624   2.673   4.305   2.948
 2893TIP3    H2 8625   2.630   4.212   2.836
 2894TIP3   OH2 8626   4.512   4.388   0.700
 2894TIP3    H1 8627   4.482   4.466   0.747
 2894TIP3    H2 8628   4.595   4.415   0.661
 2895TIP3   OH2 8629   4.658   2.606   0.934
 2895TIP3    H1 8630   4.564   2.589   0.943
 2895TIP3    H2 8631   4.671   2.621   0.841
 2896TIP3   OH2 8632   2.426   0.680   4.877
 2896TIP3    H1 8633   2.470   0.765   4.876
 2896TIP3    H2 8634   2.492   0.618   4.846
 2897TIP3   OH2 8635   0.209   0.588   6.047
 2897TIP3    H1 8636   0.146   0.588   5.975
 2897TIP3    H2 8637   0.197   0.673   6.089
 2898TIP3   OH2 8638   5.547   1.496   0.423
 2898TIP3    H1 8639   5.519   1.428   0.484
 2898TIP3    H2 8640   5.471   1.510   0.366
 2899TIP3   OH2 8641   2.478   0.662   1.486
 2899TIP3    H1 8642   2.449   0.742   1.530
 2899TIP3    H2 8643   2.476   0.594   1.554
 2900TIP3   OH2 8644   7.786   0.735   4.462
 2900TIP3    H1 8645   7.786   0.799   4.533
 2900TIP3    H2 8646   7.854   0.672   4.487
 2901TIP3   OH2 8647   0.782   4.616   6.137
 2901TIP3    H1 8648   0.789   4.667   6.218
 2901TIP3    H2 8649   0.816   4.530   6.160
 2902TIP3   OH2 8650   7.178   0.243   1.958
 2902TIP3    H1 8651   7.223   0.163   1.930
 2902TIP3    H2 8652   7.247   0.296   1.998
 2903TIP3   OH2 8653   1.444   1.321   0.001
 2903TIP3    H1 8654   1.488   1.248  -0.043
 2903TIP3    H2 8655   1.386   1.279   0.065
 2904TIP3   OH2 8656   4.146   1.139   2.836
 2904TIP3    H1 8657   4.124   1.062   2.889
 2904TIP3    H2 8658   4.223   1.176   2.879
 2905TIP3   OH2 8659   0.043   2.566   3.968
 2905TIP3    H1 8660   0.079   2.600   3.886
 2905TIP3    H2 8661  -0.031   2.512   3.941
 2906TIP3   OH2 8662   5.042   5.971   0.856
 2906TIP3    H1 8663   5.137   5.971   0.851
 2906TIP3    H2 8664   5.021   6.049   0.907
 2907TIP3   OH2 8665   0.151   4.089   2.079
 2907TIP3    H1 8666   0.238   4.114   2.049
 2907TIP3    H2 8667   0.095   4.163   2.057
 2908TIP3   OH2 8668   6.156   4.861   2.863
 2908TIP3    H1 8669   6.175   4.767   2.861
 2908TIP3    H2 8670   6.217   4.896   2.929
 2909TIP3   OH2 8671   3.119   1.911   6.547
 2909TIP3    H1 8672   3.116   1.995   6.501
 2909TIP3    H2 8673   3.078   1.929   6.632
 2910TIP3   OH2 8674   2.769   4.666   5.879
 2910TIP3    H1 8675   2.678   4.682   5.904
 2910TIP3    H2 8676   2.820   4.716   5.943
 2911TIP3   OH2 8677   6.736   4.358   1.924
 2911TIP3    H1 8678   6.656   4.374   1.974
 2911TIP3    H2 8679   6.711   4.371   1.833
 2912TIP3   OH2 8680   2.309   6.922   4.716
 2912TIP3    H1 8681   2.310   6.890   4.806
 2912TIP3    H2 8682   2.341   7.012   4.722
 2913TIP3   OH2 8683   0.225   7.212   3.631
 2913TIP3    H1 8684   0.287   7.281   3.653
 2913TIP3    H2 8685   0.262   7.170   3.554
 2914TIP3   OH2 8686   7.711   7.434   1.163
 2914TIP3    H1 8687   7.628   7.444   1.211
 2914TIP3    H2 8688   7.775   7.481   1.217
 2915TIP3   OH2 8689   0.916   3.321   2.611
 2915TIP3    H1 8690   0.964   3.294   2.689
 2915TIP3    H2 8691   0.851   3.383   2.642
 2916TIP3   OH2 8692   0.047   5.769   0.292
 2916TIP3    H1 8693   0.127   5.779   0.241
 2916TIP3    H2 8694   0.014   5.859   0.303
 2917TIP3   OH2 8695   5.459   4.499   5.842
 2917TIP3    H1 8696   5.408   4.436   5.791
 2917TIP3    H2 8697   5.492   4.449   5.916
 2918TIP3   OH2 8698   3.052   3.793   5.903
 2918TIP3    H1 8699   3.101   3.766   5.825
 2918TIP3    H2 8700   2.993   3.862   5.872
 2919TIP3   OH2 8701   1.664   1.873   6.502
 2919TIP3    H1 8702   1.681   1.958   6.461
 2919TIP3    H2 8703   1.635   1.895   6.591
 2920TIP3   OH2 8704   8.033   2.258   2.539
 2920TIP3    H1 8705   8.102   2.317   2.569
 2920TIP3    H2 8706   8.023   2.280   2.446
 2921TIP3   OH2 8707   3.148   3.124   4.460
 2921TIP3    H1 8708   3.163   3.094   4.549
 2921TIP3    H2 8709   3.143   3.219   4.467
 2922TIP3   OH2 8710   7.754   2.339   6.530
 2922TIP3    H1 8711   7.780   2.380   6.613
 2922TIP3    H2 8712   7.818   2.370   6.466
 2923TIP3   OH2 8713   2.549   3.861   0.194
 2923TIP3    H1 8714   2.606   3.938   0.198
 2923TIP3    H2 8715   2.464   3.893   0.223
 2924TIP3   OH2 8716   0.549   5.134   6.697
 2924TIP3    H1 8717   0.468   5.166   6.735
 2924TIP3    H2 8718   0.593   5.213   6.665
 2925TIP3   OH2 8719   2.452   5.327   6.510
 2925TIP3    H1 8720   2.408   5.257   6.463
 2925TIP3    H2 8721   2.394   5.403   6.500
 2926TIP3   OH2 8722   2.007   0.294   4.010
 2926TIP3    H1 8723   2.055   0.288   4.093
 2926TIP3    H2 8724   1.944   0.222   4.014
 2927TIP3   OH2 8725   2.301   7.445   3.182
 2927TIP3    H1 8726   2.323   7.414   3.094
 2927TIP3    H2 8727   2.301   7.540   3.174
 2928TIP3   OH2 8728   4.446   5.847   4.703
 2928TIP3    H1 8729   4.433   5.915   4.769
 2928TIP3    H2 8730   4.534   5.864   4.668
 2929TIP3   OH2 8731   1.270   2.349   3.306
 2929TIP3    H1 8732   1.215   2.425   3.329
 2929TIP3    H2 8733   1.267   2.294   3.384
 2930TIP3   OH2 8734   6.538   5.217   5.997
 2930TIP3    H1 8735   6.451   5.242   5.967
 2930TIP3    H2 8736   6.580   5.299   6.021
 2931TIP3   OH2 8737   7.728   2.768   1.262
 2931TIP3    H1 8738   7.707   2.732   1.176
 2931TIP3    H2 8739   7.777   2.848   1.244
 2932TIP3   OH2 8740   8.234   0.954   1.291
 2932TIP3    H1 8741   8.179   0.877   1.307
 2932TIP3    H2 8742   8.248   0.954   1.196
 2933TIP3   OH2 8743   7.993   3.366   1.324
 2933TIP3    H1 8744   7.973   3.437   1.386
 2933TIP3    H2 8745   8.009   3.290   1.379
 2934TIP3   OH2 8746   7.556   4.738   2.675
 2934TIP3    H1 8747   7.589   4.780   2.754
 2934TIP3    H2 8748   7.630   4.685   2.643
 2935TIP3   OH2 8749   0.151   7.764   6.430
 2935TIP3    H1 8750   0.103   7.736   6.507
 2935TIP3    H2 8751   0.213   7.693   6.413
 2936TIP3   OH2 8752   8.155   0.830   5.410
 2936TIP3    H1 8753   8.155   0.839   5.314
 2936TIP3    H2 8754   8.062   0.831   5.434
 2937TIP3   OH2 8755   0.762   6.364   4.826
 2937TIP3    H1 8756   0.721   6.278   4.812
 2937TIP3    H2 8757   0.771   6.370   4.921
 2938TIP3   OH2 8758   1.585   4.234   3.053
 2938TIP3    H1 8759   1.659   4.278   3.011
 2938TIP3    H2 8760   1.596   4.142   3.031
 2939TIP3   OH2 8761   1.649   3.574   6.040
 2939TIP3    H1 8762   1.559   3.607   6.036
 2939TIP3    H2 8763   1.657   3.537   6.128
 2940TIP3   OH2 8764   3.099   5.501   0.979
 2940TIP3    H1 8765   3.183   5.537   0.952
 2940TIP3    H2 8766   3.085   5.426   0.920
 2941TIP3   OH2 8767   0.781   4.385   1.735
 2941TIP3    H1 8768   0.829   4.318   1.685
 2941TIP3    H2 8769   0.719   4.421   1.672
 2942TIP3   OH2 8770   7.083   4.517   2.341
 2942TIP3    H1 8771   7.075   4.598   2.291
 2942TIP3    H2 8772   7.046   4.537   2.426
 2943TIP3   OH2 8773   4.641   6.290   0.033
 2943TIP3    H1 8774   4.658   6.207  -0.011
 2943TIP3    H2 8775   4.719   6.305   0.087
 2944TIP3   OH2 8776   2.884   5.654   5.137
 2944TIP3    H1 8777   2.916   5.594   5.205
 2944TIP3    H2 8778   2.872   5.598   5.060
 2945TIP3   OH2 8779   4.650   1.498   0.065
 2945TIP3    H1 8780   4.675   1.438   0.136
 2945TIP3    H2 8781   4.583   1.554   0.104
 2946TIP3   OH2 8782   2.080   2.236   4.486
 2946TIP3    H1 8783   2.040   2.152   4.509
 2946TIP3    H2 8784   2.009   2.286   4.446
 2947TIP3   OH2 8785   0.045   4.716   3.344
 2947TIP3    H1 8786   0.113   4.782   3.335
 2947TIP3    H2 8787   0.002   4.713   3.258
 2948TIP3   OH2 8788   4.709   3.942   2.771
 2948TIP3    H1 8789   4.627   3.985   2.746
 2948TIP3    H2 8790   4.776   4.010   2.758
 2949TIP3   OH2 8791   5.633   5.069   2.385
 2949TIP3    H1 8792   5.657   5.007   2.454
 2949TIP3    H2 8793   5.546   5.100   2.411
 2950TIP3   OH2 8794   3.368   5.310   3.379
 2950TIP3    H1 8795   3.358   5.216   3.389
 2950TIP3    H2 8796   3.296   5.337   3.323
 2951TIP3   OH2 8797   1.505   0.859   6.521
 2951TIP3    H1 8798   1.444   0.904   6.462
 2951TIP3    H2 8799   1.458   0.852   6.604
 2952TIP3   OH2 8800   3.188   6.795   6.193
 2952TIP3    H1 8801   3.144   6.848   6.259
 2952TIP3    H2 8802   3.197   6.709   6.234
 2953TIP3   OH2 8803   2.782   5.394   3.893
 2953TIP3    H1 8804   2.701   5.343   3.889
 2953TIP3    H2 8805   2.811   5.385   3.983
 2954TIP3   OH2 8806   2.971   1.635   3.783
 2954TIP3    H1 8807   3.004   1.618   3.695
 2954TIP3    H2 8808   2.995   1.558   3.834
 2955TIP3   OH2 8809   5.366   1.709   0.916
 2955TIP3    H1 8810   5.433   1.643   0.937
 2955TIP3    H2 8811   5.283   1.664   0.932
 2956TIP3   OH2 8812   7.989   1.614   2.521
 2956TIP3    H1 8813   8.064   1.659   2.482
 2956TIP3    H2 8814   7.974   1.538   2.464
 2957TIP3   OH2 8815   3.140   7.595   6.544
 2957TIP3    H1 8816   3.163   7.676   6.591
 2957TIP3    H2 8817   3.216   7.538   6.556
 2958TIP3   OH2 8818   7.689   3.018   1.091
 2958TIP3    H1 8819   7.652   2.973   1.016
 2958TIP3    H2 8820   7.748   3.083   1.054
 2959TIP3   OH2 8821   2.040   6.876   3.370
 2959TIP3    H1 8822   2.041   6.968   3.396
 2959TIP3    H2 8823   2.128   6.844   3.387
 2960TIP3   OH2 8824   6.292   4.502   0.485
 2960TIP3    H1 8825   6.271   4.410   0.472
 2960TIP3    H2 8826   6.208   4.542   0.510
 2961TIP3   OH2 8827   1.737   6.326   2.383
 2961TIP3    H1 8828   1.644   6.305   2.370
 2961TIP3    H2 8829   1.751   6.406   2.332
 2962TIP3   OH2 8830   7.198   2.578   2.358
 2962TIP3    H1 8831   7.223   2.507   2.417
 2962TIP3    H2 8832   7.280   2.607   2.318
 2963TIP3   OH2 8833   6.837   3.504   2.938
 2963TIP3    H1 8834   6.837   3.591   2.898
 2963TIP3    H2 8835   6.920   3.499   2.986
 2964TIP3   OH2 8836   4.645   6.402   3.888
 2964TIP3    H1 8837   4.659   6.496   3.901
 2964TIP3    H2 8838   4.727   6.370   3.852
 2965TIP3   OH2 8839   1.141   4.584   6.291
 2965TIP3    H1 8840   1.095   4.662   6.322
 2965TIP3    H2 8841   1.173   4.542   6.371
 2966TIP3   OH2 8842   0.759   2.133   5.929
 2966TIP3    H1 8843   0.793   2.171   6.010
 2966TIP3    H2 8844   0.836   2.125   5.872
 2967TIP3   OH2 8845   0.705   5.673   2.389
 2967TIP3    H1 8846   0.648   5.634   2.455
 2967TIP3    H2 8847   0.731   5.758   2.427
 2968TIP3   OH2 8848   2.823   3.690   0.766
 2968TIP3    H1 8849   2.884   3.749   0.724
 2968TIP3    H2 8850   2.800   3.626   0.698
 2969TIP3   OH2 8851   2.465   5.860   6.782
 2969TIP3    H1 8852   2.519   5.860   6.703
 2969TIP3    H2 8853   2.514   5.914   6.844
 2970TIP3   OH2 8854   4.505   5.354   6.515
 2970TIP3    H1 8855   4.433   5.295   6.493
 2970TIP3    H2 8856   4.567   5.345   6.443
 2971TIP3   OH2 8857   1.586   7.184   1.782
 2971TIP3    H1 8858   1.502   7.139   1.790
 2971TIP3    H2 8859   1.575   7.264   1.833
 2972TIP3   OH2 8860   7.505   3.572   3.233
 2972TIP3    H1 8861   7.450   3.495   3.241
 2972TIP3    H2 8862   7.449   3.645   3.257
 2973TIP3   OH2 8863   6.485   4.454   1.253
 2973TIP3    H1 8864   6.494   4.549   1.253
 2973TIP3    H2 8865   6.537   4.425   1.179
 2974TIP3   OH2 8866   6.531   1.566   0.255
 2974TIP3    H1 8867   6.533   1.638   0.192
 2974TIP3    H2 8868   6.490   1.604   0.333
 2975TIP3   OH2 8869   7.985   7.635   1.981
 2975TIP3    H1 8870   7.894   7.664   1.970
 2975TIP3    H2 8871   8.029   7.664   1.901
 2976TIP3   OH2 8872   4.512   4.961   5.128
 2976TIP3    H1 8873   4.441   4.983   5.188
 2976TIP3    H2 8874   4.492   5.009   5.047
 2977TIP3   OH2 8875   1.646   0.249   2.559
 2977TIP3    H1 8876   1.599   0.213   2.634
 2977TIP3    H2 8877   1.613   0.338   2.550
 2978TIP3   OH2 8878   1.070   0.877   4.321
 2978TIP3    H1 8879   0.983   0.906   4.292
 2978TIP3    H2 8880   1.055   0.845   4.410
 2979TIP3   OH2 8881   4.705   5.686   1.863
 2979TIP3    H1 8882   4.629   5.731   1.900
 2979TIP3    H2 8883   4.735   5.628   1.933
 2980TIP3   OH2 8884   6.974   4.873   4.129
 2980TIP3    H1 8885   7.063   4.906   4.142
 2980TIP3    H2 8886   6.952   4.897   4.039
 2981TIP3   OH2 8887   0.704   1.992   6.579
 2981TIP3    H1 8888   0.661   2.061   6.630
 2981TIP3    H2 8889   0.773   1.959   6.637
 2982TIP3   OH2 8890   5.624   0.107   1.491
 2982TIP3    H1 8891   5.629   0.027   1.543
 2982TIP3    H2 8892   5.714   0.142   1.492
 2983TIP3   OH2 8893   6.684   3.193   3.613
 2983TIP3    H1 8894   6.743   3.134   3.659
 2983TIP3    H2 8895   6.670   3.265   3.674
 2984TIP3   OH2 8896   0.636   6.819   5.916
 2984TIP3    H1 8897   0.612   6.845   5.827
 2984TIP3    H2 8898   0.557   6.777   5.951
 2985TIP3   OH2 8899   6.892   1.561   3.322
 2985TIP3    H1 8900   6.976   1.526   3.292
 2985TIP3    H2 8901   6.909   1.590   3.411
 2986TIP3   OH2 8902   8.148   5.049   6.627
 2986TIP3    H1 8903   8.080   5.099   6.673
 2986TIP3    H2 8904   8.123   5.054   6.535
 2987TIP3   OH2 8905   3.764   4.112   4.887
 2987TIP3    H1 8906   3.742   4.167   4.812
 2987TIP3    H2 8907   3.711   4.032   4.874
 2988TIP3   OH2 8908   7.958   2.639   0.318
 2988TIP3    H1 8909   7.930   2.549   0.305
 2988TIP3    H2 8910   8.046   2.632   0.356
 2989TIP3   OH2 8911   4.853   5.921   1.486
 2989TIP3    H1 8912   4.870   5.898   1.578
 2989TIP3    H2 8913   4.936   5.903   1.441
 2990TIP3   OH2 8914   4.266   2.673   1.547
 2990TIP3    H1 8915   4.318   2.597   1.521
 2990TIP3    H2 8916   4.315   2.713   1.618
 2991TIP3   OH2 8917   0.149   0.260   4.464
 2991TIP3    H1 8918   0.149   0.355   4.456
 2991TIP3    H2 8919   0.110   0.229   4.383
 2992TIP3   OH2 8920   1.074   2.441   1.781
 2992TIP3    H1 8921   1.121   2.365   1.816
 2992TIP3    H2 8922   1.132   2.515   1.800
 2993TIP3   OH2 8923   7.154   4.215   6.793
 2993TIP3    H1 8924   7.106   4.175   6.720
 2993TIP3    H2 8925   7.093   4.211   6.867
 2994TIP3   OH2 8926   1.091   0.239   0.367
 2994TIP3    H1 8927   1.155   0.297   0.326
 2994TIP3    H2 8928   1.008   0.286   0.362
 2995TIP3   OH2 8929   1.030   2.362   2.521
 2995TIP3    H1 8930   0.945   2.330   2.551
 2995TIP3    H2 8931   1.015   2.393   2.432
 2996TIP3   OH2 8932   6.055   5.678   5.050
 2996TIP3    H1 8933   5.963   5.673   5.025
 2996TIP3    H2 8934   6.081   5.587   5.063
 2997TIP3   OH2 8935   4.592   0.438   5.569
 2997TIP3    H1 8936   4.577   0.367   5.506
 2997TIP3    H2 8937   4.526   0.424   5.637
 2998TIP3   OH2 8938   0.711   1.094   3.385
 2998TIP3    H1 8939   0.670   1.017   3.344
 2998TIP3    H2 8940   0.782   1.058   3.438
 2999TIP3   OH2 8941   8.148   7.319   3.893
 2999TIP3    H1 8942   8.207   7.280   3.958
 2999TIP3    H2 8943   8.076   7.257   3.886
 3000TIP3   OH2 8944   0.961   3.500   1.555
 3000TIP3    H1 8945   0.995   3.416   1.525
 3000TIP3    H2 8946   1.029   3.563   1.534
 3001TIP3   OH2 8947   2.172   4.979   4.240
 3001TIP3    H1 8948   2.119   5.013   4.312
 3001TIP3    H2 8949   2.185   4.886   4.261
 3002TIP3   OH2 8950   7.399   2.786   6.310
 3002TIP3    H1 8951   7.438   2.699   6.304
 3002TIP3    H2 8952   7.436   2.823   6.391
 3003TIP3   OH2 8953   1.894   0.471   1.547
 3003TIP3    H1 8954   1.836   0.533   1.504
 3003TIP3    H2 8955   1.981   0.509   1.539
 3004TIP3   OH2 8956   0.283   1.284   0.206
 3004TIP3    H1 8957   0.245   1.235   0.279
 3004TIP3    H2 8958   0.207   1.311   0.154
 3005TIP3   OH2 8959   2.977   1.347   1.133
 3005TIP3    H1 8960   2.899   1.381   1.176
 3005TIP3    H2 8961   2.948   1.266   1.091
 3006TIP3   OH2 8962   5.697   7.551   4.357
 3006TIP3    H1 8963   5.606   7.522   4.348
 3006TIP3    H2 8964   5.749   7.476   4.327
 3007TIP3   OH2 8965   5.261   7.385   2.228
 3007TIP3    H1 8966   5.340   7.375   2.280
 3007TIP3    H2 8967   5.194   7.337   2.276
 3008TIP3   OH2 8968   2.444   2.484   2.350
 3008TIP3    H1 8969   2.514   2.483   2.285
 3008TIP3    H2 8970   2.450   2.571   2.390
 3009TIP3   OH2 8971   4.298   5.778   6.344
 3009TIP3    H1 8972   4.281   5.686   6.323
 3009TIP3    H2 8973   4.356   5.775   6.420
 3010TIP3   OH2 8974   7.115   2.639   3.792
 3010TIP3    H1 8975   7.119   2.582   3.869
 3010TIP3    H2 8976   7.092   2.580   3.720
 3011TIP3   OH2 8977   0.369   1.815   4.621
 3011TIP3    H1 8978   0.405   1.767   4.547
 3011TIP3    H2 8979   0.286   1.771   4.641
 3012TIP3   OH2 8980   6.596   7.120   4.728
 3012TIP3    H1 8981   6.539   7.044   4.713
 3012TIP3    H2 8982   6.541   7.196   4.709
 3013TIP3   OH2 8983   2.211   3.443   1.382
 3013TIP3    H1 8984   2.279   3.376   1.384
 3013TIP3    H2 8985   2.195   3.463   1.475
 3014TIP3   OH2 8986   5.429   7.449   3.240
 3014TIP3    H1 8987   5.378   7.423   3.316
 3014TIP3    H2 8988   5.504   7.389   3.238
 3015TIP3   OH2 8989   4.620   3.549   1.423
 3015TIP3    H1 8990   4.689   3.575   1.362
 3015TIP3    H2 8991   4.662   3.553   1.509
 3016TIP3   OH2 8992   5.725   1.635   5.644
 3016TIP3    H1 8993   5.733   1.644   5.739
 3016TIP3    H2 8994   5.633   1.651   5.626
 3017TIP3   OH2 8995   2.198   5.470   4.756
 3017TIP3    H1 8996   2.248   5.392   4.730
 3017TIP3    H2 8997   2.238   5.541   4.706
 3018TIP3   OH2 8998   5.110   2.420   1.285
 3018TIP3    H1 8999   5.016   2.430   1.268
 3018TIP3    H2 9000   5.131   2.490   1.347
 3019TIP3   OH2 9001   4.644   2.494   6.141
 3019TIP3    H1 9002   4.698   2.436   6.194
 3019TIP3    H2 9003   4.704   2.529   6.075
 3020TIP3   OH2 9004   2.022   3.465   2.581
 3020TIP3    H1 9005   2.056   3.553   2.566
 3020TIP3    H2 9006   1.927   3.476   2.581
 3021TIP3   OH2 9007   6.981   7.062   3.728
 3021TIP3    H1 9008   7.061   7.088   3.683
 3021TIP3    H2 9009   6.958   6.978   3.689
 3022TIP3   OH2 9010   6.932   5.517   3.310
 3022TIP3    H1 9011   6.861   5.547   3.367
 3022TIP3    H2 9012   6.914   5.558   3.225
 3023TIP3   OH2 9013   5.013   5.328   0.392
 3023TIP3    H1 9014   5.005   5.260   0.458
 3023TIP3    H2 9015   5.079   5.295   0.331
 3024TIP3   OH2 9016   6.555   7.533   3.014
 3024TIP3    H1 9017   6.582   7.519   2.923
 3024TIP3    H2 9018   6.604   7.467   3.063
 3025TIP3   OH2 9019   6.149   7.137   0.142
 3025TIP3    H1 9020   6.202   7.100   0.213
 3025TIP3    H2 9021   6.059   7.123   0.171
 3026TIP3   OH2 9022   7.753   3.025   0.434
 3026TIP3    H1 9023   7.835   2.976   0.425
 3026TIP3    H2 9024   7.777   3.116   0.417
 3027TIP3   OH2 9025   1.710   1.460   0.749
 3027TIP3    H1 9026   1.636   1.473   0.809
 3027TIP3    H2 9027   1.686   1.383   0.697
 3028TIP3   OH2 9028   3.925   5.354   6.085
 3028TIP3    H1 9029   3.841   5.399   6.072
 3028TIP3    H2 9030   3.980   5.386   6.013
 3029TIP3   OH2 9031   5.922   2.825   5.751
 3029TIP3    H1 9032   6.009   2.785   5.749
 3029TIP3    H2 9033   5.902   2.843   5.660
 3030TIP3   OH2 9034   4.954   4.218   2.167
 3030TIP3    H1 9035   4.993   4.304   2.151
 3030TIP3    H2 9036   4.923   4.189   2.082
 3031TIP3   OH2 9037   4.693   2.082   2.341
 3031TIP3    H1 9038   4.626   2.102   2.275
 3031TIP3    H2 9039   4.680   1.989   2.360
 3032TIP3   OH2 9040   0.568   3.579   5.176
 3032TIP3    H1 9041   0.541   3.586   5.085
 3032TIP3    H2 9042   0.487   3.566   5.225
 3033TIP3   OH2 9043   5.045   3.403   5.716
 3033TIP3    H1 9044   5.064   3.388   5.808
 3033TIP3    H2 9045   5.127   3.435   5.679
 3034TIP3   OH2 9046   4.636   0.139   5.098
 3034TIP3    H1 9047   4.638   0.148   5.003
 3034TIP3    H2 9048   4.712   0.188   5.129
 3035TIP3   OH2 9049   4.964   1.611   5.534
 3035TIP3    H1 9050   4.932   1.681   5.477
 3035TIP3    H2 9051   5.027   1.654   5.592
 3036TIP3   OH2 9052   4.479   2.286   4.617
 3036TIP3    H1 9053   4.562   2.285   4.665
 3036TIP3    H2 9054   4.504   2.268   4.526
 3037TIP3   OH2 9055   7.467   1.940   0.967
 3037TIP3    H1 9056   7.448   1.999   1.040
 3037TIP3    H2 9057   7.402   1.963   0.900
 3038TIP3   OH2 9058   2.757   2.891   1.349
 3038TIP3    H1 9059   2.824   2.839   1.392
 3038TIP3    H2 9060   2.783   2.892   1.256
 3039TIP3   OH2 9061   1.867   1.472   2.399
 3039TIP3    H1 9062   1.865   1.441   2.490
 3039TIP3    H2 9063   1.865   1.568   2.407
 3040TIP3   OH2 9064   7.968   0.974   5.675
 3040TIP3    H1 9065   7.927   0.969   5.762
 3040TIP3    H2 9066   8.027   1.049   5.680
 3041TIP3   OH2 9067   5.042   4.228   1.228
 3041TIP3    H1 9068   4.947   4.239   1.229
 3041TIP3    H2 9069   5.072   4.286   1.158
 3042TIP3   OH2 9070   2.829   3.751   2.227
 3042TIP3    H1 9071   2.802   3.660   2.236
 3042TIP3    H2 9072   2.749   3.797   2.199
 3043TIP3   OH2 9073   6.355   4.041   3.143
 3043TIP3    H1 9074   6.445   4.021   3.120
 3043TIP3    H2 9075   6.304   3.969   3.106
 3044TIP3   OH2 9076   4.825   5.375   5.927
 3044TIP3    H1 9077   4.854   5.381   6.018
 3044TIP3    H2 9078   4.733   5.402   5.930
 3045TIP3   OH2 9079   1.517   6.619   0.979
 3045TIP3    H1 9080   1.520   6.525   0.957
 3045TIP3    H2 9081   1.575   6.628   1.055
 3046TIP3   OH2 9082   0.043   4.177   1.697
 3046TIP3    H1 9083   0.077   4.237   1.763
 3046TIP3    H2 9084   0.071   4.090   1.727
 3047TIP3   OH2 9085   6.018   1.841   4.073
 3047TIP3    H1 9086   6.057   1.876   3.993
 3047TIP3    H2 9087   6.084   1.854   4.140
 3048TIP3   OH2 9088   0.254   3.535   3.340
 3048TIP3    H1 9089   0.308   3.608   3.308
 3048TIP3    H2 9090   0.180   3.577   3.384
 3049TIP3   OH2 9091   3.758   1.677   5.753
 3049TIP3    H1 9092   3.751   1.585   5.726
 3049TIP3    H2 9093   3.725   1.726   5.678
 3050TIP3   OH2 9094   0.712   6.568   5.840
 3050TIP3    H1 9095   0.729   6.495   5.900
 3050TIP3    H2 9096   0.739   6.646   5.889
 3051TIP3   OH2 9097   2.853   4.283   3.312
 3051TIP3    H1 9098   2.849   4.199   3.359
 3051TIP3    H2 9099   2.875   4.347   3.379
 3052TIP3   OH2 9100   3.946   3.313   3.292
 3052TIP3    H1 9101   4.027   3.295   3.244
 3052TIP3    H2 9102   3.963   3.393   3.341
 3053TIP3   OH2 9103   3.836   2.103   6.436
 3053TIP3    H1 9104   3.814   2.099   6.343
 3053TIP3    H2 9105   3.903   2.170   6.443
 3054TIP3   OH2 9106   6.712   6.400   6.635
 3054TIP3    H1 9107   6.664   6.482   6.639
 3054TIP3    H2 9108   6.658   6.338   6.684
 3055TIP3   OH2 9109   0.972   7.594   4.300
 3055TIP3    H1 9110   0.938   7.602   4.210
 3055TIP3    H2 9111   1.046   7.535   4.292
 3056TIP3   OH2 9112   6.839   4.512   6.399
 3056TIP3    H1 9113   6.842   4.522   6.304
 3056TIP3    H2 9114   6.921   4.467   6.420
 3057TIP3   OH2 9115   6.166   4.934   4.418
 3057TIP3    H1 9116   6.133   4.852   4.382
 3057TIP3    H2 9117   6.250   4.911   4.457
 3058TIP3   OH2 9118   6.895   5.125   3.541
 3058TIP3    H1 9119   6.812   5.076   3.538
 3058TIP3    H2 9120   6.900   5.168   3.456
 3059TIP3   OH2 9121   4.096   4.085   5.137
 3059TIP3    H1 9122   4.126   4.115   5.052
 3059TIP3    H2 9123   4.176   4.058   5.183
 3060TIP3   OH2 9124   4.966   4.507   5.865
 3060TIP3    H1 9125   4.914   4.546   5.795
 3060TIP3    H2 9126   5.017   4.580   5.900
 3061TIP3   OH2 9127   2.367   2.887   5.967
 3061TIP3    H1 9128   2.437   2.825   5.989
 3061TIP3    H2 9129   2.356   2.879   5.873
 3062TIP3   OH2 9130   5.190   6.966   5.578
 3062TIP3    H1 9131   5.119   6.913   5.613
 3062TIP3    H2 9132   5.200   6.935   5.488
 3063TIP3   OH2 9133   7.613   3.296   4.590
 3063TIP3    H1 9134   7.601   3.316   4.683
 3063TIP3    H2 9135   7.537   3.335   4.547
 3064TIP3   OH2 9136   6.547   5.598   2.077
 3064TIP3    H1 9137   6.497   5.633   2.150
 3064TIP3    H2 9138   6.491   5.611   2.001
 3065TIP3   OH2 9139   6.334   7.846  -0.014
 3065TIP3    H1 9140   6.419   7.812   0.014
 3065TIP3    H2 9141   6.272   7.778   0.011
 3066TIP3   OH2 9142   6.978   0.928   4.503
 3066TIP3    H1 9143   6.994   0.877   4.583
 3066TIP3    H2 9144   6.904   0.884   4.462
 3067TIP3   OH2 9145   2.907   3.261   1.192
 3067TIP3    H1 9146   2.914   3.186   1.134
 3067TIP3    H2 9147   2.995   3.275   1.225
 3068TIP3   OH2 9148   2.568   1.115   0.271
 3068TIP3    H1 9149   2.583   1.070   0.355
 3068TIP3    H2 9150   2.491   1.169   0.287
 3069TIP3   OH2 9151   6.054   0.682   2.196
 3069TIP3    H1 9152   6.098   0.607   2.155
 3069TIP3    H2 9153   5.971   0.648   2.228
 3070TIP3   OH2 9154   3.439   1.262   4.801
 3070TIP3    H1 9155   3.386   1.263   4.881
 3070TIP3    H2 9156   3.518   1.311   4.824
 3071TIP3   OH2 9157   0.861   1.181   2.431
 3071TIP3    H1 9158   0.899   1.237   2.499
 3071TIP3    H2 9159   0.768   1.177   2.454
 3072TIP3   OH2 9160   4.831   3.661   3.533
 3072TIP3    H1 9161   4.793   3.673   3.446
 3072TIP3    H2 9162   4.926   3.668   3.519
 3073TIP3   OH2 9163   7.570   1.292   0.685
 3073TIP3    H1 9164   7.660   1.285   0.653
 3073TIP3    H2 9165   7.568   1.233   0.761
 3074TIP3   OH2 9166   4.374   4.179   3.571
 3074TIP3    H1 9167   4.312   4.174   3.498
 3074TIP3    H2 9168   4.321   4.202   3.647
 3075TIP3   OH2 9169   0.130   1.403   0.429
 3075TIP3    H1 9170   0.173   1.325   0.465
 3075TIP3    H2 9171   0.038   1.378   0.419
 3076TIP3   OH2 9172   8.150   4.660   6.330
 3076TIP3    H1 9173   8.118   4.604   6.259
 3076TIP3    H2 9174   8.122   4.616   6.410
 3077TIP3   OH2 9175   7.085   1.093   2.450
 3077TIP3    H1 9176   7.002   1.140   2.452
 3077TIP3    H2 9177   7.129   1.126   2.371
 3078TIP3   OH2 9178   3.045   3.792   5.183
 3078TIP3    H1 9179   3.056   3.750   5.097
 3078TIP3    H2 9180   2.952   3.814   5.186
 3079TIP3   OH2 9181   5.383   6.361   2.988
 3079TIP3    H1 9182   5.304   6.414   3.000
 3079TIP3    H2 9183   5.350   6.277   2.956
 3080TIP3   OH2 9184   1.560   2.382   5.293
 3080TIP3    H1 9185   1.530   2.311   5.349
 3080TIP3    H2 9186   1.590   2.450   5.354
 3081TIP3   OH2 9187   5.560   6.521   6.233
 3081TIP3    H1 9188   5.542   6.428   6.245
 3081TIP3    H2 9189   5.561   6.533   6.138
 3082TIP3   OH2 9190   6.936   6.339   4.185
 3082TIP3    H1 9191   6.887   6.261   4.213
 3082TIP3    H2 9192   6.995   6.307   4.117
 3083TIP3   OH2 9193   3.910   7.093   2.815
 3083TIP3    H1 9194   3.835   7.106   2.757
 3083TIP3    H2 9195   3.987   7.113   2.760
 3084TIP3   OH2 9196   7.588   7.461   0.319
 3084TIP3    H1 9197   7.564   7.511   0.241
 3084TIP3    H2 9198   7.567   7.519   0.392
 3085TIP3   OH2 9199   6.441   0.987   2.685
 3085TIP3    H1 9200   6.393   0.920   2.636
 3085TIP3    H2 9201   6.509   1.017   2.624
 3086TIP3   OH2 9202   1.249   3.695   6.675
 3086TIP3    H1 9203   1.339   3.726   6.665
 3086TIP3    H2 9204   1.235   3.691   6.770
 3087TIP3   OH2 9205   4.292   0.614   5.359
 3087TIP3    H1 9206   4.295   0.518   5.363
 3087TIP3    H2 9207   4.370   0.642   5.407
 3088TIP3   OH2 9208   8.151   3.736   0.640
 3088TIP3    H1 9209   8.097   3.760   0.715
 3088TIP3    H2 9210   8.220   3.681   0.677
 3089TIP3   OH2 9211   0.089   6.270   0.936
 3089TIP3    H1 9212   0.070   6.185   0.975
 3089TIP3    H2 9213   0.183   6.284   0.951
 3090TIP3   OH2 9214   1.214   2.904   4.765
 3090TIP3    H1 9215   1.237   2.857   4.845
 3090TIP3    H2 9216   1.147   2.850   4.724
 3091TIP3   OH2 9217   1.821   4.990   4.824
 3091TIP3    H1 9218   1.843   5.063   4.881
 3091TIP3    H2 9219   1.728   4.974   4.839
 3092TIP3   OH2 9220   1.815   2.852   3.503
 3092TIP3    H1 9221   1.779   2.776   3.458
 3092TIP3    H2 9222   1.775   2.927   3.458
 3093TIP3   OH2 9223   5.591   1.010   1.744
 3093TIP3    H1 9224   5.639   1.000   1.826
 3093TIP3    H2 9225   5.643   1.074   1.694
 3094TIP3   OH2 9226   4.249   0.618   3.492
 3094TIP3    H1 9227   4.328   0.564   3.497
 3094TIP3    H2 9228   4.186   0.564   3.444
 3095TIP3   OH2 9229   3.350   0.206   2.611
 3095TIP3    H1 9230   3.354   0.112   2.593
 3095TIP3    H2 9231   3.274   0.216   2.668
 3096TIP3   OH2 9232   8.091   7.754   1.722
 3096TIP3    H1 9233   8.020   7.811   1.693
 3096TIP3    H2 9234   8.145   7.741   1.644
 3097TIP3   OH2 9235   7.618   2.164   3.767
 3097TIP3    H1 9236   7.527   2.177   3.793
 3097TIP3    H2 9237   7.643   2.247   3.725
 3098TIP3   OH2 9238   1.287   6.671   3.658
 3098TIP3    H1 9239   1.311   6.648   3.748
 3098TIP3    H2 9240   1.198   6.704   3.664
 3099TIP3   OH2 9241   5.901   1.872   6.237
 3099TIP3    H1 9242   5.921   1.949   6.184
 3099TIP3    H2 9243   5.986   1.834   6.257
 3100TIP3   OH2 9244   1.858   6.751   2.931
 3100TIP3    H1 9245   1.844   6.799   2.849
 3100TIP3    H2 9246   1.928   6.799   2.974
 3101TIP3   OH2 9247   3.878   1.935   2.341
 3101TIP3    H1 9248   3.871   1.888   2.424
 3101TIP3    H2 9249   3.955   1.897   2.298
 3102TIP3   OH2 9250   8.124   5.927   3.205
 3102TIP3    H1 9251   8.191   5.990   3.232
 3102TIP3    H2 9252   8.108   5.875   3.283
 3103TIP3   OH2 9253   6.309   6.065   2.702
 3103TIP3    H1 9254   6.323   6.112   2.784
 3103TIP3    H2 9255   6.263   5.985   2.727
 3104TIP3   OH2 9256   6.301   5.522   4.596
 3104TIP3    H1 9257   6.272   5.431   4.609
 3104TIP3    H2 9258   6.263   5.548   4.513
 3105TIP3   OH2 9259   0.343   4.762   6.459
 3105TIP3    H1 9260   0.413   4.826   6.443
 3105TIP3    H2 9261   0.266   4.800   6.415
 3106TIP3   OH2 9262   4.609   7.357   2.034
 3106TIP3    H1 9263   4.562   7.293   1.981
 3106TIP3    H2 9264   4.684   7.383   1.980
 3107TIP3   OH2 9265   7.418   1.676   1.139
 3107TIP3    H1 9266   7.423   1.763   1.099
 3107TIP3    H2 9267   7.508   1.657   1.166
 3108TIP3   OH2 9268   4.164   2.476   5.676
 3108TIP3    H1 9269   4.089   2.516   5.720
 3108TIP3    H2 9270   4.232   2.472   5.743
 3109TIP3   OH2 9271   0.479   0.536   1.530
 3109TIP3    H1 9272   0.570   0.535   1.557
 3109TIP3    H2 9273   0.477   0.488   1.447
 3110TIP3   OH2 9274   4.301   5.893   3.181
 3110TIP3    H1 9275   4.267   5.975   3.146
 3110TIP3    H2 9276   4.286   5.829   3.111
 3111TIP3   OH2 9277   3.648   1.340   4.109
 3111TIP3    H1 9278   3.600   1.419   4.083
 3111TIP3    H2 9279   3.718   1.372   4.165
 3112TIP3   OH2 9280   6.689   2.165   0.154
 3112TIP3    H1 9281   6.702   2.143   0.061
 3112TIP3    H2 9282   6.748   2.238   0.170
 3113TIP3   OH2 9283   3.532   4.581   2.830
 3113TIP3    H1 9284   3.519   4.635   2.753
 3113TIP3    H2 9285   3.609   4.527   2.810
 3114TIP3   OH2 9286   4.538   0.949   3.694
 3114TIP3    H1 9287   4.629   0.955   3.721
 3114TIP3    H2 9288   4.493   0.913   3.770
 3115TIP3   OH2 9289   7.561   6.010   0.511
 3115TIP3    H1 9290   7.616   6.082   0.480
 3115TIP3    H2 9291   7.472   6.047   0.512
 3116TIP3   OH2 9292   1.247   6.673   3.389
 3116TIP3    H1 9293   1.291   6.747   3.347
 3116TIP3    H2 9294   1.262   6.687   3.483
 3117TIP3   OH2 9295   1.397   1.947   6.303
 3117TIP3    H1 9296   1.356   2.018   6.353
 3117TIP3    H2 9297   1.474   1.987   6.263
 3118TIP3   OH2 9298   5.738   4.457   6.338
 3118TIP3    H1 9299   5.745   4.547   6.370
 3118TIP3    H2 9300   5.665   4.459   6.276
 3119TIP3   OH2 9301   5.407   5.728   3.237
 3119TIP3    H1 9302   5.486   5.696   3.194
 3119TIP3    H2 9303   5.424   5.720   3.330
 3120TIP3   OH2 9304   4.405   2.908   1.837
 3120TIP3    H1 9305   4.463   2.982   1.856
 3120TIP3    H2 9306   4.323   2.948   1.808
 3121TIP3   OH2 9307   6.207   3.399   3.913
 3121TIP3    H1 9308   6.293   3.357   3.920
 3121TIP3    H2 9309   6.158   3.366   3.988
 3122TIP3   OH2 9310   0.628   5.151   3.137
 3122TIP3    H1 9311   0.718   5.176   3.119
 3122TIP3    H2 9312   0.575   5.221   3.098
 3123TIP3   OH2 9313   6.194   3.248   6.257
 3123TIP3    H1 9314   6.266   3.204   6.302
 3123TIP3    H2 9315   6.236   3.307   6.194
 3124TIP3   OH2 9316   0.370   4.646   6.703
 3124TIP3    H1 9317   0.387   4.675   6.613
 3124TIP3    H2 9318   0.281   4.675   6.720
 3125TIP3   OH2 9319   2.716   6.276   1.316
 3125TIP3    H1 9320   2.632   6.231   1.301
 3125TIP3    H2 9321   2.726   6.276   1.411
 3126TIP3   OH2 9322   6.178   4.174   5.838
 3126TIP3    H1 9323   6.178   4.090   5.792
 3126TIP3    H2 9324   6.140   4.236   5.775
 3127TIP3   OH2 9325   5.463   6.921   3.146
 3127TIP3    H1 9326   5.380   6.883   3.116
 3127TIP3    H2 9327   5.528   6.853   3.129
 3128TIP3   OH2 9328   0.258   0.452   5.629
 3128TIP3    H1 9329   0.185   0.407   5.673
 3128TIP3    H2 9330   0.221   0.535   5.600
 3129TIP3   OH2 9331   7.011   5.990   5.692
 3129TIP3    H1 9332   7.064   5.940   5.755
 3129TIP3    H2 9333   6.984   6.068   5.741
 3130TIP3   OH2 9334   6.277   4.816   3.795
 3130TIP3    H1 9335   6.189   4.807   3.832
 3130TIP3    H2 9336   6.265   4.870   3.718
 3131TIP3   OH2 9337   2.441   7.336   0.581
 3131TIP3    H1 9338   2.405   7.283   0.509
 3131TIP3    H2 9339   2.381   7.321   0.654
 3132TIP3   OH2 9340   7.825   4.797   5.203
 3132TIP3    H1 9341   7.835   4.881   5.158
 3132TIP3    H2 9342   7.738   4.766   5.177
 3133TIP3   OH2 9343   1.432   3.074   1.568
 3133TIP3    H1 9344   1.442   2.985   1.601
 3133TIP3    H2 9345   1.507   3.086   1.510
 3134TIP3   OH2 9346   3.184   5.884   2.546
 3134TIP3    H1 9347   3.170   5.952   2.612
 3134TIP3    H2 9348   3.276   5.862   2.553
 3135TIP3   OH2 9349   2.314   6.279   5.198
 3135TIP3    H1 9350   2.394   6.326   5.177
 3135TIP3    H2 9351   2.245   6.347   5.194
 3136TIP3   OH2 9352   4.765   0.184   2.580
 3136TIP3    H1 9353   4.708   0.206   2.506
 3136TIP3    H2 9354   4.844   0.235   2.567
 3137TIP3   OH2 9355   3.086   4.027   5.579
 3137TIP3    H1 9356   3.009   3.971   5.566
 3137TIP3    H2 9357   3.139   4.013   5.500
 3138TIP3   OH2 9358   4.188   0.838   1.694
 3138TIP3    H1 9359   4.195   0.910   1.757
 3138TIP3    H2 9360   4.184   0.882   1.609
 3139TIP3   OH2 9361   6.012   2.406   3.041
 3139TIP3    H1 9362   6.059   2.478   2.999
 3139TIP3    H2 9363   5.992   2.346   2.969
 3140TIP3   OH2 9364   3.097   1.688   2.185
 3140TIP3    H1 9365   3.156   1.747   2.139
 3140TIP3    H2 9366   3.154   1.639   2.245
 3141TIP3   OH2 9367   0.074   6.949   2.857
 3141TIP3    H1 9368   0.104   6.860   2.839
 3141TIP3    H2 9369   0.026   6.943   2.939
 3142TIP3   OH2 9370   2.453   6.653   4.625
 3142TIP3    H1 9371   2.423   6.716   4.691
 3142TIP3    H2 9372   2.427   6.568   4.661
 3143TIP3   OH2 9373   0.877   0.577   2.364
 3143TIP3    H1 9374   0.914   0.496   2.330
 3143TIP3    H2 9375   0.823   0.611   2.292
 3144TIP3   OH2 9376   4.648   0.253   1.021
 3144TIP3    H1 9377   4.584   0.184   1.039
 3144TIP3    H2 9378   4.609   0.304   0.950
 3145TIP3   OH2 9379   5.405   3.901   2.408
 3145TIP3    H1 9380   5.422   3.977   2.464
 3145TIP3    H2 9381   5.383   3.831   2.469
 3146TIP3   OH2 9382   2.648   1.709   0.907
 3146TIP3    H1 9383   2.629   1.621   0.875
 3146TIP3    H2 9384   2.700   1.749   0.837
 3147TIP3   OH2 9385   2.755   3.771   4.161
 3147TIP3    H1 9386   2.702   3.841   4.201
 3147TIP3    H2 9387   2.836   3.771   4.211
 3148TIP3   OH2 9388   6.078   2.066   0.369
 3148TIP3    H1 9389   6.139   2.106   0.431
 3148TIP3    H2 9390   6.115   1.980   0.351
 3149TIP3   OH2 9391   2.562   7.759   6.538
 3149TIP3    H1 9392   2.585   7.696   6.470
 3149TIP3    H2 9393   2.554   7.707   6.618
 3150TIP3   OH2 9394   4.466   6.091   2.265
 3150TIP3    H1 9395   4.513   6.082   2.183
 3150TIP3    H2 9396   4.390   6.033   2.255
 3151TIP3   OH2 9397   5.245   6.718   2.635
 3151TIP3    H1 9398   5.201   6.785   2.582
 3151TIP3    H2 9399   5.338   6.738   2.627
 3152TIP3   OH2 9400   1.882   5.553   4.253
 3152TIP3    H1 9401   1.846   5.466   4.272
 3152TIP3    H2 9402   1.925   5.543   4.168
 3153TIP3   OH2 9403   6.240   6.279   6.466
 3153TIP3    H1 9404   6.159   6.329   6.474
 3153TIP3    H2 9405   6.221   6.211   6.402
 3154TIP3   OH2 9406   4.324   2.680   4.053
 3154TIP3    H1 9407   4.377   2.742   4.103
 3154TIP3    H2 9408   4.387   2.635   3.996
 3155TIP3   OH2 9409   5.111   1.887   0.613
 3155TIP3    H1 9410   5.092   1.849   0.699
 3155TIP3    H2 9411   5.029   1.880   0.565
 3156TIP3   OH2 9412   1.011   0.894   5.253
 3156TIP3    H1 9413   1.033   0.987   5.247
 3156TIP3    H2 9414   0.915   0.892   5.262
 3157TIP3   OH2 9415   7.838   2.539   2.496
 3157TIP3    H1 9416   7.847   2.488   2.576
 3157TIP3    H2 9417   7.883   2.487   2.429
 3158TIP3   OH2 9418   2.703   0.234   3.921
 3158TIP3    H1 9419   2.718   0.324   3.891
 3158TIP3    H2 9420   2.709   0.181   3.841
 3159TIP3   OH2 9421   2.811   6.073   2.693
 3159TIP3    H1 9422   2.805   6.153   2.640
 3159TIP3    H2 9423   2.767   6.007   2.640
 3160TIP3   OH2 9424   7.032   7.804   6.247
 3160TIP3    H1 9425   6.963   7.863   6.277
 3160TIP3    H2 9426   6.986   7.724   6.221
 3161TIP3   OH2 9427   3.051   6.983   6.647
 3161TIP3    H1 9428   3.079   7.074   6.657
 3161TIP3    H2 9429   2.959   6.988   6.622
 3162TIP3   OH2 9430   0.963   2.160   2.296
 3162TIP3    H1 9431   1.007   2.114   2.225
 3162TIP3    H2 9432   1.023   2.154   2.370
 3163TIP3   OH2 9433   6.969   7.349   3.362
 3163TIP3    H1 9434   7.020   7.305   3.293
 3163TIP3    H2 9435   6.988   7.442   3.350
 3164TIP3   OH2 9436   2.811   4.978   0.930
 3164TIP3    H1 9437   2.887   4.975   0.872
 3164TIP3    H2 9438   2.753   5.043   0.889
 3165TIP3   OH2 9439   4.301   0.561   4.828
 3165TIP3    H1 9440   4.342   0.475   4.817
 3165TIP3    H2 9441   4.357   0.606   4.890
 3166TIP3   OH2 9442   6.709   5.579   1.842
 3166TIP3    H1 9443   6.674   5.491   1.828
 3166TIP3    H2 9444   6.655   5.616   1.911
 3167TIP3   OH2 9445   3.879   0.999   5.171
 3167TIP3    H1 9446   3.844   0.914   5.199
 3167TIP3    H2 9447   3.842   1.062   5.233
 3168TIP3   OH2 9448   1.274   6.448   2.353
 3168TIP3    H1 9449   1.297   6.486   2.438
 3168TIP3    H2 9450   1.184   6.416   2.365
 3169TIP3   OH2 9451   6.186   6.381   4.911
 3169TIP3    H1 9452   6.148   6.426   4.986
 3169TIP3    H2 9453   6.263   6.434   4.888
 3170TIP3   OH2 9454   3.445   2.135   0.845
 3170TIP3    H1 9455   3.386   2.060   0.844
 3170TIP3    H2 9456   3.475   2.141   0.936
 3171TIP3   OH2 9457   1.735   3.646   3.188
 3171TIP3    H1 9458   1.660   3.586   3.189
 3171TIP3    H2 9459   1.799   3.602   3.131
 3172TIP3   OH2 9460   7.746   5.705   6.157
 3172TIP3    H1 9461   7.755   5.687   6.063
 3172TIP3    H2 9462   7.670   5.762   6.164
 3173TIP3   OH2 9463   6.009   7.161   1.546
 3173TIP3    H1 9464   5.945   7.222   1.510
 3173TIP3    H2 9465   6.082   7.215   1.574
 3174TIP3   OH2 9466   7.883   1.283   0.685
 3174TIP3    H1 9467   7.948   1.220   0.715
 3174TIP3    H2 9468   7.862   1.256   0.595
 3175TIP3   OH2 9469   8.099   2.239   6.123
 3175TIP3    H1 9470   8.177   2.248   6.178
 3175TIP3    H2 9471   8.026   2.260   6.181
 3176TIP3   OH2 9472   0.671   1.563   3.971
 3176TIP3    H1 9473   0.727   1.604   3.906
 3176TIP3    H2 9474   0.623   1.636   4.011
 3177TIP3   OH2 9475   0.397   3.146   6.693
 3177TIP3    H1 9476   0.450   3.104   6.625
 3177TIP3    H2 9477   0.439   3.120   6.775
 3178TIP3   OH2 9478   3.840   5.397   1.892
 3178TIP3    H1 9479   3.779   5.460   1.930
 3178TIP3    H2 9480   3.914   5.451   1.861
 3179TIP3   OH2 9481   3.784   7.728   4.267
 3179TIP3    H1 9482   3.701   7.705   4.224
 3179TIP3    H2 9483   3.758   7.753   4.356
 3180TIP3   OH2 9484   0.751   4.670   3.833
 3180TIP3    H1 9485   0.751   4.719   3.916
 3180TIP3    H2 9486   0.711   4.731   3.770
 3181TIP3   OH2 9487   4.920   0.092   3.907
 3181TIP3    H1 9488   4.942   0.050   3.824
 3181TIP3    H2 9489   4.842   0.046   3.937
 3182TIP3   OH2 9490   7.292   7.004   6.217
 3182TIP3    H1 9491   7.248   7.062   6.154
 3182TIP3    H2 9492   7.231   6.931   6.228
 3183TIP3   OH2 9493   0.505   1.365   4.061
 3183TIP3    H1 9494   0.564   1.429   4.023
 3183TIP3    H2 9495   0.562   1.310   4.116
 3184TIP3   OH2 9496   3.044   5.057   2.439
 3184TIP3    H1 9497   3.080   4.969   2.447
 3184TIP3    H2 9498   2.959   5.045   2.397
 3185TIP3   OH2 9499   7.344   4.017   5.858
 3185TIP3    H1 9500   7.403   3.953   5.819
 3185TIP3    H2 9501   7.293   3.967   5.922
 3186TIP3   OH2 9502   0.551   5.817   0.278
 3186TIP3    H1 9503   0.565   5.741   0.334
 3186TIP3    H2 9504   0.605   5.800   0.201
 3187TIP3   OH2 9505   1.751   4.841   1.728
 3187TIP3    H1 9506   1.779   4.814   1.641
 3187TIP3    H2 9507   1.719   4.761   1.770
 3188TIP3   OH2 9508   3.996   0.394   1.342
 3188TIP3    H1 9509   4.092   0.396   1.349
 3188TIP3    H2 9510   3.966   0.452   1.411
 3189TIP3   OH2 9511   2.797   1.893   3.081
 3189TIP3    H1 9512   2.750   1.824   3.035
 3189TIP3    H2 9513   2.734   1.966   3.086
 3190TIP3   OH2 9514   5.439   6.649   3.950
 3190TIP3    H1 9515   5.520   6.598   3.938
 3190TIP3    H2 9516   5.462   6.714   4.017
 3191TIP3   OH2 9517   6.257   3.850   2.842
 3191TIP3    H1 9518   6.203   3.875   2.768
 3191TIP3    H2 9519   6.195   3.836   2.914
 3192TIP3   OH2 9520   0.687   1.058   4.573
 3192TIP3    H1 9521   0.770   1.106   4.572
 3192TIP3    H2 9522   0.620   1.123   4.551
 3193TIP3   OH2 9523   5.177   3.567   0.096
 3193TIP3    H1 9524   5.088   3.593   0.121
 3193TIP3    H2 9525   5.164   3.507   0.022
 3194TIP3   OH2 9526   1.551   2.216   4.714
 3194TIP3    H1 9527   1.463   2.195   4.682
 3194TIP3    H2 9528   1.578   2.293   4.664
 3195TIP3   OH2 9529   2.068   4.271   5.508
 3195TIP3    H1 9530   1.990   4.314   5.475
 3195TIP3    H2 9531   2.071   4.294   5.601
 3196TIP3   OH2 9532   6.901   4.627   1.781
 3196TIP3    H1 9533   6.874   4.652   1.869
 3196TIP3    H2 9534   6.819   4.610   1.734
 3197TIP3   OH2 9535   6.754   3.499   2.291
 3197TIP3    H1 9536   6.782   3.520   2.202
 3197TIP3    H2 9537   6.823   3.441   2.324
 3198TIP3   OH2 9538   0.689   5.847   0.817
 3198TIP3    H1 9539   0.664   5.793   0.892
 3198TIP3    H2 9540   0.668   5.794   0.740
 3199TIP3   OH2 9541   1.516   5.686   0.027
 3199TIP3    H1 9542   1.535   5.616  -0.037
 3199TIP3    H2 9543   1.594   5.741   0.025
 3200TIP3   OH2 9544   1.885   3.990   4.478
 3200TIP3    H1 9545   1.886   3.899   4.449
 3200TIP3    H2 9546   1.798   4.003   4.515
 3201TIP3   OH2 9547   4.497   0.145   4.361
 3201TIP3    H1 9548   4.528   0.207   4.427
 3201TIP3    H2 9549   4.457   0.074   4.411
 3202TIP3   OH2 9550   2.199   6.418   2.474
 3202TIP3    H1 9551   2.170   6.364   2.401
 3202TIP3    H2 9552   2.186   6.362   2.551
 3203TIP3   OH2 9553   6.945   0.805   1.768
 3203TIP3    H1 9554   6.933   0.735   1.832
 3203TIP3    H2 9555   7.039   0.807   1.751
 3204TIP3   OH2 9556   1.948   7.152   0.836
 3204TIP3    H1 9557   1.862   7.151   0.794
 3204TIP3    H2 9558   1.974   7.244   0.834
 3205TIP3   OH2 9559   6.943   2.172   4.550
 3205TIP3    H1 9560   7.025   2.219   4.562
 3205TIP3    H2 9561   6.964   2.102   4.489
 3206TIP3   OH2 9562   1.426   5.686   0.423
 3206TIP3    H1 9563   1.413   5.760   0.481
 3206TIP3    H2 9564   1.497   5.713   0.365
 3207TIP3   OH2 9565   4.635   6.725   0.957
 3207TIP3    H1 9566   4.643   6.799   0.898
 3207TIP3    H2 9567   4.569   6.668   0.916
 3208TIP3   OH2 9568   2.813   2.034   3.966
 3208TIP3    H1 9569   2.844   1.981   4.040
 3208TIP3    H2 9570   2.861   2.116   3.974
 3209TIP3   OH2 9571   0.373   5.583   4.164
 3209TIP3    H1 9572   0.454   5.627   4.192
 3209TIP3    H2 9573   0.326   5.566   4.246
 3210TIP3   OH2 9574   3.644   6.254   6.297
 3210TIP3    H1 9575   3.577   6.286   6.235
 3210TIP3    H2 9576   3.723   6.247   6.244
 3211TIP3   OH2 9577   5.360   2.556   0.095
 3211TIP3    H1 9578   5.313   2.624   0.144
 3211TIP3    H2 9579   5.448   2.593   0.084
 3212TIP3   OH2 9580   3.626   0.963   3.418
 3212TIP3    H1 9581   3.642   0.964   3.513
 3212TIP3    H2 9582   3.713   0.970   3.379
 3213TIP3   OH2 9583   6.982   0.910   1.245
 3213TIP3    H1 9584   6.891   0.935   1.260
 3213TIP3    H2 9585   6.987   0.894   1.151
 3214TIP3   OH2 9586   2.621   5.703   2.836
 3214TIP3    H1 9587   2.605   5.609   2.850
 3214TIP3    H2 9588   2.669   5.731   2.914
 3215TIP3   OH2 9589   5.587   6.738   0.130
 3215TIP3    H1 9590   5.590   6.831   0.155
 3215TIP3    H2 9591   5.624   6.737   0.041
 3216TIP3   OH2 9592   3.634   4.701   4.275
 3216TIP3    H1 9593   3.708   4.642   4.261
 3216TIP3    H2 9594   3.610   4.688   4.367
 3217TIP3   OH2 9595   4.862   4.155   0.831
 3217TIP3    H1 9596   4.790   4.133   0.772
 3217TIP3    H2 9597   4.831   4.231   0.880
 3218TIP3   OH2 9598   0.447   3.274   0.820
 3218TIP3    H1 9599   0.387   3.242   0.888
 3218TIP3    H2 9600   0.390   3.306   0.750
 3219TIP3   OH2 9601   2.067   7.123   3.449
 3219TIP3    H1 9602   2.145   7.178   3.443
 3219TIP3    H2 9603   1.994   7.182   3.428
 3220TIP3   OH2 9604   5.376   0.055   3.875
 3220TIP3    H1 9605   5.428   0.093   3.946
 3220TIP3    H2 9606   5.339  -0.026   3.912
 3221TIP3   OH2 9607   1.444   0.316   3.735
 3221TIP3    H1 9608   1.361   0.362   3.751
 3221TIP3    H2 9609   1.504   0.352   3.801
 3222TIP3   OH2 9610   7.925   7.290   4.440
 3222TIP3    H1 9611   7.943   7.364   4.382
 3222TIP3    H2 9612   8.001   7.232   4.429
 3223TIP3   OH2 9613   0.116   1.150   6.114
 3223TIP3    H1 9614   0.113   1.188   6.027
 3223TIP3    H2 9615   0.063   1.208   6.169
 3224TIP3   OH2 9616   3.764   3.521   1.446
 3224TIP3    H1 9617   3.756   3.603   1.494
 3224TIP3    H2 9618   3.679   3.508   1.405
 3225TIP3   OH2 9619   5.578   5.111   4.115
 3225TIP3    H1 9620   5.605   5.019   4.120
 3225TIP3    H2 9621   5.579   5.140   4.206
 3226TIP3   OH2 9622   4.201   5.999   4.416
 3226TIP3    H1 9623   4.292   5.973   4.403
 3226TIP3    H2 9624   4.167   5.934   4.478
 3227TIP3   OH2 9625   4.288   7.412   2.812
 3227TIP3    H1 9626   4.282   7.463   2.731
 3227TIP3    H2 9627   4.382   7.401   2.827
 3228TIP3   OH2 9628   2.733   7.353   6.610
 3228TIP3    H1 9629   2.779   7.431   6.641
 3228TIP3    H2 9630   2.725   7.367   6.515
 3229TIP3   OH2 9631   1.294   3.912   0.089
 3229TIP3    H1 9632   1.319   3.824   0.061
 3229TIP3    H2 9633   1.354   3.933   0.160
 3230TIP3   OH2 9634   7.273   0.527   3.206
 3230TIP3    H1 9635   7.311   0.493   3.287
 3230TIP3    H2 9636   7.228   0.607   3.232
 3231TIP3   OH2 9637   1.342   5.991   5.722
 3231TIP3    H1 9638   1.395   6.047   5.665
 3231TIP3    H2 9639   1.311   6.050   5.791
 3232TIP3   OH2 9640   5.075   5.170   6.610
 3232TIP3    H1 9641   5.168   5.170   6.634
 3232TIP3    H2 9642   5.044   5.083   6.634
 3233TIP3   OH2 9643   3.284   0.805   6.181
 3233TIP3    H1 9644   3.298   0.713   6.159
 3233TIP3    H2 9645   3.189   0.811   6.196
 3234TIP3   OH2 9646   7.072   2.604   0.311
 3234TIP3    H1 9647   6.982   2.609   0.278
 3234TIP3    H2 9648   7.104   2.694   0.305
 3235TIP3   OH2 9649   1.638   4.559   3.553
 3235TIP3    H1 9650   1.576   4.488   3.569
 3235TIP3    H2 9651   1.613   4.593   3.467
 3236TIP3   OH2 9652   1.734   3.055   3.042
 3236TIP3    H1 9653   1.775   2.970   3.024
 3236TIP3    H2 9654   1.703   3.085   2.957
 3237TIP3   OH2 9655   1.628   7.412   1.405
 3237TIP3    H1 9656   1.554   7.414   1.466
 3237TIP3    H2 9657   1.682   7.339   1.435
 3238TIP3   OH2 9658   5.526   6.911   4.865
 3238TIP3    H1 9659   5.617   6.932   4.843
 3238TIP3    H2 9660   5.512   6.823   4.830
 3239TIP3   OH2 9661   7.737   3.484   2.492
 3239TIP3    H1 9662   7.741   3.439   2.577
 3239TIP3    H2 9663   7.710   3.417   2.430
 3240TIP3   OH2 9664   4.806   4.214   5.905
 3240TIP3    H1 9665   4.714   4.189   5.906
 3240TIP3    H2 9666   4.832   4.208   5.813
 3241TIP3   OH2 9667   1.441   3.120   0.686
 3241TIP3    H1 9668   1.537   3.115   0.685
 3241TIP3    H2 9669   1.421   3.206   0.649
 3242TIP3   OH2 9670   2.958   3.225   1.830
 3242TIP3    H1 9671   3.037   3.277   1.845
 3242TIP3    H2 9672   2.988   3.135   1.829
 3243TIP3   OH2 9673   2.575   4.504   5.646
 3243TIP3    H1 9674   2.615   4.419   5.661
 3243TIP3    H2 9675   2.642   4.554   5.599
 3244TIP3   OH2 9676   3.466   0.618   3.041
 3244TIP3    H1 9677   3.514   0.689   3.083
 3244TIP3    H2 9678   3.522   0.591   2.968
 3245TIP3   OH2 9679   2.584   5.675   4.432
 3245TIP3    H1 9680   2.671   5.706   4.406
 3245TIP3    H2 9681   2.523   5.729   4.381
 3246TIP3   OH2 9682   1.005   0.788   3.006
 3246TIP3    H1 9683   0.940   0.763   3.072
 3246TIP3    H2 9684   0.956   0.837   2.941
 3247TIP3   OH2 9685   8.133   0.918   2.701
 3247TIP3    H1 9686   8.216   0.953   2.735
 3247TIP3    H2 9687   8.120   0.836   2.749
 3248TIP3   OH2 9688   0.537   6.746   3.769
 3248TIP3    H1 9689   0.496   6.828   3.741
 3248TIP3    H2 9690   0.604   6.728   3.703
 3249TIP3   OH2 9691   6.511   1.173   5.549
 3249TIP3    H1 9692   6.494   1.181   5.643
 3249TIP3    H2 9693   6.546   1.084   5.538
 3250TIP3   OH2 9694   5.147   0.013   4.097
 3250TIP3    H1 9695   5.152   0.105   4.070
 3250TIP3    H2 9696   5.077   0.011   4.162
 3251TIP3   OH2 9697   7.497   6.248   2.507
 3251TIP3    H1 9698   7.459   6.334   2.523
 3251TIP3    H2 9699   7.587   6.255   2.541
 3252TIP3   OH2 9700   4.202   0.741   0.334
 3252TIP3    H1 9701   4.146   0.663   0.334
 3252TIP3    H2 9702   4.172   0.792   0.259
 3253TIP3   OH2 9703   6.972   4.934   6.222
 3253TIP3    H1 9704   6.909   5.006   6.228
 3253TIP3    H2 9705   7.045   4.970   6.172
 3254TIP3   OH2 9706   4.870   4.125   2.633
 3254TIP3    H1 9707   4.884   4.219   2.622
 3254TIP3    H2 9708   4.935   4.085   2.575
 3255TIP3   OH2 9709   7.031   0.275   4.787
 3255TIP3    H1 9710   7.045   0.369   4.785
 3255TIP3    H2 9711   6.966   0.258   4.719
 3256TIP3   OH2 9712   6.150   7.427   1.022
 3256TIP3    H1 9713   6.217   7.463   0.964
 3256TIP3    H2 9714   6.105   7.503   1.057
 3257TIP3   OH2 9715   1.664   6.470   5.442
 3257TIP3    H1 9716   1.722   6.532   5.486
 3257TIP3    H2 9717   1.587   6.465   5.498
 3258TIP3   OH2 9718   5.179   3.848   6.157
 3258TIP3    H1 9719   5.186   3.805   6.072
 3258TIP3    H2 9720   5.106   3.805   6.200
 3259TIP3   OH2 9721   6.824   1.719   4.378
 3259TIP3    H1 9722   6.912   1.752   4.392
 3259TIP3    H2 9723   6.835   1.628   4.352
 3260TIP3   OH2 9724   2.210   2.995   2.698
 3260TIP3    H1 9725   2.217   2.908   2.659
 3260TIP3    H2 9726   2.120   3.022   2.680
 3261TIP3   OH2 9727   5.048   3.952   0.683
 3261TIP3    H1 9728   4.971   3.900   0.707
 3261TIP3    H2 9729   5.123   3.898   0.709
 3262TIP3   OH2 9730   2.856   2.784   5.590
 3262TIP3    H1 9731   2.791   2.830   5.644
 3262TIP3    H2 9732   2.873   2.703   5.637
 3263TIP3   OH2 9733   6.996   1.864   2.504
 3263TIP3    H1 9734   6.904   1.866   2.529
 3263TIP3    H2 9735   7.042   1.839   2.584
 3264TIP3   OH2 9736   2.950   2.152   0.433
 3264TIP3    H1 9737   2.998   2.073   0.458
 3264TIP3    H2 9738   2.898   2.125   0.357
 3265TIP3   OH2 9739   7.010   3.178   4.354
 3265TIP3    H1 9740   6.989   3.270   4.340
 3265TIP3    H2 9741   6.991   3.135   4.270
 3266TIP3   OH2 9742   8.045   5.286   1.886
 3266TIP3    H1 9743   8.088   5.371   1.878
 3266TIP3    H2 9744   8.054   5.262   1.979
 3267TIP3   OH2 9745   6.097   4.770   0.206
 3267TIP3    H1 9746   6.126   4.683   0.178
 3267TIP3    H2 9747   6.168   4.829   0.180
 3268TIP3   OH2 9748   5.722   2.598   5.850
 3268TIP3    H1 9749   5.749   2.667   5.788
 3268TIP3    H2 9750   5.751   2.631   5.936
 3269TIP3   OH2 9751   6.853   4.454   0.926
 3269TIP3    H1 9752   6.920   4.481   0.988
 3269TIP3    H2 9753   6.852   4.524   0.860
 3270TIP3   OH2 9754   4.831   5.452   4.351
 3270TIP3    H1 9755   4.919   5.415   4.347
 3270TIP3    H2 9756   4.804   5.440   4.442
 3271TIP3   OH2 9757   8.183   7.054   2.600
 3271TIP3    H1 9758   8.236   7.104   2.662
 3271TIP3    H2 9759   8.247   7.014   2.541
 3272TIP3   OH2 9760   1.429   3.363   6.110
 3272TIP3    H1 9761   1.519   3.364   6.141
 3272TIP3    H2 9762   1.436   3.356   6.015
 3273TIP3   OH2 9763   4.556   2.575   5.385
 3273TIP3    H1 9764   4.649   2.597   5.392
 3273TIP3    H2 9765   4.551   2.511   5.315
 3274TIP3   OH2 9766   8.109   0.105   6.129
 3274TIP3    H1 9767   8.111   0.054   6.048
 3274TIP3    H2 9768   8.196   0.093   6.167
 3275TIP3   OH2 9769   1.633   3.816   0.703
 3275TIP3    H1 9770   1.688   3.833   0.779
 3275TIP3    H2 9771   1.600   3.727   0.715
 3276TIP3   OH2 9772   3.021   2.110   6.037
 3276TIP3    H1 9773   3.007   2.112   5.942
 3276TIP3    H2 9774   3.070   2.030   6.053
 3277TIP3   OH2 9775   5.901   3.386   1.094
 3277TIP3    H1 9776   5.890   3.480   1.112
 3277TIP3    H2 9777   5.959   3.383   1.017
 3278TIP3   OH2 9778   5.709   0.342   6.372
 3278TIP3    H1 9779   5.653   0.320   6.298
 3278TIP3    H2 9780   5.649   0.375   6.439
 3279TIP3   OH2 9781   5.632   3.318   1.867
 3279TIP3    H1 9782   5.590   3.312   1.953
 3279TIP3    H2 9783   5.713   3.267   1.876
 3280TIP3   OH2 9784   1.855   6.740   3.706
 3280TIP3    H1 9785   1.761   6.725   3.695
 3280TIP3    H2 9786   1.863   6.835   3.721
 3281TIP3   OH2 9787   3.615   3.662   5.648
 3281TIP3    H1 9788   3.531   3.704   5.666
 3281TIP3    H2 9789   3.680   3.720   5.688
 3282TIP3   OH2 9790   7.588   3.721   6.334
 3282TIP3    H1 9791   7.678   3.713   6.369
 3282TIP3    H2 9792   7.598   3.768   6.252
 3283TIP3   OH2 9793   2.528   3.767   3.306
 3283TIP3    H1 9794   2.443   3.761   3.350
 3283TIP3    H2 9795   2.592   3.758   3.377
 3284TIP3   OH2 9796   0.802   0.290   1.848
 3284TIP3    H1 9797   0.784   0.309   1.940
 3284TIP3    H2 9798   0.886   0.333   1.830
 3285TIP3   OH2 9799   2.230   6.968   1.197
 3285TIP3    H1 9800   2.207   6.946   1.107
 3285TIP3    H2 9801   2.156   7.019   1.230
 3286TIP3   OH2 9802   3.537   5.202   5.937
 3286TIP3    H1 9803   3.555   5.296   5.926
 3286TIP3    H2 9804   3.444   5.192   5.915
 3287TIP3   OH2 9805   3.899   5.193   1.659
 3287TIP3    H1 9806   3.852   5.239   1.729
 3287TIP3    H2 9807   3.987   5.229   1.662
 3288TIP3   OH2 9808   6.329   2.970   5.274
 3288TIP3    H1 9809   6.240   2.970   5.237
 3288TIP3    H2 9810   6.322   3.024   5.353
 3289TIP3   OH2 9811   7.461   1.351   3.862
 3289TIP3    H1 9812   7.384   1.329   3.809
 3289TIP3    H2 9813   7.497   1.267   3.889
 3290TIP3   OH2 9814   0.826   6.167   2.351
 3290TIP3    H1 9815   0.866   6.096   2.300
 3290TIP3    H2 9816   0.746   6.189   2.303
 3291TIP3   OH2 9817   1.492   1.215   4.260
 3291TIP3    H1 9818   1.546   1.256   4.327
 3291TIP3    H2 9819   1.402   1.228   4.290
 3292TIP3   OH2 9820   5.051   1.544   2.002
 3292TIP3    H1 9821   4.956   1.544   1.990
 3292TIP3    H2 9822   5.082   1.473   1.946
 3293TIP3   OH2 9823   6.877   5.545   2.279
 3293TIP3    H1 9824   6.834   5.625   2.310
 3293TIP3    H2 9825   6.892   5.561   2.186
 3294TIP3   OH2 9826   0.457   0.438   4.812
 3294TIP3    H1 9827   0.492   0.514   4.858
 3294TIP3    H2 9828   0.375   0.468   4.772
 3295TIP3   OH2 9829   4.630   0.081   2.241
 3295TIP3    H1 9830   4.595   0.169   2.228
 3295TIP3    H2 9831   4.616   0.064   2.335
 3296TIP3   OH2 9832   6.515   6.870   5.826
 3296TIP3    H1 9833   6.533   6.838   5.915
 3296TIP3    H2 9834   6.464   6.799   5.786
 3297TIP3   OH2 9835   1.814   5.574   0.035
 3297TIP3    H1 9836   1.737   5.521   0.014
 3297TIP3    H2 9837   1.888   5.514   0.026
 3298TIP3   OH2 9838   1.524   7.785   5.019
 3298TIP3    H1 9839   1.588   7.715   5.012
 3298TIP3    H2 9840   1.519   7.823   4.931
 3299TIP3   OH2 9841   1.134   3.529   2.686
 3299TIP3    H1 9842   1.147   3.619   2.657
 3299TIP3    H2 9843   1.136   3.535   2.782
 3300TIP3   OH2 9844   8.233   1.274   1.927
 3300TIP3    H1 9845   8.220   1.283   1.833
 3300TIP3    H2 9846   8.203   1.357   1.964
 3301TIP3   OH2 9847   2.233   7.532   0.699
 3301TIP3    H1 9848   2.312   7.563   0.742
 3301TIP3    H2 9849   2.232   7.438   0.715
 3302TIP3   OH2 9850   4.129   7.338   1.063
 3302TIP3    H1 9851   4.092   7.341   0.975
 3302TIP3    H2 9852   4.208   7.286   1.054
 3303TIP3   OH2 9853   3.208   5.897   6.657
 3303TIP3    H1 9854   3.236   5.851   6.578
 3303TIP3    H2 9855   3.274   5.966   6.668
 3304TIP3   OH2 9856   5.556   0.514   3.944
 3304TIP3    H1 9857   5.544   0.553   3.857
 3304TIP3    H2 9858   5.571   0.421   3.926
 3305TIP3   OH2 9859   5.579   4.927   5.825
 3305TIP3    H1 9860   5.669   4.946   5.851
 3305TIP3    H2 9861   5.559   4.843   5.866
 3306TIP3   OH2 9862   5.371   2.801   2.687
 3306TIP3    H1 9863   5.326   2.717   2.692
 3306TIP3    H2 9864   5.303   2.863   2.659
 3307TIP3   OH2 9865   3.556   4.199   1.170
 3307TIP3    H1 9866   3.490   4.163   1.230
 3307TIP3    H2 9867   3.506   4.254   1.110
 3308TIP3   OH2 9868   6.574   1.437   3.251
 3308TIP3    H1 9869   6.601   1.367   3.192
 3308TIP3    H2 9870   6.649   1.451   3.308
 3309TIP3   OH2 9871   4.257   3.376   4.527
 3309TIP3    H1 9872   4.173   3.406   4.491
 3309TIP3    H2 9873   4.322   3.411   4.466
 3310TIP3   OH2 9874   1.519   4.730   0.565
 3310TIP3    H1 9875   1.500   4.640   0.540
 3310TIP3    H2 9876   1.436   4.776   0.553
 3311TIP3   OH2 9877   1.529   3.301   4.918
 3311TIP3    H1 9878   1.437   3.284   4.899
 3311TIP3    H2 9879   1.543   3.391   4.889
 3312TIP3   OH2 9880   6.483   0.316   6.089
 3312TIP3    H1 9881   6.429   0.236   6.086
 3312TIP3    H2 9882   6.431   0.382   6.044
 3313TIP3   OH2 9883   2.207   2.304   6.741
 3313TIP3    H1 9884   2.238   2.214   6.747
 3313TIP3    H2 9885   2.192   2.331   6.832
 3314TIP3   OH2 9886   8.098   2.223   0.473
 3314TIP3    H1 9887   8.081   2.152   0.535
 3314TIP3    H2 9888   8.036   2.291   0.497
 3315TIP3   OH2 9889   6.333   2.410   2.672
 3315TIP3    H1 9890   6.377   2.362   2.743
 3315TIP3    H2 9891   6.362   2.500   2.683
 3316TIP3   OH2 9892   0.533   3.965   2.835
 3316TIP3    H1 9893   0.541   4.058   2.858
 3316TIP3    H2 9894   0.619   3.928   2.855
 3317TIP3   OH2 9895   0.435   2.571   3.799
 3317TIP3    H1 9896   0.463   2.546   3.887
 3317TIP3    H2 9897   0.363   2.511   3.779
 3318TIP3   OH2 9898   6.289   7.664   3.671
 3318TIP3    H1 9899   6.203   7.681   3.709
 3318TIP3    H2 9900   6.326   7.594   3.723
 3319TIP3   OH2 9901   5.161   1.154   5.750
 3319TIP3    H1 9902   5.094   1.087   5.734
 3319TIP3    H2 9903   5.112   1.236   5.757
 3320TIP3   OH2 9904   1.004   1.041   5.669
 3320TIP3    H1 9905   1.037   1.131   5.667
 3320TIP3    H2 9906   0.935   1.039   5.603
 3321TIP3   OH2 9907   0.713   0.171   0.790
 3321TIP3    H1 9908   0.632   0.175   0.739
 3321TIP3    H2 9909   0.782   0.163   0.725
 3322TIP3   OH2 9910   5.667   0.616   0.183
 3322TIP3    H1 9911   5.606   0.595   0.254
 3322TIP3    H2 9912   5.610   0.646   0.112
 3323TIP3   OH2 9913   5.209   2.509   4.108
 3323TIP3    H1 9914   5.271   2.449   4.149
 3323TIP3    H2 9915   5.152   2.453   4.056
 3324TIP3   OH2 9916   0.941   5.305   2.635
 3324TIP3    H1 9917   0.983   5.221   2.651
 3324TIP3    H2 9918   1.014   5.365   2.618
 3325TIP3   OH2 9919   8.173   0.528   6.146
 3325TIP3    H1 9920   8.265   0.545   6.164
 3325TIP3    H2 9921   8.126   0.567   6.220
 3326TIP3   OH2 9922   2.865   2.345   1.570
 3326TIP3    H1 9923   2.822   2.407   1.511
 3326TIP3    H2 9924   2.855   2.260   1.529
 3327TIP3   OH2 9925   0.191   5.402   3.273
 3327TIP3    H1 9926   0.230   5.422   3.188
 3327TIP3    H2 9927   0.238   5.458   3.335
 3328TIP3   OH2 9928   3.675   5.952   0.513
 3328TIP3    H1 9929   3.587   5.983   0.492
 3328TIP3    H2 9930   3.669   5.926   0.605
 3329TIP3   OH2 9931   3.357   2.798   0.441
 3329TIP3    H1 9932   3.444   2.763   0.459
 3329TIP3    H2 9933   3.301   2.721   0.436
 3330TIP3   OH2 9934   7.724   3.879   3.992
 3330TIP3    H1 9935   7.818   3.866   4.008
 3330TIP3    H2 9936   7.681   3.822   4.056
 3331TIP3   OH2 9937   2.893   4.687   2.524
 3331TIP3    H1 9938   2.823   4.734   2.477
 3331TIP3    H2 9939   2.962   4.676   2.459
 3332TIP3   OH2 9940   0.767   1.364   3.309
 3332TIP3    H1 9941   0.736   1.274   3.315
 3332TIP3    H2 9942   0.711   1.412   3.370
 3333TIP3   OH2 9943   1.999   4.257   0.110
 3333TIP3    H1 9944   2.060   4.202   0.157
 3333TIP3    H2 9945   1.930   4.277   0.173
 3334TIP3   OH2 9946   5.015   5.386   5.338
 3334TIP3    H1 9947   4.962   5.466   5.338
 3334TIP3    H2 9948   4.990   5.340   5.258
 3335TIP3   OH2 9949   7.083   2.162   6.454
 3335TIP3    H1 9950   7.087   2.246   6.500
 3335TIP3    H2 9951   6.994   2.131   6.468
 3336TIP3   OH2 9952   2.023   5.415   0.037
 3336TIP3    H1 9953   2.113   5.395   0.011
 3336TIP3    H2 9954   2.022   5.404   0.132
 3337TIP3   OH2 9955   3.816   1.338   5.023
 3337TIP3    H1 9956   3.755   1.381   5.083
 3337TIP3    H2 9957   3.901   1.344   5.067
 3338TIP3   OH2 9958   4.417   1.458   1.912
 3338TIP3    H1 9959   4.505   1.421   1.901
 3338TIP3    H2 9960   4.418   1.539   1.860
 3339TIP3   OH2 9961   6.927   1.407   5.563
 3339TIP3    H1 9962   6.937   1.501   5.547
 3339TIP3    H2 9963   6.940   1.397   5.657
 3340TIP3   OH2 9964   4.706   1.378   1.628
 3340TIP3    H1 9965   4.686   1.326   1.706
 3340TIP3    H2 9966   4.800   1.392   1.632
 3341TIP3   OH2 9967   2.388   2.352   5.483
 3341TIP3    H1 9968   2.380   2.256   5.481
 3341TIP3    H2 9969   2.483   2.367   5.487
 3342TIP3   OH2 9970   5.303   5.535   5.830
 3342TIP3    H1 9971   5.319   5.597   5.759
 3342TIP3    H2 9972   5.333   5.451   5.796
 3343TIP3   OH2 9973   3.299   4.100   1.302
 3343TIP3    H1 9974   3.229   4.103   1.367
 3343TIP3    H2 9975   3.327   4.009   1.301
 3344TIP3   OH2 9976   0.346   6.318   1.068
 3344TIP3    H1 9977   0.399   6.241   1.089
 3344TIP3    H2 9978   0.373   6.385   1.131
 3345TIP3   OH2 9979   6.941   1.962   0.133
 3345TIP3    H1 9980   6.884   1.922   0.067
 3345TIP3    H2 9981   6.896   1.946   0.216
 3346TIP3   OH2 9982   3.620   1.442   0.347
 3346TIP3    H1 9983   3.572   1.367   0.383
 3346TIP3    H2 9984   3.588   1.516   0.398
 3347TIP3   OH2 9985   7.151   3.030   6.465
 3347TIP3    H1 9986   7.233   3.034   6.513
 3347TIP3    H2 9987   7.175   3.051   6.375
 3348TIP3   OH2 9988   3.994   1.942   4.222
 3348TIP3    H1 9989   3.974   2.028   4.259
 3348TIP3    H2 9990   4.001   1.884   4.298
 3349TIP3   OH2 9991   4.820   5.816   0.333
 3349TIP3    H1 9992   4.817   5.723   0.315
 3349TIP3    H2 9993   4.776   5.826   0.418
 3350TIP3   OH2 9994   4.496   7.026   2.807
 3350TIP3    H1 9995   4.440   7.014   2.731
 3350TIP3    H2 9996   4.438   7.064   2.874
 3351TIP3   OH2 9997   1.450   5.450   0.582
 3351TIP3    H1 9998   1.427   5.520   0.520
 3351TIP3    H2 9999   1.424   5.369   0.537
 3352TIP3   OH210000   6.788   0.090   1.845
 3352TIP3    H110001   6.711   0.036   1.861
 3352TIP3    H210002   6.791   0.150   1.920
 3353TIP3   OH210003   7.785   5.612   3.900
 3353TIP3    H110004   7.826   5.575   3.821
 3353TIP3    H210005   7.766   5.703   3.876
 3354TIP3   OH210006   6.124   0.468   0.440
 3354TIP3    H110007   6.123   0.447   0.347
 3354TIP3    H210008   6.050   0.419   0.477
 3355TIP3   OH210009   2.245   5.256   4.361
 3355TIP3    H110010   2.320   5.316   4.359
 3355TIP3    H210011   2.283   5.170   4.343
 3356TIP3   OH210012   1.154   1.616   5.885
 3356TIP3    H110013   1.227   1.558   5.906
 3356TIP3    H210014   1.195   1.697   5.856
 3357TIP3   OH210015   5.426   2.923   2.951
 3357TIP3    H110016   5.403   3.010   2.918
 3357TIP3    H210017   5.414   2.865   2.875
 3358TIP3   OH210018   7.525   5.178   1.309
 3358TIP3    H110019   7.471   5.255   1.292
 3358TIP3    H210020   7.479   5.132   1.379
 3359TIP3   OH210021   7.308   1.361   0.769
 3359TIP3    H110022   7.399   1.338   0.747
 3359TIP3    H210023   7.297   1.329   0.859
 3360TIP3   OH210024   6.299   5.929   3.151
 3360TIP3    H110025   6.389   5.963   3.147
 3360TIP3    H210026   6.301   5.848   3.101
 3361TIP3   OH210027   8.023   7.179   2.012
 3361TIP3    H110028   8.062   7.257   2.051
 3361TIP3    H210029   8.098   7.122   1.993
 3362TIP3   OH210030   6.595   3.516   4.016
 3362TIP3    H110031   6.516   3.554   3.976
 3362TIP3    H210032   6.658   3.587   4.016
 3363TIP3   OH210033   3.185   2.808   0.160
 3363TIP3    H110034   3.214   2.718   0.170
 3363TIP3    H210035   3.140   2.828   0.242
 3364TIP3   OH210036   7.136   7.366   4.155
 3364TIP3    H110037   7.096   7.331   4.235
 3364TIP3    H210038   7.134   7.294   4.093
 3365TIP3   OH210039   5.698   4.344   0.636
 3365TIP3    H110040   5.610   4.343   0.597
 3365TIP3    H210041   5.738   4.425   0.604
 3366TIP3   OH210042   1.239   2.377   0.955
 3366TIP3    H110043   1.251   2.312   0.886
 3366TIP3    H210044   1.218   2.458   0.909
 3367TIP3   OH210045   0.594   6.177   2.207
 3367TIP3    H110046   0.499   6.188   2.207
 3367TIP3    H210047   0.608   6.085   2.184
 3368TIP3   OH210048   6.733   0.132   2.550
 3368TIP3    H110049   6.723   0.223   2.522
 3368TIP3    H210050   6.820   0.107   2.518
 3369TIP3   OH210051   7.318   4.928   2.925
 3369TIP3    H110052   7.322   5.008   2.978
 3369TIP3    H210053   7.227   4.922   2.898
 3370TIP3   OH210054   3.288   5.683   5.178
 3370TIP3    H110055   3.243   5.705   5.259
 3370TIP3    H210056   3.230   5.717   5.109
 3371TIP3   OH210057   3.766   2.837   2.382
 3371TIP3    H110058   3.670   2.835   2.377
 3371TIP3    H210059   3.787   2.779   2.455
 3372TIP3   OH210060   2.284   4.646   6.669
 3372TIP3    H110061   2.296   4.554   6.643
 3372TIP3    H210062   2.367   4.688   6.646
 3373TIP3   OH210063   5.237   4.289   1.924
 3373TIP3    H110064   5.207   4.277   1.834
 3373TIP3    H210065   5.313   4.232   1.932
 3374TIP3   OH210066   0.835   6.606   4.325
 3374TIP3    H110067   0.903   6.674   4.329
 3374TIP3    H210068   0.875   6.536   4.273
 3375TIP3   OH210069   7.818   3.377   4.157
 3375TIP3    H110070   7.846   3.460   4.119
 3375TIP3    H210071   7.883   3.360   4.226
 3376TIP3   OH210072   4.306   3.007   0.999
 3376TIP3    H110073   4.342   2.950   0.931
 3376TIP3    H210074   4.341   2.973   1.081
 3377TIP3   OH210075   3.174   1.182   3.637
 3377TIP3    H110076   3.203   1.226   3.557
 3377TIP3    H210077   3.142   1.097   3.607
 3378TIP3   OH210078   2.472   3.225   5.547
 3378TIP3    H110079   2.387   3.267   5.560
 3378TIP3    H210080   2.504   3.209   5.636
 3379TIP3   OH210081   2.750   0.782   6.652
 3379TIP3    H110082   2.821   0.778   6.588
 3379TIP3    H210083   2.692   0.851   6.620
 3380TIP3   OH210084   5.155   6.108   0.207
 3380TIP3    H110085   5.137   6.057   0.286
 3380TIP3    H210086   5.105   6.189   0.219
 3381TIP3   OH210087   2.169   4.429   2.613
 3381TIP3    H110088   2.262   4.437   2.635
 3381TIP3    H210089   2.155   4.336   2.597
 3382TIP3   OH210090   4.681   0.208   4.156
 3382TIP3    H110091   4.651   0.219   4.066
 3382TIP3    H210092   4.602   0.192   4.207
 3383TIP3   OH210093   8.030   5.039   0.446
 3383TIP3    H110094   8.082   5.107   0.490
 3383TIP3    H210095   8.081   5.019   0.367
 3384TIP3   OH210096   5.269   0.661   3.344
 3384TIP3    H110097   5.314   0.701   3.419
 3384TIP3    H210098   5.214   0.731   3.309
 3385TIP3   OH210099   6.751   0.923   6.094
 3385TIP3    H110100   6.672   0.967   6.125
 3385TIP3    H210101   6.721   0.862   6.027
 3386TIP3   OH210102   5.153   1.660   1.175
 3386TIP3    H110103   5.218   1.716   1.133
 3386TIP3    H210104   5.077   1.717   1.189
 3387TIP3   OH210105   7.793   4.889   1.442
 3387TIP3    H110106   7.867   4.889   1.381
 3387TIP3    H210107   7.795   4.803   1.484
 3388TIP3   OH210108   2.765   3.816   5.178
 3388TIP3    H110109   2.719   3.750   5.126
 3388TIP3    H210110   2.760   3.783   5.268
 3389TIP3   OH210111   0.839   3.894   4.709
 3389TIP3    H110112   0.921   3.942   4.722
 3389TIP3    H210113   0.867   3.807   4.681
 3390TIP3   OH210114   0.365   5.334   1.401
 3390TIP3    H110115   0.394   5.284   1.325
 3390TIP3    H210116   0.270   5.342   1.388
 3391TIP3   OH210117   2.507   5.402   4.838
 3391TIP3    H110118   2.468   5.465   4.898
 3391TIP3    H210119   2.518   5.451   4.756
 3392TIP3   OH210120   3.026   0.713   2.682
 3392TIP3    H110121   3.038   0.761   2.764
 3392TIP3    H210122   2.933   0.718   2.664
 3393TIP3   OH210123   2.923   2.545   5.728
 3393TIP3    H110124   2.849   2.515   5.782
 3393TIP3    H210125   3.000   2.523   5.779
 3394TIP3   OH210126   5.586   7.330   2.581
 3394TIP3    H110127   5.561   7.315   2.672
 3394TIP3    H210128   5.634   7.413   2.582
 3395TIP3   OH210129   7.603   2.659   5.184
 3395TIP3    H110130   7.568   2.670   5.095
 3395TIP3    H210131   7.584   2.741   5.228
 3396TIP3   OH210132   0.355   7.422   6.711
 3396TIP3    H110133   0.279   7.477   6.729
 3396TIP3    H210134   0.343   7.346   6.768
 3397TIP3   OH210135   1.211   7.290   1.334
 3397TIP3    H110136   1.123   7.324   1.322
 3397TIP3    H210137   1.255   7.355   1.388
 3398TIP3   OH210138   4.754   1.478   5.272
 3398TIP3    H110139   4.842   1.459   5.238
 3398TIP3    H210140   4.697   1.419   5.224
 3399TIP3   OH210141   3.492   6.924   5.287
 3399TIP3    H110142   3.479   6.892   5.198
 3399TIP3    H210143   3.490   6.846   5.341
 3400TIP3   OH210144   6.943   6.386   5.523
 3400TIP3    H110145   6.906   6.358   5.607
 3400TIP3    H210146   7.014   6.324   5.506
 3401TIP3   OH210147   5.341   7.761   5.929
 3401TIP3    H110148   5.419   7.707   5.924
 3401TIP3    H210149   5.307   7.761   5.839
 3402TIP3   OH210150   3.719   0.560   3.241
 3402TIP3    H110151   3.687   0.609   3.318
 3402TIP3    H210152   3.745   0.475   3.275
 3403TIP3   OH210153   1.049   1.553   5.622
 3403TIP3    H110154   1.111   1.597   5.564
 3403TIP3    H210155   1.071   1.585   5.709
 3404TIP3   OH210156   7.554   0.689   0.215
 3404TIP3    H110157   7.607   0.752   0.166
 3404TIP3    H210158   7.474   0.737   0.237
 3405TIP3   OH210159   5.421   4.641   1.908
 3405TIP3    H110160   5.446   4.609   1.822
 3405TIP3    H210161   5.390   4.563   1.955
 3406TIP3   OH210162   4.710   6.049   6.376
 3406TIP3    H110163   4.620   6.056   6.343
 3406TIP3    H210164   4.740   5.964   6.345
 3407TIP3   OH210165   3.018   5.541   4.353
 3407TIP3    H110166   3.093   5.498   4.311
 3407TIP3    H210167   3.015   5.504   4.441
 3408TIP3   OH210168   2.995   5.053   1.215
 3408TIP3    H110169   3.073   4.998   1.217
 3408TIP3    H210170   2.922   4.992   1.202
 3409TIP3   OH210171   7.137   4.452   1.835
 3409TIP3    H110172   7.061   4.395   1.829
 3409TIP3    H210173   7.179   4.429   1.918
 3410TIP3   OH210174   1.811   2.262   5.233
 3410TIP3    H110175   1.862   2.342   5.220
 3410TIP3    H210176   1.726   2.292   5.264
 3411TIP3   OH210177   0.986   0.747   0.574
 3411TIP3    H110178   0.985   0.810   0.646
 3411TIP3    H210179   0.940   0.790   0.502
 3412TIP3   OH210180   8.294   2.234   0.774
 3412TIP3    H110181   8.387   2.230   0.751
 3412TIP3    H210182   8.263   2.316   0.734
 3413TIP3   OH210183   7.602   0.717   0.650
 3413TIP3    H110184   7.516   0.753   0.630
 3413TIP3    H210185   7.587   0.658   0.723
 3414TIP3   OH210186   7.851   5.271   2.545
 3414TIP3    H110187   7.861   5.363   2.572
 3414TIP3    H210188   7.846   5.275   2.449
 3415TIP3   OH210189   6.444   4.480   2.356
 3415TIP3    H110190   6.422   4.564   2.395
 3415TIP3    H210191   6.441   4.496   2.262
 3416TIP3   OH210192   6.403   7.447   3.807
 3416TIP3    H110193   6.477   7.446   3.747
 3416TIP3    H210194   6.436   7.407   3.887
 3417TIP3   OH210195   4.194   4.378   6.084
 3417TIP3    H110196   4.177   4.472   6.069
 3417TIP3    H210197   4.285   4.366   6.059
 3418TIP3   OH210198   1.313   1.614   3.993
 3418TIP3    H110199   1.341   1.523   3.993
 3418TIP3    H210200   1.382   1.660   4.041
 3419TIP3   OH210201   3.559   3.676   1.112
 3419TIP3    H110202   3.581   3.632   1.029
 3419TIP3    H210203   3.519   3.759   1.085
 3420TIP3   OH210204   6.336   5.220   0.676
 3420TIP3    H110205   6.392   5.290   0.642
 3420TIP3    H210206   6.247   5.254   0.663
 3421TIP3   OH210207   4.177   7.089   3.583
 3421TIP3    H110208   4.227   7.152   3.636
 3421TIP3    H210209   4.085   7.106   3.606
 3422TIP3   OH210210   6.276   1.973   4.188
 3422TIP3    H110211   6.362   2.012   4.170
 3422TIP3    H210212   6.292   1.879   4.184
 3423TIP3   OH210213   4.124   2.287   4.134
 3423TIP3    H110214   4.043   2.236   4.124
 3423TIP3    H210215   4.094   2.376   4.151
 3424TIP3   OH210216   8.013   6.201   0.518
 3424TIP3    H110217   8.058   6.283   0.537
 3424TIP3    H210218   8.008   6.156   0.602
 3425TIP3   OH210219   0.272   2.993   1.997
 3425TIP3    H110220   0.177   3.007   2.004
 3425TIP3    H210221   0.280   2.914   1.943
 3426TIP3   OH210222   2.940   7.339   2.191
 3426TIP3    H110223   2.945   7.304   2.280
 3426TIP3    H210224   2.993   7.280   2.138
 3427TIP3   OH210225   5.220   0.727   4.410
 3427TIP3    H110226   5.314   0.730   4.388
 3427TIP3    H210227   5.217   0.749   4.503
 3428TIP3   OH210228   3.884   7.191   2.393
 3428TIP3    H110229   3.920   7.270   2.434
 3428TIP3    H210230   3.883   7.212   2.299
 3429TIP3   OH210231   1.076   7.438   4.687
 3429TIP3    H110232   1.126   7.382   4.745
 3429TIP3    H210233   1.026   7.496   4.745
 3430TIP3   OH210234   3.592   2.999   4.535
 3430TIP3    H110235   3.677   3.035   4.561
 3430TIP3    H210236   3.615   2.920   4.486
 3431TIP3   OH210237   3.529   3.815   1.609
 3431TIP3    H110238   3.582   3.760   1.666
 3431TIP3    H210239   3.453   3.839   1.662
 3432TIP3   OH210240   3.494   4.801   5.071
 3432TIP3    H110241   3.438   4.723   5.073
 3432TIP3    H210242   3.480   4.843   5.156
 3433TIP3   OH210243   5.259   7.600   4.101
 3433TIP3    H110244   5.183   7.611   4.159
 3433TIP3    H210245   5.277   7.689   4.068
 3434TIP3   OH210246   7.244   5.697   5.074
 3434TIP3    H110247   7.330   5.723   5.106
 3434TIP3    H210248   7.194   5.779   5.071
 3435TIP3   OH210249   5.961   5.078   4.527
 3435TIP3    H110250   6.042   5.046   4.488
 3435TIP3    H210251   5.896   5.011   4.505
 3436TIP3   OH210252   5.443   3.275   0.424
 3436TIP3    H110253   5.383   3.303   0.493
 3436TIP3    H210254   5.389   3.274   0.345
 3437TIP3   OH210255   4.219   4.889   3.069
 3437TIP3    H110256   4.148   4.861   3.126
 3437TIP3    H210257   4.222   4.984   3.079
 3438TIP3   OH210258   0.463   4.019   5.110
 3438TIP3    H110259   0.495   4.094   5.160
 3438TIP3    H210260   0.520   3.947   5.136
 3439TIP3   OH210261   3.840   7.279   6.447
 3439TIP3    H110262   3.831   7.234   6.531
 3439TIP3    H210263   3.795   7.221   6.384
 3440TIP3   OH210264   7.389   5.412   4.203
 3440TIP3    H110265   7.456   5.438   4.140
 3440TIP3    H210266   7.329   5.486   4.206
 3441TIP3   OH210267   4.349   5.591   1.278
 3441TIP3    H110268   4.401   5.608   1.199
 3441TIP3    H210269   4.259   5.585   1.246
 3442TIP3   OH210270   3.848   1.599   0.294
 3442TIP3    H110271   3.907   1.531   0.328
 3442TIP3    H210272   3.760   1.563   0.306
 3443TIP3   OH210273   5.803   5.655   4.996
 3443TIP3    H110274   5.802   5.564   4.966
 3443TIP3    H210275   5.737   5.658   5.065
 3444TIP3   OH210276   3.010   6.696   0.747
 3444TIP3    H110277   3.058   6.670   0.668
 3444TIP3    H210278   3.068   6.759   0.790
 3445TIP3   OH210279   0.232   6.242   4.316
 3445TIP3    H110280   0.184   6.240   4.233
 3445TIP3    H210281   0.323   6.256   4.291
 3446TIP3   OH210282   8.092   7.421   6.519
 3446TIP3    H110283   8.169   7.388   6.566
 3446TIP3    H210284   8.072   7.504   6.562
 3447TIP3   OH210285   3.953   3.396   0.050
 3447TIP3    H110286   3.918   3.308   0.035
 3447TIP3    H210287   4.046   3.382   0.068
 3448TIP3   OH210288   6.010   5.125   0.278
 3448TIP3    H110289   6.024   5.218   0.295
 3448TIP3    H210290   6.083   5.099   0.221
 3449TIP3   OH210291   5.369   7.605   0.124
 3449TIP3    H110292   5.462   7.610   0.146
 3449TIP3    H210293   5.354   7.681   0.068
 3450TIP3   OH210294   4.097   4.790   1.383
 3450TIP3    H110295   4.089   4.714   1.440
 3450TIP3    H210296   4.174   4.837   1.416
 3451TIP3   OH210297   3.617   0.620   3.937
 3451TIP3    H110298   3.543   0.562   3.918
 3451TIP3    H210299   3.653   0.642   3.851
 3452TIP3   OH210300   5.627   0.727   1.309
 3452TIP3    H110301   5.683   0.803   1.291
 3452TIP3    H210302   5.637   0.712   1.403
 3453TIP3   OH210303   7.717   0.092   5.948
 3453TIP3    H110304   7.692   0.107   6.039
 3453TIP3    H210305   7.644   0.042   5.911
 3454TIP3   OH210306   5.554   7.301   5.515
 3454TIP3    H110307   5.504   7.382   5.506
 3454TIP3    H210308   5.496   7.234   5.478
 3455TIP3   OH210309   5.240   6.430   1.610
 3455TIP3    H110310   5.181   6.405   1.539
 3455TIP3    H210311   5.232   6.525   1.617
 3456TIP3   OH210312   1.744   3.891   3.307
 3456TIP3    H110313   1.708   3.818   3.256
 3456TIP3    H210314   1.839   3.884   3.296
 3457TIP3   OH210315   7.800   7.570   2.583
 3457TIP3    H110316   7.868   7.583   2.517
 3457TIP3    H210317   7.766   7.482   2.565
 3458TIP3   OH210318   4.971   5.719   3.633
 3458TIP3    H110319   4.968   5.722   3.729
 3458TIP3    H210320   4.895   5.666   3.609
 3459TIP3   OH210321   4.639   4.374   5.601
 3459TIP3    H110322   4.685   4.458   5.610
 3459TIP3    H210323   4.706   4.308   5.611
 3460TIP3   OH210324   2.117   5.984   4.808
 3460TIP3    H110325   2.199   5.971   4.760
 3460TIP3    H210326   2.051   6.000   4.741
 3461TIP3   OH210327   6.080   2.624   6.060
 3461TIP3    H110328   6.081   2.540   6.015
 3461TIP3    H210329   6.075   2.689   5.990
 3462TIP3   OH210330   8.044   5.408   5.340
 3462TIP3    H110331   8.136   5.432   5.335
 3462TIP3    H210332   8.037   5.357   5.421
 3463TIP3   OH210333   0.183   1.134   6.709
 3463TIP3    H110334   0.185   1.061   6.648
 3463TIP3    H210335   0.132   1.202   6.664
 3464TIP3   OH210336   5.049   6.961   0.567
 3464TIP3    H110337   5.117   6.960   0.499
 3464TIP3    H210338   5.097   6.951   0.649
 3465TIP3   OH210339   7.880   6.854   6.673
 3465TIP3    H110340   7.794   6.816   6.654
 3465TIP3    H210341   7.876   6.876   6.766
 3466TIP3   OH210342   3.117   5.190   2.848
 3466TIP3    H110343   3.208   5.210   2.870
 3466TIP3    H210344   3.087   5.265   2.799
 3467TIP3   OH210345   6.784   2.190   1.149
 3467TIP3    H110346   6.695   2.159   1.168
 3467TIP3    H210347   6.777   2.285   1.152
 3468TIP3   OH210348   3.436   5.715   3.592
 3468TIP3    H110349   3.463   5.636   3.638
 3468TIP3    H210350   3.468   5.787   3.647
 3469TIP3   OH210351   7.454   1.792   0.668
 3469TIP3    H110352   7.431   1.758   0.582
 3469TIP3    H210353   7.393   1.865   0.682
 3470TIP3   OH210354   0.140   0.323   4.921
 3470TIP3    H110355   0.215   0.309   4.979
 3470TIP3    H210356   0.148   0.415   4.894
 3471TIP3   OH210357   3.958   5.028   5.121
 3471TIP3    H110358   3.998   4.980   5.048
 3471TIP3    H210359   3.904   4.963   5.166
 3472TIP3   OH210360   2.180   7.692   0.957
 3472TIP3    H110361   2.250   7.724   0.901
 3472TIP3    H210362   2.105   7.749   0.936
 3473TIP3   OH210363   4.513   0.577   0.032
 3473TIP3    H110364   4.467   0.493   0.030
 3473TIP3    H210365   4.500   0.610   0.121
 3474TIP3   OH210366   5.032   1.762   5.131
 3474TIP3    H110367   5.030   1.669   5.155
 3474TIP3    H210368   5.080   1.764   5.048
 3475TIP3   OH210369   0.971   7.138   3.843
 3475TIP3    H110370   0.942   7.190   3.917
 3475TIP3    H210371   0.959   7.047   3.871
 3476TIP3   OH210372   5.047   7.674   6.104
 3476TIP3    H110373   5.054   7.725   6.023
 3476TIP3    H210374   5.049   7.741   6.173
 3477TIP3   OH210375   3.755   3.375   1.796
 3477TIP3    H110376   3.845   3.362   1.765
 3477TIP3    H210377   3.763   3.430   1.874
 3478TIP3   OH210378   0.104   3.360   5.891
 3478TIP3    H110379   0.097   3.453   5.911
 3478TIP3    H210380   0.055   3.316   5.960
 3479TIP3   OH210381   2.949   5.005   0.695
 3479TIP3    H110382   2.932   5.086   0.647
 3479TIP3    H210383   3.039   5.013   0.726
 3480TIP3   OH210384   2.539   1.852   0.150
 3480TIP3    H110385   2.470   1.810   0.098
 3480TIP3    H210386   2.541   1.943   0.118
 3481TIP3   OH210387   0.058   1.481   2.866
 3481TIP3    H110388   0.147   1.501   2.838
 3481TIP3    H210389   0.023   1.565   2.895
 3482TIP3   OH210390   0.655   3.608   0.790
 3482TIP3    H110391   0.683   3.657   0.867
 3482TIP3    H210392   0.559   3.604   0.798
 3483TIP3   OH210393   7.068   6.233   2.015
 3483TIP3    H110394   7.161   6.248   1.998
 3483TIP3    H210395   7.057   6.139   2.006
 3484TIP3   OH210396   1.128   2.187   6.313
 3484TIP3    H110397   1.093   2.255   6.371
 3484TIP3    H210398   1.075   2.110   6.331
 3485TIP3   OH210399   7.677   1.996   4.637
 3485TIP3    H110400   7.590   1.992   4.677
 3485TIP3    H210401   7.667   2.059   4.566
 3486TIP3   OH210402   5.818   1.473   4.238
 3486TIP3    H110403   5.810   1.509   4.150
 3486TIP3    H210404   5.743   1.415   4.247
 3487TIP3   OH210405   3.693   1.427   4.795
 3487TIP3    H110406   3.711   1.521   4.797
 3487TIP3    H210407   3.758   1.388   4.854
 3488TIP3   OH210408   2.822   5.529   6.266
 3488TIP3    H110409   2.763   5.477   6.321
 3488TIP3    H210410   2.891   5.468   6.242
 3489TIP3   OH210411   3.553   5.465   4.881
 3489TIP3    H110412   3.593   5.501   4.960
 3489TIP3    H210413   3.479   5.413   4.914
 3490TIP3   OH210414   8.165   5.080   1.338
 3490TIP3    H110415   8.118   5.000   1.314
 3490TIP3    H210416   8.257   5.061   1.318
 3491TIP3   OH210417   7.234   4.923   4.247
 3491TIP3    H110418   7.270   4.837   4.266
 3491TIP3    H210419   7.272   4.981   4.314
 3492TIP3   OH210420   3.462   6.722   6.239
 3492TIP3    H110421   3.415   6.802   6.216
 3492TIP3    H210422   3.394   6.666   6.278
 3493TIP3   OH210423   2.648   4.044   4.984
 3493TIP3    H110424   2.715   4.076   5.045
 3493TIP3    H210425   2.639   3.951   5.006
 3494TIP3   OH210426   4.495   7.616   5.269
 3494TIP3    H110427   4.522   7.671   5.195
 3494TIP3    H210428   4.564   7.630   5.335
 3495TIP3   OH210429   7.423   5.518   5.517
 3495TIP3    H110430   7.431   5.424   5.530
 3495TIP3    H210431   7.454   5.557   5.599
 3496TIP3   OH210432   1.599   0.387   0.061
 3496TIP3    H110433   1.624   0.470   0.101
 3496TIP3    H210434   1.662   0.374  -0.009
 3497TIP3   OH210435   6.723   2.324   2.479
 3497TIP3    H110436   6.790   2.331   2.411
 3497TIP3    H210437   6.773   2.327   2.561
 3498TIP3   OH210438   7.902   0.404   5.476
 3498TIP3    H110439   7.938   0.445   5.555
 3498TIP3    H210440   7.855   0.474   5.432
 3499TIP3   OH210441   3.258   1.819   1.987
 3499TIP3    H110442   3.344   1.835   2.026
 3499TIP3    H210443   3.235   1.903   1.946
 3500TIP3   OH210444   2.430   7.022   0.842
 3500TIP3    H110445   2.395   6.933   0.833
 3500TIP3    H210446   2.514   7.010   0.887
 3501TIP3   OH210447   5.617   4.284   2.821
 3501TIP3    H110448   5.618   4.368   2.868
 3501TIP3    H210449   5.569   4.225   2.879
 3502TIP3   OH210450   0.047   1.900   0.403
 3502TIP3    H110451   0.059   1.813   0.364
 3502TIP3    H210452  -0.046   1.917   0.396
 3503TIP3   OH210453   5.632   2.140   2.430
 3503TIP3    H110454   5.618   2.183   2.514
 3503TIP3    H210455   5.668   2.054   2.453
 3504TIP3   OH210456   3.605   6.314   0.478
 3504TIP3    H110457   3.555   6.247   0.432
 3504TIP3    H210458   3.685   6.323   0.427
 3505TIP3   OH210459   5.203   5.346   2.973
 3505TIP3    H110460   5.157   5.290   2.911
 3505TIP3    H210461   5.166   5.433   2.960
 3506TIP3   OH210462   7.024   5.388   0.780
 3506TIP3    H110463   6.941   5.370   0.824
 3506TIP3    H210464   7.048   5.304   0.740
 3507TIP3   OH210465   1.945   6.637   4.961
 3507TIP3    H110466   1.928   6.649   5.055
 3507TIP3    H210467   1.974   6.723   4.931
 3508TIP3   OH210468   4.805   1.842   3.398
 3508TIP3    H110469   4.770   1.932   3.396
 3508TIP3    H210470   4.828   1.824   3.306
 3509TIP3   OH210471   4.891   1.121   4.243
 3509TIP3    H110472   4.847   1.193   4.287
 3509TIP3    H210473   4.829   1.094   4.175
 3510TIP3   OH210474   4.406   1.798   1.031
 3510TIP3    H110475   4.350   1.875   1.041
 3510TIP3    H210476   4.355   1.738   0.976
 3511TIP3   OH210477   7.849   7.663   0.456
 3511TIP3    H110478   7.834   7.657   0.362
 3511TIP3    H210479   7.867   7.573   0.483
 3512TIP3   OH210480   0.846   5.585   3.584
 3512TIP3    H110481   0.799   5.626   3.657
 3512TIP3    H210482   0.858   5.494   3.611
 3513TIP3   OH210483   0.779   0.425   4.912
 3513TIP3    H110484   0.771   0.361   4.842
 3513TIP3    H210485   0.692   0.427   4.952
 3514TIP3   OH210486   2.731   0.024   3.160
 3514TIP3    H110487   2.681  -0.005   3.084
 3514TIP3    H210488   2.670   0.015   3.234
 3515TIP3   OH210489   2.949   1.602   0.132
 3515TIP3    H110490   2.988   1.610   0.219
 3515TIP3    H210491   3.024   1.608   0.072
 3516TIP3   OH210492   3.329   5.078   2.527
 3516TIP3    H110493   3.237   5.052   2.530
 3516TIP3    H210494   3.334   5.155   2.585
 3517TIP3   OH210495   3.435   4.505   1.449
 3517TIP3    H110496   3.368   4.477   1.388
 3517TIP3    H210497   3.517   4.472   1.413
 3518TIP3   OH210498   6.676   0.527   2.974
 3518TIP3    H110499   6.617   0.464   2.932
 3518TIP3    H210500   6.763   0.487   2.964
 3519TIP3   OH210501   0.293   1.284   6.452
 3519TIP3    H110502   0.334   1.209   6.409
 3519TIP3    H210503   0.312   1.271   6.545
 3520TIP3   OH210504   2.715   6.595   2.119
 3520TIP3    H110505   2.692   6.507   2.088
 3520TIP3    H210506   2.759   6.580   2.203
 3521TIP3   OH210507   5.605   1.207   2.371
 3521TIP3    H110508   5.540   1.213   2.301
 3521TIP3    H210509   5.633   1.116   2.369
 3522TIP3   OH210510   0.549   1.120   5.331
 3522TIP3    H110511   0.475   1.082   5.379
 3522TIP3    H210512   0.589   1.046   5.286
 3523TIP3   OH210513   4.159   2.059   6.120
 3523TIP3    H110514   4.211   2.021   6.190
 3523TIP3    H210515   4.068   2.049   6.148
 3524TIP3   OH210516   4.404   3.148   2.793
 3524TIP3    H110517   4.386   3.166   2.700
 3524TIP3    H210518   4.427   3.055   2.794
 3525TIP3   OH210519   7.851   0.514   0.756
 3525TIP3    H110520   7.915   0.442   0.760
 3525TIP3    H210521   7.773   0.475   0.717
 3526TIP3   OH210522   0.302   7.495   2.779
 3526TIP3    H110523   0.308   7.491   2.875
 3526TIP3    H210524   0.392   7.481   2.749
 3527TIP3   OH210525   4.795   0.269   3.459
 3527TIP3    H110526   4.762   0.212   3.528
 3527TIP3    H210527   4.755   0.354   3.478
 3528TIP3   OH210528   1.398   2.956   3.042
 3528TIP3    H110529   1.457   2.886   3.070
 3528TIP3    H210530   1.368   2.997   3.123
 3529TIP3   OH210531   6.013   7.536   4.714
 3529TIP3    H110532   5.924   7.541   4.750
 3529TIP3    H210533   6.020   7.612   4.657
 3530TIP3   OH210534   3.994   5.421   5.468
 3530TIP3    H110535   3.973   5.382   5.553
 3530TIP3    H210536   4.006   5.514   5.486
 3531TIP3   OH210537   4.587   4.779   3.482
 3531TIP3    H110538   4.534   4.725   3.422
 3531TIP3    H210539   4.550   4.762   3.568
 3532TIP3   OH210540   6.566   5.494   6.692
 3532TIP3    H110541   6.569   5.494   6.596
 3532TIP3    H210542   6.499   5.430   6.714
 3533TIP3   OH210543   5.867   6.124   0.592
 3533TIP3    H110544   5.790   6.084   0.552
 3533TIP3    H210545   5.849   6.218   0.589
 3534TIP3   OH210546   6.984   4.695   6.704
 3534TIP3    H110547   7.053   4.737   6.652
 3534TIP3    H210548   6.978   4.748   6.783
 3535TIP3   OH210549   5.982   4.764   5.154
 3535TIP3    H110550   5.894   4.787   5.184
 3535TIP3    H210551   5.971   4.745   5.061
 3536TIP3   OH210552   3.610   3.171   3.217
 3536TIP3    H110553   3.613   3.076   3.227
 3536TIP3    H210554   3.645   3.187   3.129
 3537TIP3   OH210555   1.807   3.563   2.809
 3537TIP3    H110556   1.787   3.578   2.717
 3537TIP3    H210557   1.792   3.469   2.821
 3538TIP3   OH210558   3.827   6.834   4.467
 3538TIP3    H110559   3.918   6.836   4.436
 3538TIP3    H210560   3.824   6.899   4.537
 3539TIP3   OH210561   4.998   4.967   1.959
 3539TIP3    H110562   5.013   4.904   2.029
 3539TIP3    H210563   5.077   4.963   1.905
 3540TIP3   OH210564   4.784   5.132   2.637
 3540TIP3    H110565   4.762   5.063   2.700
 3540TIP3    H210566   4.757   5.213   2.681
 3541TIP3   OH210567   1.147   5.886   5.203
 3541TIP3    H110568   1.180   5.952   5.263
 3541TIP3    H210569   1.199   5.897   5.124
 3542TIP3   OH210570   7.167   3.917   1.481
 3542TIP3    H110571   7.196   4.008   1.488
 3542TIP3    H210572   7.144   3.893   1.571
 3543TIP3   OH210573   5.180   0.775   5.322
 3543TIP3    H110574   5.195   0.747   5.413
 3543TIP3    H210575   5.193   0.696   5.270
 3544TIP3   OH210576   8.297   4.414   2.842
 3544TIP3    H110577   8.333   4.353   2.778
 3544TIP3    H210578   8.234   4.466   2.793
 3545TIP3   OH210579   0.533   3.199   3.984
 3545TIP3    H110580   0.492   3.209   3.898
 3545TIP3    H210581   0.612   3.148   3.967
 3546TIP3   OH210582   3.725   6.945   2.336
 3546TIP3    H110583   3.748   7.016   2.277
 3546TIP3    H210584   3.704   6.988   2.419
 3547TIP3   OH210585   4.567   5.165   2.087
 3547TIP3    H110586   4.662   5.171   2.092
 3547TIP3    H210587   4.550   5.089   2.032
 3548TIP3   OH210588   2.206   0.967   3.655
 3548TIP3    H110589   2.295   0.957   3.688
 3548TIP3    H210590   2.150   0.933   3.725
 3549TIP3   OH210591   6.384   6.899   4.668
 3549TIP3    H110592   6.403   6.940   4.583
 3549TIP3    H210593   6.396   6.805   4.652
 3550TIP3   OH210594   0.662   0.889   0.598
 3550TIP3    H110595   0.678   0.816   0.539
 3550TIP3    H210596   0.652   0.849   0.685
 3551TIP3   OH210597   6.447   4.538   4.524
 3551TIP3    H110598   6.524   4.546   4.466
 3551TIP3    H210599   6.450   4.616   4.578
 3552TIP3   OH210600   3.581   0.530   0.257
 3552TIP3    H110601   3.646   0.600   0.263
 3552TIP3    H210602   3.497   0.576   0.262
 3553TIP3   OH210603   4.470   4.372   1.838
 3553TIP3    H110604   4.447   4.398   1.927
 3553TIP3    H210605   4.400   4.411   1.784
 3554TIP3   OH210606   0.236   0.140   5.808
 3554TIP3    H110607   0.174   0.159   5.738
 3554TIP3    H210608   0.189   0.080   5.866
 3555TIP3   OH210609   7.095   4.859   6.469
 3555TIP3    H110610   7.125   4.786   6.415
 3555TIP3    H210611   7.027   4.902   6.417
 3556TIP3   OH210612   6.981   1.211   4.410
 3556TIP3    H110613   7.012   1.228   4.321
 3556TIP3    H210614   6.985   1.116   4.420
 3557TIP3   OH210615   1.849   6.616   3.302
 3557TIP3    H110616   1.904   6.669   3.244
 3557TIP3    H210617   1.793   6.679   3.346
 3558TIP3   OH210618   0.204   7.684   4.189
 3558TIP3    H110619   0.210   7.778   4.209
 3558TIP3    H210620   0.131   7.652   4.241
 3559TIP3   OH210621   5.307   6.430   5.764
 3559TIP3    H110622   5.346   6.517   5.772
 3559TIP3    H210623   5.351   6.391   5.688
 3560TIP3   OH210624   1.315   0.453   4.748
 3560TIP3    H110625   1.241   0.403   4.783
 3560TIP3    H210626   1.380   0.386   4.725
 3561TIP3   OH210627   7.220   0.169   0.934
 3561TIP3    H110628   7.161   0.097   0.909
 3561TIP3    H210629   7.204   0.181   1.027
 3562TIP3   OH210630   7.912   5.860   6.288
 3562TIP3    H110631   7.983   5.891   6.232
 3562TIP3    H210632   7.862   5.799   6.233
 3563TIP3   OH210633   3.387   5.752   4.276
 3563TIP3    H110634   3.450   5.823   4.281
 3563TIP3    H210635   3.377   5.722   4.367
 3564TIP3   OH210636   5.263   4.865   0.893
 3564TIP3    H110637   5.179   4.903   0.871
 3564TIP3    H210638   5.251   4.830   0.982
 3565TIP3   OH210639   2.994   6.265   3.988
 3565TIP3    H110640   3.080   6.258   3.948
 3565TIP3    H210641   2.939   6.205   3.937
 3566TIP3   OH210642   0.418   3.477   2.603
 3566TIP3    H110643   0.509   3.499   2.585
 3566TIP3    H210644   0.368   3.518   2.532
 3567TIP3   OH210645   0.488   0.807   5.739
 3567TIP3    H110646   0.431   0.861   5.794
 3567TIP3    H210647   0.575   0.819   5.776
 3568TIP3   OH210648   7.074   7.397   0.983
 3568TIP3    H110649   7.026   7.315   0.990
 3568TIP3    H210650   7.094   7.406   0.890
 3569TIP3   OH210651   2.901   5.700   6.036
 3569TIP3    H110652   2.880   5.709   6.129
 3569TIP3    H210653   2.851   5.623   6.007
 3570TIP3   OH210654   0.924   1.760   4.044
 3570TIP3    H110655   1.005   1.774   4.092
 3570TIP3    H210656   0.926   1.666   4.022
 3571TIP3   OH210657   0.106   5.411   2.891
 3571TIP3    H110658   0.158   5.468   2.947
 3571TIP3    H210659   0.066   5.469   2.827
 3572TIP3   OH210660   0.420   7.023   0.620
 3572TIP3    H110661   0.482   7.072   0.565
 3572TIP3    H210662   0.344   7.082   0.628
 3573TIP3   OH210663   4.343   1.213   5.560
 3573TIP3    H110664   4.392   1.280   5.513
 3573TIP3    H210665   4.320   1.255   5.644
 3574TIP3   OH210666   2.988   3.119   3.772
 3574TIP3    H110667   3.031   3.089   3.852
 3574TIP3    H210668   2.939   3.197   3.799
 3575TIP3   OH210669   4.451   5.675   5.819
 3575TIP3    H110670   4.465   5.585   5.791
 3575TIP3    H210671   4.444   5.726   5.738
 3576TIP3   OH210672   2.244   3.732   6.374
 3576TIP3    H110673   2.275   3.689   6.454
 3576TIP3    H210674   2.231   3.824   6.400
 3577TIP3   OH210675   7.588   3.760   4.206
 3577TIP3    H110676   7.631   3.745   4.290
 3577TIP3    H210677   7.548   3.676   4.184
 3578TIP3   OH210678   5.787   0.722   2.856
 3578TIP3    H110679   5.840   0.786   2.807
 3578TIP3    H210680   5.809   0.738   2.947
 3579TIP3   OH210681   7.175   5.174   4.010
 3579TIP3    H110682   7.129   5.174   4.094
 3579TIP3    H210683   7.125   5.234   3.956
 3580TIP3   OH210684   6.072   0.252   1.297
 3580TIP3    H110685   6.101   0.280   1.210
 3580TIP3    H210686   6.096   0.159   1.301
 3581TIP3   OH210687   5.430   3.624   3.884
 3581TIP3    H110688   5.405   3.533   3.866
 3581TIP3    H210689   5.517   3.617   3.925
 3582TIP3   OH210690   7.955   2.794   3.760
 3582TIP3    H110691   8.048   2.801   3.780
 3582TIP3    H210692   7.911   2.799   3.845
 3583TIP3   OH210693   7.006   1.114   1.511
 3583TIP3    H110694   7.052   1.193   1.483
 3583TIP3    H210695   7.070   1.043   1.502
 3584TIP3   OH210696   2.988   6.468   5.255
 3584TIP3    H110697   2.929   6.541   5.276
 3584TIP3    H210698   3.011   6.430   5.339
 3585TIP3   OH210699   2.853   3.005   4.969
 3585TIP3    H110700   2.778   3.063   4.981
 3585TIP3    H210701   2.881   3.019   4.878
 3586TIP3   OH210702   1.240   1.632   3.590
 3586TIP3    H110703   1.311   1.684   3.627
 3586TIP3    H210704   1.161   1.685   3.604
 3587TIP3   OH210705   2.290   7.098   3.744
 3587TIP3    H110706   2.292   7.011   3.705
 3587TIP3    H210707   2.197   7.118   3.754
 3588TIP3   OH210708   3.999   3.817   5.328
 3588TIP3    H110709   3.976   3.846   5.239
 3588TIP3    H210710   3.975   3.891   5.384
 3589TIP3   OH210711   6.182   7.157   1.020
 3589TIP3    H110712   6.151   7.247   1.015
 3589TIP3    H210713   6.251   7.159   1.086
 3590TIP3   OH210714   4.806   1.603   3.747
 3590TIP3    H110715   4.748   1.655   3.692
 3590TIP3    H210716   4.879   1.580   3.689
 3591TIP3   OH210717   4.886   5.898   2.939
 3591TIP3    H110718   4.894   5.848   3.020
 3591TIP3    H210719   4.797   5.882   2.909
 3592TIP3   OH210720   4.653   3.021   3.014
 3592TIP3    H110721   4.667   3.062   3.099
 3592TIP3    H210722   4.648   3.094   2.953
 3593TIP3   OH210723   0.724   4.287   4.083
 3593TIP3    H110724   0.679   4.355   4.133
 3593TIP3    H210725   0.711   4.313   3.992
 3594TIP3   OH210726   7.561   6.825   4.299
 3594TIP3    H110727   7.551   6.833   4.205
 3594TIP3    H210728   7.570   6.916   4.330
 3595TIP3   OH210729   1.862   6.606   1.917
 3595TIP3    H110730   1.818   6.677   1.871
 3595TIP3    H210731   1.835   6.616   2.008
 3596TIP3   OH210732   0.329   4.082   0.926
 3596TIP3    H110733   0.352   3.989   0.932
 3596TIP3    H210734   0.351   4.117   1.012
 3597TIP3   OH210735   7.745   3.551   1.251
 3597TIP3    H110736   7.680   3.507   1.307
 3597TIP3    H210737   7.812   3.582   1.312
 3598TIP3   OH210738   4.380   4.067   4.713
 3598TIP3    H110739   4.373   3.979   4.749
 3598TIP3    H210740   4.338   4.061   4.627
 3599TIP3   OH210741   0.219   6.108   2.383
 3599TIP3    H110742   0.155   6.049   2.344
 3599TIP3    H210743   0.241   6.170   2.313
 3600TIP3   OH210744   7.609   1.978   5.876
 3600TIP3    H110745   7.675   1.953   5.811
 3600TIP3    H210746   7.657   2.026   5.943
 3601TIP3   OH210747   6.113   6.190   0.686
 3601TIP3    H110748   6.078   6.274   0.657
 3601TIP3    H210749   6.067   6.125   0.634
 3602TIP3   OH210750   5.100   7.243   5.649
 3602TIP3    H110751   5.119   7.160   5.694
 3602TIP3    H210752   5.141   7.309   5.705
 3603TIP3   OH210753   5.168   1.803   4.641
 3603TIP3    H110754   5.198   1.841   4.558
 3603TIP3    H210755   5.110   1.869   4.678
 3604TIP3   OH210756   6.231   0.482   2.106
 3604TIP3    H110757   6.190   0.425   2.040
 3604TIP3    H210758   6.325   0.471   2.092
 3605TIP3   OH210759   5.963   7.239   3.873
 3605TIP3    H110760   5.990   7.169   3.814
 3605TIP3    H210761   5.960   7.318   3.818
 3606TIP3   OH210762   6.298   5.308   6.153
 3606TIP3    H110763   6.216   5.298   6.203
 3606TIP3    H210764   6.335   5.220   6.151
 3607TIP3   OH210765   0.819   3.012   2.932
 3607TIP3    H110766   0.771   3.051   2.859
 3607TIP3    H210767   0.793   2.920   2.931
 3608TIP3   OH210768   0.482   1.376   0.391
 3608TIP3    H110769   0.404   1.350   0.342
 3608TIP3    H210770   0.554   1.360   0.330
 3609TIP3   OH210771   0.528   4.549   1.611
 3609TIP3    H110772   0.436   4.567   1.590
 3609TIP3    H210773   0.527   4.529   1.705
 3610TIP3   OH210774   7.135   7.055   1.319
 3610TIP3    H110775   7.153   7.145   1.292
 3610TIP3    H210776   7.219   7.022   1.350
 3611TIP3   OH210777   1.680   6.072   5.770
 3611TIP3    H110778   1.764   6.106   5.738
 3611TIP3    H210779   1.642   6.027   5.695
 3612TIP3   OH210780   5.162   4.604   4.149
 3612TIP3    H110781   5.194   4.543   4.083
 3612TIP3    H210782   5.220   4.680   4.142
 3613TIP3   OH210783   1.548   6.172   3.670
 3613TIP3    H110784   1.594   6.193   3.589
 3613TIP3    H210785   1.608   6.115   3.718
 3614TIP3   OH210786   2.005   0.986   0.563
 3614TIP3    H110787   2.005   1.078   0.590
 3614TIP3    H210788   1.933   0.980   0.499
 3615TIP3   OH210789   5.912   1.829   2.755
 3615TIP3    H110790   5.907   1.819   2.850
 3615TIP3    H210791   5.957   1.912   2.742
 3616TIP3   OH210792   0.856   5.780   4.833
 3616TIP3    H110793   0.777   5.807   4.785
 3616TIP3    H210794   0.911   5.740   4.766
 3617TIP3   OH210795   0.149   4.919   0.020
 3617TIP3    H110796   0.111   5.007   0.023
 3617TIP3    H210797   0.243   4.934   0.024
 3618TIP3   OH210798   4.239   4.015   4.174
 3618TIP3    H110799   4.304   4.025   4.105
 3618TIP3    H210800   4.210   3.924   4.166
 3619TIP3   OH210801   7.264   2.636   5.275
 3619TIP3    H110802   7.249   2.729   5.258
 3619TIP3    H210803   7.320   2.608   5.202
 3620TIP3   OH210804   4.511   4.197   0.456
 3620TIP3    H110805   4.424   4.215   0.420
 3620TIP3    H210806   4.555   4.282   0.456
 3621TIP3   OH210807   3.432   3.925   3.167
 3621TIP3    H110808   3.394   3.842   3.137
 3621TIP3    H210809   3.523   3.921   3.137
 3622TIP3   OH210810   6.411   3.515   6.401
 3622TIP3    H110811   6.455   3.571   6.465
 3622TIP3    H210812   6.341   3.570   6.365
 3623TIP3   OH210813   2.639   4.437   0.030
 3623TIP3    H110814   2.615   4.362  -0.024
 3623TIP3    H210815   2.558   4.462   0.074
 3624TIP3   OH210816   3.209   2.984   4.941
 3624TIP3    H110817   3.141   2.917   4.939
 3624TIP3    H210818   3.265   2.960   5.014
 3625TIP3   OH210819   1.387   6.129   2.856
 3625TIP3    H110820   1.441   6.189   2.908
 3625TIP3    H210821   1.373   6.054   2.914
 3626TIP3   OH210822   1.042   6.566   5.975
 3626TIP3    H110823   1.020   6.659   5.973
 3626TIP3    H210824   0.968   6.526   6.020
 3627TIP3   OH210825   4.257   5.893   2.297
 3627TIP3    H110826   4.221   5.856   2.217
 3627TIP3    H210827   4.184   5.939   2.338
 3628TIP3   OH210828   5.226   2.694   0.581
 3628TIP3    H110829   5.317   2.686   0.553
 3628TIP3    H210830   5.197   2.778   0.546
 3629TIP3   OH210831   1.340   6.066   5.329
 3629TIP3    H110832   1.317   6.118   5.405
 3629TIP3    H210833   1.426   6.098   5.302
 3630TIP3   OH210834   8.018   4.984   6.034
 3630TIP3    H110835   8.108   4.954   6.023
 3630TIP3    H210836   8.027   5.076   6.061
 3631TIP3   OH210837   5.749   5.112   5.508
 3631TIP3    H110838   5.657   5.085   5.508
 3631TIP3    H210839   5.749   5.198   5.467
 3632TIP3   OH210840   5.212   4.857   0.575
 3632TIP3    H110841   5.256   4.895   0.651
 3632TIP3    H210842   5.282   4.829   0.517
 3633TIP3   OH210843   2.615   2.895   2.935
 3633TIP3    H110844   2.669   2.826   2.974
 3633TIP3    H210845   2.657   2.914   2.851
 3634TIP3   OH210846   5.241   7.237   2.766
 3634TIP3    H110847   5.174   7.191   2.817
 3634TIP3    H210848   5.208   7.327   2.758
 3635TIP3   OH210849   1.306   6.842   6.115
 3635TIP3    H110850   1.270   6.899   6.184
 3635TIP3    H210851   1.297   6.753   6.150
 3636TIP3   OH210852   1.449   1.048   4.587
 3636TIP3    H110853   1.367   1.014   4.553
 3636TIP3    H210854   1.424   1.123   4.640
 3637TIP3   OH210855   0.563   7.198   0.468
 3637TIP3    H110856   0.482   7.218   0.420
 3637TIP3    H210857   0.619   7.274   0.454
 3638TIP3   OH210858   4.710   1.511   4.869
 3638TIP3    H110859   4.740   1.446   4.933
 3638TIP3    H210860   4.753   1.487   4.788
 3639TIP3   OH210861   6.674   3.355   4.406
 3639TIP3    H110862   6.715   3.342   4.320
 3639TIP3    H210863   6.678   3.449   4.422
 3640TIP3   OH210864   8.063   4.122   3.836
 3640TIP3    H110865   7.981   4.164   3.809
 3640TIP3    H210866   8.066   4.133   3.931
 3641TIP3   OH210867   5.505   6.850   6.626
 3641TIP3    H110868   5.470   6.788   6.562
 3641TIP3    H210869   5.575   6.897   6.579
 3642TIP3   OH210870   7.619   3.797   6.644
 3642TIP3    H110871   7.554   3.806   6.574
 3642TIP3    H210872   7.694   3.849   6.614
 3643TIP3   OH210873   1.056   6.639   2.642
 3643TIP3    H110874   1.034   6.603   2.727
 3643TIP3    H210875   1.140   6.598   2.620
 3644TIP3   OH210876   2.326   3.370   3.873
 3644TIP3    H110877   2.255   3.306   3.869
 3644TIP3    H210878   2.283   3.454   3.856
 3645TIP3   OH210879   6.905   6.631   3.201
 3645TIP3    H110880   6.917   6.623   3.106
 3645TIP3    H210881   6.991   6.608   3.237
 3646TIP3   OH210882   1.848   0.240   5.795
 3646TIP3    H110883   1.918   0.257   5.732
 3646TIP3    H210884   1.769   0.230   5.741
 3647TIP3   OH210885   7.297   5.181   3.022
 3647TIP3    H110886   7.202   5.174   3.021
 3647TIP3    H210887   7.320   5.181   3.115
 3648TIP3   OH210888   1.101   0.701   5.090
 3648TIP3    H110889   1.056   0.751   5.158
 3648TIP3    H210890   1.061   0.730   5.008
 3649TIP3   OH210891   7.501   2.288   5.680
 3649TIP3    H110892   7.437   2.285   5.609
 3649TIP3    H210893   7.559   2.214   5.663
 3650TIP3   OH210894   1.426   1.470   2.070
 3650TIP3    H110895   1.456   1.561   2.077
 3650TIP3    H210896   1.504   1.418   2.086
 3651TIP3   OH210897   7.227   3.287   6.598
 3651TIP3    H110898   7.148   3.234   6.594
 3651TIP3    H210899   7.298   3.224   6.607
 3652TIP3   OH210900   6.190   6.580   6.166
 3652TIP3    H110901   6.179   6.663   6.120
 3652TIP3    H210902   6.181   6.602   6.259
 3653TIP3   OH210903   0.196   3.642   1.894
 3653TIP3    H110904   0.278   3.667   1.850
 3653TIP3    H210905   0.170   3.720   1.943
 3654TIP3   OH210906   4.798   6.612   6.405
 3654TIP3    H110907   4.864   6.643   6.468
 3654TIP3    H210908   4.734   6.683   6.401
 3655TIP3   OH210909   8.012   3.516   2.609
 3655TIP3    H110910   8.051   3.593   2.649
 3655TIP3    H210911   7.918   3.525   2.626
 3656TIP3   OH210912   5.642   0.392   1.638
 3656TIP3    H110913   5.701   0.327   1.676
 3656TIP3    H210914   5.561   0.382   1.689
 3657TIP3   OH210915   2.002   1.412   3.761
 3657TIP3    H110916   1.912   1.384   3.748
 3657TIP3    H210917   2.053   1.357   3.700
 3658TIP3   OH210918   7.868   2.025   1.866
 3658TIP3    H110919   7.854   2.006   1.959
 3658TIP3    H210920   7.925   2.102   1.866
 3659TIP3   OH210921   6.260   2.291   6.154
 3659TIP3    H110922   6.301   2.356   6.209
 3659TIP3    H210923   6.330   2.230   6.131
 3660TIP3   OH210924   0.636   6.384   2.887
 3660TIP3    H110925   0.700   6.318   2.914
 3660TIP3    H210926   0.593   6.346   2.810
 3661TIP3   OH210927   0.309   2.397   5.407
 3661TIP3    H110928   0.347   2.464   5.463
 3661TIP3    H210929   0.381   2.335   5.392
 3662TIP3   OH210930   4.057   0.397   0.912
 3662TIP3    H110931   4.106   0.379   0.992
 3662TIP3    H210932   4.122   0.391   0.841
 3663TIP3   OH210933   1.891   4.650   3.231
 3663TIP3    H110934   1.812   4.692   3.264
 3663TIP3    H210935   1.863   4.564   3.203
 3664TIP3   OH210936   2.874   5.505   3.654
 3664TIP3    H110937   2.833   5.477   3.736
 3664TIP3    H210938   2.805   5.498   3.589
 3665TIP3   OH210939   3.376   7.725   6.301
 3665TIP3    H110940   3.470   7.719   6.289
 3665TIP3    H210941   3.345   7.634   6.300
 3666TIP3   OH210942   5.567   6.516   5.940
 3666TIP3    H110943   5.638   6.538   5.880
 3666TIP3    H210944   5.549   6.424   5.923
 3667TIP3   OH210945   6.136   6.797   0.515
 3667TIP3    H110946   6.080   6.784   0.438
 3667TIP3    H210947   6.107   6.880   0.552
 3668TIP3   OH210948   7.385   6.034   2.631
 3668TIP3    H110949   7.392   5.986   2.548
 3668TIP3    H210950   7.421   6.121   2.612
 3669TIP3   OH210951   5.938   7.346   5.131
 3669TIP3    H110952   5.987   7.423   5.158
 3669TIP3    H210953   5.916   7.302   5.213
 3670TIP3   OH210954   6.982   0.658   2.978
 3670TIP3    H110955   7.074   0.660   2.951
 3670TIP3    H210956   6.977   0.723   3.048
 3671TIP3   OH210957   1.892   6.869   6.103
 3671TIP3    H110958   1.972   6.921   6.099
 3671TIP3    H210959   1.852   6.879   6.017
 3672TIP3   OH210960   2.390   0.386   2.668
 3672TIP3    H110961   2.389   0.337   2.586
 3672TIP3    H210962   2.479   0.420   2.675
 3673TIP3   OH210963   4.875   6.541   4.888
 3673TIP3    H110964   4.924   6.602   4.943
 3673TIP3    H210965   4.913   6.553   4.801
 3674TIP3   OH210966   6.245   0.106   6.088
 3674TIP3    H110967   6.195   0.187   6.102
 3674TIP3    H210968   6.244   0.063   6.174
 3675TIP3   OH210969   3.074   1.947   5.836
 3675TIP3    H110970   3.149   1.964   5.779
 3675TIP3    H210971   3.067   1.851   5.837
 3676TIP3   OH210972   7.882   0.073   0.042
 3676TIP3    H110973   7.853   0.068   0.133
 3676TIP3    H210974   7.814   0.025  -0.007
 3677TIP3   OH210975   1.988   4.834   1.873
 3677TIP3    H110976   1.908   4.843   1.821
 3677TIP3    H210977   2.059   4.833   1.808
 3678TIP3   OH210978   5.106   4.499   1.499
 3678TIP3    H110979   5.094   4.566   1.567
 3678TIP3    H210980   5.017   4.472   1.476
 3679TIP3   OH210981   4.942   6.997   2.114
 3679TIP3    H110982   4.934   6.988   2.020
 3679TIP3    H210983   4.908   7.085   2.133
 3680TIP3   OH210984   7.748   2.163   6.075
 3680TIP3    H110985   7.772   2.242   6.123
 3680TIP3    H210986   7.814   2.099   6.099
 3681TIP3   OH210987   2.552   3.490   4.778
 3681TIP3    H110988   2.535   3.512   4.686
 3681TIP3    H210989   2.552   3.394   4.780
 3682TIP3   OH210990   6.909   3.856   5.520
 3682TIP3    H110991   6.824   3.897   5.535
 3682TIP3    H210992   6.915   3.846   5.425
 3683TIP3   OH210993   4.258   0.960   5.350
 3683TIP3    H110994   4.282   0.973   5.442
 3683TIP3    H210995   4.183   0.901   5.353
 3684TIP3   OH210996   7.304   1.659   5.187
 3684TIP3    H110997   7.275   1.735   5.138
 3684TIP3    H210998   7.348   1.604   5.122
 3685TIP3   OH210999   7.491   7.533   2.086
 3685TIP3    H111000   7.404   7.570   2.103
 3685TIP3    H211001   7.480   7.439   2.103
 3686TIP3   OH211002   7.194   0.760   3.790
 3686TIP3    H111003   7.217   0.676   3.830
 3686TIP3    H211004   7.164   0.814   3.863
 3687TIP3   OH211005   1.851   5.513   1.287
 3687TIP3    H111006   1.845   5.420   1.310
 3687TIP3    H211007   1.883   5.513   1.197
 3688TIP3   OH211008   3.111   6.465   3.249
 3688TIP3    H111009   3.134   6.546   3.203
 3688TIP3    H211010   3.167   6.398   3.209
 3689TIP3   OH211011   3.925   7.035   4.131
 3689TIP3    H111012   3.937   7.115   4.080
 3689TIP3    H211013   3.870   7.062   4.205
 3690TIP3   OH211014   6.209   5.132   3.760
 3690TIP3    H111015   6.176   5.166   3.843
 3690TIP3    H211016   6.298   5.165   3.754
 3691TIP3   OH211017   3.866   0.628   1.458
 3691TIP3    H111018   3.789   0.616   1.513
 3691TIP3    H211019   3.852   0.711   1.413
 3692TIP3   OH211020   4.144   5.901   6.105
 3692TIP3    H111021   4.230   5.861   6.088
 3692TIP3    H211022   4.125   5.877   6.196
 3693TIP3   OH211023   6.344   7.091   3.561
 3693TIP3    H111024   6.315   7.182   3.563
 3693TIP3    H211025   6.406   7.084   3.634
 3694TIP3   OH211026   1.290   0.529   3.649
 3694TIP3    H111027   1.262   0.493   3.565
 3694TIP3    H211028   1.270   0.622   3.643
 3695TIP3   OH211029   3.624   1.604   3.942
 3695TIP3    H111030   3.635   1.688   3.988
 3695TIP3    H211031   3.532   1.603   3.916
 3696TIP3   OH211032   4.787   1.359   4.634
 3696TIP3    H111033   4.881   1.351   4.619
 3696TIP3    H211034   4.747   1.332   4.552
 3697TIP3   OH211035   7.372   3.009   6.645
 3697TIP3    H111036   7.442   2.956   6.607
 3697TIP3    H211037   7.345   2.962   6.724
 3698TIP3   OH211038   0.876   7.223   2.572
 3698TIP3    H111039   0.802   7.174   2.536
 3698TIP3    H211040   0.840   7.269   2.648
 3699TIP3   OH211041   8.203   3.868   2.895
 3699TIP3    H111042   8.211   3.860   2.800
 3699TIP3    H211043   8.287   3.839   2.929
 3700TIP3   OH211044   8.100   0.856   3.423
 3700TIP3    H111045   8.180   0.853   3.371
 3700TIP3    H211046   8.096   0.770   3.466
 3701TIP3   OH211047   3.365   1.568   0.089
 3701TIP3    H111048   3.412   1.651   0.098
 3701TIP3    H211049   3.284   1.590   0.044
 3702TIP3   OH211050   6.977   7.208   1.713
 3702TIP3    H111051   7.038   7.176   1.780
 3702TIP3    H211052   6.959   7.299   1.738
 3703TIP3   OH211053   8.200   0.817   5.131
 3703TIP3    H111054   8.193   0.762   5.053
 3703TIP3    H211055   8.293   0.840   5.136
 3704TIP3   OH211056   1.580   1.418   3.822
 3704TIP3    H111057   1.613   1.506   3.804
 3704TIP3    H211058   1.614   1.364   3.751
 3705TIP3   OH211059   4.943   3.844   2.234
 3705TIP3    H111060   4.931   3.766   2.289
 3705TIP3    H211061   4.866   3.898   2.251
 3706TIP3   OH211062   1.030   6.360   1.577
 3706TIP3    H111063   0.944   6.327   1.550
 3706TIP3    H211064   1.010   6.445   1.616
 3707TIP3   OH211065   0.267   5.288   4.242
 3707TIP3    H111066   0.266   5.380   4.268
 3707TIP3    H211067   0.360   5.264   4.244
 3708TIP3   OH211068   3.820   5.239   0.070
 3708TIP3    H111069   3.790   5.236  -0.021
 3708TIP3    H211070   3.910   5.271   0.065
 3709TIP3   OH211071   6.456   6.643   0.677
 3709TIP3    H111072   6.425   6.614   0.591
 3709TIP3    H211073   6.416   6.729   0.689
 3710TIP3   OH211074   7.479   4.604   2.063
 3710TIP3    H111075   7.544   4.667   2.094
 3710TIP3    H211076   7.527   4.545   2.005
 3711TIP3   OH211077   1.803   2.493   2.580
 3711TIP3    H111078   1.728   2.445   2.616
 3711TIP3    H211079   1.880   2.450   2.618
 3712TIP3   OH211080   2.928   1.896   2.247
 3712TIP3    H111081   2.890   1.943   2.173
 3712TIP3    H211082   2.998   1.844   2.208
 3713TIP3   OH211083   4.262   1.371   5.810
 3713TIP3    H111084   4.229   1.397   5.896
 3713TIP3    H211085   4.184   1.347   5.760
 3714TIP3   OH211086   4.583   7.784   5.051
 3714TIP3    H111087   4.664   7.778   4.999
 3714TIP3    H211088   4.527   7.843   5.000
 3715TIP3   OH211089   4.760   6.645   3.406
 3715TIP3    H111090   4.785   6.732   3.375
 3715TIP3    H211091   4.841   6.607   3.441
 3716TIP3   OH211092   2.809   3.639   6.492
 3716TIP3    H111093   2.878   3.634   6.558
 3716TIP3    H211094   2.727   3.639   6.543
 3717TIP3   OH211095   2.322   0.827   1.633
 3717TIP3    H111096   2.250   0.787   1.681
 3717TIP3    H211097   2.368   0.880   1.699
 3718TIP3   OH211098   4.907   2.284   5.419
 3718TIP3    H111099   4.858   2.331   5.486
 3718TIP3    H211100   4.972   2.233   5.468
 3719TIP3   OH211101   4.629   3.820   5.459
 3719TIP3    H111102   4.573   3.744   5.477
 3719TIP3    H211103   4.715   3.782   5.440
 3720TIP3   OH211104   0.146   4.755   2.430
 3720TIP3    H111105   0.210   4.686   2.448
 3720TIP3    H211106   0.078   4.742   2.495
 3721TIP3   OH211107   4.450   1.716   1.493
 3721TIP3    H111108   4.402   1.797   1.475
 3721TIP3    H211109   4.389   1.646   1.474
 3722TIP3   OH211110   5.832   2.657   0.628
 3722TIP3    H111111   5.834   2.562   0.617
 3722TIP3    H211112   5.758   2.686   0.574
 3723TIP3   OH211113   1.875   6.224   0.845
 3723TIP3    H111114   1.965   6.191   0.842
 3723TIP3    H211115   1.838   6.183   0.923
 3724TIP3   OH211116   6.349   6.987   6.256
 3724TIP3    H111117   6.351   7.069   6.306
 3724TIP3    H211118   6.345   6.918   6.323
 3725TIP3   OH211119   7.250   3.893   1.997
 3725TIP3    H111120   7.255   3.878   2.091
 3725TIP3    H211121   7.240   3.988   1.988
 3726TIP3   OH211122   8.119   6.978   3.983
 3726TIP3    H111123   8.060   6.907   3.956
 3726TIP3    H211124   8.165   7.002   3.903
 3727TIP3   OH211125   5.332   6.650   6.031
 3727TIP3    H111126   5.412   6.620   5.987
 3727TIP3    H211127   5.286   6.569   6.052
 3728TIP3   OH211128   5.159   6.232   2.836
 3728TIP3    H111129   5.131   6.320   2.861
 3728TIP3    H211130   5.121   6.218   2.749
 3729TIP3   OH211131   0.054   1.386   5.658
 3729TIP3    H111132  -0.019   1.326   5.648
 3729TIP3    H211133   0.087   1.399   5.569
 3730TIP3   OH211134   5.213   4.828   0.036
 3730TIP3    H111135   5.298   4.869   0.049
 3730TIP3    H211136   5.194   4.787   0.121
 3731TIP3   OH211137   7.195   0.934   1.428
 3731TIP3    H111138   7.247   0.854   1.429
 3731TIP3    H211139   7.119   0.913   1.373
 3732TIP3   OH211140   6.595   3.718   5.069
 3732TIP3    H111141   6.646   3.646   5.107
 3732TIP3    H211142   6.570   3.772   5.144
 3733TIP3   OH211143   6.743   1.222   1.554
 3733TIP3    H111144   6.708   1.166   1.624
 3733TIP3    H211145   6.837   1.207   1.556
 3734TIP3   OH211146   7.621   4.230   4.030
 3734TIP3    H111147   7.664   4.168   3.971
 3734TIP3    H211148   7.607   4.308   3.976
 3735TIP3   OH211149   7.289   2.328   1.974
 3735TIP3    H111150   7.296   2.309   1.881
 3735TIP3    H211151   7.197   2.353   1.986
 3736TIP3   OH211152   6.105   0.758   4.985
 3736TIP3    H111153   6.084   0.759   4.892
 3736TIP3    H211154   6.185   0.811   4.992
 3737TIP3   OH211155   5.243   2.324   5.774
 3737TIP3    H111156   5.179   2.254   5.785
 3737TIP3    H211157   5.195   2.404   5.792
 3738TIP3   OH211158   1.733   1.262   5.830
 3738TIP3    H111159   1.648   1.228   5.802
 3738TIP3    H211160   1.764   1.314   5.756
 3739TIP3   OH211161   3.788   3.092   6.630
 3739TIP3    H111162   3.819   3.129   6.548
 3739TIP3    H211163   3.868   3.065   6.676
 3740TIP3   OH211164   3.507   0.058   2.324
 3740TIP3    H111165   3.552   0.037   2.242
 3740TIP3    H211166   3.417   0.028   2.310
 3741TIP3   OH211167   1.253   0.785   3.537
 3741TIP3    H111168   1.240   0.880   3.528
 3741TIP3    H211169   1.236   0.750   3.450
 3742TIP3   OH211170   2.973   6.194   4.687
 3742TIP3    H111171   3.042   6.221   4.746
 3742TIP3    H211172   3.018   6.172   4.605
 3743TIP3   OH211173   1.480   7.553   6.676
 3743TIP3    H111174   1.473   7.636   6.628
 3743TIP3    H211175   1.449   7.487   6.615
 3744TIP3   OH211176   3.611   6.753   1.716
 3744TIP3    H111177   3.541   6.773   1.778
 3744TIP3    H211178   3.577   6.783   1.631
 3745TIP3   OH211179   3.854   0.045   3.557
 3745TIP3    H111180   3.811   0.019   3.475
 3745TIP3    H211181   3.944   0.062   3.533
 3746TIP3   OH211182   6.911   4.394   4.158
 3746TIP3    H111183   6.932   4.479   4.195
 3746TIP3    H211184   6.950   4.331   4.218
 3747TIP3   OH211185   3.655   0.252   6.273
 3747TIP3    H111186   3.586   0.190   6.298
 3747TIP3    H211187   3.607   0.328   6.240
 3748TIP3   OH211188   5.246   0.171   6.717
 3748TIP3    H111189   5.309   0.243   6.728
 3748TIP3    H211190   5.276   0.125   6.638
 3749TIP3   OH211191   1.424   4.403   2.185
 3749TIP3    H111192   1.390   4.488   2.158
 3749TIP3    H211193   1.424   4.407   2.281
 3750TIP3   OH211194   0.854   6.588   5.612
 3750TIP3    H111195   0.812   6.525   5.553
 3750TIP3    H211196   0.817   6.569   5.698
 3751TIP3   OH211197   5.318   3.526   5.771
 3751TIP3    H111198   5.372   3.455   5.736
 3751TIP3    H211199   5.364   3.606   5.745
 3752TIP3   OH211200   2.259   3.571   5.530
 3752TIP3    H111201   2.222   3.658   5.520
 3752TIP3    H211202   2.311   3.558   5.450
 3753TIP3   OH211203   6.601   1.554   6.050
 3753TIP3    H111204   6.654   1.593   6.120
 3753TIP3    H211205   6.608   1.460   6.065
 3754TIP3   OH211206   3.919   6.745   0.293
 3754TIP3    H111207   3.985   6.726   0.360
 3754TIP3    H211208   3.968   6.784   0.221
 3755TIP3   OH211209   0.850   4.026   6.240
 3755TIP3    H111210   0.944   4.038   6.231
 3755TIP3    H211211   0.818   4.019   6.150
 3756TIP3   OH211212   0.702   6.399   4.087
 3756TIP3    H111213   0.763   6.325   4.089
 3756TIP3    H211214   0.653   6.387   4.006
 3757TIP3   OH211215   3.856   7.315   5.783
 3757TIP3    H111216   3.922   7.249   5.802
 3757TIP3    H211217   3.887   7.393   5.829
 3758TIP3   OH211218   2.905   5.943   1.565
 3758TIP3    H111219   2.938   5.895   1.489
 3758TIP3    H211220   2.811   5.952   1.549
 3759TIP3   OH211221   4.951   1.602   4.567
 3759TIP3    H111222   4.998   1.654   4.632
 3759TIP3    H211223   4.859   1.620   4.583
 3760TIP3   OH211224   4.302   1.719   2.664
 3760TIP3    H111225   4.263   1.746   2.581
 3760TIP3    H211226   4.284   1.625   2.669
 3761TIP3   OH211227   3.020   0.994   1.757
 3761TIP3    H111228   3.049   0.998   1.666
 3761TIP3    H211229   2.966   1.072   1.769
 3762TIP3   OH211230   2.870   7.794   5.104
 3762TIP3    H111231   2.822   7.751   5.175
 3762TIP3    H211232   2.946   7.833   5.147
 3763TIP3   OH211233   0.832   4.136   2.709
 3763TIP3    H111234   0.822   4.043   2.731
 3763TIP3    H211235   0.797   4.183   2.785
 3764TIP3   OH211236   6.734   1.330   4.100
 3764TIP3    H111237   6.683   1.284   4.033
 3764TIP3    H211238   6.693   1.416   4.106
 3765TIP3   OH211239   3.458   4.122   2.382
 3765TIP3    H111240   3.419   4.077   2.457
 3765TIP3    H211241   3.552   4.107   2.390
 3766TIP3   OH211242   0.174   5.540   0.917
 3766TIP3    H111243   0.253   5.573   0.874
 3766TIP3    H211244   0.125   5.619   0.939
 3767TIP3   OH211245   6.610   6.487   2.514
 3767TIP3    H111246   6.576   6.443   2.592
 3767TIP3    H211247   6.671   6.424   2.476
 3768TIP3   OH211248   8.008   0.472   4.929
 3768TIP3    H111249   8.050   0.389   4.949
 3768TIP3    H211250   7.915   0.451   4.920
 3769TIP3   OH211251   5.757   0.151   5.575
 3769TIP3    H111252   5.776   0.171   5.666
 3769TIP3    H211253   5.661   0.155   5.569
 3770TIP3   OH211254   0.982   4.327   6.476
 3770TIP3    H111255   1.071   4.311   6.506
 3770TIP3    H211256   0.932   4.253   6.510
 3771TIP3   OH211257   0.542   3.382   1.398
 3771TIP3    H111258   0.456   3.423   1.412
 3771TIP3    H211259   0.567   3.408   1.310
 3772TIP3   OH211260   1.997   7.563   5.355
 3772TIP3    H111261   2.036   7.637   5.399
 3772TIP3    H211262   2.061   7.538   5.288
 3773TIP3   OH211263   2.814   4.993   0.178
 3773TIP3    H111264   2.876   4.934   0.221
 3773TIP3    H211265   2.868   5.042   0.116
 3774TIP3   OH211266   7.394   0.451   2.639
 3774TIP3    H111267   7.399   0.453   2.544
 3774TIP3    H211268   7.302   0.432   2.658
 3775TIP3   OH211269   4.049   2.741   0.971
 3775TIP3    H111270   4.074   2.735   0.879
 3775TIP3    H211271   3.968   2.793   0.970
 3776TIP3   OH211272   6.229   5.998   0.120
 3776TIP3    H111273   6.311   5.960   0.150
 3776TIP3    H211274   6.203   5.945   0.045
 3777TIP3   OH211275   0.981   4.890   4.555
 3777TIP3    H111276   1.040   4.960   4.527
 3777TIP3    H211277   0.943   4.922   4.637
 3778TIP3   OH211278   0.813   3.240   6.661
 3778TIP3    H111279   0.850   3.207   6.743
 3778TIP3    H211280   0.812   3.335   6.671
 3779TIP3   OH211281   0.094   4.634   0.439
 3779TIP3    H111282   0.080   4.545   0.470
 3779TIP3    H211283   0.163   4.669   0.496
 3780TIP3   OH211284   6.143   2.433   5.407
 3780TIP3    H111285   6.187   2.349   5.398
 3780TIP3    H211286   6.140   2.449   5.501
 3781TIP3   OH211287   1.715   1.888   3.769
 3781TIP3    H111288   1.804   1.876   3.801
 3781TIP3    H211289   1.726   1.914   3.677
 3782TIP3   OH211290   2.890   3.635   4.935
 3782TIP3    H111291   2.909   3.577   5.008
 3782TIP3    H211292   2.969   3.632   4.881
 3783TIP3   OH211293   4.692   3.451   6.747
 3783TIP3    H111294   4.693   3.459   6.842
 3783TIP3    H211295   4.742   3.371   6.730
 3784TIP3   OH211296   1.610   5.931   3.103
 3784TIP3    H111297   1.634   5.992   3.033
 3784TIP3    H211298   1.587   5.850   3.058
 3785TIP3   OH211299   6.335   4.337   6.208
 3785TIP3    H111300   6.311   4.426   6.235
 3785TIP3    H211301   6.397   4.350   6.136
 3786TIP3   OH211302   4.321   2.492   4.285
 3786TIP3    H111303   4.371   2.525   4.210
 3786TIP3    H211304   4.232   2.521   4.269
 3787TIP3   OH211305   1.557   2.377   2.623
 3787TIP3    H111306   1.473   2.385   2.668
 3787TIP3    H211307   1.599   2.302   2.666
 3788TIP3   OH211308   4.762   2.779   1.096
 3788TIP3    H111309   4.726   2.727   1.024
 3788TIP3    H211310   4.818   2.844   1.053
 3789TIP3   OH211311   3.151   6.207   6.597
 3789TIP3    H111312   3.243   6.192   6.619
 3789TIP3    H211313   3.132   6.293   6.635
 3790TIP3   OH211314   3.281   6.242   3.230
 3790TIP3    H111315   3.229   6.188   3.290
 3790TIP3    H211316   3.372   6.218   3.250
 3791TIP3   OH211317   2.027   6.914   1.012
 3791TIP3    H111318   1.999   6.995   0.970
 3791TIP3    H211319   1.963   6.848   0.984
 3792TIP3   OH211320   6.101   5.324   0.557
 3792TIP3    H111321   6.069   5.402   0.602
 3792TIP3    H211322   6.147   5.358   0.480
 3793TIP3   OH211323   0.548   6.141   5.606
 3793TIP3    H111324   0.605   6.177   5.674
 3793TIP3    H211325   0.600   6.071   5.566
 3794TIP3   OH211326   5.551   5.395   4.571
 3794TIP3    H111327   5.580   5.484   4.589
 3794TIP3    H211328   5.557   5.387   4.476
 3795TIP3   OH211329   4.233   0.672   0.761
 3795TIP3    H111330   4.242   0.583   0.727
 3795TIP3    H211331   4.139   0.684   0.772
 3796TIP3   OH211332   5.769   4.885   2.578
 3796TIP3    H111333   5.833   4.925   2.636
 3796TIP3    H211334   5.744   4.804   2.622
 3797TIP3   OH211335   2.770   4.418   6.255
 3797TIP3    H111336   2.695   4.430   6.196
 3797TIP3    H211337   2.732   4.378   6.333
 3798TIP3   OH211338   1.742   4.285   2.478
 3798TIP3    H111339   1.817   4.312   2.426
 3798TIP3    H211340   1.710   4.205   2.436
 3799TIP3   OH211341   1.263   7.576   0.081
 3799TIP3    H111342   1.358   7.568   0.084
 3799TIP3    H211343   1.243   7.657   0.128
 3800TIP3   OH211344   7.592   2.880   2.717
 3800TIP3    H111345   7.579   2.866   2.810
 3800TIP3    H211346   7.507   2.862   2.677
 3801TIP3   OH211347   5.289   0.245   3.483
 3801TIP3    H111348   5.358   0.283   3.537
 3801TIP3    H211349   5.312   0.272   3.394
 3802TIP3   OH211350   3.819   7.247   4.604
 3802TIP3    H111351   3.761   7.300   4.548
 3802TIP3    H211352   3.883   7.310   4.637
 3803TIP3   OH211353   1.746   4.780   3.964
 3803TIP3    H111354   1.827   4.832   3.958
 3803TIP3    H211355   1.710   4.782   3.875
 3804TIP3   OH211356   2.153   4.725   0.588
 3804TIP3    H111357   2.235   4.750   0.629
 3804TIP3    H211358   2.178   4.658   0.524
 3805TIP3   OH211359   8.114   7.822   3.392
 3805TIP3    H111360   8.129   7.727   3.399
 3805TIP3    H211361   8.048   7.841   3.459
 3806TIP3   OH211362   7.592   4.457   1.837
 3806TIP3    H111363   7.685   4.465   1.859
 3806TIP3    H211364   7.575   4.363   1.843
 3807TIP3   OH211365   3.793   6.032   1.338
 3807TIP3    H111366   3.885   6.057   1.339
 3807TIP3    H211367   3.781   5.991   1.252
 3808TIP3   OH211368   2.308   7.757   1.389
 3808TIP3    H111369   2.294   7.821   1.320
 3808TIP3    H211370   2.257   7.789   1.463
 3809TIP3   OH211371   1.436   6.468   5.607
 3809TIP3    H111372   1.490   6.403   5.651
 3809TIP3    H211373   1.426   6.538   5.672
 3810TIP3   OH211374   2.630   4.775   0.822
 3810TIP3    H111375   2.694   4.846   0.834
 3810TIP3    H211376   2.676   4.697   0.854
 3811TIP3   OH211377   3.739   1.319   5.953
 3811TIP3    H111378   3.734   1.377   5.877
 3811TIP3    H211379   3.649   1.291   5.968
 3812TIP3   OH211380   4.721   1.259   6.271
 3812TIP3    H111381   4.802   1.277   6.223
 3812TIP3    H211382   4.750   1.219   6.353
 3813TIP3   OH211383   4.087   2.524   3.749
 3813TIP3    H111384   3.996   2.523   3.779
 3813TIP3    H211385   4.136   2.485   3.822
 3814TIP3   OH211386   0.354   2.674   2.570
 3814TIP3    H111387   0.338   2.768   2.585
 3814TIP3    H211388   0.361   2.638   2.658
 3815TIP3   OH211389   4.337   5.341   2.415
 3815TIP3    H111390   4.392   5.293   2.478
 3815TIP3    H211391   4.391   5.348   2.337
 3816TIP3   OH211392   3.983   2.098   4.461
 3816TIP3    H111393   4.057   2.040   4.481
 3816TIP3    H211394   3.973   2.152   4.539
 3817TIP3   OH211395   0.047   5.737   4.383
 3817TIP3    H111396  -0.042   5.754   4.352
 3817TIP3    H211397   0.057   5.795   4.459
 3818TIP3   OH211398   7.360   4.946   4.990
 3818TIP3    H111399   7.303   4.945   4.914
 3818TIP3    H211400   7.340   5.028   5.034
 3819TIP3   OH211401   4.067   1.705   0.551
 3819TIP3    H111402   4.150   1.694   0.597
 3819TIP3    H211403   4.020   1.770   0.604
 3820TIP3   OH211404   7.451   2.585   1.396
 3820TIP3    H111405   7.410   2.647   1.456
 3820TIP3    H211406   7.544   2.608   1.397
 3821TIP3   OH211407   3.253   4.371   1.291
 3821TIP3    H111408   3.159   4.357   1.296
 3821TIP3    H211409   3.288   4.289   1.256
 3822TIP3   OH211410   4.854   0.607   0.611
 3822TIP3    H111411   4.798   0.677   0.643
 3822TIP3    H211412   4.901   0.646   0.537
 3823TIP3   OH211413   2.946   4.365   1.899
 3823TIP3    H111414   2.859   4.385   1.865
 3823TIP3    H211415   2.942   4.387   1.991
 3824TIP3   OH211416   3.053   5.981   3.743
 3824TIP3    H111417   3.104   5.900   3.743
 3824TIP3    H211418   3.071   6.022   3.659
 3825TIP3   OH211419   6.091   1.894   4.470
 3825TIP3    H111420   6.040   1.899   4.551
 3825TIP3    H211421   6.030   1.857   4.406
 3826TIP3   OH211422   2.378   3.852   0.527
 3826TIP3    H111423   2.342   3.771   0.564
 3826TIP3    H211424   2.473   3.839   0.529
 3827TIP3   OH211425   1.057   0.445   1.015
 3827TIP3    H111426   1.097   0.525   1.048
 3827TIP3    H211427   1.016   0.469   0.933
 3828TIP3   OH211428   4.688   0.770   5.140
 3828TIP3    H111429   4.645   0.849   5.172
 3828TIP3    H211430   4.758   0.803   5.083
 3829TIP3   OH211431   3.969   2.841   2.159
 3829TIP3    H111432   3.902   2.808   2.220
 3829TIP3    H211433   3.927   2.836   2.073
 3830TIP3   OH211434   1.531   6.326   2.067
 3830TIP3    H111435   1.482   6.249   2.037
 3830TIP3    H211436   1.600   6.337   2.002
 3831TIP3   OH211437   6.860   3.399   6.120
 3831TIP3    H111438   6.807   3.351   6.056
 3831TIP3    H211439   6.919   3.334   6.157
 3832TIP3   OH211440   7.658   6.173   4.275
 3832TIP3    H111441   7.588   6.188   4.338
 3832TIP3    H211442   7.674   6.259   4.235
 3833TIP3   OH211443   7.195   0.370   5.362
 3833TIP3    H111444   7.143   0.310   5.416
 3833TIP3    H211445   7.272   0.319   5.336
 3834TIP3   OH211446   7.133   5.161   0.583
 3834TIP3    H111447   7.136   5.111   0.502
 3834TIP3    H211448   7.218   5.205   0.587
 3835TIP3   OH211449   4.300   5.773   0.476
 3835TIP3    H111450   4.204   5.771   0.474
 3835TIP3    H211451   4.322   5.761   0.568
 3836TIP3   OH211452   6.218   2.866   4.021
 3836TIP3    H111453   6.271   2.829   3.951
 3836TIP3    H211454   6.136   2.891   3.979
 3837TIP3   OH211455   6.297   2.185   4.879
 3837TIP3    H111456   6.262   2.099   4.853
 3837TIP3    H211457   6.278   2.242   4.804
 3838TIP3   OH211458   0.645   2.673   6.610
 3838TIP3    H111459   0.630   2.666   6.705
 3838TIP3    H211460   0.575   2.621   6.571
 3839TIP3   OH211461   5.352   1.160   6.703
 3839TIP3    H111462   5.320   1.250   6.697
 3839TIP3    H211463   5.414   1.151   6.631
 3840TIP3   OH211464   3.019   0.276   2.733
 3840TIP3    H111465   3.053   0.196   2.772
 3840TIP3    H211466   2.926   0.259   2.718
 3841TIP3   OH211467   7.873   6.696   1.013
 3841TIP3    H111468   7.785   6.688   0.976
 3841TIP3    H211469   7.930   6.652   0.950
 3842TIP3   OH211470   0.638   2.639   2.042
 3842TIP3    H111471   0.724   2.598   2.035
 3842TIP3    H211472   0.628   2.688   1.960
 3843TIP3   OH211473   7.272   4.594   0.274
 3843TIP3    H111474   7.265   4.499   0.280
 3843TIP3    H211475   7.188   4.626   0.308
 3844TIP3   OH211476   5.897   6.972   4.570
 3844TIP3    H111477   5.976   6.963   4.623
 3844TIP3    H211478   5.835   7.016   4.628
 3845TIP3   OH211479   3.242   0.458   0.035
 3845TIP3    H111480   3.155   0.477   0.000
 3845TIP3    H211481   3.243   0.363   0.046
 3846TIP3   OH211482   2.986   3.020   1.569
 3846TIP3    H111483   3.033   2.997   1.649
 3846TIP3    H211484   2.969   3.114   1.577
 3847TIP3   OH211485   3.205   4.404   4.802
 3847TIP3    H111486   3.234   4.436   4.716
 3847TIP3    H211487   3.170   4.317   4.785
 3848TIP3   OH211488   0.786   1.660   0.895
 3848TIP3    H111489   0.729   1.692   0.965
 3848TIP3    H211490   0.784   1.728   0.828
 3849TIP3   OH211491   4.128   7.494   3.902
 3849TIP3    H111492   4.171   7.512   3.986
 3849TIP3    H211493   4.200   7.490   3.839
 3850TIP3   OH211494   6.640   2.477   3.999
 3850TIP3    H111495   6.550   2.480   4.030
 3850TIP3    H211496   6.692   2.459   4.077
 3851TIP3   OH211497   6.129   0.867   6.097
 3851TIP3    H111498   6.053   0.889   6.151
 3851TIP3    H211499   6.158   0.951   6.060
 3852TIP3   OH211500   3.368   5.691   2.104
 3852TIP3    H111501   3.351   5.602   2.135
 3852TIP3    H211502   3.461   5.690   2.080
 3853TIP3   OH211503   3.659   1.423   0.698
 3853TIP3    H111504   3.746   1.443   0.665
 3853TIP3    H211505   3.628   1.506   0.735
 3854TIP3   OH211506   0.885   1.421   3.065
 3854TIP3    H111507   0.928   1.507   3.058
 3854TIP3    H211508   0.863   1.413   3.158
 3855TIP3   OH211509   5.358   0.918   2.109
 3855TIP3    H111510   5.360   0.924   2.204
 3855TIP3    H211511   5.430   0.975   2.080
 3856TIP3   OH211512   1.697   3.016   0.182
 3856TIP3    H111513   1.717   2.943   0.240
 3856TIP3    H211514   1.602   3.027   0.188
 3857TIP3   OH211515   2.773   7.076   2.394
 3857TIP3    H111516   2.708   7.143   2.372
 3857TIP3    H211517   2.727   6.993   2.383
 3858TIP3   OH211518   3.217   7.742   0.012
 3858TIP3    H111519   3.146   7.683  -0.010
 3858TIP3    H211520   3.176   7.827   0.024
 3859TIP3   OH211521   7.007   4.877   5.254
 3859TIP3    H111522   6.961   4.959   5.276
 3859TIP3    H211523   6.951   4.808   5.289
 3860TIP3   OH211524   0.162   1.196   4.518
 3860TIP3    H111525   0.255   1.220   4.511
 3860TIP3    H211526   0.156   1.111   4.474
 3861TIP3   OH211527   0.526   6.895   4.389
 3861TIP3    H111528   0.454   6.841   4.422
 3861TIP3    H211529   0.602   6.866   4.440
 3862TIP3   OH211530   7.790   1.259   0.971
 3862TIP3    H111531   7.725   1.329   0.966
 3862TIP3    H211532   7.834   1.262   0.886
 3863TIP3   OH211533   0.718   5.723   1.354
 3863TIP3    H111534   0.774   5.697   1.428
 3863TIP3    H211535   0.678   5.642   1.324
 3864TIP3   OH211536   7.582   3.707   2.192
 3864TIP3    H111537   7.488   3.719   2.206
 3864TIP3    H211538   7.599   3.750   2.108
 3865TIP3   OH211539   2.231   4.606   3.897
 3865TIP3    H111540   2.320   4.621   3.930
 3865TIP3    H211541   2.241   4.606   3.802
 3866TIP3   OH211542   7.196   6.459   3.456
 3866TIP3    H111543   7.102   6.469   3.439
 3866TIP3    H211544   7.238   6.519   3.395
 3867TIP3   OH211545   8.057   0.367   6.611
 3867TIP3    H111546   7.980   0.420   6.589
 3867TIP3    H211547   8.072   0.312   6.534
 3868TIP3   OH211548   6.365   7.478   5.550
 3868TIP3    H111549   6.437   7.533   5.519
 3868TIP3    H211550   6.350   7.416   5.478
 3869TIP3   OH211551   3.828   7.223   2.128
 3869TIP3    H111552   3.738   7.204   2.151
 3869TIP3    H211553   3.862   7.141   2.092
 3870TIP3   OH211554   3.149   6.742   4.536
 3870TIP3    H111555   3.145   6.652   4.568
 3870TIP3    H211556   3.073   6.785   4.575
 3871TIP3   OH211557   0.670   3.102   2.713
 3871TIP3    H111558   0.637   3.067   2.630
 3871TIP3    H211559   0.644   3.194   2.712
 3872TIP3   OH211560   5.708   2.184   3.484
 3872TIP3    H111561   5.787   2.215   3.439
 3872TIP3    H211562   5.639   2.244   3.457
 3873TIP3   OH211563   0.046   6.399   1.533
 3873TIP3    H111564  -0.002   6.453   1.470
 3873TIP3    H211565   0.016   6.310   1.517
 3874TIP3   OH211566   8.102   3.749   2.138
 3874TIP3    H111567   8.140   3.736   2.051
 3874TIP3    H211568   8.021   3.698   2.137
 3875TIP3   OH211569   3.047   6.830   2.801
 3875TIP3    H111570   3.076   6.831   2.709
 3875TIP3    H211571   2.955   6.853   2.797
 3876TIP3   OH211572   1.016   1.227   5.024
 3876TIP3    H111573   1.046   1.308   4.983
 3876TIP3    H211574   0.965   1.183   4.956
 3877TIP3   OH211575   2.881   0.397   4.791
 3877TIP3    H111576   2.921   0.440   4.867
 3877TIP3    H211577   2.881   0.304   4.815
 3878TIP3   OH211578   5.858   2.751   0.896
 3878TIP3    H111579   5.837   2.718   0.808
 3878TIP3    H211580   5.925   2.690   0.928
 3879TIP3   OH211581   2.635   2.895   1.691
 3879TIP3    H111582   2.615   2.902   1.784
 3879TIP3    H211583   2.660   2.984   1.665
 3880TIP3   OH211584   5.810   2.815   0.227
 3880TIP3    H111585   5.887   2.871   0.212
 3880TIP3    H211586   5.846   2.732   0.256
 3881TIP3   OH211587   3.365   2.773   3.437
 3881TIP3    H111588   3.334   2.704   3.496
 3881TIP3    H211589   3.328   2.854   3.474
 3882TIP3   OH211590   8.241   0.904   1.020
 3882TIP3    H111591   8.240   0.809   1.035
 3882TIP3    H211592   8.191   0.915   0.939
 3883TIP3   OH211593   3.666   7.487   6.647
 3883TIP3    H111594   3.704   7.573   6.626
 3883TIP3    H211595   3.741   7.434   6.674
 3884TIP3   OH211596   0.241   6.537   3.325
 3884TIP3    H111597   0.251   6.510   3.416
 3884TIP3    H211598   0.229   6.455   3.277
 3885TIP3   OH211599   5.522   0.920   0.467
 3885TIP3    H111600   5.565   1.001   0.496
 3885TIP3    H211601   5.505   0.872   0.548
 3886TIP3   OH211602   0.276   2.749   6.057
 3886TIP3    H111603   0.335   2.675   6.072
 3886TIP3    H211604   0.203   2.734   6.118
 3887TIP3   OH211605   3.342   2.415   2.373
 3887TIP3    H111606   3.318   2.327   2.404
 3887TIP3    H211607   3.301   2.422   2.287
 3888TIP3   OH211608   7.493   0.950   0.524
 3888TIP3    H111609   7.438   0.913   0.455
 3888TIP3    H211610   7.583   0.929   0.496
 3889TIP3   OH211611   7.767   3.873   4.907
 3889TIP3    H111612   7.785   3.781   4.926
 3889TIP3    H211613   7.701   3.898   4.971
 3890TIP3   OH211614   5.549   4.167   6.185
 3890TIP3    H111615   5.590   4.139   6.267
 3890TIP3    H211616   5.457   4.144   6.195
 3891TIP3   OH211617   2.338   0.511   5.066
 3891TIP3    H111618   2.416   0.505   5.120
 3891TIP3    H211619   2.348   0.594   5.019
 3892TIP3   OH211620   5.263   7.292   1.197
 3892TIP3    H111621   5.212   7.260   1.122
 3892TIP3    H211622   5.307   7.371   1.164
 3893TIP3   OH211623   5.243   0.340   1.687
 3893TIP3    H111624   5.253   0.435   1.692
 3893TIP3    H211625   5.303   0.313   1.617
 3894TIP3   OH211626   3.246   1.425   6.511
 3894TIP3    H111627   3.338   1.449   6.512
 3894TIP3    H211628   3.234   1.376   6.430
 3895TIP3   OH211629   2.366   1.075   1.067
 3895TIP3    H111630   2.405   1.006   1.121
 3895TIP3    H211631   2.328   1.137   1.131
 3896TIP3   OH211632   4.158   2.288   0.648
 3896TIP3    H111633   4.065   2.270   0.634
 3896TIP3    H211634   4.198   2.278   0.562
 3897TIP3   OH211635   5.927   5.605   6.677
 3897TIP3    H111636   5.969   5.647   6.602
 3897TIP3    H211637   5.928   5.671   6.746
 3898TIP3   OH211638   6.523   6.060   3.085
 3898TIP3    H111639   6.464   6.109   3.027
 3898TIP3    H211640   6.608   6.065   3.041
 3899TIP3   OH211641   6.131   4.030   6.404
 3899TIP3    H111642   6.103   4.121   6.411
 3899TIP3    H211643   6.101   3.989   6.485
 3900TIP3   OH211644   1.356   2.174   6.464
 3900TIP3    H111645   1.382   2.220   6.384
 3900TIP3    H211646   1.262   2.189   6.471
 3901TIP3   OH211647   6.477   0.732   4.979
 3901TIP3    H111648   6.409   0.759   4.917
 3901TIP3    H211649   6.546   0.798   4.969
 3902TIP3   OH211650   7.566   7.647   5.250
 3902TIP3    H111651   7.566   7.551   5.257
 3902TIP3    H211652   7.657   7.670   5.232
 3903TIP3   OH211653   3.594   2.360   1.598
 3903TIP3    H111654   3.609   2.441   1.548
 3903TIP3    H211655   3.595   2.388   1.689
 3904TIP3   OH211656   2.610   7.239   2.894
 3904TIP3    H111657   2.637   7.246   2.802
 3904TIP3    H211658   2.541   7.173   2.894
 3905TIP3   OH211659   2.046   3.842   2.203
 3905TIP3    H111660   2.038   3.928   2.244
 3905TIP3    H211661   2.107   3.794   2.260
 3906TIP3   OH211662   6.500   3.066   6.186
 3906TIP3    H111663   6.572   3.004   6.201
 3906TIP3    H211664   6.421   3.012   6.192
 3907TIP3   OH211665   1.129   0.417   5.863
 3907TIP3    H111666   1.174   0.337   5.890
 3907TIP3    H211667   1.058   0.387   5.806
 3908TIP3   OH211668   7.723   7.522   1.950
 3908TIP3    H111669   7.634   7.541   1.979
 3908TIP3    H211670   7.769   7.493   2.029
 3909TIP3   OH211671   7.583   1.103   4.259
 3909TIP3    H111672   7.643   1.157   4.310
 3909TIP3    H211673   7.626   1.018   4.252
 3910TIP3   OH211674   2.388   5.303   3.429
 3910TIP3    H111675   2.354   5.383   3.469
 3910TIP3    H211676   2.339   5.233   3.470
 3911TIP3   OH211677   6.665   2.782   6.376
 3911TIP3    H111678   6.739   2.842   6.370
 3911TIP3    H211679   6.702   2.696   6.355
 3912TIP3   OH211680   1.371   4.779   3.552
 3912TIP3    H111681   1.369   4.733   3.468
 3912TIP3    H211682   1.351   4.711   3.617
 3913TIP3   OH211683   2.377   4.779   0.748
 3913TIP3    H111684   2.465   4.801   0.778
 3913TIP3    H211685   2.345   4.715   0.811
 3914TIP3   OH211686   7.134   7.731   3.841
 3914TIP3    H111687   7.053   7.682   3.825
 3914TIP3    H211688   7.108   7.823   3.836
 3915TIP3   OH211689   5.203   0.894   1.647
 3915TIP3    H111690   5.211   0.842   1.727
 3915TIP3    H211691   5.287   0.883   1.603
 3916TIP3   OH211692   2.769   5.010   6.754
 3916TIP3    H111693   2.799   4.944   6.817
 3916TIP3    H211694   2.722   5.075   6.808
 3917TIP3   OH211695   4.770   6.369   5.689
 3917TIP3    H111696   4.824   6.291   5.682
 3917TIP3    H211697   4.828   6.440   5.660
 3918TIP3   OH211698   3.205   1.049   2.695
 3918TIP3    H111699   3.266   1.114   2.729
 3918TIP3    H211700   3.261   0.976   2.667
 3919TIP3   OH211701   7.051   5.146   2.961
 3919TIP3    H111702   7.023   5.213   2.899
 3919TIP3    H211703   6.975   5.131   3.017
 3920TIP3   OH211704   2.024   2.448   6.536
 3920TIP3    H111705   2.058   2.377   6.591
 3920TIP3    H211706   2.054   2.528   6.579
 3921TIP3   OH211707   1.249   1.089   1.314
 3921TIP3    H111708   1.274   1.089   1.406
 3921TIP3    H211709   1.208   1.174   1.300
 3922TIP3   OH211710   7.674   6.887   5.466
 3922TIP3    H111711   7.726   6.963   5.440
 3922TIP3    H211712   7.715   6.855   5.546
 3923TIP3   OH211713   7.964   7.579   0.137
 3923TIP3    H111714   8.016   7.631   0.076
 3923TIP3    H211715   7.879   7.623   0.139
 3924TIP3   OH211716   4.227   0.686   3.740
 3924TIP3    H111717   4.197   0.601   3.769
 3924TIP3    H211718   4.231   0.679   3.644
 3925TIP3   OH211719   5.829   3.963   3.330
 3925TIP3    H111720   5.885   4.035   3.359
 3925TIP3    H211721   5.749   4.006   3.300
 3926TIP3   OH211722   0.103   3.451   2.642
 3926TIP3    H111723   0.036   3.419   2.581
 3926TIP3    H211724   0.157   3.510   2.590
 3927TIP3   OH211725   1.184   2.231   0.470
 3927TIP3    H111726   1.236   2.176   0.411
 3927TIP3    H211727   1.103   2.181   0.483
 3928TIP3   OH211728   7.926   1.589   6.328
 3928TIP3    H111729   7.934   1.499   6.297
 3928TIP3    H211730   7.834   1.599   6.351
 3929TIP3   OH211731   7.383   0.549   2.362
 3929TIP3    H111732   7.304   0.574   2.313
 3929TIP3    H211733   7.454   0.593   2.316
 3930TIP3   OH211734   2.233   2.093   0.537
 3930TIP3    H111735   2.305   2.123   0.481
 3930TIP3    H211736   2.264   2.109   0.626
 3931TIP3   OH211737   3.016   2.740   3.503
 3931TIP3    H111738   2.965   2.811   3.541
 3931TIP3    H211739   3.053   2.694   3.578
 3932TIP3   OH211740   3.498   0.907   1.590
 3932TIP3    H111741   3.412   0.949   1.593
 3932TIP3    H211742   3.554   0.971   1.547
 3933TIP3   OH211743   3.200   5.349   1.194
 3933TIP3    H111744   3.253   5.293   1.138
 3933TIP3    H211745   3.122   5.368   1.142
 3934TIP3   OH211746   3.128   2.269   4.488
 3934TIP3    H111747   3.135   2.289   4.394
 3934TIP3    H211748   3.173   2.341   4.531
 3935TIP3   OH211749   2.375   1.256   1.582
 3935TIP3    H111750   2.367   1.344   1.619
 3935TIP3    H211751   2.304   1.250   1.518
 3936TIP3   OH211752   6.066   3.343   6.794
 3936TIP3    H111753   6.002   3.294   6.742
 3936TIP3    H211754   6.147   3.338   6.743
 3937TIP3   OH211755   5.671   1.378   6.077
 3937TIP3    H111756   5.686   1.422   6.161
 3937TIP3    H211757   5.683   1.285   6.095
 3938TIP3   OH211758   3.628   0.080   0.243
 3938TIP3    H111759   3.676   0.150   0.199
 3938TIP3    H211760   3.654   0.088   0.335
 3939TIP3   OH211761   3.676   0.879   6.068
 3939TIP3    H111762   3.739   0.940   6.029
 3939TIP3    H211763   3.613   0.934   6.113
 3940TIP3   OH211764   4.123   5.592   6.657
 3940TIP3    H111765   4.075   5.674   6.654
 3940TIP3    H211766   4.125   5.562   6.566
 3941TIP3   OH211767   5.597   1.748   0.645
 3941TIP3    H111768   5.552   1.821   0.689
 3941TIP3    H211769   5.545   1.733   0.566
 3942TIP3   OH211770   7.953   6.462   6.168
 3942TIP3    H111771   7.880   6.519   6.190
 3942TIP3    H211772   8.010   6.465   6.246
 3943TIP3   OH211773   2.337   0.880   5.531
 3943TIP3    H111774   2.261   0.831   5.559
 3943TIP3    H211775   2.303   0.944   5.468
 3944TIP3   OH211776   7.923   7.354   0.955
 3944TIP3    H111777   7.904   7.294   0.883
 3944TIP3    H211778   7.838   7.394   0.976
 3945TIP3   OH211779   7.861   1.521   5.280
 3945TIP3    H111780   7.804   1.445   5.288
 3945TIP3    H211781   7.803   1.591   5.249
 3946TIP3   OH211782   0.811   3.493   6.638
 3946TIP3    H111783   0.770   3.560   6.583
 3946TIP3    H211784   0.900   3.524   6.651
 3947TIP3   OH211785   5.502   0.277   0.291
 3947TIP3    H111786   5.505   0.185   0.315
 3947TIP3    H211787   5.503   0.277   0.195
 3948TIP3   OH211788   1.463   1.238   0.739
 3948TIP3    H111789   1.379   1.192   0.737
 3948TIP3    H211790   1.468   1.283   0.655
 3949TIP3   OH211791   7.196   1.353   6.450
 3949TIP3    H111792   7.264   1.420   6.460
 3949TIP3    H211793   7.223   1.303   6.372
 3950TIP3   OH211794   6.603   7.106   1.047
 3950TIP3    H111795   6.665   7.138   1.113
 3950TIP3    H211796   6.525   7.160   1.060
 3951TIP3   OH211797   7.108   5.586   5.300
 3951TIP3    H111798   7.157   5.622   5.226
 3951TIP3    H211799   7.073   5.663   5.345
 3952TIP3   OH211800   0.271   6.241   3.008
 3952TIP3    H111801   0.317   6.235   3.091
 3952TIP3    H211802   0.249   6.151   2.985
 3953TIP3   OH211803   2.896   0.857   5.139
 3953TIP3    H111804   2.938   0.782   5.181
 3953TIP3    H211805   2.887   0.922   5.209
 3954TIP3   OH211806   3.091   5.206   1.418
 3954TIP3    H111807   3.129   5.254   1.345
 3954TIP3    H211808   3.057   5.126   1.379
 3955TIP3   OH211809   8.016   4.783   3.815
 3955TIP3    H111810   8.008   4.869   3.857
 3955TIP3    H211811   8.056   4.803   3.730
 3956TIP3   OH211812   0.840   1.155   5.975
 3956TIP3    H111813   0.819   1.123   5.887
 3956TIP3    H211814   0.795   1.240   5.980
 3957TIP3   OH211815   0.408   6.943   2.460
 3957TIP3    H111816   0.437   6.871   2.517
 3957TIP3    H211817   0.489   6.979   2.425
 3958TIP3   OH211818   3.628   5.275   4.180
 3958TIP3    H111819   3.652   5.227   4.259
 3958TIP3    H211820   3.688   5.350   4.177
 3959TIP3   OH211821   0.271   6.794   3.588
 3959TIP3    H111822   0.332   6.865   3.608
 3959TIP3    H211823   0.317   6.715   3.614
 3960TIP3   OH211824   4.047   3.062   4.288
 3960TIP3    H111825   3.960   3.054   4.247
 3960TIP3    H211826   4.033   3.039   4.379
 3961TIP3   OH211827   8.009   0.862   0.851
 3961TIP3    H111828   7.971   0.949   0.838
 3961TIP3    H211829   7.984   0.813   0.773
 3962TIP3   OH211830   4.294   4.036   2.934
 3962TIP3    H111831   4.238   4.085   2.875
 3962TIP3    H211832   4.235   3.976   2.979
 3963TIP3   OH211833   2.487   5.223   5.657
 3963TIP3    H111834   2.503   5.186   5.570
 3963TIP3    H211835   2.462   5.148   5.711
 3964TIP3   OH211836   7.986   7.818   2.222
 3964TIP3    H111837   8.007   7.733   2.184
 3964TIP3    H211838   7.941   7.798   2.304
 3965TIP3   OH211839   2.248   0.271   6.466
 3965TIP3    H111840   2.155   0.290   6.452
 3965TIP3    H211841   2.290   0.289   6.382
 3966TIP3   OH211842   4.155   3.634   2.130
 3966TIP3    H111843   4.229   3.611   2.075
 3966TIP3    H211844   4.120   3.715   2.092
 3967TIP3   OH211845   7.313   5.001   2.651
 3967TIP3    H111846   7.395   4.997   2.602
 3967TIP3    H211847   7.339   4.988   2.742
 3968TIP3   OH211848   4.225   3.904   2.590
 3968TIP3    H111849   4.285   3.858   2.648
 3968TIP3    H211850   4.149   3.923   2.645
 3969TIP3   OH211851   3.789   4.414   5.425
 3969TIP3    H111852   3.726   4.343   5.411
 3969TIP3    H211853   3.756   4.459   5.503
 3970TIP3   OH211854   7.579   7.375   3.721
 3970TIP3    H111855   7.597   7.386   3.627
 3970TIP3    H211856   7.505   7.432   3.738
 3971TIP3   OH211857   0.478   7.280   1.999
 3971TIP3    H111858   0.488   7.216   1.928
 3971TIP3    H211859   0.464   7.226   2.078
 3972TIP3   OH211860   1.922   2.850   0.072
 3972TIP3    H111861   1.878   2.928   0.104
 3972TIP3    H211862   1.881   2.832  -0.013
 3973TIP3   OH211863   4.408   0.397   3.735
 3973TIP3    H111864   4.441   0.477   3.693
 3973TIP3    H211865   4.362   0.351   3.665
 3974TIP3   OH211866   4.930   0.956   2.430
 3974TIP3    H111867   4.948   0.950   2.524
 3974TIP3    H211868   4.883   1.039   2.420
 3975TIP3   OH211869   0.667   2.991   2.448
 3975TIP3    H111870   0.713   2.915   2.413
 3975TIP3    H211871   0.589   3.000   2.394
 3976TIP3   OH211872   1.158   5.089   3.992
 3976TIP3    H111873   1.078   5.115   4.036
 3976TIP3    H211874   1.205   5.035   4.056
 3977TIP3   OH211875   4.327   6.229   4.646
 3977TIP3    H111876   4.238   6.194   4.644
 3977TIP3    H211877   4.374   6.170   4.704
 3978TIP3   OH211878   6.025   1.630   2.197
 3978TIP3    H111879   5.961   1.662   2.134
 3978TIP3    H211880   5.992   1.661   2.282
 3979TIP3   OH211881   7.515   0.384   5.206
 3979TIP3    H111882   7.608   0.363   5.218
 3979TIP3    H211883   7.469   0.307   5.238
 3980TIP3   OH211884   6.205   4.775   5.546
 3980TIP3    H111885   6.179   4.686   5.523
 3980TIP3    H211886   6.122   4.823   5.554
 3981TIP3   OH211887   2.683   3.731   5.829
 3981TIP3    H111888   2.644   3.815   5.854
 3981TIP3    H211889   2.625   3.697   5.761
 3982TIP3   OH211890   4.233   1.621   3.837
 3982TIP3    H111891   4.230   1.684   3.765
 3982TIP3    H211892   4.146   1.626   3.877
 3983TIP3   OH211893   1.075   1.054   0.380
 3983TIP3    H111894   1.001   1.039   0.439
 3983TIP3    H211895   1.093   1.147   0.387
 3984TIP3   OH211896   2.632   2.123   4.522
 3984TIP3    H111897   2.634   2.209   4.480
 3984TIP3    H211898   2.723   2.104   4.542
 3985TIP3   OH211899   3.890   5.542   3.875
 3985TIP3    H111900   3.835   5.464   3.878
 3985TIP3    H211901   3.865   5.586   3.794
 3986TIP3   OH211902   7.170   4.016   5.207
 3986TIP3    H111903   7.254   4.057   5.226
 3986TIP3    H211904   7.186   3.922   5.218
 3987TIP3   OH211905   6.163   5.847   2.818
 3987TIP3    H111906   6.080   5.806   2.841
 3987TIP3    H211907   6.219   5.832   2.894
 3988TIP3   OH211908   1.730   6.051   6.196
 3988TIP3    H111909   1.718   5.960   6.169
 3988TIP3    H211910   1.679   6.102   6.134
 3989TIP3   OH211911   4.494   1.519   3.158
 3989TIP3    H111912   4.491   1.444   3.098
 3989TIP3    H211913   4.514   1.480   3.243
 3990TIP3   OH211914   5.503   7.625   1.948
 3990TIP3    H111915   5.520   7.640   1.855
 3990TIP3    H211916   5.419   7.668   1.965
 3991TIP3   OH211917   0.946   5.716   6.354
 3991TIP3    H111918   0.996   5.787   6.394
 3991TIP3    H211919   0.864   5.756   6.327
 3992TIP3   OH211920   0.822   0.046   2.236
 3992TIP3    H111921   0.832   0.099   2.315
 3992TIP3    H211922   0.907   0.003   2.226
 3993TIP3   OH211923   6.153   2.454   5.684
 3993TIP3    H111924   6.180   2.541   5.713
 3993TIP3    H211925   6.130   2.409   5.765
 3994TIP3   OH211926   0.267   3.890   3.713
 3994TIP3    H111927   0.245   3.958   3.777
 3994TIP3    H211928   0.338   3.928   3.661
 3995TIP3   OH211929   3.175   2.323   0.295
 3995TIP3    H111930   3.228   2.311   0.216
 3995TIP3    H211931   3.160   2.235   0.328
 3996TIP3   OH211932   4.822   2.445   1.140
 3996TIP3    H111933   4.763   2.501   1.090
 3996TIP3    H211934   4.778   2.431   1.223
 3997TIP3   OH211935   6.313  -0.018   4.411
 3997TIP3    H111936   6.228   0.026   4.407
 3997TIP3    H211937   6.345  -0.002   4.499
 3998TIP3   OH211938   7.667   2.993   0.677
 3998TIP3    H111939   7.603   3.064   0.685
 3998TIP3    H211940   7.697   2.999   0.586
 3999TIP3   OH211941   0.421   6.099   3.533
 3999TIP3    H111942   0.380   6.025   3.489
 3999TIP3    H211943   0.399   6.087   3.626
 4000TIP3   OH211944   2.343   0.583   0.929
 4000TIP3    H111945   2.400   0.528   0.983
 4000TIP3    H211946   2.279   0.522   0.893
 4001TIP3   OH211947   2.167   6.914   5.281
 4001TIP3    H111948   2.173   7.007   5.257
 4001TIP3    H211949   2.258   6.888   5.299
 4002TIP3   OH211950   3.836   7.373   2.825
 4002TIP3    H111951   3.865   7.282   2.828
 4002TIP3    H211952   3.760   7.373   2.766
 4003TIP3   OH211953   3.490   4.820   1.821
 4003TIP3    H111954   3.507   4.727   1.809
 4003TIP3    H211955   3.397   4.831   1.804
 4004TIP3   OH211956   0.283   4.519   4.170
 4004TIP3    H111957   0.206   4.487   4.218
 4004TIP3    H211958   0.249   4.549   4.086
 4005TIP3   OH211959   2.957   3.859   2.466
 4005TIP3    H111960   2.959   3.954   2.449
 4005TIP3    H211961   2.919   3.822   2.387
 4006TIP3   OH211962   4.424   5.270   2.678
 4006TIP3    H111963   4.431   5.175   2.685
 4006TIP3    H211964   4.389   5.297   2.763
 4007TIP3   OH211965   1.360   6.767   2.383
 4007TIP3    H111966   1.443   6.808   2.357
 4007TIP3    H211967   1.368   6.676   2.354
 4008TIP3   OH211968   2.474   3.713  -0.010
 4008TIP3    H111969   2.493   3.759   0.072
 4008TIP3    H211970   2.532   3.637  -0.009
 4009TIP3   OH211971   7.158   7.314   2.458
 4009TIP3    H111972   7.193   7.237   2.502
 4009TIP3    H211973   7.084   7.280   2.406
 4010TIP3   OH211974   6.683   7.715   0.305
 4010TIP3    H111975   6.731   7.782   0.257
 4010TIP3    H211976   6.637   7.763   0.374
 4011TIP3   OH211977   6.310   5.564   0.591
 4011TIP3    H111978   6.374   5.635   0.592
 4011TIP3    H211979   6.300   5.540   0.684
 4012TIP3   OH211980   4.564   3.392   2.627
 4012TIP3    H111981   4.472   3.395   2.600
 4012TIP3    H211982   4.588   3.484   2.642
 4013TIP3   OH211983   4.866   1.255   6.734
 4013TIP3    H111984   4.925   1.305   6.790
 4013TIP3    H211985   4.807   1.210   6.794
 4014TIP3   OH211986   6.839   3.912   4.447
 4014TIP3    H111987   6.769   3.899   4.383
 4014TIP3    H211988   6.839   4.006   4.465
 4015TIP3   OH211989   7.801   6.395   4.806
 4015TIP3    H111990   7.797   6.414   4.712
 4015TIP3    H211991   7.793   6.480   4.848
 4016TIP3   OH211992   5.912   3.223   5.188
 4016TIP3    H111993   5.862   3.185   5.117
 4016TIP3    H211994   5.883   3.314   5.192
 4017TIP3   OH211995   0.265   5.679   1.879
 4017TIP3    H111996   0.281   5.647   1.967
 4017TIP3    H211997   0.248   5.773   1.890
 4018TIP3   OH211998   6.963   5.217   4.958
 4018TIP3    H111999   7.029   5.262   4.905
 4018TIP3    H212000   6.968   5.259   5.044
 4019TIP3   OH212001   0.036   3.719   0.419
 4019TIP3    H112002   0.023   3.634   0.462
 4019TIP3    H212003  -0.051   3.744   0.390
 4020TIP3   OH212004   5.884   5.512   1.555
 4020TIP3    H112005   5.907   5.467   1.637
 4020TIP3    H212006   5.789   5.506   1.550
 4021TIP3   OH212007   5.687   7.766   2.116
 4021TIP3    H112008   5.626   7.703   2.077
 4021TIP3    H212009   5.651   7.852   2.093
 4022TIP3   OH212010   2.376   0.202   5.430
 4022TIP3    H112011   2.337   0.286   5.410
 4022TIP3    H212012   2.302   0.144   5.448
 4023TIP3   OH212013   7.362   7.563   2.800
 4023TIP3    H112014   7.431   7.626   2.781
 4023TIP3    H212015   7.319   7.548   2.716
 4024TIP3   OH212016   4.036   1.178   3.461
 4024TIP3    H112017   4.111   1.165   3.519
 4024TIP3    H212018   3.964   1.203   3.519
 4025TIP3   OH212019   6.645   7.677   1.370
 4025TIP3    H112020   6.578   7.663   1.303
 4025TIP3    H212021   6.598   7.670   1.453
 4026TIP3   OH212022   6.502   7.671   1.606
 4026TIP3    H112023   6.440   7.613   1.650
 4026TIP3    H212024   6.505   7.749   1.661
 4027TIP3   OH212025   8.214   0.358   0.315
 4027TIP3    H112026   8.263   0.288   0.273
 4027TIP3    H212027   8.218   0.338   0.408
 4028TIP3   OH212028   1.548   6.694   3.397
 4028TIP3    H112029   1.609   6.766   3.412
 4028TIP3    H212030   1.503   6.718   3.315
 4029TIP3   OH212031   3.981   6.485   0.074
 4029TIP3    H112032   4.035   6.457   0.148
 4029TIP3    H212033   3.892   6.488   0.109
 4030TIP3   OH212034   6.581   3.016   4.274
 4030TIP3    H112035   6.497   2.973   4.289
 4030TIP3    H212036   6.585   3.032   4.180
 4031TIP3   OH212037   8.158   2.412   3.872
 4031TIP3    H112038   8.152   2.418   3.776
 4031TIP3    H212039   8.092   2.347   3.896
 4032TIP3   OH212040   0.274   3.715   5.506
 4032TIP3    H112041   0.189   3.671   5.505
 4032TIP3    H212042   0.324   3.674   5.435
 4033TIP3   OH212043   1.243   5.625   4.141
 4033TIP3    H112044   1.178   5.555   4.128
 4033TIP3    H212045   1.196   5.705   4.115
 4034TIP3   OH212046   5.860   1.009   4.811
 4034TIP3    H112047   5.803   1.086   4.810
 4034TIP3    H212048   5.812   0.944   4.862
 4035TIP3   OH212049   7.631   1.160   1.465
 4035TIP3    H112050   7.539   1.182   1.447
 4035TIP3    H212051   7.678   1.186   1.386
 4036TIP3   OH212052   2.134   3.845   1.928
 4036TIP3    H112053   2.070   3.821   1.861
 4036TIP3    H212054   2.102   3.802   2.008
 4037TIP3   OH212055   1.755   4.641   2.932
 4037TIP3    H112056   1.850   4.642   2.940
 4037TIP3    H212057   1.732   4.727   2.898
 4038TIP3   OH212058   5.630   2.726   0.458
 4038TIP3    H112059   5.554   2.785   0.466
 4038TIP3    H212060   5.673   2.754   0.378
 4039TIP3   OH212061   6.880   6.254   3.141
 4039TIP3    H112062   6.821   6.289   3.075
 4039TIP3    H212063   6.828   6.253   3.222
 4040TIP3   OH212064   3.106   4.345   6.570
 4040TIP3    H112065   3.157   4.284   6.517
 4040TIP3    H212066   3.034   4.292   6.605
 4041TIP3   OH212067   6.115   7.038   1.314
 4041TIP3    H112068   6.107   7.057   1.408
 4041TIP3    H212069   6.028   7.053   1.278
 4042TIP3   OH212070   5.427   5.078   2.942
 4042TIP3    H112071   5.351   5.054   2.994
 4042TIP3    H212072   5.397   5.152   2.889
 4043TIP3   OH212073   6.236   4.603   2.911
 4043TIP3    H112074   6.221   4.513   2.883
 4043TIP3    H212075   6.186   4.612   2.992
 4044TIP3   OH212076   1.982   4.302   3.851
 4044TIP3    H112077   1.997   4.372   3.788
 4044TIP3    H212078   1.906   4.331   3.902
 4045TIP3   OH212079   3.828   3.080   2.265
 4045TIP3    H112080   3.795   3.007   2.318
 4045TIP3    H212081   3.890   3.040   2.204
 4046TIP3   OH212082   8.154   6.965   0.522
 4046TIP3    H112083   8.152   6.870   0.524
 4046TIP3    H212084   8.191   6.990   0.607
 4047TIP3   OH212085   7.862   4.451   4.209
 4047TIP3    H112086   7.826   4.477   4.294
 4047TIP3    H212087   7.828   4.515   4.147
 4048TIP3   OH212088   0.431   7.202   2.252
 4048TIP3    H112089   0.338   7.220   2.262
 4048TIP3    H212090   0.437   7.107   2.243
 4049TIP3   OH212091   2.291   7.275   3.412
 4049TIP3    H112092   2.361   7.220   3.448
 4049TIP3    H212093   2.328   7.311   3.332
 4050TIP3   OH212094   4.825   5.087   3.770
 4050TIP3    H112095   4.732   5.107   3.772
 4050TIP3    H212096   4.837   5.020   3.837
 4051TIP3   OH212097   5.962   3.081   0.769
 4051TIP3    H112098   5.899   3.151   0.784
 4051TIP3    H212099   6.001   3.066   0.855
 4052TIP3   OH212100   2.165   3.639   3.542
 4052TIP3    H112101   2.226   3.701   3.502
 4052TIP3    H212102   2.083   3.651   3.494
 4053TIP3   OH212103   4.884   3.595   2.402
 4053TIP3    H112104   4.881   3.500   2.413
 4053TIP3    H212105   4.802   3.617   2.359
 4054TIP3   OH212106   6.591   7.696   2.178
 4054TIP3    H112107   6.679   7.726   2.159
 4054TIP3    H212108   6.585   7.696   2.274
 4055TIP3   OH212109   5.305   5.756   0.855
 4055TIP3    H112110   5.314   5.662   0.841
 4055TIP3    H212111   5.270   5.764   0.944
 4056TIP3   OH212112   4.204   5.703   5.082
 4056TIP3    H112113   4.173   5.674   5.168
 4056TIP3    H212114   4.220   5.797   5.093
 4057TIP3   OH212115   1.200   6.934   5.843
 4057TIP3    H112116   1.154   6.876   5.782
 4057TIP3    H212117   1.243   6.875   5.904
 4058TIP3   OH212118   4.192   4.582   4.948
 4058TIP3    H112119   4.236   4.639   5.012
 4058TIP3    H212120   4.146   4.518   5.001
 4059TIP3   OH212121   3.029   0.833   2.311
 4059TIP3    H112122   3.024   0.739   2.299
 4059TIP3    H212123   3.086   0.845   2.387
 4060TIP3   OH212124   1.811   3.434   3.988
 4060TIP3    H112125   1.789   3.341   3.993
 4060TIP3    H212126   1.880   3.439   3.921
 4061TIP3   OH212127   4.259   5.247   0.683
 4061TIP3    H112128   4.172   5.228   0.648
 4061TIP3    H212129   4.257   5.211   0.772
 4062TIP3   OH212130   0.168   2.144   4.715
 4062TIP3    H112131   0.251   2.126   4.671
 4062TIP3    H212132   0.181   2.110   4.803
 4063TIP3   OH212133   3.615   7.348   1.867
 4063TIP3    H112134   3.548   7.354   1.935
 4063TIP3    H212135   3.627   7.254   1.853
 4064TIP3   OH212136   3.006   1.921   4.773
 4064TIP3    H112137   3.091   1.878   4.779
 4064TIP3    H212138   3.013   1.997   4.831
 4065TIP3   OH212139   4.494   3.448   2.172
 4065TIP3    H112140   4.430   3.391   2.213
 4065TIP3    H212141   4.482   3.433   2.078
 4066TIP3   OH212142   1.619   0.824   4.545
 4066TIP3    H112143   1.688   0.791   4.604
 4066TIP3    H212144   1.595   0.909   4.582
 4067TIP3   OH212145   0.818   1.067   3.976
 4067TIP3    H112146   0.825   1.137   4.042
 4067TIP3    H212147   0.820   1.113   3.892
 4068TIP3   OH212148   3.840   4.201   5.131
 4068TIP3    H112149   3.929   4.168   5.144
 4068TIP3    H212150   3.814   4.167   5.046
 4069TIP3   OH212151   4.380   4.488   2.548
 4069TIP3    H112152   4.419   4.523   2.628
 4069TIP3    H212153   4.295   4.532   2.541
 4070TIP3   OH212154   5.763   2.433   4.026
 4070TIP3    H112155   5.806   2.352   3.997
 4070TIP3    H212156   5.794   2.447   4.115
 4071TIP3   OH212157   7.962   0.262   0.743
 4071TIP3    H112158   8.058   0.263   0.737
 4071TIP3    H212159   7.934   0.204   0.671
 4072TIP3   OH212160   8.260   7.524   4.280
 4072TIP3    H112161   8.235   7.559   4.366
 4072TIP3    H212162   8.304   7.441   4.299
 4073TIP3   OH212163   5.733   2.600   4.641
 4073TIP3    H112164   5.721   2.695   4.644
 4073TIP3    H212165   5.738   2.574   4.733
 4074TIP3   OH212166   5.800   7.690   4.828
 4074TIP3    H112167   5.835   7.699   4.917
 4074TIP3    H212168   5.778   7.780   4.802
 4075TIP3   OH212169   7.586   1.696   5.914
 4075TIP3    H112170   7.617   1.698   5.823
 4075TIP3    H212171   7.599   1.786   5.946
 4076TIP3   OH212172   4.244   7.656   4.132
 4076TIP3    H112173   4.294   7.584   4.172
 4076TIP3    H212174   4.170   7.670   4.191
 4077TIP3   OH212175   1.229   5.385   4.915
 4077TIP3    H112176   1.222   5.291   4.930
 4077TIP3    H212177   1.158   5.423   4.966
 4078TIP3   OH212178   2.063   2.350   5.419
 4078TIP3    H112179   2.065   2.255   5.430
 4078TIP3    H212180   2.155   2.377   5.428
 4079TIP3   OH212181   6.575   2.897   1.691
 4079TIP3    H112182   6.554   2.806   1.714
 4079TIP3    H212183   6.495   2.945   1.710
 4080TIP3   OH212184   1.059   5.536   5.510
 4080TIP3    H112185   1.152   5.539   5.532
 4080TIP3    H212186   1.055   5.564   5.418
 4081TIP3   OH212187   3.112   4.297   5.241
 4081TIP3    H112188   3.049   4.316   5.171
 4081TIP3    H212189   3.075   4.222   5.287
 4082TIP3   OH212190   1.161   6.116   0.896
 4082TIP3    H112191   1.105   6.137   0.971
 4082TIP3    H212192   1.114   6.048   0.849
 4083TIP3   OH212193   6.986   1.313   5.816
 4083TIP3    H112194   7.071   1.286   5.783
 4083TIP3    H212195   6.939   1.232   5.834
 4084TIP3   OH212196   2.541   4.655   3.485
 4084TIP3    H112197   2.599   4.601   3.431
 4084TIP3    H212198   2.573   4.643   3.574
 4085TIP3   OH212199   2.281   0.162   1.289
 4085TIP3    H112200   2.287   0.242   1.238
 4085TIP3    H212201   2.208   0.178   1.350
 4086TIP3   OH212202   2.393   3.855   3.850
 4086TIP3    H112203   2.338   3.780   3.873
 4086TIP3    H212204   2.408   3.900   3.934
 4087TIP3   OH212205   1.525   4.091   6.431
 4087TIP3    H112206   1.497   4.066   6.519
 4087TIP3    H212207   1.610   4.047   6.420
 4088TIP3   OH212208   2.658   4.025   2.058
 4088TIP3    H112209   2.743   4.069   2.060
 4088TIP3    H212210   2.600   4.087   2.013
 4089TIP3   OH212211   2.709   2.071   6.114
 4089TIP3    H112212   2.621   2.039   6.092
 4089TIP3    H212213   2.767   2.028   6.051
 4090TIP3   OH212214   3.930   2.055   4.961
 4090TIP3    H112215   3.944   2.072   5.054
 4090TIP3    H212216   3.836   2.034   4.955
 4091TIP3   OH212217   1.312   5.938   0.742
 4091TIP3    H112218   1.298   6.022   0.786
 4091TIP3    H212219   1.378   5.895   0.796
 4092TIP3   OH212220   6.811   2.316   3.368
 4092TIP3    H112221   6.731   2.270   3.341
 4092TIP3    H212222   6.827   2.286   3.458
 4093TIP3   OH212223   7.877   5.774   4.503
 4093TIP3    H112224   7.950   5.823   4.467
 4093TIP3    H212225   7.917   5.716   4.568
 4094TIP3   OH212226   1.782   6.693   2.603
 4094TIP3    H112227   1.869   6.672   2.638
 4094TIP3    H212228   1.796   6.771   2.550
 4095TIP3   OH212229   2.773   2.694   6.200
 4095TIP3    H112230   2.825   2.692   6.281
 4095TIP3    H212231   2.762   2.602   6.176
 4096TIP3   OH212232   3.042   7.203   1.717
 4096TIP3    H112233   3.087   7.204   1.633
 4096TIP3    H212234   3.111   7.215   1.782
 4097TIP3   OH212235   5.858   5.313   3.576
 4097TIP3    H112236   5.904   5.239   3.536
 4097TIP3    H212237   5.906   5.329   3.658
 4098TIP3   OH212238   5.754   2.695   1.265
 4098TIP3    H112239   5.743   2.751   1.188
 4098TIP3    H212240   5.741   2.606   1.232
 4099TIP3   OH212241   6.871   4.163   5.399
 4099TIP3    H112242   6.808   4.218   5.447
 4099TIP3    H212243   6.935   4.138   5.465
 4100TIP3   OH212244   4.378   7.431   4.200
 4100TIP3    H112245   4.319   7.355   4.207
 4100TIP3    H212246   4.466   7.393   4.199
 4101TIP3   OH212247   6.564   2.929   0.339
 4101TIP3    H112248   6.555   2.847   0.291
 4101TIP3    H212249   6.477   2.947   0.374
 4102TIP3   OH212250   8.264   6.045   0.828
 4102TIP3    H112251   8.299   6.124   0.788
 4102TIP3    H212252   8.278   5.977   0.762
 4103TIP3   OH212253   2.409   1.316   0.774
 4103TIP3    H112254   2.372   1.364   0.848
 4103TIP3    H212255   2.335   1.301   0.715
 4104TIP3   OH212256   5.458   3.936   4.620
 4104TIP3    H112257   5.418   3.849   4.617
 4104TIP3    H212258   5.474   3.951   4.713
 4105TIP3   OH212259   2.230   1.256   5.876
 4105TIP3    H112260   2.189   1.320   5.934
 4105TIP3    H212261   2.182   1.265   5.793
 4106TIP3   OH212262   0.240   5.090   4.548
 4106TIP3    H112263   0.253   5.185   4.546
 4106TIP3    H212264   0.323   5.053   4.516
 4107TIP3   OH212265   2.169   3.085   3.503
 4107TIP3    H112266   2.084   3.066   3.542
 4107TIP3    H212267   2.197   3.167   3.542
 4108TIP3   OH212268   2.462   6.580   3.466
 4108TIP3    H112269   2.552   6.549   3.472
 4108TIP3    H212270   2.413   6.524   3.527
 4109TIP3   OH212271   6.980   3.629   0.494
 4109TIP3    H112272   7.073   3.605   0.498
 4109TIP3    H212273   6.938   3.572   0.559
 4110TIP3   OH212274   5.675   1.194   4.875
 4110TIP3    H112275   5.633   1.275   4.846
 4110TIP3    H212276   5.607   1.128   4.868
 4111TIP3   OH212277   2.811   2.033   0.199
 4111TIP3    H112278   2.812   2.125   0.172
 4111TIP3    H212279   2.790   1.985   0.119
 4112TIP3   OH212280   7.273   3.573   1.869
 4112TIP3    H112281   7.261   3.659   1.908
 4112TIP3    H212282   7.197   3.561   1.813
 4113TIP3   OH212283   3.326   5.477   4.213
 4113TIP3    H112284   3.345   5.569   4.232
 4113TIP3    H212285   3.365   5.429   4.286
 4114TIP3   OH212286   7.420   1.723   6.131
 4114TIP3    H112287   7.461   1.665   6.067
 4114TIP3    H212288   7.335   1.683   6.150
 4115TIP3   OH212289   5.826   2.160   0.934
 4115TIP3    H112290   5.776   2.079   0.936
 4115TIP3    H212291   5.768   2.224   0.893
 4116TIP3   OH212292   0.064   0.339   2.320
 4116TIP3    H112293  -0.006   0.373   2.264
 4116TIP3    H212294   0.144   0.353   2.269
 4117TIP3   OH212295   0.867   5.715   5.840
 4117TIP3    H112296   0.815   5.755   5.770
 4117TIP3    H212297   0.933   5.781   5.861
 4118TIP3   OH212298   6.434   6.084   6.650
 4118TIP3    H112299   6.451   6.141   6.575
 4118TIP3    H212300   6.486   6.122   6.721
 4119TIP3   OH212301   3.501   5.258   5.347
 4119TIP3    H112302   3.467   5.243   5.436
 4119TIP3    H212303   3.431   5.227   5.290
 4120TIP3   OH212304   6.900   2.293   5.106
 4120TIP3    H112305   6.817   2.278   5.061
 4120TIP3    H212306   6.967   2.262   5.045
 4121TIP3   OH212307   1.318   0.698   6.325
 4121TIP3    H112308   1.230   0.677   6.294
 4121TIP3    H212309   1.349   0.618   6.367
 4122TIP3   OH212310   2.721   7.310   3.320
 4122TIP3    H112311   2.654   7.245   3.341
 4122TIP3    H212312   2.744   7.293   3.229
 4123TIP3   OH212313   1.528   4.524   6.600
 4123TIP3    H112314   1.443   4.501   6.638
 4123TIP3    H212315   1.571   4.576   6.668
 4124TIP3   OH212316   3.979   0.634   2.013
 4124TIP3    H112317   4.058   0.588   2.041
 4124TIP3    H212318   3.923   0.635   2.090
 4125TIP3   OH212319   5.770   5.103   6.706
 4125TIP3    H112320   5.842   5.153   6.669
 4125TIP3    H212321   5.748   5.150   6.787
 4126TIP3   OH212322   0.422   6.411   1.833
 4126TIP3    H112323   0.339   6.460   1.838
 4126TIP3    H212324   0.464   6.427   1.918
 4127TIP3   OH212325   7.638   3.649   4.724
 4127TIP3    H112326   7.702   3.612   4.663
 4127TIP3    H212327   7.605   3.727   4.680
 4128TIP3   OH212328   3.315   5.834   1.307
 4128TIP3    H112329   3.346   5.835   1.398
 4128TIP3    H212330   3.281   5.746   1.294
 4129TIP3   OH212331   4.890   2.127   6.049
 4129TIP3    H112332   4.976   2.085   6.043
 4129TIP3    H212333   4.843   2.096   5.972
 4130TIP3   OH212334   1.468   0.059   2.268
 4130TIP3    H112335   1.435   0.086   2.354
 4130TIP3    H212336   1.545   0.113   2.253
 4131TIP3   OH212337   2.115   1.868   1.101
 4131TIP3    H112338   2.201   1.840   1.070
 4131TIP3    H212339   2.117   1.964   1.094
 4132TIP3   OH212340   5.929   7.320   0.780
 4132TIP3    H112341   5.865   7.322   0.851
 4132TIP3    H212342   5.913   7.236   0.736
 4133TIP3   OH212343   6.133   4.072   3.681
 4133TIP3    H112344   6.148   3.981   3.708
 4133TIP3    H212345   6.206   4.091   3.621
 4134TIP3   OH212346   4.770   7.493   1.750
 4134TIP3    H112347   4.772   7.502   1.654
 4134TIP3    H212348   4.840   7.550   1.781
 4135TIP3   OH212349   3.470   0.408   3.261
 4135TIP3    H112350   3.417   0.438   3.335
 4135TIP3    H212351   3.476   0.485   3.204
 4136TIP3   OH212352   3.145   4.765   2.909
 4136TIP3    H112353   3.217   4.809   2.863
 4136TIP3    H212354   3.139   4.679   2.868
 4137TIP3   OH212355   0.522   1.938   1.520
 4137TIP3    H112356   0.614   1.957   1.502
 4137TIP3    H212357   0.524   1.863   1.579
 4138TIP3   OH212358   1.348   7.337   6.574
 4138TIP3    H112359   1.280   7.272   6.557
 4138TIP3    H212360   1.426   7.285   6.594
 4139TIP3   OH212361   2.289   2.453   3.553
 4139TIP3    H112362   2.327   2.439   3.640
 4139TIP3    H212363   2.336   2.392   3.496
 4140TIP3   OH212364   5.530   5.361   1.636
 4140TIP3    H112365   5.434   5.365   1.640
 4140TIP3    H212366   5.559   5.399   1.718
 4141TIP3   OH212367   0.208   2.876   4.530
 4141TIP3    H112368   0.273   2.844   4.592
 4141TIP3    H212369   0.260   2.923   4.464
 4142TIP3   OH212370   0.105   1.686   3.612
 4142TIP3    H112371   0.158   1.712   3.536
 4142TIP3    H212372   0.079   1.596   3.593
 4143TIP3   OH212373   4.403   3.742   5.250
 4143TIP3    H112374   4.487   3.703   5.224
 4143TIP3    H212375   4.341   3.711   5.184
 4144TIP3   OH212376   4.503   0.496   3.514
 4144TIP3    H112377   4.497   0.426   3.449
 4144TIP3    H212378   4.596   0.519   3.515
 4145TIP3   OH212379   2.010   0.380   4.650
 4145TIP3    H112380   1.932   0.397   4.702
 4145TIP3    H212381   2.074   0.444   4.681
 4146TIP3   OH212382   3.049   2.149   2.407
 4146TIP3    H112383   3.047   2.068   2.354
 4146TIP3    H212384   3.032   2.119   2.496
 4147TIP3   OH212385   2.813   1.188   0.354
 4147TIP3    H112386   2.865   1.239   0.292
 4147TIP3    H212387   2.732   1.168   0.307
 4148TIP3   OH212388   3.283   6.875   2.929
 4148TIP3    H112389   3.212   6.842   2.874
 4148TIP3    H212390   3.344   6.915   2.867
 4149TIP3   OH212391   4.261   3.301   1.814
 4149TIP3    H112392   4.293   3.272   1.899
 4149TIP3    H212393   4.337   3.340   1.771
 4150TIP3   OH212394   7.821   4.329   1.928
 4150TIP3    H112395   7.834   4.317   2.022
 4150TIP3    H212396   7.756   4.263   1.903
 4151TIP3   OH212397   8.044   3.914   4.345
 4151TIP3    H112398   8.052   4.008   4.362
 4151TIP3    H212399   8.125   3.876   4.377
 4152TIP3   OH212400   3.997   0.542   0.301
 4152TIP3    H112401   3.951   0.504   0.376
 4152TIP3    H212402   3.927   0.583   0.248
 4153TIP3   OH212403   0.678   6.359   6.587
 4153TIP3    H112404   0.603   6.300   6.591
 4153TIP3    H212405   0.741   6.314   6.531
 4154TIP3   OH212406   7.183   0.779   5.844
 4154TIP3    H112407   7.254   0.774   5.780
 4154TIP3    H212408   7.103   0.769   5.793
 4155TIP3   OH212409   8.193   2.473   2.659
 4155TIP3    H112410   8.231   2.560   2.673
 4155TIP3    H212411   8.108   2.476   2.703
 4156TIP3   OH212412   0.106   7.211   0.054
 4156TIP3    H112413   0.066   7.297   0.066
 4156TIP3    H212414   0.135   7.185   0.141
 4157TIP3   OH212415   0.740   4.190   3.398
 4157TIP3    H112416   0.730   4.206   3.492
 4157TIP3    H212417   0.752   4.095   3.391
 4158TIP3   OH212418   5.830   6.938   0.463
 4158TIP3    H112419   5.803   6.864   0.409
 4158TIP3    H212420   5.793   7.015   0.418
 4159TIP3   OH212421   3.513   6.941   3.171
 4159TIP3    H112422   3.419   6.923   3.162
 4159TIP3    H212423   3.520   7.036   3.168
 4160TIP3   OH212424   6.846   1.235   2.429
 4160TIP3    H112425   6.914   1.302   2.435
 4160TIP3    H212426   6.809   1.246   2.341
 4161TIP3   OH212427   7.416   1.760   1.747
 4161TIP3    H112428   7.417   1.856   1.749
 4161TIP3    H212429   7.337   1.736   1.797
 4162TIP3   OH212430   4.422   0.074   6.012
 4162TIP3    H112431   4.442   0.165   6.031
 4162TIP3    H212432   4.507   0.034   5.992
 4163TIP3   OH212433   6.576   4.996   5.591
 4163TIP3    H112434   6.576   4.977   5.498
 4163TIP3    H212435   6.629   4.927   5.630
 4164TIP3   OH212436   7.706   0.641   2.305
 4164TIP3    H112437   7.653   0.660   2.227
 4164TIP3    H212438   7.763   0.718   2.314
 4165TIP3   OH212439   2.025   2.419   2.724
 4165TIP3    H112440   2.108   2.371   2.721
 4165TIP3    H212441   1.994   2.408   2.814
 4166TIP3   OH212442   6.721   1.638   2.287
 4166TIP3    H112443   6.628   1.621   2.299
 4166TIP3    H212444   6.762   1.552   2.286
 4167TIP3   OH212445   3.432   5.883   2.753
 4167TIP3    H112446   3.497   5.844   2.812
 4167TIP3    H212447   3.348   5.861   2.793
 4168TIP3   OH212448   0.865   4.688   3.505
 4168TIP3    H112449   0.929   4.632   3.549
 4168TIP3    H212450   0.858   4.764   3.562
 4169TIP3   OH212451   5.068   4.826   6.307
 4169TIP3    H112452   4.979   4.798   6.286
 4169TIP3    H212453   5.094   4.881   6.233
 4170TIP3   OH212454   2.475   5.272   2.129
 4170TIP3    H112455   2.432   5.356   2.113
 4170TIP3    H212456   2.568   5.290   2.115
 4171TIP3   OH212457   5.842   4.644   5.693
 4171TIP3    H112458   5.870   4.723   5.739
 4171TIP3    H212459   5.917   4.584   5.702
 4172TIP3   OH212460   4.079   1.910   1.749
 4172TIP3    H112461   4.085   1.916   1.654
 4172TIP3    H212462   4.121   1.989   1.781
 4173TIP3   OH212463   1.777   6.664   3.973
 4173TIP3    H112464   1.787   6.683   3.880
 4173TIP3    H212465   1.853   6.704   4.015
 4174TIP3   OH212466   5.828   3.474   5.626
 4174TIP3    H112467   5.798   3.389   5.594
 4174TIP3    H212468   5.799   3.477   5.717
 4175TIP3   OH212469   8.123   5.458   6.710
 4175TIP3    H112470   8.085   5.535   6.752
 4175TIP3    H212471   8.059   5.433   6.644
 4176TIP3   OH212472   0.052   0.684   4.472
 4176TIP3    H112473  -0.029   0.632   4.472
 4176TIP3    H212474   0.081   0.683   4.564
 4177TIP3   OH212475   7.402   1.250   5.238
 4177TIP3    H112476   7.388   1.329   5.291
 4177TIP3    H212477   7.325   1.196   5.254
 4178TIP3   OH212478   1.137   5.235   2.375
 4178TIP3    H112479   1.182   5.260   2.455
 4178TIP3    H212480   1.071   5.303   2.361
 4179TIP3   OH212481   5.675   3.225   4.330
 4179TIP3    H112482   5.671   3.131   4.311
 4179TIP3    H212483   5.706   3.265   4.249
 4180TIP3   OH212484   5.018   7.003   4.553
 4180TIP3    H112485   5.064   6.928   4.591
 4180TIP3    H212486   4.949   6.963   4.500
 4181TIP3   OH212487   4.002   5.905   0.579
 4181TIP3    H112488   4.018   5.988   0.623
 4181TIP3    H212489   3.960   5.930   0.496
 4182TIP3   OH212490   3.353   3.137   6.100
 4182TIP3    H112491   3.404   3.083   6.160
 4182TIP3    H212492   3.262   3.121   6.124
 4183TIP3   OH212493   2.486   4.746   2.724
 4183TIP3    H112494   2.556   4.810   2.737
 4183TIP3    H212495   2.467   4.713   2.811
 4184TIP3   OH212496   1.037   1.860   0.420
 4184TIP3    H112497   1.032   1.764   0.424
 4184TIP3    H212498   1.127   1.878   0.394
 4185TIP3   OH212499   1.169   1.489   2.663
 4185TIP3    H112500   1.114   1.477   2.585
 4185TIP3    H212501   1.251   1.526   2.629
 4186TIP3   OH212502   6.698   5.757   1.257
 4186TIP3    H112503   6.781   5.745   1.303
 4186TIP3    H212504   6.721   5.811   1.181
 4187TIP3   OH212505   2.121   2.187   4.046
 4187TIP3    H112506   2.208   2.175   4.008
 4187TIP3    H212507   2.121   2.277   4.077
 4188TIP3   OH212508   2.465   5.065   6.082
 4188TIP3    H112509   2.490   4.992   6.025
 4188TIP3    H212510   2.518   5.053   6.161
 4189TIP3   OH212511   0.381   6.549   4.453
 4189TIP3    H112512   0.377   6.525   4.360
 4189TIP3    H212513   0.472   6.530   4.478
 4190TIP3   OH212514   6.378   5.924   6.089
 4190TIP3    H112515   6.332   6.003   6.061
 4190TIP3    H212516   6.375   5.866   6.012
 4191TIP3   OH212517   3.838   3.377   2.991
 4191TIP3    H112518   3.884   3.380   3.074
 4191TIP3    H212519   3.906   3.358   2.926
 4192TIP3   OH212520   3.081   5.593   3.420
 4192TIP3    H112521   3.147   5.660   3.403
 4192TIP3    H212522   3.070   5.593   3.515
 4193TIP3   OH212523   7.118   2.958   1.359
 4193TIP3    H112524   7.155   2.934   1.444
 4193TIP3    H212525   7.193   2.956   1.299
 4194TIP3   OH212526   3.651   5.903   0.794
 4194TIP3    H112527   3.715   5.969   0.821
 4194TIP3    H212528   3.577   5.914   0.853
 4195TIP3   OH212529   2.341   6.404   0.011
 4195TIP3    H112530   2.425   6.384  -0.030
 4195TIP3    H212531   2.347   6.366   0.099
 4196TIP3   OH212532   5.726   2.462   1.114
 4196TIP3    H112533   5.662   2.398   1.145
 4196TIP3    H212534   5.762   2.424   1.034
 4197TIP3   OH212535   6.251   6.498   4.615
 4197TIP3    H112536   6.277   6.408   4.633
 4197TIP3    H212537   6.156   6.498   4.624
 4198TIP3   OH212538   2.084   0.135   3.347
 4198TIP3    H112539   2.058   0.054   3.304
 4198TIP3    H212540   2.048   0.128   3.435
 4199TIP3   OH212541   7.169   1.664   3.244
 4199TIP3    H112542   7.175   1.594   3.310
 4199TIP3    H212543   7.260   1.688   3.227
 4200TIP3   OH212544   6.993   7.375   6.622
 4200TIP3    H112545   7.049   7.452   6.609
 4200TIP3    H212546   7.019   7.340   6.707
 4201TIP3   OH212547   2.528   0.449   1.079
 4201TIP3    H112548   2.547   0.384   1.148
 4201TIP3    H212549   2.597   0.435   1.014
 4202TIP3   OH212550   5.694   4.073   2.336
 4202TIP3    H112551   5.753   4.142   2.306
 4202TIP3    H212552   5.680   4.019   2.258
 4203TIP3   OH212553   2.166   1.218   5.234
 4203TIP3    H112554   2.132   1.194   5.148
 4203TIP3    H212555   2.160   1.138   5.286
 4204TIP3   OH212556   2.847   3.197   0.531
 4204TIP3    H112557   2.763   3.237   0.509
 4204TIP3    H212558   2.910   3.243   0.476
 4205TIP3   OH212559   4.446   4.736   3.745
 4205TIP3    H112560   4.388   4.674   3.789
 4205TIP3    H212561   4.489   4.784   3.816
 4206TIP3   OH212562   0.098   3.625   5.882
 4206TIP3    H112563   0.192   3.635   5.898
 4206TIP3    H212564   0.069   3.711   5.852
 4207TIP3   OH212565   7.874   7.508   1.737
 4207TIP3    H112566   7.838   7.581   1.686
 4207TIP3    H212567   7.816   7.501   1.813
 4208TIP3   OH212568   5.014   7.670   5.712
 4208TIP3    H112569   5.035   7.581   5.739
 4208TIP3    H212570   4.919   7.671   5.704
 4209TIP3   OH212571   3.558   3.005   1.406
 4209TIP3    H112572   3.605   2.996   1.323
 4209TIP3    H212573   3.619   3.052   1.463
 4210TIP3   OH212574   4.845   4.417   2.592
 4210TIP3    H112575   4.897   4.463   2.527
 4210TIP3    H212576   4.771   4.381   2.543
 4211TIP3   OH212577   3.378   5.267   2.803
 4211TIP3    H112578   3.446   5.204   2.778
 4211TIP3    H212579   3.421   5.327   2.863
 4212TIP3   OH212580   1.397   4.253   4.587
 4212TIP3    H112581   1.381   4.243   4.493
 4212TIP3    H212582   1.481   4.299   4.592
 4213TIP3   OH212583   2.620   3.189   1.257
 4213TIP3    H112584   2.619   3.103   1.300
 4213TIP3    H212585   2.711   3.217   1.260
 4214TIP3   OH212586   3.568   3.468   4.691
 4214TIP3    H112587   3.546   3.428   4.775
 4214TIP3    H212588   3.516   3.421   4.627
 4215TIP3   OH212589   4.014   3.686   0.036
 4215TIP3    H112590   3.980   3.599   0.016
 4215TIP3    H212591   4.070   3.673   0.112
 4216TIP3   OH212592  -0.026   7.067   4.932
 4216TIP3    H112593  -0.028   7.085   5.026
 4216TIP3    H212594   0.033   6.992   4.924
 4217TIP3   OH212595   5.964   7.709   0.336
 4217TIP3    H112596   6.019   7.763   0.279
 4217TIP3    H212597   5.894   7.767   0.364
 4218TIP3   OH212598   1.277   0.429   1.933
 4218TIP3    H112599   1.345   0.475   1.983
 4218TIP3    H212600   1.321   0.400   1.853
 4219TIP3   OH212601   2.871   2.332   4.196
 4219TIP3    H112602   2.793   2.362   4.242
 4219TIP3    H212603   2.898   2.253   4.242
 4220TIP3   OH212604   0.060   5.612   5.827
 4220TIP3    H112605   0.150   5.592   5.801
 4220TIP3    H212606   0.006   5.571   5.759
 4221TIP3   OH212607   3.590   1.663   2.766
 4221TIP3    H112608   3.587   1.605   2.690
 4221TIP3    H212609   3.683   1.680   2.780
 4222TIP3   OH212610   7.744   0.394   4.975
 4222TIP3    H112611   7.682   0.466   4.986
 4222TIP3    H212612   7.746   0.350   5.059
 4223TIP3   OH212613   1.874   3.075   1.241
 4223TIP3    H112614   1.924   3.012   1.190
 4223TIP3    H212615   1.924   3.156   1.234
 4224TIP3   OH212616   1.193   4.300   5.017
 4224TIP3    H112617   1.251   4.256   4.955
 4224TIP3    H212618   1.246   4.308   5.097
 4225TIP3   OH212619   0.038   7.742   1.879
 4225TIP3    H112620   0.087   7.681   1.823
 4225TIP3    H212621  -0.048   7.748   1.838
 4226TIP3   OH212622   6.353   3.623   3.891
 4226TIP3    H112623   6.311   3.709   3.888
 4226TIP3    H212624   6.281   3.561   3.901
 4227TIP3   OH212625   2.347   0.258   0.519
 4227TIP3    H112626   2.440   0.281   0.507
 4227TIP3    H212627   2.348   0.181   0.576
 4228TIP3   OH212628   6.584   3.902   4.869
 4228TIP3    H112629   6.586   3.855   4.953
 4228TIP3    H212630   6.607   3.992   4.893
 4229TIP3   OH212631   1.289   7.045   1.109
 4229TIP3    H112632   1.369   7.009   1.073
 4229TIP3    H212633   1.318   7.102   1.181
 4230TIP3   OH212634   3.486   6.203   4.154
 4230TIP3    H112635   3.413   6.141   4.151
 4230TIP3    H212636   3.447   6.285   4.186
 4231TIP3   OH212637   6.895   0.922   5.355
 4231TIP3    H112638   6.827   0.867   5.316
 4231TIP3    H212639   6.877   0.918   5.449
 4232TIP3   OH212640   0.064   3.174   0.361
 4232TIP3    H112641   0.140   3.181   0.304
 4232TIP3    H212642  -0.011   3.172   0.301
 4233TIP3   OH212643   5.059   1.667   0.201
 4233TIP3    H112644   5.014   1.626   0.127
 4233TIP3    H212645   5.150   1.673   0.174
 4234TIP3   OH212646   5.101   0.278   0.559
 4234TIP3    H112647   5.143   0.327   0.629
 4234TIP3    H212648   5.163   0.282   0.486
 4235TIP3   OH212649   5.537   7.784   2.910
 4235TIP3    H112650   5.452   7.741   2.909
 4235TIP3    H212651   5.581   7.748   2.987
 4236TIP3   OH212652   1.545   3.025   4.065
 4236TIP3    H112653   1.469   3.055   4.113
 4236TIP3    H212654   1.540   2.930   4.067
 4237TIP3   OH212655   5.961   3.656   6.023
 4237TIP3    H112656   6.028   3.717   5.990
 4237TIP3    H212657   5.919   3.704   6.094
 4238TIP3   OH212658   4.782   6.600   6.115
 4238TIP3    H112659   4.810   6.597   6.207
 4238TIP3    H212660   4.834   6.532   6.072
 4239TIP3   OH212661   2.018   1.974   3.624
 4239TIP3    H112662   2.063   1.924   3.692
 4239TIP3    H212663   2.006   1.912   3.552
 4240TIP3   OH212664   6.990   2.595   3.296
 4240TIP3    H112665   7.030   2.586   3.210
 4240TIP3    H212666   6.896   2.592   3.280
 4241TIP3   OH212667   0.436   5.527   1.606
 4241TIP3    H112668   0.384   5.603   1.580
 4241TIP3    H212669   0.389   5.452   1.569
 4242TIP3   OH212670   5.492   4.635   2.301
 4242TIP3    H112671   5.445   4.558   2.332
 4242TIP3    H212672   5.580   4.602   2.281
 4243TIP3   OH212673   4.794   7.490   5.397
 4243TIP3    H112674   4.828   7.578   5.412
 4243TIP3    H212675   4.832   7.463   5.314
 4244TIP3   OH212676   3.380   7.404   4.192
 4244TIP3    H112677   3.452   7.460   4.220
 4244TIP3    H212678   3.353   7.359   4.272
 4245TIP3   OH212679   6.860   5.505   6.391
 4245TIP3    H112680   6.814   5.423   6.409
 4245TIP3    H212681   6.800   5.554   6.334
 4246TIP3   OH212682   1.524   2.485   5.003
 4246TIP3    H112683   1.452   2.488   5.066
 4246TIP3    H212684   1.603   2.489   5.057
 4247TIP3   OH212685   0.047   7.270   0.944
 4247TIP3    H112686   0.135   7.256   0.978
 4247TIP3    H212687  -0.003   7.301   1.020
 4248TIP3   OH212688   7.529   6.598   0.298
 4248TIP3    H112689   7.614   6.568   0.331
 4248TIP3    H212690   7.549   6.637   0.213
 4249TIP3   OH212691   3.332   1.094   5.408
 4249TIP3    H112692   3.323   1.014   5.460
 4249TIP3    H212693   3.374   1.066   5.327
 4250TIP3   OH212694   2.585   4.454   3.862
 4250TIP3    H112695   2.529   4.414   3.795
 4250TIP3    H212696   2.652   4.388   3.880
 4251TIP3   OH212697   4.738   2.500   1.402
 4251TIP3    H112698   4.777   2.472   1.484
 4251TIP3    H212699   4.778   2.585   1.384
 4252TIP3   OH212700   6.538   3.517   0.896
 4252TIP3    H112701   6.629   3.493   0.880
 4252TIP3    H212702   6.505   3.546   0.811
 4253TIP3   OH212703   6.144   5.831   1.057
 4253TIP3    H112704   6.189   5.763   1.107
 4253TIP3    H212705   6.205   5.904   1.053
 4254TIP3   OH212706   0.079   0.985   5.508
 4254TIP3    H112707   0.040   0.906   5.469
 4254TIP3    H212708   0.050   0.983   5.599
 4255TIP3   OH212709   2.825   3.522   1.117
 4255TIP3    H112710   2.874   3.444   1.143
 4255TIP3    H212711   2.878   3.595   1.150
 4256TIP3   OH212712   3.461   7.288   5.734
 4256TIP3    H112713   3.533   7.327   5.683
 4256TIP3    H212714   3.385   7.342   5.713
 4257TIP3   OH212715   3.891   4.775   5.260
 4257TIP3    H112716   3.843   4.698   5.230
 4257TIP3    H212717   3.833   4.815   5.325
 4258TIP3   OH212718   4.210   0.044   0.124
 4258TIP3    H112719   4.182   0.012   0.038
 4258TIP3    H212720   4.143   0.014   0.185
 4259TIP3   OH212721   1.467   7.315   3.326
 4259TIP3    H112722   1.503   7.227   3.335
 4259TIP3    H212723   1.501   7.362   3.402
 4260TIP3   OH212724   4.558   7.308   0.955
 4260TIP3    H112725   4.480   7.350   0.918
 4260TIP3    H212726   4.630   7.334   0.897
 4261TIP3   OH212727   4.173   7.225   4.197
 4261TIP3    H112728   4.111   7.259   4.133
 4261TIP3    H212729   4.119   7.190   4.267
 4262TIP3   OH212730   6.792   4.245   1.557
 4262TIP3    H112731   6.703   4.252   1.591
 4262TIP3    H212732   6.813   4.152   1.562
 4263TIP3   OH212733   8.246   1.030   4.664
 4263TIP3    H112734   8.158   1.060   4.642
 4263TIP3    H212735   8.304   1.079   4.606
 4264TIP3   OH212736   1.948   7.510   2.286
 4264TIP3    H112737   2.042   7.497   2.294
 4264TIP3    H212738   1.932   7.512   2.192
 4265TIP3   OH212739   4.268   1.377   0.525
 4265TIP3    H112740   4.351   1.343   0.557
 4265TIP3    H212741   4.206   1.361   0.596
 4266TIP3   OH212742   6.620   0.866   0.716
 4266TIP3    H112743   6.589   0.947   0.677
 4266TIP3    H212744   6.556   0.800   0.689
 4267TIP3   OH212745   1.247   0.985   1.761
 4267TIP3    H112746   1.305   0.940   1.822
 4267TIP3    H212747   1.236   1.072   1.799
 4268TIP3   OH212748   4.007   2.444   3.365
 4268TIP3    H112749   3.966   2.399   3.292
 4268TIP3    H212750   3.940   2.444   3.434
 4269TIP3   OH212751   2.066   5.093   4.488
 4269TIP3    H112752   2.098   5.080   4.578
 4269TIP3    H212753   2.117   5.168   4.456
 4270TIP3   OH212754   0.509   2.281   6.493
 4270TIP3    H112755   0.569   2.352   6.474
 4270TIP3    H212756   0.506   2.276   6.589
 4271TIP3   OH212757   1.634   1.284   3.131
 4271TIP3    H112758   1.625   1.190   3.118
 4271TIP3    H212759   1.706   1.293   3.194
 4272TIP3   OH212760   3.457   3.923   1.051
 4272TIP3    H112761   3.491   3.930   0.962
 4272TIP3    H212762   3.475   4.008   1.090
 4273TIP3   OH212763   8.003   5.645   4.698
 4273TIP3    H112764   8.040   5.669   4.783
 4273TIP3    H212765   8.068   5.587   4.659
 4274TIP3   OH212766   3.273   4.408   2.191
 4274TIP3    H112767   3.311   4.345   2.130
 4274TIP3    H212768   3.347   4.437   2.245
 4275TIP3   OH212769   4.239   3.315   3.718
 4275TIP3    H112770   4.269   3.250   3.781
 4275TIP3    H212771   4.283   3.293   3.637
 4276TIP3   OH212772   2.205   3.613   0.653
 4276TIP3    H112773   2.138   3.624   0.720
 4276TIP3    H212774   2.220   3.519   0.649
 4277TIP3   OH212775   6.890   3.538   0.134
 4277TIP3    H112776   6.970   3.534   0.187
 4277TIP3    H212777   6.919   3.574   0.051
 4278TIP3   OH212778   3.512   7.523   5.459
 4278TIP3    H112779   3.580   7.552   5.398
 4278TIP3    H212780   3.556   7.520   5.544
 4279TIP3   OH212781   4.226   5.952   4.148
 4279TIP3    H112782   4.220   5.921   4.239
 4279TIP3    H212783   4.243   5.873   4.097
 4280TIP3   OH212784   2.678   4.270   4.136
 4280TIP3    H112785   2.600   4.319   4.165
 4280TIP3    H212786   2.735   4.269   4.213
 4281TIP3   OH212787   4.772   0.868   2.103
 4281TIP3    H112788   4.829   0.800   2.139
 4281TIP3    H212789   4.723   0.900   2.179
 4282TIP3   OH212790   7.982   5.999   4.785
 4282TIP3    H112791   7.911   5.937   4.799
 4282TIP3    H212792   7.940   6.075   4.744
 4283TIP3   OH212793   4.487   2.813   4.228
 4283TIP3    H112794   4.477   2.883   4.292
 4283TIP3    H212795   4.534   2.744   4.275
 4284TIP3   OH212796   6.652   1.747   1.524
 4284TIP3    H112797   6.587   1.677   1.516
 4284TIP3    H212798   6.728   1.704   1.562
 4285TIP3   OH212799   3.164   3.661   4.844
 4285TIP3    H112800   3.215   3.717   4.785
 4285TIP3    H212801   3.224   3.639   4.915
 4286TIP3   OH212802   4.534   1.430   5.845
 4286TIP3    H112803   4.520   1.451   5.938
 4286TIP3    H212804   4.454   1.385   5.818
 4287TIP3   OH212805   1.053   2.004   0.657
 4287TIP3    H112806   1.098   1.971   0.735
 4287TIP3    H212807   1.035   1.926   0.605
 4288TIP3   OH212808   0.719   5.716   4.463
 4288TIP3    H112809   0.729   5.727   4.368
 4288TIP3    H212810   0.726   5.621   4.476
 4289TIP3   OH212811   1.883   2.872   0.739
 4289TIP3    H112812   1.966   2.916   0.756
 4289TIP3    H212813   1.901   2.779   0.755
 4290TIP3   OH212814   4.677   4.979   5.697
 4290TIP3    H112815   4.592   4.940   5.718
 4290TIP3    H212816   4.675   5.064   5.739
 4291TIP3   OH212817   3.713   3.808   0.308
 4291TIP3    H112818   3.801   3.806   0.345
 4291TIP3    H212819   3.675   3.723   0.332
 4292TIP3   OH212820   6.325   7.263   5.309
 4292TIP3    H112821   6.316   7.188   5.251
 4292TIP3    H212822   6.285   7.336   5.260
 4293TIP3   OH212823   0.228   1.342   3.593
 4293TIP3    H112824   0.308   1.341   3.645
 4293TIP3    H212825   0.258   1.352   3.503
 4294TIP3   OH212826   5.950   7.249   4.744
 4294TIP3    H112827   6.000   7.315   4.696
 4294TIP3    H212828   5.875   7.297   4.780
 4295TIP3   OH212829   7.901   3.580   3.446
 4295TIP3    H112830   7.933   3.669   3.461
 4295TIP3    H212831   7.961   3.525   3.496
 4296TIP3   OH212832   0.053   2.775   1.679
 4296TIP3    H112833  -0.020   2.812   1.728
 4296TIP3    H212834   0.103   2.851   1.649
 4297TIP3   OH212835   5.432   4.813   2.578
 4297TIP3    H112836   5.413   4.766   2.660
 4297TIP3    H212837   5.463   4.745   2.518
 4298TIP3   OH212838   5.850   7.744   3.041
 4298TIP3    H112839   5.766   7.731   3.084
 4298TIP3    H212840   5.901   7.666   3.064
 4299TIP3   OH212841   7.670   1.697   5.655
 4299TIP3    H112842   7.752   1.707   5.607
 4299TIP3    H212843   7.629   1.619   5.616
 4300TIP3   OH212844   7.527   0.103   4.660
 4300TIP3    H112845   7.608   0.094   4.711
 4300TIP3    H212846   7.476   0.169   4.708
 4301TIP3   OH212847   4.549   2.452   3.260
 4301TIP3    H112848   4.572   2.544   3.242
 4301TIP3    H212849   4.580   2.437   3.349
 4302TIP3   OH212850   3.524   4.145   1.676
 4302TIP3    H112851   3.452   4.199   1.641
 4302TIP3    H212852   3.484   4.096   1.747
 4303TIP3   OH212853   4.727   0.896   0.421
 4303TIP3    H112854   4.774   0.978   0.412
 4303TIP3    H212855   4.656   0.915   0.482
 4304TIP3   OH212856   5.108   0.538   6.248
 4304TIP3    H112857   5.072   0.454   6.218
 4304TIP3    H212858   5.035   0.580   6.294
 4305TIP3   OH212859   3.495   4.561   3.103
 4305TIP3    H112860   3.466   4.472   3.120
 4305TIP3    H212861   3.498   4.568   3.007
 4306TIP3   OH212862   0.059   2.040   6.123
 4306TIP3    H112863   0.153   2.022   6.128
 4306TIP3    H212864   0.038   2.079   6.208
 4307TIP3   OH212865   2.342   5.720   1.721
 4307TIP3    H112866   2.316   5.701   1.811
 4307TIP3    H212867   2.334   5.815   1.713
 4308TIP3   OH212868   4.510   6.739   1.772
 4308TIP3    H112869   4.520   6.670   1.706
 4308TIP3    H212870   4.525   6.694   1.855
 4309TIP3   OH212871   6.462   7.022   4.438
 4309TIP3    H112872   6.489   6.952   4.378
 4309TIP3    H212873   6.435   7.094   4.381
 4310TIP3   OH212874   2.350   4.828   6.379
 4310TIP3    H112875   2.437   4.863   6.399
 4310TIP3    H212876   2.363   4.734   6.366
 4311TIP3   OH212877   0.335   5.978   0.009
 4311TIP3    H112878   0.425   5.981  -0.024
 4311TIP3    H212879   0.336   5.908   0.074
 4312TIP3   OH212880   6.495   4.818   4.266
 4312TIP3    H112881   6.430   4.799   4.199
 4312TIP3    H212882   6.542   4.736   4.278
 4313TIP3   OH212883   2.294   5.537   6.484
 4313TIP3    H112884   2.257   5.536   6.572
 4313TIP3    H212885   2.223   5.570   6.429
 4314TIP3   OH212886   1.623   3.047   4.949
 4314TIP3    H112887   1.714   3.031   4.923
 4314TIP3    H212888   1.611   3.141   4.936
 4315TIP3   OH212889   5.064   3.651   4.501
 4315TIP3    H112890   5.103   3.564   4.510
 4315TIP3    H212891   5.115   3.706   4.561
 4316TIP3   OH212892   5.820   6.914   3.930
 4316TIP3    H112893   5.737   6.942   3.969
 4316TIP3    H212894   5.887   6.955   3.985
 4317TIP3   OH212895   2.369   7.370   4.031
 4317TIP3    H112896   2.418   7.314   4.092
 4317TIP3    H212897   2.280   7.335   4.032
 4318TIP3   OH212898   2.848   0.273   3.130
 4318TIP3    H112899   2.823   0.181   3.132
 4318TIP3    H212900   2.837   0.303   3.220
 4319TIP3   OH212901   8.215   1.788   3.286
 4319TIP3    H112902   8.135   1.743   3.258
 4319TIP3    H212903   8.283   1.721   3.283
 4320TIP3   OH212904   3.526   6.174   3.330
 4320TIP3    H112905   3.514   6.251   3.385
 4320TIP3    H212906   3.593   6.122   3.375
 4321TIP3   OH212907   4.530   5.258   0.570
 4321TIP3    H112908   4.611   5.303   0.595
 4321TIP3    H212909   4.467   5.284   0.637
 4322TIP3   OH212910   2.208   0.651   3.732
 4322TIP3    H112911   2.263   0.629   3.657
 4322TIP3    H212912   2.223   0.579   3.794
 4323TIP3   OH212913   5.128   5.540   1.594
 4323TIP3    H112914   5.096   5.525   1.683
 4323TIP3    H212915   5.151   5.633   1.593
 4324TIP3   OH212916   3.795   0.898   6.526
 4324TIP3    H112917   3.891   0.906   6.521
 4324TIP3    H212918   3.765   0.920   6.438
 4325TIP3   OH212919   0.844   0.445   6.411
 4325TIP3    H112920   0.862   0.527   6.457
 4325TIP3    H212921   0.904   0.445   6.337
 4326TIP3   OH212922   0.960   3.140   4.843
 4326TIP3    H112923   0.921   3.214   4.889
 4326TIP3    H212924   0.915   3.138   4.758
 4327TIP3   OH212925   6.918   1.585   6.506
 4327TIP3    H112926   6.849   1.600   6.570
 4327TIP3    H212927   6.872   1.556   6.428
 4328TIP3   OH212928   2.595   4.965   6.316
 4328TIP3    H112929   2.649   5.014   6.377
 4328TIP3    H212930   2.650   4.893   6.286
 4329TIP3   OH212931   3.166   4.220   3.511
 4329TIP3    H112932   3.229   4.291   3.500
 4329TIP3    H212933   3.169   4.172   3.428
 4330TIP3   OH212934   2.738   7.186   3.645
 4330TIP3    H112935   2.725   7.281   3.642
 4330TIP3    H212936   2.833   7.176   3.654
 4331TIP3   OH212937   7.318   6.138   1.081
 4331TIP3    H112938   7.356   6.189   1.152
 4331TIP3    H212939   7.315   6.048   1.115
 4332TIP3   OH212940   0.163   2.625   5.289
 4332TIP3    H112941   0.163   2.537   5.327
 4332TIP3    H212942   0.172   2.611   5.195
 4333TIP3   OH212943   3.445   4.130   6.112
 4333TIP3    H112944   3.355   4.158   6.096
 4333TIP3    H212945   3.493   4.211   6.126
 4334TIP3   OH212946   3.416   0.623   5.522
 4334TIP3    H112947   3.445   0.586   5.605
 4334TIP3    H212948   3.354   0.559   5.488
 4335TIP3   OH212949   1.958   3.247   0.825
 4335TIP3    H112950   2.013   3.308   0.874
 4335TIP3    H212951   2.013   3.169   0.814
 4336TIP3   OH212952   1.219   3.961   3.459
 4336TIP3    H112953   1.173   4.001   3.385
 4336TIP3    H212954   1.293   3.916   3.419
 4337TIP3   OH212955   5.692   1.671   6.665
 4337TIP3    H112956   5.657   1.756   6.691
 4337TIP3    H212957   5.627   1.608   6.698
 4338TIP3   OH212958   7.856   6.159   2.346
 4338TIP3    H112959   7.942   6.198   2.331
 4338TIP3    H212960   7.828   6.194   2.430
 4339TIP3   OH212961   2.727   3.228   3.228
 4339TIP3    H112962   2.653   3.205   3.171
 4339TIP3    H212963   2.726   3.324   3.230
 4340TIP3   OH212964   1.219   2.077   0.168
 4340TIP3    H112965   1.210   2.050   0.077
 4340TIP3    H212966   1.129   2.093   0.197
 4341TIP3   OH212967   4.647   3.126   4.410
 4341TIP3    H112968   4.565   3.084   4.438
 4341TIP3    H212969   4.713   3.058   4.419
 4342TIP3   OH212970   3.928   0.887   3.954
 4342TIP3    H112971   3.946   0.846   4.039
 4342TIP3    H212972   3.913   0.979   3.975
 4343TIP3   OH212973   1.975   5.540   3.962
 4343TIP3    H112974   2.007   5.450   3.950
 4343TIP3    H212975   2.047   5.595   3.929
 4344TIP3   OH212976   5.545   0.959   5.284
 4344TIP3    H112977   5.505   0.873   5.280
 4344TIP3    H212978   5.580   0.974   5.196
 4345TIP3   OH212979   8.041   5.439   2.763
 4345TIP3    H112980   8.038   5.349   2.729
 4345TIP3    H212981   8.016   5.431   2.855
 4346TIP3   OH212982   6.589   6.319   2.026
 4346TIP3    H112983   6.644   6.274   1.961
 4346TIP3    H212984   6.500   6.288   2.008
 4347TIP3   OH212985   3.869   5.908   0.338
 4347TIP3    H112986   3.784   5.930   0.376
 4347TIP3    H212987   3.848   5.862   0.256
 4348TIP3   OH212988   5.938   7.122   1.964
 4348TIP3    H112989   6.000   7.121   1.891
 4348TIP3    H212990   5.945   7.210   2.001
 4349TIP3   OH212991   3.070   3.193   5.099
 4349TIP3    H112992   3.150   3.200   5.047
 4349TIP3    H212993   3.006   3.154   5.039
 4350TIP3   OH212994   2.875   5.808   2.261
 4350TIP3    H112995   2.956   5.859   2.252
 4350TIP3    H212996   2.810   5.872   2.292
 4351TIP3   OH212997   4.717   1.702   4.685
 4351TIP3    H112998   4.687   1.688   4.775
 4351TIP3    H212999   4.683   1.789   4.663
 4352TIP3   OH213000   3.597   0.329   1.871
 4352TIP3    H113001   3.620   0.343   1.962
 4352TIP3    H213002   3.679   0.305   1.828
 4353TIP3   OH213003   8.248   6.460   5.004
 4353TIP3    H113004   8.199   6.472   5.086
 4353TIP3    H213005   8.201   6.389   4.959
 4354TIP3   OH213006   6.976   4.399   5.596
 4354TIP3    H113007   6.963   4.392   5.501
 4354TIP3    H213008   7.071   4.392   5.607
 4355TIP3   OH213009   3.552   5.017   0.926
 4355TIP3    H113010   3.615   4.997   0.857
 4355TIP3    H213011   3.540   4.934   0.972
 4356TIP3   OH213012   4.256   0.081   4.181
 4356TIP3    H113013   4.240   0.019   4.253
 4356TIP3    H213014   4.317   0.144   4.217
 4357TIP3   OH213015   0.120   3.435   6.193
 4357TIP3    H113016   0.130   3.530   6.192
 4357TIP3    H213017   0.142   3.410   6.283
 4358TIP3   OH213018   2.225   5.953   1.664
 4358TIP3    H113019   2.161   6.024   1.662
 4358TIP3    H213020   2.293   5.980   1.602
 4359TIP3   OH213021   1.909   3.023   6.708
 4359TIP3    H113022   1.825   3.045   6.669
 4359TIP3    H213023   1.936   2.943   6.663
 4360TIP3   OH213024   6.805   4.476   0.473
 4360TIP3    H113025   6.771   4.482   0.384
 4360TIP3    H213026   6.728   4.484   0.529
 4361TIP3   OH213027   1.534   6.920   4.822
 4361TIP3    H113028   1.524   6.951   4.912
 4361TIP3    H213029   1.589   6.842   4.830
 4362TIP3   OH213030   0.466   7.171   4.723
 4362TIP3    H113031   0.377   7.188   4.754
 4362TIP3    H213032   0.490   7.087   4.762
 4363TIP3   OH213033   4.833   4.527   2.250
 4363TIP3    H113034   4.885   4.548   2.328
 4363TIP3    H213035   4.892   4.475   2.195
 4364TIP3   OH213036   6.648   6.027   3.328
 4364TIP3    H113037   6.577   5.973   3.364
 4364TIP3    H213038   6.621   6.045   3.238
 4365TIP3   OH213039   1.959   7.357   0.527
 4365TIP3    H113040   1.984   7.416   0.599
 4365TIP3    H213041   1.915   7.414   0.464
 4366TIP3   OH213042   6.506   0.195   2.210
 4366TIP3    H113043   6.526   0.114   2.257
 4366TIP3    H213044   6.420   0.221   2.242
 4367TIP3   OH213045   6.977   5.989   3.105
 4367TIP3    H113046   6.985   5.963   3.013
 4367TIP3    H213047   6.943   6.079   3.101
 4368TIP3   OH213048   2.962   1.352   2.824
 4368TIP3    H113049   2.906   1.379   2.750
 4368TIP3    H213050   2.954   1.257   2.826
 4369TIP3   OH213051   4.693   5.078   0.271
 4369TIP3    H113052   4.745   4.999   0.285
 4369TIP3    H213053   4.756   5.143   0.241
 4370TIP3   OH213054   6.247   6.505   3.476
 4370TIP3    H113055   6.232   6.579   3.418
 4370TIP3    H213056   6.310   6.450   3.428
 4371TIP3   OH213057   8.155   1.847   6.109
 4371TIP3    H113058   8.202   1.930   6.099
 4371TIP3    H213059   8.218   1.781   6.080
 4372TIP3   OH213060   3.272   1.034   3.946
 4372TIP3    H113061   3.283   0.954   3.997
 4372TIP3    H213062   3.211   1.087   3.998
 4373TIP3   OH213063   0.838   4.897   5.011
 4373TIP3    H113064   0.831   4.840   4.934
 4373TIP3    H213065   0.834   4.837   5.085
 4374TIP3   OH213066   3.589   0.266   0.586
 4374TIP3    H113067   3.528   0.299   0.652
 4374TIP3    H213068   3.606   0.176   0.611
 4375TIP3   OH213069   7.078   1.744   0.643
 4375TIP3    H113070   6.991   1.755   0.681
 4375TIP3    H213071   7.125   1.824   0.666
 4376TIP3   OH213072   2.443   3.152   5.208
 4376TIP3    H113073   2.360   3.198   5.203
 4376TIP3    H213074   2.462   3.148   5.302
 4377TIP3   OH213075   5.856   3.658   2.684
 4377TIP3    H113076   5.764   3.679   2.701
 4377TIP3    H213077   5.868   3.676   2.590
 4378TIP3   OH213078   1.034   6.040   1.762
 4378TIP3    H113079   0.992   6.023   1.678
 4378TIP3    H213080   1.076   5.957   1.785
 4379TIP3   OH213081   6.793   6.647   1.616
 4379TIP3    H113082   6.737   6.634   1.540
 4379TIP3    H213083   6.790   6.741   1.632
 4380TIP3   OH213084   5.577   5.818   2.183
 4380TIP3    H113085   5.662   5.820   2.139
 4380TIP3    H213086   5.537   5.903   2.162
 4381TIP3   OH213087   8.185   7.278   3.110
 4381TIP3    H113088   8.227   7.204   3.154
 4381TIP3    H213089   8.186   7.254   3.017
 4382TIP3   OH213090   0.651   1.518   3.555
 4382TIP3    H113091   0.595   1.445   3.583
 4382TIP3    H213092   0.688   1.552   3.636
 4383TIP3   OH213093   2.214   6.637   3.064
 4383TIP3    H113094   2.144   6.700   3.048
 4383TIP3    H213095   2.294   6.682   3.034
 4384TIP3   OH213096   0.983   5.874   0.325
 4384TIP3    H113097   0.905   5.897   0.376
 4384TIP3    H213098   1.056   5.914   0.372
 4385TIP3   OH213099   1.337   5.909   0.007
 4385TIP3    H113100   1.253   5.866   0.020
 4385TIP3    H213101   1.399   5.856   0.058
 4386TIP3   OH213102   7.172   3.481   0.151
 4386TIP3    H113103   7.216   3.543   0.093
 4386TIP3    H213104   7.231   3.406   0.156
 4387TIP3   OH213105   7.138   5.671   2.695
 4387TIP3    H113106   7.153   5.628   2.611
 4387TIP3    H213107   7.225   5.682   2.732
 4388TIP3   OH213108   5.179   2.864   4.496
 4388TIP3    H113109   5.167   2.771   4.516
 4388TIP3    H213110   5.104   2.907   4.537
 4389TIP3   OH213111   4.683   1.547   5.521
 4389TIP3    H113112   4.748   1.519   5.457
 4389TIP3    H213113   4.601   1.509   5.490
 4390TIP3   OH213114   7.059   2.751   4.694
 4390TIP3    H113115   7.096   2.818   4.751
 4390TIP3    H213116   7.056   2.672   4.748
 4391TIP3   OH213117   6.132   1.945   3.852
 4391TIP3    H113118   6.226   1.954   3.836
 4391TIP3    H213119   6.096   2.033   3.838
 4392TIP3   OH213120   5.248   2.063   1.389
 4392TIP3    H113121   5.344   2.064   1.387
 4392TIP3    H213122   5.225   1.971   1.403
 4393TIP3   OH213123   5.961   1.974   2.050
 4393TIP3    H113124   6.015   2.049   2.076
 4393TIP3    H213125   5.906   1.956   2.126
 4394TIP3   OH213126   8.017   3.364   3.177
 4394TIP3    H113127   7.954   3.436   3.169
 4394TIP3    H213128   7.983   3.310   3.249
 4395TIP3   OH213129   1.724   4.258   6.743
 4395TIP3    H113130   1.724   4.347   6.709
 4395TIP3    H213131   1.634   4.245   6.775
 4396TIP3   OH213132   7.389   7.656   4.338
 4396TIP3    H113133   7.407   7.744   4.307
 4396TIP3    H213134   7.472   7.609   4.329
 4397TIP3   OH213135   0.285   6.206   5.557
 4397TIP3    H113136   0.265   6.116   5.533
 4397TIP3    H213137   0.376   6.204   5.587
 4398TIP3   OH213138   5.698   6.302   4.926
 4398TIP3    H113139   5.731   6.217   4.896
 4398TIP3    H213140   5.774   6.360   4.923
 4399TIP3   OH213141   1.892   4.226   4.164
 4399TIP3    H113142   1.928   4.275   4.238
 4399TIP3    H213143   1.968   4.189   4.120
 4400TIP3   OH213144   3.379   1.500   1.597
 4400TIP3    H113145   3.356   1.472   1.509
 4400TIP3    H213146   3.441   1.434   1.628
 4401TIP3   OH213147   2.023   5.138   5.592
 4401TIP3    H113148   1.939   5.154   5.635
 4401TIP3    H213149   2.001   5.129   5.499
 4402TIP3   OH213150   5.474   5.001   5.217
 4402TIP3    H113151   5.555   5.049   5.202
 4402TIP3    H213152   5.472   4.986   5.312
 4403TIP3   OH213153   1.437   3.969   2.158
 4403TIP3    H113154   1.455   3.884   2.198
 4403TIP3    H213155   1.461   3.957   2.066
 4404TIP3   OH213156   4.463   6.712   3.962
 4404TIP3    H113157   4.380   6.705   3.914
 4404TIP3    H213158   4.447   6.668   4.045
 4405TIP3   OH213159   5.111   1.529   0.901
 4405TIP3    H113160   5.041   1.578   0.858
 4405TIP3    H213161   5.067   1.484   0.974
 4406TIP3   OH213162   1.787   7.415   2.583
 4406TIP3    H113163   1.734   7.471   2.641
 4406TIP3    H213164   1.742   7.331   2.584
 4407TIP3   OH213165   3.128   0.737   4.319
 4407TIP3    H113166   3.035   0.754   4.306
 4407TIP3    H213167   3.162   0.721   4.230
 4408TIP3   OH213168   3.008   0.554   1.372
 4408TIP3    H113169   3.047   0.594   1.449
 4408TIP3    H213170   2.914   0.560   1.386
 4409TIP3   OH213171   6.745   7.420   2.086
 4409TIP3    H113172   6.737   7.495   2.145
 4409TIP3    H213173   6.761   7.345   2.143
 4410TIP3   OH213174   1.832   3.617   4.186
 4410TIP3    H113175   1.828   3.542   4.127
 4410TIP3    H213176   1.856   3.691   4.129
 4411TIP3   OH213177   3.920   3.960   4.394
 4411TIP3    H113178   3.987   3.904   4.356
 4411TIP3    H213179   3.953   3.983   4.480
 4412TIP3   OH213180   0.780   0.388   5.782
 4412TIP3    H113181   0.816   0.332   5.714
 4412TIP3    H213182   0.721   0.448   5.736
 4413TIP3   OH213183   7.377   5.911   5.985
 4413TIP3    H113184   7.471   5.928   5.991
 4413TIP3    H213185   7.359   5.850   6.056
 4414TIP3   OH213186   0.124   4.915   1.012
 4414TIP3    H113187   0.139   4.898   1.105
 4414TIP3    H213188   0.143   4.832   0.969
 4415TIP3   OH213189   4.849   5.982   2.043
 4415TIP3    H113190   4.915   5.936   1.993
 4415TIP3    H213191   4.897   6.023   2.115
 4416TIP3   OH213192   2.234   5.397   4.041
 4416TIP3    H113193   2.220   5.490   4.057
 4416TIP3    H213194   2.236   5.357   4.128
 4417TIP3   OH213195   2.250   0.433   3.894
 4417TIP3    H113196   2.287   0.466   3.976
 4417TIP3    H213197   2.161   0.407   3.918
 4418TIP3   OH213198   0.189   4.505   0.095
 4418TIP3    H113199   0.260   4.556   0.133
 4418TIP3    H213200   0.144   4.566   0.037
 4419TIP3   OH213201   2.994   0.737   3.729
 4419TIP3    H113202   2.991   0.753   3.824
 4419TIP3    H213203   2.902   0.736   3.703
 4420TIP3   OH213204   5.181   3.113   4.388
 4420TIP3    H113205   5.178   3.108   4.293
 4420TIP3    H213206   5.174   3.023   4.418
 4421TIP3   OH213207   3.905   4.371   2.813
 4421TIP3    H113208   3.824   4.368   2.762
 4421TIP3    H213209   3.876   4.360   2.904
 4422TIP3   OH213210   3.550   3.382   5.053
 4422TIP3    H113211   3.540   3.476   5.044
 4422TIP3    H213212   3.630   3.370   5.105
 4423TIP3   OH213213   7.947   5.992   5.943
 4423TIP3    H113214   8.033   5.958   5.970
 4423TIP3    H213215   7.960   6.021   5.853
 4424TIP3   OH213216   5.512   7.384   4.011
 4424TIP3    H113217   5.445   7.363   4.076
 4424TIP3    H213218   5.587   7.330   4.037
 4425TIP3   OH213219   0.332   1.559   2.096
 4425TIP3    H113220   0.276   1.481   2.095
 4425TIP3    H213221   0.377   1.554   2.180
 4426TIP3   OH213222   5.926   3.888   4.618
 4426TIP3    H113223   5.864   3.815   4.625
 4426TIP3    H213224   6.000   3.853   4.569
 4427TIP3   OH213225   7.842   4.297   6.714
 4427TIP3    H113226   7.766   4.347   6.743
 4427TIP3    H213227   7.822   4.206   6.736
 4428TIP3   OH213228   7.200   6.624   3.247
 4428TIP3    H113229   7.183   6.698   3.306
 4428TIP3    H213230   7.220   6.664   3.163
 4429TIP3   OH213231   7.645   2.583   5.709
 4429TIP3    H113232   7.685   2.515   5.654
 4429TIP3    H213233   7.616   2.650   5.647
 4430TIP3   OH213234   2.164   0.803   1.013
 4430TIP3    H113235   2.206   0.719   0.993
 4430TIP3    H213236   2.221   0.869   0.974
 4431TIP3   OH213237   1.724   2.089   0.544
 4431TIP3    H113238   1.629   2.090   0.530
 4431TIP3    H213239   1.760   2.064   0.459
 4432TIP3   OH213240   3.303   5.015   3.359
 4432TIP3    H113241   3.309   4.926   3.326
 4432TIP3    H213242   3.248   5.009   3.438
 4433TIP3   OH213243   2.676   4.692   6.326
 4433TIP3    H113244   2.729   4.704   6.405
 4433TIP3    H213245   2.594   4.653   6.357
 4434TIP3   OH213246   3.764   3.261   4.397
 4434TIP3    H113247   3.695   3.306   4.348
 4434TIP3    H213248   3.807   3.330   4.447
 4435TIP3   OH213249   2.781   5.864   0.705
 4435TIP3    H113250   2.759   5.877   0.797
 4435TIP3    H213251   2.741   5.939   0.660
 4436TIP3   OH213252   1.073   5.373   5.952
 4436TIP3    H113253   1.004   5.314   5.982
 4436TIP3    H213254   1.031   5.427   5.885
 4437TIP3   OH213255   5.210   0.166   4.379
 4437TIP3    H113256   5.243   0.230   4.315
 4437TIP3    H213257   5.186   0.218   4.456
 4438TIP3   OH213258   3.394   1.884   0.018
 4438TIP3    H113259   3.476   1.837   0.032
 4438TIP3    H213260   3.386   1.891  -0.077
 4439TIP3   OH213261   4.358   7.438   2.138
 4439TIP3    H113262   4.404   7.521   2.148
 4439TIP3    H213263   4.427   7.374   2.117
 4440TIP3   OH213264   8.206   6.690   6.638
 4440TIP3    H113265   8.256   6.673   6.718
 4440TIP3    H213266   8.131   6.742   6.667
 4441TIP3   OH213267   6.332   2.407   4.678
 4441TIP3    H113268   6.363   2.383   4.591
 4441TIP3    H213269   6.367   2.495   4.692
 4442TIP3   OH213270   1.503   5.492   3.175
 4442TIP3    H113271   1.548   5.460   3.254
 4442TIP3    H213272   1.490   5.415   3.121
 4443TIP3   OH213273   5.570   2.199   3.808
 4443TIP3    H113274   5.540   2.288   3.830
 4443TIP3    H213275   5.489   2.149   3.796
 4444TIP3   OH213276   3.546   0.051   1.833
 4444TIP3    H113277   3.517   0.045   1.742
 4444TIP3    H213278   3.551   0.144   1.851
 4445TIP3   OH213279   3.317   4.895   4.884
 4445TIP3    H113280   3.387   4.906   4.820
 4445TIP3    H213281   3.358   4.847   4.956
 4446TIP3   OH213282   5.292   1.780   0.112
 4446TIP3    H113283   5.361   1.809   0.173
 4446TIP3    H213284   5.258   1.861   0.075
 4447TIP3   OH213285   4.683   4.733   0.542
 4447TIP3    H113286   4.631   4.790   0.599
 4447TIP3    H213287   4.772   4.741   0.574
 4448TIP3   OH213288   4.362   6.653   5.667
 4448TIP3    H113289   4.355   6.747   5.680
 4448TIP3    H213290   4.387   6.643   5.575
 4449TIP3   OH213291   1.629   6.095   1.875
 4449TIP3    H113292   1.717   6.080   1.839
 4449TIP3    H213293   1.589   6.159   1.815
 4450TIP3   OH213294   4.118   1.239   2.283
 4450TIP3    H113295   4.145   1.303   2.217
 4450TIP3    H213296   4.086   1.292   2.356
 4451TIP3   OH213297   7.205   5.262   4.376
 4451TIP3    H113298   7.119   5.284   4.341
 4451TIP3    H213299   7.267   5.312   4.323
 4452TIP3   OH213300   2.592   3.753   2.029
 4452TIP3    H113301   2.606   3.847   2.022
 4452TIP3    H213302   2.658   3.715   1.971
 4453TIP3   OH213303   1.065   7.727   1.497
 4453TIP3    H113304   1.130   7.742   1.565
 4453TIP3    H213305   1.060   7.810   1.450
 4454TIP3   OH213306   7.586   7.539   3.417
 4454TIP3    H113307   7.507   7.487   3.430
 4454TIP3    H213308   7.564   7.598   3.345
 4455TIP3   OH213309   0.513   0.664   4.959
 4455TIP3    H113310   0.478   0.729   4.898
 4455TIP3    H213311   0.577   0.713   5.012
 4456TIP3   OH213312   4.478   7.131   2.133
 4456TIP3    H113313   4.565   7.092   2.145
 4456TIP3    H213314   4.457   7.169   2.218
 4457TIP3   OH213315   6.314   6.272   0.460
 4457TIP3    H113316   6.317   6.343   0.525
 4457TIP3    H213317   6.343   6.314   0.379
 4458TIP3   OH213318   5.265   2.846   3.600
 4458TIP3    H113319   5.316   2.877   3.675
 4458TIP3    H213320   5.191   2.799   3.640
 4459TIP3   OH213321   0.066   6.749   5.294
 4459TIP3    H113322   0.003   6.742   5.223
 4459TIP3    H213323   0.143   6.791   5.254
 4460TIP3   OH213324   3.991   7.492   4.823
 4460TIP3    H113325   3.934   7.519   4.751
 4460TIP3    H213326   4.047   7.568   4.838
 4461TIP3   OH213327   7.232   2.902   0.314
 4461TIP3    H113328   7.289   2.835   0.276
 4461TIP3    H213329   7.261   2.984   0.273
 4462TIP3   OH213330   2.010   3.063   5.801
 4462TIP3    H113331   1.986   3.094   5.888
 4462TIP3    H213332   1.948   3.106   5.742
 4463TIP3   OH213333   2.228   0.646   2.761
 4463TIP3    H113334   2.249   0.565   2.807
 4463TIP3    H213335   2.182   0.618   2.682
 4464TIP3   OH213336   0.159   3.809   1.500
 4464TIP3    H113337   0.113   3.830   1.581
 4464TIP3    H213338   0.090   3.801   1.434
 4465TIP3   OH213339   5.463   2.312   4.820
 4465TIP3    H113340   5.457   2.407   4.830
 4465TIP3    H213341   5.557   2.293   4.824
 4466TIP3   OH213342   4.697   6.411   4.567
 4466TIP3    H113343   4.697   6.503   4.596
 4466TIP3    H213344   4.678   6.361   4.646
 4467TIP3   OH213345   7.996   7.454   3.131
 4467TIP3    H113346   8.053   7.377   3.124
 4467TIP3    H213347   7.917   7.429   3.082
 4468TIP3   OH213348   5.449   5.753   6.485
 4468TIP3    H113349   5.360   5.720   6.471
 4468TIP3    H213350   5.458   5.825   6.422
 4469TIP3   OH213351   6.747   3.252   1.294
 4469TIP3    H113352   6.776   3.166   1.264
 4469TIP3    H213353   6.665   3.268   1.248
 4470TIP3   OH213354   7.551   7.808   3.628
 4470TIP3    H113355   7.481   7.793   3.564
 4470TIP3    H213356   7.507   7.843   3.705
 4471TIP3   OH213357   1.604   7.249   2.137
 4471TIP3    H113358   1.695   7.242   2.165
 4471TIP3    H213359   1.553   7.221   2.213
 4472TIP3   OH213360   3.579   1.883   1.376
 4472TIP3    H113361   3.490   1.877   1.411
 4472TIP3    H213362   3.634   1.896   1.454
 4473TIP3   OH213363   7.494   0.308   1.418
 4473TIP3    H113364   7.546   0.371   1.468
 4473TIP3    H213365   7.475   0.354   1.336
 4474TIP3   OH213366   6.451   4.212   2.384
 4474TIP3    H113367   6.540   4.187   2.361
 4474TIP3    H213368   6.456   4.305   2.406
 4475TIP3   OH213369   1.153   7.261   1.619
 4475TIP3    H113370   1.091   7.322   1.579
 4475TIP3    H213371   1.123   7.174   1.590
 4476TIP3   OH213372   1.989   3.378   6.091
 4476TIP3    H113373   2.010   3.285   6.095
 4476TIP3    H213374   2.048   3.418   6.156
 4477TIP3   OH213375   7.731   4.316   5.903
 4477TIP3    H113376   7.706   4.406   5.922
 4477TIP3    H213377   7.799   4.324   5.836
 4478TIP3   OH213378   8.226   3.090   4.516
 4478TIP3    H113379   8.245   3.147   4.441
 4478TIP3    H213380   8.300   3.029   4.518
 4479TIP3   OH213381   0.915   4.842   6.618
 4479TIP3    H113382   0.934   4.855   6.525
 4479TIP3    H213383   1.000   4.850   6.661
 4480TIP3   OH213384   6.414   0.372   2.516
 4480TIP3    H113385   6.374   0.317   2.583
 4480TIP3    H213386   6.505   0.341   2.511
 4481TIP3   OH213387   0.072   5.369   0.699
 4481TIP3    H113388   0.090   5.399   0.788
 4481TIP3    H213389   0.086   5.447   0.644
 4482TIP3   OH213390   5.435   7.102   3.444
 4482TIP3    H113391   5.466   7.065   3.527
 4482TIP3    H213392   5.511   7.098   3.386
 4483TIP3   OH213393   8.226   6.663   4.328
 4483TIP3    H113394   8.306   6.613   4.347
 4483TIP3    H213395   8.159   6.624   4.385
 4484TIP3   OH213396   3.732   0.333   0.120
 4484TIP3    H113397   3.692   0.393   0.183
 4484TIP3    H213398   3.746   0.387   0.042
 4485TIP3   OH213399   6.132   7.608   2.246
 4485TIP3    H113400   6.089   7.683   2.205
 4485TIP3    H213401   6.193   7.576   2.179
 4486TIP3   OH213402   7.462   4.520   2.357
 4486TIP3    H113403   7.493   4.511   2.267
 4486TIP3    H213404   7.531   4.570   2.400
 4487TIP3   OH213405   5.663   4.497   0.172
 4487TIP3    H113406   5.647   4.499   0.266
 4487TIP3    H213407   5.589   4.544   0.134
 4488TIP3   OH213408   6.563   4.932   6.352
 4488TIP3    H113409   6.648   4.920   6.393
 4488TIP3    H213410   6.529   4.843   6.339
 4489TIP3   OH213411   1.892   1.490   1.645
 4489TIP3    H113412   1.819   1.465   1.702
 4489TIP3    H213413   1.966   1.440   1.678
 4490TIP3   OH213414   4.031   0.372   2.672
 4490TIP3    H113415   4.121   0.397   2.649
 4490TIP3    H213416   3.977   0.414   2.605
 4491TIP3   OH213417   6.312   6.408   1.087
 4491TIP3    H113418   6.230   6.384   1.044
 4491TIP3    H213419   6.379   6.402   1.018
 4492TIP3   OH213420   7.031   6.463   2.728
 4492TIP3    H113421   6.949   6.493   2.767
 4492TIP3    H213422   7.088   6.540   2.731
 4493TIP3   OH213423   5.680   0.921   0.990
 4493TIP3    H113424   5.693   0.912   1.084
 4493TIP3    H213425   5.736   0.996   0.966
 4494TIP3   OH213426   5.210   5.755   2.191
 4494TIP3    H113427   5.226   5.840   2.233
 4494TIP3    H213428   5.203   5.775   2.098
 4495TIP3   OH213429   3.731   6.959   0.611
 4495TIP3    H113430   3.756   6.867   0.608
 4495TIP3    H213431   3.812   7.005   0.631
 4496TIP3   OH213432   1.901   3.317   4.784
 4496TIP3    H113433   1.925   3.400   4.743
 4496TIP3    H213434   1.900   3.253   4.713
 4497TIP3   OH213435   5.983   4.413   1.922
 4497TIP3    H113436   5.888   4.429   1.928
 4497TIP3    H213437   6.006   4.441   1.834
 4498TIP3   OH213438   3.781   4.702   1.291
 4498TIP3    H113439   3.866   4.698   1.248
 4498TIP3    H213440   3.744   4.615   1.280
 4499TIP3   OH213441   2.366   3.532   5.285
 4499TIP3    H113442   2.454   3.513   5.316
 4499TIP3    H213443   2.373   3.531   5.189
 4500TIP3   OH213444   5.521   5.263   4.811
 4500TIP3    H113445   5.540   5.301   4.725
 4500TIP3    H213446   5.536   5.334   4.873
 4501TIP3   OH213447   6.397   1.035   2.269
 4501TIP3    H113448   6.440   1.088   2.336
 4501TIP3    H213449   6.380   0.951   2.312
 4502TIP3   OH213450   4.434   5.653   1.036
 4502TIP3    H113451   4.435   5.586   0.968
 4502TIP3    H213452   4.513   5.704   1.020
 4503TIP3   OH213453   2.916   5.316   4.125
 4503TIP3    H113454   3.001   5.298   4.082
 4503TIP3    H213455   2.897   5.236   4.174
 4504TIP3   OH213456   0.923   1.975   4.796
 4504TIP3    H113457   1.014   1.943   4.790
 4504TIP3    H213458   0.930   2.056   4.848
 4505TIP3   OH213459   2.961   6.000   6.473
 4505TIP3    H113460   3.019   6.057   6.523
 4505TIP3    H213461   3.019   5.949   6.417
 4506TIP3   OH213462   2.385   7.209   4.534
 4506TIP3    H113463   2.469   7.204   4.579
 4506TIP3    H213464   2.381   7.298   4.499
 4507TIP3   OH213465   4.311   0.577   5.687
 4507TIP3    H113466   4.223   0.541   5.675
 4507TIP3    H213467   4.314   0.654   5.630
 4508TIP3   OH213468   2.144   0.113   6.101
 4508TIP3    H113469   2.050   0.096   6.101
 4508TIP3    H213470   2.154   0.200   6.065
 4509TIP3   OH213471   0.828   1.003   1.491
 4509TIP3    H113472   0.750   1.027   1.542
 4509TIP3    H213473   0.891   0.973   1.557
 4510TIP3   OH213474   4.792   1.899   2.890
 4510TIP3    H113475   4.818   1.938   2.806
 4510TIP3    H213476   4.717   1.844   2.869
 4511TIP3   OH213477   5.638   5.010   4.819
 4511TIP3    H113478   5.729   5.039   4.816
 4511TIP3    H213479   5.587   5.089   4.837
 4512TIP3   OH213480   2.258   2.219   0.087
 4512TIP3    H113481   2.209   2.243   0.008
 4512TIP3    H213482   2.190   2.203   0.153
 4513TIP3   OH213483   1.300   1.810   6.074
 4513TIP3    H113484   1.325   1.883   6.018
 4513TIP3    H213485   1.332   1.834   6.161
 4514TIP3   OH213486   6.843   6.398   4.476
 4514TIP3    H113487   6.903   6.462   4.439
 4514TIP3    H213488   6.784   6.375   4.405
 4515TIP3   OH213489   3.746   3.659   3.494
 4515TIP3    H113490   3.815   3.647   3.560
 4515TIP3    H213491   3.692   3.730   3.529
 4516TIP3   OH213492   0.438   3.922   5.831
 4516TIP3    H113493   0.374   3.992   5.816
 4516TIP3    H213494   0.506   3.938   5.765
 4517TIP3   OH213495   0.893   7.321   1.266
 4517TIP3    H113496   0.897   7.360   1.179
 4517TIP3    H213497   0.883   7.396   1.325
 4518TIP3   OH213498   6.402   1.666   6.662
 4518TIP3    H113499   6.393   1.754   6.626
 4518TIP3    H213500   6.402   1.609   6.585
 4519TIP3   OH213501   4.986   5.930   6.094
 4519TIP3    H113502   5.022   5.894   6.013
 4519TIP3    H213503   5.062   5.962   6.142
 4520TIP3   OH213504   7.220   2.544   3.094
 4520TIP3    H113505   7.192   2.636   3.102
 4520TIP3    H213506   7.206   2.523   3.002
 4521TIP3   OH213507   0.701   2.321   5.618
 4521TIP3    H113508   0.754   2.255   5.573
 4521TIP3    H213509   0.668   2.376   5.547
 4522TIP3   OH213510   1.305   4.327   3.344
 4522TIP3    H113511   1.210   4.319   3.349
 4522TIP3    H213512   1.327   4.302   3.254
 4523TIP3   OH213513   3.748   6.515   4.220
 4523TIP3    H113514   3.735   6.607   4.197
 4523TIP3    H213515   3.746   6.513   4.315
 4524TIP3   OH213516   4.638   6.185   1.657
 4524TIP3    H113517   4.716   6.213   1.704
 4524TIP3    H213518   4.587   6.137   1.722
 4525TIP3   OH213519   0.067   4.993   5.279
 4525TIP3    H113520  -0.023   4.963   5.270
 4525TIP3    H213521   0.102   4.944   5.353
 4526TIP3   OH213522   4.411   0.089   3.674
 4526TIP3    H113523   4.360   0.032   3.732
 4526TIP3    H213524   4.345   0.128   3.617
 4527TIP3   OH213525   4.396   0.957   4.521
 4527TIP3    H113526   4.406   0.862   4.520
 4527TIP3    H213527   4.328   0.975   4.455
 4528TIP3   OH213528   0.924   2.774   5.354
 4528TIP3    H113529   0.970   2.765   5.438
 4528TIP3    H213530   0.837   2.807   5.378
 4529TIP3   OH213531   3.174   4.221   4.217
 4529TIP3    H113532   3.098   4.253   4.265
 4529TIP3    H213533   3.162   4.255   4.129
 4530TIP3   OH213534   5.397   1.238   6.115
 4530TIP3    H113535   5.490   1.215   6.108
 4530TIP3    H213536   5.381   1.295   6.039
 4531TIP3   OH213537   0.353   0.394   6.735
 4531TIP3    H113538   0.269   0.362   6.766
 4531TIP3    H213539   0.359   0.366   6.644
 4532TIP3   OH213540   2.997   2.803   1.413
 4532TIP3    H113541   3.023   2.890   1.443
 4532TIP3    H213542   3.039   2.743   1.475
 4533TIP3   OH213543   4.464   0.266   6.346
 4533TIP3    H113544   4.534   0.296   6.287
 4533TIP3    H213545   4.400   0.225   6.288
 4534TIP3   OH213546   5.636   4.885   2.083
 4534TIP3    H113547   5.663   4.860   2.171
 4534TIP3    H213548   5.717   4.887   2.032
 4535TIP3   OH213549   0.684   5.968   6.039
 4535TIP3    H113550   0.656   6.004   6.123
 4535TIP3    H213551   0.651   5.878   6.039
 4536TIP3   OH213552   3.063   2.751   6.125
 4536TIP3    H113553   2.969   2.760   6.144
 4536TIP3    H213554   3.105   2.762   6.211
 4537TIP3   OH213555   3.421   2.757   1.418
 4537TIP3    H113556   3.334   2.757   1.458
 4537TIP3    H213557   3.446   2.849   1.413
 4538TIP3   OH213558   6.852   5.799   0.937
 4538TIP3    H113559   6.777   5.743   0.916
 4538TIP3    H213560   6.851   5.865   0.867
 4539TIP3   OH213561   5.339   4.790   4.695
 4539TIP3    H113562   5.272   4.737   4.739
 4539TIP3    H213563   5.339   4.759   4.604
 4540TIP3   OH213564   2.805   4.527   5.490
 4540TIP3    H113565   2.752   4.503   5.414
 4540TIP3    H213566   2.853   4.447   5.511
 4541TIP3   OH213567   0.878   2.350   4.532
 4541TIP3    H113568   0.899   2.372   4.623
 4541TIP3    H213569   0.931   2.273   4.513
 4542TIP3   OH213570   4.625   3.480   5.514
 4542TIP3    H113571   4.689   3.415   5.542
 4542TIP3    H213572   4.625   3.545   5.584
 4543TIP3   OH213573   7.326   1.480   5.381
 4543TIP3    H113574   7.307   1.565   5.340
 4543TIP3    H213575   7.387   1.500   5.452
 4544TIP3   OH213576   0.003   6.640   0.433
 4544TIP3    H113577  -0.001   6.659   0.339
 4544TIP3    H213578  -0.085   6.609   0.455
 4545TIP3   OH213579   1.043   2.660   4.782
 4545TIP3    H113580   0.960   2.627   4.746
 4545TIP3    H213581   1.018   2.703   4.864
 4546TIP3   OH213582   6.853   0.968   5.628
 4546TIP3    H113583   6.759   0.970   5.615
 4546TIP3    H213584   6.869   1.025   5.703
 4547TIP3   OH213585   3.926   6.306   3.214
 4547TIP3    H113586   3.992   6.369   3.184
 4547TIP3    H213587   3.905   6.254   3.137
 4548TIP3   OH213588   3.855   6.476   0.407
 4548TIP3    H113589   3.835   6.436   0.322
 4548TIP3    H213590   3.936   6.433   0.435
 4549TIP3   OH213591   5.995   5.671   1.355
 4549TIP3    H113592   5.954   5.604   1.410
 4549TIP3    H213593   6.054   5.621   1.298
 4550TIP3   OH213594   8.204   2.717   3.470
 4550TIP3    H113595   8.223   2.633   3.429
 4550TIP3    H213596   8.120   2.744   3.432
 4551TIP3   OH213597   8.029   6.278   4.933
 4551TIP3    H113598   8.003   6.295   5.024
 4551TIP3    H213599   7.953   6.302   4.881
 4552TIP3   OH213600   3.417   1.885   6.266
 4552TIP3    H113601   3.454   1.838   6.192
 4552TIP3    H213602   3.489   1.892   6.329
 4553TIP3   OH213603   3.329   1.439   3.077
 4553TIP3    H113604   3.399   1.460   3.138
 4553TIP3    H213605   3.321   1.517   3.022
 4554TIP3   OH213606   4.597   4.629   6.560
 4554TIP3    H113607   4.612   4.682   6.637
 4554TIP3    H213608   4.655   4.554   6.570
 4555TIP3   OH213609   1.391   7.014   0.284
 4555TIP3    H113610   1.311   6.975   0.250
 4555TIP3    H213611   1.460   6.985   0.225
 4556TIP3   OH213612   0.449   5.870   2.630
 4556TIP3    H113613   0.495   5.885   2.712
 4556TIP3    H213614   0.409   5.784   2.640
 4557TIP3   OH213615   3.937   5.603   4.964
 4557TIP3    H113616   4.012   5.650   5.001
 4557TIP3    H213617   3.931   5.523   5.015
 4558TIP3   OH213618   3.687   4.163   4.081
 4558TIP3    H113619   3.766   4.196   4.125
 4558TIP3    H213620   3.615   4.186   4.140
 4559TIP3   OH213621   6.794   5.145   6.196
 4559TIP3    H113622   6.702   5.162   6.174
 4559TIP3    H213623   6.843   5.170   6.118
 4560TIP3   OH213624   4.050   2.805   4.038
 4560TIP3    H113625   4.051   2.898   4.063
 4560TIP3    H213626   4.141   2.786   4.016
 4561TIP3   OH213627   3.711   5.404   1.211
 4561TIP3    H113628   3.682   5.337   1.149
 4561TIP3    H213629   3.711   5.360   1.296
 4562TIP3   OH213630   2.014   4.072   2.365
 4562TIP3    H113631   2.002   4.160   2.328
 4562TIP3    H213632   2.083   4.083   2.430
 4563TIP3   OH213633   7.419   7.165   4.095
 4563TIP3    H113634   7.367   7.151   4.174
 4563TIP3    H213635   7.433   7.260   4.092
 4564TIP3   OH213636   5.158   2.750   2.987
 4564TIP3    H113637   5.198   2.712   2.909
 4564TIP3    H213638   5.085   2.802   2.953
 4565TIP3   OH213639   3.919   4.057   5.468
 4565TIP3    H113640   4.002   4.099   5.490
 4565TIP3    H213641   3.859   4.084   5.538
 4566TIP3   OH213642   0.870   6.835   3.013
 4566TIP3    H113643   0.918   6.803   3.089
 4566TIP3    H213644   0.781   6.803   3.026
 4567TIP3   OH213645   1.525   7.201   3.808
 4567TIP3    H113646   1.538   7.200   3.903
 4567TIP3    H213647   1.451   7.260   3.794
 4568TIP3   OH213648   2.347   3.924   2.080
 4568TIP3    H113649   2.413   3.856   2.065
 4568TIP3    H213650   2.279   3.906   2.015
 4569TIP3   OH213651   4.652   5.479   5.238
 4569TIP3    H113652   4.617   5.410   5.181
 4569TIP3    H213653   4.616   5.458   5.324
 4570TIP3   OH213654   7.533   3.821   6.068
 4570TIP3    H113655   7.548   3.906   6.026
 4570TIP3    H213656   7.590   3.760   6.020
 4571TIP3   OH213657   3.802   3.422   0.964
 4571TIP3    H113658   3.718   3.465   0.947
 4571TIP3    H213659   3.783   3.329   0.953
 4572TIP3   OH213660   3.207   4.933   0.955
 4572TIP3    H113661   3.287   4.979   0.981
 4572TIP3    H213662   3.226   4.841   0.974
 4573TIP3   OH213663   3.820   5.197   4.943
 4573TIP3    H113664   3.755   5.196   5.014
 4573TIP3    H213665   3.890   5.140   4.975
 4574TIP3   OH213666   7.093   5.371   2.776
 4574TIP3    H113667   7.126   5.307   2.713
 4574TIP3    H213668   7.012   5.404   2.738
 4575TIP3   OH213669   5.496   2.310   3.370
 4575TIP3    H113670   5.445   2.350   3.442
 4575TIP3    H213671   5.530   2.385   3.321
 4576TIP3   OH213672   3.753   4.684   3.734
 4576TIP3    H113673   3.799   4.729   3.662
 4576TIP3    H213674   3.694   4.623   3.690
 4577TIP3   OH213675   3.230   0.246   3.256
 4577TIP3    H113676   3.157   0.303   3.231
 4577TIP3    H213677   3.202   0.205   3.338
 4578TIP3   OH213678   1.294   0.618   0.748
 4578TIP3    H113679   1.253   0.663   0.822
 4578TIP3    H213680   1.258   0.530   0.750
 4579TIP3   OH213681   5.273   1.272   2.073
 4579TIP3    H113682   5.268   1.286   1.979
 4579TIP3    H213683   5.339   1.335   2.103
 4580TIP3   OH213684   3.229   2.635   6.736
 4580TIP3    H113685   3.167   2.595   6.796
 4580TIP3    H213686   3.235   2.574   6.663
 4581TIP3   OH213687   6.414   0.253   4.097
 4581TIP3    H113688   6.364   0.276   4.175
 4581TIP3    H213689   6.370   0.176   4.062
 4582TIP3   OH213690   0.667   0.488   1.110
 4582TIP3    H113691   0.597   0.544   1.076
 4582TIP3    H213692   0.714   0.457   1.032
 4583TIP3   OH213693   6.323   1.438   5.998
 4583TIP3    H113694   6.292   1.433   6.088
 4583TIP3    H213695   6.388   1.508   5.998
 4584TIP3   OH213696   0.863   3.048   1.466
 4584TIP3    H113697   0.856   2.958   1.433
 4584TIP3    H213698   0.954   3.073   1.449
 4585TIP3   OH213699   0.496   5.152   0.157
 4585TIP3    H113700   0.561   5.182   0.094
 4585TIP3    H213701   0.515   5.059   0.169
 4586TIP3   OH213702   6.658   4.018   0.864
 4586TIP3    H113703   6.599   4.086   0.830
 4586TIP3    H213704   6.599   3.947   0.891
 4587TIP3   OH213705   5.068   6.485   2.744
 4587TIP3    H113706   5.003   6.550   2.770
 4587TIP3    H213707   5.143   6.536   2.713
 4588TIP3   OH213708   1.202   3.442   3.266
 4588TIP3    H113709   1.240   3.415   3.349
 4588TIP3    H213710   1.191   3.360   3.217
 4589TIP3   OH213711   7.409   4.079   3.851
 4589TIP3    H113712   7.497   4.056   3.824
 4589TIP3    H213713   7.365   4.105   3.770
 4590TIP3   OH213714   0.211   7.067   6.478
 4590TIP3    H113715   0.290   7.014   6.491
 4590TIP3    H213716   0.144   7.023   6.531
 4591TIP3   OH213717   5.263   3.884   2.946
 4591TIP3    H113718   5.197   3.903   3.013
 4591TIP3    H213719   5.248   3.948   2.877
 4592TIP3   OH213720   1.087   6.445   0.988
 4592TIP3    H113721   1.053   6.390   1.058
 4592TIP3    H213722   1.146   6.506   1.032
 4593TIP3   OH213723   6.436   4.275   4.853
 4593TIP3    H113724   6.501   4.240   4.913
 4593TIP3    H213725   6.353   4.268   4.900
 4594TIP3   OH213726   1.760   5.202   1.799
 4594TIP3    H113727   1.740   5.283   1.846
 4594TIP3    H213728   1.803   5.146   1.864
 4595TIP3   OH213729   2.163   6.594   4.213
 4595TIP3    H113730   2.250   6.616   4.248
 4595TIP3    H213731   2.137   6.515   4.260
 4596TIP3   OH213732   1.845   5.649   1.023
 4596TIP3    H113733   1.750   5.656   1.012
 4596TIP3    H213734   1.873   5.739   1.040
 4597TIP3   OH213735   7.788   4.019   4.451
 4597TIP3    H113736   7.860   3.994   4.393
 4597TIP3    H213737   7.755   4.101   4.414
 4598TIP3   OH213738   0.360   7.146   1.378
 4598TIP3    H113739   0.380   7.078   1.442
 4598TIP3    H213740   0.444   7.163   1.335
 4599TIP3   OH213741   3.144   5.687   4.752
 4599TIP3    H113742   3.093   5.632   4.811
 4599TIP3    H213743   3.226   5.640   4.738
 4600TIP3   OH213744   0.089   1.775   1.459
 4600TIP3    H113745   0.030   1.729   1.399
 4600TIP3    H213746   0.065   1.868   1.450
 4601TIP3   OH213747   3.583   0.951   1.078
 4601TIP3    H113748   3.553   1.035   1.112
 4601TIP3    H213749   3.677   0.963   1.063
 4602TIP3   OH213750   4.802   0.451   1.237
 4602TIP3    H113751   4.760   0.507   1.171
 4602TIP3    H213752   4.841   0.513   1.299
 4603TIP3   OH213753   3.044   2.972   1.829
 4603TIP3    H113754   3.136   2.978   1.856
 4603TIP3    H213755   3.008   2.903   1.885
 4604TIP3   OH213756   1.881   4.382   6.168
 4604TIP3    H113757   1.814   4.449   6.181
 4604TIP3    H213758   1.840   4.300   6.194
 4605TIP3   OH213759   5.383   4.564   0.112
 4605TIP3    H113760   5.328   4.495   0.076
 4605TIP3    H213761   5.405   4.620   0.037
 4606TIP3   OH213762   5.578   4.562   1.249
 4606TIP3    H113763   5.672   4.561   1.231
 4606TIP3    H213764   5.571   4.584   1.342
 4607TIP3   OH213765   2.048   6.665   1.448
 4607TIP3    H113766   2.086   6.606   1.384
 4607TIP3    H213767   1.985   6.612   1.496
 4608TIP3   OH213768   6.479   3.311   1.200
 4608TIP3    H113769   6.483   3.356   1.116
 4608TIP3    H213770   6.385   3.295   1.214
 4609TIP3   OH213771   0.989   3.950   1.022
 4609TIP3    H113772   1.010   3.949   1.116
 4609TIP3    H213773   0.899   3.984   1.019
 4610TIP3   OH213774   3.280   3.737   2.317
 4610TIP3    H113775   3.367   3.702   2.334
 4610TIP3    H213776   3.235   3.733   2.401
 4611TIP3   OH213777   4.283   6.578   4.174
 4611TIP3    H113778   4.193   6.558   4.149
 4611TIP3    H213779   4.277   6.663   4.218
 4612TIP3   OH213780   0.746   0.188   3.276
 4612TIP3    H113781   0.742   0.282   3.261
 4612TIP3    H213782   0.682   0.151   3.215
 4613TIP3   OH213783   6.970   5.734   1.371
 4613TIP3    H113784   6.970   5.830   1.377
 4613TIP3    H213785   6.954   5.704   1.460
 4614TIP3   OH213786   1.312   5.881   1.784
 4614TIP3    H113787   1.261   5.827   1.845
 4614TIP3    H213788   1.398   5.838   1.781
 4615TIP3   OH213789   6.915  -0.028   5.420
 4615TIP3    H113790   6.843   0.029   5.393
 4615TIP3    H213791   6.980   0.031   5.457
 4616TIP3   OH213792   6.339   7.753   6.791
 4616TIP3    H113793   6.282   7.719   6.723
 4616TIP3    H213794   6.427   7.750   6.752
 4617TIP3   OH213795   0.430   1.989   6.445
 4617TIP3    H113796   0.452   2.072   6.488
 4617TIP3    H213797   0.382   1.940   6.511
 4618TIP3   OH213798   5.856   3.499   1.922
 4618TIP3    H113799   5.782   3.448   1.891
 4618TIP3    H213800   5.849   3.583   1.877
 4619TIP3   OH213801   1.276   3.296   2.594
 4619TIP3    H113802   1.275   3.256   2.507
 4619TIP3    H213803   1.240   3.383   2.580
 4620TIP3   OH213804   7.912   7.660   6.352
 4620TIP3    H113805   7.988   7.623   6.396
 4620TIP3    H213806   7.913   7.753   6.375
 4621TIP3   OH213807   5.460   0.974   4.841
 4621TIP3    H113808   5.366   0.975   4.860
 4621TIP3    H213809   5.465   0.942   4.750
 4622TIP3   OH213810   0.933   6.665   0.257
 4622TIP3    H113811   0.989   6.597   0.294
 4622TIP3    H213812   0.921   6.640   0.166
 4623TIP3   OH213813   2.573   2.450   3.618
 4623TIP3    H113814   2.517   2.457   3.695
 4623TIP3    H213815   2.606   2.538   3.603
 4624TIP3   OH213816   1.848   7.638   5.082
 4624TIP3    H113817   1.941   7.614   5.083
 4624TIP3    H213818   1.848   7.733   5.079
 4625TIP3   OH213819   7.701   0.373   4.564
 4625TIP3    H113820   7.656   0.408   4.641
 4625TIP3    H213821   7.630   0.345   4.506
 4626TIP3   OH213822   2.356   5.689   2.642
 4626TIP3    H113823   2.444   5.651   2.647
 4626TIP3    H213824   2.369   5.776   2.605
 4627TIP3   OH213825   0.197   6.766   3.977
 4627TIP3    H113826   0.192   6.679   3.939
 4627TIP3    H213827   0.123   6.772   4.037
 4628TIP3   OH213828   4.585   0.394   5.265
 4628TIP3    H113829   4.542   0.446   5.196
 4628TIP3    H213830   4.513   0.348   5.308
 4629TIP3   OH213831   4.462   5.769   1.999
 4629TIP3    H113832   4.493   5.823   2.072
 4629TIP3    H213833   4.473   5.679   2.030
 4630TIP3   OH213834   0.401   6.228   6.262
 4630TIP3    H113835   0.397   6.186   6.176
 4630TIP3    H213836   0.390   6.156   6.324
 4631TIP3   OH213837   5.801   0.357   5.871
 4631TIP3    H113838   5.767   0.412   5.942
 4631TIP3    H213839   5.838   0.281   5.915
 4632TIP3   OH213840   5.057   4.625   3.659
 4632TIP3    H113841   5.015   4.611   3.574
 4632TIP3    H213842   5.075   4.536   3.692
 4633TIP3   OH213843   7.744   3.779   0.104
 4633TIP3    H113844   7.788   3.794   0.020
 4633TIP3    H213845   7.810   3.733   0.156
 4634TIP3   OH213846   1.919   2.892   5.366
 4634TIP3    H113847   1.883   2.899   5.454
 4634TIP3    H213848   1.942   2.800   5.356
 4635TIP3   OH213849   3.389   3.543   6.037
 4635TIP3    H113850   3.309   3.491   6.032
 4635TIP3    H213851   3.460   3.479   6.036
 4636TIP3   OH213852   0.733   1.941   2.304
 4636TIP3    H113853   0.802   2.002   2.279
 4636TIP3    H213854   0.779   1.861   2.331
 4637TIP3   OH213855   0.906   1.341   3.555
 4637TIP3    H113856   0.870   1.256   3.528
 4637TIP3    H213857   0.927   1.385   3.473
 4638TIP3   OH213858   7.141   4.052   4.779
 4638TIP3    H113859   7.064   4.084   4.825
 4638TIP3    H213860   7.215   4.088   4.827
 4639TIP3   OH213861   0.390   3.795   0.875
 4639TIP3    H113862   0.382   3.710   0.917
 4639TIP3    H213863   0.327   3.792   0.803
 4640TIP3   OH213864   2.167   6.017   5.453
 4640TIP3    H113865   2.223   6.087   5.488
 4640TIP3    H213866   2.082   6.059   5.440
 4641TIP3   OH213867   8.283   2.109   4.995
 4641TIP3    H113868   8.333   2.184   5.028
 4641TIP3    H213869   8.192   2.134   5.008
 4642TIP3   OH213870   6.491   5.638   3.284
 4642TIP3    H113871   6.403   5.606   3.265
 4642TIP3    H213872   6.476   5.716   3.337
 4643TIP3   OH213873   0.650   3.659   0.283
 4643TIP3    H113874   0.724   3.645   0.224
 4643TIP3    H213875   0.658   3.589   0.349
 4644TIP3   OH213876   8.153   7.681   5.976
 4644TIP3    H113877   8.126   7.716   5.891
 4644TIP3    H213878   8.109   7.736   6.040
 4645TIP3   OH213879   6.796   5.734   3.212
 4645TIP3    H113880   6.743   5.762   3.137
 4645TIP3    H213881   6.744   5.755   3.289
 4646TIP3   OH213882   5.616   2.378   0.198
 4646TIP3    H113883   5.605   2.305   0.137
 4646TIP3    H213884   5.541   2.435   0.182
 4647TIP3   OH213885   1.547   7.138   0.533
 4647TIP3    H113886   1.468   7.084   0.540
 4647TIP3    H213887   1.577   7.126   0.443
 4648TIP3   OH213888   7.252   6.102   6.332
 4648TIP3    H113889   7.323   6.068   6.386
 4648TIP3    H213890   7.191   6.028   6.322
 4649TIP3   OH213891   6.053   0.044   2.612
 4649TIP3    H113892   6.002   0.088   2.545
 4649TIP3    H213893   6.021   0.080   2.695
 4650TIP3   OH213894   7.829   4.663   1.565
 4650TIP3    H113895   7.863   4.681   1.652
 4650TIP3    H213896   7.879   4.587   1.534
 4651TIP3   OH213897   1.646   1.912   1.390
 4651TIP3    H113898   1.685   1.993   1.359
 4651TIP3    H213899   1.619   1.932   1.480
 4652TIP3   OH213900   0.624   6.594   3.089
 4652TIP3    H113901   0.607   6.670   3.033
 4652TIP3    H213902   0.623   6.519   3.029
 4653TIP3   OH213903   6.806   5.378   5.646
 4653TIP3    H113904   6.732   5.354   5.590
 4653TIP3    H213905   6.815   5.472   5.636
 4654TIP3   OH213906   7.335   0.776   2.676
 4654TIP3    H113907   7.322   0.839   2.747
 4654TIP3    H213908   7.315   0.691   2.716
 4655TIP3   OH213909   3.086   1.013   6.453
 4655TIP3    H113910   3.085   1.027   6.547
 4655TIP3    H213911   3.120   1.095   6.417
 4656TIP3   OH213912   0.938   3.195   3.067
 4656TIP3    H113913   0.891   3.120   3.030
 4656TIP3    H213914   0.891   3.216   3.147
 4657TIP3   OH213915   3.161   1.238   6.318
 4657TIP3    H113916   3.096   1.296   6.280
 4657TIP3    H213917   3.237   1.246   6.260
 4658TIP3   OH213918   2.110   3.040   0.765
 4658TIP3    H113919   2.156   3.113   0.724
 4658TIP3    H213920   2.168   3.011   0.836
 4659TIP3   OH213921   5.704   4.845   5.226
 4659TIP3    H113922   5.653   4.848   5.145
 4659TIP3    H213923   5.639   4.858   5.295
 4660TIP3   OH213924   7.723   6.353   5.519
 4660TIP3    H113925   7.736   6.439   5.559
 4660TIP3    H213926   7.773   6.293   5.575
 4661TIP3   OH213927   5.239   1.801   4.914
 4661TIP3    H113928   5.232   1.803   4.818
 4661TIP3    H213929   5.331   1.820   4.932
 4662TIP3   OH213930   4.148   5.166   2.316
 4662TIP3    H113931   4.075   5.212   2.276
 4662TIP3    H213932   4.203   5.236   2.352
 4663TIP3   OH213933   4.015   4.587   1.130
 4663TIP3    H113934   4.090   4.615   1.182
 4663TIP3    H213935   4.022   4.491   1.129
 4664TIP3   OH213936   1.206   1.105   4.400
 4664TIP3    H113937   1.188   1.050   4.324
 4664TIP3    H213938   1.148   1.072   4.469
 4665TIP3   OH213939   7.872   5.407   5.559
 4665TIP3    H113940   7.854   5.375   5.647
 4665TIP3    H213941   7.808   5.477   5.545
 4666TIP3   OH213942   3.703   5.192   5.187
 4666TIP3    H113943   3.766   5.262   5.200
 4666TIP3    H213944   3.633   5.211   5.249
 4667TIP3   OH213945   3.217   3.843   1.139
 4667TIP3    H113946   3.242   3.911   1.076
 4667TIP3    H213947   3.296   3.828   1.191
 4668TIP3   OH213948   5.247   7.476   1.974
 4668TIP3    H113949   5.223   7.443   2.061
 4668TIP3    H213950   5.340   7.456   1.965
 4669TIP3   OH213951   6.086   4.566   5.381
 4669TIP3    H113952   6.106   4.591   5.291
 4669TIP3    H213953   5.991   4.577   5.388
 4670TIP3   OH213954   2.625   2.548   2.816
 4670TIP3    H113955   2.698   2.585   2.867
 4670TIP3    H213956   2.655   2.552   2.725
 4671TIP3   OH213957   6.313   3.860   5.178
 4671TIP3    H113958   6.330   3.842   5.271
 4671TIP3    H213959   6.221   3.837   5.166
 4672TIP3   OH213960   6.537   1.367   5.134
 4672TIP3    H113961   6.445   1.346   5.144
 4672TIP3    H213962   6.539   1.434   5.065
 4673TIP3   OH213963   1.528   6.093   1.250
 4673TIP3    H113964   1.583   6.023   1.217
 4673TIP3    H213965   1.536   6.087   1.345
 4674TIP3   OH213966   4.295   7.293   1.563
 4674TIP3    H113967   4.258   7.340   1.489
 4674TIP3    H213968   4.304   7.359   1.632
 4675TIP3   OH213969   1.534   6.643   2.722
 4675TIP3    H113970   1.625   6.630   2.694
 4675TIP3    H213971   1.540   6.651   2.817
 4676TIP3   OH213972   1.451   1.447   0.938
 4676TIP3    H113973   1.432   1.365   0.893
 4676TIP3    H213974   1.407   1.440   1.022
 4677TIP3   OH213975   4.804   3.845   1.898
 4677TIP3    H113976   4.817   3.756   1.931
 4677TIP3    H213977   4.775   3.832   1.808
 4678TIP3   OH213978   7.224   1.477   5.694
 4678TIP3    H113979   7.294   1.539   5.677
 4678TIP3    H213980   7.167   1.521   5.757
 4679TIP3   OH213981   2.335   4.072   3.697
 4679TIP3    H113982   2.243   4.083   3.719
 4679TIP3    H213983   2.362   3.993   3.745
 4680TIP3   OH213984   7.552   4.898   0.015
 4680TIP3    H113985   7.631   4.943   0.046
 4680TIP3    H213986   7.515   4.858   0.093
 4681TIP3   OH213987   1.836   6.476   2.852
 4681TIP3    H113988   1.898   6.490   2.780
 4681TIP3    H213989   1.837   6.559   2.900
 4682TIP3   OH213990   2.060   3.902   2.902
 4682TIP3    H113991   2.050   3.813   2.937
 4682TIP3    H213992   2.029   3.959   2.972
 4683TIP3   OH213993   6.224   7.338   3.627
 4683TIP3    H113994   6.142   7.349   3.674
 4683TIP3    H213995   6.290   7.378   3.683
 4684TIP3   OH213996   3.028   0.642   5.257
 4684TIP3    H113997   2.989   0.567   5.300
 4684TIP3    H213998   3.029   0.711   5.324
 4685TIP3   OH213999   1.473   6.367   0.188
 4685TIP3    H114000   1.487   6.333   0.277
 4685TIP3    H214001   1.425   6.449   0.202
 4686TIP3   OH214002   3.648   0.209   4.585
 4686TIP3    H114003   3.608   0.162   4.511
 4686TIP3    H214004   3.742   0.196   4.572
 4687TIP3   OH214005   0.464   6.433   6.793
 4687TIP3    H114006   0.538   6.414   6.736
 4687TIP3    H214007   0.392   6.454   6.734
 4688TIP3   OH214008   7.197   6.044   0.674
 4688TIP3    H114009   7.265   6.001   0.726
 4688TIP3    H214010   7.239   6.060   0.590
 4689TIP3   OH214011  -0.001   1.735   2.969
 4689TIP3    H114012  -0.026   1.827   2.978
 4689TIP3    H214013   0.070   1.723   3.032
 4690TIP3   OH214014   2.227   7.480   5.199
 4690TIP3    H114015   2.245   7.505   5.108
 4690TIP3    H214016   2.312   7.487   5.243
 4691TIP3   OH214017   2.452   1.286   3.387
 4691TIP3    H114018   2.464   1.194   3.411
 4691TIP3    H214019   2.503   1.296   3.306
 4692TIP3   OH214020   3.488   5.717   5.753
 4692TIP3    H114021   3.534   5.636   5.731
 4692TIP3    H214022   3.421   5.726   5.686
 4693TIP3   OH214023   7.887   7.049   4.209
 4693TIP3    H114024   7.933   7.078   4.130
 4693TIP3    H214025   7.874   6.956   4.196
 4694TIP3   OH214026   6.052   3.896   0.424
 4694TIP3    H114027   6.045   3.947   0.343
 4694TIP3    H214028   6.145   3.873   0.430
 4695TIP3   OH214029   4.318   1.478   2.842
 4695TIP3    H114030   4.370   1.558   2.851
 4695TIP3    H214031   4.363   1.414   2.896
 4696TIP3   OH214032   7.931   2.303   3.413
 4696TIP3    H114033   7.949   2.378   3.469
 4696TIP3    H214034   7.973   2.324   3.330
 4697TIP3   OH214035   4.801   3.538   2.819
 4697TIP3    H114036   4.850   3.569   2.743
 4697TIP3    H214037   4.867   3.503   2.879
 4698TIP3   OH214038   2.835   3.309   2.578
 4698TIP3    H114039   2.859   3.221   2.607
 4698TIP3    H214040   2.771   3.338   2.643
 4699TIP3   OH214041   1.346   0.277   4.486
 4699TIP3    H114042   1.368   0.245   4.398
 4699TIP3    H214043   1.264   0.325   4.474
 4700TIP3   OH214044   7.414   7.445   4.119
 4700TIP3    H114045   7.321   7.468   4.128
 4700TIP3    H214046   7.455   7.525   4.087
 4701TIP3   OH214047   3.041   2.532   5.162
 4701TIP3    H114048   3.001   2.600   5.217
 4701TIP3    H214049   3.075   2.468   5.225
 4702TIP3   OH214050   1.561   6.867   0.833
 4702TIP3    H114051   1.547   6.777   0.861
 4702TIP3    H214052   1.634   6.863   0.772
 4703TIP3   OH214053   3.688   2.818   3.839
 4703TIP3    H114054   3.773   2.792   3.805
 4703TIP3    H214055   3.651   2.874   3.771
 4704TIP3   OH214056   4.841   3.606   3.174
 4704TIP3    H114057   4.865   3.523   3.216
 4704TIP3    H214058   4.906   3.617   3.104
 4705TIP3   OH214059   3.671   1.497   5.192
 4705TIP3    H114060   3.707   1.568   5.140
 4705TIP3    H214061   3.694   1.520   5.282
 4706TIP3   OH214062   6.205   3.242   0.099
 4706TIP3    H114063   6.275   3.189   0.060
 4706TIP3    H214064   6.221   3.236   0.194
 4707TIP3   OH214065   1.124   0.131   3.623
 4707TIP3    H114066   1.162   0.046   3.645
 4707TIP3    H214067   1.120   0.178   3.706
 4708TIP3   OH214068   8.159   4.256   5.159
 4708TIP3    H114069   8.122   4.214   5.082
 4708TIP3    H214070   8.084   4.270   5.217
 4709TIP3   OH214071   6.897   1.669   1.665
 4709TIP3    H114072   6.944   1.605   1.719
 4709TIP3    H214073   6.921   1.754   1.701
 4710TIP3   OH214074   5.100   4.203   5.472
 4710TIP3    H114075   5.125   4.293   5.451
 4710TIP3    H214076   5.108   4.156   5.389
 4711TIP3   OH214077   3.726   1.714   2.229
 4711TIP3    H114078   3.773   1.786   2.272
 4711TIP3    H214079   3.795   1.650   2.208
 4712TIP3   OH214080   2.764   6.318   1.577
 4712TIP3    H114081   2.818   6.397   1.570
 4712TIP3    H214082   2.690   6.344   1.633
 4713TIP3   OH214083   5.148   6.338   0.980
 4713TIP3    H114084   5.165   6.355   1.072
 4713TIP3    H214085   5.071   6.282   0.980
 4714TIP3   OH214086   0.786   0.967   6.173
 4714TIP3    H114087   0.775   1.044   6.229
 4714TIP3    H214088   0.843   0.997   6.102
 4715TIP3   OH214089   0.772   0.098   4.203
 4715TIP3    H114090   0.831   0.173   4.213
 4715TIP3    H214091   0.699   0.131   4.151
 4716TIP3   OH214092   3.837   2.967   0.947
 4716TIP3    H114093   3.926   2.993   0.924
 4716TIP3    H214094   3.782   3.038   0.916
 4717TIP3   OH214095   3.486   4.325   4.466
 4717TIP3    H114096   3.496   4.303   4.373
 4717TIP3    H214097   3.402   4.287   4.491
 4718TIP3   OH214098   0.171   4.741   6.118
 4718TIP3    H114099   0.191   4.648   6.108
 4718TIP3    H214100   0.134   4.748   6.206
 4719TIP3   OH214101   7.753   2.435   5.135
 4719TIP3    H114102   7.712   2.521   5.144
 4719TIP3    H214103   7.701   2.390   5.068
 4720TIP3   OH214104   5.181   2.646   3.261
 4720TIP3    H114105   5.157   2.554   3.248
 4720TIP3    H214106   5.118   2.695   3.209
 4721TIP3   OH214107   2.121   6.186   1.748
 4721TIP3    H114108   2.191   6.167   1.810
 4721TIP3    H214109   2.063   6.246   1.795
 4722TIP3   OH214110   2.578   3.617   6.627
 4722TIP3    H114111   2.554   3.568   6.706
 4722TIP3    H214112   2.497   3.658   6.599
 4723TIP3   OH214113   0.858   0.347   5.178
 4723TIP3    H114114   0.779   0.343   5.124
 4723TIP3    H214115   0.900   0.429   5.153
 4724TIP3   OH214116   2.714   4.772   4.344
 4724TIP3    H114117   2.772   4.790   4.270
 4724TIP3    H214118   2.751   4.823   4.416
 4725TIP3   OH214119   7.631   4.090   4.758
 4725TIP3    H114120   7.552   4.037   4.759
 4725TIP3    H214121   7.701   4.029   4.780
 4726TIP3   OH214122   1.296   6.241   2.613
 4726TIP3    H114123   1.368   6.228   2.550
 4726TIP3    H214124   1.318   6.181   2.685
 4727TIP3   OH214125   5.761   1.223   1.630
 4727TIP3    H114126   5.806   1.252   1.709
 4727TIP3    H214127   5.686   1.282   1.622
 4728TIP3   OH214128   7.899   7.586   5.309
 4728TIP3    H114129   7.876   7.656   5.249
 4728TIP3    H214130   7.947   7.523   5.256
 4729TIP3   OH214131   0.781   6.665   0.549
 4729TIP3    H114132   0.704   6.696   0.596
 4729TIP3    H214133   0.838   6.629   0.617
 4730TIP3   OH214134   2.098   1.477   5.184
 4730TIP3    H114135   2.149   1.398   5.199
 4730TIP3    H214136   2.163   1.544   5.162
 4731TIP3   OH214137   1.428   3.520   0.509
 4731TIP3    H114138   1.454   3.561   0.592
 4731TIP3    H214139   1.501   3.536   0.450
 4732TIP3   OH214140   4.165   1.004   1.485
 4732TIP3    H114141   4.253   1.036   1.501
 4732TIP3    H214142   4.151   1.016   1.391
 4733TIP3   OH214143   6.905   2.752   6.156
 4733TIP3    H114144   6.941   2.688   6.095
 4733TIP3    H214145   6.946   2.731   6.240
 4734TIP3   OH214146   4.149   6.811   4.245
 4734TIP3    H114147   4.117   6.846   4.329
 4734TIP3    H214148   4.071   6.800   4.192
 4735TIP3   OH214149   4.905   4.206   2.956
 4735TIP3    H114150   4.927   4.180   2.867
 4735TIP3    H214151   4.815   4.176   2.968
 4736TIP3   OH214152   5.956   7.392   2.375
 4736TIP3    H114153   5.962   7.375   2.469
 4736TIP3    H214154   6.022   7.459   2.359
 4737TIP3   OH214155   2.961   3.387   0.380
 4737TIP3    H114156   2.964   3.370   0.285
 4737TIP3    H214157   3.053   3.395   0.406
 4738TIP3   OH214158   4.781   0.813   6.548
 4738TIP3    H114159   4.758   0.721   6.538
 4738TIP3    H214160   4.764   0.833   6.640
 4739TIP3   OH214161   3.927   7.470   2.429
 4739TIP3    H114162   3.891   7.508   2.509
 4739TIP3    H214163   3.945   7.546   2.373
 4740TIP3   OH214164   0.383   6.362   1.505
 4740TIP3    H114165   0.422   6.293   1.559
 4740TIP3    H214166   0.292   6.365   1.533
 4741TIP3   OH214167   6.840   3.738   4.690
 4741TIP3    H114168   6.783   3.662   4.697
 4741TIP3    H214169   6.817   3.779   4.607
 4742TIP3   OH214170   1.159   7.769   6.404
 4742TIP3    H114171   1.169   7.848   6.351
 4742TIP3    H214172   1.082   7.786   6.458
 4743TIP3   OH214173   5.512   1.947   3.391
 4743TIP3    H114174   5.600   1.911   3.376
 4743TIP3    H214175   5.526   2.015   3.457
 4744TIP3   OH214176   8.072   5.008   1.848
 4744TIP3    H114177   8.061   5.101   1.828
 4744TIP3    H214178   8.166   4.996   1.858
 4745TIP3   OH214179   0.126   6.937   1.016
 4745TIP3    H114180   0.140   6.905   0.927
 4745TIP3    H214181   0.036   6.912   1.037
 4746TIP3   OH214182   7.298   2.268   4.403
 4746TIP3    H114183   7.331   2.179   4.419
 4746TIP3    H214184   7.276   2.268   4.309
 4747TIP3   OH214185   0.745   7.483   0.705
 4747TIP3    H114186   0.781   7.423   0.639
 4747TIP3    H214187   0.657   7.504   0.672
 4748TIP3   OH214188   7.179   0.188   6.499
 4748TIP3    H114189   7.145   0.118   6.554
 4748TIP3    H214190   7.260   0.215   6.543
 4749TIP3   OH214191   2.374   4.434   0.603
 4749TIP3    H114192   2.312   4.471   0.540
 4749TIP3    H214193   2.318   4.394   0.671
 4750TIP3   OH214194   1.760   1.652   5.584
 4750TIP3    H114195   1.678   1.620   5.546
 4750TIP3    H214196   1.764   1.744   5.559
 4751TIP3   OH214197   4.347   6.756   4.471
 4751TIP3    H114198   4.321   6.754   4.379
 4751TIP3    H214199   4.334   6.847   4.498
 4752TIP3   OH214200   7.617   6.122   2.227
 4752TIP3    H114201   7.568   6.203   2.244
 4752TIP3    H214202   7.703   6.138   2.265
 4753TIP3   OH214203   3.730   5.878   1.115
 4753TIP3    H114204   3.647   5.895   1.070
 4753TIP3    H214205   3.709   5.810   1.179
 4754TIP3   OH214206   5.440   7.084   0.800
 4754TIP3    H114207   5.486   7.141   0.860
 4754TIP3    H214208   5.465   6.995   0.825
 4755TIP3   OH214209   3.448   2.044   4.366
 4755TIP3    H114210   3.389   2.062   4.292
 4755TIP3    H214211   3.389   2.025   4.439
 4756TIP3   OH214212   6.504   5.634   5.594
 4756TIP3    H114213   6.574   5.606   5.535
 4756TIP3    H214214   6.533   5.718   5.629
 4757TIP3   OH214215   5.444   6.951   0.560
 4757TIP3    H114216   5.367   6.978   0.509
 4757TIP3    H214217   5.447   7.012   0.633
 4758TIP3   OH214218   3.123   6.523   3.784
 4758TIP3    H114219   3.034   6.557   3.789
 4758TIP3    H214220   3.126   6.475   3.702
 4759TIP3   OH214221   1.943   3.530   1.350
 4759TIP3    H114222   2.017   3.471   1.362
 4759TIP3    H214223   1.874   3.475   1.310
 4760TIP3   OH214224   6.880   4.921   3.889
 4760TIP3    H114225   6.923   4.991   3.841
 4760TIP3    H214226   6.865   4.852   3.824
 4761TIP3   OH214227   4.052   7.168   4.462
 4761TIP3    H114228   4.088   7.241   4.512
 4761TIP3    H214229   3.961   7.162   4.490
 4762TIP3   OH214230   6.380   3.448   1.569
 4762TIP3    H114231   6.451   3.385   1.559
 4762TIP3    H214232   6.422   3.527   1.602
 4763TIP3   OH214233   3.805   0.416   0.767
 4763TIP3    H114234   3.791   0.336   0.817
 4763TIP3    H214235   3.895   0.442   0.789
 4764TIP3   OH214236   5.107   3.739   3.543
 4764TIP3    H114237   5.168   3.769   3.610
 4764TIP3    H214238   5.052   3.816   3.525
 4765TIP3   OH214239   8.189   5.831   5.259
 4765TIP3    H114240   8.191   5.745   5.299
 4765TIP3    H214241   8.105   5.869   5.284
 4766TIP3   OH214242   0.960   4.419   1.986
 4766TIP3    H114243   0.875   4.381   1.962
 4766TIP3    H214244   1.023   4.348   1.973
 4767TIP3   OH214245   0.209   4.125   6.487
 4767TIP3    H114246   0.206   4.220   6.498
 4767TIP3    H214247   0.124   4.094   6.518
 4768TIP3   OH214248   4.847   7.085   5.232
 4768TIP3    H114249   4.761   7.120   5.253
 4768TIP3    H214250   4.907   7.128   5.293
 4769TIP3   OH214251   0.041   7.183   4.056
 4769TIP3    H114252   0.007   7.171   4.145
 4769TIP3    H214253   0.136   7.171   4.065
 4770TIP3   OH214254   2.085   4.112   3.463
 4770TIP3    H114255   1.997   4.147   3.451
 4770TIP3    H214256   2.097   4.109   3.557
 4771TIP3   OH214257   5.410   6.192   0.175
 4771TIP3    H114258   5.463   6.146   0.240
 4771TIP3    H214259   5.321   6.162   0.191
 4772TIP3   OH214260   7.642   0.103   3.445
 4772TIP3    H114261   7.612   0.143   3.362
 4772TIP3    H214262   7.640   0.175   3.508
 4773TIP3   OH214263   4.426   4.355   5.930
 4773TIP3    H114264   4.433   4.344   5.836
 4773TIP3    H214265   4.478   4.284   5.967
 4774TIP3   OH214266   0.189   1.513   6.347
 4774TIP3    H114267   0.243   1.435   6.337
 4774TIP3    H214268   0.100   1.480   6.355
 4775TIP3   OH214269   2.423   6.172   2.640
 4775TIP3    H114270   2.330   6.193   2.632
 4775TIP3    H214271   2.454   6.227   2.712
 4776TIP3   OH214272   3.737   4.896   6.460
 4776TIP3    H114273   3.703   4.934   6.541
 4776TIP3    H214274   3.832   4.904   6.467
 4777TIP3   OH214275   2.769   6.882   2.820
 4777TIP3    H114276   2.733   6.823   2.886
 4777TIP3    H214277   2.741   6.846   2.736
 4778TIP3   OH214278   4.712   6.087   5.037
 4778TIP3    H114279   4.617   6.082   5.029
 4778TIP3    H214280   4.730   6.061   5.128
 4779TIP3   OH214281   1.778   7.179   0.654
 4779TIP3    H114282   1.830   7.239   0.600
 4779TIP3    H214283   1.687   7.193   0.625
 4780TIP3   OH214284   2.599   4.262   0.442
 4780TIP3    H114285   2.576   4.346   0.482
 4780TIP3    H214286   2.669   4.284   0.380
 4781TIP3   OH214287   2.327   7.002   4.280
 4781TIP3    H114288   2.383   7.062   4.231
 4781TIP3    H214289   2.351   7.016   4.372
 4782TIP3   OH214290   2.875   7.594   0.421
 4782TIP3    H114291   2.800   7.534   0.421
 4782TIP3    H214292   2.914   7.584   0.508
 4783TIP3   OH214293   1.483   4.008   4.065
 4783TIP3    H114294   1.413   4.060   4.027
 4783TIP3    H214295   1.439   3.946   4.123
 4784TIP3   OH214296   1.651   3.524   0.302
 4784TIP3    H114297   1.664   3.548   0.211
 4784TIP3    H214298   1.710   3.581   0.351
 4785TIP3   OH214299   7.706   1.993   3.974
 4785TIP3    H114300   7.717   2.025   3.884
 4785TIP3    H214301   7.691   2.072   4.026
 4786TIP3   OH214302   4.523   7.080   5.253
 4786TIP3    H114303   4.456   7.017   5.225
 4786TIP3    H214304   4.486   7.165   5.231
 4787TIP3   OH214305   0.610   2.356   2.003
 4787TIP3    H114306   0.589   2.379   2.094
 4787TIP3    H214307   0.688   2.408   1.983
 4788TIP3   OH214308   7.201   5.011   5.792
 4788TIP3    H114309   7.215   5.018   5.697
 4788TIP3    H214310   7.107   5.022   5.803
 4789TIP3   OH214311   6.519   3.214   1.497
 4789TIP3    H114312   6.587   3.255   1.442
 4789TIP3    H214313   6.453   3.184   1.434
 4790TIP3   OH214314   6.824   7.750   3.314
 4790TIP3    H114315   6.890   7.713   3.255
 4790TIP3    H214316   6.822   7.843   3.293
 4791TIP3   OH214317   7.387   7.471   0.819
 4791TIP3    H114318   7.357   7.539   0.758
 4791TIP3    H214319   7.319   7.468   0.887
 4792TIP3   OH214320   2.880   3.541   4.476
 4792TIP3    H114321   2.933   3.582   4.408
 4792TIP3    H214322   2.824   3.611   4.509
 4793TIP3   OH214323   5.581   5.465   2.355
 4793TIP3    H114324   5.582   5.536   2.419
 4793TIP3    H214325   5.499   5.419   2.371
 4794TIP3   OH214326   3.857   6.932   1.187
 4794TIP3    H114327   3.886   6.895   1.271
 4794TIP3    H214328   3.878   7.025   1.193
 4795TIP3   OH214329   5.741   0.968   1.980
 4795TIP3    H114330   5.775   0.879   1.991
 4795TIP3    H214331   5.820   1.022   1.975
 4796TIP3   OH214332   2.872   4.349   5.119
 4796TIP3    H114333   2.851   4.355   5.026
 4796TIP3    H214334   2.798   4.392   5.163
 4797TIP3   OH214335   6.880   6.804   2.693
 4797TIP3    H114336   6.833   6.765   2.619
 4797TIP3    H214337   6.952   6.852   2.652
 4798TIP3   OH214338   4.011   2.413   4.930
 4798TIP3    H114339   4.064   2.486   4.961
 4798TIP3    H214340   4.023   2.345   4.996
 4799TIP3   OH214341   5.205   5.201   0.979
 4799TIP3    H114342   5.136   5.162   1.034
 4799TIP3    H214343   5.286   5.188   1.029
 4800TIP3   OH214344   4.544   1.148   0.336
 4800TIP3    H114345   4.469   1.120   0.388
 4800TIP3    H214346   4.506   1.193   0.260
 4801TIP3   OH214347   5.154   6.176   2.096
 4801TIP3    H114348   5.140   6.243   2.163
 4801TIP3    H214349   5.197   6.223   2.024
 4802TIP3   OH214350   4.547   7.607   5.740
 4802TIP3    H114351   4.468   7.554   5.744
 4802TIP3    H214352   4.612   7.549   5.699
 4803TIP3   OH214353   5.870   4.197   5.982
 4803TIP3    H114354   5.852   4.170   6.072
 4803TIP3    H214355   5.886   4.115   5.935
 4804TIP3   OH214356   5.760   6.760   4.790
 4804TIP3    H114357   5.841   6.762   4.841
 4804TIP3    H214358   5.753   6.670   4.760
 4805TIP3   OH214359   5.322   7.306   4.482
 4805TIP3    H114360   5.358   7.368   4.545
 4805TIP3    H214361   5.227   7.307   4.498
 4806TIP3   OH214362   7.574   4.349   3.702
 4806TIP3    H114363   7.503   4.367   3.764
 4806TIP3    H214364   7.531   4.308   3.627
 4807TIP3   OH214365   3.532   0.467   6.174
 4807TIP3    H114366   3.517   0.537   6.238
 4807TIP3    H214367   3.450   0.418   6.174
 4808TIP3   OH214368   6.033   5.340   4.239
 4808TIP3    H114369   5.996   5.410   4.186
 4808TIP3    H214370   6.118   5.321   4.199
 4809TIP3   OH214371   5.871   6.695   5.538
 4809TIP3    H114372   5.929   6.701   5.462
 4809TIP3    H214373   5.875   6.782   5.578
 4810TIP3   OH214374   6.117   1.876   6.714
 4810TIP3    H114375   6.051   1.811   6.689
 4810TIP3    H214376   6.166   1.835   6.784
 4811TIP3   OH214377   4.248   2.292   1.588
 4811TIP3    H114378   4.329   2.342   1.579
 4811TIP3    H214379   4.260   2.242   1.669
 4812TIP3   OH214380   8.017   1.117   4.553
 4812TIP3    H114381   7.929   1.103   4.520
 4812TIP3    H214382   8.051   1.189   4.500
 4813TIP3   OH214383   4.672   2.398   6.462
 4813TIP3    H114384   4.725   2.398   6.383
 4813TIP3    H214385   4.721   2.343   6.523
 4814TIP3   OH214386   1.159   2.151   3.146
 4814TIP3    H114387   1.224   2.207   3.190
 4814TIP3    H214388   1.208   2.110   3.074
 4815TIP3   OH214389   0.693   1.223   6.570
 4815TIP3    H114390   0.640   1.279   6.514
 4815TIP3    H214391   0.633   1.155   6.600
 4816TIP3   OH214392   2.255   0.146   2.056
 4816TIP3    H114393   2.270   0.240   2.053
 4816TIP3    H214394   2.335   0.110   2.095
 4817TIP3   OH214395   2.105   2.225   3.165
 4817TIP3    H114396   2.104   2.131   3.184
 4817TIP3    H214397   2.196   2.245   3.146
 4818TIP3   OH214398   2.893   6.235   5.935
 4818TIP3    H114399   2.837   6.299   5.978
 4818TIP3    H214400   2.888   6.157   5.990
 4819TIP3   OH214401   7.497   0.061   0.299
 4819TIP3    H114402   7.478  -0.031   0.283
 4819TIP3    H214403   7.588   0.072   0.273
 4820TIP3   OH214404   7.548   6.025   4.743
 4820TIP3    H114405   7.499   5.942   4.748
 4820TIP3    H214406   7.604   6.015   4.666
 4821TIP3   OH214407   3.069   1.039   0.241
 4821TIP3    H114408   2.976   1.025   0.255
 4821TIP3    H214409   3.074   1.127   0.202
 4822TIP3   OH214410   7.190   4.006   0.183
 4822TIP3    H114411   7.120   3.953   0.221
 4822TIP3    H214412   7.222   3.954   0.109
 4823TIP3   OH214413   5.373   1.544   3.785
 4823TIP3    H114414   5.358   1.638   3.778
 4823TIP3    H214415   5.464   1.536   3.814
 4824TIP3   OH214416   3.478   5.066   1.267
 4824TIP3    H114417   3.509   4.986   1.226
 4824TIP3    H214418   3.462   5.043   1.358
 4825TIP3   OH214419   0.878   1.725   2.394
 4825TIP3    H114420   0.960   1.771   2.415
 4825TIP3    H214421   0.906   1.646   2.349
 4826TIP3   OH214422   4.733   7.540   3.781
 4826TIP3    H114423   4.822   7.570   3.764
 4826TIP3    H214424   4.713   7.572   3.869
 4827TIP3   OH214425   3.149   5.594   1.644
 4827TIP3    H114426   3.223   5.644   1.678
 4827TIP3    H214427   3.075   5.617   1.700
 4828TIP3   OH214428   5.512   1.624   5.465
 4828TIP3    H114429   5.551   1.540   5.440
 4828TIP3    H214430   5.450   1.644   5.395
 4829TIP3   OH214431   1.276   1.868   1.667
 4829TIP3    H114432   1.188   1.845   1.696
 4829TIP3    H214433   1.267   1.957   1.632
 4830TIP3   OH214434   4.319   1.335   4.686
 4830TIP3    H114435   4.259   1.261   4.696
 4830TIP3    H214436   4.351   1.328   4.596
 4831TIP3   OH214437   4.351   4.278   2.721
 4831TIP3    H114438   4.263   4.239   2.728
 4831TIP3    H214439   4.344   4.339   2.648
 4832TIP3   OH214440   5.676   4.568   2.915
 4832TIP3    H114441   5.736   4.539   2.984
 4832TIP3    H214442   5.733   4.614   2.852
 4833TIP3   OH214443   3.427   3.006   2.617
 4833TIP3    H114444   3.464   2.965   2.539
 4833TIP3    H214445   3.504   3.039   2.665
 4834TIP3   OH214446   7.161   7.138   1.895
 4834TIP3    H114447   7.229   7.205   1.901
 4834TIP3    H214448   7.194   7.076   1.830
 4835TIP3   OH214449   3.975   6.732   1.343
 4835TIP3    H114450   3.946   6.664   1.403
 4835TIP3    H214451   4.069   6.741   1.358
 4836TIP3   OH214452   0.618   3.846   4.020
 4836TIP3    H114453   0.600   3.914   4.086
 4836TIP3    H214454   0.540   3.790   4.023
 4837TIP3   OH214455   6.877   3.684   6.008
 4837TIP3    H114456   6.940   3.612   6.013
 4837TIP3    H214457   6.923   3.759   6.045
 4838TIP3   OH214458   4.831   0.443   5.760
 4838TIP3    H114459   4.907   0.408   5.713
 4838TIP3    H214460   4.757   0.426   5.702
 4839TIP3   OH214461   7.772   6.756   2.265
 4839TIP3    H114462   7.826   6.779   2.340
 4839TIP3    H214463   7.788   6.826   2.202
 4840TIP3   OH214464   1.049   4.653   4.799
 4840TIP3    H114465   1.045   4.582   4.735
 4840TIP3    H214466   0.960   4.688   4.800
 4841TIP3   OH214467   1.841   3.527   6.427
 4841TIP3    H114468   1.804   3.460   6.369
 4841TIP3    H214469   1.909   3.569   6.374
 4842TIP3   OH214470   5.935   1.690   2.501
 4842TIP3    H114471   5.879   1.633   2.555
 4842TIP3    H214472   5.952   1.766   2.557
 4843TIP3   OH214473   7.555   7.303   0.973
 4843TIP3    H114474   7.602   7.329   0.894
 4843TIP3    H214475   7.610   7.335   1.045
 4844TIP3   OH214476   8.108   5.312   6.330
 4844TIP3    H114477   8.073   5.316   6.419
 4844TIP3    H214478   8.099   5.401   6.296
 4845TIP3   OH214479   6.649   0.254   3.635
 4845TIP3    H114480   6.617   0.271   3.547
 4845TIP3    H214481   6.703   0.331   3.656
 4846TIP3   OH214482   7.575   1.919   1.313
 4846TIP3    H114483   7.631   1.897   1.387
 4846TIP3    H214484   7.486   1.907   1.345
 4847TIP3   OH214485   4.546   4.175   2.035
 4847TIP3    H114486   4.513   4.240   1.973
 4847TIP3    H214487   4.468   4.127   2.062
 4848TIP3   OH214488   6.804   5.163   0.895
 4848TIP3    H114489   6.892   5.129   0.880
 4848TIP3    H214490   6.748   5.085   0.892
 4849TIP3   OH214491   2.933   3.292   6.640
 4849TIP3    H114492   2.984   3.332   6.711
 4849TIP3    H214493   2.847   3.278   6.678
 4850TIP3   OH214494   6.082   0.339   1.015
 4850TIP3    H114495   5.990   0.355   0.994
 4850TIP3    H214496   6.131   0.397   0.957
 4851TIP3   OH214497   2.808   5.360   0.071
 4851TIP3    H114498   2.758   5.408   0.137
 4851TIP3    H214499   2.743   5.305   0.027
 4852TIP3   OH214500   4.791   3.417   0.223
 4852TIP3    H114501   4.740   3.495   0.246
 4852TIP3    H214502   4.809   3.426   0.130
 4853TIP3   OH214503   1.181   3.153   5.885
 4853TIP3    H114504   1.144   3.111   5.808
 4853TIP3    H214505   1.134   3.236   5.893
 4854TIP3   OH214506   4.579   0.355   2.232
 4854TIP3    H114507   4.557   0.335   2.323
 4854TIP3    H214508   4.567   0.450   2.225
 4855TIP3   OH214509   5.142   4.688   5.192
 4855TIP3    H114510   5.226   4.646   5.174
 4855TIP3    H214511   5.144   4.768   5.139
 4856TIP3   OH214512   7.689   2.934   3.027
 4856TIP3    H114513   7.597   2.957   3.015
 4856TIP3    H214514   7.710   2.963   3.116
 4857TIP3   OH214515   1.344   1.336   4.480
 4857TIP3    H114516   1.285   1.266   4.454
 4857TIP3    H214517   1.338   1.338   4.576
 4858TIP3   OH214518   3.195   4.133   2.999
 4858TIP3    H114519   3.112   4.180   3.001
 4858TIP3    H214520   3.262   4.201   3.004
 4859TIP3   OH214521   4.055   2.677   0.327
 4859TIP3    H114522   4.089   2.588   0.314
 4859TIP3    H214523   4.129   2.734   0.308
 4860TIP3   OH214524   1.958   4.329   2.303
 4860TIP3    H114525   1.986   4.312   2.214
 4860TIP3    H214526   2.011   4.403   2.333
 4861TIP3   OH214527   8.035   4.006   5.274
 4861TIP3    H114528   8.059   3.959   5.195
 4861TIP3    H214529   8.118   4.029   5.315
 4862TIP3   OH214530   5.830   3.274   6.615
 4862TIP3    H114531   5.858   3.366   6.620
 4862TIP3    H214532   5.774   3.262   6.691
 4863TIP3   OH214533   4.431   5.349   4.997
 4863TIP3    H114534   4.418   5.434   4.955
 4863TIP3    H214535   4.366   5.292   4.955
 4864TIP3   OH214536   2.960   3.319   4.146
 4864TIP3    H114537   3.045   3.277   4.129
 4864TIP3    H214538   2.961   3.398   4.093
 4865TIP3   OH214539   4.848   1.872   6.254
 4865TIP3    H114540   4.879   1.857   6.164
 4865TIP3    H214541   4.825   1.784   6.286
 4866TIP3   OH214542   7.724   6.402   3.658
 4866TIP3    H114543   7.706   6.333   3.594
 4866TIP3    H214544   7.649   6.461   3.650
 4867TIP3   OH214545   3.102   3.139   6.201
 4867TIP3    H114546   3.068   3.197   6.268
 4867TIP3    H214547   3.035   3.071   6.191
 4868TIP3   OH214548   0.393   6.748   0.967
 4868TIP3    H114549   0.441   6.830   0.962
 4868TIP3    H214550   0.314   6.769   1.017
 4869TIP3   OH214551   4.157   2.767   5.207
 4869TIP3    H114552   4.068   2.779   5.175
 4869TIP3    H214553   4.147   2.733   5.296
 4870TIP3   OH214554   6.456   0.841   2.950
 4870TIP3    H114555   6.528   0.841   3.013
 4870TIP3    H214556   6.492   0.881   2.871
 4871TIP3   OH214557   5.939   0.426   3.923
 4871TIP3    H114558   5.999   0.430   3.998
 4871TIP3    H214559   5.953   0.339   3.886
 4872TIP3   OH214560   3.624   5.326   0.221
 4872TIP3    H114561   3.673   5.333   0.303
 4872TIP3    H214562   3.690   5.303   0.156
 4873TIP3   OH214563   3.211   3.835   1.605
 4873TIP3    H114564   3.232   3.875   1.689
 4873TIP3    H214565   3.166   3.904   1.557
 4874TIP3   OH214566   5.698   4.832   6.249
 4874TIP3    H114567   5.793   4.845   6.239
 4874TIP3    H214568   5.689   4.790   6.335
 4875TIP3   OH214569   5.921   3.570   3.999
 4875TIP3    H114570   5.930   3.665   4.013
 4875TIP3    H214571   5.861   3.563   3.925
 4876TIP3   OH214572   0.311   6.464   6.107
 4876TIP3    H114573   0.340   6.397   6.168
 4876TIP3    H214574   0.269   6.530   6.162
 4877TIP3   OH214575   6.365   1.936   5.177
 4877TIP3    H114576   6.292   1.877   5.158
 4877TIP3    H214577   6.439   1.878   5.192
 4878TIP3   OH214578   1.141   5.408   5.209
 4878TIP3    H114579   1.131   5.502   5.195
 4878TIP3    H214580   1.231   5.397   5.239
 4879TIP3   OH214581   7.227   6.774   3.004
 4879TIP3    H114582   7.146   6.762   2.956
 4879TIP3    H214583   7.231   6.868   3.023
 4880TIP3   OH214584   2.853   2.685   5.305
 4880TIP3    H114585   2.881   2.721   5.388
 4880TIP3    H214586   2.763   2.655   5.321
 4881TIP3   OH214587   0.568   6.954   2.163
 4881TIP3    H114588   0.619   6.962   2.082
 4881TIP3    H214589   0.627   6.982   2.232
 4882TIP3   OH214590   1.144   1.340   0.439
 4882TIP3    H114591   1.122   1.329   0.532
 4882TIP3    H214592   1.092   1.415   0.411
 4883TIP3   OH214593   2.207   3.679   2.559
 4883TIP3    H114594   2.200   3.774   2.572
 4883TIP3    H214595   2.223   3.669   2.465
 4884TIP3   OH214596   0.894   1.371   2.634
 4884TIP3    H114597   0.914   1.456   2.674
 4884TIP3    H214598   0.799   1.371   2.625
 4885TIP3   OH214599   6.683   2.972   0.581
 4885TIP3    H114600   6.668   2.975   0.487
 4885TIP3    H214601   6.651   2.885   0.608
 4886TIP3   OH214602   2.458   5.535   6.118
 4886TIP3    H114603   2.401   5.526   6.042
 4886TIP3    H214604   2.524   5.599   6.092
 4887TIP3   OH214605   6.098   3.160   1.416
 4887TIP3    H114606   6.007   3.132   1.416
 4887TIP3    H214607   6.107   3.215   1.494
 4888TIP3   OH214608   5.149   2.279   2.705
 4888TIP3    H114609   5.172   2.357   2.755
 4888TIP3    H214610   5.057   2.262   2.726
 4889TIP3   OH214611   5.200   7.680   6.493
 4889TIP3    H114612   5.201   7.691   6.589
 4889TIP3    H214613   5.244   7.596   6.478
 4890TIP3   OH214614   4.900   4.230   3.593
 4890TIP3    H114615   4.872   4.140   3.576
 4890TIP3    H214616   4.852   4.282   3.528
 4891TIP3   OH214617   1.794   3.955   6.413
 4891TIP3    H114618   1.838   3.879   6.374
 4891TIP3    H214619   1.844   3.973   6.493
 4892TIP3   OH214620   5.000   6.991   1.214
 4892TIP3    H114621   5.073   6.976   1.275
 4892TIP3    H214622   5.039   7.038   1.141
 4893TIP3   OH214623   1.572   2.047   1.992
 4893TIP3    H114624   1.657   2.054   2.035
 4893TIP3    H214625   1.564   2.129   1.942
 4894TIP3   OH214626   5.293   0.416   0.392
 4894TIP3    H114627   5.378   0.396   0.353
 4894TIP3    H214628   5.236   0.436   0.318
 4895TIP3   OH214629   7.538   1.048   6.078
 4895TIP3    H114630   7.483   1.098   6.018
 4895TIP3    H214631   7.533   0.958   6.046
 4896TIP3   OH214632   3.213   6.486   4.654
 4896TIP3    H114633   3.294   6.435   4.655
 4896TIP3    H214634   3.203   6.518   4.743
 4897TIP3   OH214635   5.214   0.746   3.715
 4897TIP3    H114636   5.148   0.801   3.757
 4897TIP3    H214637   5.292   0.802   3.709
 4898TIP3   OH214638   0.596   4.267   6.435
 4898TIP3    H114639   0.669   4.288   6.494
 4898TIP3    H214640   0.577   4.349   6.390
 4899TIP3   OH214641   8.033   5.554   6.186
 4899TIP3    H114642   7.954   5.606   6.196
 4899TIP3    H214643   8.076   5.589   6.109
 4900TIP3   OH214644   0.608   2.158   1.821
 4900TIP3    H114645   0.622   2.237   1.873
 4900TIP3    H214646   0.570   2.095   1.882
 4901TIP3   OH214647   4.985   3.674   4.210
 4901TIP3    H114648   5.073   3.712   4.208
 4901TIP3    H214649   4.999   3.580   4.206
 4902TIP3   OH214650   6.265   5.805   6.333
 4902TIP3    H114651   6.289   5.728   6.281
 4902TIP3    H214652   6.293   5.879   6.280
 4903TIP3   OH214653   6.841   2.526   3.789
 4903TIP3    H114654   6.922   2.537   3.840
 4903TIP3    H214655   6.772   2.521   3.855
 4904TIP3   OH214656   3.118   1.669   5.820
 4904TIP3    H114657   3.155   1.617   5.891
 4904TIP3    H214658   3.172   1.648   5.744
 4905TIP3   OH214659   6.834   5.604   5.040
 4905TIP3    H114660   6.923   5.635   5.058
 4905TIP3    H214661   6.825   5.524   5.092
 4906TIP3   OH214662   3.050   0.639   4.615
 4906TIP3    H114663   3.049   0.554   4.658
 4906TIP3    H214664   2.989   0.629   4.541
 4907TIP3   OH214665   7.641   5.350   0.493
 4907TIP3    H114666   7.630   5.357   0.587
 4907TIP3    H214667   7.735   5.337   0.480
 4908TIP3   OH214668   5.491   0.983   2.623
 4908TIP3    H114669   5.474   1.074   2.646
 4908TIP3    H214670   5.583   0.969   2.646
 4909TIP3   OH214671   5.540   6.532   4.998
 4909TIP3    H114672   5.632   6.507   4.999
 4909TIP3    H214673   5.493   6.450   4.989
 4910TIP3   OH214674   2.736   2.494   1.390
 4910TIP3    H114675   2.781   2.557   1.333
 4910TIP3    H214676   2.669   2.455   1.335
 4911TIP3   OH214677   4.166   7.698   0.288
 4911TIP3    H114678   4.189   7.772   0.345
 4911TIP3    H214679   4.073   7.710   0.270
 4912TIP3   OH214680   4.143   1.892   4.533
 4912TIP3    H114681   4.216   1.861   4.586
 4912TIP3    H214682   4.126   1.821   4.471
 4913TIP3   OH214683   7.891   1.831   6.009
 4913TIP3    H114684   7.831   1.823   6.083
 4913TIP3    H214685   7.975   1.800   6.044
 4914TIP3   OH214686   2.844   6.371   0.535
 4914TIP3    H114687   2.770   6.421   0.501
 4914TIP3    H214688   2.915   6.389   0.474
 4915TIP3   OH214689   7.522   5.703   4.804
 4915TIP3    H114690   7.510   5.632   4.868
 4915TIP3    H214691   7.439   5.706   4.757
 4916TIP3   OH214692   5.246   4.010   1.139
 4916TIP3    H114693   5.240   4.044   1.228
 4916TIP3    H214694   5.294   4.078   1.091
 4917TIP3   OH214695   1.401   4.592   4.996
 4917TIP3    H114696   1.403   4.518   5.056
 4917TIP3    H214697   1.382   4.553   4.910
 4918TIP3   OH214698   5.012   4.595   2.440
 4918TIP3    H114699   5.107   4.599   2.428
 4918TIP3    H214700   4.988   4.682   2.473
 4919TIP3   OH214701   7.152   0.605   6.419
 4919TIP3    H114702   7.077   0.566   6.374
 4919TIP3    H214703   7.113   0.647   6.496
 4920TIP3   OH214704   1.633   7.008   5.423
 4920TIP3    H114705   1.644   7.020   5.329
 4920TIP3    H214706   1.710   6.958   5.450
 4921TIP3   OH214707   5.697   4.351   3.908
 4921TIP3    H114708   5.668   4.392   3.989
 4921TIP3    H214709   5.664   4.261   3.913
 4922TIP3   OH214710   0.509   5.487   3.957
 4922TIP3    H114711   0.458   5.527   3.886
 4922TIP3    H214712   0.460   5.510   4.037
 4923TIP3   OH214713   5.561   5.581   0.717
 4923TIP3    H114714   5.620   5.576   0.642
 4923TIP3    H214715   5.581   5.503   0.769
 4924TIP3   OH214716   1.643   7.779   4.539
 4924TIP3    H114717   1.703   7.720   4.584
 4924TIP3    H214718   1.593   7.723   4.480
 4925TIP3   OH214719   4.144   4.455   3.448
 4925TIP3    H114720   4.233   4.468   3.481
 4925TIP3    H214721   4.153   4.384   3.384
 4926TIP3   OH214722   0.736   1.402   5.993
 4926TIP3    H114723   0.776   1.458   5.927
 4926TIP3    H214724   0.643   1.423   5.989
 4927TIP3   OH214725   7.751   5.605   4.987
 4927TIP3    H114726   7.711   5.653   5.059
 4927TIP3    H214727   7.678   5.582   4.930
 4928TIP3   OH214728   3.108   7.562   1.620
 4928TIP3    H114729   3.089   7.490   1.560
 4928TIP3    H214730   3.030   7.617   1.617
 4929TIP3   OH214731   3.643   1.154   4.652
 4929TIP3    H114732   3.687   1.224   4.603
 4929TIP3    H214733   3.569   1.197   4.694
 4930TIP3   OH214734   5.026   7.364   6.760
 4930TIP3    H114735   5.089   7.323   6.701
 4930TIP3    H214736   4.950   7.306   6.759
 4931TIP3   OH214737   1.672   3.096   6.333
 4931TIP3    H114738   1.638   3.068   6.418
 4931TIP3    H214739   1.672   3.017   6.280
 4932TIP3   OH214740   6.830   3.424   0.627
 4932TIP3    H114741   6.735   3.418   0.628
 4932TIP3    H214742   6.852   3.456   0.715
 4933TIP3   OH214743   6.004   0.598   6.141
 4933TIP3    H114744   6.031   0.680   6.100
 4933TIP3    H214745   5.910   0.593   6.123
 4934TIP3   OH214746   0.494   2.597   6.353
 4934TIP3    H114747   0.555   2.557   6.415
 4934TIP3    H214748   0.450   2.523   6.312
 4935TIP3   OH214749   2.304   1.880   1.707
 4935TIP3    H114750   2.301   1.803   1.764
 4935TIP3    H214751   2.396   1.908   1.709
 4936TIP3   OH214752   1.368   4.849   1.249
 4936TIP3    H114753   1.384   4.902   1.326
 4936TIP3    H214754   1.441   4.868   1.191
 4937TIP3   OH214755   1.165   5.777   3.761
 4937TIP3    H114756   1.203   5.704   3.810
 4937TIP3    H214757   1.226   5.850   3.776
 4938TIP3   OH214758   7.085   3.414   5.639
 4938TIP3    H114759   7.111   3.428   5.730
 4938TIP3    H214760   7.085   3.502   5.601
 4939TIP3   OH214761   4.036   4.018   3.819
 4939TIP3    H114762   4.099   4.084   3.790
 4939TIP3    H214763   3.958   4.068   3.841
 4940TIP3   OH214764   7.141   0.627   5.407
 4940TIP3    H114765   7.053   0.622   5.443
 4940TIP3    H214766   7.170   0.535   5.401
 4941TIP3   OH214767   1.210   0.513   6.690
 4941TIP3    H114768   1.242   0.542   6.775
 4941TIP3    H214769   1.288   0.515   6.633
 4942TIP3   OH214770   6.147   7.196   0.485
 4942TIP3    H114771   6.064   7.244   0.479
 4942TIP3    H214772   6.173   7.204   0.577
 4943TIP3   OH214773   7.842   7.352   2.244
 4943TIP3    H114774   7.930   7.349   2.207
 4943TIP3    H214775   7.816   7.444   2.240
 4944TIP3   OH214776   5.959   7.007   0.952
 4944TIP3    H114777   6.030   7.070   0.967
 4944TIP3    H214778   5.939   7.016   0.859
 4945TIP3   OH214779   7.513   4.341   6.198
 4945TIP3    H114780   7.565   4.327   6.276
 4945TIP3    H214781   7.574   4.377   6.134
 4946TIP3   OH214782   7.779   1.293   5.389
 4946TIP3    H114783   7.684   1.286   5.399
 4946TIP3    H214784   7.812   1.305   5.478
 4947TIP3   OH214785   7.394   4.027   4.525
 4947TIP3    H114786   7.354   4.111   4.550
 4947TIP3    H214787   7.327   3.984   4.473
 4948TIP3   OH214788   4.466   5.405   1.458
 4948TIP3    H114789   4.441   5.497   1.470
 4948TIP3    H214790   4.452   5.365   1.544
 4949TIP3   OH214791   2.920   6.012   6.084
 4949TIP3    H114792   2.995   6.035   6.138
 4949TIP3    H214793   2.890   5.928   6.120
 4950TIP3   OH214794   1.751   6.862   3.433
 4950TIP3    H114795   1.845   6.853   3.423
 4950TIP3    H214796   1.739   6.942   3.484
 4951TIP3   OH214797   4.434   2.020   1.758
 4951TIP3    H114798   4.523   2.003   1.729
 4951TIP3    H214799   4.380   1.957   1.710
 4952TIP3   OH214800   4.515   5.356   1.190
 4952TIP3    H114801   4.596   5.405   1.177
 4952TIP3    H214802   4.464   5.409   1.250
 4953TIP3   OH214803   5.388   7.103   6.555
 4953TIP3    H114804   5.403   7.133   6.465
 4953TIP3    H214805   5.374   7.009   6.547
 4954TIP3   OH214806   7.453   1.864   3.456
 4954TIP3    H114807   7.464   1.811   3.535
 4954TIP3    H214808   7.533   1.851   3.406
 4955TIP3   OH214809   2.420   1.754   1.977
 4955TIP3    H114810   2.509   1.735   2.007
 4955TIP3    H214811   2.383   1.809   2.046
 4956TIP3   OH214812   3.662   2.103   0.558
 4956TIP3    H114813   3.652   2.014   0.592
 4956TIP3    H214814   3.605   2.156   0.614
 4957TIP3   OH214815   5.074   6.085   1.605
 4957TIP3    H114816   4.994   6.131   1.630
 4957TIP3    H214817   5.093   6.118   1.517
 4958TIP3   OH214818   5.067   2.156   1.227
 4958TIP3    H114819   5.129   2.139   1.298
 4958TIP3    H214820   5.059   2.251   1.225
 4959TIP3   OH214821   3.483   5.667   0.030
 4959TIP3    H114822   3.440   5.694  -0.052
 4959TIP3    H214823   3.454   5.577   0.043
 4960TIP3   OH214824   5.682   6.250   5.348
 4960TIP3    H114825   5.713   6.254   5.438
 4960TIP3    H214826   5.685   6.341   5.317
 4961TIP3   OH214827   4.754   3.526   1.677
 4961TIP3    H114828   4.812   3.461   1.638
 4961TIP3    H214829   4.813   3.596   1.706
 4962TIP3   OH214830   4.268   3.861   6.067
 4962TIP3    H114831   4.292   3.911   5.989
 4962TIP3    H214832   4.350   3.845   6.113
 4963TIP3   OH214833   6.165   3.689   4.968
 4963TIP3    H114834   6.176   3.634   5.045
 4963TIP3    H214835   6.242   3.671   4.915
 4964TIP3   OH214836   1.933   7.416   1.201
 4964TIP3    H114837   1.968   7.420   1.290
 4964TIP3    H214838   1.843   7.449   1.208
 4965TIP3   OH214839   6.630   3.944   2.873
 4965TIP3    H114840   6.663   3.983   2.953
 4965TIP3    H214841   6.669   3.856   2.872
 4966TIP3   OH214842   3.185   2.227   3.519
 4966TIP3    H114843   3.121   2.256   3.584
 4966TIP3    H214844   3.231   2.307   3.494
 4967TIP3   OH214845   4.685   0.385   3.139
 4967TIP3    H114846   4.770   0.341   3.137
 4967TIP3    H214847   4.630   0.328   3.193
 4968TIP3   OH214848   1.962   3.251   2.401
 4968TIP3    H114849   2.044   3.204   2.383
 4968TIP3    H214850   1.990   3.338   2.428
 4969TIP3   OH214851   1.892   1.466   3.133
 4969TIP3    H114852   1.841   1.536   3.174
 4969TIP3    H214853   1.887   1.393   3.194
 4970TIP3   OH214854   1.300   0.648   1.043
 4970TIP3    H114855   1.366   0.579   1.050
 4970TIP3    H214856   1.262   0.653   1.131
 4971TIP3   OH214857   6.444   4.514   5.447
 4971TIP3    H114858   6.425   4.524   5.540
 4971TIP3    H214859   6.505   4.584   5.426
 4972TIP3   OH214860   3.698   6.681   2.247
 4972TIP3    H114861   3.716   6.746   2.315
 4972TIP3    H214862   3.762   6.699   2.179
 4973TIP3   OH214863   3.937   0.737   0.550
 4973TIP3    H114864   3.960   0.825   0.582
 4973TIP3    H214865   3.997   0.722   0.477
 4974TIP3   OH214866   3.985   5.495   6.414
 4974TIP3    H114867   4.035   5.414   6.419
 4974TIP3    H214868   3.913   5.483   6.476
 4975TIP3   OH214869   3.049   5.443   5.333
 4975TIP3    H114870   3.061   5.427   5.426
 4975TIP3    H214871   3.045   5.356   5.294
 4976TIP3   OH214872   4.287   2.910   3.056
 4976TIP3    H114873   4.329   2.831   3.091
 4976TIP3    H214874   4.341   2.982   3.087
 4977TIP3   OH214875   3.071   5.741   5.823
 4977TIP3    H114876   3.016   5.732   5.901
 4977TIP3    H214877   3.010   5.728   5.750
 4978TIP3   OH214878   6.615   3.611   1.435
 4978TIP3    H114879   6.613   3.639   1.343
 4978TIP3    H214880   6.527   3.631   1.468
 4979TIP3   OH214881   7.089   6.451   1.169
 4979TIP3    H114882   7.176   6.460   1.129
 4979TIP3    H214883   7.034   6.511   1.120
 4980TIP3   OH214884   4.408   7.278   0.555
 4980TIP3    H114885   4.391   7.372   0.545
 4980TIP3    H214886   4.337   7.236   0.508
 4981TIP3   OH214887   3.929   4.741   5.860
 4981TIP3    H114888   3.853   4.776   5.814
 4981TIP3    H214889   3.920   4.646   5.852
 4982TIP3   OH214890   7.632   5.231   1.069
 4982TIP3    H114891   7.652   5.147   1.026
 4982TIP3    H214892   7.611   5.207   1.159
 4983TIP3   OH214893   0.407   4.141   5.406
 4983TIP3    H114894   0.490   4.167   5.446
 4983TIP3    H214895   0.365   4.223   5.383
 4984TIP3   OH214896   1.127   5.771   0.090
 4984TIP3    H114897   1.070   5.769   0.167
 4984TIP3    H214898   1.117   5.685   0.051
 4985TIP3   OH214899   0.352   4.228   4.178
 4985TIP3    H114900   0.276   4.170   4.178
 4985TIP3    H214901   0.317   4.314   4.152
 4986TIP3   OH214902   0.770   5.532   3.925
 4986TIP3    H114903   0.687   5.493   3.955
 4986TIP3    H214904   0.743   5.611   3.878
 4987TIP3   OH214905   7.334   0.676   6.210
 4987TIP3    H114906   7.278   0.630   6.273
 4987TIP3    H214907   7.303   0.646   6.124
 4988TIP3   OH214908   7.753   2.559   1.437
 4988TIP3    H114909   7.749   2.607   1.355
 4988TIP3    H214910   7.797   2.477   1.416
 4989TIP3   OH214911   1.746   5.232   0.848
 4989TIP3    H114912   1.774   5.141   0.856
 4989TIP3    H214913   1.803   5.280   0.908
 4990TIP3   OH214914   7.407   2.988   5.531
 4990TIP3    H114915   7.491   3.028   5.553
 4990TIP3    H214916   7.343   3.058   5.540
 4991TIP3   OH214917   1.634   0.244   4.336
 4991TIP3    H114918   1.686   0.275   4.410
 4991TIP3    H214919   1.613   0.153   4.357
 4992TIP3   OH214920   5.088   5.906   3.318
 4992TIP3    H114921   5.144   5.845   3.366
 4992TIP3    H214922   5.066   5.859   3.238
 4993TIP3   OH214923   6.005   3.108   6.517
 4993TIP3    H114924   5.970   3.067   6.437
 4993TIP3    H214925   5.936   3.167   6.545
 4994TIP3   OH214926   0.839   1.341   5.617
 4994TIP3    H114927   0.895   1.309   5.547
 4994TIP3    H214928   0.868   1.431   5.632
 4995TIP3   OH214929   0.698   2.487   4.117
 4995TIP3    H114930   0.730   2.554   4.057
 4995TIP3    H214931   0.605   2.477   4.095
 4996TIP3   OH214932   6.181   0.761   3.539
 4996TIP3    H114933   6.228   0.679   3.549
 4996TIP3    H214934   6.118   0.745   3.468
 4997TIP3   OH214935   2.291   0.586   4.139
 4997TIP3    H114936   2.373   0.634   4.150
 4997TIP3    H214937   2.228   0.635   4.192
 4998TIP3   OH214938   2.451   2.146   1.433
 4998TIP3    H114939   2.468   2.210   1.503
 4998TIP3    H214940   2.512   2.170   1.364
 4999TIP3   OH214941   5.895   4.177   4.415
 4999TIP3    H114942   5.980   4.202   4.451
 4999TIP3    H214943   5.855   4.122   4.482
 5000TIP3   OH214944   4.644   0.140   5.619
 5000TIP3    H114945   4.694   0.061   5.637
 5000TIP3    H214946   4.601   0.161   5.702
 5001TIP3   OH214947   6.767   1.101   0.602
 5001TIP3    H114948   6.811   1.126   0.683
 5001TIP3    H214949   6.837   1.072   0.544
 5002TIP3   OH214950   4.562   6.933   0.614
 5002TIP3    H114951   4.522   6.944   0.527
 5002TIP3    H214952   4.641   6.988   0.610
 5003TIP3   OH214953   8.312   0.148   2.033
 5003TIP3    H114954   8.226   0.105   2.037
 5003TIP3    H214955   8.294   0.239   2.054
 5004TIP3   OH214956   2.619   3.681   4.962
 5004TIP3    H114957   2.568   3.621   4.907
 5004TIP3    H214958   2.708   3.675   4.927
 5005TIP3   OH214959   0.163   7.768   0.080
 5005TIP3    H114960   0.178   7.801   0.168
 5005TIP3    H214961   0.121   7.840   0.034
 5006TIP3   OH214962   0.177   7.790   0.649
 5006TIP3    H114963   0.236   7.716   0.646
 5006TIP3    H214964   0.090   7.752   0.633
 5007TIP3   OH214965   1.120   3.891   4.029
 5007TIP3    H114966   1.183   3.923   4.094
 5007TIP3    H214967   1.035   3.898   4.074
 5008TIP3   OH214968   5.855   1.061   5.289
 5008TIP3    H114969   5.898   1.030   5.369
 5008TIP3    H214970   5.882   0.999   5.222
 5009TIP3   OH214971   2.608   4.769   1.981
 5009TIP3    H114972   2.577   4.687   2.021
 5009TIP3    H214973   2.588   4.836   2.046
 5010TIP3   OH214974   2.323   5.115   6.382
 5010TIP3    H114975   2.298   5.025   6.402
 5010TIP3    H214976   2.325   5.118   6.286
 5011TIP3   OH214977   4.667   3.297   5.755
 5011TIP3    H114978   4.580   3.258   5.761
 5011TIP3    H214979   4.684   3.331   5.843
 5012TIP3   OH214980   6.139   1.192   1.100
 5012TIP3    H114981   6.191   1.262   1.060
 5012TIP3    H214982   6.163   1.194   1.193
 5013TIP3   OH214983   3.920   2.250   2.318
 5013TIP3    H114984   3.925   2.159   2.349
 5013TIP3    H214985   3.840   2.284   2.357
 5014TIP3   OH214986   3.493   6.460   4.517
 5014TIP3    H114987   3.543   6.379   4.526
 5014TIP3    H214988   3.438   6.446   4.440
 5015TIP3   OH214989   3.543   5.465   5.884
 5015TIP3    H114990   3.469   5.504   5.930
 5015TIP3    H214991   3.609   5.535   5.881
 5016TIP3   OH214992   1.929   2.094   5.434
 5016TIP3    H114993   1.889   2.164   5.383
 5016TIP3    H214994   1.857   2.058   5.486
 5017TIP3   OH214995   6.038   6.037   1.914
 5017TIP3    H114996   6.026   6.107   1.849
 5017TIP3    H214997   6.016   5.957   1.866
 5018TIP3   OH214998   0.724   3.212   5.123
 5018TIP3    H114999   0.748   3.277   5.190
 5018TIP3    H215000   0.686   3.264   5.052
 5019TIP3   OH215001   7.188   1.662   1.915
 5019TIP3    H115002   7.105   1.683   1.957
 5019TIP3    H215003   7.168   1.586   1.860
 5020TIP3   OH215004   7.269   2.757   5.999
 5020TIP3    H115005   7.298   2.823   5.936
 5020TIP3    H215006   7.262   2.804   6.082
 5021TIP3   OH215007   6.435   4.037   1.643
 5021TIP3    H115008   6.522   4.064   1.671
 5021TIP3    H215009   6.412   4.097   1.572
 5022TIP3   OH215010   6.257   0.919   5.313
 5022TIP3    H115011   6.332   0.860   5.319
 5022TIP3    H215012   6.181   0.861   5.323
 5023TIP3   OH215013   3.267   2.244   6.467
 5023TIP3    H115014   3.349   2.195   6.466
 5023TIP3    H215015   3.282   2.315   6.530
 5024TIP3   OH215016   6.515   2.412   3.751
 5024TIP3    H115017   6.556   2.448   3.673
 5024TIP3    H215018   6.580   2.423   3.820
 5025TIP3   OH215019   1.997   1.955   1.836
 5025TIP3    H115020   1.937   1.893   1.793
 5025TIP3    H215021   2.052   1.988   1.765
 5026TIP3   OH215022   6.500   3.600   3.424
 5026TIP3    H115023   6.594   3.603   3.444
 5026TIP3    H215024   6.457   3.625   3.506
 5027TIP3   OH215025   2.065   4.070   3.739
 5027TIP3    H115026   2.032   3.997   3.791
 5027TIP3    H215027   2.076   4.141   3.802
 5028TIP3   OH215028   3.843   6.264   6.115
 5028TIP3    H115029   3.820   6.325   6.045
 5028TIP3    H215030   3.913   6.211   6.079
 5029TIP3   OH215031   1.116   4.765   1.225
 5029TIP3    H115032   1.209   4.785   1.239
 5029TIP3    H215033   1.088   4.826   1.157
 5030TIP3   OH215034   4.665   3.639   0.310
 5030TIP3    H115035   4.608   3.671   0.380
 5030TIP3    H215036   4.665   3.709   0.245
 5031TIP3   OH215037   4.505   3.534   2.907
 5031TIP3    H115038   4.547   3.574   2.983
 5031TIP3    H215039   4.576   3.521   2.845
 5032TIP3   OH215040   5.855   0.826   5.111
 5032TIP3    H115041   5.794   0.795   5.044
 5032TIP3    H215042   5.941   0.796   5.082
 5033TIP3   OH215043   3.447   7.205   2.873
 5033TIP3    H115044   3.452   7.109   2.874
 5033TIP3    H215045   3.354   7.224   2.883
 5034TIP3   OH215046   8.077   7.568   3.631
 5034TIP3    H115047   8.091   7.560   3.536
 5034TIP3    H215048   8.165   7.577   3.667
 5035TIP3   OH215049   0.864   4.939   3.033
 5035TIP3    H115050   0.850   4.967   2.943
 5035TIP3    H215051   0.887   5.020   3.080
 5036TIP3   OH215052   0.428   2.082   4.633
 5036TIP3    H115053   0.397   1.992   4.639
 5036TIP3    H215054   0.476   2.097   4.714
 5037TIP3   OH215055   4.405   3.830   2.789
 5037TIP3    H115056   4.482   3.802   2.838
 5037TIP3    H215057   4.367   3.901   2.841
 5038TIP3   OH215058   7.971   5.737   6.519
 5038TIP3    H115059   7.937   5.786   6.444
 5038TIP3    H215060   7.902   5.673   6.538
 5039TIP3   OH215061   1.180   3.366   1.376
 5039TIP3    H115062   1.239   3.321   1.315
 5039TIP3    H215063   1.100   3.380   1.324
 5040TIP3   OH215064   2.822   5.276   5.644
 5040TIP3    H115065   2.731   5.266   5.671
 5040TIP3    H215066   2.868   5.296   5.725
 5041TIP3   OH215067   7.918   1.223   4.289
 5041TIP3    H115068   7.965   1.147   4.254
 5041TIP3    H215069   7.845   1.185   4.339
 5042TIP3   OH215070   4.034   1.667   5.687
 5042TIP3    H115071   4.081   1.715   5.756
 5042TIP3    H215072   3.949   1.648   5.726
 5043TIP3   OH215073   5.140   7.033   0.126
 5043TIP3    H115074   5.070   7.068   0.181
 5043TIP3    H215075   5.101   6.960   0.079
 5044TIP3   OH215076   0.919   2.419   6.616
 5044TIP3    H115077   0.954   2.332   6.636
 5044TIP3    H215078   0.994   2.467   6.581
 5045TIP3   OH215079   5.199   6.850   4.683
 5045TIP3    H115080   5.251   6.923   4.649
 5045TIP3    H215081   5.262   6.780   4.699
 5046TIP3   OH215082   0.953   0.463   0.069
 5046TIP3    H115083   1.032   0.504   0.104
 5046TIP3    H215084   0.984   0.383   0.027
 5047TIP3   OH215085   0.381   4.120   0.376
 5047TIP3    H115086   0.286   4.110   0.380
 5047TIP3    H215087   0.412   4.043   0.328
 5048TIP3   OH215088   1.277   4.213   3.980
 5048TIP3    H115089   1.277   4.169   3.895
 5048TIP3    H215090   1.188   4.245   3.991
 5049TIP3   OH215091   4.884   3.350   4.205
 5049TIP3    H115092   4.902   3.353   4.299
 5049TIP3    H215093   4.967   3.371   4.164
 5050TIP3   OH215094   2.494   3.611   4.531
 5050TIP3    H115095   2.505   3.610   4.436
 5050TIP3    H215096   2.445   3.691   4.549
 5051TIP3   OH215097   5.732   5.636   2.584
 5051TIP3    H115098   5.751   5.579   2.658
 5051TIP3    H215099   5.651   5.681   2.609
 5052TIP3   OH215100   7.912   4.063   5.741
 5052TIP3    H115101   7.825   4.070   5.703
 5052TIP3    H215102   7.967   4.031   5.670
 5053TIP3   OH215103   2.771   4.141   6.032
 5053TIP3    H115104   2.843   4.105   5.980
 5053TIP3    H215105   2.778   4.235   6.022
 5054TIP3   OH215106   3.273   6.367   1.538
 5054TIP3    H115107   3.282   6.339   1.447
 5054TIP3    H215108   3.181   6.353   1.559
 5055TIP3   OH215109   5.786   4.870   3.035
 5055TIP3    H115110   5.733   4.896   3.110
 5055TIP3    H215111   5.722   4.834   2.972
 5056TIP3   OH215112   8.061   0.702   2.840
 5056TIP3    H115113   8.057   0.614   2.803
 5056TIP3    H215114   7.977   0.714   2.884
 5057TIP3   OH215115   0.928   0.546   6.718
 5057TIP3    H115116   1.023   0.547   6.731
 5057TIP3    H215117   0.914   0.603   6.643
 5058TIP3   OH215118   7.094   2.213   5.326
 5058TIP3    H115119   7.043   2.137   5.355
 5058TIP3    H215120   7.037   2.258   5.264
 5059TIP3   OH215121   1.676   7.352   6.061
 5059TIP3    H115122   1.695   7.274   6.009
 5059TIP3    H215123   1.586   7.340   6.091
 5060TIP3   OH215124   6.402   0.955   4.433
 5060TIP3    H115125   6.458   0.985   4.361
 5060TIP3    H215126   6.341   0.894   4.392
 5061TIP3   OH215127   4.950   4.868   5.726
 5061TIP3    H115128   5.012   4.930   5.688
 5061TIP3    H215129   4.864   4.903   5.704
 5062TIP3   OH215130   4.645   6.802   5.213
 5062TIP3    H115131   4.612   6.892   5.210
 5062TIP3    H215132   4.584   6.753   5.158
 5063TIP3   OH215133   5.787   6.304   3.079
 5063TIP3    H115134   5.871   6.260   3.065
 5063TIP3    H215135   5.787   6.328   3.172
 5064TIP3   OH215136   1.077   2.039   5.548
 5064TIP3    H115137   1.063   1.980   5.474
 5064TIP3    H215138   1.157   2.087   5.526
 5065TIP3   OH215139   6.428   0.322   0.019
 5065TIP3    H115140   6.347   0.368   0.038
 5065TIP3    H215141   6.496   0.375   0.060
 5066TIP3   OH215142   7.649   5.738   3.073
 5066TIP3    H115143   7.713   5.674   3.043
 5066TIP3    H215144   7.698   5.820   3.079
 5067TIP3   OH215145   2.128   2.322   6.303
 5067TIP3    H115146   2.142   2.240   6.350
 5067TIP3    H215147   2.095   2.382   6.369
 5068TIP3   OH215148   7.679   0.379   4.035
 5068TIP3    H115149   7.642   0.462   4.064
 5068TIP3    H215150   7.713   0.398   3.948
 5069TIP3   OH215151   4.408   7.436   6.453
 5069TIP3    H115152   4.485   7.490   6.469
 5069TIP3    H215153   4.441   7.359   6.408
 5070TIP3   OH215154   7.329   6.411   2.633
 5070TIP3    H115155   7.301   6.379   2.719
 5070TIP3    H215156   7.295   6.501   2.629
 5071TIP3   OH215157   0.157   2.190   5.613
 5071TIP3    H115158   0.203   2.269   5.584
 5071TIP3    H215159   0.226   2.124   5.623
 5072TIP3   OH215160   5.806   4.389   1.056
 5072TIP3    H115161   5.872   4.354   0.996
 5072TIP3    H215162   5.843   4.472   1.087
 5073TIP3   OH215163   3.258   3.144   0.632
 5073TIP3    H115164   3.191   3.154   0.700
 5073TIP3    H215165   3.340   3.167   0.675
 5074TIP3   OH215166   1.807   2.131   4.277
 5074TIP3    H115167   1.857   2.084   4.344
 5074TIP3    H215168   1.825   2.223   4.293
 5075TIP3   OH215169   2.700   5.519   4.629
 5075TIP3    H115170   2.660   5.536   4.543
 5075TIP3    H215171   2.769   5.585   4.637
 5076TIP3   OH215172   5.491   5.195   0.832
 5076TIP3    H115173   5.510   5.219   0.741
 5076TIP3    H215174   5.420   5.132   0.825
 5077TIP3   OH215175   3.424   0.729   0.991
 5077TIP3    H115176   3.491   0.673   1.030
 5077TIP3    H215177   3.451   0.818   1.013
 5078TIP3   OH215178   2.386   0.566   3.561
 5078TIP3    H115179   2.408   0.609   3.478
 5078TIP3    H215180   2.421   0.477   3.551
 5079TIP3   OH215181   3.139   0.903   1.972
 5079TIP3    H115182   3.207   0.855   1.924
 5079TIP3    H215183   3.087   0.946   1.904
 5080TIP3   OH215184   1.086   4.553   5.054
 5080TIP3    H115185   1.137   4.473   5.044
 5080TIP3    H215186   1.066   4.581   4.965
 5081TIP3   OH215187   1.241   0.464   6.155
 5081TIP3    H115188   1.221   0.477   6.063
 5081TIP3    H215189   1.334   0.484   6.163
 5082TIP3   OH215190   1.105   2.986   0.641
 5082TIP3    H115191   1.184   2.934   0.627
 5082TIP3    H215192   1.136   3.068   0.679
 5083TIP3   OH215193   5.385   5.269   5.088
 5083TIP3    H115194   5.348   5.183   5.066
 5083TIP3    H215195   5.479   5.254   5.095
 5084TIP3   OH215196   5.772   3.998   3.754
 5084TIP3    H115197   5.787   4.026   3.664
 5084TIP3    H215198   5.714   3.922   3.747
 5085TIP3   OH215199   1.032   7.086   1.092
 5085TIP3    H115200   1.000   7.123   1.174
 5085TIP3    H215201   1.126   7.074   1.107
 5086TIP3   OH215202   3.468   3.513   0.062
 5086TIP3    H115203   3.469   3.575  -0.011
 5086TIP3    H215204   3.539   3.452   0.043
 5087TIP3   OH215205   8.108   6.476   6.425
 5087TIP3    H115206   8.148   6.519   6.501
 5087TIP3    H215207   8.170   6.408   6.400
 5088TIP3   OH215208   1.126   7.522   2.815
 5088TIP3    H115209   1.054   7.522   2.752
 5088TIP3    H215210   1.108   7.595   2.873
 5089TIP3   OH215211   4.281   6.399   1.734
 5089TIP3    H115212   4.253   6.316   1.694
 5089TIP3    H215213   4.210   6.422   1.793
 5090TIP3   OH215214   1.627   0.210   0.751
 5090TIP3    H115215   1.661   0.178   0.668
 5090TIP3    H215216   1.590   0.296   0.730
 5091TIP3   OH215217   3.380   7.597   1.555
 5091TIP3    H115218   3.287   7.597   1.578
 5091TIP3    H215219   3.406   7.506   1.564
 5092TIP3   OH215220   4.963   0.790   0.309
 5092TIP3    H115221   5.028   0.857   0.332
 5092TIP3    H215222   4.888   0.810   0.365
 5093TIP3   OH215223   0.413   5.296   0.952
 5093TIP3    H115224   0.318   5.294   0.954
 5093TIP3    H215225   0.439   5.310   1.043
 5094TIP3   OH215226   0.654   2.642   0.788
 5094TIP3    H115227   0.574   2.690   0.765
 5094TIP3    H215228   0.627   2.579   0.854
 5095TIP3   OH215229   5.028   1.314   0.518
 5095TIP3    H115230   5.117   1.341   0.542
 5095TIP3    H215231   4.991   1.282   0.601
 5096TIP3   OH215232   8.096   7.444   2.113
 5096TIP3    H115233   8.082   7.518   2.054
 5096TIP3    H215234   8.150   7.480   2.184
 5097TIP3   OH215235   2.769   6.761   6.205
 5097TIP3    H115236   2.678   6.756   6.177
 5097TIP3    H215237   2.792   6.671   6.229
 5098TIP3   OH215238   4.914   6.339   5.437
 5098TIP3    H115239   4.922   6.431   5.414
 5098TIP3    H215240   4.824   6.316   5.412
 5099TIP3   OH215241   7.492   1.740   4.484
 5099TIP3    H115242   7.439   1.671   4.524
 5099TIP3    H215243   7.560   1.759   4.548
 5100TIP3   OH215244   0.622   3.021   0.165
 5100TIP3    H115245   0.682   3.054   0.232
 5100TIP3    H215246   0.554   2.975   0.214
 5101TIP3   OH215247   2.867   5.716   3.303
 5101TIP3    H115248   2.916   5.786   3.261
 5101TIP3    H215249   2.932   5.669   3.355
 5102TIP3   OH215250   3.005   3.561   2.850
 5102TIP3    H115251   3.045   3.605   2.925
 5102TIP3    H215252   2.935   3.508   2.888
 5103TIP3   OH215253   5.448   2.861   5.195
 5103TIP3    H115254   5.444   2.770   5.225
 5103TIP3    H215255   5.373   2.903   5.237
 5104TIP3   OH215256   6.089   7.124   5.598
 5104TIP3    H115257   6.084   7.205   5.548
 5104TIP3    H215258   6.025   7.066   5.557
 5105TIP3   OH215259   0.702   2.460   6.438
 5105TIP3    H115260   0.747   2.485   6.357
 5105TIP3    H215261   0.772   2.443   6.500
 5106TIP3   OH215262   1.887   5.235   1.310
 5106TIP3    H115263   1.881   5.249   1.404
 5106TIP3    H215264   1.813   5.178   1.290
 5107TIP3   OH215265   0.556   4.064   0.717
 5107TIP3    H115266   0.561   3.970   0.700
 5107TIP3    H215267   0.467   4.078   0.749
 5108TIP3   OH215268   2.553   5.480   0.927
 5108TIP3    H115269   2.503   5.511   0.851
 5108TIP3    H215270   2.644   5.483   0.897
 5109TIP3   OH215271   3.410   4.319   3.943
 5109TIP3    H115272   3.392   4.390   4.005
 5109TIP3    H215273   3.428   4.364   3.860
 5110TIP3   OH215274   6.568   3.088   2.791
 5110TIP3    H115275   6.484   3.123   2.760
 5110TIP3    H215276   6.568   3.107   2.885
 5111TIP3   OH215277   0.943   6.936   2.782
 5111TIP3    H115278   0.930   6.879   2.858
 5111TIP3    H215279   0.911   6.885   2.708
 5112TIP3   OH215280   0.700   5.287   0.455
 5112TIP3    H115281   0.689   5.197   0.487
 5112TIP3    H215282   0.740   5.334   0.528
 5113TIP3   OH215283   7.964   2.460   2.799
 5113TIP3    H115284   7.883   2.423   2.834
 5113TIP3    H215285   7.948   2.554   2.798
 5114TIP3   OH215286   7.908   0.815   1.109
 5114TIP3    H115287   7.846   0.885   1.089
 5114TIP3    H215288   7.967   0.813   1.033
 5115TIP3   OH215289   7.386   1.410   3.051
 5115TIP3    H115290   7.361   1.385   3.140
 5115TIP3    H215291   7.468   1.362   3.034
 5116TIP3   OH215292   2.301   1.859   4.082
 5116TIP3    H115293   2.333   1.851   4.172
 5116TIP3    H215294   2.380   1.854   4.028
 5117TIP3   OH215295   8.252   2.459   1.185
 5117TIP3    H115296   8.221   2.386   1.131
 5117TIP3    H215297   8.173   2.501   1.218
 5118TIP3   OH215298   0.579   4.037   2.149
 5118TIP3    H115299   0.605   4.105   2.086
 5118TIP3    H215300   0.636   4.052   2.224
 5119TIP3   OH215301   1.462   4.150   5.159
 5119TIP3    H115302   1.484   4.174   5.069
 5119TIP3    H215303   1.428   4.230   5.198
 5120TIP3   OH215304   0.785   0.851   5.740
 5120TIP3    H115305   0.864   0.901   5.721
 5120TIP3    H215306   0.757   0.817   5.655
 5121TIP3   OH215307   3.845   7.082   3.389
 5121TIP3    H115308   3.837   7.061   3.296
 5121TIP3    H215309   3.905   7.157   3.392
 5122TIP3   OH215310   4.986   5.837   3.895
 5122TIP3    H115311   5.081   5.847   3.893
 5122TIP3    H215312   4.969   5.784   3.973
 5123TIP3   OH215313   3.432   7.035   4.522
 5123TIP3    H115314   3.479   6.956   4.549
 5123TIP3    H215315   3.416   7.082   4.604
 5124TIP3   OH215316   6.345   0.826   1.281
 5124TIP3    H115317   6.431   0.788   1.263
 5124TIP3    H215318   6.319   0.787   1.365
 5125TIP3   OH215319   4.520   2.895   1.163
 5125TIP3    H115320   4.599   2.844   1.143
 5125TIP3    H215321   4.534   2.927   1.252
 5126TIP3   OH215322   3.584   0.010   2.582
 5126TIP3    H115323   3.671   0.048   2.581
 5126TIP3    H215324   3.548   0.030   2.495
 5127TIP3   OH215325   3.024   1.543   0.941
 5127TIP3    H115326   2.973   1.501   0.872
 5127TIP3    H215327   3.059   1.471   0.993
 5128TIP3   OH215328   7.094   7.408   6.025
 5128TIP3    H115329   7.183   7.426   6.056
 5128TIP3    H215330   7.090   7.312   6.020
 5129TIP3   OH215331   5.333   2.434   4.576
 5129TIP3    H115332   5.369   2.417   4.663
 5129TIP3    H215333   5.298   2.349   4.548
 5130TIP3   OH215334   0.852   5.711   5.113
 5130TIP3    H115335   0.863   5.749   5.026
 5130TIP3    H215336   0.758   5.695   5.120
 5131TIP3   OH215337   3.647   1.288   2.905
 5131TIP3    H115338   3.676   1.379   2.905
 5131TIP3    H215339   3.724   1.239   2.875
 5132TIP3   OH215340   0.678   4.647   5.539
 5132TIP3    H115341   0.727   4.564   5.534
 5132TIP3    H215342   0.744   4.715   5.526
 5133TIP3   OH215343   7.365   4.716   5.629
 5133TIP3    H115344   7.315   4.777   5.575
 5133TIP3    H215345   7.434   4.685   5.571
 5134TIP3   OH215346   3.758   5.572   1.566
 5134TIP3    H115347   3.680   5.528   1.532
 5134TIP3    H215348   3.825   5.556   1.500
 5135TIP3   OH215349   4.586   3.881   4.335
 5135TIP3    H115350   4.600   3.946   4.403
 5135TIP3    H215351   4.619   3.799   4.372
 5136TIP3   OH215352   6.946   1.394   0.371
 5136TIP3    H115353   6.937   1.480   0.332
 5136TIP3    H215354   7.021   1.402   0.430
 5137TIP3   OH215355   6.978   6.592   4.323
 5137TIP3    H115356   7.024   6.538   4.259
 5137TIP3    H215357   6.998   6.682   4.297
 5138TIP3   OH215358   5.625   3.668   3.076
 5138TIP3    H115359   5.604   3.736   3.012
 5138TIP3    H215360   5.565   3.685   3.149
 5139TIP3   OH215361   5.913   1.758   4.743
 5139TIP3    H115362   5.821   1.757   4.772
 5139TIP3    H215363   5.930   1.850   4.722
 5140TIP3   OH215364   3.767   5.645   5.910
 5140TIP3    H115365   3.841   5.682   5.958
 5140TIP3    H215366   3.766   5.692   5.827
 5141TIP3   OH215367   5.502   3.321   4.810
 5141TIP3    H115368   5.460   3.303   4.726
 5141TIP3    H215369   5.468   3.253   4.869
 5142TIP3   OH215370   6.691   6.430   6.207
 5142TIP3    H115371   6.716   6.517   6.177
 5142TIP3    H215372   6.596   6.433   6.214
 5143TIP3   OH215373   1.232   4.673   5.245
 5143TIP3    H115374   1.139   4.687   5.267
 5143TIP3    H215375   1.233   4.666   5.150
 5144TIP3   OH215376   1.871   6.540   1.606
 5144TIP3    H115377   1.819   6.500   1.536
 5144TIP3    H215378   1.901   6.466   1.659
 5145TIP3   OH215379   0.861   3.105   0.648
 5145TIP3    H115380   0.947   3.070   0.625
 5145TIP3    H215381   0.822   3.039   0.704
 5146TIP3   OH215382   7.689   3.040   6.294
 5146TIP3    H115383   7.615   3.101   6.298
 5146TIP3    H215384   7.742   3.071   6.221
 5147TIP3   OH215385   2.612   2.971   3.523
 5147TIP3    H115386   2.562   2.950   3.445
 5147TIP3    H215387   2.609   3.066   3.530
 5148TIP3   OH215388   0.520   3.467   1.735
 5148TIP3    H115389   0.475   3.544   1.769
 5148TIP3    H215390   0.592   3.501   1.683
 5149TIP3   OH215391   3.068   7.393   0.624
 5149TIP3    H115392   3.104   7.318   0.672
 5149TIP3    H215393   3.081   7.372   0.532
 5150TIP3   OH215394   7.554   7.664   2.639
 5150TIP3    H115395   7.642   7.630   2.620
 5150TIP3    H215396   7.497   7.619   2.577
 5151TIP3   OH215397   8.220   4.029   3.262
 5151TIP3    H115398   8.241   4.101   3.203
 5151TIP3    H215399   8.203   4.071   3.346
 5152TIP3   OH215400   6.119   3.547   3.697
 5152TIP3    H115401   6.120   3.493   3.618
 5152TIP3    H215402   6.125   3.484   3.769
 5153TIP3   OH215403   1.941   6.375   3.506
 5153TIP3    H115404   2.025   6.330   3.512
 5153TIP3    H215405   1.941   6.437   3.579
 5154TIP3   OH215406   3.384   3.151   2.894
 5154TIP3    H115407   3.350   3.095   2.964
 5154TIP3    H215408   3.455   3.099   2.855
 5155TIP3   OH215409   5.063   2.104   3.102
 5155TIP3    H115410   5.105   2.076   3.021
 5155TIP3    H215411   5.032   2.023   3.142
 5156TIP3   OH215412   5.094   5.610   3.024
 5156TIP3    H115413   5.001   5.617   3.044
 5156TIP3    H215414   5.125   5.700   3.020
 5157TIP3   OH215415   7.446   7.785   5.520
 5157TIP3    H115416   7.375   7.776   5.456
 5157TIP3    H215417   7.450   7.700   5.563
 5158TIP3   OH215418   2.153   7.019   6.125
 5158TIP3    H115419   2.220   7.059   6.070
 5158TIP3    H215420   2.194   6.938   6.157
 5159TIP3   OH215421   1.576   4.579   1.563
 5159TIP3    H115422   1.645   4.633   1.526
 5159TIP3    H215423   1.610   4.551   1.647
 5160TIP3   OH215424   0.504   1.950   3.461
 5160TIP3    H115425   0.563   1.965   3.535
 5160TIP3    H215426   0.562   1.944   3.385
 5161TIP3   OH215427   1.570   5.751   1.578
 5161TIP3    H115428   1.595   5.834   1.539
 5161TIP3    H215429   1.571   5.689   1.505
 5162TIP3   OH215430   1.297   2.463   0.423
 5162TIP3    H115431   1.241   2.386   0.417
 5162TIP3    H215432   1.258   2.516   0.492
 5163TIP3   OH215433   1.936   5.394   0.953
 5163TIP3    H115434   2.024   5.419   0.923
 5163TIP3    H215435   1.889   5.477   0.963
 5164TIP3   OH215436   5.586   0.299   6.124
 5164TIP3    H115437   5.599   0.209   6.154
 5164TIP3    H215438   5.492   0.312   6.124
 5165TIP3   OH215439   0.502   1.573   6.014
 5165TIP3    H115440   0.516   1.571   5.919
 5165TIP3    H215441   0.495   1.666   6.035
 5166TIP3   OH215442   6.008   0.951   6.378
 5166TIP3    H115443   5.920   0.934   6.413
 5166TIP3    H215444   5.992   0.998   6.296
 5167TIP3   OH215445   7.817   1.695   3.797
 5167TIP3    H115446   7.815   1.779   3.751
 5167TIP3    H215447   7.896   1.698   3.851
 5168TIP3   OH215448   1.134   4.311   5.541
 5168TIP3    H115449   1.207   4.259   5.506
 5168TIP3    H215450   1.175   4.393   5.570
 5169TIP3   OH215451   0.703   3.654   1.949
 5169TIP3    H115452   0.766   3.624   2.015
 5169TIP3    H215453   0.749   3.642   1.866
 5170TIP3   OH215454   1.594   1.897   4.712
 5170TIP3    H115455   1.539   1.964   4.672
 5170TIP3    H215456   1.586   1.821   4.654
 5171TIP3   OH215457   0.847   5.356   6.267
 5171TIP3    H115458   0.825   5.292   6.199
 5171TIP3    H215459   0.871   5.435   6.219
 5172TIP3   OH215460   4.925   5.233   3.349
 5172TIP3    H115461   4.835   5.220   3.380
 5172TIP3    H215462   4.970   5.151   3.369
 5173TIP3   OH215463   4.427   3.863   4.882
 5173TIP3    H115464   4.477   3.943   4.897
 5173TIP3    H215465   4.491   3.792   4.893
 5174TIP3   OH215466   2.110   2.141   1.650
 5174TIP3    H115467   2.178   2.079   1.626
 5174TIP3    H215468   2.066   2.163   1.567
 5175TIP3   OH215469   1.123   7.866   4.115
 5175TIP3    H115470   1.174   7.861   4.196
 5175TIP3    H215471   1.126   7.778   4.079
 5176TIP3   OH215472   4.872   3.914   1.402
 5176TIP3    H115473   4.851   3.995   1.356
 5176TIP3    H215474   4.967   3.915   1.410
 5177TIP3   OH215475   1.079   0.259   6.266
 5177TIP3    H115476   1.155   0.204   6.287
 5177TIP3    H215477   1.115   0.329   6.211
 5178TIP3   OH215478   0.318   3.098   5.205
 5178TIP3    H115479   0.339   3.150   5.128
 5178TIP3    H215480   0.222   3.100   5.211
 5179TIP3   OH215481   1.087   2.935   2.355
 5179TIP3    H115482   1.033   2.856   2.348
 5179TIP3    H215483   1.112   2.956   2.265
 5180TIP3   OH215484   7.778   6.253   2.600
 5180TIP3    H115485   7.823   6.176   2.635
 5180TIP3    H215486   7.822   6.327   2.640
 5181TIP3   OH215487  -0.018   2.212   2.795
 5181TIP3    H115488  -0.041   2.296   2.757
 5181TIP3    H215489   0.066   2.227   2.839
 5182TIP3   OH215490   1.814   1.018   6.236
 5182TIP3    H115491   1.774   1.006   6.150
 5182TIP3    H215492   1.786   0.941   6.286
 5183TIP3   OH215493   4.104   3.792   6.697
 5183TIP3    H115494   4.083   3.751   6.612
 5183TIP3    H215495   4.184   3.842   6.680
 5184TIP3   OH215496   4.833   4.401   6.098
 5184TIP3    H115497   4.872   4.456   6.030
 5184TIP3    H215498   4.831   4.313   6.059
 5185TIP3   OH215499   2.673   2.119   1.010
 5185TIP3    H115500   2.662   2.172   0.931
 5185TIP3    H215501   2.726   2.045   0.982
 5186TIP3   OH215502   4.505   3.534   1.172
 5186TIP3    H115503   4.560   3.480   1.115
 5186TIP3    H215504   4.558   3.547   1.251
 5187TIP3   OH215505   5.767   0.394   2.003
 5187TIP3    H115506   5.785   0.342   1.925
 5187TIP3    H215507   5.679   0.430   1.988
 5188TIP3   OH215508   7.811   5.593   5.888
 5188TIP3    H115509   7.897   5.634   5.891
 5188TIP3    H215510   7.829   5.499   5.883
 5189TIP3   OH215511   5.555   1.193   0.863
 5189TIP3    H115512   5.512   1.147   0.935
 5189TIP3    H215513   5.646   1.201   0.890
 5190TIP3   OH215514   7.653   1.391   2.517
 5190TIP3    H115515   7.635   1.460   2.581
 5190TIP3    H215516   7.749   1.386   2.515
 5191TIP3   OH215517   3.979   5.805   1.305
 5191TIP3    H115518   3.971   5.791   1.211
 5191TIP3    H215519   3.979   5.717   1.343
 5192TIP3   OH215520   3.949   7.670   3.370
 5192TIP3    H115521   3.885   7.718   3.317
 5192TIP3    H215522   3.938   7.578   3.344
 5193TIP3   OH215523   4.741   4.275   3.840
 5193TIP3    H115524   4.706   4.206   3.784
 5193TIP3    H215525   4.835   4.276   3.822
 5194TIP3   OH215526   4.362   6.834   0.153
 5194TIP3    H115527   4.432   6.837   0.087
 5194TIP3    H215528   4.289   6.791   0.108
 5195TIP3   OH215529   6.565   3.635   1.883
 5195TIP3    H115530   6.505   3.585   1.938
 5195TIP3    H215531   6.522   3.640   1.797
 5196TIP3   OH215532   3.904   3.600   2.659
 5196TIP3    H115533   3.943   3.620   2.574
 5196TIP3    H215534   3.898   3.504   2.661
 5197TIP3   OH215535   7.898   2.494   4.832
 5197TIP3    H115536   7.921   2.533   4.916
 5197TIP3    H215537   7.845   2.417   4.855
 5198TIP3   OH215538   1.230   1.949   4.684
 5198TIP3    H115539   1.222   1.914   4.595
 5198TIP3    H215540   1.266   2.037   4.672
 5199TIP3   OH215541   4.446   4.969   6.245
 5199TIP3    H115542   4.492   4.924   6.174
 5199TIP3    H215543   4.516   5.007   6.298
 5200TIP3   OH215544   4.499   6.620   6.653
 5200TIP3    H115545   4.499   6.551   6.586
 5200TIP3    H215546   4.455   6.694   6.611
 5201TIP3   OH215547   1.101   0.042   4.342
 5201TIP3    H115548   1.065   0.105   4.405
 5201TIP3    H215549   1.113  -0.038   4.393
 5202TIP3   OH215550   6.255   0.989   1.931
 5202TIP3    H115551   6.347   0.964   1.943
 5202TIP3    H215552   6.259   1.071   1.883
 5203TIP3   OH215553   1.159   1.132   3.986
 5203TIP3    H115554   1.152   1.156   3.894
 5203TIP3    H215555   1.182   1.039   3.985
 5204TIP3   OH215556   1.592   2.637   3.470
 5204TIP3    H115557   1.538   2.620   3.393
 5204TIP3    H215558   1.641   2.556   3.483
 5205TIP3   OH215559   5.279   1.943   3.543
 5205TIP3    H115560   5.322   1.954   3.458
 5205TIP3    H215561   5.213   2.013   3.545
 5206TIP3   OH215562   7.442   6.039   3.337
 5206TIP3    H115563   7.501   6.056   3.410
 5206TIP3    H215564   7.479   6.089   3.264
 5207TIP3   OH215565   0.415   1.567   5.408
 5207TIP3    H115566   0.400   1.553   5.314
 5207TIP3    H215567   0.502   1.530   5.424
 5208TIP3   OH215568   8.128   2.177   1.720
 5208TIP3    H115569   8.179   2.258   1.725
 5208TIP3    H215570   8.175   2.115   1.777
 5209TIP3   OH215571   3.954   6.226   2.930
 5209TIP3    H115572   3.959   6.181   2.846
 5209TIP3    H215573   3.932   6.316   2.908
 5210TIP3   OH215574   6.018   5.945   5.782
 5210TIP3    H115575   6.009   5.866   5.730
 5210TIP3    H215576   6.103   5.981   5.759
 5211TIP3   OH215577   6.500   6.916   3.394
 5211TIP3    H115578   6.466   6.985   3.451
 5211TIP3    H215579   6.432   6.848   3.397
 5212TIP3   OH215580   0.194   0.130   4.695
 5212TIP3    H115581   0.198   0.167   4.607
 5212TIP3    H215582   0.176   0.204   4.752
 5213TIP3   OH215583   5.110   3.433   2.249
 5213TIP3    H115584   5.157   3.373   2.191
 5213TIP3    H215585   5.176   3.495   2.278
 5214TIP3   OH215586   6.407   1.532   5.619
 5214TIP3    H115587   6.378   1.499   5.704
 5214TIP3    H215588   6.502   1.542   5.629
 5215TIP3   OH215589   4.547   3.726   0.575
 5215TIP3    H115590   4.474   3.755   0.629
 5215TIP3    H215591   4.566   3.638   0.607
 5216TIP3   OH215592   7.393   5.263   0.585
 5216TIP3    H115593   7.460   5.309   0.535
 5216TIP3    H215594   7.438   5.186   0.621
 5217TIP3   OH215595   8.136   6.485   0.133
 5217TIP3    H115596   8.144   6.423   0.061
 5217TIP3    H215597   8.214   6.540   0.127
 5218TIP3   OH215598   7.410   4.609   3.683
 5218TIP3    H115599   7.389   4.553   3.757
 5218TIP3    H215600   7.464   4.679   3.721
 5219TIP3   OH215601   4.183   7.702   2.850
 5219TIP3    H115602   4.142   7.638   2.909
 5219TIP3    H215603   4.157   7.787   2.886
 5220TIP3   OH215604   5.565   3.125   1.026
 5220TIP3    H115605   5.562   3.215   1.058
 5220TIP3    H215606   5.510   3.125   0.947
 5221TIP3   OH215607   7.275   1.091   0.284
 5221TIP3    H115608   7.299   1.135   0.202
 5221TIP3    H215609   7.266   1.162   0.348
 5222TIP3   OH215610   6.307   1.326   2.994
 5222TIP3    H115611   6.345   1.414   2.997
 5222TIP3    H215612   6.224   1.334   3.042
 5223TIP3   OH215613   0.411   3.480   5.727
 5223TIP3    H115614   0.392   3.396   5.770
 5223TIP3    H215615   0.395   3.546   5.795
 5224TIP3   OH215616   0.373   6.147   2.650
 5224TIP3    H115617   0.341   6.157   2.560
 5224TIP3    H215618   0.408   6.058   2.653
 5225TIP3   OH215619   6.874   7.448   4.072
 5225TIP3    H115620   6.811   7.468   4.140
 5225TIP3    H215621   6.959   7.446   4.116
 5226TIP3   OH215622   1.771   1.310   1.054
 5226TIP3    H115623   1.858   1.297   1.091
 5226TIP3    H215624   1.755   1.232   1.001
 5227TIP3   OH215625   4.451   5.905   4.329
 5227TIP3    H115626   4.468   5.999   4.335
 5227TIP3    H215627   4.534   5.868   4.298
 5228TIP3   OH215628   2.196   4.882   1.191
 5228TIP3    H115629   2.102   4.877   1.173
 5228TIP3    H215630   2.215   4.976   1.193
 5229TIP3   OH215631   2.662   6.435   3.290
 5229TIP3    H115632   2.662   6.443   3.194
 5229TIP3    H215633   2.650   6.341   3.305
 5230TIP3   OH215634   2.169   5.532   1.631
 5230TIP3    H115635   2.235   5.599   1.649
 5230TIP3    H215636   2.104   5.575   1.576
 5231TIP3   OH215637   5.612   1.045   2.893
 5231TIP3    H115638   5.589   1.119   2.837
 5231TIP3    H215639   5.679   0.997   2.844
 5232TIP3   OH215640   2.703   6.937   4.795
 5232TIP3    H115641   2.738   7.010   4.845
 5232TIP3    H215642   2.702   6.968   4.704
 5233TIP3   OH215643   6.639   2.218   0.431
 5233TIP3    H115644   6.694   2.153   0.472
 5233TIP3    H215645   6.607   2.176   0.351
 5234TIP3   OH215646   4.351   5.836  -0.005
 5234TIP3    H115647   4.301   5.763   0.030
 5234TIP3    H215648   4.289   5.909  -0.009
 5235TIP3   OH215649   1.472   1.224   5.777
 5235TIP3    H115650   1.415   1.194   5.848
 5235TIP3    H215651   1.442   1.174   5.701
 5236TIP3   OH215652   3.013   1.460   6.270
 5236TIP3    H115653   3.037   1.545   6.308
 5236TIP3    H215654   3.005   1.478   6.176
 5237TIP3   OH215655   1.148   1.450   6.216
 5237TIP3    H115656   1.073   1.505   6.238
 5237TIP3    H215657   1.109   1.365   6.193
 5238TIP3   OH215658   2.863   1.155   5.826
 5238TIP3    H115659   2.835   1.068   5.799
 5238TIP3    H215660   2.840   1.213   5.753
 5239TIP3   OH215661   7.396   5.225   6.549
 5239TIP3    H115662   7.312   5.180   6.562
 5239TIP3    H215663   7.373   5.318   6.546
 5240TIP3   OH215664   2.746   6.775   2.563
 5240TIP3    H115665   2.673   6.805   2.509
 5240TIP3    H215666   2.805   6.732   2.502
 5241TIP3   OH215667   2.544   4.065   3.224
 5241TIP3    H115668   2.616   4.048   3.163
 5241TIP3    H215669   2.530   3.982   3.268
 5242TIP3   OH215670   2.137   2.646   5.809
 5242TIP3    H115671   2.094   2.629   5.725
 5242TIP3    H215672   2.184   2.728   5.796
 5243TIP3   OH215673   4.519   0.351   0.304
 5243TIP3    H115674   4.454   0.286   0.278
 5243TIP3    H215675   4.559   0.314   0.383
 5244TIP3   OH215676   7.224   1.851   2.695
 5244TIP3    H115677   7.190   1.905   2.766
 5244TIP3    H215678   7.315   1.834   2.720
 5245TIP3   OH215679   4.458   7.726   2.725
 5245TIP3    H115680   4.531   7.748   2.666
 5245TIP3    H215681   4.412   7.808   2.738
 5246TIP3   OH215682   1.753   3.169   2.530
 5246TIP3    H115683   1.709   3.105   2.475
 5246TIP3    H215684   1.822   3.206   2.475
 5247TIP3   OH215685   7.625   4.482   6.457
 5247TIP3    H115686   7.586   4.402   6.492
 5247TIP3    H215687   7.598   4.551   6.518
 5248TIP3   OH215688   1.714   0.801   3.306
 5248TIP3    H115689   1.796   0.775   3.266
 5248TIP3    H215690   1.694   0.731   3.368
 5249TIP3   OH215691   6.535   4.608   0.627
 5249TIP3    H115692   6.464   4.603   0.562
 5249TIP3    H215693   6.491   4.599   0.711
 5250TIP3   OH215694   2.609   0.494   4.804
 5250TIP3    H115695   2.680   0.430   4.798
 5250TIP3    H215696   2.544   0.464   4.741
 5251TIP3   OH215697   5.853   4.375   4.209
 5251TIP3    H115698   5.781   4.323   4.173
 5251TIP3    H215699   5.878   4.329   4.290
 5252TIP3   OH215700   6.940   5.988   3.386
 5252TIP3    H115701   6.848   6.007   3.371
 5252TIP3    H215702   6.980   5.990   3.299
 5253TIP3   OH215703   0.402   1.388   1.828
 5253TIP3    H115704   0.340   1.435   1.884
 5253TIP3    H215705   0.377   1.412   1.739
 5254TIP3   OH215706   3.957   0.158   2.798
 5254TIP3    H115707   4.041   0.112   2.796
 5254TIP3    H215708   3.977   0.247   2.767
 5255TIP3   OH215709   5.727   3.128   2.710
 5255TIP3    H115710   5.761   3.075   2.782
 5255TIP3    H215711   5.757   3.217   2.729
 5256TIP3   OH215712   4.074   3.079   0.866
 5256TIP3    H115713   4.060   3.158   0.814
 5256TIP3    H215714   4.168   3.081   0.887
 5257TIP3   OH215715   1.522   5.850   6.089
 5257TIP3    H115716   1.439   5.823   6.050
 5257TIP3    H215717   1.508   5.844   6.184
 5258TIP3   OH215718   6.174   3.515   2.314
 5258TIP3    H115719   6.100   3.514   2.375
 5258TIP3    H215720   6.136   3.543   2.231
 5259TIP3   OH215721   8.225   2.829   0.177
 5259TIP3    H115722   8.310   2.804   0.213
 5259TIP3    H215723   8.231   2.806   0.084
 5260TIP3   OH215724   5.284   4.303   6.659
 5260TIP3    H115725   5.249   4.386   6.628
 5260TIP3    H215726   5.276   4.244   6.584
 5261TIP3   OH215727   4.075   5.506   2.123
 5261TIP3    H115728   4.162   5.483   2.090
 5261TIP3    H215729   4.027   5.423   2.124
 5262TIP3   OH215730   5.769   6.072   5.618
 5262TIP3    H115731   5.675   6.079   5.601
 5262TIP3    H215732   5.775   6.021   5.699
 5263TIP3   OH215733   1.963   5.950   0.265
 5263TIP3    H115734   1.963   5.930   0.172
 5263TIP3    H215735   1.995   5.869   0.307
 5264TIP3   OH215736   3.020   0.556   4.980
 5264TIP3    H115737   3.109   0.582   4.956
 5264TIP3    H215738   3.007   0.593   5.068
 5265TIP3   OH215739   4.179   6.893   5.857
 5265TIP3    H115740   4.201   6.815   5.907
 5265TIP3    H215741   4.131   6.860   5.781
 5266TIP3   OH215742   5.592   3.319   5.975
 5266TIP3    H115743   5.630   3.308   6.062
 5266TIP3    H215744   5.620   3.407   5.948
 5267TIP3   OH215745   2.822   7.525   5.537
 5267TIP3    H115746   2.802   7.451   5.480
 5267TIP3    H215747   2.808   7.490   5.626
 5268TIP3   OH215748   7.988   6.326   5.183
 5268TIP3    H115749   8.018   6.286   5.264
 5268TIP3    H215750   7.915   6.382   5.209
 5269TIP3   OH215751   0.822   0.061   1.280
 5269TIP3    H115752   0.861  -0.026   1.268
 5269TIP3    H215753   0.748   0.062   1.220
 5270TIP3   OH215754   2.795   5.156   5.923
 5270TIP3    H115755   2.828   5.096   5.989
 5270TIP3    H215756   2.710   5.185   5.957
 5271TIP3   OH215757   6.392   0.614   4.041
 5271TIP3    H115758   6.425   0.645   4.126
 5271TIP3    H215759   6.306   0.576   4.061
 5272TIP3   OH215760   7.676   3.521   3.645
 5272TIP3    H115761   7.712   3.501   3.559
 5272TIP3    H215762   7.651   3.436   3.681
 5273TIP3   OH215763   3.392   0.340   0.797
 5273TIP3    H115764   3.342   0.418   0.821
 5273TIP3    H215765   3.338   0.267   0.825
 5274TIP3   OH215766   6.276   4.924   2.614
 5274TIP3    H115767   6.260   4.937   2.707
 5274TIP3    H215768   6.266   5.011   2.575
 5275TIP3   OH215769   7.482   5.398   5.226
 5275TIP3    H115770   7.467   5.424   5.317
 5275TIP3    H215771   7.462   5.476   5.174
 5276TIP3   OH215772   3.304   6.320   0.198
 5276TIP3    H115773   3.360   6.297   0.124
 5276TIP3    H215774   3.354   6.294   0.275
 5277TIP3   OH215775   4.969   0.846   6.036
 5277TIP3    H115776   5.028   0.898   6.090
 5277TIP3    H215777   5.024   0.776   6.000
 5278TIP3   OH215778   5.934   0.157   2.826
 5278TIP3    H115779   5.956   0.161   2.920
 5278TIP3    H215780   5.878   0.233   2.812
 5279TIP3   OH215781   1.717   7.659   5.537
 5279TIP3    H115782   1.809   7.669   5.559
 5279TIP3    H215783   1.707   7.567   5.516
 5280TIP3   OH215784   6.058   6.624   1.269
 5280TIP3    H115785   6.115   6.700   1.281
 5280TIP3    H215786   6.070   6.598   1.178
 5281TIP3   OH215787   6.369   6.106   0.727
 5281TIP3    H115788   6.284   6.103   0.682
 5281TIP3    H215789   6.408   6.188   0.697
 5282TIP3   OH215790   7.019   4.981   6.746
 5282TIP3    H115791   7.080   5.012   6.813
 5282TIP3    H215792   7.064   4.996   6.663
 5283TIP3   OH215793   1.116   1.762   2.723
 5283TIP3    H115794   1.116   1.667   2.729
 5283TIP3    H215795   1.180   1.782   2.654
 5284TIP3   OH215796   0.939   5.290   3.622
 5284TIP3    H115797   0.852   5.260   3.651
 5284TIP3    H215798   0.985   5.310   3.704
 5285TIP3   OH215799   6.359   7.002   0.348
 5285TIP3    H115800   6.403   7.065   0.291
 5285TIP3    H215801   6.376   6.917   0.308
 5286TIP3   OH215802   1.088   0.807   5.821
 5286TIP3    H115803   1.081   0.882   5.763
 5286TIP3    H215804   1.063   0.732   5.766
 5287TIP3   OH215805   4.464   6.574   0.816
 5287TIP3    H115806   4.480   6.484   0.843
 5287TIP3    H215807   4.469   6.571   0.720
 5288TIP3   OH215808   2.327   6.407   4.670
 5288TIP3    H115809   2.243   6.444   4.641
 5288TIP3    H215810   2.305   6.356   4.748
 5289TIP3   OH215811   4.248   7.588   2.565
 5289TIP3    H115812   4.189   7.647   2.518
 5289TIP3    H215813   4.296   7.646   2.625
 5290TIP3   OH215814   2.490   2.913   3.281
 5290TIP3    H115815   2.560   2.855   3.248
 5290TIP3    H215816   2.409   2.872   3.249
 5291TIP3   OH215817   0.271   3.208   4.097
 5291TIP3    H115818   0.367   3.206   4.092
 5291TIP3    H215819   0.246   3.286   4.048
 5292TIP3   OH215820   0.528   1.197   0.067
 5292TIP3    H115821   0.468   1.236   0.130
 5292TIP3    H215822   0.492   1.220  -0.019
 5293TIP3   OH215823   6.443   6.701   6.445
 5293TIP3    H115824   6.362   6.651   6.438
 5293TIP3    H215825   6.484   6.670   6.526
 5294TIP3   OH215826   4.795   1.252   5.646
 5294TIP3    H115827   4.772   1.172   5.599
 5294TIP3    H215828   4.714   1.280   5.688
 5295TIP3   OH215829   2.056   7.127   4.923
 5295TIP3    H115830   2.113   7.137   4.999
 5295TIP3    H215831   2.100   7.175   4.853
 5296TIP3   OH215832   1.619   6.433   3.941
 5296TIP3    H115833   1.686   6.364   3.942
 5296TIP3    H215834   1.666   6.512   3.967
 5297TIP3   OH215835   4.448   6.846   4.886
 5297TIP3    H115836   4.523   6.793   4.860
 5297TIP3    H215837   4.376   6.783   4.894
 5298TIP3   OH215838   2.615   1.285   0.588
 5298TIP3    H115839   2.632   1.191   0.583
 5298TIP3    H215840   2.538   1.293   0.645
 5299TIP3   OH215841   4.352   2.694   3.325
 5299TIP3    H115842   4.344   2.677   3.419
 5299TIP3    H215843   4.445   2.708   3.311
 5300TIP3   OH215844   4.692   5.310   6.309
 5300TIP3    H115845   4.667   5.219   6.293
 5300TIP3    H215846   4.780   5.319   6.273
 5301TIP3   OH215847   5.573   1.755   4.417
 5301TIP3    H115848   5.505   1.687   4.424
 5301TIP3    H215849   5.525   1.837   4.427
 5302TIP3   OH215850   4.749   3.089   4.894
 5302TIP3    H115851   4.832   3.091   4.941
 5302TIP3    H215852   4.683   3.069   4.961
 5303TIP3   OH215853   5.615   6.180   1.864
 5303TIP3    H115854   5.579   6.251   1.917
 5303TIP3    H215855   5.687   6.220   1.815
 5304TIP3   OH215856   1.668   4.060   1.174
 5304TIP3    H115857   1.747   4.057   1.120
 5304TIP3    H215858   1.598   4.084   1.114
 5305TIP3   OH215859   0.634   7.242   3.550
 5305TIP3    H115860   0.714   7.218   3.502
 5305TIP3    H215861   0.663   7.311   3.610
 5306TIP3   OH215862   4.366   6.012   3.828
 5306TIP3    H115863   4.356   5.947   3.896
 5306TIP3    H215864   4.393   6.092   3.875
 5307TIP3   OH215865   0.352   2.008   5.655
 5307TIP3    H115866   0.442   1.989   5.630
 5307TIP3    H215867   0.332   1.945   5.724
 5308TIP3   OH215868   1.899   1.357   6.028
 5308TIP3    H115869   1.875   1.418   5.959
 5308TIP3    H215870   1.844   1.281   6.013
 5309TIP3   OH215871   5.035   1.323   2.213
 5309TIP3    H115872   5.105   1.362   2.161
 5309TIP3    H215873   5.078   1.292   2.293
 5310TIP3   OH215874   1.647   5.260   4.783
 5310TIP3    H115875   1.687   5.255   4.869
 5310TIP3    H215876   1.721   5.264   4.722
 5311TIP3   OH215877   0.884   1.571   6.491
 5311TIP3    H115878   0.841   1.572   6.405
 5311TIP3    H215879   0.958   1.630   6.481
 5312TIP3   OH215880   0.556   6.819   5.117
 5312TIP3    H115881   0.583   6.739   5.162
 5312TIP3    H215882   0.629   6.880   5.129
 5313TIP3   OH215883   2.968   1.057   2.844
 5313TIP3    H115884   2.919   0.987   2.887
 5313TIP3    H215885   3.042   1.012   2.802
 5314TIP3   OH215886   3.057   0.464   4.056
 5314TIP3    H115887   3.063   0.559   4.043
 5314TIP3    H215888   2.964   0.448   4.073
 5315TIP3   OH215889   4.379   7.452   6.753
 5315TIP3    H115890   4.431   7.457   6.672
 5315TIP3    H215891   4.381   7.359   6.776
 5316TIP3   OH215892   5.599   6.241   5.803
 5316TIP3    H115893   5.685   6.282   5.791
 5316TIP3    H215894   5.578   6.206   5.716
 5317TIP3   OH215895   0.676   4.519   2.997
 5317TIP3    H115896   0.663   4.438   3.045
 5317TIP3    H215897   0.685   4.492   2.906
 5318TIP3   OH215898   6.022   7.001   2.304
 5318TIP3    H115899   5.950   7.029   2.361
 5318TIP3    H215900   5.984   6.998   2.217
 5319TIP3   OH215901   6.681   6.225  -0.024
 5319TIP3    H115902   6.741   6.151  -0.016
 5319TIP3    H215903   6.688   6.270   0.060
 5320TIP3   OH215904   5.635   3.390   2.271
 5320TIP3    H115905   5.624   3.395   2.366
 5320TIP3    H215906   5.728   3.372   2.259
 5321TIP3   OH215907   5.670   2.001   2.173
 5321TIP3    H115908   5.732   1.977   2.242
 5321TIP3    H215909   5.679   2.095   2.164
 5322TIP3   OH215910   0.580   6.715   5.611
 5322TIP3    H115911   0.620   6.678   5.533
 5322TIP3    H215912   0.617   6.665   5.683
 5323TIP3   OH215913   0.611   1.753   5.736
 5323TIP3    H115914   0.659   1.797   5.806
 5323TIP3    H215915   0.637   1.799   5.656
 5324TIP3   OH215916   2.593   3.241   4.356
 5324TIP3    H115917   2.647   3.265   4.431
 5324TIP3    H215918   2.505   3.271   4.380
 5325TIP3   OH215919   7.388   7.411   3.028
 5325TIP3    H115920   7.481   7.418   3.046
 5325TIP3    H215921   7.373   7.465   2.951
 5326TIP3   OH215922   0.676   1.564   2.940
 5326TIP3    H115923   0.633   1.597   3.019
 5326TIP3    H215924   0.720   1.484   2.968
 5327TIP3   OH215925   7.772   4.984   0.191
 5327TIP3    H115926   7.753   4.911   0.250
 5327TIP3    H215927   7.866   4.978   0.174
 5328TIP3   OH215928   5.536   5.936   6.274
 5328TIP3    H115929   5.511   6.014   6.323
 5328TIP3    H215930   5.565   5.968   6.189
 5329TIP3   OH215931   6.411   5.802   2.237
 5329TIP3    H115932   6.316   5.789   2.232
 5329TIP3    H215933   6.435   5.844   2.155
 5330TIP3   OH215934   6.680   1.393   5.435
 5330TIP3    H115935   6.605   1.375   5.493
 5330TIP3    H215936   6.756   1.389   5.492
 5331TIP3   OH215937   2.504   4.269   3.430
 5331TIP3    H115938   2.548   4.346   3.395
 5331TIP3    H215939   2.529   4.198   3.371
 5332TIP3   OH215940   2.812   6.761   6.484
 5332TIP3    H115941   2.813   6.787   6.392
 5332TIP3    H215942   2.903   6.740   6.503
 5333TIP3   OH215943   8.000   3.359   0.217
 5333TIP3    H115944   8.009   3.387   0.126
 5333TIP3    H215945   8.079   3.307   0.234
 5334TIP3   OH215946   7.368   0.053   2.193
 5334TIP3    H115947   7.452   0.060   2.240
 5334TIP3    H215948   7.327   0.138   2.206
 5335TIP3   OH215949   0.834   5.400   1.293
 5335TIP3    H115950   0.813   5.381   1.384
 5335TIP3    H215951   0.919   5.444   1.296
 5336TIP3   OH215952   5.724   5.747   0.324
 5336TIP3    H115953   5.697   5.679   0.386
 5336TIP3    H215954   5.810   5.775   0.355
 5337TIP3   OH215955   2.755   7.500   5.071
 5337TIP3    H115956   2.809   7.562   5.021
 5337TIP3    H215957   2.818   7.452   5.126
 5338TIP3   OH215958   6.445   6.676   4.543
 5338TIP3    H115959   6.480   6.667   4.455
 5338TIP3    H215960   6.390   6.598   4.555
 5339TIP3   OH215961   5.119   0.454   1.298
 5339TIP3    H115962   5.209   0.425   1.312
 5339TIP3    H215963   5.073   0.430   1.379
 5340TIP3   OH215964   7.212   1.656   4.784
 5340TIP3    H115965   7.191   1.669   4.876
 5340TIP3    H215966   7.131   1.678   4.737
 5341TIP3   OH215967   2.774   7.226   4.236
 5341TIP3    H115968   2.823   7.165   4.290
 5341TIP3    H215969   2.840   7.290   4.207
 5342TIP3   OH215970   4.305   6.656   3.284
 5342TIP3    H115971   4.346   6.736   3.249
 5342TIP3    H215972   4.379   6.601   3.310
 5343TIP3   OH215973   6.753   7.458   4.733
 5343TIP3    H115974   6.771   7.412   4.815
 5343TIP3    H215975   6.662   7.436   4.713
 5344TIP3   OH215976   0.881   6.049   2.729
 5344TIP3    H115977   0.950   5.991   2.763
 5344TIP3    H215978   0.845   6.091   2.807
 5345TIP3   OH215979   1.682   1.986   5.902
 5345TIP3    H115980   1.738   1.924   5.950
 5345TIP3    H215981   1.594   1.949   5.910
 5346TIP3   OH215982   2.337   5.618   0.372
 5346TIP3    H115983   2.314   5.587   0.460
 5346TIP3    H215984   2.411   5.563   0.347
 5347TIP3   OH215985   1.678   5.725   4.303
 5347TIP3    H115986   1.622   5.669   4.251
 5347TIP3    H215987   1.767   5.697   4.282
 5348TIP3   OH215988   1.639   3.846   1.498
 5348TIP3    H115989   1.716   3.885   1.456
 5348TIP3    H215990   1.670   3.762   1.532
 5349TIP3   OH215991   7.715   4.744   4.127
 5349TIP3    H115992   7.763   4.688   4.066
 5349TIP3    H215993   7.725   4.833   4.092
 5350TIP3   OH215994   0.227   3.460   1.197
 5350TIP3    H115995   0.171   3.389   1.167
 5350TIP3    H215996   0.186   3.491   1.278
 5351TIP3   OH215997   7.054   5.763   5.528
 5351TIP3    H115998   7.006   5.844   5.549
 5351TIP3    H215999   7.127   5.762   5.589
 5352TIP3   OH216000   4.799   2.562   4.485
 5352TIP3    H116001   4.810   2.547   4.579
 5352TIP3    H216002   4.704   2.573   4.474
 5353TIP3   OH216003   7.532   7.513   6.720
 5353TIP3    H116004   7.624   7.491   6.712
 5353TIP3    H216005   7.531   7.609   6.730
 5354TIP3   OH216006   8.188   4.386   4.836
 5354TIP3    H116007   8.183   4.291   4.843
 5354TIP3    H216008   8.096   4.414   4.828
 5355TIP3   OH216009   3.940   7.717   1.356
 5355TIP3    H116010   3.943   7.787   1.420
 5355TIP3    H216011   3.890   7.752   1.283
 5356TIP3   OH216012   3.889   5.530   0.117
 5356TIP3    H116013   3.818   5.491   0.169
 5356TIP3    H216014   3.959   5.465   0.118
 5357TIP3   OH216015   1.474   5.270   3.045
 5357TIP3    H116016   1.501   5.200   3.104
 5357TIP3    H216017   1.498   5.240   2.958
 5358TIP3   OH216018   4.148   2.909   1.253
 5358TIP3    H116019   4.144   3.002   1.231
 5358TIP3    H216020   4.127   2.864   1.172
 5359TIP3   OH216021   3.677   0.499   4.551
 5359TIP3    H116022   3.657   0.552   4.474
 5359TIP3    H216023   3.643   0.413   4.530
 5360TIP3   OH216024   6.016   6.446   6.493
 5360TIP3    H116025   5.957   6.501   6.546
 5360TIP3    H216026   5.965   6.423   6.416
 5361TIP3   OH216027   1.727   1.853   4.989
 5361TIP3    H116028   1.735   1.948   4.985
 5361TIP3    H216029   1.673   1.830   4.913
 5362TIP3   OH216030   7.886   1.057   1.640
 5362TIP3    H116031   7.801   1.096   1.621
 5362TIP3    H216032   7.949   1.127   1.618
 5363TIP3   OH216033   0.659   3.953   5.662
 5363TIP3    H116034   0.713   3.964   5.584
 5363TIP3    H216035   0.678   3.865   5.693
 5364TIP3   OH216036   5.523   0.638   0.432
 5364TIP3    H116037   5.539   0.726   0.468
 5364TIP3    H216038   5.429   0.638   0.413
 5365TIP3   OH216039   3.185   2.949   2.503
 5365TIP3    H116040   3.183   2.860   2.468
 5365TIP3    H216041   3.269   2.955   2.549
 5366TIP3   OH216042   2.926   5.794   1.063
 5366TIP3    H116043   2.878   5.717   1.092
 5366TIP3    H216044   2.882   5.868   1.105
 5367TIP3   OH216045   5.972   6.823   6.300
 5367TIP3    H116046   6.000   6.812   6.209
 5367TIP3    H216047   5.886   6.782   6.304
 5368TIP3   OH216048   5.129   3.414   4.705
 5368TIP3    H116049   5.182   3.353   4.653
 5368TIP3    H216050   5.186   3.437   4.779
 5369TIP3   OH216051   5.093   4.660   0.246
 5369TIP3    H116052   5.130   4.593   0.190
 5369TIP3    H216053   5.008   4.680   0.207
 5370TIP3   OH216054   0.393   7.374   4.355
 5370TIP3    H116055   0.327   7.386   4.423
 5370TIP3    H216056   0.401   7.459   4.313
 5371TIP3   OH216057   4.206   4.190   5.421
 5371TIP3    H116058   4.289   4.170   5.464
 5371TIP3    H216059   4.211   4.145   5.337
 5372TIP3   OH216060   7.910   7.212   5.583
 5372TIP3    H116061   7.853   7.288   5.568
 5372TIP3    H216062   7.888   7.182   5.671
 5373TIP3   OH216063   3.840   4.208   6.332
 5373TIP3    H116064   3.826   4.198   6.427
 5373TIP3    H216065   3.783   4.142   6.293
 5374TIP3   OH216066   1.637   1.189   1.912
 5374TIP3    H116067   1.632   1.145   1.827
 5374TIP3    H216068   1.632   1.282   1.891
 5375TIP3   OH216069   1.663   4.867   2.764
 5375TIP3    H116070   1.737   4.922   2.790
 5375TIP3    H216071   1.668   4.864   2.668
 5376TIP3   OH216072   7.400   3.441   4.445
 5376TIP3    H116073   7.330   3.492   4.487
 5376TIP3    H216074   7.360   3.408   4.364
 5377TIP3   OH216075   3.363   7.026   6.198
 5377TIP3    H116076   3.320   7.029   6.112
 5377TIP3    H216077   3.436   7.087   6.190
 5378TIP3   OH216078   3.980   7.526   6.444
 5378TIP3    H116079   4.056   7.500   6.391
 5378TIP3    H216080   3.946   7.444   6.480
 5379TIP3   OH216081   0.298   3.313   5.050
 5379TIP3    H116082   0.278   3.358   4.968
 5379TIP3    H216083   0.219   3.323   5.104
 5380TIP3   OH216084   7.941   3.315   5.838
 5380TIP3    H116085   8.000   3.391   5.836
 5380TIP3    H216086   7.856   3.351   5.860
 5381TIP3   OH216087   1.026   7.606   2.516
 5381TIP3    H116088   0.973   7.601   2.436
 5381TIP3    H216089   1.028   7.699   2.539
 5382TIP3   OH216090   6.598   4.963   4.709
 5382TIP3    H116091   6.641   5.009   4.782
 5382TIP3    H216092   6.670   4.938   4.651
 5383TIP3   OH216093   3.330   4.599   4.502
 5383TIP3    H116094   3.420   4.626   4.517
 5383TIP3    H216095   3.336   4.510   4.467
 5384TIP3   OH216096   4.287   2.628   6.335
 5384TIP3    H116097   4.211   2.572   6.318
 5384TIP3    H216098   4.315   2.657   6.249
 5385TIP3   OH216099   1.508   1.589   1.410
 5385TIP3    H116100   1.541   1.622   1.493
 5385TIP3    H216101   1.586   1.587   1.353
 5386TIP3   OH216102   7.224   2.193   0.230
 5386TIP3    H116103   7.284   2.125   0.261
 5386TIP3    H216104   7.268   2.229   0.152
 5387TIP3   OH216105   2.686   2.726   3.231
 5387TIP3    H116106   2.659   2.645   3.189
 5387TIP3    H216107   2.703   2.701   3.322
 5388TIP3   OH216108   0.208   7.499   6.302
 5388TIP3    H116109   0.112   7.506   6.301
 5388TIP3    H216110   0.227   7.421   6.249
 5389TIP3   OH216111   3.884   0.533   4.018
 5389TIP3    H116112   3.843   0.597   3.959
 5389TIP3    H216113   3.939   0.586   4.076
 5390TIP3   OH216114   8.246   2.833   1.315
 5390TIP3    H116115   8.223   2.822   1.223
 5390TIP3    H216116   8.165   2.818   1.363
 5391TIP3   OH216117   6.388   0.043   3.473
 5391TIP3    H116118   6.356   0.031   3.384
 5391TIP3    H216119   6.462   0.103   3.464
 5392TIP3   OH216120   5.110   0.443   3.226
 5392TIP3    H116121   5.143   0.522   3.270
 5392TIP3    H216122   5.186   0.385   3.220
 5393TIP3   OH216123   3.095   0.137   3.827
 5393TIP3    H116124   3.153   0.202   3.866
 5393TIP3    H216125   3.012   0.147   3.874
 5394TIP3   OH216126   5.257   5.505   0.599
 5394TIP3    H116127   5.184   5.459   0.558
 5394TIP3    H216128   5.332   5.486   0.542
 5395TIP3   OH216129   5.614   3.417   4.056
 5395TIP3    H116130   5.705   3.443   4.069
 5395TIP3    H216131   5.611   3.384   3.966
 5396TIP3   OH216132   2.496   5.931   5.590
 5396TIP3    H116133   2.470   5.871   5.520
 5396TIP3    H216134   2.420   5.935   5.648
 5397TIP3   OH216135   6.413   6.364   0.235
 5397TIP3    H116136   6.505   6.355   0.214
 5397TIP3    H216137   6.374   6.406   0.157
 5398TIP3   OH216138   4.869   0.956   3.347
 5398TIP3    H116139   4.805   0.888   3.323
 5398TIP3    H216140   4.949   0.928   3.303
 5399TIP3   OH216141   3.200   1.826   5.203
 5399TIP3    H116142   3.184   1.820   5.298
 5399TIP3    H216143   3.113   1.822   5.164
 5400TIP3   OH216144   3.305   4.345   1.650
 5400TIP3    H116145   3.326   4.414   1.588
 5400TIP3    H216146   3.244   4.386   1.712
 5401TIP3   OH216147   6.894   6.160   1.601
 5401TIP3    H116148   6.977   6.136   1.644
 5401TIP3    H216149   6.902   6.254   1.585
 5402TIP3   OH216150   3.919   7.409   6.756
 5402TIP3    H116151   3.937   7.503   6.743
 5402TIP3    H216152   3.988   7.365   6.707
 5403TIP3   OH216153   7.369   7.383   3.478
 5403TIP3    H116154   7.420   7.304   3.461
 5403TIP3    H216155   7.292   7.352   3.525
 5404TIP3   OH216156   0.588   2.398   1.628
 5404TIP3    H116157   0.498   2.389   1.659
 5404TIP3    H216158   0.614   2.486   1.657
 5405TIP3   OH216159   1.075   0.685   1.537
 5405TIP3    H116160   1.135   0.660   1.607
 5405TIP3    H216161   1.028   0.761   1.571
 5406TIP3   OH216162   3.715   2.501   5.377
 5406TIP3    H116163   3.730   2.528   5.287
 5406TIP3    H216164   3.654   2.427   5.370
 5407TIP3   OH216165   0.904   7.519   6.472
 5407TIP3    H116166   0.903   7.433   6.514
 5407TIP3    H216167   0.993   7.529   6.439
 5408TIP3   OH216168   5.927   3.507   3.285
 5408TIP3    H116169   5.840   3.482   3.315
 5408TIP3    H216170   5.912   3.583   3.229
 5409TIP3   OH216171   0.837   4.738   0.798
 5409TIP3    H116172   0.852   4.831   0.816
 5409TIP3    H216173   0.833   4.732   0.703
 5410TIP3   OH216174   7.031   5.942   0.100
 5410TIP3    H116175   7.079   5.999   0.160
 5410TIP3    H216176   6.940   5.951   0.125
 5411TIP3   OH216177   4.065   0.736   1.258
 5411TIP3    H116178   4.088   0.827   1.276
 5411TIP3    H216179   3.972   0.740   1.234
 5412TIP3   OH216180   4.833   2.545   4.066
 5412TIP3    H116181   4.863   2.508   3.983
 5412TIP3    H216182   4.811   2.636   4.044
 5413TIP3   OH216183   3.006   2.446   2.722
 5413TIP3    H116184   2.987   2.374   2.782
 5413TIP3    H216185   3.098   2.468   2.739
 5414TIP3   OH216186   2.741   5.871   5.548
 5414TIP3    H116187   2.744   5.925   5.470
 5414TIP3    H216188   2.648   5.868   5.572
 5415TIP3   OH216189   1.560   2.726   2.655
 5415TIP3    H116190   1.611   2.749   2.733
 5415TIP3    H216191   1.507   2.652   2.682
 5416TIP3   OH216192   7.944   6.478   3.817
 5416TIP3    H116193   7.869   6.451   3.764
 5416TIP3    H216194   8.019   6.432   3.779
 5417TIP3   OH216195   2.320   4.027   5.264
 5417TIP3    H116196   2.349   3.956   5.207
 5417TIP3    H216197   2.229   4.004   5.286
 5418TIP3   OH216198   1.268   7.075   5.244
 5418TIP3    H116199   1.344   7.131   5.229
 5418TIP3    H216200   1.209   7.128   5.297
 5419TIP3   OH216201   4.243   4.724   2.584
 5419TIP3    H116202   4.224   4.718   2.678
 5419TIP3    H216203   4.270   4.815   2.572
 5420TIP3   OH216204   2.743   3.210   3.534
 5420TIP3    H116205   2.796   3.288   3.548
 5420TIP3    H216206   2.768   3.180   3.446
 5421TIP3   OH216207   7.359   7.383   4.462
 5421TIP3    H116208   7.362   7.466   4.509
 5421TIP3    H216209   7.328   7.406   4.374
 5422TIP3   OH216210   0.653   5.419   5.291
 5422TIP3    H116211   0.589   5.362   5.334
 5422TIP3    H216212   0.660   5.385   5.202
 5423TIP3   OH216213   1.246   7.636   5.993
 5423TIP3    H116214   1.331   7.597   5.972
 5423TIP3    H216215   1.267   7.723   6.026
 5424TIP3   OH216216   6.444   3.638   0.687
 5424TIP3    H116217   6.479   3.613   0.602
 5424TIP3    H216218   6.353   3.610   0.686
 5425TIP3   OH216219   4.940   4.406   4.509
 5425TIP3    H116220   4.971   4.478   4.453
 5425TIP3    H216221   4.845   4.419   4.514
 5426TIP3   OH216222   1.935   5.815   5.591
 5426TIP3    H116223   1.969   5.816   5.680
 5426TIP3    H216224   2.004   5.857   5.539
 5427TIP3   OH216225   8.112   1.423   4.090
 5427TIP3    H116226   8.203   1.441   4.113
 5427TIP3    H216227   8.117   1.378   4.005
 5428TIP3   OH216228   2.656   6.174   3.341
 5428TIP3    H116229   2.751   6.178   3.328
 5428TIP3    H216230   2.644   6.105   3.406
 5429TIP3   OH216231   1.282   3.110   0.386
 5429TIP3    H116232   1.324   3.036   0.430
 5429TIP3    H216233   1.315   3.187   0.432
 5430TIP3   OH216234   1.431   2.691   2.413
 5430TIP3    H116235   1.481   2.716   2.491
 5430TIP3    H216236   1.350   2.653   2.448
 5431TIP3   OH216237   0.605   5.901   2.136
 5431TIP3    H116238   0.563   5.901   2.222
 5431TIP3    H216239   0.597   5.811   2.105
 5432TIP3   OH216240   0.382   5.925   4.666
 5432TIP3    H116241   0.378   5.951   4.573
 5432TIP3    H216242   0.297   5.952   4.701
 5433TIP3   OH216243   0.747   0.945   2.090
 5433TIP3    H116244   0.807   0.894   2.036
 5433TIP3    H216245   0.755   0.905   2.177
 5434TIP3   OH216246   1.577   2.766   4.883
 5434TIP3    H116247   1.594   2.849   4.928
 5434TIP3    H216248   1.560   2.703   4.953
 5435TIP3   OH216249   4.886   5.392   4.641
 5435TIP3    H116250   4.816   5.330   4.658
 5435TIP3    H216251   4.966   5.346   4.668
 5436TIP3   OH216252   1.851   4.101   2.057
 5436TIP3    H116253   1.784   4.169   2.068
 5436TIP3    H216254   1.934   4.147   2.070
 5437TIP3   OH216255   6.636   1.310   6.183
 5437TIP3    H116256   6.558   1.255   6.176
 5437TIP3    H216257   6.671   1.290   6.270
 5438TIP3   OH216258   0.635   6.566   0.855
 5438TIP3    H116259   0.585   6.514   0.793
 5438TIP3    H216260   0.575   6.633   0.885
 5439TIP3   OH216261   7.242   0.213   4.941
 5439TIP3    H116262   7.164   0.202   4.887
 5439TIP3    H216263   7.218   0.280   5.005
 5440TIP3   OH216264   7.060   3.599   5.381
 5440TIP3    H116265   6.982   3.653   5.367
 5440TIP3    H216266   7.058   3.533   5.312
 5441TIP3   OH216267   1.932   3.583   0.023
 5441TIP3    H116268   1.943   3.488   0.017
 5441TIP3    H216269   2.000   3.611   0.084
 5442TIP3   OH216270   3.579   0.286   3.634
 5442TIP3    H116271   3.618   0.235   3.704
 5442TIP3    H216272   3.485   0.276   3.646
 5443TIP3   OH216273   7.561   0.485   5.590
 5443TIP3    H116274   7.489   0.458   5.646
 5443TIP3    H216275   7.616   0.407   5.582
 5444TIP3   OH216276   7.654   2.907   0.190
 5444TIP3    H116277   7.575   2.854   0.187
 5444TIP3    H216278   7.631   2.981   0.246
 5445TIP3   OH216279   6.216   2.695   1.987
 5445TIP3    H116280   6.274   2.649   2.048
 5445TIP3    H216281   6.220   2.644   1.906
 5446TIP3   OH216282   6.109   3.211   0.519
 5446TIP3    H116283   6.032   3.263   0.539
 5446TIP3    H216284   6.112   3.144   0.589
 5447TIP3   OH216285   4.148   5.838   5.632
 5447TIP3    H116286   4.225   5.786   5.654
 5447TIP3    H216287   4.178   5.901   5.567
 5448TIP3   OH216288   7.633   4.842   5.751
 5448TIP3    H116289   7.629   4.936   5.735
 5448TIP3    H216290   7.713   4.830   5.803
 5449TIP3   OH216291   2.310   0.917   3.172
 5449TIP3    H116292   2.261   0.859   3.115
 5449TIP3    H216293   2.261   0.918   3.254
 5450TIP3   OH216294   7.639   6.576   0.025
 5450TIP3    H116295   7.664   6.513  -0.043
 5450TIP3    H216296   7.721   6.617   0.052
 5451TIP3   OH216297   7.484   5.231   2.209
 5451TIP3    H116298   7.521   5.239   2.297
 5451TIP3    H216299   7.392   5.255   2.219
 5452TIP3   OH216300   7.933   4.138   4.665
 5452TIP3    H116301   7.882   4.216   4.643
 5452TIP3    H216302   7.897   4.069   4.609
 5453TIP3   OH216303   0.291   7.519   2.286
 5453TIP3    H116304   0.252   7.438   2.320
 5453TIP3    H216305   0.305   7.502   2.193
 5454TIP3   OH216306   3.433   7.075   0.155
 5454TIP3    H116307   3.418   7.165   0.181
 5454TIP3    H216308   3.528   7.064   0.158
 5455TIP3   OH216309   3.692   0.615   4.809
 5455TIP3    H116310   3.625   0.578   4.867
 5455TIP3    H216311   3.694   0.554   4.735
 5456TIP3   OH216312   2.177   7.118   0.590
 5456TIP3    H116313   2.102   7.136   0.647
 5456TIP3    H216314   2.167   7.025   0.567
 5457TIP3   OH216315   2.481   4.792   1.733
 5457TIP3    H116316   2.524   4.784   1.818
 5457TIP3    H216317   2.518   4.720   1.681
 5458TIP3   OH216318   0.368   7.034   3.202
 5458TIP3    H116319   0.430   7.053   3.132
 5458TIP3    H216320   0.336   6.946   3.183
 5459TIP3   OH216321   1.421   7.124   2.330
 5459TIP3    H116322   1.368   7.168   2.397
 5459TIP3    H216323   1.358   7.096   2.263
 5460TIP3   OH216324   6.880   3.013   6.464
 5460TIP3    H116325   6.975   3.014   6.473
 5460TIP3    H216326   6.852   3.101   6.493
 5461TIP3   OH216327   3.227   2.216   2.866
 5461TIP3    H116328   3.207   2.220   2.960
 5461TIP3    H216329   3.319   2.243   2.860
 5462TIP3   OH216330   0.533   6.706   6.207
 5462TIP3    H116331   0.505   6.615   6.209
 5462TIP3    H216332   0.453   6.756   6.223
 5463TIP3   OH216333   4.157   0.798   3.227
 5463TIP3    H116334   4.110   0.743   3.289
 5463TIP3    H216335   4.240   0.817   3.271
 5464TIP3   OH216336   7.611   2.573   0.072
 5464TIP3    H116337   7.585   2.484   0.095
 5464TIP3    H216338   7.551   2.629   0.120
 5465TIP3   OH216339   6.797   2.374   5.653
 5465TIP3    H116340   6.755   2.409   5.731
 5465TIP3    H216341   6.890   2.389   5.667
 5466TIP3   OH216342   1.056   5.648   5.275
 5466TIP3    H116343   0.980   5.664   5.218
 5466TIP3    H216344   1.107   5.728   5.270
 5467TIP3   OH216345   0.636   4.764   1.162
 5467TIP3    H116346   0.665   4.726   1.245
 5467TIP3    H216347   0.658   4.697   1.097
 5468TIP3   OH216348   0.211   4.389   1.198
 5468TIP3    H116349   0.185   4.307   1.240
 5468TIP3    H216350   0.143   4.405   1.133
 5469TIP3   OH216351   0.584   5.715   3.500
 5469TIP3    H116352   0.599   5.680   3.588
 5469TIP3    H216353   0.611   5.806   3.505
 5470TIP3   OH216354   5.690   2.858   2.365
 5470TIP3    H116355   5.755   2.789   2.353
 5470TIP3    H216356   5.658   2.845   2.455
 5471TIP3   OH216357   2.322   5.232   4.712
 5471TIP3    H116358   2.397   5.235   4.771
 5471TIP3    H216359   2.283   5.146   4.727
 5472TIP3   OH216360   7.712   5.458   2.733
 5472TIP3    H116361   7.703   5.368   2.766
 5472TIP3    H216362   7.622   5.491   2.731
 5473TIP3   OH216363   5.354   6.224   6.699
 5473TIP3    H116364   5.448   6.207   6.703
 5473TIP3    H216365   5.313   6.139   6.719
 5474TIP3   OH216366   6.905   3.207   5.716
 5474TIP3    H116367   6.858   3.255   5.784
 5474TIP3    H216368   6.969   3.269   5.681
 5475TIP3   OH216369   6.470   4.133   6.528
 5475TIP3    H116370   6.464   4.221   6.565
 5475TIP3    H216371   6.553   4.133   6.480
 5476TIP3   OH216372   4.641   6.328   6.499
 5476TIP3    H116373   4.678   6.289   6.419
 5476TIP3    H216374   4.590   6.403   6.468
 5477TIP3   OH216375   4.410   4.944   1.228
 5477TIP3    H116376   4.461   5.010   1.182
 5477TIP3    H216377   4.347   4.994   1.281
 5478TIP3   OH216378   0.036   5.385   0.012
 5478TIP3    H116379   0.031   5.301   0.059
 5478TIP3    H216380  -0.028   5.441   0.055
 5479TIP3   OH216381   4.704   5.200   4.689
 5479TIP3    H116382   4.731   5.109   4.676
 5479TIP3    H216383   4.638   5.216   4.621
 5480TIP3   OH216384   0.977   0.040   1.809
 5480TIP3    H116385   0.954   0.133   1.812
 5480TIP3    H216386   1.072   0.038   1.820
 5481TIP3   OH216387   3.793   4.130   3.826
 5481TIP3    H116388   3.751   4.201   3.778
 5481TIP3    H216389   3.750   4.130   3.911
 5482TIP3   OH216390   3.420   4.212   4.786
 5482TIP3    H116391   3.427   4.180   4.876
 5482TIP3    H216392   3.349   4.277   4.789
 5483TIP3   OH216393   4.843   5.716   3.133
 5483TIP3    H116394   4.753   5.746   3.147
 5483TIP3    H216395   4.856   5.649   3.199
 5484TIP3   OH216396   4.755   0.570   3.517
 5484TIP3    H116397   4.850   0.572   3.502
 5484TIP3    H216398   4.744   0.615   3.601
 5485TIP3   OH216399   5.922   5.764   2.433
 5485TIP3    H116400   5.937   5.836   2.495
 5485TIP3    H216401   5.869   5.701   2.482
 5486TIP3   OH216402   4.849   4.699   0.126
 5486TIP3    H116403   4.826   4.755   0.051
 5486TIP3    H216404   4.854   4.759   0.200
 5487TIP3   OH216405   0.935   3.530   5.768
 5487TIP3    H116406   0.971   3.560   5.685
 5487TIP3    H216407   0.851   3.491   5.746
 5488TIP3   OH216408   5.079   7.601   1.783
 5488TIP3    H116409   5.077   7.528   1.720
 5488TIP3    H216410   5.123   7.564   1.860
 5489TIP3   OH216411   1.097   6.769   1.470
 5489TIP3    H116412   1.184   6.788   1.436
 5489TIP3    H216413   1.073   6.685   1.431
 5490TIP3   OH216414   2.859   5.305   1.193
 5490TIP3    H116415   2.877   5.214   1.215
 5490TIP3    H216416   2.877   5.311   1.099
 5491TIP3   OH216417   5.997   6.815   3.679
 5491TIP3    H116418   6.028   6.724   3.682
 5491TIP3    H216419   5.918   6.815   3.733
 5492TIP3   OH216420   6.478   7.120   0.121
 5492TIP3    H116421   6.454   7.208   0.091
 5492TIP3    H216422   6.484   7.068   0.041
 5493TIP3   OH216423   7.393   3.617   0.033
 5493TIP3    H116424   7.347   3.701   0.030
 5493TIP3    H216425   7.472   3.630  -0.020
 5494TIP3   OH216426   0.268   2.588   1.581
 5494TIP3    H116427   0.206   2.658   1.601
 5494TIP3    H216428   0.294   2.554   1.667
 5495TIP3   OH216429   7.211   5.748   3.556
 5495TIP3    H116430   7.185   5.663   3.522
 5495TIP3    H216431   7.292   5.769   3.510
 5496TIP3   OH216432   0.230   6.914   6.251
 5496TIP3    H116433   0.324   6.930   6.261
 5496TIP3    H216434   0.189   6.969   6.318
 5497TIP3   OH216435   1.402   1.651   0.611
 5497TIP3    H116436   1.484   1.698   0.602
 5497TIP3    H216437   1.397   1.596   0.533
 5498TIP3   OH216438   4.303   2.071   6.598
 5498TIP3    H116439   4.278   2.048   6.688
 5498TIP3    H216440   4.344   2.157   6.606
 5499TIP3   OH216441   2.625   2.824   4.396
 5499TIP3    H116442   2.686   2.751   4.389
 5499TIP3    H216443   2.680   2.899   4.422
 5500TIP3   OH216444   1.534   7.556   4.032
 5500TIP3    H116445   1.557   7.480   4.085
 5500TIP3    H216446   1.443   7.541   4.007
 5501TIP3   OH216447   1.926   5.854   6.791
 5501TIP3    H116448   1.833   5.847   6.770
 5501TIP3    H216449   1.970   5.806   6.721
 5502TIP3   OH216450   5.115   2.355   4.859
 5502TIP3    H116451   5.134   2.262   4.856
 5502TIP3    H216452   5.103   2.375   4.952
 5503TIP3   OH216453   6.949   0.259   6.172
 5503TIP3    H116454   7.035   0.272   6.213
 5503TIP3    H216455   6.891   0.319   6.219
 5504TIP3   OH216456   4.505   5.071   2.360
 5504TIP3    H116457   4.497   5.086   2.266
 5504TIP3    H216458   4.596   5.043   2.372
 5505TIP3   OH216459   5.350   3.056   3.758
 5505TIP3    H116460   5.258   3.081   3.768
 5505TIP3    H216461   5.387   3.064   3.845
 5506TIP3   OH216462   3.551   7.214   0.443
 5506TIP3    H116463   3.521   7.303   0.426
 5506TIP3    H216464   3.572   7.212   0.536
 5507TIP3   OH216465   7.657   1.595   6.356
 5507TIP3    H116466   7.571   1.608   6.395
 5507TIP3    H216467   7.640   1.585   6.262
 5508TIP3   OH216468   7.591   3.835   4.515
 5508TIP3    H116469   7.515   3.884   4.486
 5508TIP3    H216470   7.664   3.897   4.509
 5509TIP3   OH216471   0.872   4.308   5.862
 5509TIP3    H116472   0.797   4.287   5.806
 5509TIP3    H216473   0.871   4.404   5.868
 5510TIP3   OH216474   6.696   3.495   4.721
 5510TIP3    H116475   6.741   3.487   4.805
 5510TIP3    H216476   6.702   3.407   4.683
 5511TIP3   OH216477   3.158   1.943   6.242
 5511TIP3    H116478   3.096   1.874   6.266
 5511TIP3    H216479   3.243   1.899   6.242
 5512TIP3   OH216480   6.318   0.734   0.439
 5512TIP3    H116481   6.223   0.740   0.429
 5512TIP3    H216482   6.332   0.737   0.534
 5513TIP3   OH216483   4.467   3.257   1.477
 5513TIP3    H116484   4.489   3.318   1.406
 5513TIP3    H216485   4.465   3.311   1.556
 5514TIP3   OH216486   0.733   0.489   6.157
 5514TIP3    H116487   0.798   0.549   6.120
 5514TIP3    H216488   0.655   0.502   6.103
 5515TIP3   OH216489   5.694   0.652   1.577
 5515TIP3    H116490   5.675   0.567   1.617
 5515TIP3    H216491   5.750   0.696   1.641
 5516TIP3   OH216492   1.566   0.484   0.722
 5516TIP3    H116493   1.620   0.536   0.664
 5516TIP3    H216494   1.483   0.531   0.727
 5517TIP3   OH216495   6.885   2.611   2.434
 5517TIP3    H116496   6.979   2.604   2.417
 5517TIP3    H216497   6.844   2.577   2.354
 5518TIP3   OH216498   7.538   6.466   6.504
 5518TIP3    H116499   7.483   6.479   6.427
 5518TIP3    H216500   7.481   6.420   6.566
 5519TIP3   OH216501   6.056   0.112   4.412
 5519TIP3    H116502   5.981   0.052   4.415
 5519TIP3    H216503   6.060   0.150   4.499
 5520TIP3   OH216504   6.997   7.398   4.447
 5520TIP3    H116505   7.034   7.430   4.529
 5520TIP3    H216506   6.938   7.327   4.473
 5521TIP3   OH216507   3.825   1.359   3.330
 5521TIP3    H116508   3.901   1.317   3.370
 5521TIP3    H216509   3.763   1.287   3.317
 5522TIP3   OH216510   6.589   1.598   3.884
 5522TIP3    H116511   6.637   1.627   3.806
 5522TIP3    H216512   6.575   1.504   3.870
 5523TIP3   OH216513   2.711   4.015   5.488
 5523TIP3    H116514   2.749   4.040   5.404
 5523TIP3    H216515   2.768   3.946   5.521
 5524TIP3   OH216516   0.267   2.930   2.561
 5524TIP3    H116517   0.179   2.954   2.589
 5524TIP3    H216518   0.322   3.003   2.591
 5525TIP3   OH216519   0.542   3.401   0.003
 5525TIP3    H116520   0.559   3.480  -0.049
 5525TIP3    H216521   0.503   3.434   0.084
 5526TIP3   OH216522   3.317   1.260   0.114
 5526TIP3    H116523   3.328   1.228   0.204
 5526TIP3    H216524   3.338   1.353   0.120
 5527TIP3   OH216525   0.977   3.392   3.545
 5527TIP3    H116526   1.037   3.453   3.502
 5527TIP3    H216527   0.907   3.449   3.579
 5528TIP3   OH216528   5.464   0.731   5.174
 5528TIP3    H116529   5.423   0.700   5.094
 5528TIP3    H216530   5.485   0.652   5.223
 5529TIP3   OH216531   5.359   5.012   2.055
 5529TIP3    H116532   5.454   5.010   2.070
 5529TIP3    H216533   5.346   4.958   1.977
 5530TIP3   OH216534   5.196   2.163   4.503
 5530TIP3    H116535   5.255   2.153   4.578
 5530TIP3    H216536   5.174   2.073   4.478
 5531TIP3   OH216537   7.108   7.247   5.568
 5531TIP3    H116538   7.021   7.243   5.527
 5531TIP3    H216539   7.109   7.172   5.627
 5532TIP3   OH216540   5.734   5.164   0.921
 5532TIP3    H116541   5.646   5.196   0.900
 5532TIP3    H216542   5.786   5.243   0.934
 5533TIP3   OH216543   7.227   4.738   5.146
 5533TIP3    H116544   7.168   4.802   5.184
 5533TIP3    H216545   7.277   4.788   5.081
 5534TIP3   OH216546   5.271   6.873   3.595
 5534TIP3    H116547   5.243   6.810   3.662
 5534TIP3    H216548   5.308   6.819   3.525
 5535TIP3   OH216549   3.268   7.455   5.640
 5535TIP3    H116550   3.199   7.391   5.626
 5535TIP3    H216551   3.287   7.489   5.553
 5536TIP3   OH216552   3.769   0.856   2.896
 5536TIP3    H116553   3.861   0.876   2.879
 5536TIP3    H216554   3.720   0.930   2.858
 5537TIP3   OH216555   6.264   4.103   6.722
 5537TIP3    H116556   6.305   4.174   6.771
 5537TIP3    H216557   6.322   4.090   6.646
 5538TIP3   OH216558   6.219   7.806   1.916
 5538TIP3    H116559   6.222   7.812   2.011
 5538TIP3    H216560   6.310   7.818   1.889
 5539TIP3   OH216561   1.416   6.109   4.890
 5539TIP3    H116562   1.349   6.073   4.831
 5539TIP3    H216563   1.406   6.204   4.882
 5540TIP3   OH216564   8.040   2.224   5.039
 5540TIP3    H116565   8.002   2.182   5.116
 5540TIP3    H216566   8.001   2.179   4.965
 5541TIP3   OH216567   6.917   0.394   2.944
 5541TIP3    H116568   6.927   0.489   2.945
 5541TIP3    H216569   6.991   0.361   2.995
 5542TIP3   OH216570   7.979   1.679   3.152
 5542TIP3    H116571   7.978   1.740   3.079
 5542TIP3    H216572   7.903   1.702   3.204
 5543TIP3   OH216573   7.451   2.274   6.598
 5543TIP3    H116574   7.394   2.332   6.549
 5543TIP3    H216575   7.537   2.285   6.558
 5544TIP3   OH216576   3.562   7.141   0.727
 5544TIP3    H116577   3.552   7.126   0.821
 5544TIP3    H216578   3.610   7.065   0.695
 5545TIP3   OH216579   0.939   4.888   1.763
 5545TIP3    H116580   0.982   4.911   1.846
 5545TIP3    H216581   0.876   4.820   1.787
 5546TIP3   OH216582   4.731   0.918   4.463
 5546TIP3    H116583   4.724   0.916   4.367
 5546TIP3    H216584   4.651   0.963   4.492
 5547TIP3   OH216585   1.523   5.302   5.595
 5547TIP3    H116586   1.615   5.299   5.621
 5547TIP3    H216587   1.488   5.216   5.616
 5548TIP3   OH216588   6.513   1.102   4.212
 5548TIP3    H116589   6.562   1.177   4.245
 5548TIP3    H216590   6.570   1.065   4.145
 5549TIP3   OH216591   1.912   1.323   4.912
 5549TIP3    H116592   1.980   1.255   4.919
 5549TIP3    H216593   1.876   1.330   5.000
 5550TIP3   OH216594   6.812   3.246   1.028
 5550TIP3    H116595   6.905   3.240   1.004
 5550TIP3    H216596   6.810   3.309   1.100
 5551TIP3   OH216597   1.892   6.228   2.611
 5551TIP3    H116598   1.829   6.280   2.561
 5551TIP3    H216599   1.891   6.142   2.570
 5552TIP3   OH216600   0.571   3.496   3.372
 5552TIP3    H116601   0.508   3.424   3.367
 5552TIP3    H216602   0.520   3.570   3.403
 5553TIP3   OH216603   0.532   5.563   5.707
 5553TIP3    H116604   0.570   5.590   5.791
 5553TIP3    H216605   0.559   5.472   5.696
 5554TIP3   OH216606   6.952   2.384   6.181
 5554TIP3    H116607   7.032   2.392   6.130
 5554TIP3    H216608   6.925   2.293   6.170
 5555TIP3   OH216609   6.097   0.056   3.076
 5555TIP3    H116610   6.177   0.019   3.115
 5555TIP3    H216611   6.062  -0.015   3.023
 5556TIP3   OH216612   1.521   3.561   0.762
 5556TIP3    H116613   1.481   3.573   0.848
 5556TIP3    H216614   1.590   3.496   0.776
 5557TIP3   OH216615   5.635   1.468   0.705
 5557TIP3    H116616   5.642   1.557   0.739
 5557TIP3    H216617   5.599   1.478   0.617
 5558TIP3   OH216618   3.864   1.831   1.927
 5558TIP3    H116619   3.942   1.872   1.888
 5558TIP3    H216620   3.895   1.747   1.961
 5559TIP3   OH216621   5.641   7.259   3.268
 5559TIP3    H116622   5.628   7.220   3.182
 5559TIP3    H216623   5.722   7.220   3.301
 5560TIP3   OH216624   3.515   0.332   5.655
 5560TIP3    H116625   3.579   0.386   5.701
 5560TIP3    H216626   3.503   0.256   5.712
 5561TIP3   OH216627   4.143   5.908   3.645
 5561TIP3    H116628   4.166   5.986   3.595
 5561TIP3    H216629   4.188   5.920   3.729
 5562TIP3   OH216630   8.048   5.584   2.317
 5562TIP3    H116631   7.997   5.591   2.397
 5562TIP3    H216632   8.036   5.668   2.273
 5563TIP3   OH216633   0.130   2.297   4.392
 5563TIP3    H116634   0.195   2.227   4.393
 5563TIP3    H216635   0.142   2.343   4.475
 5564TIP3   OH216636   7.127   0.129   5.497
 5564TIP3    H116637   7.208   0.077   5.501
 5564TIP3    H216638   7.124   0.174   5.582
 5565TIP3   OH216639   4.197   4.567   6.714
 5565TIP3    H116640   4.165   4.626   6.645
 5565TIP3    H216641   4.251   4.503   6.667
 5566TIP3   OH216642   2.099   4.909   5.821
 5566TIP3    H116643   2.176   4.852   5.821
 5566TIP3    H216644   2.106   4.959   5.740
 5567TIP3   OH216645   2.299   3.927   4.366
 5567TIP3    H116646   2.316   3.911   4.459
 5567TIP3    H216647   2.300   3.840   4.326
 5568TIP3   OH216648   2.871   3.727   1.523
 5568TIP3    H116649   2.876   3.813   1.564
 5568TIP3    H216650   2.939   3.675   1.566
 5569TIP3   OH216651   3.360   0.170   5.469
 5569TIP3    H116652   3.391   0.255   5.502
 5569TIP3    H216653   3.266   0.183   5.455
 5570TIP3   OH216654   3.420   7.601   0.146
 5570TIP3    H116655   3.442   7.668   0.211
 5570TIP3    H216656   3.349   7.641   0.095
 5571TIP3   OH216657   4.247   7.002   3.970
 5571TIP3    H116658   4.227   6.909   3.963
 5571TIP3    H216659   4.185   7.036   4.034
 5572TIP3   OH216660   4.486   1.213   3.556
 5572TIP3    H116661   4.396   1.190   3.579
 5572TIP3    H216662   4.540   1.160   3.614
 5573TIP3   OH216663   7.566   1.529   1.710
 5573TIP3    H116664   7.571   1.562   1.620
 5573TIP3    H216665   7.539   1.605   1.761
 5574TIP3   OH216666   5.902   7.768   2.769
 5574TIP3    H116667   5.942   7.854   2.757
 5574TIP3    H216668   5.888   7.760   2.864
 5575TIP3   OH216669   3.587   1.263   3.810
 5575TIP3    H116670   3.502   1.306   3.798
 5575TIP3    H216671   3.637   1.325   3.864
 5576TIP3   OH216672   3.017   0.513   1.070
 5576TIP3    H116673   3.043   0.602   1.043
 5576TIP3    H216674   2.987   0.523   1.160
 5577TIP3   OH216675   2.276   0.792   3.950
 5577TIP3    H116676   2.267   0.722   4.014
 5577TIP3    H216677   2.239   0.756   3.870
 5578TIP3   OH216678   3.876   4.294   1.283
 5578TIP3    H116679   3.971   4.291   1.271
 5578TIP3    H216680   3.854   4.209   1.320
 5579TIP3   OH216681   3.969   1.857   6.436
 5579TIP3    H116682   3.957   1.949   6.459
 5579TIP3    H216683   4.043   1.828   6.490
 5580TIP3   OH216684   3.869   3.146   5.877
 5580TIP3    H116685   3.817   3.219   5.843
 5580TIP3    H216686   3.806   3.093   5.926
 5581TIP3   OH216687   6.082   6.130   6.781
 5581TIP3    H116688   5.990   6.105   6.786
 5581TIP3    H216689   6.118   6.074   6.713
 5582TIP3   OH216690   7.150   5.980   6.593
 5582TIP3    H116691   7.238   6.000   6.627
 5582TIP3    H216692   7.093   5.985   6.670
 5583TIP3   OH216693   3.262   1.944   0.913
 5583TIP3    H116694   3.171   1.973   0.914
 5583TIP3    H216695   3.277   1.908   1.001
 5584TIP3   OH216696   3.295   5.786   6.363
 5584TIP3    H116697   3.209   5.744   6.374
 5584TIP3    H216698   3.321   5.763   6.274
 5585TIP3   OH216699   5.807   2.363   6.211
 5585TIP3    H116700   5.747   2.357   6.137
 5585TIP3    H216701   5.862   2.284   6.205
 5586TIP3   OH216702   4.289   5.189   3.525
 5586TIP3    H116703   4.315   5.099   3.545
 5586TIP3    H216704   4.371   5.238   3.525
 5587TIP3   OH216705   2.126   7.759   5.126
 5587TIP3    H116706   2.175   7.769   5.207
 5587TIP3    H216707   2.086   7.845   5.111
 5588TIP3   OH216708   0.699   4.547   0.987
 5588TIP3    H116709   0.617   4.517   0.949
 5588TIP3    H216710   0.743   4.594   0.917
 5589TIP3   OH216711   7.724   0.673   2.591
 5589TIP3    H116712   7.732   0.688   2.497
 5589TIP3    H216713   7.634   0.645   2.604
 5590TIP3   OH216714   1.207   6.423   3.469
 5590TIP3    H116715   1.280   6.392   3.522
 5590TIP3    H216716   1.242   6.498   3.421
 5591TIP3   OH216717   7.958   4.789   6.597
 5591TIP3    H116718   7.874   4.790   6.644
 5591TIP3    H216719   8.022   4.817   6.662
 5592TIP3   OH216720   7.251   5.536   6.219
 5592TIP3    H116721   7.276   5.519   6.310
 5592TIP3    H216722   7.260   5.451   6.176
 5593TIP3   OH216723   2.317   1.667   3.395
 5593TIP3    H116724   2.367   1.595   3.434
 5593TIP3    H216725   2.337   1.742   3.452
 5594TIP3   OH216726   5.888   2.321   2.576
 5594TIP3    H116727   5.800   2.360   2.579
 5594TIP3    H216728   5.931   2.353   2.656
 5595TIP3   OH216729   5.322   3.592   6.226
 5595TIP3    H116730   5.314   3.511   6.275
 5595TIP3    H216731   5.252   3.588   6.161
 5596TIP3   OH216732   2.071   7.094   2.376
 5596TIP3    H116733   2.006   7.145   2.327
 5596TIP3    H216734   2.062   7.125   2.467
 5597TIP3   OH216735   6.064   7.105   5.068
 5597TIP3    H116736   6.034   7.189   5.102
 5597TIP3    H216737   6.095   7.057   5.146
 5598TIP3   OH216738   3.696   0.869   4.684
 5598TIP3    H116739   3.701   0.780   4.720
 5598TIP3    H216740   3.632   0.862   4.613
 5599TIP3   OH216741   7.430   4.207   5.053
 5599TIP3    H116742   7.362   4.240   4.995
 5599TIP3    H216743   7.421   4.112   5.049
 5600TIP3   OH216744   1.149   6.791   5.410
 5600TIP3    H116745   1.233   6.838   5.407
 5600TIP3    H216746   1.171   6.701   5.386
 5601TIP3   OH216747   4.837   6.523   0.000
 5601TIP3    H116748   4.883   6.537   0.083
 5601TIP3    H216749   4.789   6.441   0.013
 5602TIP3   OH216750   1.189   7.365   3.124
 5602TIP3    H116751   1.216   7.438   3.180
 5602TIP3    H216752   1.094   7.374   3.118
 5603TIP3   OH216753   6.694   5.612   0.822
 5603TIP3    H116754   6.701   5.695   0.774
 5603TIP3    H216755   6.601   5.606   0.845
 5604TIP3   OH216756   7.996   6.917   4.967
 5604TIP3    H116757   8.072   6.973   4.980
 5604TIP3    H216758   7.971   6.931   4.876
 5605TIP3   OH216759   7.902   6.619   0.098
 5605TIP3    H116760   7.975   6.557   0.094
 5605TIP3    H216761   7.944   6.706   0.096
 5606TIP3   OH216762   4.955   2.610   5.542
 5606TIP3    H116763   4.903   2.530   5.550
 5606TIP3    H216764   5.043   2.580   5.520
 5607TIP3   OH216765   8.014   3.271   5.527
 5607TIP3    H116766   8.086   3.314   5.572
 5607TIP3    H216767   7.998   3.192   5.578
 5608TIP3   OH216768   4.023   0.606   4.583
 5608TIP3    H116769   4.087   0.606   4.511
 5608TIP3    H216770   3.987   0.695   4.582
 5609TIP3   OH216771   0.756   1.821   4.259
 5609TIP3    H116772   0.819   1.825   4.187
 5609TIP3    H216773   0.730   1.729   4.263
 5610TIP3   OH216774   7.866   2.503   5.911
 5610TIP3    H116775   7.772   2.488   5.901
 5610TIP3    H216776   7.906   2.422   5.879
 5611TIP3   OH216777   0.606   4.291   3.176
 5611TIP3    H116778   0.669   4.235   3.222
 5611TIP3    H216779   0.550   4.326   3.245
 5612TIP3   OH216780   2.777   7.519   6.059
 5612TIP3    H116781   2.753   7.573   5.984
 5612TIP3    H216782   2.859   7.477   6.033
 5613TIP3   OH216783   2.128   4.340   6.058
 5613TIP3    H116784   2.156   4.286   6.132
 5613TIP3    H216785   2.038   4.364   6.079
 5614TIP3   OH216786   3.222   0.893   0.739
 5614TIP3    H116787   3.205   0.986   0.726
 5614TIP3    H216788   3.311   0.880   0.707
 5615TIP3   OH216789   6.420   0.619   3.394
 5615TIP3    H116790   6.487   0.609   3.326
 5615TIP3    H216791   6.345   0.656   3.348
 5616TIP3   OH216792   3.457   7.580   2.829
 5616TIP3    H116793   3.512   7.517   2.782
 5616TIP3    H216794   3.373   7.577   2.782
 5617TIP3   OH216795   6.640   6.516   1.401
 5617TIP3    H116796   6.567   6.552   1.352
 5617TIP3    H216797   6.623   6.422   1.406
 5618TIP3   OH216798   1.320   6.502   6.045
 5618TIP3    H116799   1.303   6.535   6.134
 5618TIP3    H216800   1.233   6.490   6.007
 5619TIP3   OH216801   5.246   2.064   0.066
 5619TIP3    H116802   5.180   2.133   0.056
 5619TIP3    H216803   5.286   2.058  -0.021
 5620TIP3   OH216804   6.975   6.322   5.059
 5620TIP3    H116805   6.972   6.264   4.983
 5620TIP3    H216806   7.068   6.331   5.079
 5621TIP3   OH216807   0.798   2.781   2.294
 5621TIP3    H116808   0.861   2.717   2.326
 5621TIP3    H216809   0.716   2.732   2.285
 5622TIP3   OH216810   5.427   3.215   5.085
 5622TIP3    H116811   5.517   3.194   5.110
 5622TIP3    H216812   5.375   3.183   5.158
 5623TIP3   OH216813   3.133   6.176   0.887
 5623TIP3    H116814   3.153   6.087   0.858
 5623TIP3    H216815   3.147   6.173   0.982
 5624TIP3   OH216816   4.297   2.227   5.224
 5624TIP3    H116817   4.297   2.135   5.250
 5624TIP3    H216818   4.207   2.257   5.241
 5625TIP3   OH216819   2.599   6.399   1.050
 5625TIP3    H116820   2.652   6.382   1.128
 5625TIP3    H216821   2.563   6.314   1.027
 5626TIP3   OH216822   4.207   3.787   3.032
 5626TIP3    H116823   4.131   3.742   2.995
 5626TIP3    H216824   4.219   3.746   3.118
 5627TIP3   OH216825   5.262   4.474   3.147
 5627TIP3    H116826   5.213   4.556   3.143
 5627TIP3    H216827   5.333   4.486   3.084
 5628TIP3   OH216828   4.909   4.317   0.129
 5628TIP3    H116829   4.853   4.362   0.064
 5628TIP3    H216830   4.849   4.258   0.175
 5629TIP3   OH216831   0.767   0.656   1.823
 5629TIP3    H116832   0.769   0.581   1.764
 5629TIP3    H216833   0.859   0.671   1.846
 5630TIP3   OH216834   7.996   7.311   2.785
 5630TIP3    H116835   8.057   7.258   2.836
 5630TIP3    H216836   8.045   7.336   2.706
 5631TIP3   OH216837   3.138   7.539   0.286
 5631TIP3    H116838   3.144   7.565   0.194
 5631TIP3    H216839   3.061   7.584   0.319
 5632TIP3   OH216840   6.444   3.020   3.547
 5632TIP3    H116841   6.474   2.930   3.538
 5632TIP3    H216842   6.524   3.069   3.569
 5633TIP3   OH216843   3.028   6.833   5.572
 5633TIP3    H116844   3.109   6.856   5.526
 5633TIP3    H216845   3.056   6.778   5.645
 5634TIP3   OH216846   5.786   4.897   4.448
 5634TIP3    H116847   5.696   4.871   4.427
 5634TIP3    H216848   5.827   4.817   4.481
 5635TIP3   OH216849   0.088   0.111   0.324
 5635TIP3    H116850   0.122   0.067   0.246
 5635TIP3    H216851   0.039   0.044   0.371
 5636TIP3   OH216852   7.329   4.530   2.882
 5636TIP3    H116853   7.355   4.512   2.791
 5636TIP3    H216854   7.411   4.556   2.925
 5637TIP3   OH216855   2.093   3.946   4.858
 5637TIP3    H116856   2.101   4.029   4.810
 5637TIP3    H216857   2.055   3.885   4.794
 5638TIP3   OH216858   3.296   7.544   5.895
 5638TIP3    H116859   3.273   7.524   5.805
 5638TIP3    H216860   3.212   7.566   5.937
 5639TIP3   OH216861   3.349   6.477   0.726
 5639TIP3    H116862   3.268   6.427   0.739
 5639TIP3    H216863   3.358   6.482   0.631
 5640TIP3   OH216864   5.017   6.755   3.435
 5640TIP3    H116865   4.950   6.822   3.443
 5640TIP3    H216866   5.019   6.712   3.520
 5641TIP3   OH216867   4.463   1.007   6.014
 5641TIP3    H116868   4.521   0.999   5.939
 5641TIP3    H216869   4.473   1.098   6.043
 5642TIP3   OH216870   7.906   0.788   4.125
 5642TIP3    H116871   7.927   0.702   4.162
 5642TIP3    H216872   7.816   0.779   4.095
 5643TIP3   OH216873   5.159   4.024   2.111
 5643TIP3    H116874   5.102   3.964   2.159
 5643TIP3    H216875   5.110   4.107   2.111
 5644TIP3   OH216876   6.185   0.476   1.664
 5644TIP3    H116877   6.144   0.528   1.595
 5644TIP3    H216878   6.196   0.537   1.737
 5645TIP3   OH216879   3.355   7.210   5.114
 5645TIP3    H116880   3.448   7.230   5.112
 5645TIP3    H216881   3.327   7.230   5.203
 5646TIP3   OH216882   6.227   0.740   1.740
 5646TIP3    H116883   6.162   0.792   1.789
 5646TIP3    H216884   6.267   0.802   1.679
 5647TIP3   OH216885   6.411   1.783   4.497
 5647TIP3    H116886   6.486   1.842   4.506
 5647TIP3    H216887   6.335   1.841   4.496
 5648TIP3   OH216888   1.959   0.654   3.589
 5648TIP3    H116889   2.035   0.691   3.633
 5648TIP3    H216890   1.897   0.726   3.581
 5649TIP3   OH216891   3.570   3.330   5.982
 5649TIP3    H116892   3.549   3.252   6.033
 5649TIP3    H216893   3.532   3.313   5.896
 5650TIP3   OH216894   7.643   1.472   3.393
 5650TIP3    H116895   7.652   1.455   3.487
 5650TIP3    H216896   7.553   1.447   3.373
 5651TIP3   OH216897   6.372   1.028   3.763
 5651TIP3    H116898   6.325   1.047   3.845
 5651TIP3    H216899   6.395   0.936   3.769
 5652TIP3   OH216900   5.708   1.504   2.125
 5652TIP3    H116901   5.722   1.597   2.106
 5652TIP3    H216902   5.780   1.481   2.184
 5653TIP3   OH216903   0.877   5.292   0.239
 5653TIP3    H116904   0.818   5.325   0.307
 5653TIP3    H216905   0.961   5.282   0.284
 5654TIP3   OH216906   4.109   4.770   3.920
 5654TIP3    H116907   4.024   4.754   3.960
 5654TIP3    H216908   4.172   4.756   3.992
 5655TIP3   OH216909   6.636   4.407   5.114
 5655TIP3    H116910   6.646   4.496   5.081
 5655TIP3    H216911   6.547   4.405   5.150
 5656TIP3   OH216912   7.587   5.553   2.331
 5656TIP3    H116913   7.569   5.478   2.387
 5656TIP3    H216914   7.536   5.538   2.252
 5657TIP3   OH216915   5.555   5.421   0.992
 5657TIP3    H116916   5.505   5.361   0.937
 5657TIP3    H216917   5.496   5.441   1.065
 5658TIP3   OH216918   7.694   4.508   2.596
 5658TIP3    H116919   7.773   4.462   2.568
 5658TIP3    H216920   7.647   4.445   2.651
 5659TIP3   OH216921   6.034   0.801   1.948
 5659TIP3    H116922   6.080   0.885   1.952
 5659TIP3    H216923   6.046   0.763   2.035
 5660TIP3   OH216924   1.013   7.086   5.068
 5660TIP3    H116925   0.983   7.136   5.144
 5660TIP3    H216926   1.090   7.038   5.099
 5661TIP3   OH216927   2.191   4.422   0.884
 5661TIP3    H116928   2.165   4.335   0.913
 5661TIP3    H216929   2.232   4.462   0.961
 5662TIP3   OH216930   4.783   6.972   0.973
 5662TIP3    H116931   4.866   6.972   1.020
 5662TIP3    H216932   4.723   7.022   1.030
 5663TIP3   OH216933   4.654   7.521   3.132
 5663TIP3    H116934   4.584   7.569   3.089
 5663TIP3    H216935   4.700   7.477   3.061
 5664TIP3   OH216936   0.332   7.210   5.608
 5664TIP3    H116937   0.381   7.132   5.634
 5664TIP3    H216938   0.302   7.190   5.519
 5665TIP3   OH216939   5.946   0.022   0.497
 5665TIP3    H116940   6.023   0.066   0.532
 5665TIP3    H216941   5.960  -0.071   0.517
 5666TIP3   OH216942   6.986   7.621   2.917
 5666TIP3    H116943   6.905   7.649   2.874
 5666TIP3    H216944   7.029   7.564   2.853
 5667TIP3   OH216945   0.908   3.389   1.236
 5667TIP3    H116946   0.902   3.308   1.185
 5667TIP3    H216947   0.826   3.392   1.285
 5668TIP3   OH216948   3.253   1.481   1.176
 5668TIP3    H116949   3.257   1.421   1.251
 5668TIP3    H216950   3.162   1.511   1.174
 5669TIP3   OH216951   0.063   3.838   2.042
 5669TIP3    H116952   0.108   3.920   2.025
 5669TIP3    H216953   0.025   3.850   2.130
 5670TIP3   OH216954   4.324   4.079   1.001
 5670TIP3    H116955   4.242   4.057   1.045
 5670TIP3    H216956   4.392   4.040   1.056
 5671TIP3   OH216957   0.018   6.524   5.490
 5671TIP3    H116958   0.052   6.587   5.427
 5671TIP3    H216959  -0.004   6.447   5.438
 5672TIP3   OH216960   4.319   3.155   0.368
 5672TIP3    H116961   4.379   3.135   0.296
 5672TIP3    H216962   4.234   3.122   0.338
 5673TIP3   OH216963   1.188   4.537   2.366
 5673TIP3    H116964   1.117   4.581   2.413
 5673TIP3    H216965   1.178   4.567   2.275
 5674TIP3   OH216966   3.931   7.544   0.637
 5674TIP3    H116967   3.976   7.508   0.561
 5674TIP3    H216968   3.844   7.503   0.635
 5675TIP3   OH216969   5.357   1.298   3.933
 5675TIP3    H116970   5.278   1.249   3.910
 5675TIP3    H216971   5.358   1.372   3.872
 5676TIP3   OH216972   7.539   7.049   2.705
 5676TIP3    H116973   7.594   6.972   2.717
 5676TIP3    H216974   7.600   7.120   2.687
 5677TIP3   OH216975   7.493   1.162   1.192
 5677TIP3    H116976   7.406   1.154   1.153
 5677TIP3    H216977   7.541   1.086   1.159
 5678TIP3   OH216978   5.735   2.567   1.625
 5678TIP3    H116979   5.683   2.540   1.549
 5678TIP3    H216980   5.820   2.591   1.588
 5679TIP3   OH216981   5.727   2.770   1.819
 5679TIP3    H116982   5.742   2.685   1.777
 5679TIP3    H216983   5.767   2.761   1.906
 5680TIP3   OH216984   7.949   3.820   2.956
 5680TIP3    H116985   7.922   3.911   2.969
 5680TIP3    H216986   8.043   3.825   2.940
 5681TIP3   OH216987   2.633   6.774   0.521
 5681TIP3    H116988   2.592   6.688   0.508
 5681TIP3    H216989   2.697   6.780   0.451
 5682TIP3   OH216990   3.374   2.326   6.744
 5682TIP3    H116991   3.459   2.360   6.718
 5682TIP3    H216992   3.393   2.269   6.819
 5683TIP3   OH216993   2.679   2.455   3.315
 5683TIP3    H116994   2.773   2.439   3.330
 5683TIP3    H216995   2.651   2.507   3.390
 5684TIP3   OH216996   7.334   1.934   2.051
 5684TIP3    H116997   7.424   1.964   2.040
 5684TIP3    H216998   7.342   1.853   2.101
 5685TIP3   OH216999   6.469   6.511   3.200
 5685TIP3    H117000   6.537   6.556   3.250
 5685TIP3    H217001   6.502   6.507   3.111
 5686TIP3   OH217002   4.754   3.146   2.126
 5686TIP3    H117003   4.755   3.204   2.202
 5686TIP3    H217004   4.821   3.182   2.067
 5687TIP3   OH217005   0.895   4.172   4.817
 5687TIP3    H117006   0.801   4.169   4.838
 5687TIP3    H217007   0.938   4.174   4.903
 5688TIP3   OH217008   7.181   7.025   0.845
 5688TIP3    H117009   7.157   7.095   0.783
 5688TIP3    H217010   7.246   7.066   0.902
 5689TIP3   OH217011   2.267   4.443   2.972
 5689TIP3    H117012   2.314   4.406   2.897
 5689TIP3    H217013   2.282   4.382   3.043
 5690TIP3   OH217014   6.564   1.915   4.899
 5690TIP3    H117015   6.589   2.004   4.875
 5690TIP3    H217016   6.473   1.908   4.871
 5691TIP3   OH217017   7.191   2.036   6.735
 5691TIP3    H117018   7.139   2.010   6.659
 5691TIP3    H217019   7.172   2.129   6.747
 5692TIP3   OH217020   1.430   6.043   2.168
 5692TIP3    H117021   1.384   6.058   2.085
 5692TIP3    H217022   1.499   5.981   2.147
 5693TIP3   OH217023   5.855   4.545   1.426
 5693TIP3    H117024   5.879   4.537   1.334
 5693TIP3    H217025   5.787   4.613   1.427
 5694TIP3   OH217026   3.360   6.792   2.539
 5694TIP3    H117027   3.453   6.810   2.525
 5694TIP3    H217028   3.358   6.707   2.582
 5695TIP3   OH217029   1.944   0.021   4.729
 5695TIP3    H117030   1.850   0.031   4.740
 5695TIP3    H217031   1.958  -0.074   4.724
 5696TIP3   OH217032   6.589   5.762   3.877
 5696TIP3    H117033   6.567   5.671   3.896
 5696TIP3    H217034   6.665   5.757   3.820
 5697TIP3   OH217035   5.982   4.944   5.806
 5697TIP3    H117036   6.046   4.878   5.831
 5697TIP3    H217037   6.018   5.026   5.841
 5698TIP3   OH217038   7.699   7.431   3.109
 5698TIP3    H117039   7.684   7.357   3.051
 5698TIP3    H217040   7.695   7.394   3.197
 5699TIP3   OH217041   7.929   5.198   2.953
 5699TIP3    H117042   8.024   5.199   2.940
 5699TIP3    H217043   7.903   5.107   2.938
 5700TIP3   OH217044   7.065   3.257   1.380
 5700TIP3    H117045   7.126   3.204   1.328
 5700TIP3    H217046   7.016   3.308   1.316
 5701TIP3   OH217047   1.953   2.974   4.202
 5701TIP3    H117048   1.970   2.923   4.282
 5701TIP3    H217049   1.932   3.062   4.234
 5702TIP3   OH217050   5.147   4.991   4.581
 5702TIP3    H117051   5.224   5.003   4.525
 5702TIP3    H217052   5.174   5.024   4.666
 5703TIP3   OH217053   6.361   4.837   1.687
 5703TIP3    H117054   6.322   4.893   1.620
 5703TIP3    H217055   6.396   4.898   1.752
 5704TIP3   OH217056   2.401   5.478   2.336
 5704TIP3    H117057   2.313   5.505   2.361
 5704TIP3    H217058   2.400   5.478   2.241
 5705TIP3   OH217059   1.468   7.061   3.448
 5705TIP3    H117060   1.537   7.084   3.510
 5705TIP3    H217061   1.390   7.050   3.503
 5706TIP3   OH217062   6.152   2.911   4.455
 5706TIP3    H117063   6.080   2.849   4.448
 5706TIP3    H217064   6.109   2.997   4.462
 5707TIP3   OH217065   4.524   1.500   0.588
 5707TIP3    H117066   4.584   1.518   0.516
 5707TIP3    H217067   4.554   1.416   0.624
 5708TIP3   OH217068   2.053   5.848   4.188
 5708TIP3    H117069   2.076   5.764   4.226
 5708TIP3    H217070   2.021   5.900   4.261
 5709TIP3   OH217071   6.006   4.147   1.617
 5709TIP3    H117072   5.937   4.208   1.593
 5709TIP3    H217073   6.074   4.202   1.657
 5710TIP3   OH217074   1.155   2.966   2.091
 5710TIP3    H117075   1.101   3.030   2.044
 5710TIP3    H217076   1.111   2.882   2.076
 5711TIP3   OH217077   5.963   3.858   5.533
 5711TIP3    H117078   5.960   3.892   5.444
 5711TIP3    H217079   5.873   3.869   5.566
 5712TIP3   OH217080   1.385   3.655   0.065
 5712TIP3    H117081   1.368   3.662   0.159
 5712TIP3    H217082   1.468   3.607   0.058
 5713TIP3   OH217083   1.599   2.131   1.155
 5713TIP3    H117084   1.591   2.069   1.081
 5713TIP3    H217085   1.677   2.102   1.202
 5714TIP3   OH217086   2.178   1.158   0.200
 5714TIP3    H117087   2.155   1.249   0.216
 5714TIP3    H217088   2.097   1.109   0.216
 5715TIP3   OH217089   6.607   3.916   0.405
 5715TIP3    H117090   6.670   3.843   0.409
 5715TIP3    H217091   6.594   3.930   0.311
 5716TIP3   OH217092   5.923   6.536   2.900
 5716TIP3    H117093   5.974   6.577   2.970
 5716TIP3    H217094   5.852   6.491   2.945
 5717TIP3   OH217095   1.394   5.791   5.457
 5717TIP3    H117096   1.355   5.725   5.400
 5717TIP3    H217097   1.367   5.875   5.420
 5718TIP3   OH217098   0.258   0.748   1.291
 5718TIP3    H117099   0.278   0.789   1.207
 5718TIP3    H217100   0.178   0.698   1.274
 5719TIP3   OH217101   2.815   0.756   3.508
 5719TIP3    H117102   2.770   0.813   3.446
 5719TIP3    H217103   2.745   0.708   3.552
 5720TIP3   OH217104   0.230   0.442   0.614
 5720TIP3    H117105   0.302   0.444   0.677
 5720TIP3    H217106   0.266   0.394   0.539
 5721TIP3   OH217107   5.265   5.910   4.619
 5721TIP3    H117108   5.248   5.987   4.565
 5721TIP3    H217109   5.239   5.937   4.707
 5722TIP3   OH217110   4.139   3.037   5.376
 5722TIP3    H117111   4.086   3.115   5.356
 5722TIP3    H217112   4.152   2.995   5.291
 5723TIP3   OH217113   4.889   4.057   6.645
 5723TIP3    H117114   4.862   3.996   6.576
 5723TIP3    H217115   4.967   4.017   6.683
 5724TIP3   OH217116   7.483   4.381   0.315
 5724TIP3    H117117   7.538   4.401   0.239
 5724TIP3    H217118   7.398   4.359   0.278
 5725TIP3   OH217119   2.464   6.844   1.874
 5725TIP3    H117120   2.474   6.757   1.911
 5725TIP3    H217121   2.525   6.847   1.801
 5726TIP3   OH217122   5.535   7.784   4.309
 5726TIP3    H117123   5.510   7.696   4.283
 5726TIP3    H217124   5.562   7.775   4.401
 5727TIP3   OH217125   5.050   7.412   6.219
 5727TIP3    H117126   5.066   7.493   6.171
 5727TIP3    H217127   5.029   7.348   6.151
 5728TIP3   OH217128   5.178   2.633   1.438
 5728TIP3    H117129   5.160   2.727   1.437
 5728TIP3    H217130   5.240   2.622   1.510
 5729TIP3   OH217131   3.639   2.128   3.702
 5729TIP3    H117132   3.661   2.092   3.788
 5729TIP3    H217133   3.721   2.125   3.653
 5730TIP3   OH217134   0.861   5.187   5.982
 5730TIP3    H117135   0.844   5.096   6.009
 5730TIP3    H217136   0.864   5.183   5.887
 5731TIP3   OH217137   2.235   3.224   4.116
 5731TIP3    H117138   2.147   3.232   4.154
 5731TIP3    H217139   2.220   3.185   4.030
 5732TIP3   OH217140   7.093   6.486   0.450
 5732TIP3    H117141   7.151   6.557   0.424
 5732TIP3    H217142   7.116   6.469   0.541
 5733TIP3   OH217143   4.836   0.097   6.065
 5733TIP3    H117144   4.787   0.174   6.096
 5733TIP3    H217145   4.861   0.051   6.145
 5734TIP3   OH217146   3.985   3.707   4.954
 5734TIP3    H117147   4.065   3.688   5.003
 5734TIP3    H217148   3.915   3.671   5.009
 5735TIP3   OH217149   5.573   6.723   3.612
 5735TIP3    H117150   5.586   6.815   3.635
 5735TIP3    H217151   5.513   6.725   3.537
 5736TIP3   OH217152   2.258   2.703   2.609
 5736TIP3    H117153   2.221   2.691   2.521
 5736TIP3    H217154   2.353   2.710   2.593
 5737TIP3   OH217155   0.946   1.225   2.857
 5737TIP3    H117156   0.931   1.281   2.781
 5737TIP3    H217157   0.922   1.279   2.932
 5738TIP3   OH217158   7.930   3.051   4.021
 5738TIP3    H117159   7.921   2.960   4.049
 5738TIP3    H217160   7.844   3.090   4.038
 5739TIP3   OH217161   4.815   7.066   0.688
 5739TIP3    H117162   4.830   7.017   0.768
 5739TIP3    H217163   4.871   7.024   0.622
 5740TIP3   OH217164   0.483   3.833   0.547
 5740TIP3    H117165   0.498   3.739   0.559
 5740TIP3    H217166   0.526   3.854   0.464
 5741TIP3   OH217167   5.644   6.530   2.260
 5741TIP3    H117168   5.699   6.462   2.299
 5741TIP3    H217169   5.600   6.571   2.335
 5742TIP3   OH217170   5.469   3.929   4.920
 5742TIP3    H117171   5.390   3.882   4.946
 5742TIP3    H217172   5.535   3.902   4.984
 5743TIP3   OH217173   1.605   6.924   0.109
 5743TIP3    H117174   1.559   6.891   0.032
 5743TIP3    H217175   1.665   6.854   0.133
 5744TIP3   OH217176   7.885   1.309   5.629
 5744TIP3    H117177   7.958   1.247   5.637
 5744TIP3    H217178   7.817   1.273   5.685
 5745TIP3   OH217179   2.122   6.114   0.869
 5745TIP3    H117180   2.118   6.101   0.774
 5745TIP3    H217181   2.213   6.139   0.885
 5746TIP3   OH217182   5.364   7.057   4.612
 5746TIP3    H117183   5.433   7.084   4.672
 5746TIP3    H217184   5.363   7.125   4.544
 5747TIP3   OH217185   3.354   0.340   0.472
 5747TIP3    H117186   3.448   0.334   0.486
 5747TIP3    H217187   3.341   0.318   0.380
 5748TIP3   OH217188   4.100   3.261   6.206
 5748TIP3    H117189   4.134   3.253   6.295
 5748TIP3    H217190   4.039   3.188   6.196
 5749TIP3   OH217191   5.889   1.658   0.588
 5749TIP3    H117192   5.823   1.714   0.628
 5749TIP3    H217193   5.863   1.651   0.496
 5750TIP3   OH217194   7.298   1.468   1.270
 5750TIP3    H117195   7.220   1.457   1.216
 5750TIP3    H217196   7.340   1.547   1.235
 5751TIP3   OH217197   3.834   2.752   2.663
 5751TIP3    H117198   3.905   2.726   2.722
 5751TIP3    H217199   3.794   2.669   2.636
 5752TIP3   OH217200   5.489   5.335   5.715
 5752TIP3    H117201   5.579   5.323   5.746
 5752TIP3    H217202   5.490   5.303   5.625
 5753TIP3   OH217203   6.584   2.524   6.578
 5753TIP3    H117204   6.637   2.448   6.555
 5753TIP3    H217205   6.568   2.569   6.495
 5754TIP3   OH217206   1.227   2.263   1.908
 5754TIP3    H117207   1.270   2.221   1.982
 5754TIP3    H217208   1.261   2.216   1.831
 5755TIP3   OH217209   3.652   0.713   2.495
 5755TIP3    H117210   3.601   0.649   2.445
 5755TIP3    H217211   3.605   0.796   2.482
 5756TIP3   OH217212   5.987   2.899   6.681
 5756TIP3    H117213   5.974   2.964   6.612
 5756TIP3    H217214   6.028   2.825   6.637
 5757TIP3   OH217215   6.269   2.765   6.628
 5757TIP3    H117216   6.212   2.799   6.559
 5757TIP3    H217217   6.252   2.671   6.629
 5758TIP3   OH217218   6.349   5.729   2.974
 5758TIP3    H117219   6.442   5.743   2.960
 5758TIP3    H217220   6.334   5.637   2.952
 5759TIP3   OH217221   8.094   1.212   6.015
 5759TIP3    H117222   8.115   1.167   6.097
 5759TIP3    H217223   8.014   1.261   6.034
 5760TIP3   OH217224   4.077   6.671   6.570
 5760TIP3    H117225   4.137   6.641   6.639
 5760TIP3    H217226   4.125   6.739   6.524
 5761TIP3   OH217227   8.005   4.060   6.395
 5761TIP3    H117228   7.951   4.138   6.413
 5761TIP3    H217229   8.079   4.068   6.456
 5762TIP3   OH217230   4.412   6.849   6.081
 5762TIP3    H117231   4.321   6.820   6.091
 5762TIP3    H217232   4.407   6.923   6.021
 5763TIP3   OH217233   2.536   2.486   5.841
 5763TIP3    H117234   2.524   2.543   5.917
 5763TIP3    H217235   2.543   2.545   5.767
 5764TIP3   OH217236  -0.007   1.004   4.009
 5764TIP3    H117237   0.071   0.959   4.042
 5764TIP3    H217238   0.024   1.050   3.931
 5765TIP3   OH217239   1.451   7.476   6.247
 5765TIP3    H117240   1.473   7.537   6.177
 5765TIP3    H217241   1.515   7.494   6.316
 5766TIP3   OH217242   5.941   2.736   4.474
 5766TIP3    H117243   5.866   2.763   4.527
 5766TIP3    H217244   5.916   2.760   4.384
 5767TIP3   OH217245   5.002   7.799   1.584
 5767TIP3    H117246   5.022   7.726   1.641
 5767TIP3    H217247   4.927   7.842   1.625
 5768TIP3   OH217248   2.677   7.579   0.080
 5768TIP3    H117249   2.629   7.655   0.048
 5768TIP3    H217250   2.617   7.535   0.140
 5769TIP3   OH217251   1.394   4.184   5.511
 5769TIP3    H117252   1.462   4.117   5.497
 5769TIP3    H217253   1.410   4.249   5.443
 5770TIP3   OH217254   7.326   7.513   6.126
 5770TIP3    H117255   7.390   7.451   6.163
 5770TIP3    H217256   7.344   7.595   6.172
 5771TIP3   OH217257   1.682   4.598   0.300
 5771TIP3    H117258   1.616   4.643   0.352
 5771TIP3    H217259   1.765   4.630   0.335
 5772TIP3   OH217260   4.535   2.886   6.263
 5772TIP3    H117261   4.542   2.972   6.222
 5772TIP3    H217262   4.514   2.904   6.355
 5773TIP3   OH217263   2.347   0.204   2.881
 5773TIP3    H117264   2.268   0.156   2.858
 5773TIP3    H217265   2.346   0.281   2.824
 5774TIP3   OH217266   6.318   3.039   5.543
 5774TIP3    H117267   6.334   3.126   5.579
 5774TIP3    H217268   6.313   2.982   5.620
 5775TIP3   OH217269   5.852   3.066   2.437
 5775TIP3    H117270   5.782   3.109   2.486
 5775TIP3    H217271   5.809   2.994   2.392
 5776TIP3   OH217272   1.654   7.601   2.723
 5776TIP3    H117273   1.558   7.608   2.719
 5776TIP3    H217274   1.684   7.692   2.723
 5777TIP3   OH217275   0.470   6.905   0.178
 5777TIP3    H117276   0.459   6.885   0.085
 5777TIP3    H217277   0.389   6.952   0.202
 5778TIP3   OH217278   6.347   4.728   5.035
 5778TIP3    H117279   6.335   4.752   5.127
 5778TIP3    H217280   6.406   4.652   5.038
 5779TIP3   OH217281   6.677   1.004   0.349
 5779TIP3    H117282   6.687   1.086   0.398
 5779TIP3    H217283   6.586   1.003   0.322
 5780TIP3   OH217284   0.436   0.798   1.499
 5780TIP3    H117285   0.394   0.795   1.413
 5780TIP3    H217286   0.429   0.708   1.532
 5781TIP3   OH217287   2.529   7.621   2.994
 5781TIP3    H117288   2.466   7.654   2.930
 5781TIP3    H217289   2.475   7.576   3.059
 5782TIP3   OH217290   7.241   0.523   3.903
 5782TIP3    H117291   7.269   0.459   3.837
 5782TIP3    H217292   7.305   0.514   3.974
 5783TIP3   OH217293   1.118   2.541   3.787
 5783TIP3    H117294   1.062   2.467   3.810
 5783TIP3    H217295   1.063   2.596   3.732
 5784TIP3   OH217296   5.141   5.647   5.610
 5784TIP3    H117297   5.067   5.694   5.573
 5784TIP3    H217298   5.218   5.695   5.580
 5785TIP3   OH217299   6.061   1.562   2.989
 5785TIP3    H117300   5.989   1.626   2.979
 5785TIP3    H217301   6.140   1.613   2.974
 5786TIP3   OH217302   7.502   4.750   0.703
 5786TIP3    H117303   7.516   4.655   0.697
 5786TIP3    H217304   7.457   4.772   0.621
 5787TIP3   OH217305   5.302   6.112   3.054
 5787TIP3    H117306   5.278   6.154   3.137
 5787TIP3    H217307   5.236   6.144   2.992
 5788TIP3   OH217308   5.450   3.117   3.488
 5788TIP3    H117309   5.519   3.051   3.502
 5788TIP3    H217310   5.376   3.086   3.541
 5789TIP3   OH217311   5.022   3.509   0.700
 5789TIP3    H117312   5.082   3.583   0.694
 5789TIP3    H217313   5.018   3.473   0.611
 5790TIP3   OH217314   8.239   5.936   4.174
 5790TIP3    H117315   8.256   6.011   4.232
 5790TIP3    H217316   8.311   5.938   4.111
 5791TIP3   OH217317   1.515   2.186   5.002
 5791TIP3    H117318   1.496   2.266   5.050
 5791TIP3    H217319   1.527   2.215   4.911
 5792TIP3   OH217320   2.787   4.182   4.660
 5792TIP3    H117321   2.812   4.223   4.577
 5792TIP3    H217322   2.830   4.096   4.657
 5793TIP3   OH217323   0.317   0.554   3.129
 5793TIP3    H117324   0.329   0.604   3.210
 5793TIP3    H217325   0.332   0.617   3.059
 5794TIP3   OH217326   6.718   1.350   3.035
 5794TIP3    H117327   6.735   1.390   2.949
 5794TIP3    H217328   6.660   1.277   3.016
 5795TIP3   OH217329   4.919   2.311   0.903
 5795TIP3    H117330   4.832   2.272   0.892
 5795TIP3    H217331   4.915   2.351   0.990
 5796TIP3   OH217332   0.961   7.326   2.314
 5796TIP3    H117333   0.955   7.304   2.407
 5796TIP3    H217334   0.934   7.417   2.309
 5797TIP3   OH217335   2.323   7.244   5.728
 5797TIP3    H117336   2.408   7.259   5.685
 5797TIP3    H217337   2.283   7.331   5.732
 5798TIP3   OH217338   7.735   4.921   1.869
 5798TIP3    H117339   7.643   4.898   1.882
 5798TIP3    H217340   7.732   5.001   1.817
 5799TIP3   OH217341   2.323   4.764   2.509
 5799TIP3    H117342   2.400   4.742   2.456
 5799TIP3    H217343   2.358   4.788   2.594
 5800TIP3   OH217344   6.731   5.089   4.064
 5800TIP3    H117345   6.781   5.161   4.026
 5800TIP3    H217346   6.772   5.010   4.027
 5801TIP3   OH217347   0.414   7.452   3.615
 5801TIP3    H117348   0.431   7.520   3.680
 5801TIP3    H217349   0.419   7.498   3.531
 5802TIP3   OH217350   5.147   5.488   2.255
 5802TIP3    H117351   5.210   5.549   2.217
 5802TIP3    H217352   5.126   5.525   2.340
 5803TIP3   OH217353   6.947   1.753   5.177
 5803TIP3    H117354   7.030   1.760   5.129
 5803TIP3    H217355   6.940   1.835   5.224
 5804TIP3   OH217356   2.951   4.086   5.011
 5804TIP3    H117357   2.951   4.163   4.955
 5804TIP3    H217358   2.966   4.012   4.952
 5805TIP3   OH217359   0.030   0.836   3.265
 5805TIP3    H117360   0.120   0.868   3.270
 5805TIP3    H217361  -0.011   0.889   3.196
 5806TIP3   OH217362   1.044   3.105   1.849
 5806TIP3    H117363   1.068   3.182   1.798
 5806TIP3    H217364   0.958   3.080   1.815
 5807TIP3   OH217365   5.724   0.316   1.237
 5807TIP3    H117366   5.637   0.355   1.253
 5807TIP3    H217367   5.766   0.317   1.323
 5808TIP3   OH217368   5.320   0.877   5.622
 5808TIP3    H117369   5.345   0.969   5.630
 5808TIP3    H217370   5.224   0.877   5.624
 5809TIP3   OH217371   6.131   3.013   3.606
 5809TIP3    H117372   6.221   3.003   3.638
 5809TIP3    H217373   6.102   2.924   3.587
 5810TIP3   OH217374   5.133   0.252   3.945
 5810TIP3    H117375   5.147   0.316   3.875
 5810TIP3    H217376   5.056   0.202   3.916
 5811TIP3   OH217377   3.825   6.711   0.577
 5811TIP3    H117378   3.824   6.660   0.658
 5811TIP3    H217379   3.857   6.651   0.510
 5812TIP3   OH217380   7.413   1.626   2.060
 5812TIP3    H117381   7.330   1.645   2.016
 5812TIP3    H217382   7.393   1.552   2.118
 5813TIP3   OH217383   1.963   2.121   5.768
 5813TIP3    H117384   1.987   2.113   5.675
 5813TIP3    H217385   1.873   2.089   5.772
 5814TIP3   OH217386   0.042   4.824   5.749
 5814TIP3    H117387   0.133   4.842   5.773
 5814TIP3    H217388  -0.010   4.856   5.823
 5815TIP3   OH217389   3.024   7.149   5.400
 5815TIP3    H117390   3.108   7.123   5.439
 5815TIP3    H217391   2.991   7.069   5.359
 5816TIP3   OH217392   1.216   5.620   6.478
 5816TIP3    H117393   1.271   5.543   6.465
 5816TIP3    H217394   1.137   5.601   6.428
 5817TIP3   OH217395   8.321   2.616   5.584
 5817TIP3    H117396   8.292   2.614   5.493
 5817TIP3    H217397   8.257   2.563   5.632
 5818TIP3   OH217398   5.443   0.909   1.535
 5818TIP3    H117399   5.438   0.992   1.488
 5818TIP3    H217400   5.492   0.929   1.615
 5819TIP3   OH217401   6.229   6.829   1.132
 5819TIP3    H117402   6.228   6.850   1.038
 5819TIP3    H217403   6.175   6.897   1.172
 5820TIP3   OH217404   1.272   7.598   3.657
 5820TIP3    H117405   1.265   7.674   3.716
 5820TIP3    H217406   1.187   7.554   3.665
 5821TIP3   OH217407   4.005   1.307   1.027
 5821TIP3    H117408   4.097   1.334   1.022
 5821TIP3    H217409   4.005   1.216   0.997
 5822TIP3   OH217410   4.449   1.287   0.089
 5822TIP3    H117411   4.536   1.311   0.058
 5822TIP3    H217412   4.390   1.351   0.048
 5823TIP3   OH217413   4.773   5.460   0.893
 5823TIP3    H117414   4.740   5.512   0.966
 5823TIP3    H217415   4.859   5.497   0.874
 5824TIP3   OH217416   0.086   7.539   5.977
 5824TIP3    H117417   0.046   7.459   5.943
 5824TIP3    H217418   0.014   7.602   5.983
 5825TIP3   OH217419   7.610   3.910   5.148
 5825TIP3    H117420   7.534   3.902   5.090
 5825TIP3    H217421   7.602   3.836   5.208
 5826TIP3   OH217422   4.853   5.124   4.338
 5826TIP3    H117423   4.896   5.071   4.271
 5826TIP3    H217424   4.881   5.214   4.319
 5827TIP3   OH217425   6.929   7.465   1.873
 5827TIP3    H117426   6.875   7.483   1.950
 5827TIP3    H217427   6.890   7.519   1.804
 5828TIP3   OH217428   1.396   3.503   0.998
 5828TIP3    H117429   1.436   3.433   1.049
 5828TIP3    H217430   1.371   3.569   1.063
 5829TIP3   OH217431   6.642   5.890   1.801
 5829TIP3    H117432   6.732   5.862   1.786
 5829TIP3    H217433   6.607   5.909   1.714
 5830TIP3   OH217434   2.599   3.130   2.322
 5830TIP3    H117435   2.525   3.135   2.262
 5830TIP3    H217436   2.561   3.103   2.406
 5831TIP3   OH217437   3.405   6.064   6.626
 5831TIP3    H117438   3.420   6.139   6.685
 5831TIP3    H217439   3.493   6.035   6.603
 5832TIP3   OH217440   6.613   7.762   0.031
 5832TIP3    H117441   6.624   7.822   0.104
 5832TIP3    H217442   6.703   7.746   0.000
 5833TIP3   OH217443   8.138   0.872   6.595
 5833TIP3    H117444   8.186   0.792   6.574
 5833TIP3    H217445   8.140   0.923   6.514
 5834TIP3   OH217446   2.008   3.566   3.321
 5834TIP3    H117447   1.939   3.514   3.279
 5834TIP3    H217448   2.085   3.509   3.320
 5835TIP3   OH217449   6.049   7.763   5.373
 5835TIP3    H117450   6.133   7.760   5.419
 5835TIP3    H217451   6.032   7.856   5.360
 5836TIP3   OH217452   2.822   7.384   5.815
 5836TIP3    H117453   2.790   7.326   5.884
 5836TIP3    H217454   2.892   7.335   5.772
 5837TIP3   OH217455   5.915   3.988   6.585
 5837TIP3    H117456   5.905   4.010   6.678
 5837TIP3    H217457   5.864   3.907   6.575
 5838TIP3   OH217458   3.533   3.206   0.667
 5838TIP3    H117459   3.528   3.110   0.668
 5838TIP3    H217460   3.571   3.227   0.581
 5839TIP3   OH217461   0.776   0.406   2.626
 5839TIP3    H117462   0.801   0.467   2.557
 5839TIP3    H217463   0.769   0.460   2.704
 5840TIP3   OH217464   7.231   7.078   5.018
 5840TIP3    H117465   7.195   6.991   5.003
 5840TIP3    H217466   7.204   7.129   4.942
 5841TIP3   OH217467   3.133   3.322   2.714
 5841TIP3    H117468   3.206   3.346   2.771
 5841TIP3    H217469   3.064   3.385   2.736
 5842TIP3   OH217470  -0.023   6.346   4.465
 5842TIP3    H117471   0.044   6.410   4.440
 5842TIP3    H217472   0.014   6.301   4.541
 5843TIP3   OH217473   7.051   5.312   6.326
 5843TIP3    H117474   7.010   5.282   6.245
 5843TIP3    H217475   7.022   5.403   6.336
 5844TIP3   OH217476   8.124   3.854   5.071
 5844TIP3    H117477   8.079   3.850   4.986
 5844TIP3    H217478   8.160   3.766   5.083
 5845TIP3   OH217479   0.332   6.228   2.134
 5845TIP3    H117480   0.309   6.319   2.152
 5845TIP3    H217481   0.267   6.199   2.070
 5846TIP3   OH217482   3.983   4.797   3.222
 5846TIP3    H117483   3.910   4.854   3.244
 5846TIP3    H217484   4.024   4.776   3.306
 5847TIP3   OH217485   7.842   4.958   2.927
 5847TIP3    H117486   7.844   4.916   2.841
 5847TIP3    H217487   7.749   4.971   2.946
 5848TIP3   OH217488   4.176   1.316   0.757
 5848TIP3    H117489   4.130   1.235   0.780
 5848TIP3    H217490   4.203   1.353   0.841
 5849TIP3   OH217491   3.285   7.659   4.595
 5849TIP3    H117492   3.319   7.709   4.669
 5849TIP3    H217493   3.191   7.679   4.594
 5850TIP3   OH217494   2.886   5.716   4.581
 5850TIP3    H117495   2.854   5.728   4.492
 5850TIP3    H217496   2.980   5.735   4.576
 5851TIP3   OH217497   6.046   5.450   2.630
 5851TIP3    H117498   6.077   5.367   2.666
 5851TIP3    H217499   6.020   5.429   2.540
 5852TIP3   OH217500   0.584   5.179   5.013
 5852TIP3    H117501   0.559   5.103   5.066
 5852TIP3    H217502   0.501   5.219   4.988
 5853TIP3   OH217503   6.372   6.515   3.994
 5853TIP3    H117504   6.458   6.478   4.015
 5853TIP3    H217505   6.382   6.548   3.904
 5854TIP3   OH217506   1.292   1.579   5.191
 5854TIP3    H117507   1.229   1.548   5.125
 5854TIP3    H217508   1.369   1.606   5.140
 5855TIP3   OH217509   0.293   5.757   0.165
 5855TIP3    H117510   0.265   5.666   0.173
 5855TIP3    H217511   0.372   5.762   0.218
 5856TIP3   OH217512   0.822   4.189   3.712
 5856TIP3    H117513   0.801   4.277   3.744
 5856TIP3    H217514   0.747   4.136   3.738
 5857TIP3   OH217515   3.915   0.310   3.243
 5857TIP3    H117516   3.914   0.365   3.165
 5857TIP3    H217517   3.994   0.256   3.233
 5858TIP3   OH217518   4.960   3.968   3.508
 5858TIP3    H117519   5.036   4.000   3.459
 5858TIP3    H217520   4.885   3.989   3.452
 5859TIP3   OH217521   5.979   7.074   6.106
 5859TIP3    H117522   6.062   7.120   6.092
 5859TIP3    H217523   5.948   7.106   6.191
 5860TIP3   OH217524   6.067   3.614   4.284
 5860TIP3    H117525   6.160   3.591   4.286
 5860TIP3    H217526   6.032   3.566   4.209
 5861TIP3   OH217527   4.172   5.825   2.023
 5861TIP3    H117528   4.137   5.736   2.021
 5861TIP3    H217529   4.222   5.833   1.941
 5862TIP3   OH217530   8.218   0.177   3.193
 5862TIP3    H117531   8.145   0.182   3.132
 5862TIP3    H217532   8.296   0.176   3.138
 5863TIP3   OH217533   1.810   6.245   1.198
 5863TIP3    H117534   1.891   6.262   1.150
 5863TIP3    H217535   1.767   6.176   1.147
 5864TIP3   OH217536   5.368   5.112   3.944
 5864TIP3    H117537   5.425   5.058   3.890
 5864TIP3    H217538   5.423   5.141   4.017
 5865TIP3   OH217539   3.147   4.812   6.270
 5865TIP3    H117540   3.112   4.880   6.327
 5865TIP3    H217541   3.098   4.734   6.293
 5866TIP3   OH217542   2.978   1.615   0.631
 5866TIP3    H117543   2.913   1.592   0.565
 5866TIP3    H217544   3.050   1.553   0.616
 5867TIP3   OH217545   8.277   1.295   3.070
 5867TIP3    H117546   8.205   1.328   3.123
 5867TIP3    H217547   8.308   1.371   3.021
 5868TIP3   OH217548   5.746   2.280   4.875
 5868TIP3    H117549   5.826   2.331   4.866
 5868TIP3    H217550   5.774   2.198   4.916
 5869TIP3   OH217551   0.534   5.430   0.170
 5869TIP3    H117552   0.471   5.376   0.123
 5869TIP3    H217553   0.494   5.443   0.256
 5870TIP3   OH217554   6.831   1.492   5.154
 5870TIP3    H117555   6.863   1.565   5.207
 5870TIP3    H217556   6.891   1.489   5.079
 5871TIP3   OH217557   1.363   5.517   0.187
 5871TIP3    H117558   1.345   5.566   0.268
 5871TIP3    H217559   1.410   5.580   0.132
 5872TIP3   OH217560   2.012   6.137   1.450
 5872TIP3    H117561   2.036   6.184   1.529
 5872TIP3    H217562   1.961   6.200   1.399
 5873TIP3   OH217563   1.865   2.102   4.989
 5873TIP3    H117564   1.911   2.158   4.926
 5873TIP3    H217565   1.819   2.164   5.046
 5874TIP3   OH217566   0.749   2.275   1.437
 5874TIP3    H117567   0.675   2.306   1.488
 5874TIP3    H217568   0.712   2.258   1.350
 5875TIP3   OH217569   5.865   3.585   0.300
 5875TIP3    H117570   5.822   3.500   0.295
 5875TIP3    H217571   5.819   3.639   0.236
 5876TIP3   OH217572   3.950   5.176   2.969
 5876TIP3    H117573   3.884   5.206   3.031
 5876TIP3    H217574   3.905   5.177   2.884
 5877TIP3   OH217575   5.617   0.775   6.215
 5877TIP3    H117576   5.607   0.811   6.303
 5877TIP3    H217577   5.533   0.793   6.172
 5878TIP3   OH217578   6.606   0.391   1.772
 5878TIP3    H117579   6.658   0.366   1.849
 5878TIP3    H217580   6.551   0.463   1.801
 5879TIP3   OH217581   8.020   7.212   6.354
 5879TIP3    H117582   7.944   7.259   6.320
 5879TIP3    H217583   8.057   7.272   6.419
 5880TIP3   OH217584   0.584   5.710   1.745
 5880TIP3    H117585   0.518   5.776   1.766
 5880TIP3    H217586   0.533   5.634   1.716
 5881TIP3   OH217587   1.299   0.156   4.761
 5881TIP3    H117588   1.204   0.160   4.760
 5881TIP3    H217589   1.326   0.191   4.676
 5882TIP3   OH217590   1.261   2.207   0.742
 5882TIP3    H117591   1.207   2.128   0.745
 5882TIP3    H217592   1.242   2.245   0.656
 5883TIP3   OH217593   4.281   7.241   3.831
 5883TIP3    H117594   4.308   7.161   3.876
 5883TIP3    H217595   4.186   7.234   3.825
 5884TIP3   OH217596   7.411   2.515   2.758
 5884TIP3    H117597   7.447   2.519   2.670
 5884TIP3    H217598   7.471   2.568   2.811
 5885TIP3   OH217599   6.754   2.302   4.201
 5885TIP3    H117600   6.835   2.351   4.214
 5885TIP3    H217601   6.756   2.233   4.267
 5886TIP3   OH217602   5.953   5.684   0.922
 5886TIP3    H117603   5.918   5.752   0.864
 5886TIP3    H217604   6.015   5.732   0.978
 5887TIP3   OH217605   0.846   4.725   2.207
 5887TIP3    H117606   0.820   4.783   2.278
 5887TIP3    H217607   0.806   4.641   2.229
 5888TIP3   OH217608   0.113   1.502   1.842
 5888TIP3    H117609   0.108   1.586   1.797
 5888TIP3    H217610   0.063   1.515   1.923
 5889TIP3   OH217611   0.651   3.337   4.555
 5889TIP3    H117612   0.657   3.328   4.459
 5889TIP3    H217613   0.577   3.280   4.579
 5890TIP3   OH217614   1.111   2.818   1.227
 5890TIP3    H117615   1.045   2.795   1.163
 5890TIP3    H217616   1.162   2.738   1.239
 5891TIP3   OH217617   4.970   4.150   4.050
 5891TIP3    H117618   5.005   4.167   4.137
 5891TIP3    H217619   4.884   4.111   4.066
 5892TIP3   OH217620   2.477   3.001   1.876
 5892TIP3    H117621   2.490   3.093   1.853
 5892TIP3    H217622   2.388   2.982   1.847
 5893TIP3   OH217623   6.424   1.833   0.682
 5893TIP3    H117624   6.330   1.839   0.701
 5893TIP3    H217625   6.458   1.920   0.703
 5894TIP3   OH217626   4.608   5.721   0.523
 5894TIP3    H117627   4.553   5.791   0.488
 5894TIP3    H217628   4.560   5.640   0.501
 5895TIP3   OH217629   6.279   1.427   6.293
 5895TIP3    H117630   6.280   1.357   6.358
 5895TIP3    H217631   6.363   1.472   6.305
 5896TIP3   OH217632   5.804   7.682   4.129
 5896TIP3    H117633   5.767   7.662   4.215
 5896TIP3    H217634   5.887   7.634   4.127
 5897TIP3   OH217635   0.825   3.879   2.809
 5897TIP3    H117636   0.861   3.862   2.896
 5897TIP3    H217637   0.854   3.806   2.756
 5898TIP3   OH217638   8.150   1.328   3.827
 5898TIP3    H117639   8.077   1.318   3.765
 5898TIP3    H217640   8.204   1.250   3.812
 5899TIP3   OH217641   7.586   1.453   0.954
 5899TIP3    H117642   7.629   1.535   0.929
 5899TIP3    H217643   7.493   1.472   0.952
 5900TIP3   OH217644   7.532   6.581   4.771
 5900TIP3    H117645   7.565   6.632   4.697
 5900TIP3    H217646   7.457   6.630   4.803
 5901TIP3   OH217647   6.320   4.024   5.448
 5901TIP3    H117648   6.360   4.095   5.499
 5901TIP3    H217649   6.260   4.069   5.388
 5902TIP3   OH217650   7.177   2.754   2.089
 5902TIP3    H117651   7.090   2.747   2.048
 5902TIP3    H217652   7.173   2.835   2.140
 5903TIP3   OH217653   6.626   4.154   5.016
 5903TIP3    H117654   6.670   4.109   5.089
 5903TIP3    H217655   6.642   4.247   5.033
 5904TIP3   OH217656   7.513   2.136   3.147
 5904TIP3    H117657   7.522   2.157   3.240
 5904TIP3    H217658   7.565   2.056   3.135
 5905TIP3   OH217659   6.103   7.599   3.120
 5905TIP3    H117660   6.186   7.599   3.072
 5905TIP3    H217661   6.128   7.599   3.212
 5906TIP3   OH217662   4.967   1.894   1.187
 5906TIP3    H117663   5.009   1.980   1.196
 5906TIP3    H217664   4.906   1.889   1.260
 5907TIP3   OH217665   0.930   0.156   4.902
 5907TIP3    H117666   0.947   0.067   4.936
 5907TIP3    H217667   0.836   0.170   4.918
 5908TIP3   OH217668   4.771  -0.012   3.102
 5908TIP3    H117669   4.838   0.046   3.068
 5908TIP3    H217670   4.820  -0.084   3.142
 5909TIP3   OH217671   6.753   3.316   2.740
 5909TIP3    H117672   6.674   3.321   2.686
 5909TIP3    H217673   6.738   3.379   2.810
 5910TIP3   OH217674   4.290   4.503   3.881
 5910TIP3    H117675   4.299   4.534   3.971
 5910TIP3    H217676   4.379   4.474   3.858
 5911TIP3   OH217677   0.613   4.206   4.868
 5911TIP3    H117678   0.547   4.233   4.932
 5911TIP3    H217679   0.564   4.183   4.790
 5912TIP3   OH217680   7.123   1.698   0.938
 5912TIP3    H117681   7.107   1.785   0.975
 5912TIP3    H217682   7.143   1.715   0.845
 5913TIP3   OH217683   5.691   5.256   2.997
 5913TIP3    H117684   5.732   5.292   3.076
 5913TIP3    H217685   5.636   5.185   3.029
 5914TIP3   OH217686   6.181   4.500   0.052
 5914TIP3    H117687   6.136   4.475   0.133
 5914TIP3    H217688   6.127   4.462  -0.018
 5915TIP3   OH217689   3.741   5.514   6.245
 5915TIP3    H117690   3.735   5.603   6.281
 5915TIP3    H217691   3.834   5.495   6.241
 5916TIP3   OH217692   3.581   4.974   4.518
 5916TIP3    H117693   3.628   5.019   4.448
 5916TIP3    H217694   3.626   5.001   4.599
 5917TIP3   OH217695   2.141   1.158   2.189
 5917TIP3    H117696   2.160   1.190   2.277
 5917TIP3    H217697   2.176   1.069   2.188
 5918TIP3   OH217698   6.418   5.110   1.084
 5918TIP3    H117699   6.392   5.180   1.024
 5918TIP3    H217700   6.400   5.030   1.036
 5919TIP3   OH217701   8.038   7.353   6.065
 5919TIP3    H117702   8.069   7.276   6.016
 5919TIP3    H217703   8.033   7.422   5.999
 5920TIP3   OH217704   5.581   5.736   6.751
 5920TIP3    H117705   5.534   5.719   6.669
 5920TIP3    H217706   5.597   5.649   6.788
 5921TIP3   OH217707   6.779   5.950   2.159
 5921TIP3    H117708   6.717   6.020   2.181
 5921TIP3    H217709   6.824   5.931   2.241
 5922TIP3   OH217710   4.649   0.884   1.575
 5922TIP3    H117711   4.608   0.810   1.531
 5922TIP3    H217712   4.621   0.960   1.525
 5923TIP3   OH217713   4.208   6.699   4.920
 5923TIP3    H117714   4.214   6.650   4.838
 5923TIP3    H217715   4.115   6.697   4.942
 5924TIP3   OH217716   6.750   1.986   2.654
 5924TIP3    H117717   6.799   1.945   2.725
 5924TIP3    H217718   6.785   2.075   2.649
 5925TIP3   OH217719   5.472   0.859   3.093
 5925TIP3    H117720   5.478   0.910   3.012
 5925TIP3    H217721   5.412   0.788   3.071
 5926TIP3   OH217722   4.777   4.882   5.383
 5926TIP3    H117723   4.832   4.944   5.430
 5926TIP3    H217724   4.696   4.879   5.433
 5927TIP3   OH217725   4.728   2.236   4.087
 5927TIP3    H117726   4.769   2.302   4.030
 5927TIP3    H217727   4.641   2.224   4.051
 5928TIP3   OH217728   1.071   5.277   0.714
 5928TIP3    H117729   1.123   5.200   0.734
 5928TIP3    H217730   0.980   5.248   0.726
 5929TIP3   OH217731   5.815   2.314   4.551
 5929TIP3    H117732   5.785   2.391   4.598
 5929TIP3    H217733   5.902   2.296   4.588
 5930TIP3   OH217734   5.895   0.214   3.167
 5930TIP3    H117735   5.963   0.153   3.142
 5930TIP3    H217736   5.932   0.263   3.241
 5931TIP3   OH217737   4.312   4.941   3.600
 5931TIP3    H117738   4.263   4.877   3.548
 5931TIP3    H217739   4.362   4.888   3.663
 5932TIP3   OH217740   4.969   4.596   2.986
 5932TIP3    H117741   5.014   4.613   3.069
 5932TIP3    H217742   4.992   4.671   2.930
 5933TIP3   OH217743   7.408   5.008   4.464
 5933TIP3    H117744   7.446   4.922   4.449
 5933TIP3    H217745   7.360   5.000   4.547
 5934TIP3   OH217746   3.939   4.321   3.595
 5934TIP3    H117747   4.015   4.377   3.578
 5934TIP3    H217748   3.905   4.350   3.679
 5935TIP3   OH217749   5.249   3.355   1.055
 5935TIP3    H117750   5.247   3.271   1.102
 5935TIP3    H217751   5.341   3.370   1.036
 5936TIP3   OH217752   8.031   6.881   2.752
 5936TIP3    H117753   8.095   6.812   2.770
 5936TIP3    H217754   8.082   6.950   2.711
 5937TIP3   OH217755   2.063   6.383   5.228
 5937TIP3    H117756   2.035   6.474   5.239
 5937TIP3    H217757   1.982   6.336   5.206
 5938TIP3   OH217758   0.967   5.867   0.931
 5938TIP3    H117759   0.933   5.831   1.012
 5938TIP3    H217760   0.889   5.884   0.878
 5939TIP3   OH217761   6.103   6.181   4.068
 5939TIP3    H117762   6.079   6.229   4.148
 5939TIP3    H217763   6.112   6.248   4.001
 5940TIP3   OH217764   5.263   3.696   4.089
 5940TIP3    H117765   5.315   3.686   4.010
 5940TIP3    H217766   5.209   3.773   4.073
 5941TIP3   OH217767   1.339   5.523   5.597
 5941TIP3    H117768   1.389   5.443   5.614
 5941TIP3    H217769   1.400   5.594   5.615
 5942TIP3   OH217770   3.997   6.847   4.735
 5942TIP3    H117771   3.908   6.883   4.740
 5942TIP3    H217772   4.000   6.779   4.802
 5943TIP3   OH217773   3.262   2.600   5.431
 5943TIP3    H117774   3.200   2.660   5.392
 5943TIP3    H217775   3.333   2.656   5.464
 5944TIP3   OH217776   5.481   3.842   4.260
 5944TIP3    H117777   5.576   3.855   4.257
 5944TIP3    H217778   5.470   3.747   4.261
 5945TIP3   OH217779   0.044   5.644   3.108
 5945TIP3    H117780  -0.038   5.677   3.071
 5945TIP3    H217781   0.112   5.679   3.050
 5946TIP3   OH217782   4.480   7.649   0.927
 5946TIP3    H117783   4.457   7.577   0.868
 5946TIP3    H217784   4.398   7.697   0.939
 5947TIP3   OH217785   4.012   3.382   4.357
 5947TIP3    H117786   3.938   3.329   4.329
 5947TIP3    H217787   4.049   3.416   4.276
 5948TIP3   OH217788   4.795   7.466   1.469
 5948TIP3    H117789   4.766   7.505   1.387
 5948TIP3    H217790   4.775   7.373   1.459
 5949TIP3   OH217791   6.652   0.026   3.804
 5949TIP3    H117792   6.644   0.089   3.732
 5949TIP3    H217793   6.684   0.078   3.877
 5950TIP3   OH217794   5.736   7.753   1.560
 5950TIP3    H117795   5.700   7.793   1.482
 5950TIP3    H217796   5.813   7.806   1.581
 5951TIP3   OH217797   8.127   4.169   0.865
 5951TIP3    H117798   8.126   4.229   0.939
 5951TIP3    H217799   8.064   4.206   0.803
 5952TIP3   OH217800   0.416   1.011   0.623
 5952TIP3    H117801   0.429   1.106   0.627
 5952TIP3    H217802   0.504   0.975   0.612
 5953TIP3   OH217803   4.798   2.870   4.446
 5953TIP3    H117804   4.755   2.859   4.531
 5953TIP3    H217805   4.806   2.782   4.412
 5954TIP3   OH217806   5.440   5.043   3.502
 5954TIP3    H117807   5.362   5.053   3.557
 5954TIP3    H217808   5.412   5.073   3.416
 5955TIP3   OH217809   4.727   6.287   2.618
 5955TIP3    H117810   4.776   6.315   2.696
 5955TIP3    H217811   4.636   6.279   2.649
 5956TIP3   OH217812   7.097   1.025   0.649
 5956TIP3    H117813   7.050   1.096   0.690
 5956TIP3    H217814   7.059   1.018   0.561
 5957TIP3   OH217815   5.140   2.088   4.936
 5957TIP3    H117816   5.165   1.997   4.923
 5957TIP3    H217817   5.190   2.116   5.012
 5958TIP3   OH217818   6.658   6.160   5.681
 5958TIP3    H117819   6.735   6.154   5.738
 5958TIP3    H217820   6.611   6.237   5.713
 5959TIP3   OH217821   0.232   2.270   2.904
 5959TIP3    H117822   0.291   2.332   2.860
 5959TIP3    H217823   0.278   2.246   2.984
 5960TIP3   OH217824   3.398   4.343   2.573
 5960TIP3    H117825   3.351   4.275   2.622
 5960TIP3    H217826   3.416   4.303   2.488
 5961TIP3   OH217827   3.081   3.859   3.390
 5961TIP3    H117828   3.148   3.920   3.359
 5961TIP3    H217829   3.119   3.819   3.468
 5962TIP3   OH217830   5.585   0.354   2.298
 5962TIP3    H117831   5.634   0.280   2.263
 5962TIP3    H217832   5.547   0.397   2.221
 5963TIP3   OH217833   7.177   1.301   4.074
 5963TIP3    H117834   7.255   1.283   4.126
 5963TIP3    H217835   7.178   1.395   4.061
 5964TIP3   OH217836   3.899   5.266   0.913
 5964TIP3    H117837   3.883   5.214   0.992
 5964TIP3    H217838   3.932   5.350   0.945
 5965TIP3   OH217839   7.194   4.567   1.585
 5965TIP3    H117840   7.163   4.572   1.495
 5965TIP3    H217841   7.236   4.481   1.591
 5966TIP3   OH217842   7.150   1.123   5.204
 5966TIP3    H117843   7.124   1.206   5.244
 5966TIP3    H217844   7.110   1.125   5.117
 5967TIP3   OH217845   6.927   4.479   6.150
 5967TIP3    H117846   6.868   4.504   6.079
 5967TIP3    H217847   7.003   4.536   6.138
 5968TIP3   OH217848   4.462   3.528   0.031
 5968TIP3    H117849   4.549   3.503   0.000
 5968TIP3    H217850   4.455   3.489   0.118
 5969TIP3   OH217851   4.085   7.692   3.664
 5969TIP3    H117852   4.155   7.716   3.725
 5969TIP3    H217853   4.007   7.737   3.698
 5970TIP3   OH217854   0.182   2.736   0.257
 5970TIP3    H117855   0.212   2.645   0.254
 5970TIP3    H217856   0.260   2.786   0.280
 5971TIP3   OH217857   2.041   7.478   2.614
 5971TIP3    H117858   1.959   7.493   2.567
 5971TIP3    H217859   2.033   7.533   2.693
 5972TIP3   OH217860   6.894   5.438   2.604
 5972TIP3    H117861   6.816   5.430   2.550
 5972TIP3    H217862   6.966   5.443   2.542
 5973TIP3   OH217863   4.934   3.312   5.485
 5973TIP3    H117864   4.871   3.247   5.516
 5973TIP3    H217865   4.979   3.341   5.565
 5974TIP3   OH217866   8.160   4.807   1.596
 5974TIP3    H117867   8.074   4.844   1.575
 5974TIP3    H217868   8.202   4.871   1.653
 5975TIP3   OH217869   5.590   3.807   3.649
 5975TIP3    H117870   5.588   3.725   3.699
 5975TIP3    H217871   5.550   3.785   3.565
 5976TIP3   OH217872   2.959   7.271   1.429
 5976TIP3    H117873   2.901   7.340   1.463
 5976TIP3    H217874   2.899   7.210   1.386
 5977TIP3   OH217875   5.414   6.061   4.172
 5977TIP3    H117876   5.389   6.108   4.251
 5977TIP3    H217877   5.376   5.973   4.183
 5978TIP3   OH217878   7.410   0.915   5.154
 5978TIP3    H117879   7.361   0.997   5.166
 5978TIP3    H217880   7.474   0.915   5.225
 5979TIP3   OH217881   3.228   5.156   1.919
 5979TIP3    H117882   3.143   5.199   1.908
 5979TIP3    H217883   3.291   5.228   1.924
 5980TIP3   OH217884   4.423   5.048   3.263
 5980TIP3    H117885   4.380   5.004   3.335
 5980TIP3    H217886   4.352   5.072   3.203
 5981TIP3   OH217887   4.389   0.649   2.455
 5981TIP3    H117888   4.376   0.706   2.379
 5981TIP3    H217889   4.477   0.614   2.443
 5982TIP3   OH217890   3.633   5.922   6.505
 5982TIP3    H117891   3.624   5.920   6.409
 5982TIP3    H217892   3.662   5.834   6.528
 5983TIP3   OH217893   0.794   2.713   0.224
 5983TIP3    H117894   0.742   2.632   0.223
 5983TIP3    H217895   0.803   2.734   0.317
 5984TIP3   OH217896   3.915   2.211   4.727
 5984TIP3    H117897   3.954   2.294   4.754
 5984TIP3    H217898   3.917   2.157   4.806
 5985TIP3   OH217899   2.250   2.874   5.152
 5985TIP3    H117900   2.234   2.928   5.229
 5985TIP3    H217901   2.163   2.842   5.127
 5986TIP3   OH217902   0.257   0.807   1.014
 5986TIP3    H117903   0.229   0.761   0.934
 5986TIP3    H217904   0.204   0.886   1.015
 5987TIP3   OH217905   5.838   6.773   2.164
 5987TIP3    H117906   5.866   6.699   2.219
 5987TIP3    H217907   5.880   6.757   2.080
 5988TIP3   OH217908   5.594   3.448   6.531
 5988TIP3    H117909   5.687   3.470   6.533
 5988TIP3    H217910   5.589   3.360   6.567
 5989TIP3   OH217911   3.265   4.006   4.970
 5989TIP3    H117912   3.203   4.011   5.043
 5989TIP3    H217913   3.344   3.966   5.008
 5990TIP3   OH217914   3.787   3.164   2.691
 5990TIP3    H117915   3.859   3.111   2.657
 5990TIP3    H217916   3.791   3.151   2.786
 5991TIP3   OH217917   3.052   6.864   3.213
 5991TIP3    H117918   3.100   6.801   3.160
 5991TIP3    H217919   2.967   6.823   3.228
 5992TIP3   OH217920   3.905   5.886   6.304
 5992TIP3    H117921   3.957   5.821   6.256
 5992TIP3    H217922   3.968   5.931   6.361
 5993TIP3   OH217923   1.595   3.788   3.787
 5993TIP3    H117924   1.645   3.856   3.742
 5993TIP3    H217925   1.560   3.831   3.865
 5994TIP3   OH217926   4.474   6.278   6.068
 5994TIP3    H117927   4.483   6.228   5.988
 5994TIP3    H217928   4.472   6.369   6.040
 5995TIP3   OH217929   0.410   7.703   3.795
 5995TIP3    H117930   0.362   7.786   3.796
 5995TIP3    H217931   0.366   7.650   3.861
 5996TIP3   OH217932   6.967   2.965   0.023
 5996TIP3    H117933   6.952   2.925   0.108
 5996TIP3    H217934   6.973   3.059   0.041
 5997TIP3   OH217935   5.106   4.207   1.514
 5997TIP3    H117936   5.078   4.263   1.442
 5997TIP3    H217937   5.083   4.257   1.593
 5998TIP3   OH217938   2.953   6.936   1.213
 5998TIP3    H117939   3.044   6.965   1.202
 5998TIP3    H217940   2.918   6.933   1.124
 5999TIP3   OH217941   6.935   6.684   1.045
 5999TIP3    H117942   6.992   6.753   1.080
 5999TIP3    H217943   6.847   6.710   1.073
 6000TIP3   OH217944   7.904   6.959   5.332
 6000TIP3    H117945   7.989   6.994   5.358
 6000TIP3    H217946   7.912   6.864   5.342
 6001TIP3   OH217947   6.320   3.525   4.291
 6001TIP3    H117948   6.374   3.448   4.307
 6001TIP3    H217949   6.382   3.595   4.270
 6002TIP3   OH217950   4.688   2.347   2.469
 6002TIP3    H117951   4.746   2.331   2.543
 6002TIP3    H217952   4.686   2.264   2.421
 6003TIP3   OH217953   2.487   5.608   1.499
 6003TIP3    H117954   2.448   5.628   1.584
 6003TIP3    H217955   2.435   5.535   1.465
 6004TIP3   OH217956   8.339   3.514   1.388
 6004TIP3    H117957   8.285   3.582   1.348
 6004TIP3    H217958   8.276   3.454   1.428
 6005TIP3   OH217959   7.058   3.223   0.939
 6005TIP3    H117960   7.084   3.300   0.888
 6005TIP3    H217961   7.139   3.172   0.949
 6006TIP3   OH217962   1.641   2.425   5.908
 6006TIP3    H117963   1.564   2.393   5.956
 6006TIP3    H217964   1.633   2.520   5.910
 6007TIP3   OH217965   0.510   7.443   1.372
 6007TIP3    H117966   0.541   7.429   1.461
 6007TIP3    H217967   0.527   7.360   1.327
 6008TIP3   OH217968   2.314   7.834   2.330
 6008TIP3    H117969   2.382   7.771   2.309
 6008TIP3    H217970   2.236   7.802   2.283
 6009TIP3   OH217971   2.106   5.557   6.709
 6009TIP3    H117972   2.068   5.627   6.654
 6009TIP3    H217973   2.075   5.577   6.797
 6010TIP3   OH217974   3.824   6.052   5.443
 6010TIP3    H117975   3.738   6.095   5.447
 6010TIP3    H217976   3.812   5.968   5.486
 6011TIP3   OH217977   8.308   7.442   0.265
 6011TIP3    H117978   8.355   7.525   0.258
 6011TIP3    H217979   8.237   7.460   0.327
 6012TIP3   OH217980   7.792   0.133   2.508
 6012TIP3    H117981   7.836   0.050   2.526
 6012TIP3    H217982   7.859   0.199   2.524
 6013TIP3   OH217983   3.904   7.119   3.090
 6013TIP3    H117984   3.899   7.087   3.000
 6013TIP3    H217985   3.986   7.169   3.093
 6014TIP3   OH217986   2.488   2.310   2.592
 6014TIP3    H117987   2.406   2.278   2.554
 6014TIP3    H217988   2.534   2.351   2.518
 6015TIP3   OH217989   1.854   2.013   1.219
 6015TIP3    H117990   1.854   2.017   1.123
 6015TIP3    H217991   1.943   1.985   1.241
 6016TIP3   OH217992   6.657   4.008   5.531
 6016TIP3    H117993   6.578   4.055   5.556
 6016TIP3    H217994   6.670   4.030   5.438
 6017TIP3   OH217995   7.708   6.736   4.554
 6017TIP3    H117996   7.661   6.747   4.472
 6017TIP3    H217997   7.734   6.825   4.580
 6018TIP3   OH217998   3.685   6.156   0.943
 6018TIP3    H117999   3.733   6.192   1.018
 6018TIP3    H218000   3.664   6.233   0.889
 6019TIP3   OH218001   1.684   6.141   2.946
 6019TIP3    H118002   1.635   6.179   3.020
 6019TIP3    H218003   1.718   6.217   2.899
 6020TIP3   OH218004   7.237   3.084   3.939
 6020TIP3    H118005   7.224   3.177   3.920
 6020TIP3    H218006   7.331   3.071   3.929
 6021TIP3   OH218007   2.558   7.602   5.729
 6021TIP3    H118008   2.601   7.686   5.713
 6021TIP3    H218009   2.552   7.595   5.824
 6022TIP3   OH218010   3.058   0.089   2.457
 6022TIP3    H118011   3.102   0.070   2.374
 6022TIP3    H218012   3.130   0.096   2.520
 6023TIP3   OH218013   5.295   6.398   3.508
 6023TIP3    H118014   5.248   6.442   3.436
 6023TIP3    H218015   5.387   6.400   3.481
 6024TIP3   OH218016   5.096   7.544   4.378
 6024TIP3    H118017   5.084   7.459   4.420
 6024TIP3    H218018   5.044   7.539   4.297
 6025TIP3   OH218019   1.373   4.003   6.049
 6025TIP3    H118020   1.459   4.045   6.058
 6025TIP3    H218021   1.345   4.025   5.960
 6026TIP3   OH218022   4.788   4.362   4.780
 6026TIP3    H118023   4.785   4.426   4.851
 6026TIP3    H218024   4.866   4.310   4.798
 6027TIP3   OH218025   5.358   7.354   3.504
 6027TIP3    H118026   5.379   7.354   3.597
 6027TIP3    H218027   5.376   7.265   3.475
 6028TIP3   OH218028   4.572   1.053   5.043
 6028TIP3    H118029   4.666   1.050   5.062
 6028TIP3    H218030   4.556   0.974   4.992
 6029TIP3   OH218031   0.742   4.929   0.597
 6029TIP3    H118032   0.654   4.891   0.599
 6029TIP3    H218033   0.766   4.929   0.504
 6030TIP3   OH218034   2.272   7.741   3.200
 6030TIP3    H118035   2.311   7.722   3.286
 6030TIP3    H218036   2.319   7.817   3.168
 6031TIP3   OH218037   2.968   5.836   0.299
 6031TIP3    H118038   3.001   5.823   0.388
 6031TIP3    H218039   2.934   5.751   0.273
 6032TIP3   OH218040   5.858   6.447   4.024
 6032TIP3    H118041   5.822   6.525   3.981
 6032TIP3    H218042   5.946   6.437   3.986
 6033TIP3   OH218043   4.693   5.356   2.733
 6033TIP3    H118044   4.632   5.412   2.686
 6033TIP3    H218045   4.711   5.402   2.815
 6034TIP3   OH218046   5.444   1.465   2.154
 6034TIP3    H118047   5.537   1.461   2.134
 6034TIP3    H218048   5.414   1.544   2.109
 6035TIP3   OH218049   5.376   3.979   5.196
 6035TIP3    H118050   5.457   4.028   5.206
 6035TIP3    H218051   5.404   3.888   5.189
 6036TIP3   OH218052   6.857   2.698   5.023
 6036TIP3    H118053   6.766   2.713   4.995
 6036TIP3    H218054   6.890   2.784   5.046
 6037TIP3   OH218055   2.912   7.725   2.796
 6037TIP3    H118056   2.925   7.806   2.845
 6037TIP3    H218057   2.880   7.662   2.861
 6038TIP3   OH218058   7.542   1.191   5.514
 6038TIP3    H118059   7.492   1.155   5.441
 6038TIP3    H218060   7.568   1.115   5.566
 6039TIP3   OH218061   1.411   4.371   3.593
 6039TIP3    H118062   1.350   4.433   3.634
 6039TIP3    H218063   1.374   4.355   3.506
 6040TIP3   OH218064   3.903   7.633   2.676
 6040TIP3    H118065   3.993   7.657   2.697
 6040TIP3    H218066   3.880   7.566   2.740
 6041TIP3   OH218067   5.773   4.661   3.426
 6041TIP3    H118068   5.744   4.752   3.432
 6041TIP3    H218069   5.716   4.621   3.360
 6042TIP3   OH218070   2.194   6.240   6.133
 6042TIP3    H118071   2.157   6.236   6.045
 6042TIP3    H218072   2.126   6.202   6.189
 6043TIP3   OH218073   5.497   4.366   3.461
 6043TIP3    H118074   5.514   4.404   3.547
 6043TIP3    H218075   5.566   4.401   3.405
 6044TIP3   OH218076   4.956   7.138   0.290
 6044TIP3    H118077   4.885   7.202   0.288
 6044TIP3    H218078   4.912   7.054   0.279
 6045TIP3   OH218079   2.878   2.981   5.329
 6045TIP3    H118080   2.816   2.997   5.400
 6045TIP3    H218081   2.863   2.890   5.305
 6046TIP3   OH218082   1.677   6.235   0.630
 6046TIP3    H118083   1.707   6.174   0.563
 6046TIP3    H218084   1.752   6.246   0.688
 6047TIP3   OH218085   6.278   1.231   3.603
 6047TIP3    H118086   6.285   1.154   3.660
 6047TIP3    H218087   6.194   1.270   3.626
 6048TIP3   OH218088   2.460   0.996   3.478
 6048TIP3    H118089   2.366   0.980   3.487
 6048TIP3    H218090   2.500   0.943   3.548
 6049TIP3   OH218091   0.124   6.577   4.505
 6049TIP3    H118092   0.111   6.629   4.585
 6049TIP3    H218093   0.200   6.617   4.463
 6050TIP3   OH218094   1.561   3.648   1.787
 6050TIP3    H118095   1.618   3.635   1.863
 6050TIP3    H218096   1.611   3.613   1.713
 6051TIP3   OH218097   5.080   1.293   1.839
 6051TIP3    H118098   5.077   1.238   1.760
 6051TIP3    H218099   5.048   1.236   1.909
 6052TIP3   OH218100   3.098   2.712   4.956
 6052TIP3    H118101   3.191   2.698   4.972
 6052TIP3    H218102   3.054   2.659   5.022
 6053TIP3   OH218103   0.538   2.853   3.424
 6053TIP3    H118104   0.630   2.846   3.452
 6053TIP3    H218105   0.529   2.944   3.394
 6054TIP3   OH218106   0.743   3.683   5.940
 6054TIP3    H118107   0.741   3.767   5.986
 6054TIP3    H218108   0.835   3.670   5.917
 6055TIP3   OH218109   2.728   1.534   1.763
 6055TIP3    H118110   2.804   1.537   1.821
 6055TIP3    H218111   2.654   1.515   1.821
 6056TIP3   OH218112   4.681   4.668   4.436
 6056TIP3    H118113   4.752   4.633   4.383
 6056TIP3    H218114   4.663   4.600   4.501
 6057TIP3   OH218115   7.177   6.842   3.454
 6057TIP3    H118116   7.147   6.805   3.536
 6057TIP3    H218117   7.118   6.916   3.437
 6058TIP3   OH218118   2.176   0.582   6.590
 6058TIP3    H118119   2.130   0.513   6.542
 6058TIP3    H218120   2.129   0.662   6.568
 6059TIP3   OH218121   7.382   6.826   1.181
 6059TIP3    H118122   7.311   6.763   1.192
 6059TIP3    H218123   7.443   6.785   1.120
 6060TIP3   OH218124   3.511   7.322   1.611
 6060TIP3    H118125   3.573   7.306   1.540
 6060TIP3    H218126   3.560   7.302   1.691
 6061TIP3   OH218127   3.777   4.670   2.347
 6061TIP3    H118128   3.784   4.587   2.300
 6061TIP3    H218129   3.868   4.696   2.364
 6062TIP3   OH218130   5.237   3.080   5.878
 6062TIP3    H118131   5.219   3.169   5.910
 6062TIP3    H218132   5.332   3.077   5.869
 6063TIP3   OH218133   1.443   5.809   4.908
 6063TIP3    H118134   1.491   5.892   4.912
 6063TIP3    H218135   1.486   5.753   4.972
 6064TIP3   OH218136   0.284   1.001   5.909
 6064TIP3    H118137   0.337   1.081   5.906
 6064TIP3    H218138   0.259   0.992   6.001
 6065TIP3   OH218139   0.105   4.052   0.380
 6065TIP3    H118140   0.028   4.055   0.436
 6065TIP3    H218141   0.092   3.975   0.325
 6066TIP3   OH218142   5.067   1.862   0.885
 6066TIP3    H118143   5.044   1.809   0.961
 6066TIP3    H218144   5.099   1.945   0.922
 6067TIP3   OH218145   0.161   4.028   2.839
 6067TIP3    H118146   0.069   4.020   2.814
 6067TIP3    H218147   0.203   3.951   2.801
 6068TIP3   OH218148   7.099   5.333   5.226
 6068TIP3    H118149   7.037   5.287   5.282
 6068TIP3    H218150   7.101   5.422   5.261
 6069TIP3   OH218151   7.046   2.135   5.691
 6069TIP3    H118152   7.028   2.228   5.683
 6069TIP3    H218153   7.087   2.125   5.777
 6070TIP3   OH218154   7.871   0.658   0.208
 6070TIP3    H118155   7.811   0.710   0.155
 6070TIP3    H218156   7.855   0.567   0.182
 6071TIP3   OH218157   4.122   5.475   1.118
 6071TIP3    H118158   4.035   5.508   1.093
 6071TIP3    H218159   4.105   5.385   1.147
 6072TIP3   OH218160   6.818   1.011   2.857
 6072TIP3    H118161   6.771   0.934   2.825
 6072TIP3    H218162   6.887   1.025   2.793
 6073TIP3   OH218163   7.367   4.004   6.468
 6073TIP3    H118164   7.311   4.028   6.394
 6073TIP3    H218165   7.352   3.911   6.480
 6074TIP3   OH218166   2.667   1.252   1.967
 6074TIP3    H118167   2.756   1.261   2.002
 6074TIP3    H218168   2.678   1.250   1.872
 6075TIP3   OH218169   1.774   6.301   4.216
 6075TIP3    H118170   1.753   6.389   4.249
 6075TIP3    H218171   1.810   6.255   4.292
 6076TIP3   OH218172   3.149   1.940   0.549
 6076TIP3    H118173   3.211   2.007   0.519
 6076TIP3    H218174   3.114   1.975   0.630
 6077TIP3   OH218175   7.714   6.166   4.910
 6077TIP3    H118176   7.741   6.246   4.865
 6077TIP3    H218177   7.657   6.121   4.848
 6078TIP3   OH218178   3.519   5.165   6.653
 6078TIP3    H118179   3.455   5.170   6.724
 6078TIP3    H218180   3.596   5.210   6.687
 6079TIP3   OH218181   1.833   6.965   2.755
 6079TIP3    H118182   1.797   7.020   2.826
 6079TIP3    H218183   1.928   6.980   2.760
 6080TIP3   OH218184   2.313   6.273   5.468
 6080TIP3    H118185   2.354   6.235   5.390
 6080TIP3    H218186   2.259   6.344   5.435
 6081TIP3   OH218187   6.815   6.099   4.247
 6081TIP3    H118188   6.779   6.010   4.245
 6081TIP3    H218189   6.856   6.107   4.333
 6082TIP3   OH218190   0.263   2.333   3.855
 6082TIP3    H118191   0.171   2.322   3.878
 6082TIP3    H218192   0.264   2.325   3.759
 6083TIP3   OH218193   2.358   2.486   2.852
 6083TIP3    H118194   2.329   2.424   2.786
 6083TIP3    H218195   2.436   2.527   2.814
 6084TIP3   OH218196   6.625   0.483   0.157
 6084TIP3    H118197   6.597   0.574   0.165
 6084TIP3    H218198   6.691   0.472   0.225
 6085TIP3   OH218199   1.120   0.166   2.479
 6085TIP3    H118200   1.214   0.149   2.481
 6085TIP3    H218201   1.102   0.215   2.559
 6086TIP3   OH218202   1.460   5.717   1.071
 6086TIP3    H118203   1.370   5.724   1.105
 6086TIP3    H218204   1.463   5.630   1.031
 6087TIP3   OH218205   5.674   2.194   5.613
 6087TIP3    H118206   5.718   2.129   5.667
 6087TIP3    H218207   5.737   2.267   5.608
 6088TIP3   OH218208   2.745   3.962   0.867
 6088TIP3    H118209   2.807   4.034   0.856
 6088TIP3    H218210   2.784   3.888   0.820
 6089TIP3   OH218211   1.545   6.216   5.130
 6089TIP3    H118212   1.509   6.166   5.057
 6089TIP3    H218213   1.481   6.286   5.145
 6090TIP3   OH218214   5.446   5.872   1.179
 6090TIP3    H118215   5.417   5.927   1.253
 6090TIP3    H218216   5.365   5.839   1.142
 6091TIP3   OH218217   0.147   7.085   5.400
 6091TIP3    H118218   0.168   6.998   5.366
 6091TIP3    H218219   0.116   7.133   5.324
 6092TIP3   OH218220   1.470   1.835   4.153
 6092TIP3    H118221   1.496   1.911   4.205
 6092TIP3    H218222   1.532   1.766   4.178
 6093TIP3   OH218223   4.045   5.650   0.440
 6093TIP3    H118224   4.014   5.692   0.520
 6093TIP3    H218225   3.965   5.626   0.393
 6094TIP3   OH218226   4.273   1.669   6.011
 6094TIP3    H118227   4.318   1.672   5.926
 6094TIP3    H218228   4.204   1.735   6.003
 6095TIP3   OH218229   7.651   4.002   0.538
 6095TIP3    H118230   7.561   4.024   0.512
 6095TIP3    H218231   7.706   4.054   0.479
 6096TIP3   OH218232   7.766   3.023   5.846
 6096TIP3    H118233   7.829   2.957   5.875
 6096TIP3    H218234   7.681   2.979   5.851
 6097TIP3   OH218235   4.244   7.786   0.965
 6097TIP3    H118236   4.164   7.785   0.913
 6097TIP3    H218237   4.225   7.732   1.042
 6098TIP3   OH218238   1.084   6.159   1.404
 6098TIP3    H118239   1.082   6.236   1.460
 6098TIP3    H218240   1.127   6.092   1.457
 6099TIP3   OH218241   6.448   1.866   3.649
 6099TIP3    H118242   6.428   1.856   3.742
 6099TIP3    H218243   6.388   1.807   3.605
 6100TIP3   OH218244   2.589   0.873   3.151
 6100TIP3    H118245   2.600   0.891   3.058
 6100TIP3    H218246   2.497   0.893   3.169
 6101TIP3   OH218247   8.152   5.940   2.920
 6101TIP3    H118248   8.197   6.022   2.898
 6101TIP3    H218249   8.113   5.955   3.005
 6102TIP3   OH218250   0.522   0.184   2.741
 6102TIP3    H118251   0.505   0.220   2.654
 6102TIP3    H218252   0.525   0.261   2.798
 6103TIP3   OH218253   2.544   7.000   1.157
 6103TIP3    H118254   2.520   7.090   1.135
 6103TIP3    H218255   2.614   6.978   1.095
 6104TIP3   OH218256   3.853   0.700   3.769
 6104TIP3    H118257   3.839   0.726   3.678
 6104TIP3    H218258   3.879   0.781   3.813
 6105TIP3   OH218259   6.053   4.252   1.361
 6105TIP3    H118260   5.959   4.240   1.360
 6105TIP3    H218261   6.087   4.170   1.397
 6106TIP3   OH218262   2.987   7.630   2.548
 6106TIP3    H118263   2.963   7.664   2.635
 6106TIP3    H218264   2.935   7.682   2.487
 6107TIP3   OH218265   5.377   0.287   3.225
 6107TIP3    H118266   5.442   0.218   3.234
 6107TIP3    H218267   5.425   0.363   3.194
 6108TIP3   OH218268   1.772   0.959   2.042
 6108TIP3    H118269   1.786   1.013   2.120
 6108TIP3    H218270   1.718   1.013   1.984
 6109TIP3   OH218271   8.062   3.967   1.386
 6109TIP3    H118272   7.969   3.944   1.389
 6109TIP3    H218273   8.098   3.933   1.468
 6110TIP3   OH218274   8.175   6.976   5.408
 6110TIP3    H118275   8.227   6.908   5.366
 6110TIP3    H218276   8.231   7.012   5.477
 6111TIP3   OH218277   0.942   5.487   0.545
 6111TIP3    H118278   0.963   5.568   0.593
 6111TIP3    H218279   0.996   5.420   0.586
 6112TIP3   OH218280   0.891   7.255   0.253
 6112TIP3    H118281   0.814   7.198   0.258
 6112TIP3    H218282   0.911   7.261   0.160
 6113TIP3   OH218283   2.276   5.282   6.014
 6113TIP3    H118284   2.344   5.225   6.049
 6113TIP3    H218285   2.273   5.262   5.921
 6114TIP3   OH218286   4.524   5.382   5.713
 6114TIP3    H118287   4.436   5.386   5.676
 6114TIP3    H218288   4.582   5.381   5.636
 6115TIP3   OH218289   1.193   0.426   5.145
 6115TIP3    H118290   1.139   0.378   5.208
 6115TIP3    H218291   1.172   0.518   5.160
 6116TIP3   OH218292   5.260   5.372   4.583
 6116TIP3    H118293   5.355   5.363   4.581
 6116TIP3    H218294   5.245   5.466   4.592
 6117TIP3   OH218295   0.340   3.170   5.882
 6117TIP3    H118296   0.363   3.243   5.940
 6117TIP3    H218297   0.245   3.167   5.883
 6118TIP3   OH218298   4.785   5.955   3.350
 6118TIP3    H118299   4.870   5.920   3.323
 6118TIP3    H218300   4.737   5.878   3.381
 6119TIP3   OH218301   6.675   4.790   1.898
 6119TIP3    H118302   6.716   4.866   1.940
 6119TIP3    H218303   6.618   4.828   1.831
 6120TIP3   OH218304   0.554   4.989   1.310
 6120TIP3    H118305   0.597   4.974   1.394
 6120TIP3    H218306   0.587   4.919   1.253
 6121TIP3   OH218307   0.050   0.771   6.174
 6121TIP3    H118308  -0.032   0.725   6.154
 6121TIP3    H218309   0.022   0.861   6.195
 6122TIP3   OH218310   1.411   3.617   2.485
 6122TIP3    H118311   1.477   3.677   2.521
 6122TIP3    H218312   1.344   3.674   2.447
 6123TIP3   OH218313   7.830   2.606   3.568
 6123TIP3    H118314   7.859   2.632   3.481
 6123TIP3    H218315   7.895   2.645   3.627
 6124TIP3   OH218316   5.930   7.362   6.032
 6124TIP3    H118317   6.004   7.306   6.008
 6124TIP3    H218318   5.919   7.419   5.956
 6125TIP3   OH218319   5.328   5.458   3.965
 6125TIP3    H118320   5.372   5.524   3.912
 6125TIP3    H218321   5.236   5.482   3.962
 6126TIP3   OH218322   0.932   3.634   4.554
 6126TIP3    H118323   0.879   3.560   4.582
 6126TIP3    H218324   0.887   3.668   4.477
 6127TIP3   OH218325   3.065   4.473   3.079
 6127TIP3    H118326   3.054   4.396   3.023
 6127TIP3    H218327   3.080   4.545   3.017
 6128TIP3   OH218328   5.874   7.062   4.326
 6128TIP3    H118329   5.891   7.036   4.416
 6128TIP3    H218330   5.921   6.998   4.273
 6129TIP3   OH218331   8.132   5.247   1.543
 6129TIP3    H118332   8.049   5.289   1.520
 6129TIP3    H218333   8.138   5.173   1.482
 6130TIP3   OH218334   5.339   5.905   5.964
 6130TIP3    H118335   5.402   5.844   5.925
 6130TIP3    H218336   5.394   5.970   6.007
 6131TIP3   OH218337   6.024   0.663   3.325
 6131TIP3    H118338   6.028   0.605   3.249
 6131TIP3    H218339   5.944   0.713   3.313
 6132TIP3   OH218340   4.402   7.329   5.267
 6132TIP3    H118341   4.349   7.313   5.344
 6132TIP3    H218342   4.465   7.397   5.294
 6133TIP3   OH218343   0.247   4.889   0.689
 6133TIP3    H118344   0.287   4.809   0.725
 6133TIP3    H218345   0.153   4.877   0.703
 6134TIP3   OH218346   4.399   2.576   0.982
 6134TIP3    H118347   4.320   2.583   0.930
 6134TIP3    H218348   4.374   2.609   1.068
 6135TIP3   OH218349   0.593   1.484   4.653
 6135TIP3    H118350   0.687   1.476   4.634
 6135TIP3    H218351   0.569   1.571   4.622
 6136TIP3   OH218352   1.023   4.615   3.235
 6136TIP3    H118353   0.976   4.676   3.293
 6136TIP3    H218354   1.018   4.657   3.149
 6137TIP3   OH218355   6.527   1.745   1.138
 6137TIP3    H118356   6.605   1.718   1.185
 6137TIP3    H218357   6.526   1.840   1.146
 6138TIP3   OH218358   0.779   4.389   2.737
 6138TIP3    H118359   0.867   4.420   2.757
 6138TIP3    H218360   0.792   4.313   2.680
 6139TIP3   OH218361   4.039   2.066   2.962
 6139TIP3    H118362   4.038   1.971   2.955
 6139TIP3    H218363   3.980   2.096   2.894
 6140TIP3   OH218364   1.775   3.987   4.048
 6140TIP3    H118365   1.795   4.067   4.098
 6140TIP3    H218366   1.680   3.978   4.054
 6141TIP3   OH218367   5.871   4.888   0.296
 6141TIP3    H118368   5.897   4.979   0.310
 6141TIP3    H218369   5.950   4.845   0.264
 6142TIP3   OH218370   3.909   4.631   4.063
 6142TIP3    H118371   3.823   4.604   4.030
 6142TIP3    H218372   3.907   4.610   4.156
 6143TIP3   OH218373   4.631   4.130   0.705
 6143TIP3    H118374   4.609   4.129   0.612
 6143TIP3    H218375   4.592   4.211   0.738
 6144TIP3   OH218376   6.961   4.163   0.889
 6144TIP3    H118377   6.897   4.130   0.826
 6144TIP3    H218378   6.922   4.245   0.922
 6145TIP3   OH218379   4.283   0.658   1.111
 6145TIP3    H118380   4.223   0.668   1.185
 6145TIP3    H218381   4.288   0.563   1.098
 6146TIP3   OH218382   1.932   6.919   6.409
 6146TIP3    H118383   1.948   6.829   6.381
 6146TIP3    H218384   1.877   6.957   6.340
 6147TIP3   OH218385   1.314   3.088   4.175
 6147TIP3    H118386   1.282   3.082   4.265
 6147TIP3    H218387   1.272   3.167   4.140
 6148TIP3   OH218388   4.529   0.464   0.606
 6148TIP3    H118389   4.557   0.375   0.629
 6148TIP3    H218390   4.598   0.496   0.548
 6149TIP3   OH218391   4.884   1.645   0.746
 6149TIP3    H118392   4.929   1.664   0.663
 6149TIP3    H218393   4.820   1.715   0.755
 6150TIP3   OH218394   7.294   4.780   5.903
 6150TIP3    H118395   7.327   4.760   5.815
 6150TIP3    H218396   7.269   4.872   5.898
 6151TIP3   OH218397   6.476   0.257   1.275
 6151TIP3    H118398   6.440   0.324   1.218
 6151TIP3    H218399   6.485   0.300   1.360
 6152TIP3   OH218400   6.527   5.310   2.222
 6152TIP3    H118401   6.449   5.285   2.171
 6152TIP3    H218402   6.535   5.404   2.208
 6153TIP3   OH218403   3.429   6.520   3.808
 6153TIP3    H118404   3.431   6.447   3.745
 6153TIP3    H218405   3.370   6.584   3.769
 6154TIP3   OH218406   0.511   7.686   5.797
 6154TIP3    H118407   0.522   7.767   5.848
 6154TIP3    H218408   0.469   7.625   5.858
 6155TIP3   OH218409  -0.031   4.867   6.011
 6155TIP3    H118410   0.020   4.943   6.040
 6155TIP3    H218411   0.027   4.792   6.026
 6156TIP3   OH218412   5.760   6.569   1.350
 6156TIP3    H118413   5.827   6.501   1.359
 6156TIP3    H218414   5.805   6.650   1.376
 6157TIP3   OH218415   0.396   6.026   1.171
 6157TIP3    H118416   0.465   6.077   1.213
 6157TIP3    H218417   0.370   5.963   1.238
 6158TIP3   OH218418   4.671   5.136   3.365
 6158TIP3    H118419   4.584   5.111   3.335
 6158TIP3    H218420   4.686   5.081   3.443
 6159TIP3   OH218421   2.467   1.460   2.575
 6159TIP3    H118422   2.440   1.543   2.538
 6159TIP3    H218423   2.408   1.446   2.649
 6160TIP3   OH218424   0.921   2.746   6.618
 6160TIP3    H118425   0.829   2.725   6.604
 6160TIP3    H218426   0.935   2.733   6.711
 6161TIP3   OH218427   0.647   3.640   3.026
 6161TIP3    H118428   0.552   3.650   3.031
 6161TIP3    H218429   0.672   3.607   3.112
 6162TIP3   OH218430   8.134   1.413   2.734
 6162TIP3    H118431   8.137   1.487   2.673
 6162TIP3    H218432   8.213   1.423   2.787
 6163TIP3   OH218433   7.470   2.616   3.270
 6163TIP3    H118434   7.549   2.564   3.255
 6163TIP3    H218435   7.401   2.569   3.224
 6164TIP3   OH218436   0.720   0.631   0.209
 6164TIP3    H118437   0.680   0.705   0.165
 6164TIP3    H218438   0.791   0.604   0.151
 6165TIP3   OH218439   7.283   3.156   1.233
 6165TIP3    H118440   7.370   3.159   1.274
 6165TIP3    H218441   7.276   3.239   1.186
 6166TIP3   OH218442   4.428   7.553   0.519
 6166TIP3    H118443   4.520   7.529   0.506
 6166TIP3    H218444   4.420   7.638   0.477
 6167TIP3   OH218445   7.155   4.224   5.861
 6167TIP3    H118446   7.233   4.168   5.871
 6167TIP3    H218447   7.170   4.271   5.779
 6168TIP3   OH218448   7.300   1.177   6.249
 6168TIP3    H118449   7.289   1.175   6.154
 6168TIP3    H218450   7.320   1.087   6.273
 6169TIP3   OH218451   4.752   7.189   2.211
 6169TIP3    H118452   4.757   7.170   2.305
 6169TIP3    H218453   4.767   7.283   2.204
 6170TIP3   OH218454   7.893   0.334   0.366
 6170TIP3    H118455   7.977   0.298   0.392
 6170TIP3    H218456   7.832   0.304   0.435
 6171TIP3   OH218457   1.274   7.026   3.628
 6171TIP3    H118458   1.338   6.970   3.672
 6171TIP3    H218459   1.189   6.988   3.651
 6172TIP3   OH218460   2.084   4.526   3.429
 6172TIP3    H118461   2.026   4.576   3.371
 6172TIP3    H218462   2.098   4.443   3.384
 6173TIP3   OH218463   7.878   5.875   3.340
 6173TIP3    H118464   7.866   5.923   3.258
 6173TIP3    H218465   7.820   5.919   3.403
 6174TIP3   OH218466   5.446   0.108   2.090
 6174TIP3    H118467   5.384   0.126   2.020
 6174TIP3    H218468   5.403   0.140   2.169
 6175TIP3   OH218469   0.077   5.793   5.024
 6175TIP3    H118470   0.151   5.854   5.019
 6175TIP3    H218471   0.048   5.798   5.115
 6176TIP3   OH218472   7.852   7.160   2.458
 6176TIP3    H118473   7.907   7.097   2.411
 6176TIP3    H218474   7.837   7.230   2.396
 6177TIP3   OH218475   4.036   3.280   2.810
 6177TIP3    H118476   4.089   3.211   2.849
 6177TIP3    H218477   4.088   3.360   2.820
 6178TIP3   OH218478   1.628   7.683   1.352
 6178TIP3    H118479   1.535   7.707   1.351
 6178TIP3    H218480   1.628   7.588   1.336
 6179TIP3   OH218481   3.016   1.246   2.446
 6179TIP3    H118482   3.098   1.198   2.458
 6179TIP3    H218483   3.040   1.338   2.453
 6180TIP3   OH218484   8.177   6.184   1.462
 6180TIP3    H118485   8.136   6.200   1.377
 6180TIP3    H218486   8.172   6.089   1.473
 6181TIP3   OH218487   4.643   6.451   0.355
 6181TIP3    H118488   4.728   6.412   0.338
 6181TIP3    H218489   4.608   6.472   0.269
 6182TIP3   OH218490   2.163   5.838   5.035
 6182TIP3    H118491   2.234   5.890   5.072
 6182TIP3    H218492   2.131   5.892   4.962
 6183TIP3   OH218493   5.355   0.921   2.388
 6183TIP3    H118494   5.306   0.846   2.423
 6183TIP3    H218495   5.420   0.941   2.455
 6184TIP3   OH218496   3.843   0.667   6.162
 6184TIP3    H118497   3.796   0.729   6.105
 6184TIP3    H218498   3.935   0.688   6.148
 6185TIP3   OH218499   1.754   0.084   0.518
 6185TIP3    H118500   1.715   0.117   0.437
 6185TIP3    H218501   1.849   0.089   0.503
 6186TIP3   OH218502   0.995   5.157   4.222
 6186TIP3    H118503   0.933   5.168   4.294
 6186TIP3    H218504   0.956   5.206   4.149
 6187TIP3   OH218505   7.072   5.006   0.837
 6187TIP3    H118506   7.119   4.970   0.761
 6187TIP3    H218507   7.083   4.939   0.905
 6188TIP3   OH218508   5.877   6.070   4.916
 6188TIP3    H118509   5.968   6.041   4.923
 6188TIP3    H218510   5.834   6.032   4.993
 6189TIP3   OH218511   2.551   1.331   1.125
 6189TIP3    H118512   2.526   1.253   1.174
 6189TIP3    H218513   2.480   1.343   1.062
 6190TIP3   OH218514   2.914   0.054   0.342
 6190TIP3    H118515   2.877   0.142   0.339
 6190TIP3    H218516   3.001   0.065   0.380
 6191TIP3   OH218517   3.163   7.696   2.949
 6191TIP3    H118518   3.072   7.708   2.919
 6191TIP3    H218519   3.187   7.608   2.919
 6192TIP3   OH218520  -0.005   6.022   3.843
 6192TIP3    H118521   0.044   6.027   3.926
 6192TIP3    H218522   0.062   6.007   3.777
 6193TIP3   OH218523   0.870   7.641   4.059
 6193TIP3    H118524   0.892   7.654   3.967
 6193TIP3    H218525   0.782   7.603   4.058
 6194TIP3   OH218526   4.156   6.847   3.478
 6194TIP3    H118527   4.157   6.939   3.506
 6194TIP3    H218528   4.179   6.850   3.385
 6195TIP3   OH218529   5.431   2.094   5.593
 6195TIP3    H118530   5.434   1.999   5.601
 6195TIP3    H218531   5.522   2.123   5.600
 6196TIP3   OH218532   6.354   2.207   3.919
 6196TIP3    H118533   6.401   2.151   3.980
 6196TIP3    H218534   6.306   2.269   3.975
 6197TIP3   OH218535   2.783   0.979   1.972
 6197TIP3    H118536   2.815   0.934   1.894
 6197TIP3    H218537   2.765   1.069   1.943
 6198TIP3   OH218538   5.076   4.650   1.717
 6198TIP3    H118539   5.006   4.634   1.781
 6198TIP3    H218540   5.063   4.740   1.689
 6199TIP3   OH218541   2.118   0.761   5.648
 6199TIP3    H118542   2.107   0.700   5.575
 6199TIP3    H218543   2.179   0.717   5.707
 6200TIP3   OH218544   6.077   4.691   4.293
 6200TIP3    H118545   6.135   4.615   4.303
 6200TIP3    H218546   6.042   4.705   4.381
 6201TIP3   OH218547   3.239   1.175   5.780
 6201TIP3    H118548   3.203   1.180   5.691
 6201TIP3    H218549   3.223   1.085   5.807
 6202TIP3   OH218550   6.395   3.119   0.662
 6202TIP3    H118551   6.314   3.071   0.676
 6202TIP3    H218552   6.433   3.081   0.583
 6203TIP3   OH218553   4.858   6.847   5.998
 6203TIP3    H118554   4.943   6.802   5.996
 6203TIP3    H218555   4.798   6.782   6.035
 6204TIP3   OH218556   3.105   5.657   6.508
 6204TIP3    H118557   3.023   5.611   6.524
 6204TIP3    H218558   3.121   5.706   6.589
 6205TIP3   OH218559   8.305   5.553   2.372
 6205TIP3    H118560   8.349   5.526   2.292
 6205TIP3    H218561   8.212   5.538   2.355
 6206TIP3   OH218562   2.573   6.481   1.736
 6206TIP3    H118563   2.574   6.421   1.810
 6206TIP3    H218564   2.644   6.543   1.754
 6207TIP3   OH218565   2.283   2.659   1.074
 6207TIP3    H118566   2.197   2.671   1.114
 6207TIP3    H218567   2.337   2.728   1.113
 6208TIP3   OH218568   5.687   0.074   2.305
 6208TIP3    H118569   5.666   0.063   2.212
 6208TIP3    H218570   5.614   0.033   2.351
 6209TIP3   OH218571   3.198   7.166   0.691
 6209TIP3    H118572   3.246   7.113   0.627
 6209TIP3    H218573   3.264   7.193   0.755
 6210TIP3   OH218574   1.583   7.386   4.225
 6210TIP3    H118575   1.497   7.344   4.229
 6210TIP3    H218576   1.637   7.335   4.286
 6211TIP3   OH218577   6.695   6.936   2.904
 6211TIP3    H118578   6.698   6.897   2.817
 6211TIP3    H218579   6.605   6.965   2.915
 6212TIP3   OH218580   3.940   1.143   1.626
 6212TIP3    H118581   3.899   1.067   1.667
 6212TIP3    H218582   4.016   1.108   1.581
 6213TIP3   OH218583   1.825   1.259   1.468
 6213TIP3    H118584   1.837   1.354   1.468
 6213TIP3    H218585   1.730   1.247   1.477
 6214TIP3   OH218586   0.870   0.911   2.388
 6214TIP3    H118587   0.792   0.855   2.396
 6214TIP3    H218588   0.840   0.997   2.419
 6215TIP3   OH218589   2.834   5.090   6.173
 6215TIP3    H118590   2.777   5.094   6.250
 6215TIP3    H218591   2.894   5.163   6.185
 6216TIP3   OH218592   6.407   7.755   3.447
 6216TIP3    H118593   6.429   7.671   3.407
 6216TIP3    H218594   6.384   7.733   3.537
 6217TIP3   OH218595   1.749   7.218   1.549
 6217TIP3    H118596   1.779   7.129   1.530
 6217TIP3    H218597   1.706   7.211   1.634
 6218TIP3   OH218598   5.427   7.617   2.398
 6218TIP3    H118599   5.506   7.565   2.382
 6218TIP3    H218600   5.406   7.601   2.490
 6219TIP3   OH218601   2.283   6.659   0.467
 6219TIP3    H118602   2.364   6.622   0.504
 6219TIP3    H218603   2.251   6.591   0.407
 6220TIP3   OH218604   4.323   7.727   3.234
 6220TIP3    H118605   4.389   7.757   3.296
 6220TIP3    H218606   4.248   7.785   3.249
 6221TIP3   OH218607   2.939   2.408   3.674
 6221TIP3    H118608   2.899   2.353   3.741
 6221TIP3    H218609   2.969   2.486   3.721
 6222TIP3   OH218610   3.435   2.685   3.821
 6222TIP3    H118611   3.496   2.756   3.840
 6222TIP3    H218612   3.485   2.605   3.836
 6223TIP3   OH218613   7.881   2.620   5.399
 6223TIP3    H118614   7.796   2.644   5.363
 6223TIP3    H218615   7.895   2.681   5.471
 6224TIP3   OH218616   7.285   5.210   0.894
 6224TIP3    H118617   7.344   5.177   0.825
 6224TIP3    H218618   7.201   5.169   0.874
 6225TIP3   OH218619   4.806   2.733   5.301
 6225TIP3    H118620   4.777   2.790   5.372
 6225TIP3    H218621   4.900   2.752   5.292
 6226TIP3   OH218622   0.295   3.022   3.577
 6226TIP3    H118623   0.312   2.960   3.648
 6226TIP3    H218624   0.205   3.003   3.550
 6227TIP3   OH218625   4.157   2.933   3.417
 6227TIP3    H118626   4.078   2.963   3.372
 6227TIP3    H218627   4.130   2.853   3.462
 6228TIP3   OH218628   7.189   4.761   1.832
 6228TIP3    H118629   7.248   4.814   1.778
 6228TIP3    H218630   7.176   4.813   1.912
 6229TIP3   OH218631   7.816   6.482   4.552
 6229TIP3    H118632   7.790   6.575   4.549
 6229TIP3    H218633   7.860   6.467   4.468
 6230TIP3   OH218634   2.948   5.697   5.592
 6230TIP3    H118635   2.870   5.750   5.575
 6230TIP3    H218636   2.923   5.609   5.563
 6231TIP3   OH218637   5.825   0.413   2.825
 6231TIP3    H118638   5.883   0.417   2.749
 6231TIP3    H218639   5.827   0.501   2.862
 6232TIP3   OH218640   5.588   7.518   3.524
 6232TIP3    H118641   5.515   7.575   3.499
 6232TIP3    H218642   5.548   7.451   3.581
 6233TIP3   OH218643   5.201   0.115   1.892
 6233TIP3    H118644   5.247   0.188   1.850
 6233TIP3    H218645   5.184   0.054   1.821
 6234TIP3   OH218646   1.043   4.480   1.186
 6234TIP3    H118647   1.047   4.570   1.153
 6234TIP3    H218648   1.038   4.490   1.281
 6235TIP3   OH218649   3.524   3.977   0.768
 6235TIP3    H118650   3.618   3.976   0.784
 6235TIP3    H218651   3.515   4.000   0.675
 6236TIP3   OH218652   0.615   4.012   3.798
 6236TIP3    H118653   0.561   4.081   3.837
 6236TIP3    H218654   0.616   3.943   3.864
 6237TIP3   OH218655   4.398   1.073   1.206
 6237TIP3    H118656   4.473   1.060   1.263
 6237TIP3    H218657   4.403   1.165   1.180
 6238TIP3   OH218658   2.877   3.815   5.644
 6238TIP3    H118659   2.829   3.780   5.719
 6238TIP3    H218660   2.918   3.738   5.604
 6239TIP3   OH218661   3.487   4.273   3.049
 6239TIP3    H118662   3.527   4.219   2.981
 6239TIP3    H218663   3.524   4.239   3.131
 6240TIP3   OH218664   5.513   2.124   5.080
 6240TIP3    H118665   5.468   2.204   5.107
 6240TIP3    H218666   5.606   2.144   5.091
 6241TIP3   OH218667   7.739   1.961   1.523
 6241TIP3    H118668   7.768   1.920   1.604
 6241TIP3    H218669   7.673   2.025   1.550
 6242TIP3   OH218670   7.374   1.068   3.082
 6242TIP3    H118671   7.443   1.117   3.127
 6242TIP3    H218672   7.360   0.991   3.137
 6243TIP3   OH218673   2.392   1.714   5.444
 6243TIP3    H118674   2.321   1.742   5.502
 6243TIP3    H218675   2.376   1.621   5.429
 6244TIP3   OH218676   3.171   3.477   3.473
 6244TIP3    H118677   3.220   3.452   3.395
 6244TIP3    H218678   3.218   3.552   3.508
 6245TIP3   OH218679   0.479   1.217   2.929
 6245TIP3    H118680   0.410   1.172   2.880
 6245TIP3    H218681   0.444   1.306   2.942
 6246TIP3   OH218682   3.466   3.112   0.974
 6246TIP3    H118683   3.417   3.048   0.924
 6246TIP3    H218684   3.401   3.178   0.999
 6247TIP3   OH218685   4.410   2.419   1.298
 6247TIP3    H118686   4.499   2.438   1.327
 6247TIP3    H218687   4.370   2.505   1.286
 6248TIP3   OH218688   6.051   3.063   1.781
 6248TIP3    H118689   6.084   3.150   1.760
 6248TIP3    H218690   5.992   3.042   1.708
 6249TIP3   OH218691   7.227   3.542   4.701
 6249TIP3    H118692   7.193   3.507   4.619
 6249TIP3    H218693   7.197   3.633   4.702
 6250TIP3   OH218694   5.818   0.434   0.995
 6250TIP3    H118695   5.742   0.401   0.947
 6250TIP3    H218696   5.787   0.443   1.085
 6251TIP3   OH218697   1.802   0.448   6.264
 6251TIP3    H118698   1.772   0.400   6.187
 6251TIP3    H218699   1.812   0.538   6.234
 6252TIP3   OH218700   0.222   6.475   0.529
 6252TIP3    H118701   0.282   6.448   0.459
 6252TIP3    H218702   0.153   6.523   0.485
 6253TIP3   OH218703   4.258   4.513   4.548
 6253TIP3    H118704   4.230   4.459   4.474
 6253TIP3    H218705   4.182   4.513   4.607
 6254TIP3   OH218706   6.812   1.291   2.172
 6254TIP3    H118707   6.885   1.352   2.168
 6254TIP3    H218708   6.754   1.318   2.100
 6255TIP3   OH218709   8.152   4.351  -0.009
 6255TIP3    H118710   8.221   4.324   0.052
 6255TIP3    H218711   8.115   4.430   0.031
 6256TIP3   OH218712   6.119   4.314   4.065
 6256TIP3    H118713   6.068   4.260   4.004
 6256TIP3    H218714   6.056   4.375   4.102
 6257TIP3   OH218715   3.250   0.327   4.166
 6257TIP3    H118716   3.249   0.325   4.262
 6257TIP3    H218717   3.162   0.354   4.141
 6258TIP3   OH218718   0.357   0.508   0.266
 6258TIP3    H118719   0.381   0.508   0.173
 6258TIP3    H218720   0.376   0.596   0.296
 6259TIP3   OH218721   7.290   1.205   0.531
 6259TIP3    H118722   7.266   1.116   0.557
 6259TIP3    H218723   7.294   1.254   0.613
 6260TIP3   OH218724   2.637   1.474   0.097
 6260TIP3    H118725   2.687   1.536   0.150
 6260TIP3    H218726   2.553   1.467   0.143
 6261TIP3   OH218727   3.669   1.874   5.545
 6261TIP3    H118728   3.651   1.922   5.464
 6261TIP3    H218729   3.628   1.925   5.614
 6262TIP3   OH218730   1.710   5.296   6.272
 6262TIP3    H118731   1.795   5.258   6.248
 6262TIP3    H218732   1.725   5.338   6.356
 6263TIP3   OH218733   7.228   6.844   2.099
 6263TIP3    H118734   7.231   6.939   2.088
 6263TIP3    H218735   7.308   6.812   2.058
 6264TIP3   OH218736   0.245   0.010   5.435
 6264TIP3    H118737   0.334  -0.019   5.415
 6264TIP3    H218738   0.217   0.058   5.357
 6265TIP3   OH218739   0.335   0.811   2.963
 6265TIP3    H118740   0.240   0.800   2.963
 6265TIP3    H218741   0.349   0.904   2.976
 6266TIP3   OH218742   4.975   5.693   2.756
 6266TIP3    H118743   4.913   5.759   2.788
 6266TIP3    H218744   4.990   5.636   2.831
 6267TIP3   OH218745   0.541   7.232   6.176
 6267TIP3    H118746   0.591   7.282   6.241
 6267TIP3    H218747   0.463   7.285   6.160
 6268TIP3   OH218748   4.597   1.288   3.037
 6268TIP3    H118749   4.685   1.320   3.057
 6268TIP3    H218750   4.591   1.203   3.080
 6269TIP3   OH218751   0.746   0.491   1.627
 6269TIP3    H118752   0.791   0.544   1.562
 6269TIP3    H218753   0.797   0.410   1.631
 6270TIP3   OH218754   4.739   0.723   6.191
 6270TIP3    H118755   4.660   0.775   6.178
 6270TIP3    H218756   4.810   0.779   6.159
 6271TIP3   OH218757   7.680   1.166   5.780
 6271TIP3    H118758   7.610   1.102   5.791
 6271TIP3    H218759   7.662   1.232   5.847
 6272TIP3   OH218760   2.404   7.561   1.993
 6272TIP3    H118761   2.470   7.492   1.998
 6272TIP3    H218762   2.453   7.643   2.003
 6273TIP3   OH218763   0.715   3.961   0.020
 6273TIP3    H118764   0.628   3.940  -0.016
 6273TIP3    H218765   0.696   4.001   0.105
 6274TIP3   OH218766   1.993   2.634   5.328
 6274TIP3    H118767   1.972   2.623   5.235
 6274TIP3    H218768   2.088   2.622   5.332
 6275TIP3   OH218769   3.094   0.673   3.088
 6275TIP3    H118770   3.075   0.589   3.046
 6275TIP3    H218771   3.146   0.720   3.024
 6276TIP3   OH218772   6.135   0.720   6.395
 6276TIP3    H118773   6.107   0.662   6.325
 6276TIP3    H218774   6.094   0.804   6.375
 6277TIP3   OH218775   7.365   0.777   1.104
 6277TIP3    H118776   7.443   0.740   1.060
 6277TIP3    H218777   7.324   0.832   1.037
 6278TIP3   OH218778   6.732   2.829   4.396
 6278TIP3    H118779   6.706   2.911   4.353
 6278TIP3    H218780   6.650   2.790   4.426
 6279TIP3   OH218781   0.634   0.108   3.838
 6279TIP3    H118782   0.551   0.060   3.835
 6279TIP3    H218783   0.625   0.168   3.913
 6280TIP3   OH218784   1.208   7.026   2.794
 6280TIP3    H118785   1.121   6.987   2.784
 6280TIP3    H218786   1.251   7.011   2.710
 6281TIP3   OH218787   3.123   2.378   6.660
 6281TIP3    H118788   3.205   2.352   6.704
 6281TIP3    H218789   3.066   2.407   6.731
 6282TIP3   OH218790   0.471   7.751   0.942
 6282TIP3    H118791   0.514   7.760   0.857
 6282TIP3    H218792   0.516   7.815   0.998
 6283TIP3   OH218793   7.863   1.100   3.722
 6283TIP3    H118794   7.879   1.194   3.724
 6283TIP3    H218795   7.914   1.065   3.795
 6284TIP3   OH218796   3.264   1.952   2.404
 6284TIP3    H118797   3.198   1.886   2.426
 6284TIP3    H218798   3.340   1.929   2.458
 6285TIP3   OH218799   6.917   6.447   4.723
 6285TIP3    H118800   6.893   6.421   4.635
 6285TIP3    H218801   6.847   6.411   4.779
 6286TIP3   OH218802   2.321   2.789   1.445
 6286TIP3    H118803   2.366   2.868   1.473
 6286TIP3    H218804   2.309   2.738   1.525
 6287TIP3   OH218805   7.383   3.857   4.744
 6287TIP3    H118806   7.387   3.908   4.663
 6287TIP3    H218807   7.341   3.775   4.719
 6288TIP3   OH218808   1.922   0.341   0.542
 6288TIP3    H118809   1.907   0.429   0.577
 6288TIP3    H218810   1.896   0.347   0.450
 6289TIP3   OH218811   1.207   7.220   4.858
 6289TIP3    H118812   1.225   7.173   4.776
 6289TIP3    H218813   1.155   7.158   4.910
 6290TIP3   OH218814   5.090   3.435   1.792
 6290TIP3    H118815   5.018   3.422   1.731
 6290TIP3    H218816   5.157   3.480   1.741
 6291TIP3   OH218817   3.398   2.830   5.532
 6291TIP3    H118818   3.404   2.898   5.466
 6291TIP3    H218819   3.341   2.867   5.600
 6292TIP3   OH218820   2.432   4.939   2.986
 6292TIP3    H118821   2.432   4.958   3.080
 6292TIP3    H218822   2.450   4.845   2.981
 6293TIP3   OH218823   6.002   3.030   3.095
 6293TIP3    H118824   6.013   3.124   3.104
 6293TIP3    H218825   6.091   2.995   3.105
 6294TIP3   OH218826   2.787   7.376   6.350
 6294TIP3    H118827   2.869   7.423   6.332
 6294TIP3    H218828   2.796   7.293   6.305
 6295TIP3   OH218829   2.864   1.550   2.203
 6295TIP3    H118830   2.938   1.604   2.174
 6295TIP3    H218831   2.877   1.540   2.297
 6296TIP3   OH218832   5.829   3.160   1.953
 6296TIP3    H118833   5.831   3.107   2.032
 6296TIP3    H218834   5.908   3.134   1.904
 6297TIP3   OH218835   1.474   4.010   1.637
 6297TIP3    H118836   1.528   3.956   1.578
 6297TIP3    H218837   1.527   4.088   1.652
 6298TIP3   OH218838   7.607   1.117   3.945
 6298TIP3    H118839   7.587   1.045   3.885
 6298TIP3    H218840   7.562   1.094   4.026
 6299TIP3   OH218841   7.699   4.554   3.565
 6299TIP3    H118842   7.668   4.641   3.589
 6299TIP3    H218843   7.656   4.495   3.627
 6300TIP3   OH218844   1.639   5.801   3.697
 6300TIP3    H118845   1.693   5.779   3.621
 6300TIP3    H218846   1.703   5.823   3.765
 6301TIP3   OH218847   0.736   5.312   2.354
 6301TIP3    H118848   0.809   5.367   2.324
 6301TIP3    H218849   0.774   5.225   2.365
 6302TIP3   OH218850   4.033   1.534   4.626
 6302TIP3    H118851   3.954   1.588   4.631
 6302TIP3    H218852   4.077   1.563   4.546
 6303TIP3   OH218853   3.772   0.961   4.314
 6303TIP3    H118854   3.862   0.943   4.343
 6303TIP3    H218855   3.721   0.965   4.395
 6304TIP3   OH218856   2.957   2.362   3.414
 6304TIP3    H118857   3.043   2.387   3.381
 6304TIP3    H218858   2.953   2.399   3.503
 6305TIP3   OH218859   5.512   0.426   1.879
 6305TIP3    H118860   5.490   0.504   1.828
 6305TIP3    H218861   5.432   0.404   1.926
 6306TIP3   OH218862   1.317   1.397   3.254
 6306TIP3    H118863   1.271   1.480   3.263
 6306TIP3    H218864   1.373   1.408   3.177
 6307TIP3   OH218865   5.818   4.230   5.657
 6307TIP3    H118866   5.810   4.197   5.747
 6307TIP3    H218867   5.731   4.216   5.619
 6308TIP3   OH218868   6.948   7.162   0.967
 6308TIP3    H118869   6.907   7.139   1.051
 6308TIP3    H218870   7.019   7.099   0.957
 6309TIP3   OH218871   5.661   6.117   3.771
 6309TIP3    H118872   5.623   6.085   3.690
 6309TIP3    H218873   5.734   6.057   3.789
 6310TIP3   OH218874   0.776   7.082   4.644
 6310TIP3    H118875   0.790   7.165   4.690
 6310TIP3    H218876   0.713   7.103   4.575
 6311TIP3   OH218877   7.507   4.705   1.556
 6311TIP3    H118878   7.602   4.698   1.541
 6311TIP3    H218879   7.479   4.775   1.498
 6312TIP3   OH218880   5.848   2.155   4.028
 6312TIP3    H118881   5.753   2.163   4.039
 6312TIP3    H218882   5.874   2.090   4.094
 6313TIP3   OH218883   1.153   2.386   4.762
 6313TIP3    H118884   1.145   2.481   4.769
 6313TIP3    H218885   1.068   2.352   4.790
 6314TIP3   OH218886   5.319   3.321   6.316
 6314TIP3    H118887   5.275   3.294   6.396
 6314TIP3    H218888   5.399   3.269   6.314
 6315TIP3   OH218889   1.063   6.815   3.653
 6315TIP3    H118890   1.008   6.805   3.575
 6315TIP3    H218891   1.016   6.767   3.721
 6316TIP3   OH218892   1.416   4.956   5.927
 6316TIP3    H118893   1.340   5.013   5.934
 6316TIP3    H218894   1.421   4.913   6.013
 6317TIP3   OH218895   2.180   4.501   1.182
 6317TIP3    H118896   2.159   4.555   1.258
 6317TIP3    H218897   2.097   4.457   1.160
 6318TIP3   OH218898   1.450   0.876   1.933
 6318TIP3    H118899   1.461   0.781   1.922
 6318TIP3    H218900   1.460   0.890   2.028
 6319TIP3   OH218901   5.397   2.394   5.125
 6319TIP3    H118902   5.390   2.426   5.035
 6319TIP3    H218903   5.314   2.349   5.141
 6320TIP3   OH218904   7.268   5.810   5.738
 6320TIP3    H118905   7.300   5.838   5.824
 6320TIP3    H218906   7.346   5.778   5.692
 6321TIP3   OH218907   0.011   6.692   0.164
 6321TIP3    H118908   0.089   6.691   0.108
 6321TIP3    H218909  -0.045   6.759   0.125
 6322TIP3   OH218910   0.107   4.381   6.595
 6322TIP3    H118911   0.174   4.434   6.551
 6322TIP3    H218912   0.053   4.444   6.642
 6323TIP3   OH218913   5.935   4.511   4.871
 6323TIP3    H118914   5.998   4.571   4.832
 6323TIP3    H218915   5.853   4.561   4.876
 6324TIP3   OH218916   8.103   7.579   0.794
 6324TIP3    H118917   8.039   7.611   0.857
 6324TIP3    H218918   8.181   7.560   0.846
 6325TIP3   OH218919   0.893   4.623   0.498
 6325TIP3    H118920   0.817   4.613   0.556
 6325TIP3    H218921   0.941   4.541   0.508
 6326TIP3   OH218922   3.609   2.722   0.465
 6326TIP3    H118923   3.662   2.658   0.512
 6326TIP3    H218924   3.644   2.721   0.376
 6327TIP3   OH218925   6.048   7.551   4.122
 6327TIP3    H118926   6.094   7.559   4.038
 6327TIP3    H218927   6.072   7.464   4.154
 6328TIP3   OH218928   2.948   6.696   1.367
 6328TIP3    H118929   2.999   6.657   1.296
 6328TIP3    H218930   2.922   6.782   1.332
 6329TIP3   OH218931   8.029   1.033   0.414
 6329TIP3    H118932   7.938   1.052   0.393
 6329TIP3    H218933   8.032   0.938   0.425
 6330TIP3   OH218934   4.053   3.045   0.339
 6330TIP3    H118935   3.967   3.017   0.307
 6330TIP3    H218936   4.055   3.015   0.430
 6331TIP3   OH218937   6.631   5.054   4.312
 6331TIP3    H118938   6.584   4.971   4.312
 6331TIP3    H218939   6.649   5.071   4.220
 6332TIP3   OH218940   1.368   1.420   1.174
 6332TIP3    H118941   1.381   1.503   1.221
 6332TIP3    H218942   1.294   1.378   1.218
 6333TIP3   OH218943   8.211   4.380   1.037
 6333TIP3    H118944   8.155   4.436   0.984
 6333TIP3    H218945   8.185   4.399   1.127
 6334TIP3   OH218946   4.207   2.541   0.790
 6334TIP3    H118947   4.193   2.453   0.755
 6334TIP3    H218948   4.125   2.587   0.773
 6335TIP3   OH218949   3.624   5.951   6.227
 6335TIP3    H118950   3.718   5.965   6.228
 6335TIP3    H218951   3.605   5.920   6.138
 6336TIP3   OH218952   5.581   7.784   6.223
 6336TIP3    H118953   5.676   7.795   6.222
 6336TIP3    H218954   5.567   7.690   6.232
 6337TIP3   OH218955   6.333   7.143   3.942
 6337TIP3    H118956   6.261   7.125   4.003
 6337TIP3    H218957   6.316   7.084   3.868
 6338TIP3   OH218958   7.339   1.975   0.418
 6338TIP3    H118959   7.329   1.880   0.423
 6338TIP3    H218960   7.271   2.009   0.476
 6339TIP3   OH218961   2.064   1.657   0.132
 6339TIP3    H118962   1.974   1.690   0.135
 6339TIP3    H218963   2.115   1.731   0.098
 6340TIP3   OH218964   2.082   2.200   0.898
 6340TIP3    H118965   2.017   2.209   0.828
 6340TIP3    H218966   2.032   2.205   0.979
 6341TIP3   OH218967   5.345   5.203   6.666
 6341TIP3    H118968   5.314   5.268   6.602
 6341TIP3    H218969   5.380   5.256   6.738
 6342TIP3   OH218970   2.738   0.030   1.026
 6342TIP3    H118971   2.819   0.069   0.992
 6342TIP3    H218972   2.760  -0.062   1.039
 6343TIP3   OH218973   6.503   6.644   3.755
 6343TIP3    H118974   6.527   6.571   3.698
 6343TIP3    H218975   6.571   6.710   3.741
 6344TIP3   OH218976   1.008   1.865   6.630
 6344TIP3    H118977   0.974   1.777   6.649
 6344TIP3    H218978   1.076   1.879   6.696
 6345TIP3   OH218979   3.759   3.127   2.983
 6345TIP3    H118980   3.783   3.220   2.978
 6345TIP3    H218981   3.840   3.083   3.006
 6346TIP3   OH218982   4.755   6.790   0.386
 6346TIP3    H118983   4.793   6.805   0.300
 6346TIP3    H218984   4.692   6.861   0.398
 6347TIP3   OH218985   5.426   7.393   6.732
 6347TIP3    H118986   5.515   7.426   6.727
 6347TIP3    H218987   5.429   7.308   6.687
 6348TIP3   OH218988   1.537   0.318   2.024
 6348TIP3    H118989   1.611   0.364   2.065
 6348TIP3    H218990   1.578   0.263   1.957
 6349TIP3   OH218991   7.447   1.732   2.396
 6349TIP3    H118992   7.486   1.667   2.337
 6349TIP3    H218993   7.392   1.681   2.455
 6350TIP3   OH218994   2.574   6.709   2.883
 6350TIP3    H118995   2.562   6.720   2.978
 6350TIP3    H218996   2.495   6.747   2.844
 6351TIP3   OH218997   3.141   0.288   6.680
 6351TIP3    H118998   3.056   0.332   6.688
 6351TIP3    H218999   3.201   0.356   6.652
 6352TIP3   OH219000   2.020   2.979   4.850
 6352TIP3    H119001   1.978   3.060   4.821
 6352TIP3    H219002   2.110   2.987   4.818
 6353TIP3   OH219003   5.489   0.470   6.509
 6353TIP3    H119004   5.450   0.554   6.486
 6353TIP3    H219005   5.514   0.479   6.600
 6354TIP3   OH219006   6.888   7.582   0.759
 6354TIP3    H119007   6.796   7.603   0.772
 6354TIP3    H219008   6.894   7.557   0.667
 6355TIP3   OH219009   2.596   5.305   6.041
 6355TIP3    H119010   2.540   5.372   6.080
 6355TIP3    H219011   2.546   5.224   6.050
 6356TIP3   OH219012   6.243   3.495   3.079
 6356TIP3    H119013   6.318   3.542   3.042
 6356TIP3    H219014   6.183   3.485   3.005
 6357TIP3   OH219015   2.683   0.458   2.688
 6357TIP3    H119016   2.738   0.536   2.686
 6357TIP3    H219017   2.708   0.409   2.610
 6358TIP3   OH219018   4.265   4.782   0.064
 6358TIP3    H119019   4.257   4.875   0.045
 6358TIP3    H219020   4.359   4.766   0.067
 6359TIP3   OH219021   3.404   6.570   6.592
 6359TIP3    H119022   3.430   6.654   6.631
 6359TIP3    H219023   3.484   6.518   6.591
 6360TIP3   OH219024   7.309   3.610   4.039
 6360TIP3    H119025   7.299   3.699   4.074
 6360TIP3    H219026   7.371   3.568   4.098
 6361TIP3   OH219027   6.866   4.094   0.361
 6361TIP3    H119028   6.854   4.127   0.272
 6361TIP3    H219029   6.917   4.014   0.351
 6362TIP3   OH219030   0.307   6.271   4.568
 6362TIP3    H119031   0.278   6.241   4.482
 6362TIP3    H219032   0.321   6.365   4.557
 6363TIP3   OH219033   1.343   0.597   5.837
 6363TIP3    H119034   1.386   0.575   5.920
 6363TIP3    H219035   1.276   0.530   5.827
 6364TIP3   OH219036   0.373   6.534   3.861
 6364TIP3    H119037   0.441   6.472   3.837
 6364TIP3    H219038   0.409   6.620   3.837
 6365TIP3   OH219039   7.674   1.928   0.614
 6365TIP3    H119040   7.700   1.942   0.705
 6365TIP3    H219041   7.582   1.902   0.619
 6366TIP3   OH219042   7.127   2.292   4.940
 6366TIP3    H119043   7.146   2.281   4.846
 6366TIP3    H219044   7.213   2.310   4.979
 6367TIP3   OH219045   5.496   7.335   1.958
 6367TIP3    H119046   5.564   7.268   1.955
 6367TIP3    H219047   5.534   7.406   2.008
 6368TIP3   OH219048   0.093   2.032   6.611
 6368TIP3    H119049   0.135   2.113   6.581
 6368TIP3    H219050   0.069   2.050   6.702
 6369TIP3   OH219051   4.185   2.272   5.511
 6369TIP3    H119052   4.093   2.277   5.485
 6369TIP3    H219053   4.198   2.346   5.571
 6370TIP3   OH219054   8.192   6.045   5.572
 6370TIP3    H119055   8.204   6.084   5.658
 6370TIP3    H219056   8.276   6.004   5.552
 6371TIP3   OH219057   0.191   0.830   0.060
 6371TIP3    H119058   0.106   0.799   0.090
 6371TIP3    H219059   0.212   0.775  -0.015
 6372TIP3   OH219060   4.863   2.104   5.008
 6372TIP3    H119061   4.824   2.068   4.928
 6372TIP3    H219062   4.949   2.136   4.980
 6373TIP3   OH219063   0.486   1.744   2.843
 6373TIP3    H119064   0.429   1.690   2.788
 6373TIP3    H219065   0.558   1.685   2.867
 6374TIP3   OH219066   4.273   4.735   4.391
 6374TIP3    H119067   4.263   4.670   4.460
 6374TIP3    H219068   4.347   4.789   4.418
 6375TIP3   OH219069   5.473   3.120   6.578
 6375TIP3    H119070   5.387   3.159   6.592
 6375TIP3    H219071   5.514   3.122   6.665
 6376TIP3   OH219072   6.172   4.221   0.472
 6376TIP3    H119073   6.077   4.213   0.484
 6376TIP3    H219074   6.190   4.173   0.390
 6377TIP3   OH219075   6.927   1.662   5.472
 6377TIP3    H119076   6.961   1.726   5.534
 6377TIP3    H219077   6.922   1.709   5.389
 6378TIP3   OH219078   3.742   6.588   0.186
 6378TIP3    H119079   3.794   6.636   0.250
 6378TIP3    H219080   3.652   6.620   0.200
 6379TIP3   OH219081   5.951   5.936   1.590
 6379TIP3    H119082   5.911   6.013   1.549
 6379TIP3    H219083   5.883   5.869   1.587
 6380TIP3   OH219084   0.705   7.624   3.036
 6380TIP3    H119085   0.632   7.685   3.049
 6380TIP3    H219086   0.732   7.600   3.125
 6381TIP3   OH219087   3.734   7.086   4.321
 6381TIP3    H119088   3.696   6.999   4.319
 6381TIP3    H219089   3.666   7.141   4.360
 6382TIP3   OH219090   6.206   3.614   5.309
 6382TIP3    H119091   6.168   3.617   5.397
 6382TIP3    H219092   6.300   3.599   5.324
 6383TIP3   OH219093   0.018   5.629   1.508
 6383TIP3    H119094   0.033   5.626   1.413
 6383TIP3    H219095   0.098   5.669   1.543
 6384TIP3   OH219096   0.991   6.401   2.414
 6384TIP3    H119097   1.004   6.424   2.506
 6384TIP3    H219098   0.945   6.317   2.416
 6385TIP3   OH219099   0.713   7.047   0.167
 6385TIP3    H119100   0.623   7.016   0.177
 6385TIP3    H219101   0.739   7.017   0.080
 6386TIP3   OH219102   6.150   3.818   3.854
 6386TIP3    H119103   6.071   3.849   3.898
 6386TIP3    H219104   6.119   3.753   3.790
 6387TIP3   OH219105   0.925   4.499   4.100
 6387TIP3    H119106   0.940   4.407   4.120
 6387TIP3    H219107   0.840   4.501   4.056
 6388TIP3   OH219108   7.796   6.673   4.920
 6388TIP3    H119109   7.736   6.741   4.886
 6388TIP3    H219110   7.866   6.722   4.962
 6389TIP3   OH219111   4.017   5.161   0.624
 6389TIP3    H119112   3.947   5.170   0.688
 6389TIP3    H219113   4.029   5.066   0.614
 6390TIP3   OH219114   2.224   3.402   4.507
 6390TIP3    H119115   2.218   3.472   4.572
 6390TIP3    H219116   2.147   3.347   4.523
 6391TIP3   OH219117   0.564   0.100   0.236
 6391TIP3    H119118   0.590   0.192   0.237
 6391TIP3    H219119   0.576   0.073   0.144
 6392TIP3   OH219120   0.820   0.290   6.708
 6392TIP3    H119121   0.870   0.371   6.705
 6392TIP3    H219122   0.799   0.270   6.617
 6393TIP3   OH219123   7.477   1.777   3.721
 6393TIP3    H119124   7.394   1.817   3.749
 6393TIP3    H219125   7.492   1.707   3.785
 6394TIP3   OH219126   3.170   3.366   5.999
 6394TIP3    H119127   3.077   3.358   6.019
 6394TIP3    H219128   3.211   3.293   6.045
 6395TIP3   OH219129   3.216   4.435   0.211
 6395TIP3    H119130   3.306   4.465   0.197
 6395TIP3    H219131   3.179   4.430   0.123
 6396TIP3   OH219132   5.665   5.758   0.914
 6396TIP3    H119133   5.712   5.780   0.834
 6396TIP3    H219134   5.592   5.703   0.885
 6397TIP3   OH219135   1.407   1.937   5.112
 6397TIP3    H119136   1.452   2.015   5.081
 6397TIP3    H219137   1.376   1.894   5.033
 6398TIP3   OH219138   3.071   5.452   4.905
 6398TIP3    H119139   3.067   5.399   4.826
 6398TIP3    H219140   2.988   5.434   4.950
 6399TIP3   OH219141   0.300   5.954   3.337
 6399TIP3    H119142   0.221   5.901   3.353
 6399TIP3    H219143   0.303   5.964   3.242
 6400TIP3   OH219144   2.572   2.151   5.289
 6400TIP3    H119145   2.520   2.177   5.213
 6400TIP3    H219146   2.652   2.203   5.283
 6401TIP3   OH219147   8.126   6.245   2.336
 6401TIP3    H119148   8.119   6.329   2.292
 6401TIP3    H219149   8.175   6.263   2.416
 6402TIP3   OH219150   4.273   2.919   2.641
 6402TIP3    H119151   4.278   2.866   2.562
 6402TIP3    H219152   4.247   3.006   2.610
 6403TIP3   OH219153  -0.011   7.037   3.785
 6403TIP3    H119154   0.041   7.020   3.864
 6403TIP3    H219155   0.049   7.083   3.727
 6404TIP3   OH219156   5.743   6.649   3.868
 6404TIP3    H119157   5.673   6.660   3.804
 6404TIP3    H219158   5.761   6.738   3.899
 6405TIP3   OH219159   8.242   0.331   0.632
 6405TIP3    H119160   8.330   0.314   0.667
 6405TIP3    H219161   8.236   0.426   0.629
 6406TIP3   OH219162   7.926   5.789   3.021
 6406TIP3    H119163   7.939   5.703   3.061
 6406TIP3    H219164   7.991   5.846   3.063
 6407TIP3   OH219165   5.955   6.270   3.486
 6407TIP3    H119166   5.890   6.217   3.439
 6407TIP3    H219167   5.919   6.278   3.575
 6408TIP3   OH219168   2.427   0.884   6.144
 6408TIP3    H119169   2.469   0.965   6.116
 6408TIP3    H219170   2.355   0.871   6.081
 6409TIP3   OH219171   0.135   0.171   4.228
 6409TIP3    H119172   0.082   0.093   4.244
 6409TIP3    H219173   0.101   0.206   4.146
 6410TIP3   OH219174   4.873   6.253   3.820
 6410TIP3    H119175   4.961   6.286   3.807
 6410TIP3    H219176   4.870   6.172   3.769
 6411TIP3   OH219177   0.064   6.854   2.301
 6411TIP3    H119178   0.142   6.872   2.248
 6411TIP3    H219179   0.078   6.904   2.382
 6412TIP3   OH219180   2.261   3.873   1.337
 6412TIP3    H119181   2.220   3.790   1.361
 6412TIP3    H219182   2.355   3.854   1.334
 6413TIP3   OH219183   0.806   5.514   6.555
 6413TIP3    H119184   0.720   5.502   6.514
 6413TIP3    H219185   0.850   5.578   6.499
 6414TIP3   OH219186   5.772   3.192   4.763
 6414TIP3    H119187   5.690   3.237   4.783
 6414TIP3    H219188   5.799   3.227   4.678
 6415TIP3   OH219189   7.178   3.849   1.203
 6415TIP3    H119190   7.103   3.899   1.173
 6415TIP3    H219191   7.177   3.859   1.298
 6416TIP3   OH219192   1.437   6.771   1.908
 6416TIP3    H119193   1.364   6.746   1.964
 6416TIP3    H219194   1.514   6.731   1.948
 6417TIP3   OH219195   0.186   2.007   1.232
 6417TIP3    H119196   0.128   1.949   1.182
 6417TIP3    H219197   0.139   2.025   1.313
 6418TIP3   OH219198   2.743   4.860   3.292
 6418TIP3    H119199   2.799   4.934   3.311
 6418TIP3    H219200   2.780   4.788   3.343
 6419TIP3   OH219201   6.657   6.105   1.090
 6419TIP3    H119202   6.738   6.122   1.139
 6419TIP3    H219203   6.672   6.144   1.004
 6420TIP3   OH219204   4.600   1.340   1.153
 6420TIP3    H119205   4.524   1.321   1.098
 6420TIP3    H219206   4.586   1.430   1.183
 6421TIP3   OH219207   3.998   2.913   6.417
 6421TIP3    H119208   4.069   2.958   6.464
 6421TIP3    H219209   3.976   2.973   6.345
 6422TIP3   OH219210   2.342   5.816   5.360
 6422TIP3    H119211   2.270   5.873   5.386
 6422TIP3    H219212   2.384   5.863   5.287
 6423TIP3   OH219213   7.968   5.014   3.233
 6423TIP3    H119214   7.977   5.104   3.264
 6423TIP3    H219215   7.942   5.022   3.141
 6424TIP3   OH219216   3.679   5.669   6.587
 6424TIP3    H119217   3.714   5.580   6.579
 6424TIP3    H219218   3.587   5.661   6.561
 6425TIP3   OH219219   2.544   4.596   2.373
 6425TIP3    H119220   2.605   4.531   2.408
 6425TIP3    H219221   2.597   4.674   2.360
 6426TIP3   OH219222   1.508   2.143   0.251
 6426TIP3    H119223   1.420   2.129   0.218
 6426TIP3    H219224   1.547   2.207   0.192
 6427TIP3   OH219225   7.060   6.307   6.244
 6427TIP3    H119226   7.112   6.240   6.288
 6427TIP3    H219227   7.030   6.365   6.314
 6428TIP3   OH219228   4.417   5.534   3.133
 6428TIP3    H119229   4.337   5.533   3.186
 6428TIP3    H219230   4.470   5.463   3.168
 6429TIP3   OH219231   6.381   1.864   1.465
 6429TIP3    H119232   6.476   1.852   1.469
 6429TIP3    H219233   6.370   1.955   1.438
 6430TIP3   OH219234   7.927   0.965   2.204
 6430TIP3    H119235   7.839   0.975   2.241
 6430TIP3    H219236   7.921   0.886   2.151
 6431TIP3   OH219237   3.059   0.467   3.784
 6431TIP3    H119238   3.052   0.562   3.782
 6431TIP3    H219239   3.051   0.444   3.877
 6432TIP3   OH219240   7.274   4.089   2.234
 6432TIP3    H119241   7.368   4.071   2.237
 6432TIP3    H219242   7.256   4.136   2.315
 6433TIP3   OH219243   1.218   7.635   2.212
 6433TIP3    H119244   1.223   7.724   2.177
 6433TIP3    H219245   1.256   7.641   2.299
 6434TIP3   OH219246   4.435   4.638   5.949
 6434TIP3    H119247   4.344   4.635   5.977
 6434TIP3    H219248   4.455   4.549   5.921
 6435TIP3   OH219249   1.223   3.551   6.158
 6435TIP3    H119250   1.304   3.501   6.161
 6435TIP3    H219251   1.245   3.629   6.106
 6436TIP3   OH219252   4.616   2.219   1.866
 6436TIP3    H119253   4.575   2.296   1.906
 6436TIP3    H219254   4.544   2.175   1.820
 6437TIP3   OH219255   1.281   3.916   5.057
 6437TIP3    H119256   1.254   3.942   5.146
 6437TIP3    H219257   1.362   3.964   5.042
 6438TIP3   OH219258   6.268   3.583   5.774
 6438TIP3    H119259   6.187   3.568   5.725
 6438TIP3    H219260   6.322   3.636   5.715
 6439TIP3   OH219261   4.394   2.777   5.434
 6439TIP3    H119262   4.305   2.755   5.405
 6439TIP3    H219263   4.445   2.698   5.416
 6440TIP3   OH219264   7.374   2.772   4.983
 6440TIP3    H119265   7.418   2.834   4.925
 6440TIP3    H219266   7.281   2.783   4.962
 6441TIP3   OH219267   7.545   7.728   3.207
 6441TIP3    H119268   7.610   7.722   3.137
 6441TIP3    H219269   7.462   7.705   3.166
 6442TIP3   OH219270   6.672   1.470   3.502
 6442TIP3    H119271   6.739   1.424   3.552
 6442TIP3    H219272   6.684   1.562   3.523
 6443TIP3   OH219273   5.609   5.678   5.189
 6443TIP3    H119274   5.599   5.764   5.230
 6443TIP3    H219275   5.602   5.616   5.261
 6444TIP3   OH219276   7.256   6.996   1.659
 6444TIP3    H119277   7.208   6.919   1.690
 6444TIP3    H219278   7.289   6.970   1.573
 6445TIP3   OH219279   3.608   1.728   0.080
 6445TIP3    H119280   3.652   1.806   0.114
 6445TIP3    H219281   3.672   1.688   0.021
 6446TIP3   OH219282   6.598   6.321   3.962
 6446TIP3    H119283   6.585   6.319   3.867
 6446TIP3    H219284   6.594   6.229   3.988
 6447TIP3   OH219285   0.207   2.827   5.798
 6447TIP3    H119286   0.118   2.817   5.830
 6447TIP3    H219287   0.260   2.835   5.878
 6448TIP3   OH219288   8.249   6.624   4.779
 6448TIP3    H119289   8.240   6.547   4.834
 6448TIP3    H219290   8.205   6.601   4.698
 6449TIP3   OH219291   5.279   7.609   1.217
 6449TIP3    H119292   5.223   7.570   1.149
 6449TIP3    H219293   5.235   7.691   1.239
 6450TIP3   OH219294   3.523   0.090   4.370
 6450TIP3    H119295   3.576   0.086   4.290
 6450TIP3    H219296   3.453   0.026   4.356
 6451TIP3   OH219297   5.346   0.111   0.620
 6451TIP3    H119298   5.385   0.072   0.542
 6451TIP3    H219299   5.310   0.195   0.590
 6452TIP3   OH219300   4.340   0.049   2.566
 6452TIP3    H119301   4.405  -0.008   2.526
 6452TIP3    H219302   4.371   0.138   2.548
 6453TIP3   OH219303   1.485   0.910   2.203
 6453TIP3    H119304   1.533   0.893   2.285
 6453TIP3    H219305   1.458   1.001   2.210
 6454TIP3   OH219306   5.635   3.604   6.165
 6454TIP3    H119307   5.544   3.601   6.191
 6454TIP3    H219308   5.661   3.695   6.175
 6455TIP3   OH219309   2.374   2.446   6.218
 6455TIP3    H119310   2.400   2.358   6.191
 6455TIP3    H219311   2.284   2.437   6.247
 6456TIP3   OH219312   0.045   3.438   0.451
 6456TIP3    H119313  -0.015   3.372   0.486
 6456TIP3    H219314   0.060   3.412   0.360
 6457TIP3   OH219315   6.940   2.956   5.112
 6457TIP3    H119316   6.894   2.941   5.194
 6457TIP3    H219317   6.876   2.998   5.055
 6458TIP3   OH219318   4.264   1.860   5.156
 6458TIP3    H119319   4.224   1.778   5.129
 6458TIP3    H219320   4.346   1.864   5.107
 6459TIP3   OH219321   3.156   6.679   5.766
 6459TIP3    H119322   3.113   6.626   5.833
 6459TIP3    H219323   3.240   6.635   5.750
 6460TIP3   OH219324   0.438   2.075   5.962
 6460TIP3    H119325   0.510   2.076   5.899
 6460TIP3    H219326   0.386   1.998   5.940
 6461TIP3   OH219327   5.166   2.633   4.698
 6461TIP3    H119328   5.160   2.591   4.783
 6461TIP3    H219329   5.214   2.571   4.643
 6462TIP3   OH219330   0.069   7.530   1.567
 6462TIP3    H119331   0.118   7.499   1.491
 6462TIP3    H219332   0.113   7.612   1.593
 6463TIP3   OH219333   0.377   1.412   1.532
 6463TIP3    H119334   0.384   1.494   1.483
 6463TIP3    H219335   0.435   1.351   1.486
 6464TIP3   OH219336   7.397   2.862   1.215
 6464TIP3    H119337   7.384   2.882   1.122
 6464TIP3    H219338   7.490   2.880   1.230
 6465TIP3   OH219339   5.149   0.631   5.965
 6465TIP3    H119340   5.167   0.619   6.059
 6465TIP3    H219341   5.225   0.592   5.921
 6466TIP3   OH219342   4.342   5.829   0.767
 6466TIP3    H119343   4.423   5.869   0.736
 6466TIP3    H219344   4.368   5.777   0.843
 6467TIP3   OH219345   3.684   5.371   5.670
 6467TIP3    H119346   3.772   5.383   5.706
 6467TIP3    H219347   3.626   5.388   5.744
 6468TIP3   OH219348   5.590   4.575   5.616
 6468TIP3    H119349   5.683   4.595   5.625
 6468TIP3    H219350   5.562   4.550   5.704
 6469TIP3   OH219351   5.615   5.868   3.938
 6469TIP3    H119352   5.709   5.851   3.934
 6469TIP3    H219353   5.606   5.959   3.909
 6470TIP3   OH219354   1.895   2.760   6.348
 6470TIP3    H119355   1.980   2.720   6.363
 6470TIP3    H219356   1.863   2.783   6.435
 6471TIP3   OH219357   2.377   2.432   3.810
 6471TIP3    H119358   2.344   2.342   3.807
 6471TIP3    H219359   2.373   2.456   3.902
 6472TIP3   OH219360   1.357   1.761   6.595
 6472TIP3    H119361   1.413   1.802   6.529
 6472TIP3    H219362   1.403   1.680   6.618
 6473TIP3   OH219363   6.653   6.762   2.526
 6473TIP3    H119364   6.622   6.680   2.562
 6473TIP3    H219365   6.618   6.764   2.437
 6474TIP3   OH219366   4.398   4.640   3.345
 6474TIP3    H119367   4.443   4.593   3.274
 6474TIP3    H219368   4.397   4.578   3.418
 6475TIP3   OH219369   1.467   6.261   2.385
 6475TIP3    H119370   1.403   6.326   2.358
 6475TIP3    H219371   1.472   6.200   2.311
 6476TIP3   OH219372   6.077   4.099   1.067
 6476TIP3    H119373   6.163   4.096   1.110
 6476TIP3    H219374   6.024   4.036   1.115
 6477TIP3   OH219375   6.395   1.933   6.538
 6477TIP3    H119376   6.300   1.942   6.529
 6477TIP3    H219377   6.424   2.020   6.567
 6478TIP3   OH219378   7.851   5.305   3.462
 6478TIP3    H119379   7.934   5.274   3.425
 6478TIP3    H219380   7.835   5.247   3.536
 6479TIP3   OH219381   0.757   1.120   0.186
 6479TIP3    H119382   0.782   1.190   0.246
 6479TIP3    H219383   0.670   1.145   0.155
 6480TIP3   OH219384   3.279   2.497   2.103
 6480TIP3    H119385   3.301   2.428   2.041
 6480TIP3    H219386   3.350   2.561   2.094
 6481TIP3   OH219387   3.323   2.131   0.480
 6481TIP3    H119388   3.325   2.207   0.538
 6481TIP3    H219389   3.390   2.149   0.415
 6482TIP3   OH219390   2.716   7.812   2.452
 6482TIP3    H119391   2.634   7.770   2.476
 6482TIP3    H219392   2.723   7.887   2.510
 6483TIP3   OH219393   2.645   3.366   0.951
 6483TIP3    H119394   2.652   3.276   0.983
 6483TIP3    H219395   2.728   3.406   0.973
 6484TIP3   OH219396   0.550   3.390   3.651
 6484TIP3    H119397   0.496   3.317   3.680
 6484TIP3    H219398   0.493   3.467   3.659
 6485TIP3   OH219399   6.631   4.338   2.882
 6485TIP3    H119400   6.547   4.297   2.863
 6485TIP3    H219401   6.652   4.308   2.971
 6486TIP3   OH219402   6.004   5.402   0.265
 6486TIP3    H119403   6.052   5.461   0.323
 6486TIP3    H219404   5.931   5.453   0.232
 6487TIP3   OH219405   7.798   6.694   6.183
 6487TIP3    H119406   7.769   6.755   6.115
 6487TIP3    H219407   7.812   6.750   6.260
 6488TIP3   OH219408   2.970   2.469   6.378
 6488TIP3    H119409   2.954   2.382   6.414
 6488TIP3    H219410   2.963   2.457   6.283
 6489TIP3   OH219411   5.002   6.525   2.484
 6489TIP3    H119412   4.991   6.620   2.485
 6489TIP3    H219413   5.025   6.503   2.574
 6490TIP3   OH219414   3.034   5.340   5.919
 6490TIP3    H119415   3.014   5.249   5.937
 6490TIP3    H219416   2.951   5.386   5.934
 6491TIP3   OH219417   3.263   4.424   6.785
 6491TIP3    H119418   3.352   4.395   6.765
 6491TIP3    H219419   3.217   4.416   6.701
 6492TIP3   OH219420   4.070   6.289   0.561
 6492TIP3    H119421   4.094   6.240   0.641
 6492TIP3    H219422   4.059   6.221   0.495
 6493TIP3   OH219423   3.126   5.780   5.381
 6493TIP3    H119424   3.083   5.860   5.350
 6493TIP3    H219425   3.063   5.740   5.440
 6494TIP3   OH219426   0.187   5.338   3.742
 6494TIP3    H119427   0.211   5.279   3.813
 6494TIP3    H219428   0.260   5.332   3.680
 6495TIP3   OH219429   2.089   1.583   2.975
 6495TIP3    H119430   2.150   1.529   3.025
 6495TIP3    H219431   2.003   1.545   2.996
 6496TIP3   OH219432   2.845   3.863  -0.030
 6496TIP3    H119433   2.867   3.838   0.060
 6496TIP3    H219434   2.886   3.796  -0.084
 6497TIP3   OH219435   6.307   7.123   5.759
 6497TIP3    H119436   6.368   7.058   5.726
 6497TIP3    H219437   6.234   7.121   5.697
 6498TIP3   OH219438   2.754   2.231   6.328
 6498TIP3    H119439   2.744   2.167   6.258
 6498TIP3    H219440   2.838   2.210   6.369
 6499TIP3   OH219441   8.059   4.866   4.934
 6499TIP3    H119442   7.993   4.934   4.923
 6499TIP3    H219443   8.015   4.785   4.912
 6500TIP3   OH219444   7.107   6.759   3.698
 6500TIP3    H119445   7.193   6.740   3.733
 6500TIP3    H219446   7.050   6.762   3.774
 6501TIP3   OH219447   4.009   5.124   4.461
 6501TIP3    H119448   4.012   5.031   4.441
 6501TIP3    H219449   4.033   5.129   4.554
 6502TIP3   OH219450   1.922   1.061   4.631
 6502TIP3    H119451   1.928   0.971   4.598
 6502TIP3    H219452   2.011   1.082   4.659
 6503TIP3   OH219453   5.743   1.779   1.209
 6503TIP3    H119454   5.658   1.782   1.252
 6503TIP3    H219455   5.766   1.686   1.209
 6504TIP3   OH219456   2.750   3.640   3.610
 6504TIP3    H119457   2.702   3.721   3.597
 6504TIP3    H219458   2.749   3.626   3.705
 6505TIP3   OH219459   3.803   3.512   0.294
 6505TIP3    H119460   3.847   3.582   0.342
 6505TIP3    H219461   3.869   3.480   0.231
 6506TIP3   OH219462   1.683   0.458   3.852
 6506TIP3    H119463   1.710   0.408   3.929
 6506TIP3    H219464   1.697   0.549   3.875
 6507TIP3   OH219465   0.222   1.132   0.446
 6507TIP3    H119466   0.172   1.053   0.425
 6507TIP3    H219467   0.294   1.101   0.500
 6508TIP3   OH219468   2.210   4.916   2.779
 6508TIP3    H119469   2.274   4.982   2.753
 6508TIP3    H219470   2.248   4.876   2.857
 6509TIP3   OH219471   7.160   5.690   0.041
 6509TIP3    H119472   7.116   5.775   0.031
 6509TIP3    H219473   7.158   5.652  -0.046
 6510TIP3   OH219474   5.134   1.969   6.045
 6510TIP3    H119475   5.173   1.936   6.126
 6510TIP3    H219476   5.208   2.007   5.997
 6511TIP3   OH219477   4.811   1.247   3.370
 6511TIP3    H119478   4.868   1.188   3.420
 6511TIP3    H219479   4.865   1.325   3.356
 6512TIP3   OH219480   5.857   5.549   3.378
 6512TIP3    H119481   5.932   5.602   3.404
 6512TIP3    H219482   5.822   5.515   3.461
 6513TIP3   OH219483   3.939   5.511   2.625
 6513TIP3    H119484   3.854   5.548   2.600
 6513TIP3    H219485   3.985   5.499   2.542
 6514TIP3   OH219486   1.612   0.492   3.242
 6514TIP3    H119487   1.532   0.451   3.212
 6514TIP3    H219488   1.594   0.518   3.333
 6515TIP3   OH219489   2.654   4.947   2.773
 6515TIP3    H119490   2.728   5.008   2.769
 6515TIP3    H219491   2.580   5.002   2.799
 6516TIP3   OH219492   4.666   0.732   3.291
 6516TIP3    H119493   4.659   0.697   3.379
 6516TIP3    H219494   4.582   0.709   3.249
 6517TIP3   OH219495   0.726   1.359   4.911
 6517TIP3    H119496   0.784   1.435   4.896
 6517TIP3    H219497   0.685   1.378   4.995
 6518TIP3   OH219498   2.758   1.613   3.964
 6518TIP3    H119499   2.830   1.635   3.905
 6518TIP3    H219500   2.680   1.617   3.908
 6519TIP3   OH219501   6.479   5.530   2.690
 6519TIP3    H119502   6.399   5.574   2.664
 6519TIP3    H219503   6.549   5.591   2.667
 6520TIP3   OH219504   0.214   1.693   4.335
 6520TIP3    H119505   0.259   1.609   4.347
 6520TIP3    H219506   0.129   1.680   4.378
 6521TIP3   OH219507   7.734   2.376   1.901
 6521TIP3    H119508   7.791   2.365   1.825
 6521TIP3    H219509   7.657   2.422   1.867
 6522TIP3   OH219510   6.319   6.999   1.748
 6522TIP3    H119511   6.354   7.024   1.833
 6522TIP3    H219512   6.360   7.060   1.687
 6523TIP3   OH219513   2.230   3.872   0.932
 6523TIP3    H119514   2.197   3.783   0.938
 6523TIP3    H219515   2.310   3.865   0.880
 6524TIP3   OH219516   6.110   3.480   0.384
 6524TIP3    H119517   6.114   3.385   0.396
 6524TIP3    H219518   6.024   3.495   0.345
 6525TIP3   OH219519   5.293   5.363   3.241
 6525TIP3    H119520   5.293   5.459   3.237
 6525TIP3    H219521   5.264   5.335   3.154
 6526TIP3   OH219522   5.569   7.408   6.483
 6526TIP3    H119523   5.477   7.433   6.494
 6526TIP3    H219524   5.565   7.326   6.433
 6527TIP3   OH219525   7.228   2.956   2.764
 6527TIP3    H119526   7.315   2.956   2.805
 6527TIP3    H219527   7.218   3.045   2.731
 6528TIP3   OH219528   6.031   6.040   5.454
 6528TIP3    H119529   5.988   5.977   5.397
 6528TIP3    H219530   5.967   6.060   5.521
 6529TIP3   OH219531   5.935   4.605   1.163
 6529TIP3    H119532   6.012   4.646   1.204
 6529TIP3    H219533   5.902   4.673   1.104
 6530TIP3   OH219534   7.836   4.621   6.343
 6530TIP3    H119535   7.768   4.599   6.407
 6530TIP3    H219536   7.854   4.539   6.297
 6531TIP3   OH219537   5.006   4.223   0.553
 6531TIP3    H119538   5.028   4.293   0.492
 6531TIP3    H219539   4.938   4.174   0.509
 6532TIP3   OH219540   2.183   0.039   1.826
 6532TIP3    H119541   2.180   0.072   1.916
 6532TIP3    H219542   2.109   0.082   1.783
 6533TIP3   OH219543   6.902   4.074   4.923
 6533TIP3    H119544   6.835   4.099   4.860
 6533TIP3    H219545   6.893   4.138   4.994
 6534TIP3   OH219546   6.772   2.625   1.760
 6534TIP3    H119547   6.825   2.585   1.829
 6534TIP3    H219548   6.818   2.707   1.739
 6535TIP3   OH219549   2.171   1.857   1.432
 6535TIP3    H119550   2.094   1.800   1.443
 6535TIP3    H219551   2.204   1.869   1.520
 6536TIP3   OH219552   5.321   3.286   6.019
 6536TIP3    H119553   5.414   3.298   6.001
 6536TIP3    H219554   5.311   3.310   6.112
 6537TIP3   OH219555   3.026   2.018   1.960
 6537TIP3    H119556   2.975   1.948   1.918
 6537TIP3    H219557   3.008   2.096   1.908
 6538TIP3   OH219558   8.145   2.632   5.340
 6538TIP3    H119559   8.139   2.578   5.260
 6538TIP3    H219560   8.057   2.626   5.378
 6539TIP3   OH219561   1.260   4.532   5.565
 6539TIP3    H119562   1.294   4.556   5.651
 6539TIP3    H219563   1.221   4.612   5.531
 6540TIP3   OH219564   0.266   5.769   6.113
 6540TIP3    H119565   0.291   5.836   6.176
 6540TIP3    H219566   0.171   5.766   6.117
 6541TIP3   OH219567   7.586   5.839   1.067
 6541TIP3    H119568   7.605   5.747   1.084
 6541TIP3    H219569   7.626   5.886   1.140
 6542TIP3   OH219570   7.387   0.469   0.302
 6542TIP3    H119571   7.449   0.526   0.257
 6542TIP3    H219572   7.411   0.380   0.275
 6543TIP3   OH219573   2.815   6.575   5.680
 6543TIP3    H119574   2.804   6.484   5.654
 6543TIP3    H219575   2.904   6.579   5.715
 6544TIP3   OH219576   7.083   5.499   4.747
 6544TIP3    H119577   7.119   5.477   4.833
 6544TIP3    H219578   7.055   5.590   4.754
 6545TIP3   OH219579   1.093   6.189   4.432
 6545TIP3    H119580   1.010   6.185   4.481
 6545TIP3    H219581   1.083   6.124   4.363
 6546TIP3   OH219582   1.618   0.600   3.497
 6546TIP3    H119583   1.544   0.632   3.548
 6546TIP3    H219584   1.674   0.555   3.560
 6547TIP3   OH219585   8.044   7.681   6.639
 6547TIP3    H119586   8.061   7.723   6.723
 6547TIP3    H219587   8.030   7.754   6.578
 6548TIP3   OH219588   5.019   0.067   5.354
 6548TIP3    H119589   4.950   0.119   5.394
 6548TIP3    H219590   5.046   0.006   5.423
 6549TIP3   OH219591   7.953   1.857   0.840
 6549TIP3    H119592   7.878   1.896   0.885
 6549TIP3    H219593   7.939   1.762   0.848
 6550TIP3   OH219594   1.687   5.327   3.324
 6550TIP3    H119595   1.694   5.411   3.370
 6550TIP3    H219596   1.742   5.338   3.246
 6551TIP3   OH219597   2.638   1.238   4.864
 6551TIP3    H119598   2.687   1.161   4.893
 6551TIP3    H219599   2.698   1.283   4.804
 6552TIP3   OH219600   1.104   6.706   6.554
 6552TIP3    H119601   1.094   6.793   6.515
 6552TIP3    H219602   1.022   6.660   6.534
 6553TIP3   OH219603   3.745   5.073   5.768
 6553TIP3    H119604   3.775   5.152   5.723
 6553TIP3    H219605   3.661   5.099   5.806
 6554TIP3   OH219606   5.165   6.923   0.811
 6554TIP3    H119607   5.246   6.879   0.838
 6554TIP3    H219608   5.098   6.855   0.814
 6555TIP3   OH219609   8.154   5.840   2.204
 6555TIP3    H119610   8.082   5.814   2.146
 6555TIP3    H219611   8.182   5.926   2.171
 6556TIP3   OH219612   0.472   3.036   4.862
 6556TIP3    H119613   0.439   3.074   4.780
 6556TIP3    H219614   0.416   2.960   4.877
 6557TIP3   OH219615   4.024   7.422   0.170
 6557TIP3    H119616   4.014   7.327   0.173
 6557TIP3    H219617   3.960   7.455   0.233
 6558TIP3   OH219618   4.523   2.231   4.962
 6558TIP3    H119619   4.498   2.154   5.013
 6558TIP3    H219620   4.568   2.196   4.886
 6559TIP3   OH219621   5.707   5.174   6.294
 6559TIP3    H119622   5.689   5.082   6.314
 6559TIP3    H219623   5.694   5.181   6.199
 6560TIP3   OH219624   6.938   2.206   0.932
 6560TIP3    H119625   6.863   2.205   0.992
 6560TIP3    H219626   7.009   2.247   0.982
 6561TIP3   OH219627   5.979   1.838   3.046
 6561TIP3    H119628   5.920   1.895   3.095
 6561TIP3    H219629   6.049   1.818   3.108
 6562TIP3   OH219630   4.135   7.255   2.121
 6562TIP3    H119631   4.087   7.298   2.050
 6562TIP3    H219632   4.206   7.316   2.142
 6563TIP3   OH219633   6.818   1.308   3.675
 6563TIP3    H119634   6.845   1.338   3.762
 6563TIP3    H219635   6.747   1.247   3.692
 6564TIP3   OH219636   5.621   0.639   3.700
 6564TIP3    H119637   5.693   0.576   3.701
 6564TIP3    H219638   5.643   0.702   3.768
 6565TIP3   OH219639   4.055   0.634   2.994
 6565TIP3    H119640   3.994   0.565   3.018
 6565TIP3    H219641   4.077   0.677   3.077
 6566TIP3   OH219642   0.268   4.922   4.849
 6566TIP3    H119643   0.189   4.876   4.874
 6566TIP3    H219644   0.245   4.966   4.767
 6567TIP3   OH219645   2.422   4.322   3.681
 6567TIP3    H119646   2.418   4.303   3.587
 6567TIP3    H219647   2.400   4.240   3.723
 6568TIP3   OH219648   6.701   1.825   1.927
 6568TIP3    H119649   6.702   1.762   1.855
 6568TIP3    H219650   6.612   1.820   1.962
 6569TIP3   OH219651   1.141   6.163   3.877
 6569TIP3    H119652   1.234   6.176   3.896
 6569TIP3    H219653   1.137   6.155   3.781
 6570TIP3   OH219654   3.650   1.324   1.193
 6570TIP3    H119655   3.657   1.279   1.109
 6570TIP3    H219656   3.573   1.285   1.235
 6571TIP3   OH219657   6.717   0.290   2.024
 6571TIP3    H119658   6.664   0.247   2.091
 6571TIP3    H219659   6.762   0.361   2.071
 6572TIP3   OH219660   4.830   2.679   1.825
 6572TIP3    H119661   4.871   2.708   1.743
 6572TIP3    H219662   4.864   2.738   1.892
 6573TIP3   OH219663   0.439   6.804   1.264
 6573TIP3    H119664   0.382   6.855   1.321
 6573TIP3    H219665   0.527   6.823   1.295
 6574TIP3   OH219666   0.060   2.048   5.838
 6574TIP3    H119667   0.048   2.059   5.932
 6574TIP3    H219668   0.113   2.124   5.812
 6575TIP3   OH219669   7.789   6.299   6.381
 6575TIP3    H119670   7.782   6.358   6.456
 6575TIP3    H219671   7.711   6.316   6.329
 6576TIP3   OH219672   1.391   2.536   3.777
 6576TIP3    H119673   1.296   2.548   3.788
 6576TIP3    H219674   1.402   2.515   3.685
 6577TIP3   OH219675   6.167   6.379   2.005
 6577TIP3    H119676   6.173   6.440   2.079
 6577TIP3    H219677   6.139   6.297   2.044
 6578TIP3   OH219678   7.875   0.554   6.506
 6578TIP3    H119679   7.946   0.616   6.496
 6578TIP3    H219680   7.798   0.599   6.472
 6579TIP3   OH219681   6.579   7.277   5.218
 6579TIP3    H119682   6.622   7.324   5.290
 6579TIP3    H219683   6.495   7.251   5.254
 6580TIP3   OH219684   3.952   2.455   1.397
 6580TIP3    H119685   3.968   2.531   1.453
 6580TIP3    H219686   3.946   2.382   1.458
 6581TIP3   OH219687   7.979   7.162   0.321
 6581TIP3    H119688   8.071   7.165   0.347
 6581TIP3    H219689   7.932   7.135   0.400
 6582TIP3   OH219690   6.228   2.118   0.077
 6582TIP3    H119691   6.310   2.147   0.117
 6582TIP3    H219692   6.164   2.123   0.148
 6583TIP3   OH219693   3.628   5.664   1.267
 6583TIP3    H119694   3.661   5.578   1.243
 6583TIP3    H219695   3.583   5.650   1.351
 6584TIP3   OH219696   0.893   6.850   5.333
 6584TIP3    H119697   0.908   6.846   5.238
 6584TIP3    H219698   0.979   6.833   5.371
 6585TIP3   OH219699   4.910   3.999   6.272
 6585TIP3    H119700   4.850   4.066   6.238
 6585TIP3    H219701   4.883   3.918   6.228
 6586TIP3   OH219702   4.316   2.031   2.021
 6586TIP3    H119703   4.318   1.954   2.078
 6586TIP3    H219704   4.364   2.004   1.943
 6587TIP3   OH219705   6.788   5.223   2.172
 6587TIP3    H119706   6.808   5.298   2.117
 6587TIP3    H219707   6.698   5.238   2.201
 6588TIP3   OH219708   3.658   4.320   0.707
 6588TIP3    H119709   3.654   4.245   0.766
 6588TIP3    H219710   3.717   4.382   0.750
 6589TIP3   OH219711   3.105   1.494   5.414
 6589TIP3    H119712   3.026   1.486   5.360
 6589TIP3    H219713   3.116   1.408   5.454
 6590TIP3   OH219714   1.572   3.296   5.555
 6590TIP3    H119715   1.563   3.376   5.607
 6590TIP3    H219716   1.483   3.261   5.549
 6591TIP3   OH219717   1.878   6.451   5.834
 6591TIP3    H119718   1.926   6.498   5.766
 6591TIP3    H219719   1.849   6.519   5.895
 6592TIP3   OH219720   3.034   0.552   2.294
 6592TIP3    H119721   3.076   0.523   2.374
 6592TIP3    H219722   2.949   0.509   2.294
 6593TIP3   OH219723   4.900   4.708   4.895
 6593TIP3    H119724   4.818   4.722   4.847
 6593TIP3    H219725   4.877   4.725   4.986
 6594TIP3   OH219726   2.357   0.592   1.235
 6594TIP3    H119727   2.403   0.535   1.173
 6594TIP3    H219728   2.416   0.598   1.310
 6595TIP3   OH219729   1.916   6.948   2.114
 6595TIP3    H119730   1.961   7.024   2.153
 6595TIP3    H219731   1.879   6.981   2.033
 6596TIP3   OH219732   7.381   3.039   2.232
 6596TIP3    H119733   7.388   3.119   2.179
 6596TIP3    H219734   7.323   3.063   2.304
 6597TIP3   OH219735   0.454   3.062   0.533
 6597TIP3    H119736   0.387   3.050   0.600
 6597TIP3    H219737   0.537   3.052   0.580
 6598TIP3   OH219738   6.785   0.129   2.950
 6598TIP3    H119739   6.804   0.216   2.915
 6598TIP3    H219740   6.712   0.098   2.898
 6599TIP3   OH219741   5.242   6.921   0.387
 6599TIP3    H119742   5.302   6.850   0.367
 6599TIP3    H219743   5.232   6.967   0.303
 6600TIP3   OH219744   1.582   3.680   1.127
 6600TIP3    H119745   1.525   3.749   1.161
 6600TIP3    H219746   1.558   3.602   1.177
 6601TIP3   OH219747   5.506   4.492   4.809
 6601TIP3    H119748   5.542   4.410   4.843
 6601TIP3    H219749   5.444   4.464   4.741
 6602TIP3   OH219750   5.850   1.082   0.194
 6602TIP3    H119751   5.825   1.118   0.279
 6602TIP3    H219752   5.812   1.141   0.130
 6603TIP3   OH219753   0.175   0.646   2.309
 6603TIP3    H119754   0.233   0.576   2.277
 6603TIP3    H219755   0.174   0.710   2.237
 6604TIP3   OH219756   7.098   4.229   4.285
 6604TIP3    H119757   7.039   4.168   4.329
 6604TIP3    H219758   7.149   4.270   4.355
 6605TIP3   OH219759   4.321   1.550   0.316
 6605TIP3    H119760   4.343   1.503   0.396
 6605TIP3    H219761   4.242   1.506   0.284
 6606TIP3   OH219762   1.822   5.829   2.227
 6606TIP3    H119763   1.772   5.871   2.157
 6606TIP3    H219764   1.790   5.739   2.229
 6607TIP3   OH219765   6.503   2.275   3.368
 6607TIP3    H119766   6.563   2.317   3.306
 6607TIP3    H219767   6.430   2.337   3.375
 6608TIP3   OH219768   7.739   6.872   2.766
 6608TIP3    H119769   7.834   6.880   2.755
 6608TIP3    H219770   7.728   6.809   2.837
 6609TIP3   OH219771   6.975   6.751   3.964
 6609TIP3    H119772   6.969   6.669   4.012
 6609TIP3    H219773   7.050   6.797   4.003
 6610TIP3   OH219774   3.149   2.625   1.564
 6610TIP3    H119775   3.202   2.547   1.545
 6610TIP3    H219776   3.087   2.596   1.630
 6611TIP3   OH219777   2.583   6.055   6.189
 6611TIP3    H119778   2.530   5.989   6.233
 6611TIP3    H219779   2.528   6.086   6.117
 6612TIP3   OH219780   7.481   3.992   2.404
 6612TIP3    H119781   7.456   3.904   2.378
 6612TIP3    H219782   7.547   4.018   2.340
 6613TIP3   OH219783   1.757   7.117   5.941
 6613TIP3    H119784   1.740   7.069   5.859
 6613TIP3    H219785   1.698   7.076   6.005
 6614TIP3   OH219786   1.889   7.305   3.321
 6614TIP3    H119787   1.949   7.353   3.378
 6614TIP3    H219788   1.803   7.314   3.363
 6615TIP3   OH219789   5.283   6.026   0.741
 6615TIP3    H119790   5.370   6.064   0.725
 6615TIP3    H219791   5.299   5.931   0.744
 6616TIP3   OH219792   6.892   1.064   6.574
 6616TIP3    H119793   6.830   1.014   6.520
 6616TIP3    H219794   6.976   1.023   6.556
 6617TIP3   OH219795   6.179   6.638   6.428
 6617TIP3    H119796   6.111   6.573   6.442
 6617TIP3    H219797   6.153   6.712   6.484
 6618TIP3   OH219798   6.249   1.916   4.827
 6618TIP3    H119799   6.206   1.903   4.911
 6618TIP3    H219800   6.311   1.843   4.820
 6619TIP3   OH219801   1.371   3.551   4.784
 6619TIP3    H119802   1.417   3.608   4.845
 6619TIP3    H219803   1.284   3.589   4.776
 6620TIP3   OH219804   4.109   5.548   2.414
 6620TIP3    H119805   4.058   5.507   2.344
 6620TIP3    H219806   4.191   5.499   2.416
 6621TIP3   OH219807   1.386   2.933   5.574
 6621TIP3    H119808   1.462   2.891   5.614
 6621TIP3    H219809   1.361   2.874   5.503
 6622TIP3   OH219810   1.564   6.703   3.698
 6622TIP3    H119811   1.502   6.757   3.747
 6622TIP3    H219812   1.529   6.702   3.609
 6623TIP3   OH219813   8.065   3.054   6.572
 6623TIP3    H119814   7.975   3.064   6.602
 6623TIP3    H219815   8.063   3.078   6.479
 6624TIP3   OH219816   0.263   1.243   2.625
 6624TIP3    H119817   0.313   1.226   2.545
 6624TIP3    H219818   0.277   1.336   2.642
 6625TIP3   OH219819   2.842   6.975   5.719
 6625TIP3    H119820   2.847   6.946   5.810
 6625TIP3    H219821   2.896   6.914   5.671
 6626TIP3   OH219822   3.025   2.042   2.660
 6626TIP3    H119823   2.990   2.084   2.738
 6626TIP3    H219824   3.108   2.003   2.688
 6627TIP3   OH219825   6.293   6.060   0.983
 6627TIP3    H119826   6.329   6.088   0.899
 6627TIP3    H219827   6.210   6.106   0.991
 6628TIP3   OH219828   7.854   1.730   2.217
 6628TIP3    H119829   7.812   1.655   2.259
 6628TIP3    H219830   7.883   1.697   2.132
 6629TIP3   OH219831   4.497   3.868   2.234
 6629TIP3    H119832   4.493   3.886   2.140
 6629TIP3    H219833   4.579   3.908   2.263
 6630TIP3   OH219834   1.077   2.173   6.618
 6630TIP3    H119835   1.150   2.179   6.679
 6630TIP3    H219836   1.007   2.131   6.668
 6631TIP3   OH219837   6.726   5.193   0.230
 6631TIP3    H119838   6.784   5.117   0.224
 6631TIP3    H219839   6.649   5.160   0.277
 6632TIP3   OH219840   2.925   0.676   1.897
 6632TIP3    H119841   2.961   0.756   1.937
 6632TIP3    H219842   2.978   0.605   1.933
 6633TIP3   OH219843   1.035   2.613   0.558
 6633TIP3    H119844   0.970   2.543   0.561
 6633TIP3    H219845   1.003   2.673   0.491
 6634TIP3   OH219846   3.067   0.202   1.300
 6634TIP3    H119847   2.981   0.227   1.266
 6634TIP3    H219848   3.081   0.261   1.374
 6635TIP3   OH219849   1.301   0.218   3.280
 6635TIP3    H119850   1.294   0.296   3.336
 6635TIP3    H219851   1.325   0.252   3.194
 6636TIP3   OH219852   4.028   0.841   5.390
 6636TIP3    H119853   3.953   0.900   5.396
 6636TIP3    H219854   4.048   0.817   5.480
 6637TIP3   OH219855   1.677   5.064   1.294
 6637TIP3    H119856   1.596   5.092   1.251
 6637TIP3    H219857   1.650   5.036   1.381
 6638TIP3   OH219858   5.236   1.481   0.654
 6638TIP3    H119859   5.313   1.423   0.654
 6638TIP3    H219860   5.193   1.463   0.737
 6639TIP3   OH219861   3.616   4.555   1.989
 6639TIP3    H119862   3.588   4.581   1.901
 6639TIP3    H219863   3.616   4.460   1.987
 6640TIP3   OH219864   4.144   0.004   1.279
 6640TIP3    H119865   4.145   0.018   1.185
 6640TIP3    H219866   4.063   0.046   1.309
 6641TIP3   OH219867   0.290   2.247   6.123
 6641TIP3    H119868   0.362   2.300   6.157
 6641TIP3    H219869   0.331   2.187   6.061
 6642TIP3   OH219870   4.906   0.433   0.825
 6642TIP3    H119871   4.841   0.458   0.891
 6642TIP3    H219872   4.891   0.495   0.753
 6643TIP3   OH219873   1.640   0.289   1.278
 6643TIP3    H119874   1.634   0.283   1.183
 6643TIP3    H219875   1.610   0.378   1.298
 6644TIP3   OH219876   4.360   1.633   6.579
 6644TIP3    H119877   4.410   1.551   6.586
 6644TIP3    H219878   4.410   1.686   6.517
 6645TIP3   OH219879   1.182   3.140   0.853
 6645TIP3    H119880   1.277   3.138   0.864
 6645TIP3    H219881   1.158   3.232   0.869
 6646TIP3   OH219882   4.702   5.920   4.618
 6646TIP3    H119883   4.789   5.887   4.596
 6646TIP3    H219884   4.686   5.991   4.555
 6647TIP3   OH219885   4.365   2.087   4.164
 6647TIP3    H119886   4.358   1.992   4.158
 6647TIP3    H219887   4.342   2.107   4.254
 6648TIP3   OH219888   0.342   2.421   3.332
 6648TIP3    H119889   0.366   2.513   3.338
 6648TIP3    H219890   0.280   2.407   3.404
 6649TIP3   OH219891   1.138   3.288   6.447
 6649TIP3    H119892   1.113   3.203   6.484
 6649TIP3    H219893   1.204   3.322   6.508
 6650TIP3   OH219894   0.405   5.984   4.199
 6650TIP3    H119895   0.396   5.927   4.276
 6650TIP3    H219896   0.424   6.070   4.235
 6651TIP3   OH219897   1.798   7.633   0.863
 6651TIP3    H119898   1.778   7.689   0.938
 6651TIP3    H219899   1.788   7.544   0.895
 6652TIP3   OH219900   6.290   0.619   0.054
 6652TIP3    H119901   6.365   0.661   0.096
 6652TIP3    H219902   6.214   0.660   0.094
 6653TIP3   OH219903   0.461   3.158   1.852
 6653TIP3    H119904   0.365   3.152   1.857
 6653TIP3    H219905   0.487   3.077   1.807
 6654TIP3   OH219906   0.743   0.725   5.510
 6654TIP3    H119907   0.718   0.759   5.424
 6654TIP3    H219908   0.692   0.645   5.520
 6655TIP3   OH219909   3.849   4.992   0.213
 6655TIP3    H119910   3.908   4.951   0.150
 6655TIP3    H219911   3.808   5.064   0.165
 6656TIP3   OH219912   1.986   5.172   3.081
 6656TIP3    H119913   2.064   5.162   3.135
 6656TIP3    H219914   1.931   5.234   3.129
 6657TIP3   OH219915   1.129   6.249   2.951
 6657TIP3    H119916   1.208   6.221   2.903
 6657TIP3    H219917   1.142   6.215   3.040
 6658TIP3   OH219918   7.346   4.871   0.501
 6658TIP3    H119919   7.391   4.919   0.431
 6658TIP3    H219920   7.253   4.886   0.484
 6659TIP3   OH219921   2.981   1.236   5.106
 6659TIP3    H119922   2.963   1.161   5.050
 6659TIP3    H219923   3.037   1.293   5.051
 6660TIP3   OH219924   4.705   7.537   0.552
 6660TIP3    H119925   4.718   7.467   0.616
 6660TIP3    H219926   4.790   7.582   0.550
 6661TIP3   OH219927   4.160   4.052   2.378
 6661TIP3    H119928   4.090   4.015   2.325
 6661TIP3    H219929   4.172   3.990   2.449
 6662TIP3   OH219930   2.349   5.210   2.978
 6662TIP3    H119931   2.316   5.197   2.889
 6662TIP3    H219932   2.392   5.127   3.000
 6663TIP3   OH219933   5.691   6.721   6.370
 6663TIP3    H119934   5.630   6.675   6.427
 6663TIP3    H219935   5.693   6.669   6.290
 6664TIP3   OH219936   7.985   1.985   2.475
 6664TIP3    H119937   8.069   1.943   2.494
 6664TIP3    H219938   7.979   2.056   2.540
 6665TIP3   OH219939   6.903   5.030   4.346
 6665TIP3    H119940   6.818   5.065   4.319
 6665TIP3    H219941   6.933   4.982   4.269
 6666TIP3   OH219942   0.713   3.885   6.666
 6666TIP3    H119943   0.715   3.799   6.622
 6666TIP3    H219944   0.632   3.884   6.716
 6667TIP3   OH219945   1.400   0.649   4.053
 6667TIP3    H119946   1.471   0.693   4.005
 6667TIP3    H219947   1.445   0.593   4.116
 6668TIP3   OH219948   3.294   6.882   3.953
 6668TIP3    H119949   3.292   6.799   4.001
 6668TIP3    H219950   3.302   6.857   3.861
 6669TIP3   OH219951   8.270   3.192   6.167
 6669TIP3    H119952   8.295   3.150   6.249
 6669TIP3    H219953   8.314   3.276   6.169
 6670TIP3   OH219954   0.132   7.471   4.576
 6670TIP3    H119955   0.135   7.379   4.603
 6670TIP3    H219956   0.051   7.505   4.614
 6671TIP3   OH219957   7.353   1.123   1.583
 6671TIP3    H119958   7.328   1.059   1.517
 6671TIP3    H219959   7.378   1.070   1.659
 6672TIP3   OH219960   7.687   1.916   3.116
 6672TIP3    H119961   7.658   1.843   3.062
 6672TIP3    H219962   7.782   1.920   3.101
 6673TIP3   OH219963   4.993   3.335   6.405
 6673TIP3    H119964   4.981   3.293   6.320
 6673TIP3    H219965   4.962   3.424   6.392
 6674TIP3   OH219966   2.303   7.400   2.553
 6674TIP3    H119967   2.299   7.420   2.459
 6674TIP3    H219968   2.212   7.407   2.582
 6675TIP3   OH219969   2.900   7.063   4.416
 6675TIP3    H119970   2.942   7.010   4.484
 6675TIP3    H219971   2.929   7.023   4.333
 6676TIP3   OH219972   7.859   0.998   5.912
 6676TIP3    H119973   7.796   1.067   5.891
 6676TIP3    H219974   7.804   0.923   5.935
 6677TIP3   OH219975   7.379   5.605   5.959
 6677TIP3    H119976   7.287   5.602   5.936
 6677TIP3    H219977   7.392   5.529   6.017
 6678TIP3   OH219978   0.387   0.792   4.393
 6678TIP3    H119979   0.477   0.808   4.363
 6678TIP3    H219980   0.393   0.713   4.446
 6679TIP3   OH219981   7.423   3.318   1.803
 6679TIP3    H119982   7.382   3.343   1.721
 6679TIP3    H219983   7.364   3.353   1.871
 6680TIP3   OH219984   5.683   2.742   5.507
 6680TIP3    H119985   5.707   2.652   5.486
 6680TIP3    H219986   5.753   2.795   5.470
 6681TIP3   OH219987   5.797   4.110   4.696
 6681TIP3    H119988   5.849   4.157   4.761
 6681TIP3    H219989   5.850   4.032   4.676
 6682TIP3   OH219990   5.415   1.098   4.377
 6682TIP3    H119991   5.331   1.124   4.338
 6682TIP3    H219992   5.457   1.045   4.309
 6683TIP3   OH219993   0.066   1.079   2.675
 6683TIP3    H119994   0.136   1.144   2.669
 6683TIP3    H219995  -0.013   1.126   2.647
 6684TIP3   OH219996   3.413   6.153   4.431
 6684TIP3    H119997   3.479   6.156   4.500
 6684TIP3    H219998   3.461   6.123   4.353
 6685TIP3   OH219999   2.718   4.302   1.176
 6685TIP3    H120000   2.623   4.301   1.163
 6685TIP3    H220001   2.754   4.313   1.088
 6686TIP3   OH220002   4.538   1.470   4.607
 6686TIP3    H120003   4.625   1.452   4.642
 6686TIP3    H220004   4.478   1.434   4.672
 6687TIP3   OH220005   4.977   6.730   2.265
 6687TIP3    H120006   4.928   6.671   2.208
 6687TIP3    H220007   4.934   6.815   2.254
 6688TIP3   OH220008   3.740   2.157   1.519
 6688TIP3    H120009   3.818   2.183   1.568
 6688TIP3    H220010   3.671   2.214   1.552
 6689TIP3   OH220011   6.566   1.691   5.236
 6689TIP3    H120012   6.605   1.662   5.154
 6689TIP3    H220013   6.503   1.623   5.259
 6690TIP3   OH220014   3.974   0.704   2.327
 6690TIP3    H120015   3.882   0.692   2.303
 6690TIP3    H220016   3.987   0.799   2.328
 6691TIP3   OH220017   5.049   7.424   2.855
 6691TIP3    H120018   4.987   7.445   2.785
 6691TIP3    H220019   5.078   7.510   2.886
 6692TIP3   OH220020   3.050   7.676   1.242
 6692TIP3    H120021   3.049   7.704   1.151
 6692TIP3    H220022   2.973   7.620   1.251
 6693TIP3   OH220023   7.475   6.156   3.984
 6693TIP3    H120024   7.500   6.096   4.054
 6693TIP3    H220025   7.462   6.100   3.907
 6694TIP3   OH220026   5.962   4.810   6.682
 6694TIP3    H120027   6.035   4.870   6.696
 6694TIP3    H220028   5.886   4.867   6.667
 6695TIP3   OH220029   0.534   1.315   5.133
 6695TIP3    H120030   0.441   1.337   5.136
 6695TIP3    H220031   0.548   1.257   5.207
 6696TIP3   OH220032   3.382   7.290   5.993
 6696TIP3    H120033   3.403   7.258   5.905
 6696TIP3    H220034   3.356   7.381   5.979
 6697TIP3   OH220035   6.839   7.672   1.643
 6697TIP3    H120036   6.770   7.643   1.703
 6697TIP3    H220037   6.866   7.757   1.677
 6698TIP3   OH220038   2.727   7.660   4.792
 6698TIP3    H120039   2.796   7.654   4.858
 6698TIP3    H220040   2.748   7.591   4.729
 6699TIP3   OH220041   3.201   3.212   5.348
 6699TIP3    H120042   3.173   3.202   5.257
 6699TIP3    H220043   3.121   3.201   5.399
 6700TIP3   OH220044   0.534   4.315   0.503
 6700TIP3    H120045   0.464   4.280   0.450
 6700TIP3    H220046   0.596   4.243   0.514
 6701TIP3   OH220047   1.582   4.547   3.149
 6701TIP3    H120048   1.601   4.454   3.161
 6701TIP3    H220049   1.617   4.568   3.063
 6702TIP3   OH220050   2.141   0.561   1.438
 6702TIP3    H120051   2.233   0.565   1.412
 6702TIP3    H220052   2.106   0.647   1.413
 6703TIP3   OH220053   1.723   1.747   0.820
 6703TIP3    H120054   1.710   1.700   0.738
 6703TIP3    H220055   1.755   1.680   0.881
 6704TIP3   OH220056   1.927   5.004   0.520
 6704TIP3    H120057   1.835   4.999   0.492
 6704TIP3    H220058   1.977   4.979   0.443
 6705TIP3   OH220059   6.067   6.891   5.787
 6705TIP3    H120060   5.984   6.911   5.829
 6705TIP3    H220061   6.101   6.976   5.758
 6706TIP3   OH220062   7.613   3.722   2.479
 6706TIP3    H120063   7.590   3.697   2.390
 6706TIP3    H220064   7.673   3.654   2.509
 6707TIP3   OH220065   4.028   0.983   2.304
 6707TIP3    H120066   4.084   1.060   2.299
 6707TIP3    H220067   3.956   1.001   2.244
 6708TIP3   OH220068   6.524   6.522   5.588
 6708TIP3    H120069   6.535   6.525   5.493
 6708TIP3    H220070   6.592   6.580   5.622
 6709TIP3   OH220071   5.558   6.666   1.652
 6709TIP3    H120072   5.602   6.739   1.608
 6709TIP3    H220073   5.629   6.616   1.692
 6710TIP3   OH220074   7.750   5.954   0.124
 6710TIP3    H120075   7.808   5.986   0.055
 6710TIP3    H220076   7.808   5.905   0.183
 6711TIP3   OH220077   4.295   0.593   2.851
 6711TIP3    H120078   4.332   0.669   2.807
 6711TIP3    H220079   4.201   0.610   2.855
 6712TIP3   OH220080   3.334   2.295   1.666
 6712TIP3    H120081   3.417   2.336   1.640
 6712TIP3    H220082   3.351   2.259   1.753
 6713TIP3   OH220083   5.416   2.059   0.473
 6713TIP3    H120084   5.322   2.067   0.459
 6713TIP3    H220085   5.426   2.043   0.566
 6714TIP3   OH220086   6.245   0.990   5.026
 6714TIP3    H120087   6.337   1.013   5.011
 6714TIP3    H220088   6.240   0.975   5.121
 6715TIP3   OH220089   2.633   3.915   6.760
 6715TIP3    H120090   2.543   3.941   6.782
 6715TIP3    H220091   2.648   3.952   6.673
 6716TIP3   OH220092   5.734   0.066   3.849
 6716TIP3    H120093   5.749   0.002   3.918
 6716TIP3    H220094   5.673   0.022   3.789
 6717TIP3   OH220095   6.355   1.548   5.341
 6717TIP3    H120096   6.264   1.526   5.325
 6717TIP3    H220097   6.366   1.537   5.436
 6718TIP3   OH220098   0.473   0.766   3.261
 6718TIP3    H120099   0.539   0.753   3.330
 6718TIP3    H220100   0.482   0.858   3.237
 6719TIP3   OH220101   5.991   6.861   3.398
 6719TIP3    H120102   5.911   6.814   3.374
 6719TIP3    H220103   6.009   6.833   3.488
 6720TIP3   OH220104   1.146   3.718   5.226
 6720TIP3    H120105   1.157   3.623   5.234
 6720TIP3    H220106   1.201   3.742   5.152
 6721TIP3   OH220107   1.523   0.983   5.418
 6721TIP3    H120108   1.468   0.953   5.346
 6721TIP3    H220109   1.460   1.004   5.488
 6722TIP3   OH220110   5.167   5.922   4.911
 6722TIP3    H120111   5.228   5.879   4.971
 6722TIP3    H220112   5.080   5.895   4.942
 6723TIP3   OH220113   4.208   5.151   3.095
 6723TIP3    H120114   4.261   5.210   3.042
 6723TIP3    H220115   4.124   5.148   3.050
 6724TIP3   OH220116   4.156   6.012   6.441
 6724TIP3    H120117   4.206   5.940   6.404
 6724TIP3    H220118   4.212   6.089   6.428
 6725TIP3   OH220119   1.137   6.092   3.591
 6725TIP3    H120120   1.077   6.017   3.600
 6725TIP3    H220121   1.221   6.053   3.567
 6726TIP3   OH220122   3.499   0.170   4.958
 6726TIP3    H120123   3.475   0.117   5.033
 6726TIP3    H220124   3.506   0.259   4.992
 6727TIP3   OH220125   0.074   0.920   4.891
 6727TIP3    H120126   0.002   0.963   4.844
 6727TIP3    H220127   0.083   0.835   4.848
 6728TIP3   OH220128   3.113   5.352   0.219
 6728TIP3    H120129   3.167   5.291   0.269
 6728TIP3    H220130   3.029   5.308   0.211
 6729TIP3   OH220131   2.788   0.430   0.937
 6729TIP3    H120132   2.879   0.413   0.959
 6729TIP3    H220133   2.772   0.519   0.967
 6730TIP3   OH220134   3.352   3.444   0.947
 6730TIP3    H120135   3.297   3.417   1.021
 6730TIP3    H220136   3.303   3.515   0.905
 6731TIP3   OH220137   6.940   6.205   1.178
 6731TIP3    H120138   6.935   6.187   1.084
 6731TIP3    H220139   7.005   6.274   1.187
 6732TIP3   OH220140   6.868   3.742   5.211
 6732TIP3    H120141   6.808   3.674   5.180
 6732TIP3    H220142   6.921   3.764   5.135
 6733TIP3   OH220143   2.026   0.673   0.252
 6733TIP3    H120144   2.000   0.764   0.243
 6733TIP3    H220145   2.103   0.675   0.309
 6734TIP3   OH220146   3.877   7.532   5.988
 6734TIP3    H120147   3.826   7.496   6.060
 6734TIP3    H220148   3.877   7.627   6.004
 6735TIP3   OH220149   1.192   2.488   6.387
 6735TIP3    H120150   1.221   2.569   6.429
 6735TIP3    H220151   1.273   2.446   6.359
 6736TIP3   OH220152   5.950   2.354   1.419
 6736TIP3    H120153   5.990   2.402   1.491
 6736TIP3    H220154   5.887   2.295   1.461
 6737TIP3   OH220155   1.509   3.888   3.484
 6737TIP3    H120156   1.558   3.923   3.558
 6737TIP3    H220157   1.565   3.904   3.408
 6738TIP3   OH220158  -0.039   6.177   5.799
 6738TIP3    H120159   0.008   6.131   5.869
 6738TIP3    H220160   0.027   6.233   5.760
 6739TIP3   OH220161   2.933   2.816   2.090
 6739TIP3    H120162   2.843   2.823   2.121
 6739TIP3    H220163   2.980   2.884   2.138
 6740TIP3   OH220164   3.153   3.366   4.798
 6740TIP3    H120165   3.149   3.458   4.827
 6740TIP3    H220166   3.213   3.324   4.860
 6741TIP3   OH220167   2.114   4.600   2.412
 6741TIP3    H120168   2.196   4.650   2.419
 6741TIP3    H220169   2.119   4.538   2.486
 6742TIP3   OH220170   3.277   0.324   3.653
 6742TIP3    H120171   3.300   0.388   3.586
 6742TIP3    H220172   3.201   0.363   3.698
 6743TIP3   OH220173   2.792   4.556   0.659
 6743TIP3    H120174   2.717   4.578   0.604
 6743TIP3    H220175   2.863   4.612   0.628
 6744TIP3   OH220176   6.623   7.306   1.349
 6744TIP3    H120177   6.701   7.284   1.400
 6744TIP3    H220178   6.657   7.333   1.264
 6745TIP3   OH220179   2.346   3.760   6.105
 6745TIP3    H120180   2.342   3.732   6.197
 6745TIP3    H220181   2.440   3.768   6.088
 6746TIP3   OH220182   3.652   5.776   1.707
 6746TIP3    H120183   3.648   5.758   1.801
 6746TIP3    H220184   3.718   5.716   1.674
 6747TIP3   OH220185   6.177   5.338   6.496
 6747TIP3    H120186   6.243   5.268   6.493
 6747TIP3    H220187   6.222   5.413   6.534
 6748TIP3   OH220188   8.164   3.570   5.010
 6748TIP3    H120189   8.092   3.580   4.947
 6748TIP3    H220190   8.169   3.476   5.026
 6749TIP3   OH220191   4.592   3.625   3.137
 6749TIP3    H120192   4.581   3.716   3.107
 6749TIP3    H220193   4.686   3.617   3.153
 6750TIP3   OH220194   4.986   3.303   4.471
 6750TIP3    H120195   5.008   3.358   4.546
 6750TIP3    H220196   5.061   3.244   4.462
 6751TIP3   OH220197   5.306   4.112   1.379
 6751TIP3    H120198   5.229   4.150   1.420
 6751TIP3    H220199   5.356   4.073   1.451
 6752TIP3   OH220200   3.432   2.203   0.244
 6752TIP3    H120201   3.402   2.197   0.154
 6752TIP3    H220202   3.458   2.295   0.254
 6753TIP3   OH220203   6.164   6.836   6.087
 6753TIP3    H120204   6.214   6.907   6.130
 6753TIP3    H220205   6.115   6.880   6.018
 6754TIP3   OH220206   6.477   4.670   6.142
 6754TIP3    H120207   6.421   4.657   6.218
 6754TIP3    H220208   6.455   4.759   6.112
 6755TIP3   OH220209   7.934   1.293   1.928
 6755TIP3    H120210   7.884   1.293   1.846
 6755TIP3    H220211   7.998   1.222   1.916
 6756TIP3   OH220212   6.462   1.872   2.055
 6756TIP3    H120213   6.407   1.797   2.033
 6756TIP3    H220214   6.429   1.902   2.140
 6757TIP3   OH220215   5.410   4.735   3.153
 6757TIP3    H120216   5.341   4.784   3.199
 6757TIP3    H220217   5.450   4.799   3.095
 6758TIP3   OH220218   3.802   0.103   3.821
 6758TIP3    H120219   3.850   0.113   3.739
 6758TIP3    H220220   3.820   0.183   3.869
 6759TIP3   OH220221   5.852   1.121   0.929
 6759TIP3    H120222   5.875   1.204   0.970
 6759TIP3    H220223   5.935   1.075   0.918
 6760TIP3   OH220224   4.693   3.242   2.873
 6760TIP3    H120225   4.770   3.295   2.854
 6760TIP3    H220226   4.620   3.292   2.838
 6761TIP3   OH220227   4.046   3.744   4.281
 6761TIP3    H120228   4.138   3.734   4.308
 6761TIP3    H220229   4.051   3.772   4.190
 6762TIP3   OH220230   0.626   6.533   0.140
 6762TIP3    H120231   0.673   6.452   0.121
 6762TIP3    H220232   0.546   6.505   0.184
 6763TIP3   OH220233   7.512   6.386   1.223
 6763TIP3    H120234   7.484   6.312   1.276
 6763TIP3    H220235   7.606   6.370   1.207
 6764TIP3   OH220236   8.259   7.594   4.788
 6764TIP3    H120237   8.206   7.588   4.867
 6764TIP3    H220238   8.344   7.557   4.813
 6765TIP3   OH220239   2.012   5.751   6.533
 6765TIP3    H120240   1.934   5.805   6.519
 6765TIP3    H220241   2.085   5.812   6.519
 6766TIP3   OH220242   2.288   2.724   0.654
 6766TIP3    H120243   2.213   2.680   0.615
 6766TIP3    H220244   2.362   2.699   0.599
 6767TIP3   OH220245   0.216   5.174   1.812
 6767TIP3    H120246   0.200   5.245   1.875
 6767TIP3    H220247   0.294   5.201   1.765
 6768TIP3   OH220248   2.735   4.375   0.871
 6768TIP3    H120249   2.644   4.403   0.882
 6768TIP3    H220250   2.770   4.435   0.805
 6769TIP3   OH220251   0.335   0.276   0.077
 6769TIP3    H120252   0.257   0.310   0.032
 6769TIP3    H220253   0.409   0.312   0.028
 6770TIP3   OH220254   1.883   2.485   2.005
 6770TIP3    H120255   1.954   2.547   2.018
 6770TIP3    H220256   1.926   2.407   1.968
 6771TIP3   OH220257   6.888   7.337   6.329
 6771TIP3    H120258   6.939   7.331   6.410
 6771TIP3    H220259   6.945   7.299   6.262
 6772TIP3   OH220260   3.330   1.772   0.682
 6772TIP3    H120261   3.257   1.830   0.663
 6772TIP3    H220262   3.310   1.735   0.769
 6773TIP3   OH220263   4.098   1.647   4.382
 6773TIP3    H120264   4.071   1.601   4.303
 6773TIP3    H220265   4.192   1.628   4.390
 6774TIP3   OH220266   2.140   5.571   2.323
 6774TIP3    H120267   2.114   5.589   2.414
 6774TIP3    H220268   2.150   5.658   2.284
 6775TIP3   OH220269   3.899   5.932   2.261
 6775TIP3    H120270   3.824   5.990   2.249
 6775TIP3    H220271   3.863   5.844   2.259
 6776TIP3   OH220272   7.554   7.046   6.373
 6776TIP3    H120273   7.479   7.011   6.326
 6776TIP3    H220274   7.549   7.140   6.358
 6777TIP3   OH220275   2.017   7.071   3.785
 6777TIP3    H120276   2.023   7.166   3.775
 6777TIP3    H220277   1.950   7.058   3.852
 6778TIP3   OH220278   5.741   6.120   3.386
 6778TIP3    H120279   5.722   6.060   3.314
 6778TIP3    H220280   5.663   6.174   3.394
 6779TIP3   OH220281   1.795   5.200   5.738
 6779TIP3    H120282   1.790   5.274   5.799
 6779TIP3    H220283   1.781   5.123   5.793
 6780TIP3   OH220284   1.418   0.953   4.189
 6780TIP3    H120285   1.399   0.901   4.267
 6780TIP3    H220286   1.432   1.042   4.222
 6781TIP3   OH220287   4.451   6.012   3.557
 6781TIP3    H120288   4.411   6.008   3.644
 6781TIP3    H220289   4.399   5.951   3.504
 6782TIP3   OH220290   5.515   6.221   1.255
 6782TIP3    H120291   5.584   6.282   1.230
 6782TIP3    H220292   5.436   6.274   1.259
 6783TIP3   OH220293   4.611   0.149   3.274
 6783TIP3    H120294   4.676   0.171   3.341
 6783TIP3    H220295   4.654   0.086   3.218
 6784TIP3   OH220296   5.797   6.374   1.790
 6784TIP3    H120297   5.886   6.397   1.763
 6784TIP3    H220298   5.747   6.456   1.783
 6785TIP3   OH220299   7.903   3.789   3.703
 6785TIP3    H120300   7.916   3.708   3.751
 6785TIP3    H220301   7.812   3.785   3.673
 6786TIP3   OH220302   1.369   1.223   4.772
 6786TIP3    H120303   1.299   1.192   4.829
 6786TIP3    H220304   1.448   1.218   4.825
 6787TIP3   OH220305   4.636   1.021   5.805
 6787TIP3    H120306   4.698   1.064   5.864
 6787TIP3    H220307   4.684   1.009   5.723
 6788TIP3   OH220308   1.036   6.499   4.931
 6788TIP3    H120309   1.054   6.464   4.843
 6788TIP3    H220310   1.009   6.423   4.982
 6789TIP3   OH220311   2.158   6.044   2.060
 6789TIP3    H120312   2.221   6.074   1.994
 6789TIP3    H220313   2.098   6.118   2.070
 6790TIP3   OH220314   0.183   2.679   3.274
 6790TIP3    H120315   0.138   2.756   3.240
 6790TIP3    H220316   0.273   2.687   3.242
 6791TIP3   OH220317   3.944   6.030   5.739
 6791TIP3    H120318   3.857   5.992   5.744
 6791TIP3    H220319   3.996   5.965   5.692
 6792TIP3   OH220320   4.293   5.292   1.909
 6792TIP3    H120321   4.249   5.296   1.824
 6792TIP3    H220322   4.280   5.201   1.938
 6793TIP3   OH220323   2.725   3.507   3.220
 6793TIP3    H120324   2.704   3.598   3.199
 6793TIP3    H220325   2.782   3.512   3.296
 6794TIP3   OH220326   4.062   2.572   4.188
 6794TIP3    H120327   3.988   2.607   4.238
 6794TIP3    H220328   4.078   2.637   4.119
 6795TIP3   OH220329   2.613   3.401   0.225
 6795TIP3    H120330   2.666   3.458   0.281
 6795TIP3    H220331   2.605   3.450   0.143
 6796TIP3   OH220332   0.092   4.278   3.725
 6796TIP3    H120333   0.013   4.295   3.777
 6796TIP3    H220334   0.059   4.240   3.644
 6797TIP3   OH220335   5.193   4.476   5.462
 6797TIP3    H120336   5.200   4.524   5.544
 6797TIP3    H220337   5.122   4.519   5.414
 6798TIP3   OH220338   2.245   0.419   1.828
 6798TIP3    H120339   2.217   0.510   1.823
 6798TIP3    H220340   2.163   0.369   1.824
 6799TIP3   OH220341   5.294   0.216   6.016
 6799TIP3    H120342   5.220   0.269   6.043
 6799TIP3    H220343   5.286   0.136   6.069
 6800TIP3   OH220344   0.815   3.485   3.270
 6800TIP3    H120345   0.729   3.487   3.311
 6800TIP3    H220346   0.848   3.397   3.288
 6801TIP3   OH220347   5.294   6.582   3.723
 6801TIP3    H120348   5.336   6.514   3.671
 6801TIP3    H220349   5.351   6.593   3.799
 6802TIP3   OH220350   7.732   1.428   0.115
 6802TIP3    H120351   7.719   1.486   0.039
 6802TIP3    H220352   7.800   1.472   0.166
 6803TIP3   OH220353   6.807   3.014   6.146
 6803TIP3    H120354   6.847   2.928   6.134
 6803TIP3    H220355   6.840   3.043   6.232
 6804TIP3   OH220356   6.480   7.344   4.638
 6804TIP3    H120357   6.393   7.344   4.678
 6804TIP3    H220358   6.466   7.374   4.548
 6805TIP3   OH220359   5.457   1.831   0.326
 6805TIP3    H120360   5.454   1.922   0.355
 6805TIP3    H220361   5.398   1.785   0.386
 6806TIP3   OH220362   5.536   4.968   1.074
 6806TIP3    H120363   5.503   4.890   1.029
 6806TIP3    H220364   5.586   5.015   1.008
 6807TIP3   OH220365   0.766   6.208   4.398
 6807TIP3    H120366   0.801   6.221   4.486
 6807TIP3    H220367   0.676   6.242   4.403
 6808TIP3   OH220368   3.233   4.439   5.737
 6808TIP3    H120369   3.309   4.489   5.706
 6808TIP3    H220370   3.196   4.493   5.807
 6809TIP3   OH220371   6.865   0.099   0.566
 6809TIP3    H120372   6.771   0.087   0.579
 6809TIP3    H220373   6.872   0.141   0.480
 6810TIP3   OH220374   4.101   1.732   4.058
 6810TIP3    H120375   4.082   1.814   4.105
 6810TIP3    H220376   4.020   1.681   4.065
 6811TIP3   OH220377   6.354   4.054   6.253
 6811TIP3    H120378   6.272   4.036   6.300
 6811TIP3    H220379   6.346   4.146   6.227
 6812TIP3   OH220380   3.653   6.756   2.555
 6812TIP3    H120381   3.743   6.789   2.564
 6812TIP3    H220382   3.662   6.667   2.523
 6813TIP3   OH220383   8.253   7.840   2.157
 6813TIP3    H120384   8.259   7.853   2.062
 6813TIP3    H220385   8.160   7.853   2.177
 6814TIP3   OH220386   1.832   0.163   3.782
 6814TIP3    H120387   1.759   0.194   3.729
 6814TIP3    H220388   1.809   0.189   3.871
 6815TIP3   OH220389   1.547   1.410   2.368
 6815TIP3    H120390   1.598   1.391   2.290
 6815TIP3    H220391   1.538   1.505   2.369
 6816TIP3   OH220392   2.274   5.483   1.304
 6816TIP3    H120393   2.225   5.564   1.290
 6816TIP3    H220394   2.360   5.501   1.266
 6817TIP3   OH220395   3.440   4.296   3.451
 6817TIP3    H120396   3.516   4.311   3.395
 6817TIP3    H220397   3.458   4.347   3.530
 6818TIP3   OH220398   7.387   2.842   3.620
 6818TIP3    H120399   7.377   2.891   3.702
 6818TIP3    H220400   7.446   2.770   3.643
 6819TIP3   OH220401   5.093   5.198   2.770
 6819TIP3    H120402   5.141   5.138   2.714
 6819TIP3    H220403   5.010   5.212   2.725
 6820TIP3   OH220404   7.172   5.014   1.943
 6820TIP3    H120405   7.121   5.032   2.022
 6820TIP3    H220406   7.119   5.048   1.871
 6821TIP3   OH220407   6.067   1.867   0.064
 6821TIP3    H120408   5.989   1.922   0.074
 6821TIP3    H220409   6.141   1.928   0.070
 6822TIP3   OH220410   5.089   4.700   3.218
 6822TIP3    H120411   5.140   4.726   3.295
 6822TIP3    H220412   5.007   4.749   3.225
 6823TIP3   OH220413   1.461   2.995   1.022
 6823TIP3    H120414   1.550   2.990   0.988
 6823TIP3    H220415   1.448   2.914   1.071
 6824TIP3   OH220416   6.051   6.439   0.374
 6824TIP3    H120417   6.142   6.461   0.391
 6824TIP3    H220418   6.010   6.438   0.461
 6825TIP3   OH220419   0.742   3.605   1.660
 6825TIP3    H120420   0.808   3.544   1.627
 6825TIP3    H220421   0.750   3.682   1.603
 6826TIP3   OH220422   0.792   2.068   1.644
 6826TIP3    H120423   0.744   2.094   1.722
 6826TIP3    H220424   0.810   2.149   1.597
 6827TIP3   OH220425   7.784   5.746   2.774
 6827TIP3    H120426   7.843   5.742   2.850
 6827TIP3    H220427   7.696   5.743   2.812
 6828TIP3   OH220428   6.422   5.618   5.255
 6828TIP3    H120429   6.448   5.705   5.223
 6828TIP3    H220430   6.505   5.571   5.266
 6829TIP3   OH220431   7.069   1.340   1.120
 6829TIP3    H120432   6.996   1.292   1.160
 6829TIP3    H220433   7.027   1.402   1.060
 6830TIP3   OH220434   7.762   7.677   3.037
 6830TIP3    H120435   7.737   7.588   3.062
 6830TIP3    H220436   7.850   7.668   3.001
 6831TIP3   OH220437   3.120   4.540   3.795
 6831TIP3    H120438   3.068   4.619   3.808
 6831TIP3    H220439   3.172   4.558   3.716
 6832TIP3   OH220440   5.491   7.315   3.739
 6832TIP3    H120441   5.448   7.230   3.747
 6832TIP3    H220442   5.532   7.330   3.824
 6833TIP3   OH220443   6.418   6.866   6.724
 6833TIP3    H120444   6.415   6.840   6.632
 6833TIP3    H220445   6.350   6.814   6.766
 6834TIP3   OH220446   0.737   7.338   5.431
 6834TIP3    H120447   0.725   7.244   5.418
 6834TIP3    H220448   0.746   7.348   5.526
 6835TIP3   OH220449   5.699   0.824   3.913
 6835TIP3    H120450   5.703   0.751   3.975
 6835TIP3    H220451   5.783   0.869   3.922
 6836TIP3   OH220452   1.254   6.651   1.059
 6836TIP3    H120453   1.337   6.642   1.011
 6836TIP3    H220454   1.208   6.721   1.014
 6837TIP3   OH220455   3.455   5.191   1.705
 6837TIP3    H120456   3.442   5.104   1.666
 6837TIP3    H220457   3.389   5.246   1.663
 6838TIP3   OH220458   5.716   5.876   4.386
 6838TIP3    H120459   5.779   5.892   4.456
 6838TIP3    H220460   5.645   5.937   4.402
 6839TIP3   OH220461   1.100   1.277   3.724
 6839TIP3    H120462   1.019   1.302   3.678
 6839TIP3    H220463   1.169   1.289   3.660
 6840TIP3   OH220464   6.014   0.507   3.072
 6840TIP3    H120465   6.047   0.539   2.988
 6840TIP3    H220466   5.922   0.487   3.055
 6841TIP3   OH220467   2.961   4.901   3.624
 6841TIP3    H120468   2.923   4.977   3.669
 6841TIP3    H220469   3.027   4.938   3.566
 6842TIP3   OH220470   2.503   0.708   2.816
 6842TIP3    H120471   2.414   0.703   2.783
 6842TIP3    H220472   2.538   0.619   2.807
 6843TIP3   OH220473   2.916   5.182   2.022
 6843TIP3    H120474   2.868   5.125   1.962
 6843TIP3    H220475   2.974   5.123   2.070
 6844TIP3   OH220476   6.744   1.736   3.167
 6844TIP3    H120477   6.733   1.808   3.228
 6844TIP3    H220478   6.751   1.658   3.222
 6845TIP3   OH220479   3.815   7.535   0.319
 6845TIP3    H120480   3.838   7.617   0.277
 6845TIP3    H220481   3.719   7.533   0.318
 6846TIP3   OH220482   2.150   3.732   0.379
 6846TIP3    H120483   2.172   3.664   0.443
 6846TIP3    H220484   2.188   3.701   0.297
 6847TIP3   OH220485   1.652   7.539   4.930
 6847TIP3    H120486   1.704   7.556   5.009
 6847TIP3    H220487   1.568   7.508   4.963
 6848TIP3   OH220488   0.763   5.237   0.734
 6848TIP3    H120489   0.677   5.195   0.734
 6848TIP3    H220490   0.756   5.304   0.803
 6849TIP3   OH220491   6.461   0.737   0.233
 6849TIP3    H120492   6.476   0.831   0.224
 6849TIP3    H220493   6.403   0.730   0.309
 6850TIP3   OH220494   6.853   7.517   5.134
 6850TIP3    H120495   6.820   7.601   5.165
 6850TIP3    H220496   6.812   7.505   5.049
 6851TIP3   OH220497   5.988   5.583   3.047
 6851TIP3    H120498   5.992   5.537   3.131
 6851TIP3    H220499   5.929   5.531   2.993
 6852TIP3   OH220500   4.017   4.927   6.697
 6852TIP3    H120501   4.032   4.844   6.652
 6852TIP3    H220502   4.102   4.970   6.697
 6853TIP3   OH220503   0.257   4.908   3.362
 6853TIP3    H120504   0.281   4.911   3.454
 6853TIP3    H220505   0.340   4.897   3.316
 6854TIP3   OH220506   8.063   6.144   3.532
 6854TIP3    H120507   7.979   6.172   3.496
 6854TIP3    H220508   8.044   6.061   3.577
 6855TIP3   OH220509   3.016   3.353   0.126
 6855TIP3    H120510   3.087   3.289   0.139
 6855TIP3    H220511   2.968   3.320   0.050
 6856TIP3   OH220512   1.712   7.442   5.221
 6856TIP3    H120513   1.733   7.525   5.265
 6856TIP3    H220514   1.793   7.392   5.223
 6857TIP3   OH220515   3.575   5.919   3.720
 6857TIP3    H120516   3.663   5.954   3.707
 6857TIP3    H220517   3.517   5.994   3.705
 6858TIP3   OH220518   7.921   0.099   5.759
 6858TIP3    H120519   7.873   0.023   5.726
 6858TIP3    H220520   7.891   0.109   5.849
 6859TIP3   OH220521   1.687   1.624   3.198
 6859TIP3    H120522   1.618   1.627   3.132
 6859TIP3    H220523   1.641   1.600   3.279
 6860TIP3   OH220524   0.875   2.381   4.813
 6860TIP3    H120525   0.780   2.383   4.799
 6860TIP3    H220526   0.887   2.322   4.888
 6861TIP3   OH220527   0.935   3.582   0.932
 6861TIP3    H120528   0.847   3.579   0.896
 6861TIP3    H220529   0.935   3.657   0.991
 6862TIP3   OH220530   2.664   5.881   1.467
 6862TIP3    H120531   2.648   5.795   1.505
 6862TIP3    H220532   2.581   5.906   1.427
 6863TIP3   OH220533   5.500   4.381   5.474
 6863TIP3    H120534   5.419   4.418   5.440
 6863TIP3    H220535   5.542   4.453   5.521
 6864TIP3   OH220536   6.800   2.909   4.650
 6864TIP3    H120537   6.873   2.848   4.653
 6864TIP3    H220538   6.770   2.906   4.559
 6865TIP3   OH220539   8.152   2.207   2.144
 6865TIP3    H120540   8.231   2.246   2.104
 6865TIP3    H220541   8.186   2.140   2.203
 6866TIP3   OH220542   7.072   5.572   6.582
 6866TIP3    H120543   7.063   5.645   6.642
 6866TIP3    H220544   6.997   5.579   6.523
 6867TIP3   OH220545   4.740   5.223   3.015
 6867TIP3    H120546   4.784   5.298   3.054
 6867TIP3    H220547   4.693   5.259   2.940
 6868TIP3   OH220548   0.510   1.274   3.693
 6868TIP3    H120549   0.480   1.299   3.780
 6868TIP3    H220550   0.586   1.218   3.709
 6869TIP3   OH220551   4.973   0.595   2.750
 6869TIP3    H120552   4.960   0.519   2.694
 6869TIP3    H220553   5.035   0.566   2.817
 6870TIP3   OH220554   5.939   2.688   3.298
 6870TIP3    H120555   6.024   2.703   3.341
 6870TIP3    H220556   5.876   2.684   3.370
 6871TIP3   OH220557   6.706   0.985   3.450
 6871TIP3    H120558   6.714   0.898   3.411
 6871TIP3    H220559   6.694   1.043   3.375
 6872TIP3   OH220560   7.650   3.415   5.860
 6872TIP3    H120561   7.666   3.503   5.894
 6872TIP3    H220562   7.556   3.400   5.877
 6873TIP3   OH220563   2.590   5.727   3.256
 6873TIP3    H120564   2.673   5.741   3.302
 6873TIP3    H220565   2.598   5.640   3.218
 6874TIP3   OH220566   7.520   6.737   2.615
 6874TIP3    H120567   7.462   6.791   2.561
 6874TIP3    H220568   7.607   6.748   2.577
 6875TIP3   OH220569   6.807   7.742   6.562
 6875TIP3    H120570   6.780   7.696   6.641
 6875TIP3    H220571   6.902   7.731   6.560
 6876TIP3   OH220572   0.038   6.049   4.396
 6876TIP3    H120573   0.123   6.006   4.402
 6876TIP3    H220574   0.057   6.136   4.361
 6877TIP3   OH220575   4.595   4.200   2.769
 6877TIP3    H120576   4.506   4.228   2.748
 6877TIP3    H220577   4.651   4.266   2.728
 6878TIP3   OH220578   5.694   2.289   2.225
 6878TIP3    H120579   5.673   2.235   2.302
 6878TIP3    H220580   5.786   2.313   2.236
 6879TIP3   OH220581   0.215   0.703   4.072
 6879TIP3    H120582   0.236   0.659   4.155
 6879TIP3    H220583   0.137   0.657   4.040
 6880TIP3   OH220584   5.978   3.799   6.273
 6880TIP3    H120585   5.891   3.839   6.262
 6880TIP3    H220586   6.037   3.874   6.282
 6881TIP3   OH220587   5.254   7.128   3.248
 6881TIP3    H120588   5.338   7.121   3.294
 6881TIP3    H220589   5.267   7.200   3.186
 6882TIP3   OH220590   5.856   3.953   1.238
 6882TIP3    H120591   5.910   3.935   1.315
 6882TIP3    H220592   5.839   4.047   1.242
 6883TIP3   OH220593   5.796   4.322   1.608
 6883TIP3    H120594   5.786   4.380   1.533
 6883TIP3    H220595   5.709   4.319   1.648
 6884TIP3   OH220596   2.766   1.136   2.513
 6884TIP3    H120597   2.853   1.160   2.481
 6884TIP3    H220598   2.737   1.066   2.454
 6885TIP3   OH220599   4.258   5.146   1.368
 6885TIP3    H120600   4.279   5.142   1.462
 6885TIP3    H220601   4.327   5.200   1.331
 6886TIP3   OH220602   0.559   2.818   1.496
 6886TIP3    H120603   0.506   2.782   1.426
 6886TIP3    H220604   0.615   2.884   1.453
 6887TIP3   OH220605   3.102   3.311   1.397
 6887TIP3    H120606   3.122   3.394   1.440
 6887TIP3    H220607   3.173   3.252   1.426
 6888TIP3   OH220608   2.983   4.774   3.883
 6888TIP3    H120609   3.063   4.812   3.919
 6888TIP3    H220610   2.962   4.829   3.808
 6889TIP3   OH220611   0.811   6.900   1.029
 6889TIP3    H120612   0.832   6.828   1.088
 6889TIP3    H220613   0.887   6.958   1.033
 6890TIP3   OH220614   5.425   3.291   1.676
 6890TIP3    H120615   5.493   3.328   1.732
 6890TIP3    H220616   5.376   3.232   1.733
 6891TIP3   OH220617   1.517   1.647   5.443
 6891TIP3    H120618   1.431   1.688   5.434
 6891TIP3    H220619   1.560   1.665   5.360
 6892TIP3   OH220620   2.683   3.151   6.104
 6892TIP3    H120621   2.622   3.104   6.160
 6892TIP3    H220622   2.680   3.241   6.134
 6893TIP3   OH220623   4.883   0.895   3.037
 6893TIP3    H120624   4.828   0.917   2.962
 6893TIP3    H220625   4.851   0.809   3.066
 6894TIP3   OH220626   7.623   1.237   3.568
 6894TIP3    H120627   7.542   1.213   3.523
 6894TIP3    H220628   7.605   1.323   3.607
 6895TIP3   OH220629   1.774   4.488   3.960
 6895TIP3    H120630   1.799   4.565   3.908
 6895TIP3    H220631   1.679   4.495   3.968
 6896TIP3   OH220632   5.840   5.651   6.017
 6896TIP3    H120633   5.918   5.658   6.073
 6896TIP3    H220634   5.786   5.584   6.060
 6897TIP3   OH220635   0.009   1.612   0.237
 6897TIP3    H120636   0.070   1.583   0.305
 6897TIP3    H220637  -0.070   1.560   0.252
 6898TIP3   OH220638   4.092   3.577   5.432
 6898TIP3    H120639   4.153   3.621   5.491
 6898TIP3    H220640   4.055   3.647   5.378
 6899TIP3   OH220641   1.700   4.820   0.144
 6899TIP3    H120642   1.703   4.730   0.177
 6899TIP3    H220643   1.635   4.863   0.201
 6900TIP3   OH220644   7.531   2.205   3.423
 6900TIP3    H120645   7.586   2.283   3.433
 6900TIP3    H220646   7.528   2.167   3.511
 6901TIP3   OH220647   0.597   4.511   4.156
 6901TIP3    H120648   0.620   4.604   4.152
 6901TIP3    H220649   0.502   4.510   4.149
 6902TIP3   OH220650   0.069   7.260   5.947
 6902TIP3    H120651  -0.019   7.273   5.912
 6902TIP3    H220652   0.097   7.175   5.914
 6903TIP3   OH220653   6.120   2.589   4.050
 6903TIP3    H120654   6.118   2.675   4.092
 6903TIP3    H220655   6.029   2.572   4.026
 6904TIP3   OH220656   3.819   6.271   0.216
 6904TIP3    H120657   3.747   6.232   0.166
 6904TIP3    H220658   3.895   6.261   0.159
 6905TIP3   OH220659   0.212   2.264   6.493
 6905TIP3    H120660   0.203   2.324   6.567
 6905TIP3    H220661   0.305   2.263   6.474
 6906TIP3   OH220662   3.646   6.063   5.020
 6906TIP3    H120663   3.732   6.023   5.033
 6906TIP3    H220664   3.596   6.036   5.097
 6907TIP3   OH220665   0.192   7.599   4.902
 6907TIP3    H120666   0.229   7.591   4.990
 6907TIP3    H220667   0.237   7.673   4.863
 6908TIP3   OH220668   6.644   5.398   4.824
 6908TIP3    H120669   6.660   5.468   4.887
 6908TIP3    H220670   6.731   5.377   4.789
 6909TIP3   OH220671   5.416   1.151   5.649
 6909TIP3    H120672   5.327   1.183   5.667
 6909TIP3    H220673   5.473   1.226   5.667
 6910TIP3   OH220674   3.915   0.664   6.766
 6910TIP3    H120675   3.829   0.667   6.725
 6910TIP3    H220676   3.933   0.571   6.779
 6911TIP3   OH220677   0.037   2.915   0.492
 6911TIP3    H120678   0.003   2.970   0.563
 6911TIP3    H220679   0.067   2.977   0.426
 6912TIP3   OH220680   3.187   7.098   2.749
 6912TIP3    H120681   3.172   7.016   2.702
 6912TIP3    H220682   3.167   7.166   2.685
 6913TIP3   OH220683   0.362   3.053   5.596
 6913TIP3    H120684   0.411   3.107   5.533
 6913TIP3    H220685   0.381   3.093   5.681
 6914TIP3   OH220686   5.483   4.650   5.342
 6914TIP3    H120687   5.456   4.594   5.270
 6914TIP3    H220688   5.550   4.599   5.388
 6915TIP3   OH220689   0.926   3.884   5.233
 6915TIP3    H120690   0.888   3.886   5.321
 6915TIP3    H220691   0.995   3.818   5.239
 6916TIP3   OH220692   2.730   5.365   2.154
 6916TIP3    H120693   2.773   5.450   2.151
 6916TIP3    H220694   2.740   5.329   2.066
 6917TIP3   OH220695   0.825   1.033   5.467
 6917TIP3    H120696   0.781   0.963   5.420
 6917TIP3    H220697   0.883   1.074   5.402
 6918TIP3   OH220698   4.245   0.864   2.149
 6918TIP3    H120699   4.306   0.934   2.125
 6918TIP3    H220700   4.189   0.904   2.216
 6919TIP3   OH220701   5.165   7.246   6.574
 6919TIP3    H120702   5.114   7.194   6.512
 6919TIP3    H220703   5.234   7.187   6.603
 6920TIP3   OH220704   2.976   4.042   5.831
 6920TIP3    H120705   3.019   4.020   5.748
 6920TIP3    H220706   2.896   4.088   5.805
 6921TIP3   OH220707   3.651   4.875   2.946
 6921TIP3    H120708   3.640   4.804   2.883
 6921TIP3    H220709   3.563   4.911   2.956
 6922TIP3   OH220710   2.657   0.241   6.186
 6922TIP3    H120711   2.707   0.290   6.251
 6922TIP3    H220712   2.677   0.149   6.204
 6923TIP3   OH220713   3.957   3.713   2.905
 6923TIP3    H120714   3.984   3.643   2.846
 6923TIP3    H220715   3.950   3.671   2.991
 6924TIP3   OH220716   1.104   2.407   4.324
 6924TIP3    H120717   1.048   2.367   4.391
 6924TIP3    H220718   1.082   2.360   4.244
 6925TIP3   OH220719   2.540   1.652   0.329
 6925TIP3    H120720   2.522   1.710   0.254
 6925TIP3    H220721   2.611   1.696   0.376
 6926TIP3   OH220722   7.712   3.601   2.938
 6926TIP3    H120723   7.739   3.692   2.927
 6926TIP3    H220724   7.744   3.577   3.025
 6927TIP3   OH220725   6.666   6.166   5.401
 6927TIP3    H120726   6.690   6.137   5.489
 6927TIP3    H220727   6.581   6.210   5.413
 6928TIP3   OH220728   2.634   3.998   4.281
 6928TIP3    H120729   2.605   4.045   4.359
 6928TIP3    H220730   2.660   4.066   4.220
 6929TIP3   OH220731   4.778   3.080   1.649
 6929TIP3    H120732   4.791   3.112   1.560
 6929TIP3    H220733   4.832   3.001   1.655
 6930TIP3   OH220734   7.106   6.059   2.812
 6930TIP3    H120735   7.158   6.137   2.832
 6930TIP3    H220736   7.167   6.000   2.768
 6931TIP3   OH220737   0.513   6.483   6.385
 6931TIP3    H120738   0.536   6.510   6.473
 6931TIP3    H220739   0.451   6.411   6.396
 6932TIP3   OH220740   3.749   6.856   6.582
 6932TIP3    H120741   3.674   6.825   6.632
 6932TIP3    H220742   3.713   6.923   6.524
 6933TIP3   OH220743   5.344   1.588   4.668
 6933TIP3    H120744   5.366   1.556   4.580
 6933TIP3    H220745   5.269   1.644   4.654
 6934TIP3   OH220746   7.459   3.097   0.300
 6934TIP3    H120747   7.433   3.098   0.392
 6934TIP3    H220748   7.472   3.189   0.278
 6935TIP3   OH220749   4.940   4.871   0.586
 6935TIP3    H120750   5.035   4.879   0.592
 6935TIP3    H220751   4.910   4.870   0.676
 6936TIP3   OH220752   2.403   3.953   4.099
 6936TIP3    H120753   2.497   3.954   4.116
 6936TIP3    H220754   2.363   3.942   4.186
 6937TIP3   OH220755   2.375   2.735   6.368
 6937TIP3    H120756   2.463   2.761   6.397
 6937TIP3    H220757   2.366   2.644   6.395
 6938TIP3   OH220758   4.341   3.271   3.464
 6938TIP3    H120759   4.325   3.186   3.422
 6938TIP3    H220760   4.396   3.319   3.402
 6939TIP3   OH220761   1.910   5.835   0.024
 6939TIP3    H120762   1.831   5.881  -0.006
 6939TIP3    H220763   1.886   5.743   0.023
 6940TIP3   OH220764   0.863   6.593   6.512
 6940TIP3    H120765   0.896   6.545   6.436
 6940TIP3    H220766   0.828   6.525   6.570
 6941TIP3   OH220767   3.652   3.893   4.081
 6941TIP3    H120768   3.634   3.985   4.099
 6941TIP3    H220769   3.669   3.855   4.168
 6942TIP3   OH220770   3.850   1.064   5.955
 6942TIP3    H120771   3.829   1.156   5.935
 6942TIP3    H220772   3.945   1.060   5.946
 6943TIP3   OH220773   2.615   6.727   4.949
 6943TIP3    H120774   2.693   6.698   4.995
 6943TIP3    H220775   2.644   6.801   4.895
 6944TIP3   OH220776   7.353   1.513   4.271
 6944TIP3    H120777   7.310   1.535   4.354
 6944TIP3    H220778   7.360   1.597   4.225
 6945TIP3   OH220779   0.993   4.871   6.355
 6945TIP3    H120780   1.071   4.923   6.337
 6945TIP3    H220781   0.921   4.935   6.354
 6946TIP3   OH220782   5.604   7.095   4.409
 6946TIP3    H120783   5.607   7.087   4.504
 6946TIP3    H220784   5.696   7.086   4.381
 6947TIP3   OH220785   2.388   6.755   1.138
 6947TIP3    H120786   2.460   6.818   1.130
 6947TIP3    H220787   2.323   6.801   1.191
 6948TIP3   OH220788   7.465   2.393   3.037
 6948TIP3    H120789   7.375   2.424   3.022
 6948TIP3    H220790   7.455   2.302   3.064
 6949TIP3   OH220791   2.737   0.345   1.728
 6949TIP3    H120792   2.761   0.290   1.654
 6949TIP3    H220793   2.776   0.300   1.804
 6950TIP3   OH220794   2.933   0.499   6.688
 6950TIP3    H120795   2.843   0.465   6.690
 6950TIP3    H220796   2.935   0.565   6.757
 6951TIP3   OH220797   1.381   0.365   3.049
 6951TIP3    H120798   1.463   0.375   3.001
 6951TIP3    H220799   1.317   0.413   2.997
 6952TIP3   OH220800   7.241   3.114   2.519
 6952TIP3    H120801   7.150   3.138   2.504
 6952TIP3    H220802   7.289   3.196   2.509
 6953TIP3   OH220803   7.779   5.544   1.888
 6953TIP3    H120804   7.754   5.607   1.955
 6953TIP3    H220805   7.804   5.466   1.938
 6954TIP3   OH220806   0.546   6.886   3.995
 6954TIP3    H120807   0.529   6.830   3.920
 6954TIP3    H220808   0.597   6.832   4.055
 6955TIP3   OH220809   7.071   6.082   4.894
 6955TIP3    H120810   7.072   6.067   4.800
 6955TIP3    H220811   7.162   6.073   4.921
 6956TIP3   OH220812   5.360   2.313   1.180
 6956TIP3    H120813   5.395   2.366   1.108
 6956TIP3    H220814   5.290   2.367   1.217
 6957TIP3   OH220815   6.918   2.629   0.910
 6957TIP3    H120816   7.008   2.599   0.920
 6957TIP3    H220817   6.923   2.725   0.918
 6958TIP3   OH220818   0.800   2.572   2.576
 6958TIP3    H120819   0.729   2.613   2.527
 6958TIP3    H220820   0.880   2.598   2.530
 6959TIP3   OH220821   5.522   5.867   0.166
 6959TIP3    H120822   5.576   5.946   0.164
 6959TIP3    H220823   5.564   5.812   0.233
 6960TIP3   OH220824   7.668   2.297   2.157
 6960TIP3    H120825   7.721   2.336   2.088
 6960TIP3    H220826   7.724   2.298   2.235
 6961TIP3   OH220827   0.609   6.082   3.211
 6961TIP3    H120828   0.603   5.987   3.220
 6961TIP3    H220829   0.606   6.115   3.300
 6962TIP3   OH220830   1.870   7.770   5.913
 6962TIP3    H120831   1.914   7.723   5.842
 6962TIP3    H220832   1.939   7.785   5.978
 6963TIP3   OH220833   4.951   2.493   2.052
 6963TIP3    H120834   4.945   2.587   2.032
 6963TIP3    H220835   4.898   2.482   2.132
 6964TIP3   OH220836   0.560   5.244   1.210
 6964TIP3    H120837   0.565   5.161   1.256
 6964TIP3    H220838   0.642   5.250   1.161
 6965TIP3   OH220839   1.811   6.397   4.879
 6965TIP3    H120840   1.827   6.446   4.959
 6965TIP3    H220841   1.852   6.312   4.895
 6966TIP3   OH220842   4.667   4.512   5.004
 6966TIP3    H120843   4.663   4.598   5.044
 6966TIP3    H220844   4.727   4.462   5.059
 6967TIP3   OH220845   0.995   3.859   3.020
 6967TIP3    H120846   1.069   3.901   2.976
 6967TIP3    H220847   1.034   3.782   3.063
 6968TIP3   OH220848   3.520   4.477   5.929
 6968TIP3    H120849   3.448   4.540   5.928
 6968TIP3    H220850   3.542   4.467   6.022
 6969TIP3   OH220851   1.744   2.915   1.610
 6969TIP3    H120852   1.834   2.894   1.585
 6969TIP3    H220853   1.710   2.965   1.536
 6970TIP3   OH220854   6.464   5.235   3.694
 6970TIP3    H120855   6.553   5.212   3.721
 6970TIP3    H220856   6.472   5.325   3.661
 6971TIP3   OH220857   6.722   7.068   3.298
 6971TIP3    H120858   6.664   6.997   3.327
 6971TIP3    H220859   6.771   7.091   3.377
 6972TIP3   OH220860   1.057   4.132   0.451
 6972TIP3    H120861   1.049   4.037   0.441
 6972TIP3    H220862   1.144   4.152   0.417
 6973TIP3   OH220863   1.952   2.258   1.837
 6973TIP3    H120864   1.935   2.203   1.914
 6973TIP3    H220865   2.012   2.206   1.783
 6974TIP3   OH220866   7.169   2.610   1.449
 6974TIP3    H120867   7.239   2.585   1.389
 6974TIP3    H220868   7.147   2.700   1.424
 6975TIP3   OH220869   7.908   1.061   3.027
 6975TIP3    H120870   7.936   1.120   2.958
 6975TIP3    H220871   7.886   0.980   2.982
 6976TIP3   OH220872   2.024   0.130   2.545
 6976TIP3    H120873   2.056   0.066   2.608
 6976TIP3    H220874   2.015   0.211   2.596
 6977TIP3   OH220875   0.248   0.413   5.169
 6977TIP3    H120876   0.262   0.501   5.135
 6977TIP3    H220877   0.159   0.415   5.205
 6978TIP3   OH220878   4.951   5.930   2.319
 6978TIP3    H120879   4.907   6.015   2.318
 6978TIP3    H220880   4.973   5.916   2.411
 6979TIP3   OH220881   3.445   7.419   1.230
 6979TIP3    H120882   3.359   7.383   1.249
 6979TIP3    H220883   3.428   7.494   1.173
 6980TIP3   OH220884   4.600   4.347   2.480
 6980TIP3    H120885   4.531   4.413   2.471
 6980TIP3    H220886   4.554   4.267   2.503
 6981TIP3   OH220887   4.442   1.434   5.409
 6981TIP3    H120888   4.355   1.469   5.387
 6981TIP3    H220889   4.477   1.405   5.325
 6982TIP3   OH220890   5.245   1.192   2.858
 6982TIP3    H120891   5.315   1.193   2.792
 6982TIP3    H220892   5.173   1.242   2.817
 6983TIP3   OH220893   0.557   3.505   1.162
 6983TIP3    H120894   0.527   3.467   1.079
 6983TIP3    H220895   0.503   3.584   1.172
 6984TIP3   OH220896   0.103   4.014   4.851
 6984TIP3    H120897   0.114   4.067   4.930
 6984TIP3    H220898   0.187   3.970   4.839
 6985TIP3   OH220899   4.784   1.556   5.780
 6985TIP3    H120900   4.774   1.545   5.686
 6985TIP3    H220901   4.711   1.508   5.818
 6986TIP3   OH220902   1.166   3.408   0.267
 6986TIP3    H120903   1.074   3.409   0.240
 6986TIP3    H220904   1.166   3.362   0.351
 6987TIP3   OH220905   5.877   7.443   0.265
 6987TIP3    H120906   5.942   7.509   0.289
 6987TIP3    H220907   5.825   7.431   0.344
 6988TIP3   OH220908   4.831   1.155   2.087
 6988TIP3    H120909   4.904   1.189   2.137
 6988TIP3    H220910   4.838   1.060   2.094
 6989TIP3   OH220911   7.887   3.537   5.202
 6989TIP3    H120912   7.833   3.459   5.196
 6989TIP3    H220913   7.977   3.505   5.198
 6990TIP3   OH220914   7.223   3.256   2.002
 6990TIP3    H120915   7.168   3.332   2.021
 6990TIP3    H220916   7.161   3.187   1.978
 6991TIP3   OH220917   5.213   5.032   3.646
 6991TIP3    H120918   5.209   4.971   3.719
 6991TIP3    H220919   5.121   5.043   3.619
 6992TIP3   OH220920   6.117   1.791   0.345
 6992TIP3    H120921   6.084   1.783   0.255
 6992TIP3    H220922   6.041   1.769   0.400
 6993TIP3   OH220923   2.449   2.261   3.390
 6993TIP3    H120924   2.534   2.302   3.371
 6993TIP3    H220925   2.399   2.274   3.309
 6994TIP3   OH220926   3.956   5.441   5.196
 6994TIP3    H120927   4.031   5.393   5.162
 6994TIP3    H220928   3.960   5.428   5.290
 6995TIP3   OH220929   2.324   4.179   3.085
 6995TIP3    H120930   2.358   4.206   3.000
 6995TIP3    H220931   2.400   4.182   3.143
 6996TIP3   OH220932   6.141   7.638   4.939
 6996TIP3    H120933   6.102   7.611   4.856
 6996TIP3    H220934   6.070   7.682   4.985
 6997TIP3   OH220935   0.207   3.665   5.046
 6997TIP3    H120936   0.195   3.736   5.109
 6997TIP3    H220937   0.170   3.698   4.964
 6998TIP3   OH220938   3.526   2.823   4.752
 6998TIP3    H120939   3.555   2.910   4.722
 6998TIP3    H220940   3.525   2.770   4.672
 6999TIP3   OH220941   2.630   3.767   6.132
 6999TIP3    H120942   2.635   3.828   6.058
 6999TIP3    H220943   2.648   3.681   6.093
 7000TIP3   OH220944   2.544   7.130   3.470
 7000TIP3    H120945   2.619   7.142   3.527
 7000TIP3    H220946   2.512   7.042   3.489
 7001TIP3   OH220947   3.368   4.067   3.858
 7001TIP3    H120948   3.440   4.030   3.908
 7001TIP3    H220949   3.362   4.158   3.889
 7002TIP3   OH220950   1.174   1.544   4.687
 7002TIP3    H120951   1.154   1.478   4.620
 7002TIP3    H220952   1.137   1.625   4.652
 7003TIP3   OH220953   0.497   4.103   1.147
 7003TIP3    H120954   0.518   4.026   1.200
 7003TIP3    H220955   0.497   4.175   1.210
 7004TIP3   OH220956   1.735   3.611   6.672
 7004TIP3    H120957   1.689   3.694   6.664
 7004TIP3    H220958   1.763   3.590   6.582
 7005TIP3   OH220959   6.965   6.715   2.933
 7005TIP3    H120960   6.907   6.750   2.865
 7005TIP3    H220961   6.952   6.773   3.008
 7006TIP3   OH220962   4.592   4.123   4.911
 7006TIP3    H120963   4.617   4.176   4.835
 7006TIP3    H220964   4.555   4.186   4.972
 7007TIP3   OH220965   1.772   0.845   3.648
 7007TIP3    H120966   1.785   0.931   3.688
 7007TIP3    H220967   1.683   0.848   3.613
 7008TIP3   OH220968   2.571   4.921   0.057
 7008TIP3    H120969   2.660   4.941   0.085
 7008TIP3    H220970   2.580   4.872  -0.024
 7009TIP3   OH220971   0.914   6.810   2.498
 7009TIP3    H120972   0.985   6.864   2.464
 7009TIP3    H220973   0.958   6.733   2.534
 7010TIP3   OH220974   8.254   4.830   2.619
 7010TIP3    H120975   8.228   4.749   2.663
 7010TIP3    H220976   8.171   4.872   2.596
 7011TIP3   OH220977   5.116   0.511   5.229
 7011TIP3    H120978   5.052   0.536   5.296
 7011TIP3    H220979   5.171   0.445   5.273
 7012TIP3   OH220980   1.126   3.790   2.556
 7012TIP3    H120981   1.100   3.853   2.624
 7012TIP3    H220982   1.124   3.841   2.475
 7013TIP3   OH220983   7.452   7.267   5.999
 7013TIP3    H120984   7.478   7.306   5.916
 7013TIP3    H220985   7.529   7.274   6.054
 7014TIP3   OH220986   4.232   4.994   0.444
 7014TIP3    H120987   4.233   4.965   0.535
 7014TIP3    H220988   4.312   4.959   0.406
 7015TIP3   OH220989   7.324   6.813   4.791
 7015TIP3    H120990   7.249   6.804   4.849
 7015TIP3    H220991   7.316   6.901   4.754
 7016TIP3   OH220992   7.213   0.204   4.473
 7016TIP3    H120993   7.189   0.119   4.511
 7016TIP3    H220994   7.170   0.204   4.388
 7017TIP3   OH220995   5.248   6.196   1.767
 7017TIP3    H120996   5.195   6.143   1.707
 7017TIP3    H220997   5.245   6.284   1.729
 7018TIP3   OH220998   0.164   2.696   1.929
 7018TIP3    H120999   0.142   2.704   1.836
 7018TIP3    H221000   0.090   2.649   1.967
 7019TIP3   OH221001   0.096   4.445   4.340
 7019TIP3    H121002   0.054   4.361   4.356
 7019TIP3    H221003   0.026   4.502   4.308
 7020TIP3   OH221004   0.789   3.045   1.740
 7020TIP3    H121005   0.852   3.008   1.679
 7020TIP3    H221006   0.744   3.114   1.691
 7021TIP3   OH221007   5.585   2.083   5.918
 7021TIP3    H121008   5.491   2.066   5.926
 7021TIP3    H221009   5.595   2.175   5.945
 7022TIP3   OH221010   0.536   6.232   1.284
 7022TIP3    H121011   0.579   6.295   1.226
 7022TIP3    H221012   0.490   6.287   1.348
 7023TIP3   OH221013   6.691   2.682   2.125
 7023TIP3    H121014   6.663   2.623   2.194
 7023TIP3    H221015   6.630   2.756   2.130
 7024TIP3   OH221016   3.807   7.161   6.727
 7024TIP3    H121017   3.714   7.159   6.749
 7024TIP3    H221018   3.837   7.247   6.757
 7025TIP3   OH221019   0.905   5.216   3.108
 7025TIP3    H121020   0.907   5.275   3.033
 7025TIP3    H221021   0.955   5.261   3.176
 7026TIP3   OH221022   4.525   4.531   1.448
 7026TIP3    H121023   4.529   4.479   1.368
 7026TIP3    H221024   4.447   4.585   1.438
 7027TIP3   OH221025   7.608   7.243   1.835
 7027TIP3    H121026   7.566   7.157   1.844
 7027TIP3    H221027   7.699   7.227   1.858
 7028TIP3   OH221028   2.504   4.218   1.592
 7028TIP3    H121029   2.445   4.282   1.552
 7028TIP3    H221030   2.495   4.139   1.539
 7029TIP3   OH221031   2.707   7.197   4.982
 7029TIP3    H121032   2.767   7.219   5.053
 7029TIP3    H221033   2.650   7.273   4.973
 7030TIP3   OH221034   3.297   2.216   6.147
 7030TIP3    H121035   3.314   2.235   6.240
 7030TIP3    H221036   3.227   2.150   6.149
 7031TIP3   OH221037   4.539   2.980   1.422
 7031TIP3    H121038   4.580   2.987   1.507
 7031TIP3    H221039   4.504   3.068   1.405
 7032TIP3   OH221040   5.527   3.031   0.243
 7032TIP3    H121041   5.620   3.049   0.230
 7032TIP3    H221042   5.482   3.091   0.184
 7033TIP3   OH221043   0.276   5.323   6.556
 7033TIP3    H121044   0.219   5.400   6.554
 7033TIP3    H221045   0.351   5.350   6.608
 7034TIP3   OH221046   3.125   2.861   5.339
 7034TIP3    H121047   3.152   2.866   5.431
 7034TIP3    H221048   3.054   2.926   5.332
 7035TIP3   OH221049   4.636   4.484   3.668
 7035TIP3    H121050   4.674   4.411   3.716
 7035TIP3    H221051   4.681   4.562   3.703
 7036TIP3   OH221052   1.155   1.801   4.167
 7036TIP3    H121053   1.174   1.831   4.078
 7036TIP3    H221054   1.212   1.725   4.179
 7037TIP3   OH221055   6.551   2.858   0.858
 7037TIP3    H121056   6.524   2.930   0.801
 7037TIP3    H221057   6.616   2.896   0.916
 7038TIP3   OH221058   5.449   3.367   2.540
 7038TIP3    H121059   5.434   3.358   2.634
 7038TIP3    H221060   5.393   3.300   2.500
 7039TIP3   OH221061   2.713   7.615   3.348
 7039TIP3    H121062   2.632   7.599   3.397
 7039TIP3    H221063   2.737   7.529   3.314
 7040TIP3   OH221064   2.332   3.175   1.381
 7040TIP3    H121065   2.332   3.181   1.286
 7040TIP3    H221066   2.401   3.112   1.401
 7041TIP3   OH221067   5.996   1.632   3.451
 7041TIP3    H121068   6.011   1.624   3.546
 7041TIP3    H221069   6.060   1.698   3.423
 7042TIP3   OH221070   5.493   2.732   1.385
 7042TIP3    H121071   5.476   2.775   1.469
 7042TIP3    H221072   5.587   2.739   1.373
 7043TIP3   OH221073   3.139   0.236   1.798
 7043TIP3    H121074   3.060   0.243   1.851
 7043TIP3    H221075   3.195   0.176   1.848
 7044TIP3   OH221076   7.758   0.901   0.370
 7044TIP3    H121077   7.724   0.901   0.280
 7044TIP3    H221078   7.753   0.810   0.398
 7045TIP3   OH221079   6.380   2.611   1.087
 7045TIP3    H121080   6.395   2.692   1.136
 7045TIP3    H221081   6.357   2.640   0.999
 7046TIP3   OH221082   7.591   6.931   4.914
 7046TIP3    H121083   7.596   6.885   4.998
 7046TIP3    H221084   7.518   6.888   4.868
 7047TIP3   OH221085   5.875   0.085   0.241
 7047TIP3    H121086   5.911   0.173   0.244
 7047TIP3    H221087   5.898   0.046   0.325
 7048TIP3   OH221088   1.813   2.735   2.782
 7048TIP3    H121089   1.905   2.759   2.779
 7048TIP3    H221090   1.805   2.660   2.723
 7049TIP3   OH221091   3.271   7.795   1.375
 7049TIP3    H121092   3.301   7.728   1.435
 7049TIP3    H221093   3.185   7.765   1.346
 7050TIP3   OH221094   0.617   5.695   4.192
 7050TIP3    H121095   0.604   5.769   4.133
 7050TIP3    H221096   0.710   5.674   4.183
 7051TIP3   OH221097   7.493   5.684   5.234
 7051TIP3    H121098   7.529   5.765   5.269
 7051TIP3    H221099   7.469   5.633   5.311
 7052TIP3   OH221100   5.068   2.726   3.781
 7052TIP3    H121101   4.997   2.726   3.845
 7052TIP3    H221102   5.029   2.692   3.701
 7053TIP3   OH221103   5.164   0.195   2.147
 7053TIP3    H121104   5.164   0.155   2.060
 7053TIP3    H221105   5.130   0.128   2.205
 7054TIP3   OH221106   3.146   4.046   3.718
 7054TIP3    H121107   3.233   4.029   3.753
 7054TIP3    H221108   3.157   4.126   3.665
 7055TIP3   OH221109   0.688   5.382   4.795
 7055TIP3    H121110   0.664   5.328   4.871
 7055TIP3    H221111   0.647   5.467   4.812
 7056TIP3   OH221112   6.590   6.919   6.160
 7056TIP3    H121113   6.641   7.000   6.158
 7056TIP3    H221114   6.501   6.947   6.181
 7057TIP3   OH221115   1.445   6.733   0.521
 7057TIP3    H121116   1.488   6.676   0.584
 7057TIP3    H221117   1.516   6.784   0.482
 7058TIP3   OH221118   1.477   6.853   6.536
 7058TIP3    H121119   1.395   6.890   6.504
 7058TIP3    H221120   1.459   6.831   6.628
 7059TIP3   OH221121   0.006   5.043   1.689
 7059TIP3    H121122  -0.033   5.114   1.639
 7059TIP3    H221123   0.082   5.082   1.732
 7060TIP3   OH221124   4.053   4.964   1.185
 7060TIP3    H121125   3.995   5.009   1.246
 7060TIP3    H221126   4.087   4.890   1.236
 7061TIP3   OH221127   4.198   7.399   1.336
 7061TIP3    H121128   4.107   7.428   1.327
 7061TIP3    H221129   4.215   7.348   1.257
 7062TIP3   OH221130   3.563   4.240   5.488
 7062TIP3    H121131   3.554   4.268   5.579
 7062TIP3    H221132   3.564   4.144   5.492
 7063TIP3   OH221133   0.626   0.875   3.951
 7063TIP3    H121134   0.560   0.945   3.953
 7063TIP3    H221135   0.709   0.922   3.947
 7064TIP3   OH221136   2.083   4.967   4.983
 7064TIP3    H121137   1.988   4.956   4.993
 7064TIP3    H221138   2.117   4.963   5.073
 7065TIP3   OH221139   2.872   4.650   1.837
 7065TIP3    H121140   2.883   4.691   1.922
 7065TIP3    H221141   2.842   4.721   1.779
 7066TIP3   OH221142   0.155   7.809   6.040
 7066TIP3    H121143   0.109   7.847   5.965
 7066TIP3    H221144   0.162   7.716   6.019
 7067TIP3   OH221145   7.037   5.707   3.117
 7067TIP3    H121146   6.954   5.728   3.159
 7067TIP3    H221147   7.083   5.791   3.110
 7068TIP3   OH221148   0.831   1.743   0.128
 7068TIP3    H121149   0.893   1.690   0.179
 7068TIP3    H221150   0.852   1.723   0.037
 7069TIP3   OH221151   0.100   6.749   1.929
 7069TIP3    H121152   0.121   6.822   1.872
 7069TIP3    H221153   0.120   6.671   1.877
 7070TIP3   OH221154   1.494   4.608   4.259
 7070TIP3    H121155   1.408   4.592   4.298
 7070TIP3    H221156   1.517   4.525   4.217
 7071TIP3   OH221157   6.366   2.303   1.742
 7071TIP3    H121158   6.334   2.391   1.762
 7071TIP3    H221159   6.394   2.308   1.651
 7072TIP3   OH221160   7.007   4.544   1.185
 7072TIP3    H121161   6.938   4.608   1.167
 7072TIP3    H221162   6.996   4.522   1.278
 7073TIP3   OH221163   0.335   6.396   5.335
 7073TIP3    H121164   0.334   6.365   5.425
 7073TIP3    H221165   0.340   6.491   5.342
 7074TIP3   OH221166   7.043   7.541   0.491
 7074TIP3    H121167   7.006   7.592   0.419
 7074TIP3    H221168   7.079   7.463   0.449
 7075TIP3   OH221169   8.206   3.080   0.691
 7075TIP3    H121170   8.127   3.042   0.729
 7075TIP3    H221171   8.185   3.173   0.678
 7076TIP3   OH221172   2.122   6.870   0.503
 7076TIP3    H121173   2.070   6.882   0.424
 7076TIP3    H221174   2.178   6.794   0.484
 7077TIP3   OH221175   2.051   5.067   0.933
 7077TIP3    H121176   2.016   5.087   1.020
 7077TIP3    H221177   1.978   5.025   0.887
 7078TIP3   OH221178   2.632   6.849   1.389
 7078TIP3    H121179   2.626   6.929   1.337
 7078TIP3    H221180   2.724   6.823   1.383
 7079TIP3   OH221181   1.413   2.140   1.384
 7079TIP3    H121182   1.509   2.142   1.388
 7079TIP3    H221183   1.393   2.055   1.345
 7080TIP3   OH221184   6.449   4.383   6.632
 7080TIP3    H121185   6.371   4.438   6.635
 7080TIP3    H221186   6.522   4.445   6.627
 7081TIP3   OH221187   4.941   5.868   1.764
 7081TIP3    H121188   4.871   5.806   1.784
 7081TIP3    H221189   5.022   5.820   1.784
 7082TIP3   OH221190   1.819   1.794   4.123
 7082TIP3    H121191   1.799   1.740   4.047
 7082TIP3    H221192   1.809   1.884   4.093
 7083TIP3   OH221193   3.075   3.614   3.141
 7083TIP3    H121194   3.166   3.643   3.147
 7083TIP3    H221195   3.078   3.522   3.166
 7084TIP3   OH221196   7.902   1.079   5.277
 7084TIP3    H121197   7.972   1.119   5.226
 7084TIP3    H221198   7.863   1.151   5.326
 7085TIP3   OH221199   7.910   4.729   1.819
 7085TIP3    H121200   7.833   4.784   1.809
 7085TIP3    H221201   7.972   4.784   1.866
 7086TIP3   OH221202   2.438   4.138   5.479
 7086TIP3    H121203   2.519   4.092   5.502
 7086TIP3    H221204   2.417   4.106   5.392
 7087TIP3   OH221205   7.521   0.536   4.998
 7087TIP3    H121206   7.453   0.603   5.010
 7087TIP3    H221207   7.509   0.476   5.072
 7088TIP3   OH221208   6.877   3.755   1.607
 7088TIP3    H121209   6.839   3.668   1.601
 7088TIP3    H221210   6.904   3.776   1.517
 7089TIP3   OH221211   4.093   2.493   6.231
 7089TIP3    H121212   4.027   2.527   6.291
 7089TIP3    H221213   4.044   2.438   6.169
 7090TIP3   OH221214   4.845   4.971   4.588
 7090TIP3    H121215   4.939   4.951   4.590
 7090TIP3    H221216   4.832   5.018   4.506
 7091TIP3   OH221217   6.457   7.290   6.083
 7091TIP3    H121218   6.547   7.259   6.093
 7091TIP3    H221219   6.459   7.343   6.003
 7092TIP3   OH221220   5.337   6.050   1.385
 7092TIP3    H121221   5.355   6.052   1.479
 7092TIP3    H221222   5.376   6.130   1.351
 7093TIP3   OH221223   1.922   3.032   6.086
 7093TIP3    H121224   1.845   3.079   6.118
 7093TIP3    H221225   1.892   2.942   6.073
 7094TIP3   OH221226   1.253   0.886   2.946
 7094TIP3    H121227   1.301   0.883   3.028
 7094TIP3    H221228   1.170   0.842   2.965
 7095TIP3   OH221229   7.016   0.372   0.111
 7095TIP3    H121230   6.984   0.320   0.184
 7095TIP3    H221231   7.022   0.461   0.146
 7096TIP3   OH221232   1.144   0.256   1.558
 7096TIP3    H121233   1.172   0.165   1.557
 7096TIP3    H221234   1.060   0.256   1.513
 7097TIP3   OH221235   1.450   3.884   2.769
 7097TIP3    H121236   1.464   3.831   2.690
 7097TIP3    H221237   1.448   3.974   2.737
 7098TIP3   OH221238   0.755   3.014   3.995
 7098TIP3    H121239   0.794   2.939   4.041
 7098TIP3    H221240   0.828   3.074   3.981
 7099TIP3   OH221241   2.767   2.486   5.041
 7099TIP3    H121242   2.847   2.496   5.093
 7099TIP3    H221243   2.735   2.575   5.029
 7100TIP3   OH221244   0.744   4.166   2.973
 7100TIP3    H121245   0.699   4.225   3.033
 7100TIP3    H221246   0.803   4.114   3.028
 7101TIP3   OH221247   8.160   4.420   3.244
 7101TIP3    H121248   8.156   4.515   3.230
 7101TIP3    H221249   8.069   4.391   3.234
 7102TIP3   OH221250   7.324   2.745   5.632
 7102TIP3    H121251   7.229   2.760   5.630
 7102TIP3    H221252   7.360   2.809   5.570
 7103TIP3   OH221253   7.329   2.567   4.528
 7103TIP3    H121254   7.311   2.646   4.477
 7103TIP3    H221255   7.261   2.505   4.501
 7104TIP3   OH221256   1.196   4.505   4.250
 7104TIP3    H121257   1.133   4.523   4.181
 7104TIP3    H221258   1.211   4.410   4.245
 7105TIP3   OH221259   1.613   0.714   3.890
 7105TIP3    H121260   1.547   0.713   3.819
 7105TIP3    H221261   1.688   0.759   3.852
 7106TIP3   OH221262   2.708   2.577   2.560
 7106TIP3    H121263   2.729   2.536   2.476
 7106TIP3    H221264   2.783   2.633   2.579
 7107TIP3   OH221265   1.835   2.738   6.621
 7107TIP3    H121266   1.870   2.692   6.698
 7107TIP3    H221267   1.744   2.710   6.616
 7108TIP3   OH221268   4.570   7.705   3.572
 7108TIP3    H121269   4.661   7.682   3.552
 7108TIP3    H221270   4.528   7.622   3.592
 7109TIP3   OH221271   5.670   6.423   6.641
 7109TIP3    H121272   5.598   6.474   6.604
 7109TIP3    H221273   5.733   6.489   6.671
 7110TIP3   OH221274   4.516   0.584   5.031
 7110TIP3    H121275   4.437   0.629   5.060
 7110TIP3    H221276   4.588   0.637   5.065
 7111TIP3   OH221277   7.702   1.930   3.655
 7111TIP3    H121278   7.630   1.889   3.702
 7111TIP3    H221279   7.684   2.023   3.659
 7112TIP3   OH221280   6.885   6.932   1.657
 7112TIP3    H121281   6.883   6.942   1.753
 7112TIP3    H221282   6.913   7.018   1.625
 7113TIP3   OH221283   7.311   0.428   4.591
 7113TIP3    H121284   7.303   0.349   4.537
 7113TIP3    H221285   7.346   0.396   4.674
 7114TIP3   OH221286   1.321   4.709   0.904
 7114TIP3    H121287   1.265   4.717   0.827
 7114TIP3    H221288   1.274   4.758   0.972
 7115TIP3   OH221289   6.715   0.773   5.213
 7115TIP3    H121290   6.654   0.713   5.255
 7115TIP3    H221291   6.725   0.740   5.124
 7116TIP3   OH221292   6.909   2.417   2.943
 7116TIP3    H121293   6.946   2.354   3.005
 7116TIP3    H221294   6.984   2.470   2.916
 7117TIP3   OH221295   1.572   6.897   2.272
 7117TIP3    H121296   1.539   6.985   2.290
 7117TIP3    H221297   1.667   6.905   2.276
 7118TIP3   OH221298   8.240   2.566   6.191
 7118TIP3    H121299   8.261   2.499   6.256
 7118TIP3    H221300   8.145   2.577   6.198
 7119TIP3   OH221301   1.700   2.859   6.197
 7119TIP3    H121302   1.779   2.809   6.218
 7119TIP3    H221303   1.629   2.814   6.244
 7120TIP3   OH221304   4.941   6.404   6.331
 7120TIP3    H121305   4.914   6.474   6.390
 7120TIP3    H221306   4.859   6.364   6.301
 7121TIP3   OH221307   5.593   4.280   5.927
 7121TIP3    H121308   5.681   4.314   5.943
 7121TIP3    H221309   5.574   4.228   6.006
 7122TIP3   OH221310   4.011   5.673   0.748
 7122TIP3    H121311   4.033   5.758   0.710
 7122TIP3    H221312   4.087   5.649   0.800
 7123TIP3   OH221313   6.977   5.320   4.239
 7123TIP3    H121314   6.926   5.316   4.158
 7123TIP3    H221315   6.914   5.304   4.308
 7124TIP3   OH221316   6.021   0.770   5.370
 7124TIP3    H121317   5.974   0.821   5.436
 7124TIP3    H221318   5.956   0.748   5.304
 7125TIP3   OH221319   1.774   7.574   1.766
 7125TIP3    H121320   1.831   7.639   1.806
 7125TIP3    H221321   1.824   7.492   1.770
 7126TIP3   OH221322   5.124   5.011   0.354
 7126TIP3    H121323   5.202   5.053   0.317
 7126TIP3    H221324   5.154   4.976   0.438
 7127TIP3   OH221325   3.650   3.810   4.375
 7127TIP3    H121326   3.705   3.888   4.389
 7127TIP3    H221327   3.646   3.768   4.461
 7128TIP3   OH221328   1.783   5.350   2.712
 7128TIP3    H121329   1.868   5.319   2.744
 7128TIP3    H221330   1.799   5.374   2.621
 7129TIP3   OH221331   0.440   2.546   1.359
 7129TIP3    H121332   0.390   2.479   1.313
 7129TIP3    H221333   0.376   2.590   1.415
 7130TIP3   OH221334   1.836   3.705   3.523
 7130TIP3    H121335   1.839   3.658   3.439
 7130TIP3    H221336   1.778   3.780   3.506
 7131TIP3   OH221337   1.761   7.694   2.435
 7131TIP3    H121338   1.829   7.656   2.380
 7131TIP3    H221339   1.734   7.622   2.493
 7132TIP3   OH221340   7.956   4.370   5.739
 7132TIP3    H121341   8.014   4.306   5.781
 7132TIP3    H221342   7.916   4.322   5.666
 7133TIP3   OH221343   1.814   4.975   3.064
 7133TIP3    H121344   1.888   5.035   3.073
 7133TIP3    H221345   1.817   4.945   2.973
 7134TIP3   OH221346   2.864   1.090   5.323
 7134TIP3    H121347   2.786   1.135   5.355
 7134TIP3    H221348   2.911   1.156   5.272
 7135TIP3   OH221349   7.411   2.826   2.511
 7135TIP3    H121350   7.384   2.806   2.421
 7135TIP3    H221351   7.338   2.874   2.549
 7136TIP3   OH221352   3.910   3.254   0.462
 7136TIP3    H121353   3.970   3.316   0.503
 7136TIP3    H221354   3.966   3.183   0.430
 7137TIP3   OH221355   2.197   3.523   2.007
 7137TIP3    H121356   2.287   3.555   2.000
 7137TIP3    H221357   2.206   3.427   2.004
 7138TIP3   OH221358   5.282   2.755   6.034
 7138TIP3    H121359   5.304   2.755   6.127
 7138TIP3    H221360   5.190   2.782   6.031
 7139TIP3   OH221361   5.657   1.178   0.495
 7139TIP3    H121362   5.729   1.165   0.557
 7139TIP3    H221363   5.685   1.252   0.442
 7140TIP3   OH221364   3.203   4.927   1.350
 7140TIP3    H121365   3.266   4.976   1.403
 7140TIP3    H221366   3.246   4.842   1.335
 7141TIP3   OH221367   6.047   2.461   2.033
 7141TIP3    H121368   6.056   2.554   2.053
 7141TIP3    H221369   5.955   2.451   2.007
 7142TIP3   OH221370   1.178   1.410   4.243
 7142TIP3    H121371   1.239   1.391   4.172
 7142TIP3    H221372   1.218   1.483   4.291
 7143TIP3   OH221373   6.268   0.710   5.920
 7143TIP3    H121374   6.209   0.760   5.976
 7143TIP3    H221375   6.271   0.760   5.838
 7144TIP3   OH221376   4.849   2.186   3.511
 7144TIP3    H121377   4.798   2.157   3.435
 7144TIP3    H221378   4.808   2.140   3.585
 7145TIP3   OH221379   2.643   3.464   1.316
 7145TIP3    H121380   2.619   3.371   1.308
 7145TIP3    H221381   2.692   3.482   1.236
 7146TIP3   OH221382   2.383   2.151   3.958
 7146TIP3    H121383   2.469   2.144   3.999
 7146TIP3    H221384   2.385   2.086   3.887
 7147TIP3   OH221385   4.532   0.718   1.200
 7147TIP3    H121386   4.453   0.682   1.160
 7147TIP3    H221387   4.528   0.812   1.182
 7148TIP3   OH221388   0.725   6.379   5.507
 7148TIP3    H121389   0.644   6.411   5.547
 7148TIP3    H221390   0.699   6.299   5.462
 7149TIP3   OH221391   4.708   0.730   4.209
 7149TIP3    H121392   4.624   0.684   4.206
 7149TIP3    H221393   4.773   0.663   4.188
 7150TIP3   OH221394   3.447   1.775   2.217
 7150TIP3    H121395   3.467   1.866   2.240
 7150TIP3    H221396   3.532   1.738   2.192
 7151TIP3   OH221397   1.406   4.777   6.574
 7151TIP3    H121398   1.465   4.729   6.517
 7151TIP3    H221399   1.332   4.718   6.589
 7152TIP3   OH221400   1.057   4.322   0.069
 7152TIP3    H121401   1.142   4.341   0.109
 7152TIP3    H221402   1.036   4.234   0.101
 7153TIP3   OH221403   6.710   7.411   5.416
 7153TIP3    H121404   6.779   7.422   5.351
 7153TIP3    H221405   6.728   7.478   5.482
 7154TIP3   OH221406   0.714   3.272   0.896
 7154TIP3    H121407   0.622   3.280   0.874
 7154TIP3    H221408   0.760   3.313   0.822
 7155TIP3   OH221409   2.249   5.869   5.732
 7155TIP3    H121410   2.269   5.783   5.770
 7155TIP3    H221411   2.161   5.889   5.765
 7156TIP3   OH221412   0.899   7.149   3.504
 7156TIP3    H121413   0.927   7.128   3.593
 7156TIP3    H221414   0.954   7.093   3.448
 7157TIP3   OH221415   7.222   7.044   5.718
 7157TIP3    H121416   7.294   7.025   5.658
 7157TIP3    H221417   7.161   6.971   5.706
 7158TIP3   OH221418   6.714   5.801   4.901
 7158TIP3    H121419   6.735   5.730   4.963
 7158TIP3    H221420   6.619   5.795   4.890
 7159TIP3   OH221421   5.880   3.712   0.532
 7159TIP3    H121422   5.946   3.779   0.518
 7159TIP3    H221423   5.874   3.667   0.448
 7160TIP3   OH221424   3.078   1.682   6.424
 7160TIP3    H121425   3.074   1.750   6.490
 7160TIP3    H221426   3.153   1.628   6.449
 7161TIP3   OH221427   7.254   3.106   4.476
 7161TIP3    H121428   7.314   3.082   4.406
 7161TIP3    H221429   7.182   3.151   4.432
 7162TIP3   OH221430   7.191   6.285   4.359
 7162TIP3    H121431   7.193   6.190   4.371
 7162TIP3    H221432   7.198   6.297   4.264
 7163TIP3   OH221433   4.279   0.871   0.965
 7163TIP3    H121434   4.271   0.794   1.022
 7163TIP3    H221435   4.278   0.835   0.876
 7164TIP3   OH221436   0.007   5.199   4.155
 7164TIP3    H121437   0.034   5.127   4.212
 7164TIP3    H221438   0.060   5.273   4.184
 7165TIP3   OH221439   2.534   4.109   2.600
 7165TIP3    H121440   2.603   4.068   2.653
 7165TIP3    H221441   2.497   4.036   2.550
 7166TIP3   OH221442   4.971   4.287   1.761
 7166TIP3    H121443   4.906   4.355   1.744
 7166TIP3    H221444   4.935   4.237   1.834
 7167TIP3   OH221445   4.127   2.443   2.664
 7167TIP3    H121446   4.205   2.487   2.700
 7167TIP3    H221447   4.104   2.495   2.588
 7168TIP3   OH221448   5.553   4.920   1.335
 7168TIP3    H121449   5.569   5.008   1.370
 7168TIP3    H221450   5.561   4.931   1.240
 7169TIP3   OH221451   7.387   5.813   4.057
 7169TIP3    H121452   7.464   5.756   4.057
 7169TIP3    H221453   7.324   5.768   4.113
 7170TIP3   OH221454   6.408   5.534   4.995
 7170TIP3    H121455   6.378   5.557   5.083
 7170TIP3    H221456   6.342   5.473   4.962
 7171TIP3   OH221457   7.007   1.854   6.496
 7171TIP3    H121458   6.961   1.774   6.471
 7171TIP3    H221459   6.952   1.924   6.461
 7172TIP3   OH221460   1.037   0.388   1.779
 7172TIP3    H121461   1.097   0.429   1.841
 7172TIP3    H221462   1.094   0.348   1.713
 7173TIP3   OH221463   3.690   4.022   6.208
 7173TIP3    H121464   3.601   3.996   6.186
 7173TIP3    H221465   3.721   3.955   6.269
 7174TIP3   OH221466   5.533   5.937   5.296
 7174TIP3    H121467   5.441   5.954   5.273
 7174TIP3    H221468   5.543   5.976   5.383
 7175TIP3   OH221469   7.500   7.454   1.397
 7175TIP3    H121470   7.446   7.396   1.452
 7175TIP3    H221471   7.590   7.434   1.423
 7176TIP3   OH221472   2.783   5.464   5.912
 7176TIP3    H121473   2.718   5.485   5.845
 7176TIP3    H221474   2.734   5.419   5.980
 7177TIP3   OH221475   3.503   0.949   2.505
 7177TIP3    H121476   3.428   0.910   2.551
 7177TIP3    H221477   3.560   0.980   2.574
 7178TIP3   OH221478   4.362   1.677   6.283
 7178TIP3    H121479   4.343   1.599   6.336
 7178TIP3    H221480   4.307   1.666   6.204
 7179TIP3   OH221481   8.021   4.159   1.165
 7179TIP3    H121482   8.010   4.074   1.210
 7179TIP3    H221483   8.085   4.206   1.218
 7180TIP3   OH221484   7.309   1.435   2.257
 7180TIP3    H121485   7.267   1.465   2.338
 7180TIP3    H221486   7.297   1.340   2.258
 7181TIP3   OH221487   6.350   0.934   6.339
 7181TIP3    H121488   6.403   0.939   6.259
 7181TIP3    H221489   6.268   0.894   6.310
 7182TIP3   OH221490   7.040   6.815   1.436
 7182TIP3    H121491   7.044   6.901   1.393
 7182TIP3    H221492   6.961   6.819   1.488
 7183TIP3   OH221493   4.305   5.568   5.466
 7183TIP3    H121494   4.251   5.501   5.508
 7183TIP3    H221495   4.336   5.527   5.385
 7184TIP3   OH221496   7.435   0.597   6.549
 7184TIP3    H121497   7.406   0.510   6.577
 7184TIP3    H221498   7.367   0.657   6.581
 7185TIP3   OH221499   5.696   1.624   2.679
 7185TIP3    H121500   5.693   1.680   2.757
 7185TIP3    H221501   5.605   1.603   2.660
 7186TIP3   OH221502   4.456   0.340   2.830
 7186TIP3    H121503   4.549   0.363   2.821
 7186TIP3    H221504   4.411   0.424   2.836
 7187TIP3   OH221505   5.388   2.336   1.660
 7187TIP3    H121506   5.292   2.337   1.651
 7187TIP3    H221507   5.403   2.373   1.747
 7188TIP3   OH221508   1.226   5.790   6.711
 7188TIP3    H121509   1.217   5.710   6.659
 7188TIP3    H221510   1.181   5.857   6.661
 7189TIP3   OH221511   7.161   4.787   0.986
 7189TIP3    H121512   7.140   4.707   1.035
 7189TIP3    H221513   7.193   4.755   0.901
 7190TIP3   OH221514   1.729   2.177   2.749
 7190TIP3    H121515   1.718   2.082   2.738
 7190TIP3    H221516   1.811   2.186   2.797
 7191TIP3   OH221517   4.460   1.710   0.130
 7191TIP3    H121518   4.418   1.646   0.189
 7191TIP3    H221519   4.388   1.764   0.099
 7192TIP3   OH221520   7.220   6.369   5.138
 7192TIP3    H121521   7.277   6.443   5.120
 7192TIP3    H221522   7.251   6.334   5.221
 7193TIP3   OH221523   4.779   6.963   6.237
 7193TIP3    H121524   4.750   7.050   6.207
 7193TIP3    H221525   4.832   6.929   6.165
 7194TIP3   OH221526   0.992   5.673   2.469
 7194TIP3    H121527   0.898   5.690   2.475
 7194TIP3    H221528   1.028   5.706   2.551
 7195TIP3   OH221529   2.943   2.239   1.813
 7195TIP3    H121530   2.879   2.168   1.812
 7195TIP3    H221531   2.958   2.260   1.721
 7196TIP3   OH221532   2.150   4.320   1.679
 7196TIP3    H121533   2.169   4.232   1.709
 7196TIP3    H221534   2.194   4.378   1.741
 7197TIP3   OH221535   1.685   1.405   4.367
 7197TIP3    H121536   1.694   1.500   4.373
 7197TIP3    H221537   1.704   1.374   4.456
 7198TIP3   OH221538   4.724   5.554   1.174
 7198TIP3    H121539   4.819   5.555   1.181
 7198TIP3    H221540   4.694   5.608   1.247
 7199TIP3   OH221541   7.558   4.806   4.360
 7199TIP3    H121542   7.528   4.719   4.389
 7199TIP3    H221543   7.599   4.790   4.275
 7200TIP3   OH221544   5.387   1.082   1.076
 7200TIP3    H121545   5.378   0.989   1.097
 7200TIP3    H221546   5.323   1.126   1.133
 7201TIP3   OH221547   6.463   5.938   1.567
 7201TIP3    H121548   6.490   5.978   1.484
 7201TIP3    H221549   6.371   5.961   1.576
 7202TIP3   OH221550   3.698   7.356   1.132
 7202TIP3    H121551   3.636   7.366   1.204
 7202TIP3    H221552   3.713   7.446   1.102
 7203TIP3   OH221553   4.921   0.571   3.866
 7203TIP3    H121554   5.010   0.560   3.831
 7203TIP3    H221555   4.866   0.516   3.810
 7204TIP3   OH221556   3.883   0.939   1.121
 7204TIP3    H121557   3.960   0.982   1.158
 7204TIP3    H221558   3.910   0.915   1.032
 7205TIP3   OH221559   7.771   4.847   4.836
 7205TIP3    H121560   7.797   4.919   4.893
 7205TIP3    H221561   7.770   4.885   4.748
 7206TIP3   OH221562   1.852   2.829   5.616
 7206TIP3    H121563   1.862   2.879   5.697
 7206TIP3    H221564   1.871   2.738   5.642
 7207TIP3   OH221565   6.442   6.522   4.840
 7207TIP3    H121566   6.504   6.467   4.792
 7207TIP3    H221567   6.369   6.534   4.779
 7208TIP3   OH221568   4.808   6.350   2.078
 7208TIP3    H121569   4.730   6.295   2.073
 7208TIP3    H221570   4.799   6.397   2.161
 7209TIP3   OH221571   3.853   3.062   5.383
 7209TIP3    H121572   3.890   3.144   5.415
 7209TIP3    H221573   3.827   3.080   5.293
 7210TIP3   OH221574   7.643   4.037   2.875
 7210TIP3    H121575   7.622   4.060   2.966
 7210TIP3    H221576   7.563   3.998   2.841
 7211TIP3   OH221577   6.358   2.392   4.413
 7211TIP3    H121578   6.359   2.459   4.344
 7211TIP3    H221579   6.449   2.364   4.419
 7212TIP3   OH221580   0.608   0.863   6.383
 7212TIP3    H121581   0.684   0.873   6.326
 7212TIP3    H221582   0.592   0.768   6.385
 7213TIP3   OH221583   0.442   4.338   5.063
 7213TIP3    H121584   0.408   4.425   5.087
 7213TIP3    H221585   0.364   4.287   5.044
 7214TIP3   OH221586   1.415   4.976   1.501
 7214TIP3    H121587   1.344   4.962   1.563
 7214TIP3    H221588   1.484   5.019   1.552
 7215TIP3   OH221589   7.830   6.053   0.973
 7215TIP3    H121590   7.750   6.002   0.966
 7215TIP3    H221591   7.886   6.020   0.902
 7216TIP3   OH221592   0.121   1.625   3.983
 7216TIP3    H121593   0.206   1.620   3.940
 7216TIP3    H221594   0.120   1.550   4.043
 7217TIP3   OH221595   2.240   2.456   4.853
 7217TIP3    H121596   2.293   2.474   4.931
 7217TIP3    H221597   2.177   2.528   4.849
 7218TIP3   OH221598   2.556   1.545   4.307
 7218TIP3    H121599   2.494   1.500   4.251
 7218TIP3    H221600   2.642   1.521   4.272
 7219TIP3   OH221601   7.729   2.133   5.616
 7219TIP3    H121602   7.762   2.222   5.624
 7219TIP3    H221603   7.792   2.079   5.663
 7220TIP3   OH221604   1.008   1.702   5.029
 7220TIP3    H121605   0.934   1.707   4.969
 7220TIP3    H221606   1.043   1.791   5.032
 7221TIP3   OH221607   0.605   5.864   2.843
 7221TIP3    H121608   0.632   5.775   2.817
 7221TIP3    H221609   0.684   5.917   2.832
 7222TIP3   OH221610   7.667   2.175   1.249
 7222TIP3    H121611   7.652   2.081   1.249
 7222TIP3    H221612   7.580   2.213   1.267
 7223TIP3   OH221613   5.430   0.565   5.998
 7223TIP3    H121614   5.451   0.620   5.923
 7223TIP3    H221615   5.483   0.486   5.985
 7224TIP3   OH221616   0.997   3.140   3.904
 7224TIP3    H121617   1.049   3.221   3.902
 7224TIP3    H221618   0.932   3.152   3.835
 7225TIP3   OH221619   6.684   2.513   6.263
 7225TIP3    H121620   6.772   2.482   6.240
 7225TIP3    H221621   6.628   2.436   6.252
 7226TIP3   OH221622   3.010   6.025   5.291
 7226TIP3    H121623   3.044   6.099   5.342
 7226TIP3    H221624   2.976   6.065   5.211
 7227TIP3   OH221625   7.225   1.621   3.710
 7227TIP3    H121626   7.276   1.550   3.749
 7227TIP3    H221627   7.243   1.696   3.767
 7228TIP3   OH221628   3.203   1.751   4.830
 7228TIP3    H121629   3.258   1.679   4.863
 7228TIP3    H221630   3.114   1.716   4.830
 7229TIP3   OH221631   8.115   7.151   1.270
 7229TIP3    H121632   8.021   7.165   1.276
 7229TIP3    H221633   8.141   7.119   1.356
 7230TIP3   OH221634   3.141   3.034   3.307
 7230TIP3    H121635   3.048   3.036   3.287
 7230TIP3    H221636   3.149   3.078   3.391
 7231TIP3   OH221637   2.554   4.710   6.639
 7231TIP3    H121638   2.607   4.784   6.669
 7231TIP3    H221639   2.618   4.644   6.613
 7232TIP3   OH221640   0.584   0.590   6.392
 7232TIP3    H121641   0.660   0.560   6.342
 7232TIP3    H221642   0.548   0.511   6.432
 7233TIP3   OH221643   1.851   6.773   0.106
 7233TIP3    H121644   1.846   6.678   0.113
 7233TIP3    H221645   1.905   6.800   0.181
 7234TIP3   OH221646   6.943   7.219   5.104
 7234TIP3    H121647   7.005   7.209   5.033
 7234TIP3    H221648   6.930   7.314   5.111
 7235TIP3   OH221649   1.459   5.606   3.490
 7235TIP3    H121650   1.410   5.524   3.486
 7235TIP3    H221651   1.550   5.580   3.480
 7236TIP3   OH221652   0.899   3.437   4.208
 7236TIP3    H121653   0.905   3.497   4.134
 7236TIP3    H221654   0.975   3.458   4.262
 7237TIP3   OH221655   2.999   4.940   2.169
 7237TIP3    H121656   3.087   4.933   2.132
 7237TIP3    H221657   2.969   4.849   2.175
 7238TIP3   OH221658   1.313   5.997   4.622
 7238TIP3    H121659   1.398   6.038   4.606
 7238TIP3    H221660   1.267   6.003   4.538
 7239TIP3   OH221661   2.310   3.444   4.227
 7239TIP3    H121662   2.299   3.403   4.313
 7239TIP3    H221663   2.302   3.371   4.165
 7240TIP3   OH221664   1.115   4.094   3.262
 7240TIP3    H121665   1.182   4.122   3.199
 7240TIP3    H221666   1.059   4.171   3.274
 7241TIP3   OH221667   3.276   1.273   2.308
 7241TIP3    H121668   3.327   1.208   2.356
 7241TIP3    H221669   3.229   1.223   2.242
 7242TIP3   OH221670   4.094   3.849   1.963
 7242TIP3    H121671   4.101   3.855   1.868
 7242TIP3    H221672   4.001   3.833   1.980
 7243TIP3   OH221673   3.664   6.179   5.861
 7243TIP3    H121674   3.758   6.169   5.881
 7243TIP3    H221675   3.631   6.089   5.858
 7244TIP3   OH221676   6.140   1.101   2.234
 7244TIP3    H121677   6.226   1.059   2.233
 7244TIP3    H221678   6.153   1.183   2.185
 7245TIP3   OH221679   6.907   7.129   6.585
 7245TIP3    H121680   6.934   7.218   6.604
 7245TIP3    H221681   6.928   7.116   6.492
 7246TIP3   OH221682   5.314   6.744   4.241
 7246TIP3    H121683   5.288   6.687   4.314
 7246TIP3    H221684   5.410   6.743   4.243
 7247TIP3   OH221685   2.186   0.014   5.461
 7247TIP3    H121686   2.211  -0.070   5.423
 7247TIP3    H221687   2.096   0.002   5.489
 7248TIP3   OH221688   7.446   4.890   3.357
 7248TIP3    H121689   7.397   4.962   3.396
 7248TIP3    H221690   7.538   4.915   3.366
 7249TIP3   OH221691   0.496   0.657   6.688
 7249TIP3    H121692   0.557   0.662   6.614
 7249TIP3    H221693   0.437   0.584   6.665
 7250TIP3   OH221694   8.306   3.015   2.620
 7250TIP3    H121695   8.300   3.091   2.677
 7250TIP3    H221696   8.302   3.052   2.531
 7251TIP3   OH221697   4.377   2.796   5.782
 7251TIP3    H121698   4.306   2.826   5.725
 7251TIP3    H221699   4.347   2.712   5.815
 7252TIP3   OH221700   2.139   0.525   3.336
 7252TIP3    H121701   2.232   0.546   3.337
 7252TIP3    H221702   2.122   0.493   3.248
 7253TIP3   OH221703   7.968   7.608   2.878
 7253TIP3    H121704   8.006   7.539   2.932
 7253TIP3    H221705   7.949   7.565   2.795
 7254TIP3   OH221706   6.711   6.980   1.910
 7254TIP3    H121707   6.626   6.970   1.954
 7254TIP3    H221708   6.716   7.073   1.889
 7255TIP3   OH221709   6.730   2.475   1.066
 7255TIP3    H121710   6.729   2.549   1.127
 7255TIP3    H221711   6.773   2.508   0.988
 7256TIP3   OH221712   4.487   1.979   4.531
 7256TIP3    H121713   4.423   2.042   4.498
 7256TIP3    H221714   4.440   1.896   4.535
 7257TIP3   OH221715   4.606   2.736   0.102
 7257TIP3    H121716   4.512   2.722   0.118
 7257TIP3    H221717   4.628   2.673   0.034
 7258TIP3   OH221718   5.233   5.793   1.548
 7258TIP3    H121719   5.197   5.857   1.610
 7258TIP3    H221720   5.328   5.796   1.564
 7259TIP3   OH221721   3.932   3.293   2.423
 7259TIP3    H121722   3.889   3.222   2.375
 7259TIP3    H221723   3.937   3.261   2.513
 7260TIP3   OH221724   6.771   4.191   3.419
 7260TIP3    H121725   6.723   4.117   3.456
 7260TIP3    H221726   6.704   4.249   3.385
 7261TIP3   OH221727   6.672   6.604   3.387
 7261TIP3    H121728   6.653   6.687   3.431
 7261TIP3    H221729   6.741   6.626   3.324
 7262TIP3   OH221730   4.344   7.246   6.181
 7262TIP3    H121731   4.369   7.176   6.120
 7262TIP3    H221732   4.341   7.325   6.126
 7263TIP3   OH221733   2.546   7.008   0.218
 7263TIP3    H121734   2.627   6.960   0.238
 7263TIP3    H221735   2.478   6.942   0.224
 7264TIP3   OH221736   0.655   6.502   1.491
 7264TIP3    H121737   0.689   6.592   1.491
 7264TIP3    H221738   0.560   6.512   1.478
 7265TIP3   OH221739   2.817   0.790   5.977
 7265TIP3    H121740   2.774   0.728   6.037
 7265TIP3    H221741   2.868   0.847   6.034
 7266TIP3   OH221742   7.844   4.076   2.699
 7266TIP3    H121743   7.904   4.008   2.728
 7266TIP3    H221744   7.772   4.073   2.761
 7267TIP3   OH221745   4.568   4.596   2.266
 7267TIP3    H121746   4.589   4.663   2.332
 7267TIP3    H221747   4.651   4.549   2.253
 7268TIP3   OH221748   8.135   5.776   0.999
 7268TIP3    H121749   8.138   5.829   1.079
 7268TIP3    H221750   8.225   5.780   0.965
 7269TIP3   OH221751   6.124   4.344   2.591
 7269TIP3    H121752   6.069   4.364   2.666
 7269TIP3    H221753   6.200   4.401   2.600
 7270TIP3   OH221754   7.159   7.451   0.201
 7270TIP3    H121755   7.163   7.544   0.221
 7270TIP3    H221756   7.074   7.438   0.160
 7271TIP3   OH221757   7.016   4.659   0.360
 7271TIP3    H121758   6.942   4.634   0.416
 7271TIP3    H221759   6.979   4.666   0.272
 7272TIP3   OH221760   1.320   1.060   5.573
 7272TIP3    H121761   1.264   0.984   5.563
 7272TIP3    H221762   1.261   1.130   5.603
 7273TIP3   OH221763   1.055   7.203   5.360
 7273TIP3    H121764   1.051   7.296   5.383
 7273TIP3    H221765   1.033   7.157   5.441
 7274TIP3   OH221766   7.939   5.458   1.437
 7274TIP3    H121767   7.956   5.511   1.359
 7274TIP3    H221768   7.908   5.374   1.402
 7275TIP3   OH221769   0.497   2.104   0.269
 7275TIP3    H121770   0.563   2.077   0.204
 7275TIP3    H221771   0.415   2.069   0.235
 7276TIP3   OH221772   2.371   6.152   2.357
 7276TIP3    H121773   2.411   6.165   2.443
 7276TIP3    H221774   2.394   6.062   2.332
 7277TIP3   OH221775   7.792   2.687   2.756
 7277TIP3    H121776   7.868   2.736   2.790
 7277TIP3    H221777   7.739   2.754   2.712
 7278TIP3   OH221778   5.092   0.523   4.848
 7278TIP3    H121779   5.041   0.540   4.928
 7278TIP3    H221780   5.125   0.434   4.859
 7279TIP3   OH221781   2.724   5.697   0.229
 7279TIP3    H121782   2.638   5.715   0.191
 7279TIP3    H221783   2.714   5.612   0.271
 7280TIP3   OH221784   6.236   3.255   2.177
 7280TIP3    H121785   6.241   3.271   2.083
 7280TIP3    H221786   6.166   3.312   2.207
 7281TIP3   OH221787   4.213   2.795   4.562
 7281TIP3    H121788   4.148   2.766   4.625
 7281TIP3    H221789   4.202   2.738   4.486
 7282TIP3   OH221790   4.868   2.800   3.955
 7282TIP3    H121791   4.867   2.846   4.038
 7282TIP3    H221792   4.781   2.816   3.918
 7283TIP3   OH221793   6.987   0.905   3.511
 7283TIP3    H121794   6.900   0.936   3.484
 7283TIP3    H221795   7.007   0.956   3.589
 7284TIP3   OH221796   1.529   2.095   2.558
 7284TIP3    H121797   1.577   2.137   2.486
 7284TIP3    H221798   1.573   2.011   2.570
 7285TIP3   OH221799   1.867   0.861   0.764
 7285TIP3    H121800   1.931   0.792   0.781
 7285TIP3    H221801   1.909   0.917   0.698
 7286TIP3   OH221802   2.142   4.094   4.032
 7286TIP3    H121803   2.238   4.095   4.032
 7286TIP3    H221804   2.119   4.001   4.026
 7287TIP3   OH221805   5.523   6.113   5.540
 7287TIP3    H121806   5.451   6.079   5.592
 7287TIP3    H221807   5.488   6.191   5.497
 7288TIP3   OH221808   4.508   3.866   3.027
 7288TIP3    H121809   4.539   3.956   3.039
 7288TIP3    H221810   4.413   3.872   3.033
 7289TIP3   OH221811   1.701   6.374   6.556
 7289TIP3    H121812   1.773   6.346   6.499
 7289TIP3    H221813   1.629   6.394   6.496
 7290TIP3   OH221814   2.257   5.396   5.241
 7290TIP3    H121815   2.306   5.317   5.220
 7290TIP3    H221816   2.257   5.446   5.159
 7291TIP3   OH221817   7.640   5.446   3.550
 7291TIP3    H121818   7.715   5.411   3.501
 7291TIP3    H221819   7.618   5.377   3.613
 7292TIP3   OH221820   6.871   4.399   3.591
 7292TIP3    H121821   6.830   4.364   3.512
 7292TIP3    H221822   6.800   4.443   3.638
 7293TIP3   OH221823   3.970   0.681   0.867
 7293TIP3    H121824   3.886   0.685   0.821
 7293TIP3    H221825   3.954   0.625   0.943
 7294TIP3   OH221826   1.307   5.914   3.016
 7294TIP3    H121827   1.360   5.859   2.958
 7294TIP3    H221828   1.288   5.857   3.091
 7295TIP3   OH221829   6.617   1.866   6.183
 7295TIP3    H121830   6.651   1.843   6.270
 7295TIP3    H221831   6.679   1.826   6.122
 7296TIP3   OH221832   6.727   5.925   0.146
 7296TIP3    H121833   6.662   5.927   0.076
 7296TIP3    H221834   6.688   5.975   0.217
 7297TIP3   OH221835   8.240   4.024   4.633
 7297TIP3    H121836   8.147   4.002   4.642
 7297TIP3    H221837   8.271   4.033   4.723
 7298TIP3   OH221838   3.888   2.988   1.703
 7298TIP3    H121839   3.890   3.083   1.694
 7298TIP3    H221840   3.957   2.957   1.646
 7299TIP3   OH221841   8.007   6.599   2.868
 7299TIP3    H121842   7.974   6.652   2.940
 7299TIP3    H221843   7.928   6.563   2.826
 7300TIP3   OH221844   3.061   1.364   6.682
 7300TIP3    H121845   3.079   1.419   6.757
 7300TIP3    H221846   3.136   1.376   6.624
 7301TIP3   OH221847   1.185   7.363   2.139
 7301TIP3    H121848   1.209   7.454   2.158
 7301TIP3    H221849   1.114   7.344   2.200
 7302TIP3   OH221850   3.377   6.685   2.002
 7302TIP3    H121851   3.315   6.741   1.956
 7302TIP3    H221852   3.390   6.610   1.943
 7303TIP3   OH221853   1.906   0.423   5.107
 7303TIP3    H121854   1.847   0.351   5.084
 7303TIP3    H221855   1.853   0.482   5.160
 7304TIP3   OH221856   5.419   1.833   5.640
 7304TIP3    H121857   5.468   1.775   5.581
 7304TIP3    H221858   5.436   1.798   5.727
 7305TIP3   OH221859   8.007   3.730   1.067
 7305TIP3    H121860   8.009   3.798   0.999
 7305TIP3    H221861   7.922   3.742   1.110
 7306TIP3   OH221862   1.419   1.062   0.191
 7306TIP3    H121863   1.382   1.007   0.261
 7306TIP3    H221864   1.499   1.097   0.229
 7307TIP3   OH221865   5.217   4.122   4.470
 7307TIP3    H121866   5.156   4.054   4.439
 7307TIP3    H221867   5.280   4.075   4.524
 7308TIP3   OH221868   6.463   2.446   1.463
 7308TIP3    H121869   6.517   2.520   1.489
 7308TIP3    H221870   6.507   2.409   1.387
 7309TIP3   OH221871   6.822   1.791   0.777
 7309TIP3    H121872   6.773   1.709   0.776
 7309TIP3    H221873   6.763   1.853   0.820
 7310TIP3   OH221874   4.843   7.485   4.834
 7310TIP3    H121875   4.917   7.447   4.881
 7310TIP3    H221876   4.769   7.431   4.858
 7311TIP3   OH221877   5.799   2.029   4.509
 7311TIP3    H121878   5.869   2.006   4.570
 7311TIP3    H221879   5.787   2.123   4.521
 7312TIP3   OH221880   7.604   6.401   4.069
 7312TIP3    H121881   7.523   6.434   4.109
 7312TIP3    H221882   7.578   6.319   4.027
 7313TIP3   OH221883   0.470   6.456   5.606
 7313TIP3    H121884   0.428   6.387   5.657
 7313TIP3    H221885   0.436   6.538   5.643
 7314TIP3   OH221886   3.010   7.334   3.887
 7314TIP3    H121887   2.988   7.311   3.797
 7314TIP3    H221888   3.064   7.261   3.918
 7315TIP3   OH221889   0.173   3.840   4.415
 7315TIP3    H121890   0.210   3.886   4.491
 7315TIP3    H221891   0.232   3.765   4.402
 7316TIP3   OH221892   1.067   4.072   4.632
 7316TIP3    H121893   0.998   4.121   4.677
 7316TIP3    H221894   1.109   4.020   4.700
 7317TIP3   OH221895   3.689   6.569   5.268
 7317TIP3    H121896   3.613   6.609   5.311
 7317TIP3    H221897   3.655   6.486   5.233
 7318TIP3   OH221898   8.107   0.051   4.652
 7318TIP3    H121899   8.060  -0.032   4.656
 7318TIP3    H221900   8.056   0.105   4.591
 7319TIP3   OH221901   7.393   6.305   5.341
 7319TIP3    H121902   7.393   6.301   5.437
 7319TIP3    H221903   7.486   6.296   5.318
 7320TIP3   OH221904   8.123   1.413   0.360
 7320TIP3    H121905   8.029   1.419   0.340
 7320TIP3    H221906   8.128   1.421   0.455
 7321TIP3   OH221907   2.567   7.052   3.877
 7321TIP3    H121908   2.605   7.107   3.809
 7321TIP3    H221909   2.478   7.033   3.846
 7322TIP3   OH221910   1.922   6.150   5.672
 7322TIP3    H121911   1.925   6.246   5.674
 7322TIP3    H221912   1.916   6.128   5.579
 7323TIP3   OH221913   1.565   4.395   5.427
 7323TIP3    H121914   1.595   4.486   5.422
 7323TIP3    H221915   1.607   4.352   5.352
 7324TIP3   OH221916   5.266   4.097   6.169
 7324TIP3    H121917   5.203   4.141   6.112
 7324TIP3    H221918   5.244   4.004   6.161
 7325TIP3   OH221919   1.909   3.626   3.791
 7325TIP3    H121920   1.885   3.709   3.832
 7325TIP3    H221921   1.893   3.640   3.698
 7326TIP3   OH221922   7.228   2.819   4.485
 7326TIP3    H121923   7.244   2.913   4.475
 7326TIP3    H221924   7.185   2.812   4.570
 7327TIP3   OH221925   2.932   0.508   0.026
 7327TIP3    H121926   2.909   0.600   0.038
 7327TIP3    H221927   2.914   0.491  -0.067
 7328TIP3   OH221928   4.611   1.684   4.203
 7328TIP3    H121929   4.526   1.714   4.170
 7328TIP3    H221930   4.675   1.727   4.146
 7329TIP3   OH221931   1.803   5.946   1.566
 7329TIP3    H121932   1.798   5.983   1.655
 7329TIP3    H221933   1.868   6.001   1.522
 7330TIP3   OH221934   5.494   2.938   5.603
 7330TIP3    H121935   5.415   2.902   5.643
 7330TIP3    H221936   5.534   2.864   5.558
 7331TIP3   OH221937   4.793   6.170   1.412
 7331TIP3    H121938   4.754   6.204   1.492
 7331TIP3    H221939   4.797   6.075   1.426
 7332TIP3   OH221940   6.565   0.986   5.803
 7332TIP3    H121941   6.580   0.892   5.807
 7332TIP3    H221942   6.472   0.997   5.820
 7333TIP3   OH221943   8.018   6.401   5.634
 7333TIP3    H121944   8.075   6.407   5.711
 7333TIP3    H221945   7.996   6.491   5.613
 7334TIP3   OH221946   7.253   3.361   1.564
 7334TIP3    H121947   7.257   3.451   1.531
 7334TIP3    H221948   7.191   3.317   1.506
 7335TIP3   OH221949   2.218   7.360   5.995
 7335TIP3    H121950   2.307   7.327   6.007
 7335TIP3    H221951   2.170   7.287   5.957
 7336TIP3   OH221952   6.634   1.980   3.924
 7336TIP3    H121953   6.551   1.937   3.942
 7336TIP3    H221954   6.701   1.917   3.951
 7337TIP3   OH221955   7.958   0.071   4.989
 7337TIP3    H121956   8.022   0.133   4.952
 7337TIP3    H221957   8.001   0.034   5.065
 7338TIP3   OH221958   5.137   3.792   1.406
 7338TIP3    H121959   5.216   3.752   1.371
 7338TIP3    H221960   5.165   3.831   1.489
 7339TIP3   OH221961   4.548   2.285   3.055
 7339TIP3    H121962   4.457   2.270   3.029
 7339TIP3    H221963   4.542   2.351   3.124
 7340TIP3   OH221964   7.483   2.235   4.718
 7340TIP3    H121965   7.511   2.296   4.650
 7340TIP3    H221966   7.388   2.247   4.722
 7341TIP3   OH221967   0.602   4.396  -0.036
 7341TIP3    H121968   0.546   4.335   0.012
 7341TIP3    H221969   0.688   4.352  -0.038
 7342TIP3   OH221970   2.411   0.076   3.592
 7342TIP3    H121971   2.423   0.021   3.670
 7342TIP3    H221972   2.395   0.164   3.627
 7343TIP3   OH221973   6.885   4.694   0.778
 7343TIP3    H121974   6.825   4.764   0.753
 7343TIP3    H221975   6.970   4.722   0.744
 7344TIP3   OH221976   1.962   1.272   0.626
 7344TIP3    H121977   1.867   1.274   0.635
 7344TIP3    H221978   1.995   1.323   0.700
 7345TIP3   OH221979   7.077   1.753   1.220
 7345TIP3    H121980   7.074   1.832   1.166
 7345TIP3    H221981   7.157   1.708   1.193
 7346TIP3   OH221982   2.383   7.003   2.959
 7346TIP3    H121983   2.323   7.016   3.033
 7346TIP3    H221984   2.468   6.989   3.000
 7347TIP3   OH221985   0.749   2.191   4.064
 7347TIP3    H121986   0.751   2.282   4.091
 7347TIP3    H221987   0.662   2.180   4.024
 7348TIP3   OH221988   1.342   6.531   2.099
 7348TIP3    H121989   1.414   6.468   2.096
 7348TIP3    H221990   1.314   6.532   2.190
 7349TIP3   OH221991   8.299   4.234   3.108
 7349TIP3    H121992   8.279   4.298   3.177
 7349TIP3    H221993   8.274   4.278   3.027
 7350TIP3   OH221994   0.651   0.853   5.970
 7350TIP3    H121995   0.710   0.890   6.036
 7350TIP3    H221996   0.700   0.858   5.888
 7351TIP3   OH221997   3.293   0.451   2.886
 7351TIP3    H121998   3.203   0.420   2.886
 7351TIP3    H221999   3.316   0.456   2.979
 7352TIP3   OH222000   5.610   7.005   3.640
 7352TIP3    H122001   5.673   7.049   3.584
 7352TIP3    H222002   5.626   7.040   3.728
 7353TIP3   OH222003   5.921   0.162   2.419
 7353TIP3    H122004   5.946   0.208   2.338
 7353TIP3    H222005   5.834   0.127   2.401
 7354TIP3   OH222006   7.652   7.060   0.810
 7354TIP3    H122007   7.591   6.997   0.848
 7354TIP3    H222008   7.718   7.073   0.878
 7355TIP3   OH222009   0.193   5.792   2.890
 7355TIP3    H122010   0.136   5.817   2.817
 7355TIP3    H222011   0.274   5.764   2.849
 7356TIP3   OH222012   1.714   1.907   3.462
 7356TIP3    H122013   1.763   1.975   3.417
 7356TIP3    H222014   1.731   1.828   3.411
 7357TIP3   OH222015   4.201   5.806   4.619
 7357TIP3    H122016   4.280   5.839   4.662
 7357TIP3    H222017   4.190   5.717   4.654
 7358TIP3   OH222018   3.819   7.715   1.911
 7358TIP3    H122019   3.773   7.683   1.834
 7358TIP3    H222020   3.823   7.639   1.970
 7359TIP3   OH222021   5.887   3.858   3.973
 7359TIP3    H122022   5.838   3.923   3.922
 7359TIP3    H222023   5.884   3.891   4.062
 7360TIP3   OH222024   5.578   4.535   4.065
 7360TIP3    H122025   5.514   4.602   4.043
 7360TIP3    H222026   5.618   4.565   4.146
 7361TIP3   OH222027   6.588   2.406   3.152
 7361TIP3    H122028   6.620   2.378   3.066
 7361TIP3    H222029   6.630   2.490   3.167
 7362TIP3   OH222030   3.279   6.025   1.727
 7362TIP3    H122031   3.232   5.953   1.770
 7362TIP3    H222032   3.210   6.086   1.701
 7363TIP3   OH222033   3.780   4.560   4.738
 7363TIP3    H122034   3.868   4.526   4.751
 7363TIP3    H222035   3.726   4.482   4.724
 7364TIP3   OH222036   4.799   1.551   1.929
 7364TIP3    H122037   4.732   1.618   1.946
 7364TIP3    H222038   4.749   1.472   1.907
 7365TIP3   OH222039   8.020   3.039   2.062
 7365TIP3    H122040   7.941   2.989   2.084
 7365TIP3    H222041   7.987   3.118   2.019
 7366TIP3   OH222042   6.579   7.711   2.461
 7366TIP3    H122043   6.617   7.799   2.469
 7366TIP3    H222044   6.527   7.700   2.540
 7367TIP3   OH222045   5.646   5.213   5.131
 7367TIP3    H122046   5.679   5.273   5.064
 7367TIP3    H222047   5.662   5.259   5.214
 7368TIP3   OH222048   7.772   0.369   5.922
 7368TIP3    H122049   7.740   0.280   5.939
 7368TIP3    H222050   7.858   0.371   5.964
 7369TIP3   OH222051   7.182   3.661   0.982
 7369TIP3    H122052   7.181   3.608   0.902
 7369TIP3    H222053   7.160   3.749   0.953
 7370TIP3   OH222054   6.452   2.410   0.550
 7370TIP3    H122055   6.524   2.351   0.529
 7370TIP3    H222056   6.389   2.396   0.479
 7371TIP3   OH222057   6.672   1.488   4.666
 7371TIP3    H122058   6.710   1.450   4.587
 7371TIP3    H222059   6.580   1.460   4.664
 7372TIP3   OH222060   2.579   3.361   0.659
 7372TIP3    H122061   2.646   3.419   0.622
 7372TIP3    H222062   2.602   3.354   0.752
 7373TIP3   OH222063   6.139   2.157   6.693
 7373TIP3    H122064   6.176   2.069   6.698
 7373TIP3    H222065   6.162   2.198   6.777
 7374TIP3   OH222066   0.211   1.885   5.449
 7374TIP3    H122067   0.239   1.931   5.527
 7374TIP3    H222068   0.153   1.816   5.481
 7375TIP3   OH222069   5.997   0.027   6.649
 7375TIP3    H122070   6.024   0.087   6.579
 7375TIP3    H222071   5.920   0.067   6.687
 7376TIP3   OH222072   4.152   0.063   5.931
 7376TIP3    H122073   4.240   0.066   5.970
 7376TIP3    H222074   4.159  -0.005   5.864
 7377TIP3   OH222075   2.596   4.604   1.111
 7377TIP3    H122076   2.542   4.668   1.157
 7377TIP3    H222077   2.535   4.549   1.063
 7378TIP3   OH222078   2.382   7.580   1.162
 7378TIP3    H122079   2.322   7.510   1.184
 7378TIP3    H222080   2.367   7.646   1.230
 7379TIP3   OH222081   2.574   3.331   6.524
 7379TIP3    H122082   2.610   3.287   6.447
 7379TIP3    H222083   2.546   3.417   6.492
 7380TIP3   OH222084   5.391   4.723   3.992
 7380TIP3    H122085   5.360   4.793   4.049
 7380TIP3    H222086   5.432   4.769   3.918
 7381TIP3   OH222087   4.936   7.193   2.585
 7381TIP3    H122088   4.878   7.156   2.519
 7381TIP3    H222089   4.958   7.119   2.642
 7382TIP3   OH222090   1.682   6.656   5.692
 7382TIP3    H122091   1.590   6.685   5.689
 7382TIP3    H222092   1.680   6.579   5.749
 7383TIP3   OH222093   8.004   1.510   1.112
 7383TIP3    H122094   7.971   1.539   1.027
 7383TIP3    H222095   8.050   1.428   1.092
 7384TIP3   OH222096   2.340   0.047  -0.002
 7384TIP3    H122097   2.354   0.057   0.092
 7384TIP3    H222098   2.404  -0.018  -0.030
 7385TIP3   OH222099   2.134   2.621   2.002
 7385TIP3    H122100   2.212   2.673   2.022
 7385TIP3    H222101   2.161   2.531   2.021
 7386TIP3   OH222102   7.857   0.706   5.116
 7386TIP3    H122103   7.843   0.697   5.211
 7386TIP3    H222104   7.942   0.665   5.100
 7387TIP3   OH222105   8.069   5.943   1.796
 7387TIP3    H122106   8.019   5.946   1.877
 7387TIP3    H222107   8.105   5.854   1.793
 7388TIP3   OH222108   2.329   7.133   6.522
 7388TIP3    H122109   2.298   7.043   6.532
 7388TIP3    H222110   2.264   7.176   6.466
 7389TIP3   OH222111   7.715   5.559   6.390
 7389TIP3    H122112   7.705   5.627   6.324
 7389TIP3    H222113   7.676   5.481   6.351
 7390TIP3   OH222114   2.256   2.018   6.740
 7390TIP3    H122115   2.182   1.968   6.776
 7390TIP3    H222116   2.329   1.956   6.742
 7391TIP3   OH222117   8.293   3.278   1.079
 7391TIP3    H122118   8.241   3.357   1.094
 7391TIP3    H222119   8.253   3.212   1.135
 7392TIP3   OH222120   6.624   7.399   1.622
 7392TIP3    H122121   6.612   7.395   1.527
 7392TIP3    H222122   6.592   7.486   1.646
 7393TIP3   OH222123   1.698   4.878   3.302
 7393TIP3    H122124   1.736   4.900   3.217
 7393TIP3    H222125   1.614   4.924   3.303
 7394TIP3   OH222126   0.520   4.434   5.585
 7394TIP3    H122127   0.564   4.514   5.556
 7394TIP3    H222128   0.529   4.374   5.511
 7395TIP3   OH222129   6.237   2.069   1.852
 7395TIP3    H122130   6.321   2.028   1.871
 7395TIP3    H222131   6.259   2.142   1.794
 7396TIP3   OH222132   1.989   3.637   2.997
 7396TIP3    H122133   1.934   3.629   2.920
 7396TIP3    H222134   1.968   3.560   3.050
 7397TIP3   OH222135   3.003   2.174   4.989
 7397TIP3    H122136   3.062   2.159   5.063
 7397TIP3    H222137   2.997   2.270   4.982
 7398TIP3   OH222138   6.494   3.007   3.981
 7398TIP3    H122139   6.403   2.979   3.979
 7398TIP3    H222140   6.493   3.093   3.939
 7399TIP3   OH222141   5.243   0.359   2.349
 7399TIP3    H122142   5.337   0.340   2.348
 7399TIP3    H222143   5.209   0.318   2.270
 7400TIP3   OH222144   7.701   1.635   1.970
 7400TIP3    H122145   7.611   1.618   1.998
 7400TIP3    H222146   7.749   1.557   1.996
 7401TIP3   OH222147   3.787   7.807   5.809
 7401TIP3    H122148   3.726   7.759   5.865
 7401TIP3    H222149   3.774   7.770   5.722
 7402TIP3   OH222150   5.559   2.795   3.806
 7402TIP3    H122151   5.650   2.770   3.789
 7402TIP3    H222152   5.507   2.729   3.759
 7403TIP3   OH222153   0.301   2.169   0.784
 7403TIP3    H122154   0.396   2.158   0.789
 7403TIP3    H222155   0.267   2.083   0.761
 7404TIP3   OH222156   6.006   0.156   4.992
 7404TIP3    H122157   6.087   0.199   5.020
 7404TIP3    H222158   6.003   0.075   5.043
 7405TIP3   OH222159   4.790   2.418   5.008
 7405TIP3    H122160   4.729   2.476   5.053
 7405TIP3    H222161   4.741   2.337   4.995
 7406TIP3   OH222162   0.302   3.525   1.493
 7406TIP3    H122163   0.207   3.521   1.506
 7406TIP3    H222164   0.332   3.589   1.557
 7407TIP3   OH222165   0.449   6.546   1.173
 7407TIP3    H122166   0.514   6.564   1.105
 7407TIP3    H222167   0.417   6.632   1.199
 7408TIP3   OH222168   1.322   0.109   0.184
 7408TIP3    H122169   1.292   0.199   0.199
 7408TIP3    H222170   1.389   0.095   0.251
 7409TIP3   OH222171   3.217   2.781   5.905
 7409TIP3    H122172   3.158   2.757   5.977
 7409TIP3    H222173   3.286   2.715   5.908
 7410TIP3   OH222174   7.358   1.343   3.332
 7410TIP3    H122175   7.329   1.255   3.357
 7410TIP3    H222176   7.300   1.401   3.381
 7411TIP3   OH222177   1.552   3.055   4.424
 7411TIP3    H122178   1.460   3.061   4.450
 7411TIP3    H222179   1.577   3.144   4.402
 7412TIP3   OH222180   5.850   2.987   3.394
 7412TIP3    H122181   5.866   3.078   3.420
 7412TIP3    H222182   5.878   2.984   3.302
 7413TIP3   OH222183   2.607   0.864   1.664
 7413TIP3    H122184   2.699   0.858   1.639
 7413TIP3    H222185   2.593   0.957   1.681
 7414TIP3   OH222186   8.154   0.402   2.958
 7414TIP3    H122187   8.152   0.426   2.865
 7414TIP3    H222188   8.062   0.400   2.984
 7415TIP3   OH222189   5.014   7.524   3.678
 7415TIP3    H122190   5.073   7.481   3.616
 7415TIP3    H222191   5.057   7.607   3.699
 7416TIP3   OH222192   1.307   4.721   1.954
 7416TIP3    H122193   1.245   4.776   1.906
 7416TIP3    H222194   1.252   4.667   2.010
 7417TIP3   OH222195   0.775   2.080   4.368
 7417TIP3    H122196   0.742   1.999   4.331
 7417TIP3    H222197   0.791   2.137   4.293
 7418TIP3   OH222198   7.795   1.757   4.352
 7418TIP3    H122199   7.717   1.751   4.407
 7418TIP3    H222200   7.865   1.781   4.413
 7419TIP3   OH222201   0.355   3.233   3.424
 7419TIP3    H122202   0.276   3.227   3.371
 7419TIP3    H222203   0.346   3.163   3.488
 7420TIP3   OH222204   0.608   2.199   2.664
 7420TIP3    H122205   0.653   2.220   2.583
 7420TIP3    H222206   0.570   2.282   2.693
 7421TIP3   OH222207   2.016   7.216   2.119
 7421TIP3    H122208   1.965   7.295   2.100
 7421TIP3    H222209   2.086   7.216   2.053
 7422TIP3   OH222210   5.867   5.997   3.911
 7422TIP3    H122211   5.943   6.010   3.856
 7422TIP3    H222212   5.869   6.070   3.973
 7423TIP3   OH222213   5.723   6.161   6.361
 7423TIP3    H122214   5.651   6.200   6.312
 7423TIP3    H222215   5.791   6.228   6.361
 7424TIP3   OH222216   5.010   7.125   6.370
 7424TIP3    H122217   4.956   7.204   6.369
 7424TIP3    H222218   4.948   7.054   6.353
 7425TIP3   OH222219   6.988   1.730   3.652
 7425TIP3    H122220   6.974   1.822   3.630
 7425TIP3    H222221   7.083   1.722   3.664
 7426TIP3   OH222222   0.575   3.567   6.129
 7426TIP3    H122223   0.612   3.633   6.187
 7426TIP3    H222224   0.625   3.576   6.048
 7427TIP3   OH222225   3.728   5.488   2.413
 7427TIP3    H122226   3.634   5.504   2.410
 7427TIP3    H222227   3.736   5.396   2.437
 7428TIP3   OH222228   3.258   2.967   3.613
 7428TIP3    H122229   3.224   2.947   3.700
 7428TIP3    H222230   3.233   3.058   3.598
 7429TIP3   OH222231   1.596   2.782   5.414
 7429TIP3    H122232   1.658   2.740   5.474
 7429TIP3    H222233   1.629   2.762   5.327
 7430TIP3   OH222234   4.448   1.052   2.433
 7430TIP3    H122235   4.364   1.070   2.475
 7430TIP3    H222236   4.451   1.113   2.359
 7431TIP3   OH222237   0.401   0.436   1.937
 7431TIP3    H122238   0.434   0.364   1.884
 7431TIP3    H222239   0.306   0.436   1.923
 7432TIP3   OH222240   0.483   1.023   6.567
 7432TIP3    H122241   0.547   0.978   6.513
 7432TIP3    H222242   0.398   0.990   6.536
 7433TIP3   OH222243   6.149   3.402   3.465
 7433TIP3    H122244   6.243   3.389   3.452
 7433TIP3    H222245   6.127   3.477   3.411
 7434TIP3   OH222246   1.444   7.305   4.557
 7434TIP3    H122247   1.504   7.245   4.602
 7434TIP3    H222248   1.363   7.256   4.549
 7435TIP3   OH222249   2.400   5.998   5.142
 7435TIP3    H122250   2.469   6.013   5.078
 7435TIP3    H222251   2.364   6.085   5.160
 7436TIP3   OH222252   4.504   4.980   0.883
 7436TIP3    H122253   4.553   5.032   0.947
 7436TIP3    H222254   4.414   4.982   0.916
 7437TIP3   OH222255   5.065   4.967   4.884
 7437TIP3    H122256   5.135   4.974   4.950
 7437TIP3    H222257   5.008   4.898   4.917
 7438TIP3   OH222258   2.553   1.865   4.616
 7438TIP3    H122259   2.580   1.925   4.546
 7438TIP3    H222260   2.575   1.911   4.697
 7439TIP3   OH222261   7.577   3.547   6.766
 7439TIP3    H122262   7.601   3.632   6.728
 7439TIP3    H222263   7.497   3.522   6.720
 7440TIP3   OH222264   4.074   6.286   5.671
 7440TIP3    H122265   4.016   6.362   5.663
 7440TIP3    H222266   4.021   6.212   5.642
 7441TIP3   OH222267   2.587   5.480   3.174
 7441TIP3    H122268   2.498   5.468   3.206
 7441TIP3    H222269   2.599   5.409   3.110
 7442TIP3   OH222270   1.057   2.047   3.672
 7442TIP3    H122271   1.028   1.962   3.637
 7442TIP3    H222272   0.985   2.076   3.727
 7443TIP3   OH222273   1.334   5.978   4.102
 7443TIP3    H122274   1.377   5.955   4.184
 7443TIP3    H222275   1.362   6.068   4.084
 7444TIP3   OH222276   2.428   4.377   4.461
 7444TIP3    H122277   2.482   4.454   4.475
 7444TIP3    H222278   2.406   4.380   4.368
 7445TIP3   OH222279   5.529   1.132   2.073
 7445TIP3    H122280   5.614   1.094   2.051
 7445TIP3    H222281   5.534   1.222   2.040
 7446TIP3   OH222282   7.149   2.068   3.662
 7446TIP3    H122283   7.194   2.038   3.583
 7446TIP3    H222284   7.122   2.158   3.641
 7447TIP3   OH222285   1.014   5.323   3.360
 7447TIP3    H122286   1.094   5.270   3.353
 7447TIP3    H222287   0.982   5.307   3.449
 7448TIP3   OH222288   6.823   7.116   2.669
 7448TIP3    H122289   6.838   7.118   2.764
 7448TIP3    H222290   6.906   7.084   2.633
 7449TIP3   OH222291   0.320   3.408   6.655
 7449TIP3    H122292   0.366   3.425   6.573
 7449TIP3    H222293   0.344   3.318   6.679
 7450TIP3   OH222294   2.095   7.169   5.619
 7450TIP3    H122295   2.068   7.191   5.708
 7450TIP3    H222296   2.188   7.193   5.616
 7451TIP3   OH222297   7.261   1.746   6.451
 7451TIP3    H122298   7.272   1.840   6.441
 7451TIP3    H222299   7.172   1.736   6.485
 7452TIP3   OH222300   7.830   2.863   1.933
 7452TIP3    H122301   7.806   2.863   1.841
 7452TIP3    H222302   7.746   2.853   1.979
 7453TIP3   OH222303   1.058   6.425   4.630
 7453TIP3    H122304   1.014   6.352   4.588
 7453TIP3    H222305   1.150   6.416   4.605
 7454TIP3   OH222306   7.026   3.441   2.356
 7454TIP3    H122307   7.079   3.470   2.430
 7454TIP3    H222308   7.010   3.348   2.372
 7455TIP3   OH222309   7.746   0.923   2.388
 7455TIP3    H122310   7.811   0.954   2.451
 7455TIP3    H222311   7.670   0.900   2.441
 7456TIP3   OH222312   7.978   0.552   4.258
 7456TIP3    H122313   7.951   0.467   4.222
 7456TIP3    H222314   8.072   0.542   4.274
 7457TIP3   OH222315   6.471   3.342   6.168
 7457TIP3    H122316   6.478   3.253   6.201
 7457TIP3    H222317   6.486   3.398   6.244
 7458TIP3   OH222318   2.826   1.502   3.040
 7458TIP3    H122319   2.893   1.501   3.109
 7458TIP3    H222320   2.858   1.440   2.975
 7459TIP3   OH222321   7.120   4.378   2.096
 7459TIP3    H122322   7.049   4.315   2.087
 7459TIP3    H222323   7.104   4.421   2.180
 7460TIP3   OH222324   5.549   0.664   2.723
 7460TIP3    H122325   5.628   0.691   2.770
 7460TIP3    H222326   5.525   0.580   2.760
 7461TIP3   OH222327   1.548   2.778   2.118
 7461TIP3    H122328   1.474   2.747   2.170
 7461TIP3    H222329   1.623   2.730   2.152
 7462TIP3   OH222330   3.339   5.126   5.571
 7462TIP3    H122331   3.244   5.126   5.564
 7462TIP3    H222332   3.356   5.167   5.656
 7463TIP3   OH222333   4.985   2.658   2.559
 7463TIP3    H122334   5.002   2.652   2.465
 7463TIP3    H222335   4.896   2.694   2.565
 7464TIP3   OH222336   5.012   1.531   6.195
 7464TIP3    H122337   5.035   1.616   6.231
 7464TIP3    H222338   5.050   1.531   6.107
 7465TIP3   OH222339   2.741   1.360   2.656
 7465TIP3    H122340   2.665   1.390   2.606
 7465TIP3    H222341   2.753   1.269   2.630
 7466TIP3   OH222342   3.251   6.251   3.879
 7466TIP3    H122343   3.245   6.217   3.790
 7466TIP3    H222344   3.312   6.325   3.872
 7467TIP3   OH222345   0.848   0.806   3.701
 7467TIP3    H122346   0.818   0.715   3.701
 7467TIP3    H222347   0.933   0.803   3.744
 7468TIP3   OH222348   4.559   7.453   2.821
 7468TIP3    H122349   4.650   7.447   2.851
 7468TIP3    H222350   4.546   7.546   2.801
 7469TIP3   OH222351   4.956   3.275   0.876
 7469TIP3    H122352   4.950   3.358   0.830
 7469TIP3    H222353   5.019   3.224   0.824
 7470TIP3   OH222354   3.156   7.416   1.337
 7470TIP3    H122355   3.068   7.388   1.363
 7470TIP3    H222356   3.142   7.501   1.295
 7471TIP3   OH222357   1.588   4.896   4.903
 7471TIP3    H122358   1.594   4.816   4.852
 7471TIP3    H222359   1.497   4.923   4.896
 7472TIP3   OH222360   7.041   6.983   2.551
 7472TIP3    H122361   7.125   7.026   2.570
 7472TIP3    H222362   7.049   6.955   2.460
 7473TIP3   OH222363   5.582   7.327   0.634
 7473TIP3    H122364   5.528   7.406   0.641
 7473TIP3    H222365   5.642   7.333   0.709
 7474TIP3   OH222366   2.549   1.169   6.201
 7474TIP3    H122367   2.637   1.135   6.219
 7474TIP3    H222368   2.559   1.220   6.120
 7475TIP3   OH222369   5.104   3.908   4.018
 7475TIP3    H122370   5.068   3.868   3.939
 7475TIP3    H222371   5.073   3.998   4.016
 7476TIP3   OH222372   8.266   7.211   2.852
 7476TIP3    H122373   8.316   7.130   2.854
 7476TIP3    H222374   8.319   7.270   2.798
 7477TIP3   OH222375   5.019   2.167   5.725
 7477TIP3    H122376   5.037   2.078   5.696
 7477TIP3    H222377   4.923   2.174   5.724
 7478TIP3   OH222378   7.721   3.655   5.967
 7478TIP3    H122379   7.758   3.597   6.032
 7478TIP3    H222380   7.797   3.702   5.930
 7479TIP3   OH222381   8.154   1.978   5.670
 7479TIP3    H122382   8.216   2.041   5.707
 7479TIP3    H222383   8.184   1.893   5.703
 7480TIP3   OH222384   2.731   5.509   4.216
 7480TIP3    H122385   2.785   5.576   4.259
 7480TIP3    H222386   2.794   5.441   4.192
 7481TIP3   OH222387   6.972   4.208   5.150
 7481TIP3    H122388   7.036   4.137   5.143
 7481TIP3    H222389   6.938   4.201   5.239
 7482TIP3   OH222390   2.555   5.242   3.931
 7482TIP3    H122391   2.464   5.222   3.956
 7482TIP3    H222392   2.585   5.163   3.886
 7483TIP3   OH222393   4.523   4.587   2.779
 7483TIP3    H122394   4.484   4.612   2.863
 7483TIP3    H222395   4.613   4.563   2.801
 7484TIP3   OH222396   2.756   6.725   0.768
 7484TIP3    H122397   2.851   6.720   0.758
 7484TIP3    H222398   2.723   6.744   0.681
 7485TIP3   OH222399   6.620   4.088   5.851
 7485TIP3    H122400   6.646   3.995   5.849
 7485TIP3    H222401   6.701   4.136   5.838
 7486TIP3   OH222402   4.277   1.083   5.098
 7486TIP3    H122403   4.270   1.022   5.171
 7486TIP3    H222404   4.370   1.082   5.074
 7487TIP3   OH222405   0.608   6.734   2.848
 7487TIP3    H122406   0.640   6.716   2.760
 7487TIP3    H222407   0.540   6.800   2.836
 7488TIP3   OH222408   5.152   0.160   2.593
 7488TIP3    H122409   5.248   0.157   2.592
 7488TIP3    H222410   5.125   0.090   2.534
 7489TIP3   OH222411   1.643   6.893   4.099
 7489TIP3    H122412   1.699   6.823   4.068
 7489TIP3    H222413   1.566   6.849   4.135
 7490TIP3   OH222414   1.633   6.104   6.594
 7490TIP3    H122415   1.673   6.189   6.576
 7490TIP3    H222416   1.544   6.112   6.560
 7491TIP3   OH222417   0.361   5.280   5.723
 7491TIP3    H122418   0.455   5.297   5.736
 7491TIP3    H222419   0.336   5.225   5.797
 7492TIP3   OH222420   4.324   6.378   4.336
 7492TIP3    H122421   4.265   6.303   4.323
 7492TIP3    H222422   4.289   6.446   4.280
 7493TIP3   OH222423   0.690   3.413   2.700
 7493TIP3    H122424   0.667   3.506   2.692
 7493TIP3    H222425   0.752   3.411   2.773
 7494TIP3   OH222426   4.388   7.815   5.852
 7494TIP3    H122427   4.308   7.778   5.888
 7494TIP3    H222428   4.437   7.739   5.820
 7495TIP3   OH222429   8.074   3.245   2.714
 7495TIP3    H122430   7.983   3.276   2.713
 7495TIP3    H222431   8.104   3.256   2.624
 7496TIP3   OH222432   4.582   4.576   4.172
 7496TIP3    H122433   4.592   4.663   4.211
 7496TIP3    H222434   4.650   4.572   4.105
 7497TIP3   OH222435   5.439   2.675   1.876
 7497TIP3    H122436   5.510   2.735   1.901
 7497TIP3    H222437   5.403   2.714   1.796
 7498TIP3   OH222438   2.008   4.615   0.820
 7498TIP3    H122439   2.057   4.662   0.752
 7498TIP3    H222440   2.065   4.543   0.846
 7499TIP3   OH222441   5.822   1.357   6.401
 7499TIP3    H122442   5.881   1.311   6.461
 7499TIP3    H222443   5.866   1.352   6.316
 7500TIP3   OH222444   4.029   1.240   5.163
 7500TIP3    H122445   3.980   1.160   5.183
 7500TIP3    H222446   4.112   1.210   5.127
 7501TIP3   OH222447   8.170   4.335   1.322
 7501TIP3    H122448   8.107   4.347   1.393
 7501TIP3    H222449   8.246   4.295   1.364
 7502TIP3   OH222450   6.172   6.291   5.891
 7502TIP3    H122451   6.157   6.249   5.807
 7502TIP3    H222452   6.257   6.258   5.919
 7503TIP3   OH222453   3.070   5.401   2.053
 7503TIP3    H122454   3.044   5.481   2.007
 7503TIP3    H222455   2.993   5.345   2.049
 7504TIP3   OH222456   5.025   5.028   1.102
 7504TIP3    H122457   4.936   5.061   1.092
 7504TIP3    H222458   5.022   4.941   1.062
 7505TIP3   OH222459   1.087   1.238   1.628
 7505TIP3    H122460   1.153   1.276   1.686
 7505TIP3    H222461   1.041   1.174   1.683
 7506TIP3   OH222462   1.861   7.265   4.737
 7506TIP3    H122463   1.869   7.210   4.660
 7506TIP3    H222464   1.921   7.226   4.801
 7507TIP3   OH222465   1.753   0.814   6.444
 7507TIP3    H122466   1.676   0.843   6.493
 7507TIP3    H222467   1.717   0.763   6.372
 7508TIP3   OH222468   1.588   4.018   5.378
 7508TIP3    H122469   1.654   3.970   5.327
 7508TIP3    H222470   1.536   4.063   5.311
 7509TIP3   OH222471   0.087   5.532   6.579
 7509TIP3    H122472  -0.001   5.516   6.614
 7509TIP3    H222473   0.077   5.609   6.524
 7510TIP3   OH222474   4.930   0.284   3.089
 7510TIP3    H122475   5.008   0.317   3.134
 7510TIP3    H222476   4.963   0.255   3.004
 7511TIP3   OH222477   7.853   7.723   1.165
 7511TIP3    H122478   7.820   7.726   1.075
 7511TIP3    H222479   7.841   7.812   1.198
 7512TIP3   OH222480   7.309   1.991   4.059
 7512TIP3    H122481   7.347   1.924   4.117
 7512TIP3    H222482   7.352   2.072   4.086
 7513TIP3   OH222483   2.162   5.258   6.555
 7513TIP3    H122484   2.222   5.229   6.486
 7513TIP3    H222485   2.216   5.312   6.612
 7514TIP3   OH222486   0.862   1.617   2.742
 7514TIP3    H122487   0.860   1.708   2.712
 7514TIP3    H222488   0.825   1.620   2.830
 7515TIP3   OH222489   7.016   0.293   4.257
 7515TIP3    H122490   6.960   0.256   4.326
 7515TIP3    H222491   6.965   0.281   4.177
 7516TIP3   OH222492   4.922   7.736   2.872
 7516TIP3    H122493   4.954   7.781   2.950
 7516TIP3    H222494   4.840   7.781   2.851
 7517TIP3   OH222495   7.246   4.396   5.628
 7517TIP3    H122496   7.305   4.446   5.685
 7517TIP3    H222497   7.298   4.379   5.549
 7518TIP3   OH222498   0.305   5.943   6.690
 7518TIP3    H122499   0.334   5.927   6.601
 7518TIP3    H222500   0.262   5.861   6.716
 7519TIP3   OH222501   3.843   3.105   5.124
 7519TIP3    H122502   3.910   3.077   5.061
 7519TIP3    H222503   3.846   3.200   5.121
 7520TIP3   OH222504   6.914   1.217   0.806
 7520TIP3    H122505   6.865   1.180   0.880
 7520TIP3    H222506   6.937   1.305   0.835
 7521TIP3   OH222507   6.804   0.757   0.324
 7521TIP3    H122508   6.736   0.823   0.338
 7521TIP3    H222509   6.879   0.790   0.373
 7522TIP3   OH222510   2.448   3.510   2.130
 7522TIP3    H122511   2.526   3.566   2.127
 7522TIP3    H222512   2.474   3.436   2.185
 7523TIP3   OH222513   4.675   2.994   0.107
 7523TIP3    H122514   4.671   2.899   0.096
 7523TIP3    H222515   4.735   3.006   0.181
 7524TIP3   OH222516   7.769   3.893   2.275
 7524TIP3    H122517   7.713   3.946   2.218
 7524TIP3    H222518   7.726   3.808   2.280
 7525TIP3   OH222519   5.235   1.822   2.100
 7525TIP3    H122520   5.329   1.808   2.091
 7525TIP3    H222521   5.227   1.886   2.171
 7526TIP3   OH222522   0.467   6.399   2.651
 7526TIP3    H122523   0.549   6.399   2.601
 7526TIP3    H222524   0.437   6.308   2.647
 7527TIP3   OH222525   8.215   2.783   2.255
 7527TIP3    H122526   8.142   2.825   2.299
 7527TIP3    H222527   8.276   2.762   2.325
 7528TIP3   OH222528   5.654   3.644   0.032
 7528TIP3    H122529   5.561   3.652   0.053
 7528TIP3    H222530   5.698   3.701   0.095
 7529TIP3   OH222531   3.260   3.065   4.710
 7529TIP3    H122532   3.239   3.061   4.803
 7529TIP3    H222533   3.313   2.987   4.694
 7530TIP3   OH222534   7.864   5.861   2.311
 7530TIP3    H122535   7.803   5.831   2.378
 7530TIP3    H222536   7.876   5.954   2.328
 7531TIP3   OH222537   0.327   4.941   1.463
 7531TIP3    H122538   0.361   4.995   1.535
 7531TIP3    H222539   0.392   4.950   1.394
 7532TIP3   OH222540   7.575   7.194   1.268
 7532TIP3    H122541   7.601   7.218   1.357
 7532TIP3    H222542   7.612   7.262   1.213
 7533TIP3   OH222543   0.443   0.354   2.514
 7533TIP3    H122544   0.368   0.297   2.529
 7533TIP3    H222545   0.437   0.421   2.582
 7534TIP3   OH222546   5.261   5.217   6.229
 7534TIP3    H122547   5.249   5.301   6.185
 7534TIP3    H222548   5.291   5.157   6.160
 7535TIP3   OH222549   7.021   7.468   4.705
 7535TIP3    H122550   7.041   7.551   4.748
 7535TIP3    H222551   6.926   7.471   4.692
 7536TIP3   OH222552   5.577   1.294   0.178
 7536TIP3    H122553   5.527   1.375   0.191
 7536TIP3    H222554   5.542   1.233   0.243
 7537TIP3   OH222555   7.361   3.919   5.027
 7537TIP3    H122556   7.348   3.906   4.934
 7537TIP3    H222557   7.287   3.874   5.069
 7538TIP3   OH222558   5.691   3.535   3.770
 7538TIP3    H122559   5.644   3.476   3.711
 7538TIP3    H222560   5.749   3.584   3.712
 7539TIP3   OH222561   0.054   0.387   1.318
 7539TIP3    H122562   0.130   0.377   1.261
 7539TIP3    H222563   0.084   0.356   1.404
 7540TIP3   OH222564   7.703   0.294   2.954
 7540TIP3    H122565   7.746   0.368   2.997
 7540TIP3    H222566   7.773   0.230   2.940
 7541TIP3   OH222567   2.600   2.249   2.817
 7541TIP3    H122568   2.557   2.266   2.733
 7541TIP3    H222569   2.582   2.327   2.870
 7542TIP3   OH222570   6.131   0.258   1.956
 7542TIP3    H122571   6.185   0.194   2.003
 7542TIP3    H222572   6.130   0.226   1.866
 7543TIP3   OH222573   2.738   2.781   5.049
 7543TIP3    H122574   2.759   2.872   5.026
 7543TIP3    H222575   2.794   2.762   5.123
 7544TIP3   OH222576   3.521   2.612   2.052
 7544TIP3    H122577   3.558   2.638   2.136
 7544TIP3    H222578   3.594   2.622   1.990
 7545TIP3   OH222579   6.434   3.914   2.056
 7545TIP3    H122580   6.385   3.986   2.096
 7545TIP3    H222581   6.471   3.867   2.131
 7546TIP3   OH222582   4.337   3.113   6.560
 7546TIP3    H122583   4.413   3.159   6.523
 7546TIP3    H222584   4.374   3.036   6.603
 7547TIP3   OH222585  -0.038   7.061   1.516
 7547TIP3    H122586   0.027   6.993   1.499
 7547TIP3    H222587   0.006   7.143   1.492
 7548TIP3   OH222588   1.921   3.200   2.133
 7548TIP3    H122589   1.906   3.107   2.154
 7548TIP3    H222590   1.921   3.243   2.219
 7549TIP3   OH222591   6.321   3.947   4.740
 7549TIP3    H122592   6.405   3.916   4.773
 7549TIP3    H222593   6.302   3.889   4.666
 7550TIP3   OH222594   0.074   1.878   5.216
 7550TIP3    H122595   0.018   1.956   5.214
 7550TIP3    H222596   0.123   1.886   5.297
 7551TIP3   OH222597   8.089   0.138   0.498
 7551TIP3    H122598   8.078   0.046   0.520
 7551TIP3    H222599   8.161   0.168   0.554
 7552TIP3   OH222600   8.231   1.979   3.597
 7552TIP3    H122601   8.263   2.053   3.649
 7552TIP3    H222602   8.153   2.013   3.554
 7553TIP3   OH222603   0.916   5.024   2.774
 7553TIP3    H122604   0.838   4.979   2.743
 7553TIP3    H222605   0.989   4.970   2.744
 7554TIP3   OH222606   4.949   1.426   2.520
 7554TIP3    H122607   4.945   1.501   2.460
 7554TIP3    H222608   4.902   1.456   2.598
 7555TIP3   OH222609   1.766   6.314   5.258
 7555TIP3    H122610   1.719   6.359   5.329
 7555TIP3    H222611   1.700   6.299   5.191
 7556TIP3   OH222612   8.249   0.012   5.027
 7556TIP3    H122613   8.274   0.055   5.109
 7556TIP3    H222614   8.214   0.082   4.972
 7557TIP3   OH222615   7.543   6.065   1.832
 7557TIP3    H122616   7.527   5.986   1.782
 7557TIP3    H222617   7.512   6.045   1.920
 7558TIP3   OH222618   1.942   5.653   4.777
 7558TIP3    H122619   1.954   5.713   4.851
 7558TIP3    H222620   2.010   5.587   4.789
 7559TIP3   OH222621   0.212   2.132   3.425
 7559TIP3    H122622   0.169   2.083   3.355
 7559TIP3    H222623   0.299   2.093   3.432
 7560TIP3   OH222624   2.114   2.088   5.116
 7560TIP3    H122625   2.169   2.115   5.044
 7560TIP3    H222626   2.024   2.094   5.082
 7561TIP3   OH222627   6.425   4.241   5.953
 7561TIP3    H122628   6.342   4.211   5.915
 7561TIP3    H222629   6.481   4.164   5.954
 7562TIP3   OH222630   1.487   5.164   2.513
 7562TIP3    H122631   1.524   5.251   2.498
 7562TIP3    H222632   1.519   5.112   2.439
 7563TIP3   OH222633   2.506   7.617   5.993
 7563TIP3    H122634   2.434   7.660   6.039
 7563TIP3    H222635   2.555   7.573   6.061
 7564TIP3   OH222636   1.591   5.579   1.369
 7564TIP3    H122637   1.513   5.526   1.353
 7564TIP3    H222638   1.663   5.527   1.333
 7565TIP3   OH222639   6.725   7.170   6.080
 7565TIP3    H122640   6.725   7.170   5.984
 7565TIP3    H222641   6.818   7.165   6.103
 7566TIP3   OH222642   2.884   2.185   3.191
 7566TIP3    H122643   2.902   2.254   3.255
 7566TIP3    H222644   2.938   2.111   3.218
 7567TIP3   OH222645   0.563   5.890   3.979
 7567TIP3    H122646   0.525   5.931   4.056
 7567TIP3    H222647   0.549   5.953   3.908
 7568TIP3   OH222648   4.960   3.889   3.764
 7568TIP3    H122649   4.968   3.931   3.678
 7568TIP3    H222650   4.870   3.908   3.791
 7569TIP3   OH222651   3.801   1.662   4.523
 7569TIP3    H122652   3.799   1.611   4.442
 7569TIP3    H222653   3.791   1.753   4.494
 7570TIP3   OH222654   3.192   4.338   4.509
 7570TIP3    H122655   3.104   4.364   4.485
 7570TIP3    H222656   3.186   4.244   4.525
 7571TIP3   OH222657   6.057   6.001   3.260
 7571TIP3    H122658   6.127   5.956   3.213
 7571TIP3    H222659   6.034   6.075   3.204
 7572TIP3   OH222660   2.132   0.940   3.387
 7572TIP3    H122661   2.117   0.930   3.481
 7572TIP3    H222662   2.116   1.032   3.369
 7573TIP3   OH222663   1.774   4.416   0.883
 7573TIP3    H122664   1.706   4.475   0.849
 7573TIP3    H222665   1.845   4.475   0.909
 7574TIP3   OH222666   3.964   4.670   5.523
 7574TIP3    H122667   3.893   4.719   5.565
 7574TIP3    H222668   3.920   4.620   5.454
 7575TIP3   OH222669   4.979  -0.015   5.820
 7575TIP3    H122670   4.998  -0.033   5.913
 7575TIP3    H222671   5.052   0.040   5.791
 7576TIP3   OH222672   0.873   2.759   1.445
 7576TIP3    H122673   0.956   2.743   1.400
 7576TIP3    H222674   0.820   2.682   1.425
 7577TIP3   OH222675   7.709   1.003   1.022
 7577TIP3    H122676   7.754   1.087   1.021
 7577TIP3    H222677   7.655   1.003   0.943
 7578TIP3   OH222678   3.686   3.176   0.872
 7578TIP3    H122679   3.606   3.158   0.920
 7578TIP3    H222680   3.657   3.205   0.786
 7579TIP3   OH222681   4.388   0.446   2.018
 7579TIP3    H122682   4.314   0.506   2.031
 7579TIP3    H222683   4.463   0.493   2.055
 7580TIP3   OH222684   2.230   0.150   0.254
 7580TIP3    H122685   2.263   0.224   0.205
 7580TIP3    H222686   2.260   0.165   0.344
 7581TIP3   OH222687   6.331   2.970   1.833
 7581TIP3    H122688   6.249   3.017   1.845
 7581TIP3    H222689   6.310   2.903   1.767
 7582TIP3   OH222690   6.933   7.012   5.892
 7582TIP3    H122691   6.859   7.051   5.845
 7582TIP3    H222692   6.978   6.958   5.826
 7583TIP3   OH222693   6.098   0.269   6.536
 7583TIP3    H122694   6.055   0.328   6.474
 7583TIP3    H222695   6.148   0.327   6.594
 7584TIP3   OH222696   0.274   4.640   3.894
 7584TIP3    H122697   0.275   4.561   3.839
 7584TIP3    H222698   0.189   4.680   3.876
 7585TIP3   OH222699   3.644   2.228   4.733
 7585TIP3    H122700   3.615   2.244   4.643
 7585TIP3    H222701   3.737   2.206   4.723
 7586TIP3   OH222702   1.320   4.930   4.181
 7586TIP3    H122703   1.302   4.868   4.252
 7586TIP3    H222704   1.403   4.971   4.205
 7587TIP3   OH222705   3.480   5.165   0.432
 7587TIP3    H122706   3.512   5.075   0.429
 7587TIP3    H222707   3.509   5.203   0.349
 7588TIP3   OH222708   1.263   1.830   4.928
 7588TIP3    H122709   1.262   1.749   4.877
 7588TIP3    H222710   1.253   1.899   4.863
 7589TIP3   OH222711   2.512   7.212   6.730
 7589TIP3    H122712   2.575   7.262   6.678
 7589TIP3    H222713   2.456   7.169   6.665
 7590TIP3   OH222714   5.429   2.354   4.175
 7590TIP3    H122715   5.494   2.286   4.158
 7590TIP3    H222716   5.461   2.398   4.254
 7591TIP3   OH222717   7.806   4.262   2.199
 7591TIP3    H122718   7.899   4.254   2.218
 7591TIP3    H222719   7.769   4.305   2.276
 7592TIP3   OH222720   5.812   7.694   5.697
 7592TIP3    H122721   5.812   7.749   5.620
 7592TIP3    H222722   5.867   7.740   5.761
 7593TIP3   OH222723   1.795   6.961   1.496
 7593TIP3    H122724   1.823   6.988   1.408
 7593TIP3    H222725   1.711   6.917   1.483
 7594TIP3   OH222726   5.993   0.190   3.799
 7594TIP3    H122727   5.927   0.124   3.822
 7594TIP3    H222728   6.066   0.139   3.765
 7595TIP3   OH222729   3.605   0.853   3.103
 7595TIP3    H122730   3.635   0.857   3.194
 7595TIP3    H222731   3.686   0.849   3.051
 7596TIP3   OH222732   6.490   2.034   3.206
 7596TIP3    H122733   6.413   1.997   3.163
 7596TIP3    H222734   6.459   2.119   3.238
 7597TIP3   OH222735   3.672   7.228   4.005
 7597TIP3    H122736   3.670   7.256   3.914
 7597TIP3    H222737   3.626   7.144   4.006
 7598TIP3   OH222738   4.400   2.536   3.701
 7598TIP3    H122739   4.439   2.466   3.649
 7598TIP3    H222740   4.326   2.494   3.745
 7599TIP3   OH222741   1.458   0.418   5.089
 7599TIP3    H122742   1.363   0.409   5.086
 7599TIP3    H222743   1.477   0.448   5.177
 7600TIP3   OH222744   7.938   1.370   3.688
 7600TIP3    H122745   7.873   1.403   3.750
 7600TIP3    H222746   7.915   1.412   3.605
 7601TIP3   OH222747   2.603   3.982   2.857
 7601TIP3    H122748   2.679   3.981   2.914
 7601TIP3    H222749   2.532   3.947   2.910
 7602TIP3   OH222750   5.601   4.496   3.708
 7602TIP3    H122751   5.610   4.443   3.787
 7602TIP3    H222752   5.682   4.481   3.659
 7603TIP3   OH222753   7.785   0.741   2.851
 7603TIP3    H122754   7.706   0.781   2.887
 7603TIP3    H222755   7.758   0.706   2.766
 7604TIP3   OH222756   1.747   0.098   2.110
 7604TIP3    H122757   1.809   0.088   2.182
 7604TIP3    H222758   1.708   0.011   2.099
 7605TIP3   OH222759   4.713   6.860   3.977
 7605TIP3    H122760   4.645   6.923   3.953
 7605TIP3    H222761   4.669   6.799   4.037
 7606TIP3   OH222762   2.105   7.771   2.137
 7606TIP3    H122763   2.081   7.817   2.057
 7606TIP3    H222764   2.022   7.740   2.173
 7607TIP3   OH222765   5.331   7.680   2.738
 7607TIP3    H122766   5.256   7.692   2.679
 7607TIP3    H222767   5.292   7.665   2.824
 7608TIP3   OH222768   0.697   3.252   4.844
 7608TIP3    H122769   0.614   3.211   4.868
 7608TIP3    H222770   0.685   3.281   4.754
 7609TIP3   OH222771   0.869   5.257   4.985
 7609TIP3    H122772   0.915   5.219   5.061
 7609TIP3    H222773   0.792   5.202   4.973
 7610TIP3   OH222774   4.576   4.856   3.937
 7610TIP3    H122775   4.537   4.941   3.915
 7610TIP3    H222776   4.661   4.878   3.975
 7611TIP3   OH222777   5.944   5.722   3.925
 7611TIP3    H122778   5.955   5.740   3.831
 7611TIP3    H222779   5.944   5.808   3.967
 7612TIP3   OH222780   8.005   7.789   4.952
 7612TIP3    H122781   8.026   7.862   4.894
 7612TIP3    H222782   7.922   7.754   4.918
 7613TIP3   OH222783   1.486   0.420   2.295
 7613TIP3    H122784   1.461   0.507   2.264
 7613TIP3    H222785   1.484   0.365   2.217
 7614TIP3   OH222786   2.322   7.770   6.122
 7614TIP3    H122787   2.370   7.810   6.195
 7614TIP3    H222788   2.249   7.726   6.164
 7615TIP3   OH222789   6.297   1.528   4.388
 7615TIP3    H122790   6.203   1.537   4.376
 7615TIP3    H222791   6.326   1.614   4.420
 7616TIP3   OH222792   1.990   0.249   1.715
 7616TIP3    H122793   1.899   0.220   1.710
 7616TIP3    H222794   1.996   0.318   1.649
 7617TIP3   OH222795   4.443   4.850   5.770
 7617TIP3    H122796   4.438   4.777   5.831
 7617TIP3    H222797   4.357   4.891   5.775
 7618TIP3   OH222798   0.845   4.007   3.189
 7618TIP3    H122799   0.920   4.039   3.239
 7618TIP3    H222800   0.877   3.928   3.145
 7619TIP3   OH222801   4.542   5.664   6.475
 7619TIP3    H122802   4.570   5.631   6.561
 7619TIP3    H222803   4.612   5.637   6.415
 7620TIP3   OH222804   2.946   2.789   0.893
 7620TIP3    H122805   2.885   2.731   0.849
 7620TIP3    H222806   3.001   2.824   0.823
 7621TIP3   OH222807   6.505   0.152   5.004
 7621TIP3    H122808   6.465   0.066   5.018
 7621TIP3    H222809   6.596   0.133   4.982
 7622TIP3   OH222810   2.166   6.097   4.097
 7622TIP3    H122811   2.117   6.015   4.103
 7622TIP3    H222812   2.196   6.100   4.006
 7623TIP3   OH222813   5.550   4.886   5.447
 7623TIP3    H122814   5.517   4.904   5.534
 7623TIP3    H222815   5.519   4.797   5.427
 7624TIP3   OH222816   0.167   5.676   4.011
 7624TIP3    H122817   0.242   5.633   4.052
 7624TIP3    H222818   0.109   5.605   3.987
 7625TIP3   OH222819   4.802   3.673   1.265
 7625TIP3    H122820   4.827   3.748   1.318
 7625TIP3    H222821   4.775   3.711   1.181
 7626TIP3   OH222822   5.814   2.100   3.719
 7626TIP3    H122823   5.739   2.145   3.758
 7626TIP3    H222824   5.811   2.124   3.626
 7627TIP3   OH222825   6.197   5.172   2.474
 7627TIP3    H122826   6.182   5.228   2.399
 7627TIP3    H222827   6.153   5.216   2.547
 7628TIP3   OH222828   2.834   2.338   2.040
 7628TIP3    H122829   2.878   2.300   1.964
 7628TIP3    H222830   2.899   2.395   2.079
 7629TIP3   OH222831   8.017   6.302   4.038
 7629TIP3    H122832   8.060   6.324   3.955
 7629TIP3    H222833   7.995   6.209   4.029
 7630TIP3   OH222834   4.251   7.279   5.525
 7630TIP3    H122835   4.231   7.195   5.484
 7630TIP3    H222836   4.165   7.320   5.537
 7631TIP3   OH222837   1.424   6.847   5.471
 7631TIP3    H122838   1.471   6.908   5.415
 7631TIP3    H222839   1.429   6.885   5.559
 7632TIP3   OH222840   0.542   0.189   2.317
 7632TIP3    H122841   0.503   0.237   2.390
 7632TIP3    H222842   0.634   0.178   2.341
 7633TIP3   OH222843   3.966   5.987   0.989
 7633TIP3    H122844   3.879   5.974   1.026
 7633TIP3    H222845   4.003   5.899   0.983
 7634TIP3   OH222846   6.925   1.666   2.008
 7634TIP3    H122847   6.860   1.736   2.004
 7634TIP3    H222848   6.875   1.589   2.037
 7635TIP3   OH222849   2.172   2.203   2.635
 7635TIP3    H122850   2.212   2.118   2.654
 7635TIP3    H222851   2.078   2.188   2.646
 7636TIP3   OH222852   7.620   5.906   5.329
 7636TIP3    H122853   7.685   5.963   5.288
 7636TIP3    H222854   7.614   5.938   5.419
 7637TIP3   OH222855   6.560   0.016   3.207
 7637TIP3    H122856   6.572   0.111   3.207
 7637TIP3    H222857   6.554  -0.007   3.114
 7638TIP3   OH222858   2.518   7.556   5.311
 7638TIP3    H122859   2.540   7.464   5.325
 7638TIP3    H222860   2.602   7.598   5.292
 7639TIP3   OH222861   5.054   3.352   3.800
 7639TIP3    H122862   4.998   3.428   3.814
 7639TIP3    H222863   5.107   3.375   3.724
 7640TIP3   OH222864   3.202   3.517   5.326
 7640TIP3    H122865   3.196   3.423   5.341
 7640TIP3    H222866   3.296   3.535   5.323
 7641TIP3   OH222867   2.857   7.728   3.644
 7641TIP3    H122868   2.874   7.662   3.577
 7641TIP3    H222869   2.769   7.759   3.624
 7642TIP3   OH222870   6.667   3.560   2.528
 7642TIP3    H122871   6.610   3.483   2.528
 7642TIP3    H222872   6.716   3.553   2.447
 7643TIP3   OH222873   0.064   2.780   4.127
 7643TIP3    H122874   0.020   2.708   4.082
 7643TIP3    H222875   0.130   2.737   4.181
 7644TIP3   OH222876   7.403   3.138   3.277
 7644TIP3    H122877   7.426   3.050   3.307
 7644TIP3    H222878   7.328   3.125   3.219
 7645TIP3   OH222879   0.470   4.816   3.889
 7645TIP3    H122880   0.502   4.814   3.799
 7645TIP3    H222881   0.405   4.746   3.893
 7646TIP3   OH222882   3.094   1.767   2.475
 7646TIP3    H122883   3.146   1.689   2.459
 7646TIP3    H222884   3.015   1.754   2.422
 7647TIP3   OH222885   6.485   6.044   0.375
 7647TIP3    H122886   6.431   6.111   0.333
 7647TIP3    H222887   6.492   6.072   0.466
 7648TIP3   OH222888   5.245   0.585   1.541
 7648TIP3    H122889   5.283   0.655   1.488
 7648TIP3    H222890   5.151   0.604   1.543
 7649TIP3   OH222891   1.585   5.580   2.586
 7649TIP3    H122892   1.550   5.626   2.509
 7649TIP3    H222893   1.677   5.608   2.590
 7650TIP3   OH222894   2.868   7.715   1.664
 7650TIP3    H122895   2.851   7.730   1.757
 7650TIP3    H222896   2.806   7.646   1.640
 7651TIP3   OH222897   5.480   0.892   4.571
 7651TIP3    H122898   5.495   0.810   4.524
 7651TIP3    H222899   5.440   0.950   4.506
 7652TIP3   OH222900   6.267   4.227   0.183
 7652TIP3    H122901   6.243   4.309   0.139
 7652TIP3    H222902   6.233   4.159   0.125
 7653TIP3   OH222903   1.177   0.255   2.126
 7653TIP3    H122904   1.229   0.296   2.057
 7653TIP3    H222905   1.240   0.235   2.195
 7654TIP3   OH222906   4.991   5.078   6.080
 7654TIP3    H122907   4.902   5.046   6.070
 7654TIP3    H222908   4.992   5.121   6.166
 7655TIP3   OH222909   0.560   5.814   3.159
 7655TIP3    H122910   0.609   5.742   3.199
 7655TIP3    H222911   0.609   5.834   3.079
 7656TIP3   OH222912   1.567   7.159   6.646
 7656TIP3    H122913   1.552   7.138   6.738
 7656TIP3    H222914   1.588   7.075   6.606
 7657TIP3   OH222915   2.408   2.472   0.116
 7657TIP3    H122916   2.353   2.398   0.090
 7657TIP3    H222917   2.479   2.473   0.053
 7658TIP3   OH222918   0.857   5.597   6.128
 7658TIP3    H122919   0.906   5.652   6.189
 7658TIP3    H222920   0.882   5.629   6.042
 7659TIP3   OH222921   2.557   2.663   1.602
 7659TIP3    H122922   2.593   2.742   1.641
 7659TIP3    H222923   2.590   2.663   1.512
 7660TIP3   OH222924   7.816   7.144   6.078
 7660TIP3    H122925   7.796   7.198   6.002
 7660TIP3    H222926   7.897   7.181   6.113
 7661TIP3   OH222927   6.635   0.810   4.727
 7661TIP3    H122928   6.626   0.904   4.711
 7661TIP3    H222929   6.546   0.777   4.727
 7662TIP3   OH222930   7.175   1.099   3.338
 7662TIP3    H122931   7.120   1.161   3.385
 7662TIP3    H222932   7.142   1.101   3.248
 7663TIP3   OH222933   5.038   6.109   4.126
 7663TIP3    H122934   4.963   6.057   4.097
 7663TIP3    H222935   5.093   6.047   4.175
 7664TIP3   OH222936   0.266   2.562   4.281
 7664TIP3    H122937   0.237   2.489   4.335
 7664TIP3    H222938   0.284   2.632   4.343
 7665TIP3   OH222939   2.736   6.283   0.192
 7665TIP3    H122940   2.802   6.223   0.228
 7665TIP3    H222941   2.688   6.230   0.128
 7666TIP3   OH222942   7.936   2.527   1.996
 7666TIP3    H122943   7.878   2.601   2.014
 7666TIP3    H222944   7.877   2.453   1.984
 7667TIP3   OH222945   7.881   2.701   3.053
 7667TIP3    H122946   7.807   2.761   3.050
 7667TIP3    H222947   7.943   2.736   2.989
 7668TIP3   OH222948   8.205   7.759   1.487
 7668TIP3    H122949   8.145   7.726   1.420
 7668TIP3    H222950   8.267   7.686   1.501
 7669TIP3   OH222951   0.279   6.401   4.839
 7669TIP3    H122952   0.275   6.338   4.767
 7669TIP3    H222953   0.266   6.348   4.917
 7670TIP3   OH222954   3.781   1.520   2.999
 7670TIP3    H122955   3.750   1.580   3.067
 7670TIP3    H222956   3.875   1.513   3.015
 7671TIP3   OH222957   0.091   5.663   4.783
 7671TIP3    H122958   0.078   5.736   4.722
 7671TIP3    H222959   0.058   5.695   4.866
 7672TIP3   OH222960   1.724   0.153   0.229
 7672TIP3    H122961   1.810   0.157   0.188
 7672TIP3    H222962   1.671   0.214   0.179
 7673TIP3   OH222963   6.029   6.998   4.807
 7673TIP3    H122964   5.983   6.980   4.889
 7673TIP3    H222965   6.027   7.094   4.800
 7674TIP3   OH222966   6.752   5.834   4.293
 7674TIP3    H122967   6.768   5.778   4.369
 7674TIP3    H222968   6.657   5.847   4.292
 7675TIP3   OH222969   4.171   4.744   3.451
 7675TIP3    H122970   4.132   4.673   3.503
 7675TIP3    H222971   4.236   4.700   3.396
 7676TIP3   OH222972   7.258   1.094   5.979
 7676TIP3    H122973   7.193   1.027   6.001
 7676TIP3    H222974   7.252   1.103   5.884
 7677TIP3   OH222975   2.628   3.041   0.701
 7677TIP3    H122976   2.590   3.077   0.621
 7677TIP3    H222977   2.722   3.059   0.693
 7678TIP3   OH222978   7.350   6.741   5.820
 7678TIP3    H122979   7.394   6.693   5.750
 7678TIP3    H222980   7.270   6.775   5.779
 7679TIP3   OH222981   7.629   1.432   5.884
 7679TIP3    H122982   7.640   1.527   5.883
 7679TIP3    H222983   7.599   1.412   5.973
 7680TIP3   OH222984   4.222   2.345   3.875
 7680TIP3    H122985   4.187   2.316   3.959
 7680TIP3    H222986   4.234   2.264   3.825
 7681TIP3   OH222987   7.877   4.077   6.070
 7681TIP3    H122988   7.790   4.036   6.081
 7681TIP3    H222989   7.888   4.085   5.976
 7682TIP3   OH222990   4.485   0.096   1.809
 7682TIP3    H122991   4.469   0.031   1.741
 7682TIP3    H222992   4.419   0.164   1.793
 7683TIP3   OH222993   6.124   2.354   5.924
 7683TIP3    H122994   6.187   2.338   5.995
 7683TIP3    H222995   6.073   2.273   5.919
 7684TIP3   OH222996   0.639   6.337   1.051
 7684TIP3    H122997   0.629   6.390   0.972
 7684TIP3    H222998   0.679   6.256   1.021
 7685TIP3   OH222999   1.700   6.840   0.479
 7685TIP3    H123000   1.748   6.858   0.559
 7685TIP3    H223001   1.711   6.920   0.427
 7686TIP3   OH223002   2.670   6.421   3.561
 7686TIP3    H123003   2.651   6.409   3.468
 7686TIP3    H223004   2.742   6.360   3.579
 7687TIP3   OH223005   7.883   1.577   0.862
 7687TIP3    H123006   7.893   1.508   0.796
 7687TIP3    H223007   7.802   1.622   0.838
 7688TIP3   OH223008   7.750   6.133   5.335
 7688TIP3    H123009   7.683   6.170   5.277
 7688TIP3    H223010   7.767   6.203   5.399
 7689TIP3   OH223011   0.478   7.462   5.397
 7689TIP3    H123012   0.563   7.423   5.377
 7689TIP3    H223013   0.434   7.396   5.451
 7690TIP3   OH223014   7.972   5.550   3.138
 7690TIP3    H123015   7.898   5.491   3.128
 7690TIP3    H223016   8.041   5.497   3.178
 7691TIP3   OH223017   8.072   4.271   2.254
 7691TIP3    H123018   8.077   4.176   2.254
 7691TIP3    H223019   8.142   4.299   2.195
 7692TIP3   OH223020   0.103   6.154   2.707
 7692TIP3    H123021   0.197   6.138   2.701
 7692TIP3    H223022   0.062   6.070   2.685
 7693TIP3   OH223023   1.168   3.417   0.873
 7693TIP3    H123024   1.252   3.431   0.917
 7693TIP3    H223025   1.105   3.466   0.926
 7694TIP3   OH223026   2.635   5.055   3.733
 7694TIP3    H123027   2.712   5.110   3.722
 7694TIP3    H223028   2.595   5.052   3.646
 7695TIP3   OH223029   3.031   5.265   6.249
 7695TIP3    H123030   3.031   5.263   6.345
 7695TIP3    H223031   3.103   5.208   6.224
 7696TIP3   OH223032   8.055   4.723   0.619
 7696TIP3    H123033   8.080   4.655   0.681
 7696TIP3    H223034   8.053   4.678   0.534
 7697TIP3   OH223035   4.940   5.142   0.620
 7697TIP3    H123036   4.868   5.080   0.623
 7697TIP3    H223037   4.899   5.228   0.626
 7698TIP3   OH223038   6.089   4.575   3.140
 7698TIP3    H123039   6.133   4.529   3.212
 7698TIP3    H223040   6.072   4.663   3.174
 7699TIP3   OH223041   0.033   3.196   1.867
 7699TIP3    H123042   0.016   3.109   1.904
 7699TIP3    H223043   0.007   3.257   1.936
 7700TIP3   OH223044   0.134   7.408   5.693
 7700TIP3    H123045   0.209   7.353   5.674
 7700TIP3    H223046   0.111   7.447   5.609
 7701TIP3   OH223047   7.980   1.141   6.563
 7701TIP3    H123048   8.017   1.101   6.485
 7701TIP3    H223049   7.920   1.075   6.598
 7702TIP3   OH223050   1.012   3.888   6.695
 7702TIP3    H123051   0.922   3.902   6.665
 7702TIP3    H223052   1.067   3.923   6.625
 7703TIP3   OH223053   2.985   4.305   1.310
 7703TIP3    H123054   2.925   4.253   1.257
 7703TIP3    H223055   2.943   4.390   1.319
 7704TIP3   OH223056   4.816   0.474   6.019
 7704TIP3    H123057   4.798   0.560   6.057
 7704TIP3    H223058   4.799   0.486   5.925
 7705TIP3   OH223059   3.452   5.401   3.650
 7705TIP3    H123060   3.424   5.384   3.560
 7705TIP3    H223061   3.546   5.418   3.644
 7706TIP3   OH223062   3.918   0.728   1.749
 7706TIP3    H123063   4.005   0.744   1.710
 7706TIP3    H223064   3.936   0.710   1.841
 7707TIP3   OH223065   5.828   4.751   1.864
 7707TIP3    H123066   5.799   4.670   1.905
 7707TIP3    H223067   5.923   4.748   1.869
 7708TIP3   OH223068   1.875   0.102   4.243
 7708TIP3    H123069   1.931   0.135   4.313
 7708TIP3    H223070   1.803   0.165   4.239
 7709TIP3   OH223071   7.513   1.207   2.024
 7709TIP3    H123072   7.446   1.174   2.084
 7709TIP3    H223073   7.464   1.244   1.951
 7710TIP3   OH223074   0.985   4.855   4.224
 7710TIP3    H123075   1.068   4.811   4.242
 7710TIP3    H223076   1.005   4.948   4.233
 7711TIP3   OH223077   5.666   1.650   4.879
 7711TIP3    H123078   5.640   1.574   4.827
 7711TIP3    H223079   5.605   1.650   4.953
 7712TIP3   OH223080   0.933   2.443   5.736
 7712TIP3    H123081   0.905   2.370   5.791
 7712TIP3    H223082   0.858   2.462   5.680
 7713TIP3   OH223083   1.727   2.486   3.081
 7713TIP3    H123084   1.820   2.478   3.059
 7713TIP3    H223085   1.726   2.531   3.165
 7714TIP3   OH223086   2.863   2.909   3.622
 7714TIP3    H123087   2.887   2.971   3.691
 7714TIP3    H223088   2.771   2.928   3.603
 7715TIP3   OH223089   2.031   2.638   4.787
 7715TIP3    H123090   1.944   2.660   4.753
 7715TIP3    H223091   2.088   2.643   4.710
 7716TIP3   OH223092   0.785   4.974   3.388
 7716TIP3    H123093   0.763   4.970   3.481
 7716TIP3    H223094   0.703   4.953   3.343
 7717TIP3   OH223095   5.618   0.560   3.379
 7717TIP3    H123096   5.536   0.600   3.351
 7717TIP3    H223097   5.628   0.587   3.470
 7718TIP3   OH223098   2.982   3.719   6.163
 7718TIP3    H123099   2.959   3.628   6.144
 7718TIP3    H223100   2.993   3.760   6.078
 7719TIP3   OH223101   6.406   4.092   3.578
 7719TIP3    H123102   6.408   4.157   3.507
 7719TIP3    H223103   6.481   4.114   3.633
 7720TIP3   OH223104   7.465   3.500   2.954
 7720TIP3    H123105   7.553   3.527   2.978
 7720TIP3    H223106   7.421   3.482   3.037
 7721TIP3   OH223107   4.467   2.285   6.205
 7721TIP3    H123108   4.443   2.292   6.298
 7721TIP3    H223109   4.516   2.365   6.186
 7722TIP3   OH223110   6.054   4.717   2.511
 7722TIP3    H123111   6.132   4.715   2.567
 7722TIP3    H223112   6.066   4.795   2.456
 7723TIP3   OH223113   8.032   2.541   4.111
 7723TIP3    H123114   8.110   2.487   4.105
 7723TIP3    H223115   7.978   2.498   4.178
 7724TIP3   OH223116   2.427   4.876   0.474
 7724TIP3    H123117   2.426   4.959   0.427
 7724TIP3    H223118   2.380   4.893   0.556
 7725TIP3   OH223119   4.194   0.231   6.560
 7725TIP3    H123120   4.283   0.262   6.573
 7725TIP3    H223121   4.202   0.137   6.548
 7726TIP3   OH223122   1.623   2.265   1.772
 7726TIP3    H123123   1.594   2.350   1.739
 7726TIP3    H223124   1.696   2.286   1.830
 7727TIP3   OH223125   0.253   6.646   5.688
 7727TIP3    H123126   0.292   6.678   5.606
 7727TIP3    H223127   0.164   6.621   5.663
 7728TIP3   OH223128   2.848   3.227   2.332
 7728TIP3    H123129   2.762   3.189   2.315
 7728TIP3    H223130   2.848   3.247   2.425
 7729TIP3   OH223131   5.495   5.681   5.703
 7729TIP3    H123132   5.553   5.741   5.750
 7729TIP3    H223133   5.543   5.598   5.700
 7730TIP3   OH223134   1.423   5.514   6.704
 7730TIP3    H123135   1.429   5.548   6.615
 7730TIP3    H223136   1.336   5.473   6.708
 7731TIP3   OH223137  -0.021   5.276   3.579
 7731TIP3    H123138   0.034   5.204   3.548
 7731TIP3    H223139   0.039   5.335   3.624
 7732TIP3   OH223140   3.330   3.578   4.480
 7732TIP3    H123141   3.390   3.567   4.407
 7732TIP3    H223142   3.268   3.506   4.471
 7733TIP3   OH223143   5.723   7.554   1.194
 7733TIP3    H123144   5.689   7.559   1.283
 7733TIP3    H223145   5.647   7.566   1.138
 7734TIP3   OH223146   7.716   4.020   1.003
 7734TIP3    H123147   7.782   3.988   0.942
 7734TIP3    H223148   7.689   3.942   1.052
 7735TIP3   OH223149   1.437   0.202   6.653
 7735TIP3    H123150   1.378   0.145   6.602
 7735TIP3    H223151   1.378   0.257   6.705
 7736TIP3   OH223152   3.703   5.123   6.146
 7736TIP3    H123153   3.650   5.149   6.071
 7736TIP3    H223154   3.793   5.141   6.119
 7737TIP3   OH223155   7.701   1.252   6.591
 7737TIP3    H123156   7.752   1.172   6.608
 7737TIP3    H223157   7.765   1.322   6.593
 7738TIP3   OH223158   7.860   6.279   2.020
 7738TIP3    H123159   7.859   6.342   2.092
 7738TIP3    H223160   7.892   6.329   1.945
 7739TIP3   OH223161   3.742   4.118   0.505
 7739TIP3    H123162   3.728   4.166   0.587
 7739TIP3    H223163   3.837   4.109   0.498
 7740TIP3   OH223164   4.297   4.964   2.481
 7740TIP3    H123165   4.374   5.008   2.446
 7740TIP3    H223166   4.235   4.961   2.409
 7741TIP3   OH223167   6.770   0.213   3.228
 7741TIP3    H123168   6.818   0.167   3.297
 7741TIP3    H223169   6.796   0.170   3.147
 7742TIP3   OH223170   2.909   4.791   6.081
 7742TIP3    H123171   2.903   4.883   6.110
 7742TIP3    H223172   2.901   4.740   6.162
 7743TIP3   OH223173   6.038   5.771   3.673
 7743TIP3    H123174   6.062   5.861   3.694
 7743TIP3    H223175   6.002   5.777   3.585
 7744TIP3   OH223176   6.132   5.213   2.728
 7744TIP3    H123177   6.211   5.178   2.771
 7744TIP3    H223178   6.062   5.155   2.756
 7745TIP3   OH223179   4.257   3.513   4.790
 7745TIP3    H123180   4.327   3.489   4.729
 7745TIP3    H223181   4.190   3.446   4.777
 7746TIP3   OH223182   8.201   6.581   6.107
 7746TIP3    H123183   8.208   6.590   6.012
 7746TIP3    H223184   8.109   6.560   6.123
 7747TIP3   OH223185   1.923   1.286   2.909
 7747TIP3    H123186   1.999   1.239   2.945
 7747TIP3    H223187   1.905   1.355   2.972
 7748TIP3   OH223188   7.892   3.781   5.813
 7748TIP3    H123189   7.978   3.819   5.792
 7748TIP3    H223190   7.830   3.830   5.760
 7749TIP3   OH223191   3.655   2.004   1.924
 7749TIP3    H123192   3.718   2.076   1.925
 7749TIP3    H223193   3.708   1.926   1.937
 7750TIP3   OH223194   1.670   0.250   4.996
 7750TIP3    H123195   1.674   0.282   4.906
 7750TIP3    H223196   1.581   0.269   5.024
 7751TIP3   OH223197   1.003   2.732   1.980
 7751TIP3    H123198   0.987   2.765   1.892
 7751TIP3    H223199   0.919   2.693   2.007
 7752TIP3   OH223200   8.086   6.853   1.655
 7752TIP3    H123201   8.015   6.853   1.591
 7752TIP3    H223202   8.152   6.911   1.617
 7753TIP3   OH223203   5.868   0.251   1.459
 7753TIP3    H123204   5.944   0.263   1.403
 7753TIP3    H223205   5.900   0.270   1.547
 7754TIP3   OH223206   3.328   3.772   5.420
 7754TIP3    H123207   3.398   3.723   5.378
 7754TIP3    H223208   3.255   3.769   5.359
 7755TIP3   OH223209   2.771   2.408   2.346
 7755TIP3    H123210   2.767   2.445   2.258
 7755TIP3    H223211   2.864   2.411   2.370
 7756TIP3   OH223212   8.221   4.247   5.871
 7756TIP3    H123213   8.210   4.181   5.939
 7756TIP3    H223214   8.238   4.328   5.918
 7757TIP3   OH223215   5.878   2.418   5.667
 7757TIP3    H123216   5.971   2.423   5.646
 7757TIP3    H223217   5.864   2.483   5.735
 7758TIP3   OH223218   5.886   1.210   5.884
 7758TIP3    H123219   5.967   1.256   5.863
 7758TIP3    H223220   5.825   1.279   5.911
 7759TIP3   OH223221   2.837   7.037   1.621
 7759TIP3    H123222   2.771   7.101   1.593
 7759TIP3    H223223   2.912   7.091   1.648
 7760TIP3   OH223224   6.711   1.205   6.711
 7760TIP3    H123225   6.666   1.121   6.717
 7760TIP3    H223226   6.784   1.189   6.651
 7761TIP3   OH223227   1.561   3.606   4.287
 7761TIP3    H123228   1.523   3.529   4.245
 7761TIP3    H223229   1.655   3.599   4.269
 7762TIP3   OH223230   7.199   1.161   4.885
 7762TIP3    H123231   7.120   1.107   4.888
 7762TIP3    H223232   7.256   1.118   4.821
 7763TIP3   OH223233   4.121   1.199   3.988
 7763TIP3    H123234   4.163   1.121   4.024
 7763TIP3    H223235   4.193   1.252   3.954
 7764TIP3   OH223236   0.200   1.693   6.136
 7764TIP3    H123237   0.250   1.629   6.186
 7764TIP3    H223238   0.139   1.640   6.084
 7765TIP3   OH223239   3.271   0.798   2.577
 7765TIP3    H123240   3.224   0.793   2.660
 7765TIP3    H223241   3.308   0.710   2.565
 7766TIP3   OH223242   7.717   3.100   4.179
 7766TIP3    H123243   7.715   3.086   4.273
 7766TIP3    H223244   7.725   3.195   4.169
 7767TIP3   OH223245   2.217   0.399   5.373
 7767TIP3    H123246   2.127   0.369   5.364
 7767TIP3    H223247   2.212   0.494   5.363
 7768TIP3   OH223248   1.746   7.412   2.904
 7768TIP3    H123249   1.659   7.385   2.932
 7768TIP3    H223250   1.731   7.488   2.848
 7769TIP3   OH223251   0.769   0.149   2.476
 7769TIP3    H123252   0.767   0.240   2.505
 7769TIP3    H223253   0.741   0.099   2.553
 7770TIP3   OH223254   8.142   2.283   5.349
 7770TIP3    H123255   8.163   2.302   5.441
 7770TIP3    H223256   8.047   2.268   5.349
 7771TIP3   OH223257   7.145   3.481   3.666
 7771TIP3    H123258   7.072   3.454   3.722
 7771TIP3    H223259   7.162   3.572   3.690
 7772TIP3   OH223260   3.229   6.040   3.025
 7772TIP3    H123261   3.273   6.120   2.996
 7772TIP3    H223262   3.295   5.994   3.078
 7773TIP3   OH223263   5.071   2.869   5.481
 7773TIP3    H123264   5.000   2.805   5.491
 7773TIP3    H223265   5.127   2.855   5.557
 7774TIP3   OH223266   4.349   0.437   1.371
 7774TIP3    H123267   4.330   0.505   1.435
 7774TIP3    H223268   4.355   0.357   1.423
 7775TIP3   OH223269   5.790   5.896   6.353
 7775TIP3    H123270   5.700   5.863   6.346
 7775TIP3    H223271   5.780   5.989   6.373
 7776TIP3   OH223272   0.080   2.709   2.479
 7776TIP3    H123273   0.072   2.621   2.441
 7776TIP3    H223274   0.172   2.716   2.504
 7777TIP3   OH223275   3.274   7.430   6.273
 7777TIP3    H123276   3.357   7.392   6.246
 7777TIP3    H223277   3.237   7.366   6.335
 7778TIP3   OH223278   4.733   4.054   2.243
 7778TIP3    H123279   4.657   4.113   2.243
 7778TIP3    H223280   4.808   4.113   2.245
 7779TIP3   OH223281   6.048   4.782   3.956
 7779TIP3    H123282   5.984   4.837   3.910
 7779TIP3    H223283   6.000   4.704   3.980
 7780TIP3   OH223284   3.060   5.416   2.337
 7780TIP3    H123285   3.075   5.408   2.243
 7780TIP3    H223286   3.068   5.327   2.370
 7781TIP3   OH223287   6.205   0.398   5.598
 7781TIP3    H123288   6.200   0.330   5.665
 7781TIP3    H223289   6.135   0.376   5.536
 7782TIP3   OH223290   8.007   4.861   1.272
 7782TIP3    H123291   7.961   4.877   1.190
 7782TIP3    H223292   8.028   4.768   1.270
 7783TIP3   OH223293   4.625   3.686   5.010
 7783TIP3    H123294   4.668   3.642   5.084
 7783TIP3    H223295   4.648   3.632   4.934
 7784TIP3   OH223296   4.599   7.339   4.923
 7784TIP3    H123297   4.512   7.371   4.945
 7784TIP3    H223298   4.586   7.247   4.897
 7785TIP3   OH223299   6.169   2.442   2.465
 7785TIP3    H123300   6.247   2.435   2.521
 7785TIP3    H223301   6.153   2.536   2.458
 7786TIP3   OH223302   2.217   4.512   0.400
 7786TIP3    H123303   2.128   4.477   0.394
 7786TIP3    H223304   2.264   4.470   0.328
 7787TIP3   OH223305   4.136   3.223   5.873
 7787TIP3    H123306   4.135   3.263   5.960
 7787TIP3    H223307   4.046   3.195   5.858
 7788TIP3   OH223308   5.426   0.168   2.649
 7788TIP3    H123309   5.475   0.249   2.635
 7788TIP3    H223310   5.424   0.156   2.744
 7789TIP3   OH223311   2.606   0.994   0.520
 7789TIP3    H123312   2.673   0.931   0.547
 7789TIP3    H223313   2.527   0.966   0.566
 7790TIP3   OH223314   4.842   6.248   6.673
 7790TIP3    H123315   4.812   6.157   6.663
 7790TIP3    H223316   4.794   6.296   6.606
 7791TIP3   OH223317   3.641   3.595   3.247
 7791TIP3    H123318   3.677   3.647   3.319
 7791TIP3    H223319   3.672   3.506   3.263
 7792TIP3   OH223320   0.269   1.845   5.894
 7792TIP3    H123321   0.275   1.769   5.836
 7792TIP3    H223322   0.191   1.829   5.947
 7793TIP3   OH223323   1.435   2.699   5.895
 7793TIP3    H123324   1.377   2.728   5.965
 7793TIP3    H223325   1.523   2.709   5.932
 7794TIP3   OH223326   3.970   6.731   1.815
 7794TIP3    H123327   3.956   6.806   1.873
 7794TIP3    H223328   3.905   6.666   1.843
 7795TIP3   OH223329   5.602   1.542   1.444
 7795TIP3    H123330   5.696   1.546   1.422
 7795TIP3    H223331   5.598   1.563   1.537
 7796TIP3   OH223332   7.280   3.405   1.145
 7796TIP3    H123333   7.315   3.458   1.073
 7796TIP3    H223334   7.217   3.463   1.188
 7797TIP3   OH223335   6.785   7.151   4.022
 7797TIP3    H123336   6.851   7.217   4.001
 7797TIP3    H223337   6.796   7.135   4.116
 7798TIP3   OH223338   2.870   5.592   2.453
 7798TIP3    H123339   2.896   5.505   2.423
 7798TIP3    H223340   2.864   5.645   2.373
 7799TIP3   OH223341   7.588   0.608   3.124
 7799TIP3    H123342   7.608   0.679   3.064
 7799TIP3    H223343   7.552   0.651   3.201
 7800TIP3   OH223344   5.780   2.749   6.066
 7800TIP3    H123345   5.755   2.832   6.024
 7800TIP3    H223346   5.837   2.775   6.138
 7801TIP3   OH223347   7.249   0.601   2.934
 7801TIP3    H123348   7.264   0.517   2.890
 7801TIP3    H223349   7.276   0.585   3.025
 7802TIP3   OH223350   3.652   4.097   0.188
 7802TIP3    H123351   3.722   4.139   0.238
 7802TIP3    H223352   3.638   4.155   0.113
 7803TIP3   OH223353   3.949   6.576   2.662
 7803TIP3    H123354   3.945   6.658   2.612
 7803TIP3    H223355   3.878   6.522   2.627
 7804TIP3   OH223356   7.459   6.775   1.950
 7804TIP3    H123357   7.540   6.730   1.974
 7804TIP3    H223358   7.427   6.727   1.874
 7805TIP3   OH223359   5.526   5.914   4.593
 7805TIP3    H123360   5.437   5.931   4.624
 7805TIP3    H223361   5.529   5.819   4.580
 7806TIP3   OH223362   0.292   0.763   3.803
 7806TIP3    H123363   0.235   0.783   3.729
 7806TIP3    H223364   0.237   0.713   3.863
 7807TIP3   OH223365   0.857   1.605   5.821
 7807TIP3    H123366   0.913   1.599   5.898
 7807TIP3    H223367   0.907   1.657   5.758
 7808TIP3   OH223368   5.939   0.366   3.435
 7808TIP3    H123369   6.004   0.312   3.481
 7808TIP3    H223370   5.961   0.456   3.460
 7809TIP3   OH223371   5.811   6.659   1.777
 7809TIP3    H123372   5.887   6.673   1.721
 7809TIP3    H223373   5.844   6.672   1.866
 7810TIP3   OH223374   0.380   3.789   4.127
 7810TIP3    H123375   0.411   3.877   4.149
 7810TIP3    H223376   0.334   3.759   4.205
 7811TIP3   OH223377   8.278   4.620   4.121
 7811TIP3    H123378   8.298   4.677   4.047
 7811TIP3    H223379   8.203   4.661   4.164
 7812TIP3   OH223380   5.622   2.585   2.850
 7812TIP3    H123381   5.674   2.636   2.912
 7812TIP3    H223382   5.541   2.635   2.840
 7813TIP3   OH223383   2.985   3.104   2.675
 7813TIP3    H123384   3.043   3.055   2.617
 7813TIP3    H223385   3.043   3.166   2.719
 7814TIP3   OH223386   4.170   4.717   0.876
 7814TIP3    H123387   4.161   4.622   0.871
 7814TIP3    H223388   4.205   4.733   0.963
 7815TIP3   OH223389   5.846   7.062   0.719
 7815TIP3    H123390   5.861   7.003   0.645
 7815TIP3    H223391   5.768   7.027   0.762
 7816TIP3   OH223392   4.977   0.859   2.677
 7816TIP3    H123393   4.957   0.772   2.710
 7816TIP3    H223394   5.033   0.898   2.744
 7817TIP3   OH223395   5.994   1.090   1.964
 7817TIP3    H123396   6.009   1.147   2.039
 7817TIP3    H223397   6.082   1.066   1.935
 7818TIP3   OH223398   1.764   1.529   1.268
 7818TIP3    H123399   1.836   1.476   1.234
 7818TIP3    H223400   1.745   1.592   1.198
 7819TIP3   OH223401   6.714   7.016   6.733
 7819TIP3    H123402   6.628   7.031   6.693
 7819TIP3    H223403   6.775   7.061   6.676
 7820TIP3   OH223404   0.348   4.816   4.256
 7820TIP3    H123405   0.381   4.768   4.332
 7820TIP3    H223406   0.318   4.748   4.196
 7821TIP3   OH223407  -0.003   1.844   3.850
 7821TIP3    H123408   0.045   1.780   3.903
 7821TIP3    H223409  -0.041   1.905   3.913
 7822TIP3   OH223410   6.106   2.169   0.854
 7822TIP3    H123411   6.148   2.197   0.935
 7822TIP3    H223412   6.014   2.158   0.877
 7823TIP3   OH223413   2.433   3.545   0.999
 7823TIP3    H123414   2.497   3.475   1.001
 7823TIP3    H223415   2.483   3.623   0.975
 7824TIP3   OH223416   7.481   0.781   3.797
 7824TIP3    H123417   7.390   0.803   3.774
 7824TIP3    H223418   7.530   0.795   3.716
 7825TIP3   OH223419   7.045   6.819   6.160
 7825TIP3    H123420   7.080   6.733   6.185
 7825TIP3    H223421   7.045   6.818   6.065
 7826TIP3   OH223422   2.588   4.627   1.545
 7826TIP3    H123423   2.604   4.538   1.514
 7826TIP3    H223424   2.534   4.667   1.477
 7827TIP3   OH223425   6.320   5.470   2.902
 7827TIP3    H123426   6.387   5.489   2.837
 7827TIP3    H223427   6.269   5.398   2.864
 7828TIP3   OH223428   7.359   7.117   1.054
 7828TIP3    H123429   7.394   7.165   0.979
 7828TIP3    H223430   7.431   7.115   1.117
 7829TIP3   OH223431   5.785   3.591   4.953
 7829TIP3    H123432   5.854   3.601   4.887
 7829TIP3    H223433   5.704   3.590   4.902
 7830TIP3   OH223434   0.012   5.456   6.079
 7830TIP3    H123435   0.018   5.509   5.999
 7830TIP3    H223436   0.104   5.440   6.103
 7831TIP3   OH223437   5.948   5.817   0.454
 7831TIP3    H123438   5.962   5.910   0.471
 7831TIP3    H223439   6.034   5.784   0.428
 7832TIP3   OH223440   2.452   4.953   5.758
 7832TIP3    H123441   2.425   4.861   5.764
 7832TIP3    H223442   2.546   4.949   5.741
 7833TIP3   OH223443   6.372   6.269   5.396
 7833TIP3    H123444   6.308   6.261   5.326
 7833TIP3    H223445   6.424   6.346   5.373
 7834TIP3   OH223446   7.390   2.001   5.598
 7834TIP3    H123447   7.384   2.089   5.560
 7834TIP3    H223448   7.456   2.009   5.668
 7835TIP3   OH223449   5.277   4.741   1.136
 7835TIP3    H123450   5.353   4.774   1.183
 7835TIP3    H223451   5.249   4.664   1.186
 7836TIP3   OH223452   3.121   3.205   3.550
 7836TIP3    H123453   3.085   3.292   3.533
 7836TIP3    H223454   3.060   3.166   3.612
 7837TIP3   OH223455   3.104   3.004   4.215
 7837TIP3    H123456   3.009   2.995   4.214
 7837TIP3    H223457   3.125   3.040   4.301
 7838TIP3   OH223458   5.223   7.614   4.637
 7838TIP3    H123459   5.190   7.598   4.549
 7838TIP3    H223460   5.295   7.552   4.647
 7839TIP3   OH223461   7.116   6.085   5.228
 7839TIP3    H123462   7.195   6.032   5.216
 7839TIP3    H223463   7.116   6.145   5.153
 7840TIP3   OH223464   8.268   5.097   6.356
 7840TIP3    H123465   8.356   5.132   6.367
 7840TIP3    H223466   8.214   5.173   6.334
 7841TIP3   OH223467   6.405   7.705   4.930
 7841TIP3    H123468   6.436   7.656   5.006
 7841TIP3    H223469   6.311   7.686   4.925
 7842TIP3   OH223470   2.197   4.064   1.767
 7842TIP3    H123471   2.256   4.012   1.712
 7842TIP3    H223472   2.178   4.008   1.842
 7843TIP3   OH223473   7.404   3.020   1.835
 7843TIP3    H123474   7.405   3.115   1.850
 7843TIP3    H223475   7.460   2.985   1.905
 7844TIP3   OH223476   6.356   5.454   5.793
 7844TIP3    H123477   6.357   5.362   5.765
 7844TIP3    H223478   6.265   5.470   5.819
 7845TIP3   OH223479   7.390   0.331   2.987
 7845TIP3    H123480   7.390   0.411   3.039
 7845TIP3    H223481   7.481   0.302   2.989
 7846TIP3   OH223482   4.068   7.344   5.042
 7846TIP3    H123483   4.046   7.384   5.126
 7846TIP3    H223484   4.010   7.386   4.979
 7847TIP3   OH223485   2.241   1.684   4.568
 7847TIP3    H123486   2.228   1.694   4.663
 7847TIP3    H223487   2.162   1.721   4.529
 7848TIP3   OH223488   7.357   3.732   6.442
 7848TIP3    H123489   7.431   3.716   6.385
 7848TIP3    H223490   7.369   3.672   6.516
 7849TIP3   OH223491   3.284   2.609   2.732
 7849TIP3    H123492   3.318   2.597   2.644
 7849TIP3    H223493   3.278   2.704   2.743
 7850TIP3   OH223494   4.823   7.635   3.481
 7850TIP3    H123495   4.854   7.569   3.543
 7850TIP3    H223496   4.903   7.667   3.439
 7851TIP3   OH223497   0.818   7.110   1.426
 7851TIP3    H123498   0.837   7.170   1.353
 7851TIP3    H223499   0.765   7.041   1.386
 7852TIP3   OH223500   2.517   6.764   6.109
 7852TIP3    H123501   2.431   6.752   6.149
 7852TIP3    H223502   2.507   6.730   6.020
 7853TIP3   OH223503   7.508   0.456   1.188
 7853TIP3    H123504   7.594   0.496   1.199
 7853TIP3    H223505   7.512   0.413   1.102
 7854TIP3   OH223506   6.782   0.982   2.124
 7854TIP3    H123507   6.807   1.073   2.111
 7854TIP3    H223508   6.854   0.932   2.085
 7855TIP3   OH223509   7.533   0.514   5.997
 7855TIP3    H123510   7.624   0.485   5.990
 7855TIP3    H223511   7.508   0.494   6.088
 7856TIP3   OH223512   1.117   3.283   4.355
 7856TIP3    H123513   1.053   3.226   4.312
 7856TIP3    H223514   1.084   3.293   4.444
 7857TIP3   OH223515   4.703   1.904   1.644
 7857TIP3    H123516   4.764   1.858   1.701
 7857TIP3    H223517   4.710   1.859   1.559
 7858TIP3   OH223518   3.441   5.384   6.193
 7858TIP3    H123519   3.532   5.364   6.215
 7858TIP3    H223520   3.438   5.479   6.188
 7859TIP3   OH223521   4.573   4.079   5.924
 7859TIP3    H123522   4.565   4.021   5.999
 7859TIP3    H223523   4.588   4.021   5.850
 7860TIP3   OH223524   0.404   0.503   4.498
 7860TIP3    H123525   0.324   0.498   4.550
 7860TIP3    H223526   0.377   0.479   4.410
 7861TIP3   OH223527   0.613   3.845   1.290
 7861TIP3    H123528   0.537   3.786   1.295
 7861TIP3    H223529   0.610   3.895   1.371
 7862TIP3   OH223530   6.367   1.583   1.274
 7862TIP3    H123531   6.383   1.668   1.232
 7862TIP3    H223532   6.272   1.571   1.268
 7863TIP3   OH223533   0.530   4.656   4.442
 7863TIP3    H123534   0.616   4.699   4.446
 7863TIP3    H223535   0.550   4.564   4.427
 7864TIP3   OH223536   1.576   0.884   2.469
 7864TIP3    H123537   1.485   0.874   2.496
 7864TIP3    H223538   1.601   0.971   2.502
 7865TIP3   OH223539   8.129   0.760   2.087
 7865TIP3    H123540   8.122   0.795   1.999
 7865TIP3    H223541   8.126   0.837   2.144
 7866TIP3   OH223542   7.744   3.379   2.734
 7866TIP3    H123543   7.758   3.292   2.772
 7866TIP3    H223544   7.736   3.438   2.809
 7867TIP3   OH223545   7.147   3.124   5.893
 7867TIP3    H123546   7.223   3.069   5.872
 7867TIP3    H223547   7.095   3.125   5.813
 7868TIP3   OH223548   3.153   0.774   1.068
 7868TIP3    H123549   3.107   0.801   0.988
 7868TIP3    H223550   3.241   0.751   1.037
 7869TIP3   OH223551   5.510   3.398   1.371
 7869TIP3    H123552   5.560   3.424   1.449
 7869TIP3    H223553   5.500   3.303   1.380
 7870TIP3   OH223554   4.578   2.847   0.393
 7870TIP3    H123555   4.582   2.754   0.416
 7870TIP3    H223556   4.592   2.849   0.298
 7871TIP3   OH223557   8.324   3.331   3.399
 7871TIP3    H123558   8.338   3.411   3.449
 7871TIP3    H223559   8.316   3.360   3.308
 7872TIP3   OH223560   2.840   0.758   0.064
 7872TIP3    H123561   2.861   0.830   0.004
 7872TIP3    H223562   2.749   0.737   0.046
 7873TIP3   OH223563   5.233   7.168   6.181
 7873TIP3    H123564   5.177   7.147   6.256
 7873TIP3    H223565   5.185   7.135   6.105
 7874TIP3   OH223566   6.046   5.416   6.292
 7874TIP3    H123567   5.971   5.457   6.335
 7874TIP3    H223568   6.107   5.396   6.363
 7875TIP3   OH223569   2.852   5.309   0.912
 7875TIP3    H123570   2.857   5.399   0.879
 7875TIP3    H223571   2.802   5.262   0.846
 7876TIP3   OH223572   3.038   0.110   5.445
 7876TIP3    H123573   3.043   0.097   5.350
 7876TIP3    H223574   3.083   0.034   5.483
 7877TIP3   OH223575   2.709   0.676   5.018
 7877TIP3    H123576   2.688   0.610   4.952
 7877TIP3    H223577   2.666   0.645   5.097
 7878TIP3   OH223578   8.259   1.736   2.425
 7878TIP3    H123579   8.282   1.798   2.494
 7878TIP3    H223580   8.323   1.753   2.355
 7879TIP3   OH223581   5.567   6.044   2.927
 7879TIP3    H123582   5.499   6.111   2.933
 7879TIP3    H223583   5.627   6.065   2.999
 7880TIP3   OH223584   3.019   7.605   5.844
 7880TIP3    H123585   2.942   7.660   5.829
 7880TIP3    H223586   2.990   7.516   5.822
 7881TIP3   OH223587   5.842   4.808   4.923
 7881TIP3    H123588   5.801   4.750   4.860
 7881TIP3    H223589   5.845   4.893   4.879
 7882TIP3   OH223590   1.296   0.961   6.383
 7882TIP3    H123591   1.244   1.022   6.330
 7882TIP3    H223592   1.278   0.875   6.346
 7883TIP3   OH223593   1.154   1.293   5.571
 7883TIP3    H123594   1.117   1.377   5.596
 7883TIP3    H223595   1.244   1.313   5.546
 7884TIP3   OH223596   1.788   2.940   4.524
 7884TIP3    H123597   1.711   2.996   4.513
 7884TIP3    H223598   1.860   3.001   4.538
 7885TIP3   OH223599   0.728   4.489   2.339
 7885TIP3    H123600   0.637   4.471   2.362
 7885TIP3    H223601   0.774   4.408   2.361
 7886TIP3   OH223602   6.275   0.002   2.423
 7886TIP3    H123603   6.290   0.064   2.352
 7886TIP3    H223604   6.183   0.014   2.447
 7887TIP3   OH223605   0.145   0.930   4.456
 7887TIP3    H123606   0.237   0.907   4.449
 7887TIP3    H223607   0.099   0.846   4.449
 7888TIP3   OH223608   5.690   7.267   6.097
 7888TIP3    H123609   5.650   7.233   6.016
 7888TIP3    H223610   5.782   7.278   6.075
 7889TIP3   OH223611   7.764   2.880   1.630
 7889TIP3    H123612   7.677   2.871   1.592
 7889TIP3    H223613   7.775   2.974   1.644
 7890TIP3   OH223614   7.829   3.973   0.741
 7890TIP3    H123615   7.856   4.065   0.744
 7890TIP3    H223616   7.759   3.971   0.675
 7891TIP3   OH223617   0.991   4.500   0.792
 7891TIP3    H123618   1.073   4.517   0.746
 7891TIP3    H223619   0.948   4.586   0.797
 7892TIP3   OH223620   3.092   6.875   2.528
 7892TIP3    H123621   3.186   6.861   2.518
 7892TIP3    H223622   3.052   6.813   2.467
 7893TIP3   OH223623   2.519   3.828   1.295
 7893TIP3    H123624   2.579   3.821   1.221
 7893TIP3    H223625   2.561   3.777   1.365
 7894TIP3   OH223626   7.494   0.203   4.331
 7894TIP3    H123627   7.400   0.196   4.349
 7894TIP3    H223628   7.503   0.172   4.241
 7895TIP3   OH223629   2.986   2.419   5.461
 7895TIP3    H123630   3.058   2.371   5.501
 7895TIP3    H223631   2.976   2.498   5.514
 7896TIP3   OH223632   0.454   2.720   3.186
 7896TIP3    H123633   0.492   2.755   3.267
 7896TIP3    H223634   0.434   2.798   3.134
 7897TIP3   OH223635   1.218   7.240   0.081
 7897TIP3    H123636   1.235   7.334   0.070
 7897TIP3    H223637   1.126   7.230   0.058
 7898TIP3   OH223638   3.454   0.444   5.085
 7898TIP3    H123639   3.423   0.510   5.147
 7898TIP3    H223640   3.536   0.412   5.123
 7899TIP3   OH223641   1.823   2.458   4.664
 7899TIP3    H123642   1.787   2.545   4.679
 7899TIP3    H223643   1.763   2.417   4.602
 7900TIP3   OH223644   0.303   5.320   2.533
 7900TIP3    H123645   0.289   5.230   2.504
 7900TIP3    H223646   0.346   5.311   2.618
 7901TIP3   OH223647   1.862   0.422   3.425
 7901TIP3    H123648   1.798   0.356   3.450
 7901TIP3    H223649   1.853   0.430   3.329
 7902TIP3   OH223650   5.138   1.929   1.785
 7902TIP3    H123651   5.158   1.927   1.878
 7902TIP3    H223652   5.133   2.022   1.763
 7903TIP3   OH223653   2.932   4.814   5.689
 7903TIP3    H123654   3.001   4.756   5.657
 7903TIP3    H223655   2.874   4.758   5.740
 7904TIP3   OH223656   5.158   6.863   3.219
 7904TIP3    H123657   5.109   6.828   3.293
 7904TIP3    H223658   5.191   6.948   3.250
 7905TIP3   OH223659   0.638   7.401   6.723
 7905TIP3    H123660   0.662   7.311   6.743
 7905TIP3    H223661   0.543   7.401   6.726
 7906TIP3   OH223662   0.718   7.350   5.707
 7906TIP3    H123663   0.778   7.409   5.751
 7906TIP3    H223664   0.640   7.348   5.762
 7907TIP3   OH223665   6.407   5.874   3.436
 7907TIP3    H123666   6.353   5.925   3.375
 7907TIP3    H223667   6.350   5.804   3.466
 7908TIP3   OH223668   2.019   7.210   2.608
 7908TIP3    H123669   1.950   7.186   2.670
 7908TIP3    H223670   2.028   7.305   2.617
 7909TIP3   OH223671   5.670   5.281   2.710
 7909TIP3    H123672   5.576   5.298   2.707
 7909TIP3    H223673   5.684   5.235   2.792
 7910TIP3   OH223674   6.989   0.829   0.975
 7910TIP3    H123675   6.895   0.836   0.959
 7910TIP3    H223676   7.005   0.735   0.982
 7911TIP3   OH223677   7.291   6.745   6.456
 7911TIP3    H123678   7.364   6.726   6.397
 7911TIP3    H223679   7.331   6.764   6.540
 7912TIP3   OH223680   7.742   0.976   5.055
 7912TIP3    H123681   7.773   0.886   5.065
 7912TIP3    H223682   7.789   1.026   5.123
 7913TIP3   OH223683   4.167   4.670   6.029
 7913TIP3    H123684   4.099   4.681   5.963
 7913TIP3    H223685   4.132   4.713   6.107
 7914TIP3   OH223686   4.002   6.819   2.216
 7914TIP3    H123687   4.057   6.897   2.225
 7914TIP3    H223688   4.061   6.746   2.234
 7915TIP3   OH223689   0.906   2.720   6.088
 7915TIP3    H123690   0.955   2.800   6.107
 7915TIP3    H223691   0.816   2.740   6.114
 7916TIP3   OH223692   4.950   4.510   3.416
 7916TIP3    H123693   5.020   4.445   3.413
 7916TIP3    H223694   4.871   4.461   3.392
 7917TIP3   OH223695   0.218   0.892   6.555
 7917TIP3    H123696   0.210   0.940   6.472
 7917TIP3    H223697   0.180   0.806   6.536
 7918TIP3   OH223698   0.560   2.660   2.394
 7918TIP3    H123699   0.496   2.657   2.465
 7918TIP3    H223700   0.507   2.665   2.314
 7919TIP3   OH223701   3.037   1.439   3.967
 7919TIP3    H123702   3.041   1.353   4.010
 7919TIP3    H223703   3.044   1.502   4.038
 7920TIP3   OH223704   7.097   7.830   1.725
 7920TIP3    H123705   7.071   7.856   1.637
 7920TIP3    H223706   7.149   7.750   1.713
 7921TIP3   OH223707   2.123   6.680   1.927
 7921TIP3    H123708   2.132   6.589   1.955
 7921TIP3    H223709   2.032   6.701   1.944
 7922TIP3   OH223710   5.120   2.460   1.725
 7922TIP3    H123711   5.093   2.406   1.651
 7922TIP3    H223712   5.067   2.540   1.716
 7923TIP3   OH223713   5.075   0.650   1.877
 7923TIP3    H123714   5.146   0.709   1.902
 7923TIP3    H223715   5.000   0.707   1.865
 7924TIP3   OH223716   1.249   7.227   5.760
 7924TIP3    H123717   1.172   7.277   5.731
 7924TIP3    H223718   1.213   7.142   5.786
 7925TIP3   OH223719   0.213   0.838   2.104
 7925TIP3    H123720   0.176   0.837   2.015
 7925TIP3    H223721   0.287   0.898   2.099
 7926TIP3   OH223722   6.398   2.856   2.478
 7926TIP3    H123723   6.483   2.821   2.454
 7926TIP3    H223724   6.379   2.921   2.411
 7927TIP3   OH223725   2.759   3.312   2.067
 7927TIP3    H123726   2.784   3.259   1.991
 7927TIP3    H223727   2.800   3.266   2.141
 7928TIP3   OH223728   6.189   4.617   4.789
 7928TIP3    H123729   6.243   4.623   4.711
 7928TIP3    H223730   6.252   4.615   4.862
 7929TIP3   OH223731   1.573   6.656   2.989
 7929TIP3    H123732   1.666   6.638   2.976
 7929TIP3    H223733   1.571   6.744   3.029
 7930TIP3   OH223734   4.957   3.689   2.635
 7930TIP3    H123735   4.924   3.777   2.655
 7930TIP3    H223736   4.933   3.676   2.543
 7931TIP3   OH223737   3.581   3.563   0.860
 7931TIP3    H123738   3.497   3.520   0.878
 7931TIP3    H223739   3.604   3.535   0.772
 7932TIP3   OH223740   1.780   1.733   0.145
 7932TIP3    H123741   1.732   1.672   0.089
 7932TIP3    H223742   1.765   1.818   0.105
 7933TIP3   OH223743   6.734   5.506   3.503
 7933TIP3    H123744   6.752   5.439   3.569
 7933TIP3    H223745   6.640   5.503   3.490
 7934TIP3   OH223746   7.839   6.979   1.004
 7934TIP3    H123747   7.894   6.995   0.928
 7934TIP3    H223748   7.842   6.884   1.016
 7935TIP3   OH223749   0.983   5.494   4.944
 7935TIP3    H123750   0.962   5.531   5.029
 7935TIP3    H223751   0.916   5.428   4.929
 7936TIP3   OH223752   7.504   7.009   1.828
 7936TIP3    H123753   7.492   6.932   1.883
 7936TIP3    H223754   7.439   7.000   1.759
 7937TIP3   OH223755   5.602   2.205   1.248
 7937TIP3    H123756   5.609   2.196   1.343
 7937TIP3    H223757   5.520   2.253   1.234
 7938TIP3   OH223758   5.595   7.558   5.044
 7938TIP3    H123759   5.666   7.542   4.981
 7938TIP3    H223760   5.561   7.644   5.020
 7939TIP3   OH223761   3.576   5.797   2.986
 7939TIP3    H123762   3.491   5.778   3.026
 7939TIP3    H223763   3.638   5.746   3.038
 7940TIP3   OH223764   0.206   6.027   0.398
 7940TIP3    H123765   0.150   6.083   0.345
 7940TIP3    H223766   0.147   5.987   0.462
 7941TIP3   OH223767   4.163   7.283   4.685
 7941TIP3    H123768   4.134   7.199   4.720
 7941TIP3    H223769   4.112   7.348   4.735
 7942TIP3   OH223770   1.081   2.547   1.495
 7942TIP3    H123771   1.051   2.515   1.580
 7942TIP3    H223772   1.129   2.627   1.515
 7943TIP3   OH223773   5.570   6.014   2.541
 7943TIP3    H123774   5.615   6.026   2.624
 7943TIP3    H223775   5.639   5.998   2.477
 7944TIP3   OH223776   4.635   4.122   3.023
 7944TIP3    H123777   4.621   4.165   2.939
 7944TIP3    H223778   4.579   4.169   3.084
 7945TIP3   OH223779   2.589   1.534   6.562
 7945TIP3    H123780   2.655   1.526   6.493
 7945TIP3    H223781   2.567   1.444   6.585
 7946TIP3   OH223782   4.346   7.420   5.018
 7946TIP3    H123783   4.256   7.389   5.014
 7946TIP3    H223784   4.374   7.402   5.108
 7947TIP3   OH223785   4.317   1.207   3.038
 7947TIP3    H123786   4.413   1.210   3.038
 7947TIP3    H223787   4.294   1.185   3.128
 7948TIP3   OH223788   6.231   0.667   5.515
 7948TIP3    H123789   6.164   0.690   5.451
 7948TIP3    H223790   6.208   0.579   5.544
 7949TIP3   OH223791   3.667   0.296   5.197
 7949TIP3    H123792   3.671   0.202   5.179
 7949TIP3    H223793   3.702   0.304   5.286
 7950TIP3   OH223794   4.098   4.178   2.763
 7950TIP3    H123795   4.028   4.112   2.762
 7950TIP3    H223796   4.052   4.262   2.764
 7951TIP3   OH223797   6.672   6.631   4.334
 7951TIP3    H123798   6.627   6.547   4.323
 7951TIP3    H223799   6.764   6.608   4.346
 7952TIP3   OH223800   4.170   2.139   1.392
 7952TIP3    H123801   4.219   2.197   1.450
 7952TIP3    H223802   4.142   2.195   1.319
 7953TIP3   OH223803   0.051   5.399   1.924
 7953TIP3    H123804   0.116   5.466   1.945
 7953TIP3    H223805   0.008   5.433   1.845
 7954TIP3   OH223806   7.229   7.649   0.648
 7954TIP3    H123807   7.147   7.623   0.607
 7954TIP3    H223808   7.238   7.742   0.628
 7955TIP3   OH223809   4.875   0.408   2.050
 7955TIP3    H123810   4.828   0.328   2.074
 7955TIP3    H223811   4.886   0.401   1.955
 7956TIP3   OH223812   3.137   2.996   3.954
 7956TIP3    H123813   3.120   3.004   4.048
 7956TIP3    H223814   3.080   2.924   3.926
 7957TIP3   OH223815   1.997   2.503   6.148
 7957TIP3    H123816   2.086   2.524   6.122
 7957TIP3    H223817   2.007   2.431   6.210
 7958TIP3   OH223818   2.790   5.625   6.599
 7958TIP3    H123819   2.808   5.681   6.675
 7958TIP3    H223820   2.695   5.627   6.590
 7959TIP3   OH223821   6.293   2.055   4.502
 7959TIP3    H123822   6.239   2.123   4.543
 7959TIP3    H223823   6.229   1.997   4.460
 7960TIP3   OH223824   2.332   4.355   1.446
 7960TIP3    H123825   2.259   4.389   1.498
 7960TIP3    H223826   2.291   4.298   1.381
 7961TIP3   OH223827   2.313   4.880   5.456
 7961TIP3    H123828   2.304   4.789   5.484
 7961TIP3    H223829   2.341   4.926   5.534
 7962TIP3   OH223830   6.819   4.247   2.555
 7962TIP3    H123831   6.825   4.342   2.564
 7962TIP3    H223832   6.780   4.217   2.638
 7963TIP3   OH223833   0.792   2.475   0.592
 7963TIP3    H123834   0.725   2.410   0.573
 7963TIP3    H223835   0.748   2.559   0.583
 7964TIP3   OH223836   2.564   1.134   5.339
 7964TIP3    H123837   2.558   1.225   5.309
 7964TIP3    H223838   2.595   1.085   5.262
 7965TIP3   OH223839   5.252   3.435   5.331
 7965TIP3    H123840   5.228   3.379   5.405
 7965TIP3    H223841   5.170   3.447   5.283
 7966TIP3   OH223842   6.856   3.594   0.844
 7966TIP3    H123843   6.916   3.659   0.807
 7966TIP3    H223844   6.874   3.596   0.938
 7967TIP3   OH223845   0.928   2.342   3.430
 7967TIP3    H123846   0.867   2.313   3.497
 7967TIP3    H223847   0.944   2.434   3.451
 7968TIP3   OH223848   3.914   3.028   3.284
 7968TIP3    H123849   3.896   3.115   3.320
 7968TIP3    H223850   3.850   2.971   3.326
 7969TIP3   OH223851   5.367   6.338   5.531
 7969TIP3    H123852   5.295   6.285   5.496
 7969TIP3    H223853   5.378   6.409   5.468
 7970TIP3   OH223854   5.594   1.291   4.530
 7970TIP3    H123855   5.685   1.270   4.507
 7970TIP3    H223856   5.542   1.226   4.483
 7971TIP3   OH223857   7.079   2.581   0.600
 7971TIP3    H123858   6.991   2.560   0.570
 7971TIP3    H223859   7.076   2.675   0.620
 7972TIP3   OH223860   2.767   1.519   0.497
 7972TIP3    H123861   2.690   1.572   0.519
 7972TIP3    H223862   2.733   1.431   0.487
 7973TIP3   OH223863   1.218   7.268   3.479
 7973TIP3    H123864   1.281   7.283   3.410
 7973TIP3    H223865   1.250   7.190   3.525
 7974TIP3   OH223866   3.418   5.177   4.929
 7974TIP3    H123867   3.398   5.083   4.928
 7974TIP3    H223868   3.377   5.209   5.010
 7975TIP3   OH223869   6.417   5.225   3.117
 7975TIP3    H123870   6.416   5.321   3.119
 7975TIP3    H223871   6.456   5.200   3.201
 7976TIP3   OH223872   7.639   1.709   0.857
 7976TIP3    H123873   7.646   1.769   0.931
 7976TIP3    H223874   7.576   1.752   0.798
 7977TIP3   OH223875   7.359   4.533   2.608
 7977TIP3    H123876   7.418   4.606   2.626
 7977TIP3    H223877   7.366   4.518   2.514
 7978TIP3   OH223878   5.334   1.813   2.865
 7978TIP3    H123879   5.360   1.868   2.938
 7978TIP3    H223880   5.410   1.758   2.847
 7979TIP3   OH223881   5.464   1.514   2.494
 7979TIP3    H123882   5.502   1.472   2.417
 7979TIP3    H223883   5.393   1.568   2.459
 7980TIP3   OH223884   6.415   4.165   1.411
 7980TIP3    H123885   6.427   4.245   1.361
 7980TIP3    H223886   6.393   4.099   1.346
 7981TIP3   OH223887   6.379   2.798   4.898
 7981TIP3    H123888   6.340   2.786   4.811
 7981TIP3    H223889   6.378   2.892   4.911
 7982TIP3   OH223890   7.556   1.942   2.576
 7982TIP3    H123891   7.638   1.895   2.588
 7982TIP3    H223892   7.564   2.020   2.632
 7983TIP3   OH223893   6.352   3.967   1.243
 7983TIP3    H123894   6.368   4.036   1.179
 7983TIP3    H223895   6.439   3.938   1.269
 7984TIP3   OH223896   8.119   0.180   4.307
 7984TIP3    H123897   8.053   0.157   4.242
 7984TIP3    H223898   8.185   0.111   4.298
 7985TIP3   OH223899   2.693   6.958   0.934
 7985TIP3    H123900   2.692   6.876   0.885
 7985TIP3    H223901   2.753   7.015   0.885
 7986TIP3   OH223902   0.377   2.913   0.331
 7986TIP3    H123903   0.411   2.971   0.398
 7986TIP3    H223904   0.308   2.963   0.288
 7987TIP3   OH223905   3.867   1.874   1.133
 7987TIP3    H123906   3.815   1.801   1.169
 7987TIP3    H223907   3.865   1.940   1.202
 7988TIP3   OH223908   0.568   0.533   5.657
 7988TIP3    H123909   0.510   0.608   5.672
 7988TIP3    H223910   0.510   0.462   5.632
 7989TIP3   OH223911   0.605   4.413   5.967
 7989TIP3    H123912   0.568   4.360   5.897
 7989TIP3    H223913   0.626   4.350   6.037
 7990TIP3   OH223914   5.920   4.177   0.543
 7990TIP3    H123915   5.922   4.106   0.607
 7990TIP3    H223916   5.863   4.243   0.581
 7991TIP3   OH223917   7.736   5.873   3.887
 7991TIP3    H123918   7.758   5.933   3.958
 7991TIP3    H223919   7.706   5.930   3.816
 7992TIP3   OH223920   7.756   5.913   5.032
 7992TIP3    H123921   7.697   5.977   4.993
 7992TIP3    H223922   7.767   5.846   4.964
 7993TIP3   OH223923   4.798   2.503   2.279
 7993TIP3    H123924   4.787   2.473   2.369
 7993TIP3    H223925   4.710   2.522   2.248
 7994TIP3   OH223926   3.259   6.514   5.155
 7994TIP3    H123927   3.168   6.506   5.184
 7994TIP3    H223928   3.253   6.558   5.070
 7995TIP3   OH223929   7.471   1.539   4.950
 7995TIP3    H123930   7.534   1.592   4.901
 7995TIP3    H223931   7.397   1.528   4.890
 7996TIP3   OH223932   5.672   3.750   2.066
 7996TIP3    H123933   5.588   3.724   2.105
 7996TIP3    H223934   5.677   3.699   1.985
 7997TIP3   OH223935   1.577   1.649   4.570
 7997TIP3    H123936   1.604   1.623   4.658
 7997TIP3    H223937   1.654   1.634   4.516
 7998TIP3   OH223938   3.865   0.492   2.502
 7998TIP3    H123939   3.836   0.580   2.479
 7998TIP3    H223940   3.801   0.461   2.566
 7999TIP3   OH223941   5.374   1.406   1.365
 7999TIP3    H123942   5.455   1.455   1.378
 7999TIP3    H223943   5.344   1.433   1.277
 8000TIP3   OH223944   4.190   6.684   6.251
 8000TIP3    H123945   4.230   6.641   6.174
 8000TIP3    H223946   4.142   6.615   6.295
 8001TIP3   OH223947   0.654   0.749   2.274
 8001TIP3    H123948   0.576   0.785   2.317
 8001TIP3    H223949   0.629   0.740   2.182
 8002TIP3   OH223950   5.469   0.935   3.835
 8002TIP3    H123951   5.563   0.924   3.851
 8002TIP3    H223952   5.464   1.005   3.770
 8003TIP3   OH223953   7.866   6.881   6.403
 8003TIP3    H123954   7.809   6.958   6.397
 8003TIP3    H223955   7.875   6.866   6.498
 8004TIP3   OH223956   8.202   3.750   2.592
 8004TIP3    H123957   8.139   3.789   2.531
 8004TIP3    H223958   8.240   3.677   2.543
 8005TIP3   OH223959   3.602   4.387   6.193
 8005TIP3    H123960   3.687   4.365   6.232
 8005TIP3    H223961   3.547   4.411   6.267
 8006TIP3   OH223962   1.535   0.928   4.946
 8006TIP3    H123963   1.447   0.953   4.917
 8006TIP3    H223964   1.591   1.000   4.918
 8007TIP3   OH223965   0.142   6.834   4.793
 8007TIP3    H123966   0.070   6.773   4.778
 8007TIP3    H223967   0.200   6.788   4.853
 8008TIP3   OH223968   3.042   6.445   1.847
 8008TIP3    H123969   2.947   6.458   1.843
 8008TIP3    H223970   3.072   6.459   1.757
 8009TIP3   OH223971   1.585   7.739   1.636
 8009TIP3    H123972   1.639   7.663   1.657
 8009TIP3    H223973   1.585   7.744   1.541
 8010TIP3   OH223974   7.752   0.617   5.388
 8010TIP3    H123975   7.763   0.712   5.402
 8010TIP3    H223976   7.663   0.599   5.417
 8011TIP3   OH223977   4.786   5.222   6.726
 8011TIP3    H123978   4.850   5.189   6.662
 8011TIP3    H223979   4.839   5.253   6.799
 8012TIP3   OH223980   2.352   6.369   1.560
 8012TIP3    H123981   2.261   6.339   1.562
 8012TIP3    H223982   2.404   6.289   1.571
 8013TIP3   OH223983   1.740   5.608   0.367
 8013TIP3    H123984   1.741   5.641   0.278
 8013TIP3    H223985   1.742   5.686   0.422
 8014TIP3   OH223986   3.287   0.595   0.813
 8014TIP3    H123987   3.301   0.637   0.729
 8014TIP3    H223988   3.334   0.650   0.876
 8015TIP3   OH223989   6.982   4.334   3.022
 8015TIP3    H123990   7.009   4.426   3.029
 8015TIP3    H223991   7.052   4.292   2.973
 8016TIP3   OH223992   3.404   3.946   2.585
 8016TIP3    H123993   3.452   3.953   2.668
 8016TIP3    H223994   3.428   3.861   2.550
 8017TIP3   OH223995   6.928   6.194   0.344
 8017TIP3    H123996   6.900   6.274   0.389
 8017TIP3    H223997   7.002   6.222   0.290
 8018TIP3   OH223998   1.890   0.185   2.957
 8018TIP3    H123999   1.956   0.196   3.026
 8018TIP3    H224000   1.938   0.149   2.883
 8019TIP3   OH224001   2.137   4.176   4.700
 8019TIP3    H124002   2.103   4.265   4.702
 8019TIP3    H224003   2.127   4.148   4.609
 8020TIP3   OH224004   3.316   0.867   3.709
 8020TIP3    H124005   3.294   0.925   3.782
 8020TIP3    H224006   3.259   0.896   3.638
 8021TIP3   OH224007   2.543   1.391   5.263
 8021TIP3    H124008   2.605   1.435   5.204
 8021TIP3    H224009   2.457   1.422   5.235
 8022TIP3   OH224010   5.194   1.554   3.256
 8022TIP3    H124011   5.241   1.482   3.214
 8022TIP3    H224012   5.241   1.568   3.338
 8023TIP3   OH224013   7.581   5.433   4.496
 8023TIP3    H124014   7.489   5.442   4.522
 8023TIP3    H224015   7.583   5.358   4.437
 8024TIP3   OH224016   5.104   5.880   1.321
 8024TIP3    H124017   5.119   5.817   1.392
 8024TIP3    H224018   5.161   5.954   1.343
 8025TIP3   OH224019   2.240   1.712   5.159
 8025TIP3    H124020   2.318   1.767   5.160
 8025TIP3    H224021   2.167   1.773   5.167
 8026TIP3   OH224022   1.354   3.397   1.596
 8026TIP3    H124023   1.289   3.393   1.526
 8026TIP3    H224024   1.436   3.418   1.552
 8027TIP3   OH224025   1.034   5.653   3.069
 8027TIP3    H124026   1.123   5.617   3.063
 8027TIP3    H224027   1.022   5.672   3.162
 8028TIP3   OH224028   1.672   2.858   0.558
 8028TIP3    H124029   1.752   2.856   0.611
 8028TIP3    H224030   1.676   2.777   0.506
 8029TIP3   OH224031   8.179   0.009   0.962
 8029TIP3    H124032   8.104   0.016   1.021
 8029TIP3    H224033   8.221   0.095   0.966
 8030TIP3   OH224034   6.533   0.834   3.854
 8030TIP3    H124035   6.505   0.773   3.922
 8030TIP3    H224036   6.556   0.779   3.780
 8031TIP3   OH224037   7.608   2.769   5.518
 8031TIP3    H124038   7.548   2.782   5.444
 8031TIP3    H224039   7.665   2.846   5.517
 8032TIP3   OH224040   0.034   2.473   3.382
 8032TIP3    H124041   0.035   2.398   3.322
 8032TIP3    H224042   0.097   2.535   3.345
 8033TIP3   OH224043   4.843   5.548   0.364
 8033TIP3    H124044   4.779   5.491   0.321
 8033TIP3    H224045   4.928   5.518   0.332
 8034TIP3   OH224046   5.186   0.140   5.731
 8034TIP3    H124047   5.258   0.108   5.675
 8034TIP3    H224048   5.229   0.193   5.798
 8035TIP3   OH224049   5.106   7.829   1.914
 8035TIP3    H124050   5.103   7.799   2.005
 8035TIP3    H224051   5.096   7.749   1.862
 8036TIP3   OH224052   7.434   6.976   0.124
 8036TIP3    H124053   7.523   6.965   0.091
 8036TIP3    H224054   7.410   7.065   0.100
 8037TIP3   OH224055   1.958   2.526   5.624
 8037TIP3    H124056   2.007   2.487   5.551
 8037TIP3    H224057   1.898   2.457   5.652
 8038TIP3   OH224058   1.749   3.381   1.211
 8038TIP3    H124059   1.732   3.291   1.185
 8038TIP3    H224060   1.663   3.419   1.224
 8039TIP3   OH224061   6.400   2.206   5.242
 8039TIP3    H124062   6.411   2.124   5.194
 8039TIP3    H224063   6.475   2.260   5.215
 8040TIP3   OH224064   6.914   2.771   2.017
 8040TIP3    H124065   6.854   2.755   2.090
 8040TIP3    H224066   6.864   2.826   1.957
 8041TIP3   OH224067   6.165   0.741   3.829
 8041TIP3    H124068   6.179   0.766   3.738
 8041TIP3    H224069   6.253   0.727   3.864
 8042TIP3   OH224070   2.673   2.685   3.511
 8042TIP3    H124071   2.753   2.701   3.562
 8042TIP3    H224072   2.623   2.766   3.521
 8043TIP3   OH224073   7.749   5.032   6.483
 8043TIP3    H124074   7.831   5.017   6.436
 8043TIP3    H224075   7.736   4.953   6.535
 8044TIP3   OH224076   1.472   3.881   1.277
 8044TIP3    H124077   1.495   3.849   1.364
 8044TIP3    H224078   1.534   3.952   1.261
 8045TIP3   OH224079   2.041   2.650   0.470
 8045TIP3    H124080   2.068   2.727   0.421
 8045TIP3    H224081   1.963   2.678   0.518
 8046TIP3   OH224082   1.415   6.919   3.830
 8046TIP3    H124083   1.370   6.919   3.915
 8046TIP3    H224084   1.465   7.001   3.830
 8047TIP3   OH224085   4.804   5.029   4.923
 8047TIP3    H124086   4.890   5.021   4.882
 8047TIP3    H224087   4.744   4.990   4.860
 8048TIP3   OH224088   4.283   6.880   1.719
 8048TIP3    H124089   4.230   6.805   1.694
 8048TIP3    H224090   4.373   6.849   1.716
 8049TIP3   OH224091   3.812   2.835   1.928
 8049TIP3    H124092   3.725   2.873   1.936
 8049TIP3    H224093   3.847   2.871   1.847
 8050TIP3   OH224094   7.894   2.760   4.036
 8050TIP3    H124095   7.943   2.678   4.039
 8050TIP3    H224096   7.842   2.759   4.117
 8051TIP3   OH224097   4.351   1.741   0.668
 8051TIP3    H124098   4.360   1.674   0.600
 8051TIP3    H224099   4.351   1.692   0.750
 8052TIP3   OH224100   7.745   3.425   1.774
 8052TIP3    H124101   7.796   3.490   1.822
 8052TIP3    H224102   7.654   3.446   1.794
 8053TIP3   OH224103   3.714   7.173   5.393
 8053TIP3    H124104   3.734   7.091   5.349
 8053TIP3    H224105   3.760   7.167   5.477
 8054TIP3   OH224106   6.669   7.145   5.808
 8054TIP3    H124107   6.607   7.080   5.841
 8054TIP3    H224108   6.659   7.140   5.713
 8055TIP3   OH224109   7.648   6.071   3.706
 8055TIP3    H124110   7.588   6.140   3.677
 8055TIP3    H224111   7.715   6.069   3.637
 8056TIP3   OH224112   6.261   2.878   1.126
 8056TIP3    H124113   6.173   2.913   1.115
 8056TIP3    H224114   6.279   2.832   1.044
 8057TIP3   OH224115   6.451   4.741   1.307
 8057TIP3    H124116   6.471   4.834   1.300
 8057TIP3    H224117   6.483   4.717   1.395
 8058TIP3   OH224118   5.142   1.294   0.249
 8058TIP3    H124119   5.112   1.239   0.177
 8058TIP3    H224120   5.078   1.278   0.319
 8059TIP3   OH224121   1.593   0.290   5.629
 8059TIP3    H124122   1.608   0.281   5.535
 8059TIP3    H224123   1.562   0.204   5.656
 8060TIP3   OH224124   5.393   1.462   4.997
 8060TIP3    H124125   5.437   1.445   4.913
 8060TIP3    H224126   5.310   1.415   4.990
 8061TIP3   OH224127   5.151   3.448   4.099
 8061TIP3    H124128   5.227   3.394   4.075
 8061TIP3    H224129   5.179   3.537   4.078
 8062TIP3   OH224130   3.767   3.595   5.422
 8062TIP3    H124131   3.723   3.636   5.497
 8062TIP3    H224132   3.844   3.649   5.406
 8063TIP3   OH224133   5.475   3.235   5.687
 8063TIP3    H124134   5.557   3.250   5.639
 8063TIP3    H224135   5.495   3.163   5.746
 8064TIP3   OH224136   8.044   7.431   0.356
 8064TIP3    H124137   8.013   7.348   0.319
 8064TIP3    H224138   7.993   7.498   0.311
 8065TIP3   OH224139   6.759   3.697   0.345
 8065TIP3    H124140   6.809   3.674   0.267
 8065TIP3    H224141   6.810   3.664   0.418
 8066TIP3   OH224142   8.277   3.571   0.851
 8066TIP3    H124143   8.215   3.543   0.920
 8066TIP3    H224144   8.332   3.636   0.894
 8067TIP3   OH224145   1.029   2.027   2.743
 8067TIP3    H124146   1.004   1.937   2.760
 8067TIP3    H224147   1.117   2.022   2.706
 8068TIP3   OH224148   7.296   1.049   4.660
 8068TIP3    H124149   7.216   0.998   4.647
 8068TIP3    H224150   7.292   1.117   4.592
 8069TIP3   OH224151   4.214   0.585   2.192
 8069TIP3    H124152   4.152   0.589   2.265
 8069TIP3    H224153   4.243   0.675   2.180
 8070TIP3   OH224154   1.769   3.121   0.470
 8070TIP3    H124155   1.858   3.093   0.453
 8070TIP3    H224156   1.724   3.041   0.498
 8071TIP3   OH224157   2.013   4.971   1.468
 8071TIP3    H124158   1.937   4.912   1.467
 8071TIP3    H224159   2.054   4.959   1.382
 8072TIP3   OH224160   0.123   1.312   1.609
 8072TIP3    H124161   0.119   1.380   1.676
 8072TIP3    H224162   0.193   1.340   1.550
 8073TIP3   OH224163   2.216   5.721   0.927
 8073TIP3    H124164   2.285   5.786   0.941
 8073TIP3    H224165   2.152   5.740   0.996
 8074TIP3   OH224166   0.057   0.793   3.652
 8074TIP3    H124167  -0.005   0.729   3.618
 8074TIP3    H224168   0.004   0.869   3.674
 8075TIP3   OH224169   7.568   3.622   0.254
 8075TIP3    H124170   7.494   3.605   0.196
 8075TIP3    H224171   7.631   3.669   0.199
 8076TIP3   OH224172   2.532   6.526   0.527
 8076TIP3    H124173   2.562   6.442   0.491
 8076TIP3    H224174   2.527   6.511   0.621
 8077TIP3   OH224175   6.830   6.436   5.277
 8077TIP3    H124176   6.882   6.393   5.209
 8077TIP3    H224177   6.875   6.413   5.359
 8078TIP3   OH224178   5.867   6.697   4.227
 8078TIP3    H124179   5.956   6.662   4.217
 8078TIP3    H224180   5.856   6.705   4.322
 8079TIP3   OH224181   3.723   6.190   6.548
 8079TIP3    H124182   3.748   6.101   6.521
 8079TIP3    H224183   3.702   6.235   6.466
 8080TIP3   OH224184   2.948   3.519   2.440
 8080TIP3    H124185   3.024   3.560   2.480
 8080TIP3    H224186   2.924   3.449   2.501
 8081TIP3   OH224187   2.656   2.962   5.758
 8081TIP3    H124188   2.713   2.924   5.825
 8081TIP3    H224189   2.639   3.051   5.788
 8082TIP3   OH224190   1.060   1.952   1.185
 8082TIP3    H124191   1.090   1.951   1.275
 8082TIP3    H224192   1.069   2.043   1.157
 8083TIP3   OH224193   5.096   0.251   0.897
 8083TIP3    H124194   5.170   0.270   0.839
 8083TIP3    H224195   5.039   0.327   0.888
 8084TIP3   OH224196   3.097   6.699   4.221
 8084TIP3    H124197   3.155   6.667   4.152
 8084TIP3    H224198   3.150   6.697   4.300
 8085TIP3   OH224199   3.730   6.722   5.695
 8085TIP3    H124200   3.717   6.742   5.602
 8085TIP3    H224201   3.652   6.674   5.721
 8086TIP3   OH224202   2.719   0.203   2.755
 8086TIP3    H124203   2.710   0.298   2.751
 8086TIP3    H224204   2.672   0.177   2.835
 8087TIP3   OH224205   2.612   0.046   4.117
 8087TIP3    H124206   2.624   0.063   4.023
 8087TIP3    H224207   2.575   0.128   4.151
 8088TIP3   OH224208   5.807   3.335   4.551
 8088TIP3    H124209   5.826   3.424   4.521
 8088TIP3    H224210   5.738   3.304   4.492
 8089TIP3   OH224211   1.934   7.078   1.235
 8089TIP3    H124212   1.863   7.122   1.188
 8089TIP3    H224213   1.946   6.995   1.189
 8090TIP3   OH224214   4.086   6.564   3.406
 8090TIP3    H124215   4.045   6.650   3.410
 8090TIP3    H224216   4.169   6.579   3.360
 8091TIP3   OH224217   4.745   0.823   0.761
 8091TIP3    H124218   4.807   0.836   0.833
 8091TIP3    H224219   4.668   0.785   0.804
 8092TIP3   OH224220   4.919   6.590   1.021
 8092TIP3    H124221   4.827   6.602   0.999
 8092TIP3    H224222   4.966   6.638   0.954
 8093TIP3   OH224223   1.279   4.103   5.792
 8093TIP3    H124224   1.190   4.098   5.758
 8093TIP3    H224225   1.333   4.123   5.716
 8094TIP3   OH224226   2.425   3.107   3.821
 8094TIP3    H124227   2.355   3.172   3.817
 8094TIP3    H224228   2.380   3.023   3.818
 8095TIP3   OH224229   5.388   3.772   3.200
 8095TIP3    H124230   5.372   3.844   3.261
 8095TIP3    H224231   5.356   3.805   3.116
 8096TIP3   OH224232   6.677   2.095   3.000
 8096TIP3    H124233   6.623   2.141   2.936
 8096TIP3    H224234   6.615   2.040   3.049
 8097TIP3   OH224235   0.603   1.496   5.736
 8097TIP3    H124236   0.614   1.591   5.736
 8097TIP3    H224237   0.692   1.462   5.731
 8098TIP3   OH224238   1.317   0.084   5.836
 8098TIP3    H124239   1.376   0.112   5.906
 8098TIP3    H224240   1.374   0.039   5.774
 8099TIP3   OH224241   4.475   2.511   2.582
 8099TIP3    H124242   4.564   2.479   2.595
 8099TIP3    H224243   4.440   2.523   2.671
 8100TIP3   OH224244   6.414   7.083   1.348
 8100TIP3    H124245   6.339   7.024   1.351
 8100TIP3    H224246   6.436   7.089   1.255
 8101TIP3   OH224247   7.870   3.654   6.399
 8101TIP3    H124248   7.885   3.705   6.479
 8101TIP3    H224249   7.932   3.690   6.335
 8102TIP3   OH224250   4.660   3.814   3.695
 8102TIP3    H124251   4.709   3.870   3.756
 8102TIP3    H224252   4.728   3.761   3.653
 8103TIP3   OH224253   4.069   6.910   6.345
 8103TIP3    H124254   3.974   6.918   6.333
 8103TIP3    H224255   4.094   6.837   6.288
 8104TIP3   OH224256   6.711   6.338   4.868
 8104TIP3    H124257   6.739   6.364   4.956
 8104TIP3    H224258   6.675   6.250   4.879
 8105TIP3   OH224259   3.125   5.440   3.023
 8105TIP3    H124260   3.165   5.509   2.969
 8105TIP3    H224261   3.039   5.475   3.045
 8106TIP3   OH224262   2.243   6.544   4.956
 8106TIP3    H124263   2.234   6.485   4.881
 8106TIP3    H224264   2.155   6.548   4.994
 8107TIP3   OH224265   2.462   0.777   4.193
 8107TIP3    H124266   2.416   0.796   4.275
 8107TIP3    H224267   2.457   0.860   4.144
 8108TIP3   OH224268   7.786   7.097   5.113
 8108TIP3    H124269   7.765   7.044   5.037
 8108TIP3    H224270   7.822   7.036   5.177
 8109TIP3   OH224271   7.886   2.592   6.494
 8109TIP3    H124272   7.898   2.653   6.566
 8109TIP3    H224273   7.864   2.647   6.419
 8110TIP3   OH224274   0.895   5.650   6.804
 8110TIP3    H124275   0.895   5.742   6.779
 8110TIP3    H224276   0.858   5.604   6.729
 8111TIP3   OH224277   0.957   1.324   6.567
 8111TIP3    H124278   0.868   1.288   6.573
 8111TIP3    H224279   0.946   1.412   6.534
 8112TIP3   OH224280   7.880   4.742   5.919
 8112TIP3    H124281   7.911   4.708   5.835
 8112TIP3    H224282   7.942   4.810   5.943
 8113TIP3   OH224283   6.053   6.576   0.984
 8113TIP3    H124284   6.131   6.602   0.935
 8113TIP3    H224285   5.994   6.651   0.976
 8114TIP3   OH224286   0.627   0.807   4.662
 8114TIP3    H124287   0.667   0.888   4.633
 8114TIP3    H224288   0.547   0.834   4.706
 8115TIP3   OH224289   1.617   7.150   4.682
 8115TIP3    H124290   1.704   7.127   4.649
 8115TIP3    H224291   1.589   7.074   4.732
 8116TIP3   OH224292   3.131   5.881   0.090
 8116TIP3    H124293   3.122   5.835   0.007
 8116TIP3    H224294   3.070   5.838   0.149
 8117TIP3   OH224295   5.692   1.548   3.339
 8117TIP3    H124296   5.713   1.504   3.422
 8117TIP3    H224297   5.760   1.518   3.279
 8118TIP3   OH224298   0.664   1.865   1.097
 8118TIP3    H124299   0.663   1.894   1.005
 8118TIP3    H224300   0.671   1.946   1.147
 8119TIP3   OH224301   0.969   3.806   4.267
 8119TIP3    H124302   1.015   3.733   4.309
 8119TIP3    H224303   0.918   3.765   4.197
 8120TIP3   OH224304   2.663   7.407   0.440
 8120TIP3    H124305   2.628   7.395   0.352
 8120TIP3    H224306   2.589   7.389   0.498
 8121TIP3   OH224307   4.342   0.981   0.472
 8121TIP3    H124308   4.418   0.978   0.531
 8121TIP3    H224309   4.293   0.901   0.493
 8122TIP3   OH224310   7.405   4.143   3.587
 8122TIP3    H124311   7.337   4.177   3.528
 8122TIP3    H224312   7.398   4.048   3.579
 8123TIP3   OH224313   1.971   4.906   3.582
 8123TIP3    H124314   1.898   4.857   3.543
 8123TIP3    H224315   1.947   4.998   3.570
 8124TIP3   OH224316   5.578   2.115   4.213
 8124TIP3    H124317   5.659   2.066   4.200
 8124TIP3    H224318   5.555   2.100   4.305
 8125TIP3   OH224319   0.283   2.842   4.965
 8125TIP3    H124320   0.254   2.761   4.923
 8125TIP3    H224321   0.225   2.853   5.040
 8126TIP3   OH224322   2.569   7.636   4.028
 8126TIP3    H124323   2.521   7.578   3.969
 8126TIP3    H224324   2.502   7.693   4.066
 8127TIP3   OH224325   4.614   3.134   1.842
 8127TIP3    H124326   4.661   3.108   1.763
 8127TIP3    H224327   4.680   3.129   1.912
 8128TIP3   OH224328   4.451   6.048   1.031
 8128TIP3    H124329   4.495   5.979   0.981
 8128TIP3    H224330   4.412   6.002   1.105
 8129TIP3   OH224331   5.071   1.093   6.585
 8129TIP3    H124332   5.133   1.154   6.545
 8129TIP3    H224333   5.013   1.148   6.638
 8130TIP3   OH224334   6.835   2.185   1.635
 8130TIP3    H124335   6.915   2.237   1.632
 8130TIP3    H224336   6.799   2.190   1.547
 8131TIP3   OH224337   7.010   0.545   4.903
 8131TIP3    H124338   6.938   0.594   4.943
 8131TIP3    H224339   7.040   0.487   4.972
 8132TIP3   OH224340   0.869   5.093   5.718
 8132TIP3    H124341   0.811   5.019   5.732
 8132TIP3    H224342   0.956   5.054   5.711
 8133TIP3   OH224343   0.820   6.212   1.830
 8133TIP3    H124344   0.793   6.225   1.739
 8133TIP3    H224345   0.902   6.163   1.823
 8134TIP3   OH224346   2.860   1.423   4.444
 8134TIP3    H124347   2.801   1.390   4.376
 8134TIP3    H224348   2.947   1.406   4.410
 8135TIP3   OH224349   7.279   7.771   3.036
 8135TIP3    H124350   7.284   7.712   2.961
 8135TIP3    H224351   7.312   7.855   3.003
 8136TIP3   OH224352   2.424   4.023   1.067
 8136TIP3    H124353   2.468   4.019   0.982
 8136TIP3    H224354   2.460   3.949   1.116
 8137TIP3   OH224355   2.139   3.033   5.392
 8137TIP3    H124356   2.050   2.996   5.392
 8137TIP3    H224357   2.132   3.113   5.340
 8138TIP3   OH224358   6.974   1.496   2.295
 8138TIP3    H124359   7.001   1.579   2.256
 8138TIP3    H224360   7.001   1.503   2.387
 8139TIP3   OH224361   0.936   0.485   3.429
 8139TIP3    H124362   0.879   0.463   3.356
 8139TIP3    H224363   0.915   0.419   3.496
 8140TIP3   OH224364   0.102   6.030   1.124
 8140TIP3    H124365   0.172   6.077   1.170
 8140TIP3    H224366   0.038   6.010   1.192
 8141TIP3   OH224367   2.997   5.270   4.697
 8141TIP3    H124368   2.914   5.280   4.651
 8141TIP3    H224369   2.999   5.178   4.724
 8142TIP3   OH224370   3.046   4.547   6.296
 8142TIP3    H124371   3.101   4.474   6.324
 8142TIP3    H224372   2.961   4.507   6.275
 8143TIP3   OH224373   4.379   0.185   2.062
 8143TIP3    H124374   4.434   0.151   1.992
 8143TIP3    H224375   4.418   0.270   2.084
 8144TIP3   OH224376   2.310   2.099   0.801
 8144TIP3    H124377   2.222   2.126   0.827
 8144TIP3    H224378   2.363   2.108   0.880
 8145TIP3   OH224379   4.340   4.835   1.516
 8145TIP3    H124380   4.332   4.793   1.602
 8145TIP3    H224381   4.350   4.928   1.536
 8146TIP3   OH224382   0.331   4.459   5.798
 8146TIP3    H124383   0.380   4.465   5.716
 8146TIP3    H224384   0.246   4.499   5.777
 8147TIP3   OH224385   6.023   1.121   6.156
 8147TIP3    H124386   6.058   1.199   6.199
 8147TIP3    H224387   5.987   1.153   6.073
 8148TIP3   OH224388   2.871   5.087   2.838
 8148TIP3    H124389   2.855   5.107   2.930
 8148TIP3    H224390   2.956   5.127   2.820
 8149TIP3   OH224391   2.113   4.417   5.155
 8149TIP3    H124392   2.093   4.344   5.097
 8149TIP3    H224393   2.150   4.377   5.233
 8150TIP3   OH224394   0.677   3.614   5.513
 8150TIP3    H124395   0.595   3.597   5.468
 8150TIP3    H224396   0.680   3.549   5.584
 8151TIP3   OH224397   2.201   1.410   2.036
 8151TIP3    H124398   2.296   1.416   2.048
 8151TIP3    H224399   2.176   1.331   2.084
 8152TIP3   OH224400   1.573   7.144   4.059
 8152TIP3    H124401   1.605   7.054   4.058
 8152TIP3    H224402   1.547   7.159   4.150
 8153TIP3   OH224403   0.058   7.817   3.794
 8153TIP3    H124404   0.046   7.722   3.793
 8153TIP3    H224405   0.067   7.842   3.702
 8154TIP3   OH224406   5.560   4.080   6.770
 8154TIP3    H124407   5.570   4.161   6.720
 8154TIP3    H224408   5.484   4.096   6.826
 8155TIP3   OH224409   6.774   5.991   3.937
 8155TIP3    H124410   6.741   5.901   3.947
 8155TIP3    H224411   6.753   6.033   4.021
 8156TIP3   OH224412   6.546   0.402   1.499
 8156TIP3    H124413   6.587   0.388   1.584
 8156TIP3    H224414   6.533   0.496   1.493
 8157TIP3   OH224415   0.182   0.400   0.988
 8157TIP3    H124416   0.213   0.462   0.922
 8157TIP3    H224417   0.237   0.415   1.064
 8158TIP3   OH224418   6.406   5.182   2.860
 8158TIP3    H124419   6.402   5.185   2.955
 8158TIP3    H224420   6.498   5.197   2.839
 8159TIP3   OH224421   3.182   0.435   5.459
 8159TIP3    H124422   3.097   0.396   5.480
 8159TIP3    H224423   3.198   0.410   5.368
 8160TIP3   OH224424   1.127   1.473   4.944
 8160TIP3    H124425   1.095   1.548   4.994
 8160TIP3    H224426   1.142   1.507   4.855
 8161TIP3   OH224427   6.089   7.091   3.252
 8161TIP3    H124428   6.040   7.018   3.290
 8161TIP3    H224429   6.042   7.169   3.282
 8162TIP3   OH224430   4.429   1.718   5.751
 8162TIP3    H124431   4.423   1.643   5.692
 8162TIP3    H224432   4.517   1.711   5.788
 8163TIP3   OH224433   0.747   1.420   1.739
 8163TIP3    H124434   0.664   1.398   1.780
 8163TIP3    H224435   0.724   1.462   1.657
 8164TIP3   OH224436   7.424   5.807   2.813
 8164TIP3    H124437   7.436   5.857   2.894
 8164TIP3    H224438   7.400   5.873   2.748
 8165TIP3   OH224439   5.539   7.537   5.336
 8165TIP3    H124440   5.584   7.453   5.342
 8165TIP3    H224441   5.493   7.533   5.252
 8166TIP3   OH224442   2.200   6.915   1.805
 8166TIP3    H124443   2.162   6.858   1.871
 8166TIP3    H224444   2.286   6.938   1.841
 8167TIP3   OH224445   6.315   7.427   2.406
 8167TIP3    H124446   6.317   7.453   2.498
 8167TIP3    H224447   6.263   7.496   2.363
 8168TIP3   OH224448   6.059   6.073   3.762
 8168TIP3    H124449   6.153   6.084   3.776
 8168TIP3    H224450   6.023   6.161   3.777
 8169TIP3   OH224451   3.770   7.489   2.057
 8169TIP3    H124452   3.711   7.479   1.982
 8169TIP3    H224453   3.817   7.406   2.062
 8170TIP3   OH224454   4.860   4.780   5.968
 8170TIP3    H124455   4.900   4.817   5.889
 8170TIP3    H224456   4.932   4.737   6.013
 8171TIP3   OH224457   4.916   1.815   2.414
 8171TIP3    H124458   4.962   1.749   2.361
 8171TIP3    H224459   4.956   1.898   2.387
 8172TIP3   OH224460   6.057   2.593   0.941
 8172TIP3    H124461   6.073   2.553   1.026
 8172TIP3    H224462   6.139   2.636   0.918
 8173TIP3   OH224463   5.644   1.500   3.646
 8173TIP3    H124464   5.626   1.592   3.625
 8173TIP3    H224465   5.719   1.504   3.705
 8174TIP3   OH224466   1.998   2.936   3.711
 8174TIP3    H124467   1.982   2.894   3.796
 8174TIP3    H224468   1.944   2.886   3.649
 8175TIP3   OH224469   2.259   1.958   2.716
 8175TIP3    H124470   2.353   1.946   2.707
 8175TIP3    H224471   2.243   1.947   2.810
 8176TIP3   OH224472   2.404   2.831   4.551
 8176TIP3    H124473   2.491   2.837   4.514
 8176TIP3    H224474   2.414   2.862   4.641
 8177TIP3   OH224475   3.129   7.553   3.529
 8177TIP3    H124476   3.202   7.518   3.478
 8177TIP3    H224477   3.103   7.481   3.587
 8178TIP3   OH224478   2.574   0.169   0.150
 8178TIP3    H124479   2.501   0.208   0.102
 8178TIP3    H224480   2.562   0.200   0.240
 8179TIP3   OH224481   1.111   7.615   0.595
 8179TIP3    H124482   1.084   7.554   0.526
 8179TIP3    H224483   1.202   7.637   0.572
 8180TIP3   OH224484   2.359   0.079   3.190
 8180TIP3    H124485   2.411   0.051   3.265
 8180TIP3    H224486   2.303   0.004   3.170
 8181TIP3   OH224487   1.693   2.726   5.960
 8181TIP3    H124488   1.691   2.799   6.023
 8181TIP3    H224489   1.785   2.702   5.954
 8182TIP3   OH224490   3.520   6.356   3.572
 8182TIP3    H124491   3.569   6.435   3.546
 8182TIP3    H224492   3.585   6.286   3.573
 8183TIP3   OH224493   1.856   1.539   5.109
 8183TIP3    H124494   1.940   1.512   5.143
 8183TIP3    H224495   1.877   1.588   5.029
 8184TIP3   OH224496   0.117   5.813   0.959
 8184TIP3    H124497   0.102   5.894   1.008
 8184TIP3    H224498   0.182   5.837   0.893
 8185TIP3   OH224499   8.000   3.716   4.588
 8185TIP3    H124500   7.968   3.628   4.610
 8185TIP3    H224501   8.057   3.702   4.512
 8186TIP3   OH224502   1.401   3.535   5.135
 8186TIP3    H124503   1.308   3.515   5.145
 8186TIP3    H224504   1.444   3.450   5.130
 8187TIP3   OH224505   2.134   4.004   0.271
 8187TIP3    H124506   2.221   4.037   0.248
 8187TIP3    H224507   2.149   3.913   0.297
 8188TIP3   OH224508   3.975   1.845   0.832
 8188TIP3    H124509   3.965   1.937   0.859
 8188TIP3    H224510   3.938   1.795   0.905
 8189TIP3   OH224511   4.412   0.758   6.119
 8189TIP3    H124512   4.473   0.719   6.057
 8189TIP3    H224513   4.410   0.851   6.096
 8190TIP3   OH224514   7.749   5.024   4.342
 8190TIP3    H124515   7.763   5.106   4.295
 8190TIP3    H224516   7.654   5.011   4.339
 8191TIP3   OH224517   4.025   0.506   4.842
 8191TIP3    H124518   4.111   0.548   4.834
 8191TIP3    H224519   3.977   0.534   4.765
 8192TIP3   OH224520   3.300   4.739   3.166
 8192TIP3    H124521   3.236   4.706   3.230
 8192TIP3    H224522   3.376   4.683   3.179
 8193TIP3   OH224523   4.606   0.841   2.343
 8193TIP3    H124524   4.528   0.890   2.368
 8193TIP3    H224525   4.668   0.854   2.415
 8194TIP3   OH224526   7.822   0.925   6.212
 8194TIP3    H124527   7.908   0.966   6.207
 8194TIP3    H224528   7.764   0.984   6.164
 8195TIP3   OH224529   3.328   0.783   1.805
 8195TIP3    H124530   3.340   0.695   1.840
 8195TIP3    H224531   3.387   0.788   1.730
 8196TIP3   OH224532   1.054   7.781   1.045
 8196TIP3    H124533   1.020   7.723   0.976
 8196TIP3    H224534   0.979   7.836   1.069
 8197TIP3   OH224535   5.438   3.677   2.179
 8197TIP3    H124536   5.381   3.656   2.253
 8197TIP3    H224537   5.378   3.697   2.107
 8198TIP3   OH224538   6.586   7.172   2.582
 8198TIP3    H124539   6.538   7.197   2.661
 8198TIP3    H224540   6.658   7.118   2.613
 8199TIP3   OH224541   7.161   1.853   5.038
 8199TIP3    H124542   7.112   1.890   4.964
 8199TIP3    H224543   7.203   1.928   5.080
 8200TIP3   OH224544   0.687   1.973   3.274
 8200TIP3    H124545   0.763   2.030   3.281
 8200TIP3    H224546   0.717   1.888   3.307
 8201TIP3   OH224547   3.860   1.779   5.987
 8201TIP3    H124548   3.862   1.690   6.021
 8201TIP3    H224549   3.813   1.773   5.904
 8202TIP3   OH224550   0.572   1.923   5.549
 8202TIP3    H124551   0.553   1.902   5.457
 8202TIP3    H224552   0.655   1.971   5.545
 8203TIP3   OH224553   4.768   1.459   2.734
 8203TIP3    H124554   4.771   1.365   2.715
 8203TIP3    H224555   4.771   1.465   2.829
 8204TIP3   OH224556   1.850   5.344   0.608
 8204TIP3    H124557   1.788   5.330   0.536
 8204TIP3    H224558   1.798   5.329   0.687
 8205TIP3   OH224559   0.910   3.868   5.505
 8205TIP3    H124560   0.947   3.780   5.500
 8205TIP3    H224561   0.938   3.901   5.590
 8206TIP3   OH224562   7.350   5.968   3.831
 8206TIP3    H124563   7.385   5.912   3.901
 8206TIP3    H224564   7.257   5.975   3.851
 8207TIP3   OH224565   2.517   5.652   5.191
 8207TIP3    H124566   2.497   5.671   5.100
 8207TIP3    H224567   2.436   5.670   5.238
 8208TIP3   OH224568   0.056   5.612   0.543
 8208TIP3    H124569  -0.014   5.556   0.510
 8208TIP3    H224570   0.099   5.647   0.465
 8209TIP3   OH224571   0.664   2.801   5.446
 8209TIP3    H124572   0.591   2.812   5.384
 8209TIP3    H224573   0.623   2.808   5.532
 8210TIP3   OH224574   3.074   7.070   2.119
 8210TIP3    H124575   3.082   7.059   2.214
 8210TIP3    H224576   3.072   6.981   2.084
 8211TIP3   OH224577   4.525   3.390   1.737
 8211TIP3    H124578   4.603   3.443   1.719
 8211TIP3    H224579   4.559   3.308   1.772
 8212TIP3   OH224580   0.257   0.373   6.256
 8212TIP3    H124581   0.178   0.418   6.285
 8212TIP3    H224582   0.298   0.434   6.195
 8213TIP3   OH224583   0.392   7.122   1.793
 8213TIP3    H124584   0.461   7.134   1.728
 8213TIP3    H224585   0.314   7.161   1.753
 8214TIP3   OH224586   7.358   6.550  -0.007
 8214TIP3    H124587   7.337   6.621   0.054
 8214TIP3    H224588   7.452   6.537   0.002
 8215TIP3   OH224589   1.417   2.726   1.098
 8215TIP3    H124590   1.348   2.671   1.135
 8215TIP3    H224591   1.421   2.702   1.005
 8216TIP3   OH224592   6.140   6.113   6.249
 8216TIP3    H124593   6.191   6.154   6.180
 8216TIP3    H224594   6.092   6.043   6.204
 8217TIP3   OH224595   3.911   3.607   4.470
 8217TIP3    H124596   3.930   3.661   4.393
 8217TIP3    H224597   3.961   3.526   4.455
 8218TIP3   OH224598   5.955   1.612   6.580
 8218TIP3    H124599   5.862   1.633   6.572
 8218TIP3    H224600   5.956   1.520   6.607
 8219TIP3   OH224601   2.978   7.780   0.681
 8219TIP3    H124602   3.017   7.816   0.602
 8219TIP3    H224603   2.919   7.849   0.713
 8220TIP3   OH224604   0.568   7.185   4.483
 8220TIP3    H124605   0.498   7.188   4.418
 8220TIP3    H224606   0.523   7.170   4.566
 8221TIP3   OH224607   1.246   4.322   6.505
 8221TIP3    H124608   1.271   4.257   6.439
 8221TIP3    H224609   1.256   4.276   6.589
 8222TIP3   OH224610   4.636   6.198   5.419
 8222TIP3    H124611   4.574   6.222   5.351
 8222TIP3    H224612   4.583   6.158   5.488
 8223TIP3   OH224613   3.380   6.518   4.264
 8223TIP3    H124614   3.421   6.593   4.306
 8223TIP3    H224615   3.335   6.554   4.187
 8224TIP3   OH224616   7.577   5.224   1.627
 8224TIP3    H124617   7.497   5.199   1.673
 8224TIP3    H224618   7.647   5.208   1.691
 8225TIP3   OH224619   7.806   6.997   4.478
 8225TIP3    H124620   7.767   7.083   4.461
 8225TIP3    H224621   7.866   6.983   4.405
 8226TIP3   OH224622   6.733   6.946   0.703
 8226TIP3    H124623   6.744   7.041   0.701
 8226TIP3    H224624   6.711   6.926   0.794
 8227TIP3   OH224625   5.870   0.745   0.561
 8227TIP3    H124626   5.855   0.750   0.466
 8227TIP3    H224627   5.788   0.711   0.596
 8228TIP3   OH224628   2.142   7.727   0.157
 8228TIP3    H124629   2.065   7.688   0.199
 8228TIP3    H224630   2.124   7.722   0.063
 8229TIP3   OH224631   6.902   1.297   6.326
 8229TIP3    H124632   6.938   1.214   6.293
 8229TIP3    H224633   6.973   1.333   6.380
 8230TIP3   OH224634   0.116   3.807   0.900
 8230TIP3    H124635   0.062   3.886   0.901
 8230TIP3    H224636   0.163   3.811   0.817
 8231TIP3   OH224637   2.671   0.300   2.453
 8231TIP3    H124638   2.749   0.256   2.419
 8231TIP3    H224639   2.609   0.299   2.380
 8232TIP3   OH224640   4.301   6.306   5.390
 8232TIP3    H124641   4.368   6.328   5.455
 8232TIP3    H224642   4.350   6.294   5.309
 8233TIP3   OH224643   0.285   7.291   4.101
 8233TIP3    H124644   0.334   7.319   4.178
 8233TIP3    H224645   0.322   7.205   4.078
 8234TIP3   OH224646   6.670   7.414   1.121
 8234TIP3    H124647   6.726   7.490   1.104
 8234TIP3    H224648   6.612   7.409   1.044
 8235TIP3   OH224649   2.244   1.002   1.396
 8235TIP3    H124650   2.317   0.973   1.341
 8235TIP3    H224651   2.243   0.941   1.469
 8236TIP3   OH224652   3.296   1.634   0.931
 8236TIP3    H124653   3.201   1.625   0.930
 8236TIP3    H224654   3.318   1.643   1.024
 8237TIP3   OH224655   6.998   5.665   0.686
 8237TIP3    H124656   6.955   5.722   0.749
 8237TIP3    H224657   6.983   5.577   0.719
 8238TIP3   OH224658   5.441   0.073   2.933
 8238TIP3    H124659   5.517   0.089   2.989
 8238TIP3    H224660   5.423  -0.020   2.943
 8239TIP3   OH224661   3.159   3.133   0.121
 8239TIP3    H124662   3.228   3.100   0.179
 8239TIP3    H224663   3.168   3.081   0.041
 8240TIP3   OH224664   6.697   1.700   3.644
 8240TIP3    H124665   6.785   1.737   3.636
 8240TIP3    H224666   6.641   1.775   3.662
 8241TIP3   OH224667   4.531   2.650   6.485
 8241TIP3    H124668   4.577   2.575   6.523
 8241TIP3    H224669   4.466   2.611   6.426
 8242TIP3   OH224670   6.188   2.121   5.379
 8242TIP3    H124671   6.150   2.039   5.409
 8242TIP3    H224672   6.261   2.095   5.324
 8243TIP3   OH224673   6.501   0.918   2.032
 8243TIP3    H124674   6.480   0.989   2.093
 8243TIP3    H224675   6.592   0.896   2.051
 8244TIP3   OH224676   2.372   7.748   2.806
 8244TIP3    H124677   2.319   7.798   2.869
 8244TIP3    H224678   2.371   7.803   2.727
 8245TIP3   OH224679   1.538   2.560   0.307
 8245TIP3    H124680   1.461   2.527   0.354
 8245TIP3    H224681   1.560   2.490   0.246
 8246TIP3   OH224682   3.793   6.293   1.139
 8246TIP3    H124683   3.807   6.388   1.142
 8246TIP3    H224684   3.708   6.280   1.182
 8247TIP3   OH224685   0.877   6.545   2.868
 8247TIP3    H124686   0.876   6.621   2.927
 8247TIP3    H224687   0.786   6.514   2.867
 8248TIP3   OH224688   0.733   4.817   4.090
 8248TIP3    H124689   0.710   4.909   4.077
 8248TIP3    H224690   0.827   4.818   4.110
 8249TIP3   OH224691   3.051   7.609   3.946
 8249TIP3    H124692   3.067   7.515   3.938
 8249TIP3    H224693   3.125   7.650   3.899
 8250TIP3   OH224694   6.456   4.158   5.645
 8250TIP3    H124695   6.417   4.240   5.675
 8250TIP3    H224696   6.499   4.122   5.722
 8251TIP3   OH224697   5.993   2.412   4.816
 8251TIP3    H124698   6.020   2.500   4.790
 8251TIP3    H224699   6.051   2.389   4.889
 8252TIP3   OH224700   1.968   0.558   2.163
 8252TIP3    H124701   1.953   0.475   2.209
 8252TIP3    H224702   1.880   0.590   2.142
 8253TIP3   OH224703   7.136   2.190   5.939
 8253TIP3    H124704   7.231   2.200   5.938
 8253TIP3    H224705   7.102   2.277   5.920
 8254TIP3   OH224706   2.255   3.693   3.098
 8254TIP3    H124707   2.279   3.609   3.137
 8254TIP3    H224708   2.169   3.678   3.060
 8255TIP3   OH224709   7.148   5.487   5.579
 8255TIP3    H124710   7.242   5.502   5.577
 8255TIP3    H224711   7.120   5.497   5.488
 8256TIP3   OH224712   0.254   4.589   1.516
 8256TIP3    H124713   0.271   4.629   1.431
 8256TIP3    H224714   0.168   4.549   1.507
 8257TIP3   OH224715   3.049   1.097   4.817
 8257TIP3    H124716   3.096   1.177   4.792
 8257TIP3    H224717   3.064   1.036   4.745
 8258TIP3   OH224718   1.867   5.804   3.490
 8258TIP3    H124719   1.875   5.806   3.395
 8258TIP3    H224720   1.902   5.889   3.519
 8259TIP3   OH224721   1.657   6.391   1.816
 8259TIP3    H124722   1.594   6.420   1.750
 8259TIP3    H224723   1.730   6.452   1.809
 8260TIP3   OH224724   6.955   1.495   4.275
 8260TIP3    H124725   6.899   1.438   4.222
 8260TIP3    H224726   7.024   1.523   4.215
 8261TIP3   OH224727   3.978   4.850   2.163
 8261TIP3    H124728   3.916   4.794   2.117
 8261TIP3    H224729   4.064   4.811   2.145
 8262TIP3   OH224730   3.076   0.914   4.598
 8262TIP3    H124731   3.062   0.825   4.631
 8262TIP3    H224732   3.103   0.902   4.507
 8263TIP3   OH224733   0.160   2.308   0.169
 8263TIP3    H124734   0.199   2.232   0.126
 8263TIP3    H224735   0.108   2.270   0.240
 8264TIP3   OH224736   7.403   1.068   3.459
 8264TIP3    H124737   7.319   1.029   3.435
 8264TIP3    H224738   7.454   0.995   3.496
 8265TIP3   OH224739   3.291   4.690   0.976
 8265TIP3    H124740   3.352   4.640   0.922
 8265TIP3    H224741   3.208   4.643   0.968
 8266TIP3   OH224742   3.402   5.084   4.099
 8266TIP3    H124743   3.392   5.158   4.039
 8266TIP3    H224744   3.382   5.120   4.185
 8267TIP3   OH224745   2.451   1.037   5.854
 8267TIP3    H124746   2.498   1.023   5.772
 8267TIP3    H224747   2.403   1.119   5.841
 8268TIP3   OH224748   6.874   7.545   1.394
 8268TIP3    H124749   6.897   7.585   1.478
 8268TIP3    H224750   6.788   7.582   1.373
 8269TIP3   OH224751   6.203   0.922   6.617
 8269TIP3    H124752   6.135   0.855   6.627
 8269TIP3    H224753   6.243   0.903   6.532
 8270TIP3   OH224754   1.399   6.245   3.899
 8270TIP3    H124755   1.459   6.311   3.933
 8270TIP3    H224756   1.442   6.212   3.819
 8271TIP3   OH224757   3.536   3.491   3.905
 8271TIP3    H124758   3.560   3.430   3.835
 8271TIP3    H224759   3.589   3.463   3.980
 8272TIP3   OH224760   2.292   2.509   5.121
 8272TIP3    H124761   2.298   2.483   5.213
 8272TIP3    H224762   2.339   2.592   5.116
 8273TIP3   OH224763   1.976   2.615   4.220
 8273TIP3    H124764   1.883   2.638   4.224
 8273TIP3    H224765   2.020   2.683   4.270
 8274TIP3   OH224766   2.975   6.238   5.121
 8274TIP3    H124767   2.985   6.311   5.181
 8274TIP3    H224768   2.942   6.277   5.041
 8275TIP3   OH224769   7.084   0.563   1.018
 8275TIP3    H124770   7.093   0.472   0.989
 8275TIP3    H224771   7.134   0.567   1.099
 8276TIP3   OH224772   5.794   1.961   5.800
 8276TIP3    H124773   5.766   1.871   5.816
 8276TIP3    H224774   5.728   2.015   5.843
 8277TIP3   OH224775   5.480   5.782   0.562
 8277TIP3    H124776   5.496   5.695   0.598
 8277TIP3    H224777   5.389   5.800   0.584
 8278TIP3   OH224778   1.456   5.228   5.135
 8278TIP3    H124779   1.411   5.240   5.218
 8278TIP3    H224780   1.386   5.206   5.073
 8279TIP3   OH224781   2.016   0.770   6.527
 8279TIP3    H124782   1.925   0.775   6.499
 8279TIP3    H224783   2.027   0.844   6.587
 8280TIP3   OH224784   0.017   4.944   4.656
 8280TIP3    H124785  -0.011   4.982   4.740
 8280TIP3    H224786   0.060   5.017   4.611
 8281TIP3   OH224787   7.426   2.281   0.604
 8281TIP3    H124788   7.505   2.245   0.565
 8281TIP3    H224789   7.402   2.355   0.547
 8282TIP3   OH224790   4.395   4.206   6.206
 8282TIP3    H124791   4.317   4.158   6.177
 8282TIP3    H224792   4.362   4.269   6.270
 8283TIP3   OH224793   6.041   7.859   6.635
 8283TIP3    H124794   6.048   7.772   6.596
 8283TIP3    H224795   6.006   7.914   6.566
 8284TIP3   OH224796   1.429   4.899   4.441
 8284TIP3    H124797   1.339   4.869   4.458
 8284TIP3    H224798   1.474   4.822   4.408
 8285TIP3   OH224799   7.282   6.024   0.412
 8285TIP3    H124800   7.270   5.929   0.409
 8285TIP3    H224801   7.235   6.056   0.335
 8286TIP3   OH224802   7.859   0.317   1.114
 8286TIP3    H124803   7.826   0.387   1.170
 8286TIP3    H224804   7.949   0.342   1.094
 8287TIP3   OH224805   7.586   2.173   4.384
 8287TIP3    H124806   7.550   2.259   4.407
 8287TIP3    H224807   7.514   2.112   4.400
 8288TIP3   OH224808   2.242   1.394   6.123
 8288TIP3    H124809   2.275   1.315   6.166
 8288TIP3    H224810   2.163   1.416   6.172
 8289TIP3   OH224811   3.289   2.017   5.444
 8289TIP3    H124812   3.260   1.926   5.453
 8289TIP3    H224813   3.350   2.030   5.518
 8290TIP3   OH224814   1.736   6.598   2.305
 8290TIP3    H124815   1.823   6.615   2.269
 8290TIP3    H224816   1.741   6.631   2.395
 8291TIP3   OH224817   6.255   4.914   2.125
 8291TIP3    H124818   6.209   4.987   2.083
 8291TIP3    H224819   6.344   4.947   2.138
 8292TIP3   OH224820   2.259   7.498   2.897
 8292TIP3    H124821   2.305   7.552   2.833
 8292TIP3    H224822   2.168   7.527   2.892
 8293TIP3   OH224823   2.001   5.481   1.922
 8293TIP3    H124824   2.035   5.495   1.834
 8293TIP3    H224825   2.041   5.398   1.950
 8294TIP3   OH224826   7.314   7.515   6.531
 8294TIP3    H124827   7.394   7.524   6.583
 8294TIP3    H224828   7.314   7.423   6.505
 8295TIP3   OH224829   7.829   4.225   3.792
 8295TIP3    H124830   7.796   4.155   3.736
 8295TIP3    H224831   7.763   4.294   3.787
 8296TIP3   OH224832   0.561   3.390   2.375
 8296TIP3    H124833   0.504   3.323   2.415
 8296TIP3    H224834   0.648   3.350   2.376
 8297TIP3   OH224835   3.774   5.161   3.765
 8297TIP3    H124836   3.813   5.145   3.679
 8297TIP3    H224837   3.797   5.084   3.817
 8298TIP3   OH224838   2.527   4.748   6.043
 8298TIP3    H124839   2.556   4.724   6.131
 8298TIP3    H224840   2.432   4.757   6.050
 8299TIP3   OH224841   1.326   6.938   0.677
 8299TIP3    H124842   1.354   6.873   0.613
 8299TIP3    H224843   1.369   6.912   0.758
 8300TIP3   OH224844   4.893   2.783   6.505
 8300TIP3    H124845   4.833   2.774   6.579
 8300TIP3    H224846   4.871   2.868   6.467
 8301TIP3   OH224847   2.410   2.226   6.067
 8301TIP3    H124848   2.449   2.245   5.981
 8301TIP3    H224849   2.415   2.131   6.076
 8302TIP3   OH224850   5.166   5.346   5.607
 8302TIP3    H124851   5.222   5.317   5.535
 8302TIP3    H224852   5.138   5.433   5.581
 8303TIP3   OH224853  -0.010   5.702   6.194
 8303TIP3    H124854   0.055   5.725   6.261
 8303TIP3    H224855  -0.013   5.606   6.196
 8304TIP3   OH224856   5.971   0.919   2.356
 8304TIP3    H124857   5.988   0.833   2.317
 8304TIP3    H224858   6.029   0.979   2.309
 8305TIP3   OH224859   1.741   5.462   5.872
 8305TIP3    H124860   1.658   5.430   5.907
 8305TIP3    H224861   1.716   5.534   5.814
 8306TIP3   OH224862   2.463   4.597   2.100
 8306TIP3    H124863   2.386   4.649   2.075
 8306TIP3    H224864   2.454   4.584   2.194
 8307TIP3   OH224865   6.678   1.822   6.506
 8307TIP3    H124866   6.703   1.789   6.592
 8307TIP3    H224867   6.584   1.840   6.513
 8308TIP3   OH224868   6.469   1.994   0.931
 8308TIP3    H124869   6.385   1.951   0.913
 8308TIP3    H224870   6.480   2.056   0.858
 8309TIP3   OH224871   6.804   0.212   4.431
 8309TIP3    H124872   6.772   0.301   4.448
 8309TIP3    H224873   6.798   0.168   4.516
 8310TIP3   OH224874   3.992   7.493   5.267
 8310TIP3    H124875   4.073   7.540   5.249
 8310TIP3    H224876   4.002   7.459   5.356
 8311TIP3   OH224877   6.822   6.306   2.561
 8311TIP3    H124878   6.858   6.389   2.593
 8311TIP3    H224879   6.873   6.287   2.482
 8312TIP3   OH224880   0.101   1.077   2.280
 8312TIP3    H124881   0.148   1.005   2.239
 8312TIP3    H224882   0.021   1.037   2.316
 8313TIP3   OH224883   5.979   5.097   0.656
 8313TIP3    H124884   6.022   5.175   0.623
 8313TIP3    H224885   6.031   5.024   0.622
 8314TIP3   OH224886   7.108   3.256   3.106
 8314TIP3    H124887   7.110   3.260   3.010
 8314TIP3    H224888   7.015   3.250   3.128
 8315TIP3   OH224889   5.507   3.073   4.631
 8315TIP3    H124890   5.493   3.005   4.566
 8315TIP3    H224891   5.596   3.058   4.663
 8316TIP3   OH224892   5.560   5.209   2.123
 8316TIP3    H124893   5.494   5.269   2.157
 8316TIP3    H224894   5.584   5.155   2.198
 8317TIP3   OH224895   4.022   0.092   0.705
 8317TIP3    H124896   4.042   0.018   0.763
 8317TIP3    H224897   3.955   0.142   0.752
 8318TIP3   OH224898   1.923   1.715   4.861
 8318TIP3    H124899   1.855   1.739   4.925
 8318TIP3    H224900   1.918   1.783   4.794
 8319TIP3   OH224901   1.183   7.789   6.753
 8319TIP3    H124902   1.275   7.795   6.778
 8319TIP3    H224903   1.175   7.703   6.713
 8320TIP3   OH224904   0.335   7.657   4.655
 8320TIP3    H124905   0.398   7.585   4.658
 8320TIP3    H224906   0.249   7.615   4.656
 8321TIP3   OH224907   5.416   7.447   4.703
 8321TIP3    H124908   5.382   7.411   4.785
 8321TIP3    H224909   5.510   7.428   4.705
 8322TIP3   OH224910   2.826   4.853   4.096
 8322TIP3    H124911   2.872   4.826   4.016
 8322TIP3    H224912   2.735   4.865   4.069
 8323TIP3   OH224913   4.889   1.847   6.693
 8323TIP3    H124914   4.929   1.884   6.615
 8323TIP3    H224915   4.898   1.915   6.760
 8324TIP3   OH224916   0.094   1.924   4.242
 8324TIP3    H124917   0.135   1.844   4.274
 8324TIP3    H224918   0.141   1.945   4.161
 8325TIP3   OH224919   2.505   0.073   4.685
 8325TIP3    H124920   2.514   0.052   4.592
 8325TIP3    H224921   2.477   0.164   4.687
 8326TIP3   OH224922   7.692   7.307   3.963
 8326TIP3    H124923   7.716   7.215   3.947
 8326TIP3    H224924   7.634   7.329   3.890
 8327TIP3   OH224925   1.032   4.874   5.318
 8327TIP3    H124926   1.022   4.953   5.266
 8327TIP3    H224927   0.944   4.835   5.319
 8328TIP3   OH224928   7.640   2.631   6.744
 8328TIP3    H124929   7.590   2.558   6.782
 8328TIP3    H224930   7.726   2.593   6.725
 8329TIP3   OH224931   6.113   3.381   0.891
 8329TIP3    H124932   6.125   3.442   0.819
 8329TIP3    H224933   6.201   3.350   0.912
 8330TIP3   OH224934   2.003   2.780   5.027
 8330TIP3    H124935   1.997   2.852   4.963
 8330TIP3    H224936   2.001   2.701   4.974
 8331TIP3   OH224937   6.638   6.926   1.428
 8331TIP3    H124938   6.658   6.943   1.521
 8331TIP3    H224939   6.563   6.982   1.410
 8332TIP3   OH224940   0.346   1.775   1.029
 8332TIP3    H124941   0.388   1.814   1.105
 8332TIP3    H224942   0.380   1.824   0.955
 8333TIP3   OH224943   5.884   6.279   3.772
 8333TIP3    H124944   5.863   6.357   3.824
 8333TIP3    H224945   5.800   6.246   3.742
 8334TIP3   OH224946   5.414   7.498   4.296
 8334TIP3    H124947   5.367   7.425   4.338
 8334TIP3    H224948   5.346   7.545   4.248
 8335TIP3   OH224949   7.203   5.523   2.469
 8335TIP3    H124950   7.280   5.470   2.450
 8335TIP3    H224951   7.175   5.557   2.384
 8336TIP3   OH224952   4.004   5.666   6.194
 8336TIP3    H124953   4.012   5.589   6.251
 8336TIP3    H224954   4.027   5.633   6.107
 8337TIP3   OH224955   3.799   4.160   5.676
 8337TIP3    H124956   3.727   4.169   5.739
 8337TIP3    H224957   3.878   4.166   5.729
 8338TIP3   OH224958   6.365   7.122   6.740
 8338TIP3    H124959   6.400   7.033   6.732
 8338TIP3    H224960   6.310   7.119   6.817
 8339TIP3   OH224961   6.217   1.997   6.324
 8339TIP3    H124962   6.190   1.909   6.348
 8339TIP3    H224963   6.280   1.984   6.253
 8340TIP3   OH224964   6.311   3.773   6.515
 8340TIP3    H124965   6.234   3.780   6.458
 8340TIP3    H224966   6.385   3.793   6.458
 8341TIP3   OH224967   5.724   2.518   5.162
 8341TIP3    H124968   5.732   2.424   5.177
 8341TIP3    H224969   5.751   2.558   5.246
 8342TIP3   OH224970   1.423   5.926   3.824
 8342TIP3    H124971   1.451   5.957   3.910
 8342TIP3    H224972   1.495   5.869   3.794
 8343TIP3   OH224973   0.236   0.032   0.132
 8343TIP3    H124974   0.266   0.123   0.136
 8343TIP3    H224975   0.253   0.006   0.042
 8344TIP3   OH224976   6.624   2.710   2.823
 8344TIP3    H124977   6.623   2.618   2.847
 8344TIP3    H224978   6.686   2.750   2.884
 8345TIP3   OH224979   0.922   6.378   0.058
 8345TIP3    H124980   0.965   6.395   0.142
 8345TIP3    H224981   0.992   6.387  -0.007
 8346TIP3   OH224982   4.741   6.099   4.392
 8346TIP3    H124983   4.654   6.137   4.400
 8346TIP3    H224984   4.761   6.106   4.299
 8347TIP3   OH224985   2.670   1.109   1.249
 8347TIP3    H124986   2.733   1.131   1.317
 8347TIP3    H224987   2.653   1.015   1.260
 8348TIP3   OH224988   4.281   0.492   6.719
 8348TIP3    H124989   4.338   0.433   6.670
 8348TIP3    H224990   4.261   0.444   6.799
 8349TIP3   OH224991   3.012   3.163   2.960
 8349TIP3    H124992   3.016   3.115   2.876
 8349TIP3    H224993   2.980   3.098   3.022
 8350TIP3   OH224994   3.669   0.567   6.670
 8350TIP3    H124995   3.711   0.542   6.588
 8350TIP3    H224996   3.578   0.585   6.645
 8351TIP3   OH224997   1.272   4.172   2.180
 8351TIP3    H124998   1.328   4.247   2.204
 8351TIP3    H224999   1.331   4.097   2.180
 8352TIP3   OH225000   5.804   5.439   0.944
 8352TIP3    H125001   5.713   5.445   0.973
 8352TIP3    H225002   5.831   5.530   0.929
 8353TIP3   OH225003   0.590   7.065   4.182
 8353TIP3    H125004   0.582   7.011   4.261
 8353TIP3    H225005   0.581   7.003   4.109
 8354TIP3   OH225006   7.009   5.342   1.062
 8354TIP3    H125007   7.077   5.360   0.998
 8354TIP3    H225008   6.968   5.428   1.078
 8355TIP3   OH225009   1.532   2.318   0.478
 8355TIP3    H125010   1.513   2.255   0.408
 8355TIP3    H225011   1.457   2.376   0.479
 8356TIP3   OH225012   2.639   1.745   2.139
 8356TIP3    H125013   2.640   1.742   2.235
 8356TIP3    H225014   2.720   1.700   2.113
 8357TIP3   OH225015   5.002   5.628   0.841
 8357TIP3    H125016   5.008   5.723   0.827
 8357TIP3    H225017   5.093   5.601   0.857
 8358TIP3   OH225018   3.158   6.656   0.513
 8358TIP3    H125019   3.242   6.673   0.469
 8358TIP3    H225020   3.095   6.712   0.467
 8359TIP3   OH225021   8.225   2.468   0.632
 8359TIP3    H125022   8.217   2.470   0.537
 8359TIP3    H225023   8.273   2.547   0.654
 8360TIP3   OH225024   1.766   3.240   1.579
 8360TIP3    H125025   1.804   3.185   1.648
 8360TIP3    H225026   1.826   3.231   1.505
 8361TIP3   OH225027   5.116   6.219   3.666
 8361TIP3    H125028   5.176   6.279   3.622
 8361TIP3    H225029   5.154   6.206   3.753
 8362TIP3   OH225030   1.671   4.631   6.223
 8362TIP3    H125031   1.619   4.565   6.268
 8362TIP3    H225032   1.664   4.709   6.279
 8363TIP3   OH225033   6.075   2.512   3.761
 8363TIP3    H125034   6.030   2.472   3.687
 8363TIP3    H225035   6.079   2.442   3.827
 8364TIP3   OH225036   6.847   3.937   3.581
 8364TIP3    H125037   6.865   4.028   3.601
 8364TIP3    H225038   6.900   3.887   3.643
 8365TIP3   OH225039   3.877   1.136   2.828
 8365TIP3    H125040   3.874   1.081   2.749
 8365TIP3    H225041   3.970   1.149   2.844
 8366TIP3   OH225042   1.801   4.388   2.821
 8366TIP3    H125043   1.794   4.471   2.868
 8366TIP3    H225044   1.835   4.412   2.735
 8367TIP3   OH225045   3.493   0.619   6.433
 8367TIP3    H125046   3.588   0.619   6.422
 8367TIP3    H225047   3.469   0.711   6.436
 8368TIP3   OH225048   5.970   2.137   6.485
 8368TIP3    H125049   6.021   2.119   6.406
 8368TIP3    H225050   6.035   2.137   6.556
 8369TIP3   OH225051   7.079   6.818   0.702
 8369TIP3    H125052   7.054   6.741   0.754
 8369TIP3    H225053   7.078   6.890   0.765
 8370TIP3   OH225054   2.009   2.056   2.284
 8370TIP3    H125055   2.072   2.012   2.340
 8370TIP3    H225056   1.987   2.137   2.330
 8371TIP3   OH225057   2.435   4.425   4.185
 8371TIP3    H125058   2.470   4.491   4.125
 8371TIP3    H225059   2.346   4.408   4.153
 8372TIP3   OH225060   3.302   3.783   4.653
 8372TIP3    H125061   3.231   3.834   4.613
 8372TIP3    H225062   3.315   3.710   4.592
 8373TIP3   OH225063   6.971   5.031   5.944
 8373TIP3    H125064   6.934   4.945   5.965
 8373TIP3    H225065   7.043   5.042   6.007
 8374TIP3   OH225066   7.576   3.476   6.210
 8374TIP3    H125067   7.583   3.560   6.256
 8374TIP3    H225068   7.664   3.438   6.215
 8375TIP3   OH225069   7.078   6.532   6.095
 8375TIP3    H125070   7.055   6.451   6.139
 8375TIP3    H225071   7.055   6.517   6.003
 8376TIP3   OH225072   0.029   0.877   0.443
 8376TIP3    H125073   0.093   0.813   0.412
 8376TIP3    H225074  -0.055   0.832   0.433
 8377TIP3   OH225075   3.995   4.812   0.046
 8377TIP3    H125076   4.088   4.821   0.066
 8377TIP3    H225077   3.980   4.717   0.045
 8378TIP3   OH225078   2.913   1.253   1.762
 8378TIP3    H125079   2.948   1.331   1.804
 8378TIP3    H225080   2.879   1.284   1.678
 8379TIP3   OH225081   4.162   2.339   4.654
 8379TIP3    H125082   4.187   2.274   4.720
 8379TIP3    H225083   4.198   2.305   4.572
 8380TIP3   OH225084   2.124   5.521   6.080
 8380TIP3    H125085   2.104   5.527   6.173
 8380TIP3    H225086   2.136   5.427   6.065
 8381TIP3   OH225087   4.659   2.065   6.342
 8381TIP3    H125088   4.710   2.023   6.272
 8381TIP3    H225089   4.617   2.139   6.299
 8382TIP3   OH225090   7.822   7.446   4.935
 8382TIP3    H125091   7.860   7.410   4.855
 8382TIP3    H225092   7.813   7.540   4.917
 8383TIP3   OH225093   4.925   0.807   4.991
 8383TIP3    H125094   4.996   0.869   5.007
 8383TIP3    H225095   4.900   0.821   4.900
 8384TIP3   OH225096   2.073   6.829   2.511
 8384TIP3    H125097   2.137   6.881   2.558
 8384TIP3    H225098   2.123   6.758   2.472
 8385TIP3   OH225099   1.242   2.965   3.302
 8385TIP3    H125100   1.167   2.914   3.334
 8385TIP3    H225101   1.311   2.949   3.367
 8386TIP3   OH225102   0.391   7.692   5.559
 8386TIP3    H125103   0.376   7.601   5.534
 8386TIP3    H225104   0.446   7.686   5.638
 8387TIP3   OH225105   4.023   2.483   1.122
 8387TIP3    H125106   4.005   2.493   1.215
 8387TIP3    H225107   4.054   2.570   1.094
 8388TIP3   OH225108   2.505   2.831   0.848
 8388TIP3    H125109   2.453   2.777   0.788
 8388TIP3    H225110   2.550   2.893   0.791
 8389TIP3   OH225111   7.059   3.547   1.205
 8389TIP3    H125112   7.082   3.610   1.137
 8389TIP3    H225113   6.965   3.563   1.221
 8390TIP3   OH225114   0.560   5.252   4.584
 8390TIP3    H125115   0.612   5.171   4.583
 8390TIP3    H225116   0.590   5.299   4.662
 8391TIP3   OH225117   2.841   4.380   5.863
 8391TIP3    H125118   2.837   4.475   5.866
 8391TIP3    H225119   2.801   4.357   5.779
 8392TIP3   OH225120   1.168   3.698   4.686
 8392TIP3    H125121   1.139   3.772   4.739
 8392TIP3    H225122   1.092   3.675   4.632
 8393TIP3   OH225123   3.327   0.605   0.527
 8393TIP3    H125124   3.335   0.511   0.515
 8393TIP3    H225125   3.303   0.638   0.441
 8394TIP3   OH225126   0.527   7.801   3.175
 8394TIP3    H125127   0.533   7.745   3.252
 8394TIP3    H225128   0.466   7.870   3.200
 8395TIP3   OH225129   5.995   6.920   4.126
 8395TIP3    H125130   6.079   6.874   4.121
 8395TIP3    H225131   5.935   6.855   4.161
 8396TIP3   OH225132   1.370   0.065   2.534
 8396TIP3    H125133   1.417   0.114   2.602
 8396TIP3    H225134   1.338  -0.013   2.578
 8397TIP3   OH225135   1.385   6.521   3.153
 8397TIP3    H125136   1.452   6.551   3.091
 8397TIP3    H225137   1.357   6.601   3.198
 8398TIP3   OH225138   3.988   1.465   1.557
 8398TIP3    H125139   3.902   1.503   1.570
 8398TIP3    H225140   3.971   1.379   1.520
 8399TIP3   OH225141   4.259   3.202   2.519
 8399TIP3    H125142   4.219   3.289   2.520
 8399TIP3    H225143   4.231   3.163   2.436
 8400TIP3   OH225144   3.894   5.104   4.138
 8400TIP3    H125145   3.933   5.070   4.219
 8400TIP3    H225146   3.801   5.087   4.148
 8401TIP3   OH225147   4.126   4.864   5.632
 8401TIP3    H125148   4.097   4.848   5.722
 8401TIP3    H225149   4.082   4.796   5.581
 8402TIP3   OH225150   0.796   4.735   4.811
 8402TIP3    H125151   0.713   4.782   4.819
 8402TIP3    H225152   0.771   4.642   4.812
 8403TIP3   OH225153   2.065   4.410   6.371
 8403TIP3    H125154   2.011   4.397   6.293
 8403TIP3    H225155   2.050   4.502   6.395
 8404TIP3   OH225156   3.504   2.357   3.703
 8404TIP3    H125157   3.527   2.393   3.789
 8404TIP3    H225158   3.544   2.270   3.702
 8405TIP3   OH225159   0.789   3.180   3.693
 8405TIP3    H125160   0.711   3.230   3.667
 8405TIP3    H225161   0.842   3.177   3.613
 8406TIP3   OH225162   8.192   0.566   3.231
 8406TIP3    H125163   8.162   0.535   3.146
 8406TIP3    H225164   8.223   0.655   3.215
 8407TIP3   OH225165   3.912   1.935   3.285
 8407TIP3    H125166   3.908   1.840   3.294
 8407TIP3    H225167   3.921   1.949   3.191
 8408TIP3   OH225168   0.977   3.455   4.969
 8408TIP3    H125169   0.960   3.534   4.918
 8408TIP3    H225170   0.913   3.460   5.041
 8409TIP3   OH225171   1.646   2.311   2.060
 8409TIP3    H125172   1.591   2.388   2.072
 8409TIP3    H225173   1.717   2.322   2.124
 8410TIP3   OH225174   7.548   3.578   1.884
 8410TIP3    H125175   7.564   3.661   1.929
 8410TIP3    H225176   7.453   3.576   1.871
 8411TIP3   OH225177   4.605   5.670   0.189
 8411TIP3    H125178   4.590   5.627   0.273
 8411TIP3    H225179   4.533   5.641   0.133
 8412TIP3   OH225180   2.134   0.369   4.961
 8412TIP3    H125181   2.200   0.431   4.991
 8412TIP3    H225182   2.054   0.394   5.008
 8413TIP3   OH225183   7.227   2.900   5.290
 8413TIP3    H125184   7.246   2.991   5.315
 8413TIP3    H225185   7.139   2.904   5.252
 8414TIP3   OH225186   5.742   5.744   3.609
 8414TIP3    H125187   5.660   5.794   3.614
 8414TIP3    H225188   5.718   5.657   3.640
 8415TIP3   OH225189   3.746   4.565   3.231
 8415TIP3    H125190   3.718   4.506   3.302
 8415TIP3    H225191   3.670   4.571   3.174
 8416TIP3   OH225192   6.419   2.951   3.265
 8416TIP3    H125193   6.330   2.944   3.299
 8416TIP3    H225194   6.475   2.924   3.337
 8417TIP3   OH225195   2.647   1.608   3.435
 8417TIP3    H125196   2.713   1.541   3.415
 8417TIP3    H225197   2.695   1.674   3.485
 8418TIP3   OH225198   1.440   7.292   5.208
 8418TIP3    H125199   1.450   7.332   5.122
 8418TIP3    H225200   1.520   7.318   5.255
 8419TIP3   OH225201   3.912   0.223   4.477
 8419TIP3    H125202   3.854   0.262   4.411
 8419TIP3    H225203   3.968   0.163   4.428
 8420TIP3   OH225204   2.619   2.585   4.786
 8420TIP3    H125205   2.627   2.496   4.752
 8420TIP3    H225206   2.653   2.641   4.716
 8421TIP3   OH225207   4.522   5.162   5.861
 8421TIP3    H125208   4.445   5.106   5.855
 8421TIP3    H225209   4.493   5.246   5.826
 8422TIP3   OH225210   4.114   5.762   1.025
 8422TIP3    H125211   4.191   5.801   1.066
 8422TIP3    H225212   4.145   5.679   0.990
 8423TIP3   OH225213   2.827   7.531   1.349
 8423TIP3    H125214   2.751   7.541   1.291
 8423TIP3    H225215   2.790   7.532   1.437
 8424TIP3   OH225216   6.864   5.181   1.286
 8424TIP3    H125217   6.836   5.239   1.357
 8424TIP3    H225218   6.855   5.234   1.207
 8425TIP3   OH225219   7.444   0.316   4.823
 8425TIP3    H125220   7.368   0.283   4.870
 8425TIP3    H225221   7.470   0.395   4.871
 8426TIP3   OH225222   7.827   3.158   6.070
 8426TIP3    H125223   7.890   3.229   6.056
 8426TIP3    H225224   7.791   3.141   5.983
 8427TIP3   OH225225   1.504   5.114   3.401
 8427TIP3    H125226   1.571   5.179   3.385
 8427TIP3    H225227   1.484   5.078   3.314
 8428TIP3   OH225228   1.012   1.805   3.538
 8428TIP3    H125229   1.047   1.838   3.455
 8428TIP3    H225230   0.917   1.804   3.526
 8429TIP3   OH225231   1.585   5.967   5.543
 8429TIP3    H125232   1.615   5.972   5.452
 8429TIP3    H225233   1.548   5.879   5.551
 8430TIP3   OH225234   0.639   7.463   1.624
 8430TIP3    H125235   0.722   7.511   1.628
 8430TIP3    H225236   0.619   7.443   1.716
 8431TIP3   OH225237   5.889   5.595   5.484
 8431TIP3    H125238   5.946   5.652   5.536
 8431TIP3    H225239   5.801   5.613   5.517
 8432TIP3   OH225240   6.634   0.918   6.711
 8432TIP3    H125241   6.606   0.832   6.744
 8432TIP3    H225242   6.677   0.899   6.628
 8433TIP3   OH225243   0.948   6.207   1.167
 8433TIP3    H125244   0.976   6.195   1.258
 8433TIP3    H225245   0.874   6.147   1.157
 8434TIP3   OH225246   2.980   6.501   5.895
 8434TIP3    H125247   2.899   6.525   5.941
 8434TIP3    H225248   2.981   6.405   5.896
 8435TIP3   OH225249   4.215   4.231   3.820
 8435TIP3    H125250   4.184   4.320   3.836
 8435TIP3    H225251   4.301   4.228   3.861
 8436TIP3   OH225252   2.888   1.540   2.492
 8436TIP3    H125253   2.819   1.537   2.558
 8436TIP3    H225254   2.964   1.577   2.536
 8437TIP3   OH225255   7.813   4.271   5.526
 8437TIP3    H125256   7.755   4.198   5.547
 8437TIP3    H225257   7.755   4.338   5.490
 8438TIP3   OH225258   5.374   0.837   6.108
 8438TIP3    H125259   5.404   0.782   6.036
 8438TIP3    H225260   5.315   0.901   6.067
 8439TIP3   OH225261   5.843   5.333   4.454
 8439TIP3    H125262   5.910   5.334   4.385
 8439TIP3    H225263   5.881   5.278   4.523
 8440TIP3   OH225264   6.077   6.368   4.268
 8440TIP3    H125265   5.984   6.389   4.254
 8440TIP3    H225266   6.122   6.452   4.257
 8441TIP3   OH225267   6.893   2.945   0.988
 8441TIP3    H125268   6.831   3.012   0.960
 8441TIP3    H225269   6.890   2.948   1.083
 8442TIP3   OH225270   2.209   1.761   4.839
 8442TIP3    H125271   2.133   1.735   4.891
 8442TIP3    H225272   2.283   1.758   4.900
 8443TIP3   OH225273   8.310   0.040   1.338
 8443TIP3    H125274   8.246  -0.027   1.365
 8443TIP3    H225275   8.259   0.121   1.335
 8444TIP3   OH225276   0.901   6.890   4.299
 8444TIP3    H125277   0.831   6.882   4.364
 8444TIP3    H225278   0.925   6.983   4.301
 8445TIP3   OH225279   5.196   4.549   0.773
 8445TIP3    H125280   5.161   4.636   0.751
 8445TIP3    H225281   5.165   4.533   0.863
 8446TIP3   OH225282   4.681   1.836   0.722
 8446TIP3    H125283   4.622   1.901   0.762
 8446TIP3    H225284   4.628   1.796   0.653
 8447TIP3   OH225285   4.618   2.723   3.301
 8447TIP3    H125286   4.704   2.720   3.258
 8447TIP3    H225287   4.632   2.780   3.377
 8448TIP3   OH225288   5.331   5.778   5.088
 8448TIP3    H125289   5.320   5.693   5.131
 8448TIP3    H225290   5.367   5.835   5.157
 8449TIP3   OH225291   1.221   1.150   2.844
 8449TIP3    H125292   1.207   1.058   2.866
 8449TIP3    H225293   1.133   1.186   2.834
 8450TIP3   OH225294   5.647   6.863   0.775
 8450TIP3    H125295   5.642   6.783   0.722
 8450TIP3    H225296   5.573   6.856   0.836
 8451TIP3   OH225297   4.605   5.845   4.075
 8451TIP3    H125298   4.612   5.763   4.125
 8451TIP3    H225299   4.573   5.817   3.989
 8452TIP3   OH225300   7.657   4.060   5.623
 8452TIP3    H125301   7.684   4.001   5.552
 8452TIP3    H225302   7.585   4.014   5.666
 8453TIP3   OH225303   6.875   4.916   2.652
 8453TIP3    H125304   6.856   4.998   2.607
 8453TIP3    H225305   6.791   4.890   2.692
 8454TIP3   OH225306   3.625   2.561   1.413
 8454TIP3    H125307   3.671   2.597   1.337
 8454TIP3    H225308   3.555   2.623   1.431
 8455TIP3   OH225309   4.461   6.490   6.389
 8455TIP3    H125310   4.492   6.477   6.299
 8455TIP3    H225311   4.367   6.502   6.380
 8456TIP3   OH225312   6.365   7.252   2.183
 8456TIP3    H125313   6.272   7.232   2.168
 8456TIP3    H225314   6.365   7.317   2.253
 8457TIP3   OH225315   1.003   6.740   5.056
 8457TIP3    H125316   1.086   6.786   5.043
 8457TIP3    H225317   1.009   6.664   4.998
 8458TIP3   OH225318   3.370   5.070   6.214
 8458TIP3    H125319   3.393   5.163   6.208
 8458TIP3    H225320   3.451   5.027   6.237
 8459TIP3   OH225321   1.038   7.447   5.504
 8459TIP3    H125322   0.995   7.522   5.462
 8459TIP3    H225323   1.127   7.447   5.469
 8460TIP3   OH225324   7.364   2.194   3.853
 8460TIP3    H125325   7.343   2.218   3.943
 8460TIP3    H225326   7.280   2.170   3.815
 8461TIP3   OH225327   0.497   4.794   2.890
 8461TIP3    H125328   0.500   4.709   2.933
 8461TIP3    H225329   0.421   4.790   2.832
 8462TIP3   OH225330   7.918   4.491   5.119
 8462TIP3    H125331   7.951   4.545   5.191
 8462TIP3    H225332   7.887   4.411   5.162
 8463TIP3   OH225333   2.257   5.380   2.723
 8463TIP3    H125334   2.347   5.411   2.728
 8463TIP3    H225335   2.209   5.451   2.679
 8464TIP3   OH225336   5.227   2.350   0.869
 8464TIP3    H125337   5.302   2.409   0.873
 8464TIP3    H225338   5.259   2.267   0.904
 8465TIP3   OH225339   3.528   0.108   6.763
 8465TIP3    H125340   3.570   0.136   6.681
 8465TIP3    H225341   3.476   0.032   6.738
 8466TIP3   OH225342   4.090   1.279   5.449
 8466TIP3    H125343   4.100   1.351   5.386
 8466TIP3    H225344   4.176   1.238   5.452
 8467TIP3   OH225345   3.206   2.256   3.150
 8467TIP3    H125346   3.295   2.271   3.183
 8467TIP3    H225347   3.157   2.332   3.179
 8468TIP3   OH225348   0.524   2.943   4.572
 8468TIP3    H125349   0.496   2.852   4.582
 8468TIP3    H225350   0.602   2.937   4.516
 8469TIP3   OH225351   3.756   6.582   4.466
 8469TIP3    H125352   3.730   6.585   4.558
 8469TIP3    H225353   3.813   6.658   4.454
 8470TIP3   OH225354   1.866   1.061   4.143
 8470TIP3    H125355   1.806   1.135   4.136
 8470TIP3    H225356   1.813   0.990   4.179
 8471TIP3   OH225357   4.404   6.338   3.766
 8471TIP3    H125358   4.483   6.374   3.805
 8471TIP3    H225359   4.435   6.281   3.696
 8472TIP3   OH225360   6.511   2.103   4.154
 8472TIP3    H125361   6.528   2.105   4.248
 8472TIP3    H225362   6.597   2.116   4.114
 8473TIP3   OH225363   0.811   4.040   2.316
 8473TIP3    H125364   0.902   4.013   2.303
 8473TIP3    H225365   0.763   3.958   2.328
 8474TIP3   OH225366   4.960   2.331   6.677
 8474TIP3    H125367   4.942   2.319   6.770
 8474TIP3    H225368   4.887   2.289   6.632
 8475TIP3   OH225369   5.191   3.022   2.677
 8475TIP3    H125370   5.232   3.074   2.609
 8475TIP3    H225371   5.223   3.059   2.759
 8476TIP3   OH225372   2.730   6.013   0.334
 8476TIP3    H125373   2.752   6.036   0.424
 8476TIP3    H225374   2.787   5.939   0.313
 8477TIP3   OH225375   7.760   1.170   0.436
 8477TIP3    H125376   7.747   1.076   0.418
 8477TIP3    H225377   7.683   1.212   0.397
 8478TIP3   OH225378   4.949   2.148   4.219
 8478TIP3    H125379   4.945   2.227   4.273
 8478TIP3    H225380   4.883   2.162   4.151
 8479TIP3   OH225381   3.732   0.691   2.164
 8479TIP3    H125382   3.707   0.783   2.167
 8479TIP3    H225383   3.650   0.644   2.180
 8480TIP3   OH225384   6.295   1.041   5.906
 8480TIP3    H125385   6.238   1.013   5.835
 8480TIP3    H225386   6.347   1.112   5.868
 8481TIP3   OH225387   4.921   0.559   4.131
 8481TIP3    H125388   4.912   0.548   4.037
 8481TIP3    H225389   4.993   0.620   4.142
 8482TIP3   OH225390   3.061   5.611   3.942
 8482TIP3    H125391   3.086   5.528   3.983
 8482TIP3    H225392   3.072   5.676   4.012
 8483TIP3   OH225393   6.620   3.844   3.735
 8483TIP3    H125394   6.649   3.756   3.711
 8483TIP3    H225395   6.686   3.902   3.697
 8484TIP3   OH225396   3.600   1.837   4.096
 8484TIP3    H125397   3.629   1.881   4.176
 8484TIP3    H225398   3.507   1.858   4.090
 8485TIP3   OH225399   4.561   5.512   2.314
 8485TIP3    H125400   4.630   5.478   2.257
 8485TIP3    H225401   4.567   5.607   2.304
 8486TIP3   OH225402   6.171   3.402   4.888
 8486TIP3    H125403   6.160   3.390   4.983
 8486TIP3    H225404   6.126   3.485   4.869
 8487TIP3   OH225405   6.481   6.562   2.051
 8487TIP3    H125406   6.480   6.568   1.955
 8487TIP3    H225407   6.535   6.485   2.069
 8488TIP3   OH225408   1.787   3.467   0.779
 8488TIP3    H125409   1.820   3.378   0.780
 8488TIP3    H225410   1.806   3.502   0.866
 8489TIP3   OH225411   0.673   2.490   4.405
 8489TIP3    H125412   0.679   2.480   4.310
 8489TIP3    H225413   0.751   2.446   4.438
 8490TIP3   OH225414   0.075   3.561   5.613
 8490TIP3    H125415   0.132   3.570   5.690
 8490TIP3    H225416  -0.013   3.574   5.647
 8491TIP3   OH225417   5.507   7.312   2.854
 8491TIP3    H125418   5.412   7.319   2.839
 8491TIP3    H225419   5.514   7.253   2.929
 8492TIP3   OH225420   2.525   5.536   1.174
 8492TIP3    H125421   2.612   5.558   1.208
 8492TIP3    H225422   2.542   5.503   1.086
 8493TIP3   OH225423   2.090   5.999   1.233
 8493TIP3    H125424   2.063   6.040   1.315
 8493TIP3    H225425   2.161   6.054   1.201
 8494TIP3   OH225426   2.702   5.970   5.855
 8494TIP3    H125427   2.789   5.960   5.893
 8494TIP3    H225428   2.716   5.970   5.760
 8495TIP3   OH225429   5.961   1.291   0.641
 8495TIP3    H125430   5.924   1.301   0.554
 8495TIP3    H225431   5.981   1.198   0.649
 8496TIP3   OH225432   5.574   0.715   2.425
 8496TIP3    H125433   5.573   0.709   2.521
 8496TIP3    H225434   5.488   0.683   2.398
 8497TIP3   OH225435   6.479   3.810   0.909
 8497TIP3    H125436   6.390   3.803   0.943
 8497TIP3    H225437   6.480   3.749   0.834
 8498TIP3   OH225438   2.084   3.167   1.577
 8498TIP3    H125439   2.122   3.185   1.491
 8498TIP3    H225440   2.091   3.250   1.624
 8499TIP3   OH225441   2.125   2.302   1.404
 8499TIP3    H125442   2.058   2.352   1.451
 8499TIP3    H225443   2.202   2.359   1.406
 8500TIP3   OH225444   3.882   3.997   1.337
 8500TIP3    H125445   3.789   3.978   1.341
 8500TIP3    H225446   3.918   3.963   1.419
 8501TIP3   OH225447   4.428   6.397   4.864
 8501TIP3    H125448   4.390   6.311   4.885
 8501TIP3    H225449   4.391   6.420   4.779
 8502TIP3   OH225450   6.302   6.050   2.415
 8502TIP3    H125451   6.295   6.092   2.500
 8502TIP3    H225452   6.381   5.997   2.421
 8503TIP3   OH225453   7.238   7.129   3.606
 8503TIP3    H125454   7.309   7.123   3.670
 8503TIP3    H225455   7.277   7.098   3.524
 8504TIP3   OH225456   0.703   2.605   3.830
 8504TIP3    H125457   0.610   2.622   3.812
 8504TIP3    H225458   0.743   2.692   3.830
 8505TIP3   OH225459   5.108   5.099   5.821
 8505TIP3    H125460   5.040   5.068   5.882
 8505TIP3    H225461   5.080   5.187   5.796
 8506TIP3   OH225462   4.323   4.221   1.616
 8506TIP3    H125463   4.337   4.193   1.526
 8506TIP3    H225464   4.312   4.316   1.610
 8507TIP3   OH225465   5.147   1.726   3.975
 8507TIP3    H125466   5.142   1.650   3.917
 8507TIP3    H225467   5.188   1.694   4.055
 8508TIP3   OH225468   2.843   2.671   2.926
 8508TIP3    H125469   2.918   2.650   2.870
 8508TIP3    H225470   2.879   2.675   3.015
 8509TIP3   OH225471   1.208   6.978   4.018
 8509TIP3    H125472   1.137   6.931   3.974
 8509TIP3    H225473   1.185   6.974   4.111
 8510TIP3   OH225474   0.812   0.451   0.471
 8510TIP3    H125475   0.770   0.531   0.505
 8510TIP3    H225476   0.756   0.426   0.397
 8511TIP3   OH225477   2.116   4.941   5.266
 8511TIP3    H125478   2.200   4.936   5.311
 8511TIP3    H225479   2.086   4.850   5.259
 8512TIP3   OH225480   3.626   4.911   3.593
 8512TIP3    H125481   3.649   4.936   3.504
 8512TIP3    H225482   3.708   4.916   3.642
 8513TIP3   OH225483   1.964   3.936   5.532
 8513TIP3    H125484   1.942   3.879   5.458
 8513TIP3    H225485   2.047   3.976   5.508
 8514TIP3   OH225486   2.895   3.932   3.729
 8514TIP3    H125487   2.863   3.996   3.792
 8514TIP3    H225488   2.990   3.935   3.737
 8515TIP3   OH225489   1.819   5.700   2.529
 8515TIP3    H125490   1.869   5.751   2.593
 8515TIP3    H225491   1.878   5.629   2.503
 8516TIP3   OH225492   5.051   0.383   5.601
 8516TIP3    H125493   5.094   0.399   5.517
 8516TIP3    H225494   5.063   0.289   5.616
 8517TIP3   OH225495   4.763   2.121   5.257
 8517TIP3    H125496   4.783   2.155   5.344
 8517TIP3    H225497   4.847   2.125   5.211
 8518TIP3   OH225498   7.989   4.533   0.099
 8518TIP3    H125499   8.014   4.625   0.091
 8518TIP3    H225500   7.914   4.523   0.040
 8519TIP3   OH225501   7.714   0.256   5.616
 8519TIP3    H125502   7.769   0.294   5.548
 8519TIP3    H225503   7.776   0.218   5.679
 8520TIP3   OH225504   2.287   1.456   1.001
 8520TIP3    H125505   2.230   1.427   1.072
 8520TIP3    H225506   2.328   1.536   1.033
 8521TIP3   OH225507   0.414   2.165   1.634
 8521TIP3    H125508   0.425   2.093   1.571
 8521TIP3    H225509   0.498   2.171   1.678
 8522TIP3   OH225510   0.418   3.535   0.222
 8522TIP3    H125511   0.414   3.465   0.287
 8522TIP3    H225512   0.483   3.596   0.256
 8523TIP3   OH225513   4.607   1.985   0.998
 8523TIP3    H125514   4.570   1.897   0.991
 8523TIP3    H225515   4.538   2.036   1.040
 8524TIP3   OH225516   6.599   3.053   5.147
 8524TIP3    H125517   6.581   2.960   5.153
 8524TIP3    H225518   6.527   3.095   5.195
 8525TIP3   OH225519   4.770   1.513   3.008
 8525TIP3    H125520   4.816   1.493   3.090
 8525TIP3    H225521   4.739   1.603   3.020
 8526TIP3   OH225522   1.353   2.208   2.195
 8526TIP3    H125523   1.318   2.135   2.247
 8526TIP3    H225524   1.447   2.205   2.211
 8527TIP3   OH225525   8.064   0.220   1.513
 8527TIP3    H125526   8.049   0.300   1.564
 8527TIP3    H225527   8.151   0.190   1.541
 8528TIP3   OH225528   0.496   2.590   3.523
 8528TIP3    H125529   0.465   2.604   3.612
 8528TIP3    H225530   0.501   2.678   3.485
 8529TIP3   OH225531   0.440   6.696   4.738
 8529TIP3    H125532   0.473   6.608   4.716
 8529TIP3    H225533   0.345   6.686   4.737
 8530TIP3   OH225534   8.215   0.432   0.048
 8530TIP3    H125535   8.201   0.437   0.142
 8530TIP3    H225536   8.140   0.382   0.015
 8531TIP3   OH225537   4.848   4.585   0.808
 8531TIP3    H125538   4.756   4.585   0.835
 8531TIP3    H225539   4.895   4.550   0.883
 8532TIP3   OH225540   7.410   4.054   4.127
 8532TIP3    H125541   7.496   4.017   4.145
 8532TIP3    H225542   7.414   4.082   4.036
 8533TIP3   OH225543   6.182   6.127   2.133
 8533TIP3    H125544   6.213   6.078   2.209
 8533TIP3    H225545   6.153   6.060   2.071
 8534TIP3   OH225546   2.590   3.161   2.752
 8534TIP3    H125547   2.572   3.255   2.748
 8534TIP3    H225548   2.599   3.142   2.846
 8535TIP3   OH225549   2.774   1.896   2.621
 8535TIP3    H125550   2.810   1.814   2.655
 8535TIP3    H225551   2.849   1.955   2.618
 8536TIP3   OH225552   8.010   2.381   2.292
 8536TIP3    H125553   8.070   2.330   2.237
 8536TIP3    H225554   7.953   2.426   2.229
 8537TIP3   OH225555   6.952   2.800   4.227
 8537TIP3    H125556   7.000   2.871   4.186
 8537TIP3    H225557   6.878   2.843   4.270
 8538TIP3   OH225558   3.231   0.415   4.734
 8538TIP3    H125559   3.318   0.389   4.762
 8538TIP3    H225560   3.208   0.488   4.791
 8539TIP3   OH225561   2.780   1.518   5.685
 8539TIP3    H125562   2.689   1.537   5.663
 8539TIP3    H225563   2.792   1.556   5.772
 8540TIP3   OH225564   7.025   5.924   3.635
 8540TIP3    H125565   7.090   5.854   3.627
 8540TIP3    H225566   6.994   5.938   3.546
 8541TIP3   OH225567   1.872   1.751   2.584
 8541TIP3    H125568   1.926   1.715   2.655
 8541TIP3    H225569   1.931   1.754   2.508
 8542TIP3   OH225570   3.633   0.672   1.633
 8542TIP3    H125571   3.579   0.750   1.642
 8542TIP3    H225572   3.709   0.688   1.689
 8543TIP3   OH225573   3.316   4.559   5.013
 8543TIP3    H125574   3.377   4.498   4.972
 8543TIP3    H225575   3.233   4.545   4.967
 8544TIP3   OH225576   6.643   1.286   0.068
 8544TIP3    H125577   6.736   1.303   0.054
 8544TIP3    H225578   6.626   1.318   0.156
 8545TIP3   OH225579   1.447   0.690   1.409
 8545TIP3    H125580   1.405   0.605   1.422
 8545TIP3    H225581   1.495   0.680   1.327
 8546TIP3   OH225582   1.958   7.363   1.715
 8546TIP3    H125583   1.966   7.288   1.774
 8546TIP3    H225584   1.924   7.327   1.633
 8547TIP3   OH225585   5.835   2.964   2.895
 8547TIP3    H125586   5.887   2.997   2.969
 8547TIP3    H225587   5.809   2.876   2.921
 8548TIP3   OH225588   5.942   1.300   4.813
 8548TIP3    H125589   5.909   1.336   4.731
 8548TIP3    H225590   5.866   1.260   4.854
 8549TIP3   OH225591   5.329   2.517   3.478
 8549TIP3    H125592   5.340   2.599   3.430
 8549TIP3    H225593   5.235   2.509   3.491
 8550TIP3   OH225594   1.026   4.543   1.719
 8550TIP3    H125595   0.958   4.509   1.777
 8550TIP3    H225596   1.008   4.637   1.713
 8551TIP3   OH225597   5.348   5.145   1.217
 8551TIP3    H125598   5.411   5.080   1.185
 8551TIP3    H225599   5.279   5.094   1.259
 8552TIP3   OH225600   5.558   2.297   5.343
 8552TIP3    H125601   5.516   2.354   5.278
 8552TIP3    H225602   5.486   2.260   5.393
 8553TIP3   OH225603   8.202   6.462   5.862
 8553TIP3    H125604   8.184   6.369   5.878
 8553TIP3    H225605   8.287   6.463   5.818
 8554TIP3   OH225606   3.578   3.488   2.980
 8554TIP3    H125607   3.662   3.449   2.954
 8554TIP3    H225608   3.599   3.541   3.057
 8555TIP3   OH225609   7.277   0.737   3.520
 8555TIP3    H125610   7.235   0.745   3.605
 8555TIP3    H225611   7.205   0.732   3.457
 8556TIP3   OH225612   3.845   2.210   4.177
 8556TIP3    H125613   3.840   2.201   4.272
 8556TIP3    H225614   3.785   2.282   4.157
 8557TIP3   OH225615   3.773   5.025   3.129
 8557TIP3    H125616   3.750   4.974   3.052
 8557TIP3    H225617   3.707   5.001   3.194
 8558TIP3   OH225618   2.611   2.822   6.464
 8558TIP3    H125619   2.665   2.744   6.468
 8558TIP3    H225620   2.611   2.856   6.554
 8559TIP3   OH225621   3.641   1.715   6.665
 8559TIP3    H125622   3.601   1.690   6.748
 8559TIP3    H225623   3.730   1.678   6.669
 8560TIP3   OH225624   1.817   5.288   4.562
 8560TIP3    H125625   1.811   5.275   4.468
 8560TIP3    H225626   1.890   5.233   4.590
 8561TIP3   OH225627   6.593   3.647   6.102
 8561TIP3    H125628   6.585   3.558   6.068
 8561TIP3    H225629   6.687   3.665   6.098
 8562TIP3   OH225630   5.614   3.343   3.572
 8562TIP3    H125631   5.559   3.266   3.588
 8562TIP3    H225632   5.704   3.311   3.581
 8563TIP3   OH225633   0.557   4.707   2.058
 8563TIP3    H125634   0.480   4.762   2.072
 8563TIP3    H225635   0.631   4.764   2.078
 8564TIP3   OH225636   0.162   4.025   4.211
 8564TIP3    H125637   0.198   3.956   4.266
 8564TIP3    H225638   0.084   4.056   4.259
 8565TIP3   OH225639   7.072   7.444   2.689
 8565TIP3    H125640   7.133   7.403   2.627
 8565TIP3    H225641   6.994   7.462   2.638
 8566TIP3   OH225642   4.091   4.629   3.686
 8566TIP3    H125643   4.146   4.564   3.730
 8566TIP3    H225644   4.086   4.702   3.748
 8567TIP3   OH225645   7.421   2.411   5.242
 8567TIP3    H125646   7.371   2.411   5.161
 8567TIP3    H225647   7.486   2.480   5.231
 8568TIP3   OH225648   2.360   3.105   4.471
 8568TIP3    H125649   2.273   3.146   4.475
 8568TIP3    H225650   2.348   3.020   4.513
 8569TIP3   OH225651   2.014   3.855   1.103
 8569TIP3    H125652   2.056   3.772   1.126
 8569TIP3    H225653   2.081   3.903   1.055
 8570TIP3   OH225654   6.645   6.857   0.948
 8570TIP3    H125655   6.690   6.833   1.029
 8570TIP3    H225656   6.614   6.947   0.962
 8571TIP3   OH225657   1.921   4.979   0.203
 8571TIP3    H125658   1.848   4.925   0.171
 8571TIP3    H225659   1.998   4.925   0.191
 8572TIP3   OH225660   2.099   7.469   3.418
 8572TIP3    H125661   2.132   7.548   3.376
 8572TIP3    H225662   2.173   7.409   3.417
 8573TIP3   OH225663   2.023   5.574   6.326
 8573TIP3    H125664   1.992   5.629   6.398
 8573TIP3    H225665   1.964   5.498   6.327
 8574TIP3   OH225666   6.893   2.528   5.218
 8574TIP3    H125667   6.878   2.446   5.171
 8574TIP3    H225668   6.855   2.595   5.162
 8575TIP3   OH225669   8.066   1.130   0.814
 8575TIP3    H125670   8.139   1.083   0.776
 8575TIP3    H225671   8.107   1.191   0.876
 8576TIP3   OH225672   6.952   1.057   0.407
 8576TIP3    H125673   6.967   1.009   0.325
 8576TIP3    H225674   6.932   1.146   0.378
 8577TIP3   OH225675   0.950   4.574   2.535
 8577TIP3    H125676   0.874   4.525   2.503
 8577TIP3    H225677   0.940   4.573   2.630
 8578TIP3   OH225678   7.935   4.900   6.322
 8578TIP3    H125679   8.007   4.897   6.260
 8578TIP3    H225680   7.920   4.808   6.346
 8579TIP3   OH225681   6.958   2.933   0.352
 8579TIP3    H125682   6.925   3.003   0.409
 8579TIP3    H225683   7.052   2.949   0.348
 8580TIP3   OH225684   7.230   3.545   0.505
 8580TIP3    H125685   7.321   3.560   0.531
 8580TIP3    H225686   7.235   3.474   0.441
 8581TIP3   OH225687   2.788   6.637   1.835
 8581TIP3    H125688   2.786   6.731   1.821
 8581TIP3    H225689   2.796   6.627   1.930
 8582TIP3   OH225690   7.541   0.931   5.805
 8582TIP3    H125691   7.515   0.875   5.878
 8582TIP3    H225692   7.483   0.905   5.734
 8583TIP3   OH225693   0.491   3.871   6.151
 8583TIP3    H125694   0.451   3.916   6.226
 8583TIP3    H225695   0.463   3.921   6.075
 8584TIP3   OH225696   0.072   1.754   1.737
 8584TIP3    H125697   0.081   1.770   1.644
 8584TIP3    H225698  -0.022   1.741   1.750
 8585TIP3   OH225699   5.458   3.550   4.270
 8585TIP3    H125700   5.385   3.537   4.210
 8585TIP3    H225701   5.523   3.484   4.244
 8586TIP3   OH225702   1.005   4.339   3.300
 8586TIP3    H125703   0.995   4.427   3.264
 8586TIP3    H225704   0.916   4.316   3.329
 8587TIP3   OH225705   3.343   7.781   5.151
 8587TIP3    H125706   3.364   7.792   5.244
 8587TIP3    H225707   3.428   7.766   5.109
 8588TIP3   OH225708   0.335   4.305   4.458
 8588TIP3    H125709   0.312   4.288   4.367
 8588TIP3    H225710   0.254   4.334   4.499
 8589TIP3   OH225711   0.226   7.004   0.234
 8589TIP3    H125712   0.178   7.062   0.293
 8589TIP3    H225713   0.162   6.937   0.210
 8590TIP3   OH225714   1.616   5.540   0.778
 8590TIP3    H125715   1.591   5.500   0.695
 8590TIP3    H225716   1.534   5.546   0.828
 8591TIP3   OH225717   8.195   4.047   2.585
 8591TIP3    H125718   8.202   3.994   2.506
 8591TIP3    H225719   8.105   4.032   2.615
 8592TIP3   OH225720   8.211   2.955   0.961
 8592TIP3    H125721   8.171   3.011   0.895
 8592TIP3    H225722   8.138   2.917   1.009
 8593TIP3   OH225723   2.527   4.992   2.136
 8593TIP3    H125724   2.493   5.081   2.138
 8593TIP3    H225725   2.469   4.943   2.193
 8594TIP3   OH225726   6.355   6.248   2.915
 8594TIP3    H125727   6.395   6.283   2.836
 8594TIP3    H225728   6.315   6.324   2.958
 8595TIP3   OH225729   4.476   4.184   3.243
 8595TIP3    H125730   4.445   4.096   3.266
 8595TIP3    H225731   4.396   4.233   3.222
 8596TIP3   OH225732   1.833   0.837   0.031
 8596TIP3    H125733   1.855   0.896   0.104
 8596TIP3    H225734   1.808   0.755   0.073
 8597TIP3   OH225735   2.613   2.185   0.738
 8597TIP3    H125736   2.626   2.116   0.673
 8597TIP3    H225737   2.533   2.230   0.709
 8598TIP3   OH225738   2.485   3.452   1.652
 8598TIP3    H125739   2.564   3.403   1.675
 8598TIP3    H225740   2.517   3.529   1.605
 8599TIP3   OH225741   0.190   0.232   2.556
 8599TIP3    H125742   0.131   0.289   2.507
 8599TIP3    H225743   0.138   0.154   2.576
 8600TIP3   OH225744   6.260   0.462   0.842
 8600TIP3    H125745   6.345   0.443   0.882
 8600TIP3    H225746   6.266   0.424   0.754
 8601TIP3   OH225747   1.573   4.597   1.297
 8601TIP3    H125748   1.492   4.644   1.276
 8601TIP3    H225749   1.556   4.556   1.382
 8602TIP3   OH225750   2.648   2.012   2.080
 8602TIP3    H125751   2.644   2.050   2.167
 8602TIP3    H225752   2.648   1.917   2.095
 8603TIP3   OH225753   6.346   0.332   6.722
 8603TIP3    H125754   6.435   0.354   6.750
 8603TIP3    H225755   6.336   0.240   6.746
 8604TIP3   OH225756   3.579   3.234   3.499
 8604TIP3    H125757   3.596   3.209   3.408
 8604TIP3    H225758   3.500   3.288   3.494
 8605TIP3   OH225759   2.164   0.914   5.316
 8605TIP3    H125760   2.091   0.956   5.270
 8605TIP3    H225761   2.128   0.833   5.350
 8606TIP3   OH225762   2.211   1.090   1.756
 8606TIP3    H125763   2.277   1.109   1.823
 8606TIP3    H225764   2.261   1.083   1.675
 8607TIP3   OH225765   1.224   0.877   6.092
 8607TIP3    H125766   1.219   0.848   6.001
 8607TIP3    H225767   1.318   0.887   6.109
 8608TIP3   OH225768   0.446   0.018   0.617
 8608TIP3    H125769   0.391   0.034   0.694
 8608TIP3    H225770   0.437   0.096   0.564
 8609TIP3   OH225771   2.562   0.775  -0.002
 8609TIP3    H125772   2.518   0.744   0.077
 8609TIP3    H225773   2.548   0.870  -0.001
 8610TIP3   OH225774   1.842   2.035   2.072
 8610TIP3    H125775   1.880   1.951   2.048
 8610TIP3    H225776   1.863   2.045   2.165
 8611TIP3   OH225777   5.982   1.324   2.122
 8611TIP3    H125778   6.047   1.394   2.130
 8611TIP3    H225779   5.938   1.322   2.207
 8612TIP3   OH225780   0.302   3.546   5.278
 8612TIP3    H125781   0.267   3.461   5.305
 8612TIP3    H225782   0.255   3.566   5.197
 8613TIP3   OH225783   4.233   5.606   1.528
 8613TIP3    H125784   4.287   5.606   1.607
 8613TIP3    H225785   4.289   5.646   1.461
 8614TIP3   OH225786   6.954   0.930   3.097
 8614TIP3    H125787   6.913   0.938   3.011
 8614TIP3    H225788   7.010   1.007   3.104
 8615TIP3   OH225789   1.807   2.502   5.018
 8615TIP3    H125790   1.801   2.502   4.923
 8615TIP3    H225791   1.889   2.457   5.038
 8616TIP3   OH225792   2.786   2.910   2.711
 8616TIP3    H125793   2.844   2.836   2.698
 8616TIP3    H225794   2.842   2.987   2.702
 8617TIP3   OH225795   2.891   2.706   6.450
 8617TIP3    H125796   2.937   2.624   6.431
 8617TIP3    H225797   2.939   2.745   6.522
 8618TIP3   OH225798   7.166   2.673   6.624
 8618TIP3    H125799   7.172   2.635   6.711
 8618TIP3    H225800   7.097   2.739   6.631
 8619TIP3   OH225801   1.327   0.747   2.724
 8619TIP3    H125802   1.314   0.812   2.656
 8619TIP3    H225803   1.311   0.794   2.806
 8620TIP3   OH225804   2.418   7.191   0.036
 8620TIP3    H125805   2.341   7.159  -0.011
 8620TIP3    H225806   2.449   7.116   0.087
 8621TIP3   OH225807   1.750   3.443   5.392
 8621TIP3    H125808   1.717   3.375   5.452
 8621TIP3    H225809   1.737   3.407   5.305
 8622TIP3   OH225810   2.831   0.334   4.133
 8622TIP3    H125811   2.793   0.263   4.080
 8622TIP3    H225812   2.761   0.399   4.140
 8623TIP3   OH225813   0.679   7.403   6.348
 8623TIP3    H125814   0.757   7.438   6.392
 8623TIP3    H225815   0.606   7.430   6.404
 8624TIP3   OH225816   7.470   2.943   1.580
 8624TIP3    H125817   7.443   2.979   1.665
 8624TIP3    H225818   7.476   3.019   1.522
 8625TIP3   OH225819   2.535   2.135   4.228
 8625TIP3    H125820   2.584   2.054   4.212
 8625TIP3    H225821   2.448   2.106   4.253
 8626TIP3   OH225822   3.790   3.056   4.798
 8626TIP3    H125823   3.838   3.122   4.747
 8626TIP3    H225824   3.845   3.041   4.874
 8627TIP3   OH225825   5.390   3.966   3.965
 8627TIP3    H125826   5.440   3.917   4.030
 8627TIP3    H225827   5.316   4.002   4.014
 8628TIP3   OH225828   3.243   3.651   3.937
 8628TIP3    H125829   3.321   3.699   3.906
 8628TIP3    H225830   3.250   3.565   3.896
 8629TIP3   OH225831   1.245   1.678   5.451
 8629TIP3    H125832   1.261   1.643   5.363
 8629TIP3    H225833   1.266   1.771   5.443
 8630TIP3   OH225834   7.207   7.101   5.315
 8630TIP3    H125835   7.223   7.094   5.221
 8630TIP3    H225836   7.149   7.177   5.325
 8631TIP3   OH225837   0.218   2.421   5.912
 8631TIP3    H125838   0.217   2.336   5.956
 8631TIP3    H225839   0.126   2.449   5.912
 8632TIP3   OH225840   6.799   7.470   2.521
 8632TIP3    H125841   6.845   7.533   2.465
 8632TIP3    H225842   6.737   7.427   2.462
 8633TIP3   OH225843   2.886   6.633   3.604
 8633TIP3    H125844   2.958   6.571   3.596
 8633TIP3    H225845   2.809   6.583   3.578
 8634TIP3   OH225846   7.361   0.709   1.382
 8634TIP3    H125847   7.446   0.690   1.422
 8634TIP3    H225848   7.381   0.727   1.290
 8635TIP3   OH225849   6.969   6.873   4.274
 8635TIP3    H125850   6.935   6.955   4.238
 8635TIP3    H225851   6.930   6.867   4.361
 8636TIP3   OH225852   6.180   2.917   2.168
 8636TIP3    H125853   6.249   2.981   2.153
 8636TIP3    H225854   6.199   2.846   2.106
 8637TIP3   OH225855   6.526   4.253   0.816
 8637TIP3    H125856   6.548   4.241   0.724
 8637TIP3    H225857   6.508   4.347   0.824
 8638TIP3   OH225858   5.470   3.276   2.105
 8638TIP3    H125859   5.435   3.204   2.158
 8638TIP3    H225860   5.533   3.320   2.162
 8639TIP3   OH225861   4.256   2.472   3.080
 8639TIP3    H125862   4.198   2.547   3.083
 8639TIP3    H225863   4.294   2.467   3.168
 8640TIP3   OH225864   0.265   2.054   0.088
 8640TIP3    H125865   0.322   2.025   0.016
 8640TIP3    H225866   0.193   1.991   0.087
 8641TIP3   OH225867   7.445   5.067   0.230
 8641TIP3    H125868   7.513   5.009   0.263
 8641TIP3    H225869   7.485   5.154   0.234
 8642TIP3   OH225870   8.082   3.305   4.997
 8642TIP3    H125871   8.053   3.262   4.917
 8642TIP3    H225872   8.090   3.234   5.061
 8643TIP3   OH225873   6.387   7.548   2.061
 8643TIP3    H125874   6.410   7.457   2.082
 8643TIP3    H225875   6.453   7.601   2.105
 8644TIP3   OH225876   3.154   6.123   4.489
 8644TIP3    H125877   3.245   6.150   4.475
 8644TIP3    H225878   3.160   6.035   4.525
 8645TIP3   OH225879   2.279   4.138   1.247
 8645TIP3    H125880   2.326   4.122   1.165
 8645TIP3    H225881   2.259   4.050   1.280
 8646TIP3   OH225882   0.641   0.864   0.097
 8646TIP3    H125883   0.689   0.947   0.102
 8646TIP3    H225884   0.622   0.853   0.004
 8647TIP3   OH225885   5.739   0.191   3.496
 8647TIP3    H125886   5.792   0.118   3.462
 8647TIP3    H225887   5.791   0.269   3.478
 8648TIP3   OH225888   1.700   0.311   6.040
 8648TIP3    H125889   1.780   0.291   5.991
 8648TIP3    H225890   1.642   0.236   6.023
 8649TIP3   OH225891   7.371   2.959   5.814
 8649TIP3    H125892   7.456   2.942   5.854
 8649TIP3    H225893   7.363   2.893   5.745
 8650TIP3   OH225894   0.292   1.284   3.890
 8650TIP3    H125895   0.362   1.291   3.956
 8650TIP3    H225896   0.304   1.197   3.852
 8651TIP3   OH225897   1.792   5.427   6.501
 8651TIP3    H125898   1.768   5.502   6.556
 8651TIP3    H225899   1.803   5.355   6.563
 8652TIP3   OH225900   1.748   6.117   3.287
 8652TIP3    H125901   1.841   6.097   3.273
 8652TIP3    H225902   1.701   6.049   3.239
 8653TIP3   OH225903   7.378   4.322   5.384
 8653TIP3    H125904   7.359   4.390   5.319
 8653TIP3    H225905   7.389   4.242   5.334
 8654TIP3   OH225906   2.797   1.847   0.405
 8654TIP3    H125907   2.776   1.883   0.319
 8654TIP3    H225908   2.888   1.819   0.398
 8655TIP3   OH225909   6.697   5.713   5.823
 8655TIP3    H125910   6.643   5.787   5.852
 8655TIP3    H225911   6.647   5.635   5.848
 8656TIP3   OH225912   7.983   2.360   4.586
 8656TIP3    H125913   7.945   2.411   4.657
 8656TIP3    H225914   8.012   2.279   4.627
 8657TIP3   OH225915   8.004   2.227   5.864
 8657TIP3    H125916   8.015   2.224   5.959
 8657TIP3    H225917   7.957   2.147   5.842
 8658TIP3   OH225918   0.186   4.641   1.253
 8658TIP3    H125919   0.234   4.672   1.177
 8658TIP3    H225920   0.206   4.548   1.259
 8659TIP3   OH225921   8.049   6.743   3.384
 8659TIP3    H125922   8.125   6.763   3.440
 8659TIP3    H225923   8.027   6.652   3.407
 8660TIP3   OH225924   4.960   3.359   1.545
 8660TIP3    H125925   5.025   3.407   1.493
 8660TIP3    H225926   4.928   3.291   1.485
 8661TIP3   OH225927   0.633   4.233   1.954
 8661TIP3    H125928   0.686   4.215   1.876
 8661TIP3    H225929   0.602   4.323   1.942
 8662TIP3   OH225930   1.076   3.934   2.331
 8662TIP3    H125931   1.118   3.883   2.263
 8662TIP3    H225932   1.118   4.020   2.326
 8663TIP3   OH225933   3.653   7.422   4.819
 8663TIP3    H125934   3.625   7.493   4.876
 8663TIP3    H225935   3.747   7.413   4.835
 8664TIP3   OH225936   6.252   5.553   5.515
 8664TIP3    H125937   6.287   5.574   5.429
 8664TIP3    H225938   6.328   5.555   5.573
 8665TIP3   OH225939   8.028   6.870   1.932
 8665TIP3    H125940   8.071   6.894   1.850
 8665TIP3    H225941   8.093   6.817   1.979
 8666TIP3   OH225942   4.333   7.133   0.973
 8666TIP3    H125943   4.356   7.058   0.917
 8666TIP3    H225944   4.412   7.186   0.976
 8667TIP3   OH225945   2.140   6.432   3.981
 8667TIP3    H125946   2.205   6.362   3.979
 8667TIP3    H225947   2.175   6.495   4.044
 8668TIP3   OH225948   6.920   3.180   3.926
 8668TIP3    H125949   6.891   3.123   3.854
 8668TIP3    H225950   6.921   3.267   3.888
 8669TIP3   OH225951   6.463   3.410   5.065
 8669TIP3    H125952   6.397   3.465   5.023
 8669TIP3    H225953   6.484   3.344   4.999
 8670TIP3   OH225954   3.761   2.004   2.739
 8670TIP3    H125955   3.731   1.977   2.653
 8670TIP3    H225956   3.844   2.049   2.722
 8671TIP3   OH225957   1.410   5.378   2.146
 8671TIP3    H125958   1.498   5.364   2.179
 8671TIP3    H225959   1.356   5.315   2.194
 8672TIP3   OH225960   1.661   1.214   4.040
 8672TIP3    H125961   1.640   1.300   4.002
 8672TIP3    H225962   1.604   1.207   4.116
 8673TIP3   OH225963   3.828   3.308   6.465
 8673TIP3    H125964   3.794   3.392   6.496
 8673TIP3    H225965   3.912   3.329   6.423
 8674TIP3   OH225966   1.958   6.039   3.583
 8674TIP3    H125967   1.923   6.029   3.671
 8674TIP3    H225968   1.884   6.070   3.531
 8675TIP3   OH225969   3.502   7.545   4.426
 8675TIP3    H125970   3.510   7.638   4.405
 8675TIP3    H225971   3.424   7.540   4.482
 8676TIP3   OH225972   6.936   1.456   6.050
 8676TIP3    H125973   6.889   1.392   6.103
 8676TIP3    H225974   6.949   1.414   5.966
 8677TIP3   OH225975   0.912   5.307   4.653
 8677TIP3    H125976   0.982   5.372   4.647
 8677TIP3    H225977   0.845   5.348   4.706
 8678TIP3   OH225978   3.531   2.159   6.427
 8678TIP3    H125979   3.560   2.142   6.338
 8678TIP3    H225980   3.525   2.072   6.468
 8679TIP3   OH225981   3.575   3.610   1.772
 8679TIP3    H125982   3.619   3.525   1.764
 8679TIP3    H225983   3.537   3.609   1.860
 8680TIP3   OH225984   7.245   3.726   3.792
 8680TIP3    H125985   7.322   3.702   3.742
 8680TIP3    H225986   7.263   3.694   3.881
 8681TIP3   OH225987   6.780   5.755   3.672
 8681TIP3    H125988   6.794   5.677   3.617
 8681TIP3    H225989   6.865   5.770   3.714
 8682TIP3   OH225990   0.986   3.509   6.346
 8682TIP3    H125991   0.905   3.470   6.313
 8682TIP3    H225992   1.033   3.436   6.386
 8683TIP3   OH225993   2.596   4.213   1.891
 8683TIP3    H125994   2.636   4.299   1.879
 8683TIP3    H225995   2.526   4.209   1.826
 8684TIP3   OH225996   3.708   2.631   6.562
 8684TIP3    H125997   3.796   2.627   6.525
 8684TIP3    H225998   3.653   2.586   6.498
 8685TIP3   OH225999   6.589   5.870   6.264
 8685TIP3    H126000   6.642   5.795   6.237
 8685TIP3    H226001   6.535   5.890   6.188
 8686TIP3   OH226002   7.099   3.651   6.773
 8686TIP3    H126003   7.165   3.720   6.780
 8686TIP3    H226004   7.035   3.686   6.710
 8687TIP3   OH226005   6.403   6.200   1.856
 8687TIP3    H126006   6.458   6.200   1.778
 8687TIP3    H226007   6.342   6.272   1.842
 8688TIP3   OH226008   3.766   3.998   1.676
 8688TIP3    H126009   3.678   4.007   1.641
 8688TIP3    H226010   3.755   3.949   1.757
 8689TIP3   OH226011   8.088   6.659   5.593
 8689TIP3    H126012   8.172   6.629   5.559
 8689TIP3    H226013   8.109   6.735   5.646
 8690TIP3   OH226014   8.071   0.538   2.441
 8690TIP3    H126015   8.045   0.536   2.349
 8690TIP3    H226016   8.026   0.464   2.481
 8691TIP3   OH226017   6.255   7.740   5.527
 8691TIP3    H126018   6.288   7.787   5.603
 8691TIP3    H226019   6.287   7.651   5.539
 8692TIP3   OH226020   6.121   3.704   1.654
 8692TIP3    H126021   6.035   3.677   1.623
 8692TIP3    H226022   6.106   3.790   1.694
 8693TIP3   OH226023   4.337   3.084   0.617
 8693TIP3    H126024   4.338   3.139   0.539
 8693TIP3    H226025   4.329   3.145   0.690
 8694TIP3   OH226026   6.012   7.732   3.705
 8694TIP3    H126027   5.935   7.770   3.748
 8694TIP3    H226028   6.032   7.794   3.635
 8695TIP3   OH226029   2.216   3.724   0.084
 8695TIP3    H126030   2.281   3.678   0.030
 8695TIP3    H226031   2.219   3.815   0.053
 8696TIP3   OH226032   5.341   4.966   5.700
 8696TIP3    H126033   5.423   4.947   5.746
 8696TIP3    H226034   5.284   5.005   5.766
 8697TIP3   OH226035   3.477   0.787   0.635
 8697TIP3    H126036   3.531   0.729   0.688
 8697TIP3    H226037   3.416   0.728   0.590
 8698TIP3   OH226038   6.798   6.710   5.324
 8698TIP3    H126039   6.828   6.629   5.282
 8698TIP3    H226040   6.878   6.761   5.335
 8699TIP3   OH226041   2.340   3.244   0.775
 8699TIP3    H126042   2.332   3.303   0.699
 8699TIP3    H226043   2.434   3.234   0.787
 8700TIP3   OH226044   4.475   0.631   0.314
 8700TIP3    H126045   4.460   0.536   0.310
 8700TIP3    H226046   4.431   0.658   0.395
 8701TIP3   OH226047   4.750   7.599   0.265
 8701TIP3    H126048   4.673   7.573   0.215
 8701TIP3    H226049   4.722   7.594   0.357
 8702TIP3   OH226050   1.028   6.379   0.312
 8702TIP3    H126051   1.102   6.375   0.373
 8702TIP3    H226052   0.951   6.385   0.367
 8703TIP3   OH226053   6.584   4.704   5.244
 8703TIP3    H126054   6.666   4.716   5.291
 8703TIP3    H226055   6.585   4.770   5.175
 8704TIP3   OH226056   3.773   4.852   5.604
 8704TIP3    H126057   3.678   4.843   5.598
 8704TIP3    H226058   3.786   4.942   5.635
 8705TIP3   OH226059   5.778   1.447   1.120
 8705TIP3    H126060   5.693   1.480   1.093
 8705TIP3    H226061   5.830   1.444   1.039
 8706TIP3   OH226062   6.249   7.301   1.624
 8706TIP3    H126063   6.329   7.249   1.626
 8706TIP3    H226064   6.271   7.381   1.671
 8707TIP3   OH226065   0.545   3.139   3.231
 8707TIP3    H126066   0.481   3.194   3.275
 8707TIP3    H226067   0.498   3.102   3.156
 8708TIP3   OH226068   1.452   0.488   6.402
 8708TIP3    H126069   1.540   0.471   6.370
 8708TIP3    H226070   1.465   0.523   6.490
 8709TIP3   OH226071   0.716   0.931   1.811
 8709TIP3    H126072   0.648   0.977   1.859
 8709TIP3    H226073   0.692   0.839   1.815
 8710TIP3   OH226074   5.094   3.043   0.154
 8710TIP3    H126075   5.014   3.096   0.153
 8710TIP3    H226076   5.164   3.106   0.171
 8711TIP3   OH226077   5.886   4.618   2.740
 8711TIP3    H126078   5.905   4.524   2.740
 8711TIP3    H226079   5.939   4.653   2.668
 8712TIP3   OH226080   4.973   1.524   3.540
 8712TIP3    H126081   4.941   1.541   3.451
 8712TIP3    H226082   5.066   1.546   3.536
 8713TIP3   OH226083   3.685   5.876   4.806
 8713TIP3    H126084   3.774   5.897   4.777
 8713TIP3    H226085   3.693   5.858   4.900
 8714TIP3   OH226086   8.171   1.180   3.322
 8714TIP3    H126087   8.149   1.273   3.317
 8714TIP3    H226088   8.087   1.135   3.328
 8715TIP3   OH226089   3.646   4.310   4.697
 8715TIP3    H126090   3.568   4.267   4.731
 8715TIP3    H226091   3.631   4.317   4.603
 8716TIP3   OH226092   4.560   4.514   3.171
 8716TIP3    H126093   4.534   4.443   3.113
 8716TIP3    H226094   4.614   4.571   3.116
 8717TIP3   OH226095   5.910   3.382   0.590
 8717TIP3    H126096   5.866   3.461   0.559
 8717TIP3    H226097   5.857   3.353   0.665
 8718TIP3   OH226098   1.158   0.509   0.471
 8718TIP3    H126099   1.064   0.522   0.470
 8718TIP3    H226100   1.194   0.592   0.503
 8719TIP3   OH226101   4.850   5.201   0.945
 8719TIP3    H126102   4.816   5.284   0.910
 8719TIP3    H226103   4.842   5.140   0.871
 8720TIP3   OH226104   2.735   1.448   4.702
 8720TIP3    H126105   2.764   1.423   4.614
 8720TIP3    H226106   2.657   1.502   4.687
 8721TIP3   OH226107   7.713   1.166   3.300
 8721TIP3    H126108   7.806   1.154   3.317
 8721TIP3    H226109   7.683   1.227   3.368
 8722TIP3   OH226110   2.542   5.237   1.177
 8722TIP3    H126111   2.632   5.258   1.153
 8722TIP3    H226112   2.527   5.287   1.257
 8723TIP3   OH226113   6.922   1.877   5.666
 8723TIP3    H126114   6.988   1.946   5.671
 8723TIP3    H226115   6.841   1.924   5.646
 8724TIP3   OH226116   2.084   7.336   3.713
 8724TIP3    H126117   2.104   7.396   3.785
 8724TIP3    H226118   2.139   7.365   3.641
 8725TIP3   OH226119   1.726   2.736   5.142
 8725TIP3    H126120   1.795   2.792   5.107
 8725TIP3    H226121   1.752   2.647   5.118
 8726TIP3   OH226122   5.909   0.071   5.904
 8726TIP3    H126123   5.926   0.076   5.998
 8726TIP3    H226124   5.861  -0.011   5.893
 8727TIP3   OH226125   7.573   3.248   0.694
 8727TIP3    H126126   7.653   3.291   0.664
 8727TIP3    H226127   7.540   3.304   0.764
 8728TIP3   OH226128   7.658   4.371   4.956
 8728TIP3    H126129   7.704   4.314   4.895
 8728TIP3    H226130   7.581   4.322   4.983
 8729TIP3   OH226131   2.401   1.633   2.798
 8729TIP3    H126132   2.489   1.671   2.797
 8729TIP3    H226133   2.351   1.692   2.855
 8730TIP3   OH226134   4.221   7.555   6.296
 8730TIP3    H126135   4.274   7.492   6.345
 8730TIP3    H226136   4.281   7.628   6.279
 8731TIP3   OH226137   3.683   7.522   5.691
 8731TIP3    H126138   3.729   7.444   5.721
 8731TIP3    H226139   3.661   7.570   5.771
 8732TIP3   OH226140   6.156   5.273   4.633
 8732TIP3    H126141   6.237   5.227   4.655
 8732TIP3    H226142   6.114   5.217   4.567
 8733TIP3   OH226143   6.680   1.356   0.389
 8733TIP3    H126144   6.773   1.336   0.385
 8733TIP3    H226145   6.673   1.444   0.350
 8734TIP3   OH226146   4.796   6.994   5.583
 8734TIP3    H126147   4.827   6.904   5.579
 8734TIP3    H226148   4.758   7.003   5.670
 8735TIP3   OH226149   6.910   5.139   1.885
 8735TIP3    H126150   6.862   5.096   1.956
 8735TIP3    H226151   6.911   5.232   1.909
 8736TIP3   OH226152   0.458   4.477   3.344
 8736TIP3    H126153   0.489   4.567   3.358
 8736TIP3    H226154   0.369   4.477   3.378
 8737TIP3   OH226155   0.417   0.238   5.533
 8737TIP3    H126156   0.421   0.188   5.614
 8737TIP3    H226157   0.346   0.301   5.546
 8738TIP3   OH226158   6.169   2.925   0.692
 8738TIP3    H126159   6.151   2.840   0.651
 8738TIP3    H226160   6.082   2.958   0.717
 8739TIP3   OH226161   4.425   7.670   1.632
 8739TIP3    H126162   4.334   7.702   1.633
 8739TIP3    H226163   4.419   7.582   1.670
 8740TIP3   OH226164   5.485   7.643   1.666
 8740TIP3    H126165   5.433   7.568   1.639
 8740TIP3    H226166   5.563   7.641   1.611
 8741TIP3   OH226167   6.548   4.168   0.566
 8741TIP3    H126168   6.543   4.219   0.486
 8741TIP3    H226169   6.565   4.078   0.537
 8742TIP3   OH226170   4.365   4.657   4.758
 8742TIP3    H126171   4.295   4.630   4.817
 8742TIP3    H226172   4.355   4.601   4.681
 8743TIP3   OH226173   4.133   7.613   4.574
 8743TIP3    H126174   4.115   7.615   4.480
 8743TIP3    H226175   4.209   7.556   4.583
 8744TIP3   OH226176   4.811   7.620   4.595
 8744TIP3    H126177   4.793   7.546   4.537
 8744TIP3    H226178   4.835   7.579   4.679
 8745TIP3   OH226179   4.024   2.986   3.040
 8745TIP3    H126180   4.120   2.982   3.039
 8745TIP3    H226181   4.002   2.985   3.134
 8746TIP3   OH226182   1.722   7.447   4.593
 8746TIP3    H126183   1.640   7.398   4.589
 8746TIP3    H226184   1.772   7.407   4.663
 8747TIP3   OH226185   6.097   3.903   1.371
 8747TIP3    H126186   6.069   3.847   1.444
 8747TIP3    H226187   6.192   3.890   1.367
 8748TIP3   OH226188   2.269   1.035  -0.025
 8748TIP3    H126189   2.360   1.011  -0.007
 8748TIP3    H226190   2.232   1.054   0.061
 8749TIP3   OH226191   6.086   1.557   4.804
 8749TIP3    H126192   6.022   1.622   4.775
 8749TIP3    H226193   6.168   1.582   4.761
 8750TIP3   OH226194   2.784   3.125   6.476
 8750TIP3    H126195   2.872   3.114   6.514
 8750TIP3    H226196   2.724   3.103   6.548
 8751TIP3   OH226197   6.673   6.767   1.203
 8751TIP3    H126198   6.581   6.742   1.205
 8751TIP3    H226199   6.684   6.822   1.281
 8752TIP3   OH226200   7.646   2.956   2.295
 8752TIP3    H126201   7.651   2.981   2.387
 8752TIP3    H226202   7.553   2.963   2.273
 8753TIP3   OH226203   0.254   7.739   1.564
 8753TIP3    H126204   0.283   7.744   1.473
 8753TIP3    H226205   0.329   7.769   1.616
 8754TIP3   OH226206   4.344   6.812   6.539
 8754TIP3    H126207   4.395   6.799   6.459
 8754TIP3    H226208   4.314   6.903   6.533
 8755TIP3   OH226209   0.340   3.617   4.371
 8755TIP3    H126210   0.392   3.584   4.297
 8755TIP3    H226211   0.389   3.591   4.448
 8756TIP3   OH226212   4.043   7.745   0.773
 8756TIP3    H126213   3.996   7.677   0.725
 8756TIP3    H226214   4.096   7.789   0.706
 8757TIP3   OH226215   3.998   2.139   2.672
 8757TIP3    H126216   4.062   2.092   2.619
 8757TIP3    H226217   4.030   2.229   2.674
 8758TIP3   OH226218   5.389   1.022   3.309
 8758TIP3    H126219   5.391   1.115   3.283
 8758TIP3    H226220   5.438   0.977   3.240
 8759TIP3   OH226221   3.539   4.356   5.015
 8759TIP3    H126222   3.486   4.321   5.086
 8759TIP3    H226223   3.624   4.315   5.026
 8760TIP3   OH226224   7.610   2.676   3.699
 8760TIP3    H126225   7.616   2.682   3.795
 8760TIP3    H226226   7.699   2.659   3.670
 8761TIP3   OH226227   5.402   3.362   3.836
 8761TIP3    H126228   5.384   3.301   3.907
 8761TIP3    H226229   5.369   3.318   3.757
 8762TIP3   OH226230   3.556   3.198   6.447
 8762TIP3    H126231   3.489   3.210   6.514
 8762TIP3    H226232   3.639   3.211   6.493
 8763TIP3   OH226233   6.130   3.440   5.988
 8763TIP3    H126234   6.150   3.483   5.905
 8763TIP3    H226235   6.101   3.510   6.046
 8764TIP3   OH226236   4.368   6.833   0.792
 8764TIP3    H126237   4.387   6.743   0.821
 8764TIP3    H226238   4.438   6.853   0.730
 8765TIP3   OH226239   5.290   1.649   5.316
 8765TIP3    H126240   5.253   1.734   5.341
 8765TIP3    H226241   5.219   1.605   5.268
 8766TIP3   OH226242   7.229   6.895   4.026
 8766TIP3    H126243   7.304   6.951   4.003
 8766TIP3    H226244   7.255   6.854   4.108
 8767TIP3   OH226245   5.709   1.037   4.291
 8767TIP3    H126246   5.653   0.997   4.225
 8767TIP3    H226247   5.788   1.062   4.243
 8768TIP3   OH226248   0.779   6.629   3.630
 8768TIP3    H126249   0.787   6.661   3.540
 8768TIP3    H226250   0.712   6.560   3.624
 8769TIP3   OH226251   5.792   3.993   2.065
 8769TIP3    H126252   5.755   3.905   2.066
 8769TIP3    H226253   5.833   4.000   1.978
 8770TIP3   OH226254   4.896   4.583   4.304
 8770TIP3    H126255   4.968   4.647   4.305
 8770TIP3    H226256   4.896   4.549   4.215
 8771TIP3   OH226257   2.267   0.588   2.318
 8771TIP3    H126258   2.238   0.669   2.276
 8771TIP3    H226259   2.267   0.609   2.412
 8772TIP3   OH226260   7.560   4.849   1.267
 8772TIP3    H126261   7.641   4.876   1.309
 8772TIP3    H226262   7.512   4.931   1.253
 8773TIP3   OH226263   2.618   0.289   0.784
 8773TIP3    H126264   2.673   0.354   0.826
 8773TIP3    H226265   2.664   0.267   0.703
 8774TIP3   OH226266   2.150   7.531   3.885
 8774TIP3    H126267   2.240   7.498   3.891
 8774TIP3    H226268   2.160   7.626   3.878
 8775TIP3   OH226269   1.313   3.451   5.708
 8775TIP3    H126270   1.360   3.430   5.789
 8775TIP3    H226271   1.282   3.366   5.676
 8776TIP3   OH226272   5.821   1.582   5.238
 8776TIP3    H126273   5.750   1.518   5.247
 8776TIP3    H226274   5.878   1.545   5.170
 8777TIP3   OH226275   5.726   0.534   6.086
 8777TIP3    H126276   5.692   0.457   6.132
 8777TIP3    H226277   5.684   0.608   6.131
 8778TIP3   OH226278   0.243   4.541   2.572
 8778TIP3    H126279   0.324   4.489   2.580
 8778TIP3    H226280   0.175   4.482   2.604
 8779TIP3   OH226281   6.272   1.149   0.491
 8779TIP3    H126282   6.209   1.113   0.428
 8779TIP3    H226283   6.325   1.210   0.440
 8780TIP3   OH226284   4.713   1.458   4.071
 8780TIP3    H126285   4.687   1.481   3.982
 8780TIP3    H226286   4.707   1.541   4.119
 8781TIP3   OH226287   5.852   1.756   4.365
 8781TIP3    H126288   5.848   1.668   4.328
 8781TIP3    H226289   5.761   1.779   4.383
 8782TIP3   OH226290   0.184   1.019   1.455
 8782TIP3    H126291   0.118   0.987   1.394
 8782TIP3    H226292   0.229   0.940   1.485
 8783TIP3   OH226293   3.459   1.352   5.870
 8783TIP3    H126294   3.421   1.392   5.949
 8783TIP3    H226295   3.393   1.288   5.842
 8784TIP3   OH226296   5.706   7.478   4.654
 8784TIP3    H126297   5.708   7.561   4.700
 8784TIP3    H226298   5.735   7.499   4.565
 8785TIP3   OH226299   5.074   0.467   4.370
 8785TIP3    H126300   5.121   0.549   4.359
 8785TIP3    H226301   5.111   0.429   4.450
 8786TIP3   OH226302   3.032   7.768   4.608
 8786TIP3    H126303   3.013   7.799   4.519
 8786TIP3    H226304   2.951   7.725   4.636
 8787TIP3   OH226305   6.178   3.613   6.216
 8787TIP3    H126306   6.205   3.664   6.140
 8787TIP3    H226307   6.089   3.642   6.235
 8788TIP3   OH226308   0.999   0.997   6.372
 8788TIP3    H126309   1.010   0.961   6.460
 8788TIP3    H226310   1.005   0.921   6.314
 8789TIP3   OH226311   1.609   6.415   5.801
 8789TIP3    H126312   1.597   6.375   5.888
 8789TIP3    H226313   1.701   6.399   5.780
 8790TIP3   OH226314   0.058   1.559   3.342
 8790TIP3    H126315   0.094   1.482   3.298
 8790TIP3    H226316   0.017   1.525   3.422
 8791TIP3   OH226317   7.542   2.056   0.250
 8791TIP3    H126318   7.493   2.041   0.169
 8791TIP3    H226319   7.485   2.022   0.319
 8792TIP3   OH226320   3.286   3.108   1.418
 8792TIP3    H126321   3.261   3.067   1.335
 8792TIP3    H226322   3.379   3.090   1.427
 8793TIP3   OH226323   5.175   6.476   5.247
 8793TIP3    H126324   5.159   6.540   5.177
 8793TIP3    H226325   5.110   6.497   5.314
 8794TIP3   OH226326   2.563   2.410   0.331
 8794TIP3    H126327   2.656   2.411   0.308
 8794TIP3    H226328   2.520   2.458   0.260
 8795TIP3   OH226329   3.900   3.922   6.469
 8795TIP3    H126330   3.809   3.893   6.456
 8795TIP3    H226331   3.947   3.843   6.493
 8796TIP3   OH226332   7.554   0.838   2.979
 8796TIP3    H126333   7.462   0.818   2.993
 8796TIP3    H226334   7.579   0.892   3.054
 8797TIP3   OH226335   4.567   1.402   3.398
 8797TIP3    H126336   4.528   1.347   3.466
 8797TIP3    H226337   4.657   1.372   3.392
 8798TIP3   OH226338   7.312   4.941   3.977
 8798TIP3    H126339   7.269   5.026   3.973
 8798TIP3    H226340   7.310   4.917   4.070
 8799TIP3   OH226341   4.761   2.006   4.501
 8799TIP3    H126342   4.765   2.099   4.477
 8799TIP3    H226343   4.668   1.988   4.510
 8800TIP3   OH226344   7.217   2.688   4.229
 8800TIP3    H126345   7.223   2.735   4.312
 8800TIP3    H226346   7.127   2.703   4.199
 8801TIP3   OH226347   5.021   7.003   2.756
 8801TIP3    H126348   5.008   7.015   2.850
 8801TIP3    H226349   5.100   6.949   2.749
 8802TIP3   OH226350  -0.008   5.869   0.601
 8802TIP3    H126351   0.032   5.786   0.573
 8802TIP3    H226352  -0.061   5.895   0.525
 8803TIP3   OH226353   1.496   1.351   5.220
 8803TIP3    H126354   1.493   1.433   5.171
 8803TIP3    H226355   1.437   1.293   5.171
 8804TIP3   OH226356   6.497   1.261   1.869
 8804TIP3    H126357   6.459   1.304   1.946
 8804TIP3    H226358   6.475   1.319   1.796
 8805TIP3   OH226359   1.657   2.753   3.960
 8805TIP3    H126360   1.638   2.659   3.962
 8805TIP3    H226361   1.746   2.760   3.994
 8806TIP3   OH226362   6.968   2.907   6.716
 8806TIP3    H126363   6.892   2.887   6.771
 8806TIP3    H226364   6.940   2.980   6.661
 8807TIP3   OH226365   4.210   7.018   0.313
 8807TIP3    H126366   4.272   6.951   0.285
 8807TIP3    H226367   4.189   6.995   0.404
 8808TIP3   OH226368   0.312   0.189   3.619
 8808TIP3    H126369   0.374   0.147   3.559
 8808TIP3    H226370   0.319   0.136   3.699
 8809TIP3   OH226371   1.487   1.592   6.025
 8809TIP3    H126372   1.422   1.662   6.029
 8809TIP3    H226373   1.506   1.581   5.932
 8810TIP3   OH226374   1.511   5.550   4.202
 8810TIP3    H126375   1.530   5.485   4.134
 8810TIP3    H226376   1.424   5.582   4.180
 8811TIP3   OH226377   4.522   1.414   6.141
 8811TIP3    H126378   4.463   1.413   6.216
 8811TIP3    H226379   4.604   1.377   6.174
 8812TIP3   OH226380   6.592   6.610   0.380
 8812TIP3    H126381   6.678   6.651   0.386
 8812TIP3    H226382   6.609   6.518   0.400
 8813TIP3   OH226383   6.170   6.768   0.837
 8813TIP3    H126384   6.107   6.783   0.767
 8813TIP3    H226385   6.240   6.831   0.822
 8814TIP3   OH226386   5.045   2.761   2.008
 8814TIP3    H126387   5.130   2.805   2.006
 8814TIP3    H226388   4.985   2.827   2.044
 8815TIP3   OH226389   7.972   5.846   4.151
 8815TIP3    H126390   8.007   5.759   4.132
 8815TIP3    H226391   8.048   5.897   4.179
 8816TIP3   OH226392   4.674   5.198   5.199
 8816TIP3    H126393   4.675   5.102   5.205
 8816TIP3    H226394   4.732   5.218   5.125
 8817TIP3   OH226395   4.857   7.196   4.692
 8817TIP3    H126396   4.896   7.110   4.673
 8817TIP3    H226397   4.855   7.201   4.787
 8818TIP3   OH226398   3.462   0.134   3.421
 8818TIP3    H126399   3.523   0.180   3.479
 8818TIP3    H226400   3.448   0.050   3.464
 8819TIP3   OH226401   5.034   6.958   1.504
 8819TIP3    H126402   5.004   6.874   1.540
 8819TIP3    H226403   4.958   7.016   1.512
 8820TIP3   OH226404   6.652   0.556   3.262
 8820TIP3    H126405   6.704   0.635   3.248
 8820TIP3    H226406   6.637   0.522   3.174
 8821TIP3   OH226407   2.923   2.975   4.528
 8821TIP3    H126408   2.936   3.038   4.598
 8821TIP3    H226409   2.954   3.019   4.449
 8822TIP3   OH226410   0.500   1.805   6.237
 8822TIP3    H126411   0.486   1.884   6.289
 8822TIP3    H226412   0.495   1.733   6.300
 8823TIP3   OH226413   7.598   1.162   2.320
 8823TIP3    H126414   7.665   1.097   2.342
 8823TIP3    H226415   7.647   1.244   2.310
 8824TIP3   OH226416   3.587   3.330   5.413
 8824TIP3    H126417   3.666   3.382   5.431
 8824TIP3    H226418   3.591   3.259   5.478
 8825TIP3   OH226419   0.246   3.325   0.599
 8825TIP3    H126420   0.171   3.365   0.555
 8825TIP3    H226421   0.243   3.233   0.571
 8826TIP3   OH226422   2.228   6.052   3.592
 8826TIP3    H126423   2.136   6.031   3.576
 8826TIP3    H226424   2.276   5.998   3.528
 8827TIP3   OH226425   2.985   2.426   0.975
 8827TIP3    H126426   3.017   2.434   0.885
 8827TIP3    H226427   2.890   2.431   0.967
 8828TIP3   OH226428   7.120   6.055   1.754
 8828TIP3    H126429   7.163   6.100   1.827
 8828TIP3    H226430   7.171   6.080   1.677
 8829TIP3   OH226431   3.840   5.225   3.398
 8829TIP3    H126432   3.918   5.216   3.452
 8829TIP3    H226433   3.858   5.170   3.321
 8830TIP3   OH226434   4.441   6.795   1.454
 8830TIP3    H126435   4.352   6.759   1.457
 8830TIP3    H226436   4.486   6.742   1.389
 8831TIP3   OH226437   0.218   2.469   4.593
 8831TIP3    H126438   0.309   2.477   4.623
 8831TIP3    H226439   0.167   2.460   4.674
 8832TIP3   OH226440   8.047   2.802   6.657
 8832TIP3    H126441   8.130   2.782   6.700
 8832TIP3    H226442   8.057   2.891   6.624
 8833TIP3   OH226443   4.140   5.436   3.784
 8833TIP3    H126444   4.182   5.422   3.868
 8833TIP3    H226445   4.050   5.459   3.805
 8834TIP3   OH226446   4.224   5.953   5.156
 8834TIP3    H126447   4.141   5.999   5.162
 8834TIP3    H226448   4.271   5.999   5.086
 8835TIP3   OH226449   7.442   0.856   4.508
 8835TIP3    H126450   7.424   0.937   4.557
 8835TIP3    H226451   7.453   0.790   4.576
 8836TIP3   OH226452   4.711   7.092   2.488
 8836TIP3    H126453   4.672   7.013   2.452
 8836TIP3    H226454   4.636   7.145   2.516
 8837TIP3   OH226455   4.235   6.572   1.215
 8837TIP3    H126456   4.235   6.527   1.131
 8837TIP3    H226457   4.213   6.663   1.194
 8838TIP3   OH226458   3.220   5.789   2.926
 8838TIP3    H126459   3.202   5.866   2.980
 8838TIP3    H226460   3.278   5.735   2.980
 8839TIP3   OH226461   4.976   6.725   4.204
 8839TIP3    H126462   4.953   6.666   4.276
 8839TIP3    H226463   5.017   6.668   4.139
 8840TIP3   OH226464   7.413   4.115   1.552
 8840TIP3    H126465   7.331   4.160   1.572
 8840TIP3    H226466   7.456   4.105   1.637
 8841TIP3   OH226467   7.836   0.772   3.808
 8841TIP3    H126468   7.772   0.770   3.879
 8841TIP3    H226469   7.903   0.833   3.838
 8842TIP3   OH226470   2.426   6.401   6.070
 8842TIP3    H126471   2.462   6.434   6.152
 8842TIP3    H226472   2.358   6.339   6.096
 8843TIP3   OH226473   6.788   6.508   4.018
 8843TIP3    H126474   6.814   6.483   4.107
 8843TIP3    H226475   6.710   6.454   4.000
 8844TIP3   OH226476   1.228   0.455   3.405
 8844TIP3    H126477   1.134   0.434   3.405
 8844TIP3    H226478   1.233   0.544   3.370
 8845TIP3   OH226479   5.526   5.445   4.304
 8845TIP3    H126480   5.519   5.537   4.278
 8845TIP3    H226481   5.607   5.414   4.264
 8846TIP3   OH226482   2.023   1.023   6.718
 8846TIP3    H126483   2.065   1.079   6.784
 8846TIP3    H226484   2.042   1.067   6.634
 8847TIP3   OH226485   1.386   6.119   6.510
 8847TIP3    H126486   1.304   6.124   6.558
 8847TIP3    H226487   1.385   6.195   6.452
 8848TIP3   OH226488   3.441   4.739   3.486
 8848TIP3    H126489   3.507   4.803   3.513
 8848TIP3    H226490   3.452   4.666   3.548
 8849TIP3   OH226491   4.194   5.521   3.299
 8849TIP3    H126492   4.147   5.458   3.353
 8849TIP3    H226493   4.136   5.597   3.295
 8850TIP3   OH226494   1.549   1.247   1.536
 8850TIP3    H126495   1.550   1.252   1.440
 8850TIP3    H226496   1.511   1.161   1.554
 8851TIP3   OH226497   6.385   4.880   0.182
 8851TIP3    H126498   6.401   4.852   0.092
 8851TIP3    H226499   6.445   4.826   0.235
 8852TIP3   OH226500   3.438   0.168   3.049
 8852TIP3    H126501   3.493   0.212   2.984
 8852TIP3    H226502   3.400   0.094   3.002
 8853TIP3   OH226503   1.191   4.960   3.522
 8853TIP3    H126504   1.269   4.904   3.522
 8853TIP3    H226505   1.225   5.048   3.536
 8854TIP3   OH226506   0.764   1.932   0.567
 8854TIP3    H126507   0.849   1.951   0.528
 8854TIP3    H226508   0.732   1.855   0.519
 8855TIP3   OH226509   6.942   4.174   4.522
 8855TIP3    H126510   6.882   4.171   4.597
 8855TIP3    H226511   7.020   4.218   4.555
 8856TIP3   OH226512   7.953   2.077   4.174
 8856TIP3    H126513   7.868   2.086   4.131
 8856TIP3    H226514   7.949   2.139   4.246
 8857TIP3   OH226515   3.517   2.519   5.143
 8857TIP3    H126516   3.482   2.585   5.083
 8857TIP3    H226517   3.612   2.524   5.134
 8858TIP3   OH226518   0.770   0.808   3.187
 8858TIP3    H126519   0.700   0.798   3.123
 8858TIP3    H226520   0.729   0.786   3.271
 8859TIP3   OH226521   4.956   5.069   6.375
 8859TIP3    H126522   5.004   5.130   6.430
 8859TIP3    H226523   5.002   4.986   6.386
 8860TIP3   OH226524   1.324   3.336   3.489
 8860TIP3    H126525   1.319   3.243   3.510
 8860TIP3    H226526   1.407   3.365   3.528
 8861TIP3   OH226527   6.731   0.658   6.676
 8861TIP3    H126528   6.811   0.641   6.626
 8861TIP3    H226529   6.710   0.574   6.716
 8862TIP3   OH226530   6.946   1.435   1.499
 8862TIP3    H126531   6.973   1.526   1.514
 8862TIP3    H226532   7.029   1.387   1.493
 8863TIP3   OH226533   6.005   4.951   3.192
 8863TIP3    H126534   5.943   4.933   3.122
 8863TIP3    H226535   6.091   4.946   3.151
 8864TIP3   OH226536   4.098   7.425   1.863
 8864TIP3    H126537   4.019   7.374   1.845
 8864TIP3    H226538   4.080   7.511   1.826
 8865TIP3   OH226539   7.028   5.345   6.749
 8865TIP3    H126540   7.047   5.417   6.689
 8865TIP3    H226541   6.939   5.363   6.781
 8866TIP3   OH226542   2.607   1.728   5.600
 8866TIP3    H126543   2.545   1.722   5.528
 8866TIP3    H226544   2.645   1.816   5.592
 8867TIP3   OH226545   2.291   5.940   0.231
 8867TIP3    H126546   2.232   5.879   0.276
 8867TIP3    H226547   2.250   5.952   0.145
 8868TIP3   OH226548   1.863   7.693   6.266
 8868TIP3    H126549   1.872   7.600   6.244
 8868TIP3    H226550   1.944   7.733   6.235
 8869TIP3   OH226551   2.386   3.144   2.129
 8869TIP3    H126552   2.314   3.205   2.116
 8869TIP3    H226553   2.423   3.131   2.042
 8870TIP3   OH226554   2.165   6.459   0.300
 8870TIP3    H126555   2.078   6.499   0.294
 8870TIP3    H226556   2.150   6.367   0.277
 8871TIP3   OH226557   1.906   3.803   1.347
 8871TIP3    H126558   1.931   3.827   1.258
 8871TIP3    H226559   1.903   3.707   1.347
 8872TIP3   OH226560   7.775   0.378   1.552
 8872TIP3    H126561   7.759   0.304   1.494
 8872TIP3    H226562   7.785   0.339   1.639
 8873TIP3   OH226563   1.400   0.646   2.169
 8873TIP3    H126564   1.446   0.730   2.178
 8873TIP3    H226565   1.307   0.670   2.166
 8874TIP3   OH226566   7.994   3.654   1.401
 8874TIP3    H126567   7.925   3.719   1.401
 8874TIP3    H226568   8.058   3.686   1.464
 8875TIP3   OH226569   4.858   5.620   5.042
 8875TIP3    H126570   4.817   5.537   5.018
 8875TIP3    H226571   4.952   5.601   5.043
 8876TIP3   OH226572   1.916   4.514   6.733
 8876TIP3    H126573   1.948   4.573   6.665
 8876TIP3    H226574   1.973   4.531   6.808
 8877TIP3   OH226575   5.195   2.601   2.749
 8877TIP3    H126576   5.109   2.605   2.708
 8877TIP3    H226577   5.247   2.544   2.692
 8878TIP3   OH226578   4.689   0.460   4.302
 8878TIP3    H126579   4.614   0.518   4.289
 8878TIP3    H226580   4.652   0.372   4.297
 8879TIP3   OH226581   8.055   6.509   2.209
 8879TIP3    H126582   8.044   6.599   2.238
 8879TIP3    H226583   7.969   6.485   2.174
 8880TIP3   OH226584   6.512   3.454   5.894
 8880TIP3    H126585   6.449   3.509   5.849
 8880TIP3    H226586   6.460   3.402   5.955
 8881TIP3   OH226587   5.572   1.457   2.986
 8881TIP3    H126588   5.512   1.485   2.917
 8881TIP3    H226589   5.624   1.535   3.006
 8882TIP3   OH226590   3.495   7.500   0.438
 8882TIP3    H126591   3.533   7.588   0.442
 8882TIP3    H226592   3.449   7.498   0.355
 8883TIP3   OH226593   5.304   5.960   2.561
 8883TIP3    H126594   5.298   5.995   2.472
 8883TIP3    H226595   5.397   5.960   2.582
 8884TIP3   OH226596   5.937   4.993  -0.019
 8884TIP3    H126597   6.032   5.003  -0.011
 8884TIP3    H226598   5.902   5.078   0.009
 8885TIP3   OH226599   1.486   7.349   1.116
 8885TIP3    H126600   1.571   7.334   1.159
 8885TIP3    H226601   1.431   7.386   1.184
 8886TIP3   OH226602   6.731   2.095   5.570
 8886TIP3    H126603   6.654   2.139   5.535
 8886TIP3    H226604   6.786   2.166   5.603
 8887TIP3   OH226605   7.868   0.669   6.133
 8887TIP3    H126606   7.867   0.673   6.037
 8887TIP3    H226607   7.821   0.748   6.160
 8888TIP3   OH226608   7.422   2.703   1.711
 8888TIP3    H126609   7.436   2.776   1.651
 8888TIP3    H226610   7.330   2.710   1.737
 8889TIP3   OH226611   6.948   4.527   4.617
 8889TIP3    H126612   7.000   4.472   4.558
 8889TIP3    H226613   7.011   4.560   4.681
 8890TIP3   OH226614   2.065   0.035   2.278
 8890TIP3    H126615   2.047   0.077   2.362
 8890TIP3    H226616   2.095   0.106   2.221
 8891TIP3   OH226617   0.616   7.781   3.646
 8891TIP3    H126618   0.531   7.769   3.688
 8891TIP3    H226619   0.679   7.779   3.718
 8892TIP3   OH226620   3.142   7.652   0.843
 8892TIP3    H126621   3.130   7.691   0.757
 8892TIP3    H226622   3.070   7.688   0.896
 8893TIP3   OH226623   4.980   3.914   4.389
 8893TIP3    H126624   4.973   3.824   4.419
 8893TIP3    H226625   4.955   3.911   4.296
 8894TIP3   OH226626   1.966   2.882   3.064
 8894TIP3    H126627   2.013   2.965   3.050
 8894TIP3    H226628   2.005   2.822   3.001
 8895TIP3   OH226629   7.411   1.565   0.158
 8895TIP3    H126630   7.421   1.472   0.135
 8895TIP3    H226631   7.339   1.596   0.103
 8896TIP3   OH226632   5.567   0.122   0.809
 8896TIP3    H126633   5.488   0.068   0.804
 8896TIP3    H226634   5.603   0.104   0.896
 8897TIP3   OH226635   0.504   1.162   4.874
 8897TIP3    H126636   0.567   1.213   4.926
 8897TIP3    H226637   0.422   1.169   4.924
 8898TIP3   OH226638   6.902   6.367   1.844
 8898TIP3    H126639   6.947   6.314   1.909
 8898TIP3    H226640   6.822   6.318   1.825
 8899TIP3   OH226641   6.355   0.591   6.513
 8899TIP3    H126642   6.309   0.513   6.543
 8899TIP3    H226643   6.286   0.653   6.491
 8900TIP3   OH226644   5.684   0.792   4.893
 8900TIP3    H126645   5.667   0.729   4.823
 8900TIP3    H226646   5.616   0.858   4.882
 8901TIP3   OH226647   6.307   2.894   0.429
 8901TIP3    H126648   6.354   2.841   0.493
 8901TIP3    H226649   6.256   2.831   0.378
 8902TIP3   OH226650   2.295   6.252   4.887
 8902TIP3    H126651   2.344   6.175   4.858
 8902TIP3    H226652   2.212   6.217   4.920
 8903TIP3   OH226653   2.629   3.975   0.527
 8903TIP3    H126654   2.651   4.064   0.500
 8903TIP3    H226655   2.712   3.929   0.529
 8904TIP3   OH226656   1.391   5.241   1.106
 8904TIP3    H126657   1.429   5.164   1.063
 8904TIP3    H226658   1.314   5.262   1.053
 8905TIP3   OH226659   3.035   7.121   2.400
 8905TIP3    H126660   3.053   7.035   2.437
 8905TIP3    H226661   2.940   7.125   2.396
 8906TIP3   OH226662   3.756   6.249   4.824
 8906TIP3    H126663   3.839   6.206   4.803
 8906TIP3    H226664   3.724   6.202   4.901
 8907TIP3   OH226665   5.376   3.649   1.346
 8907TIP3    H126666   5.431   3.711   1.299
 8907TIP3    H226667   5.419   3.564   1.333
 8908TIP3   OH226668   5.577   4.872   2.832
 8908TIP3    H126669   5.564   4.955   2.878
 8908TIP3    H226670   5.520   4.877   2.755
 8909TIP3   OH226671   1.862   5.132   3.479
 8909TIP3    H126672   1.841   5.092   3.394
 8909TIP3    H226673   1.877   5.224   3.458
 8910TIP3   OH226674   1.001   3.080   4.185
 8910TIP3    H126675   1.036   2.992   4.168
 8910TIP3    H226676   1.023   3.130   4.107
 8911TIP3   OH226677   2.510   3.480   3.508
 8911TIP3    H126678   2.565   3.554   3.480
 8911TIP3    H226679   2.564   3.434   3.572
 8912TIP3   OH226680   1.312   3.743   5.758
 8912TIP3    H126681   1.360   3.778   5.683
 8912TIP3    H226682   1.285   3.655   5.731
 8913TIP3   OH226683   5.166   0.466   3.744
 8913TIP3    H126684   5.194   0.555   3.722
 8913TIP3    H226685   5.248   0.418   3.756
 8914TIP3   OH226686   6.844   1.609   5.755
 8914TIP3    H126687   6.863   1.693   5.713
 8914TIP3    H226688   6.924   1.588   5.804
 8915TIP3   OH226689   6.563   1.308   3.881
 8915TIP3    H126690   6.586   1.257   3.803
 8915TIP3    H226691   6.469   1.322   3.874
 8916TIP3   OH226692   1.193   3.922   2.835
 8916TIP3    H126693   1.190   4.017   2.848
 8916TIP3    H226694   1.284   3.903   2.813
 8917TIP3   OH226695   4.639   5.836   6.015
 8917TIP3    H126696   4.549   5.819   5.987
 8917TIP3    H226697   4.632   5.904   6.081
 8918TIP3   OH226698   5.539   0.423   2.867
 8918TIP3    H126699   5.587   0.401   2.947
 8918TIP3    H226700   5.603   0.412   2.797
 8919TIP3   OH226701   2.187   3.275   6.473
 8919TIP3    H126702   2.144   3.190   6.480
 8919TIP3    H226703   2.235   3.284   6.555
 8920TIP3   OH226704   1.696   5.553   6.746
 8920TIP3    H126705   1.611   5.509   6.745
 8920TIP3    H226706   1.675   5.646   6.739
 8921TIP3   OH226707   8.213   7.187   5.648
 8921TIP3    H126708   8.144   7.206   5.584
 8921TIP3    H226709   8.208   7.259   5.711
 8922TIP3   OH226710   4.933   2.412   4.283
 8922TIP3    H126711   4.916   2.459   4.365
 8922TIP3    H226712   4.903   2.473   4.215
 8923TIP3   OH226713   6.310   5.302   0.369
 8923TIP3    H126714   6.343   5.213   0.357
 8923TIP3    H226715   6.386   5.351   0.401
 8924TIP3   OH226716   3.395   2.003   5.038
 8924TIP3    H126717   3.331   1.948   5.083
 8924TIP3    H226718   3.356   2.091   5.040
 8925TIP3   OH226719   6.600   3.277   1.742
 8925TIP3    H126720   6.536   3.236   1.683
 8925TIP3    H226721   6.670   3.307   1.683
 8926TIP3   OH226722   0.280   3.154   2.877
 8926TIP3    H126723   0.186   3.137   2.870
 8926TIP3    H226724   0.288   3.248   2.861
 8927TIP3   OH226725   6.672   2.731   5.324
 8927TIP3    H126726   6.634   2.703   5.241
 8927TIP3    H226727   6.688   2.649   5.372
 8928TIP3   OH226728   7.121   3.827   1.764
 8928TIP3    H126729   7.027   3.841   1.774
 8928TIP3    H226730   7.158   3.853   1.848
 8929TIP3   OH226731   3.375   6.470   0.991
 8929TIP3    H126732   3.389   6.377   1.005
 8929TIP3    H226733   3.366   6.479   0.896
 8930TIP3   OH226734   8.053   0.720   6.310
 8930TIP3    H126735   8.044   0.814   6.320
 8930TIP3    H226736   7.985   0.695   6.247
 8931TIP3   OH226737   8.138   1.928   6.401
 8931TIP3    H126738   8.122   1.911   6.308
 8931TIP3    H226739   8.065   1.884   6.446
 8932TIP3   OH226740   4.091   1.873   5.916
 8932TIP3    H126741   4.011   1.834   5.951
 8932TIP3    H226742   4.122   1.931   5.986
 8933TIP3   OH226743   4.354   5.315   4.333
 8933TIP3    H126744   4.270   5.345   4.369
 8933TIP3    H226745   4.410   5.393   4.335
 8934TIP3   OH226746   5.384   5.422   1.210
 8934TIP3    H126747   5.310   5.458   1.259
 8934TIP3    H226748   5.364   5.329   1.201
 8935TIP3   OH226749   7.245   4.295   4.871
 8935TIP3    H126750   7.215   4.299   4.780
 8935TIP3    H226751   7.203   4.370   4.914
 8936TIP3   OH226752   5.891   2.933   1.576
 8936TIP3    H126753   5.911   2.871   1.646
 8936TIP3    H226754   5.894   2.880   1.496
 8937TIP3   OH226755   5.669   7.158   1.895
 8937TIP3    H126756   5.749   7.144   1.945
 8937TIP3    H226757   5.612   7.085   1.919
 8938TIP3   OH226758   0.178   7.220   4.773
 8938TIP3    H126759   0.094   7.229   4.819
 8938TIP3    H226760   0.159   7.158   4.702
 8939TIP3   OH226761   6.097   5.176   3.998
 8939TIP3    H126762   6.170   5.141   4.049
 8939TIP3    H226763   6.020   5.131   4.031
 8940TIP3   OH226764   1.017   3.621   5.513
 8940TIP3    H126765   1.110   3.638   5.508
 8940TIP3    H226766   0.993   3.591   5.426
 8941TIP3   OH226767   7.044   3.388   5.918
 8941TIP3    H126768   7.001   3.421   5.997
 8941TIP3    H226769   7.091   3.310   5.946
 8942TIP3   OH226770   4.970   1.341   1.079
 8942TIP3    H126771   4.926   1.259   1.058
 8942TIP3    H226772   4.906   1.390   1.131
 8943TIP3   OH226773   2.499   5.805   0.086
 8943TIP3    H126774   2.437   5.838   0.151
 8943TIP3    H226775   2.481   5.711   0.082
 8944TIP3   OH226776   7.248   0.921   6.302
 8944TIP3    H126777   7.262   0.827   6.309
 8944TIP3    H226778   7.200   0.932   6.220
 8945TIP3   OH226779   3.055   1.353   4.688
 8945TIP3    H126780   2.974   1.398   4.713
 8945TIP3    H226781   3.068   1.378   4.596
 8946TIP3   OH226782   1.506   0.626   0.466
 8946TIP3    H126783   1.427   0.680   0.468
 8946TIP3    H226784   1.577   0.687   0.450
 8947TIP3   OH226785   3.886   3.888   4.690
 8947TIP3    H126786   3.817   3.842   4.642
 8947TIP3    H226787   3.899   3.836   4.769
 8948TIP3   OH226788   6.243   3.952   1.862
 8948TIP3    H126789   6.297   3.924   1.936
 8948TIP3    H226790   6.305   3.982   1.796
 8949TIP3   OH226791   1.642   4.990   2.323
 8949TIP3    H126792   1.679   4.963   2.239
 8949TIP3    H226793   1.620   4.908   2.367
 8950TIP3   OH226794   6.714   7.303   4.939
 8950TIP3    H126795   6.673   7.234   4.887
 8950TIP3    H226796   6.675   7.294   5.026
 8951TIP3   OH226797   7.798   6.081   3.090
 8951TIP3    H126798   7.788   6.119   3.177
 8951TIP3    H226799   7.835   6.151   3.037
 8952TIP3   OH226800   1.855   1.796   3.024
 8952TIP3    H126801   1.875   1.723   3.083
 8952TIP3    H226802   1.760   1.793   3.012
 8953TIP3   OH226803   3.092   2.049   3.296
 8953TIP3    H126804   3.132   2.107   3.231
 8953TIP3    H226805   3.132   2.075   3.379
 8954TIP3   OH226806   7.771   2.705   2.233
 8954TIP3    H126807   7.763   2.799   2.245
 8954TIP3    H226808   7.757   2.668   2.320
 8955TIP3   OH226809   1.780   3.134   3.971
 8955TIP3    H126810   1.860   3.082   3.976
 8955TIP3    H226811   1.714   3.082   4.016
 8956TIP3   OH226812   5.961   0.857   4.245
 8956TIP3    H126813   5.884   0.800   4.247
 8956TIP3    H226814   5.975   0.875   4.152
 8957TIP3   OH226815   0.968   7.122   0.759
 8957TIP3    H126816   0.878   7.133   0.731
 8957TIP3    H226817   0.965   7.132   0.854
 8958TIP3   OH226818   6.534   0.540   2.237
 8958TIP3    H126819   6.622   0.557   2.205
 8958TIP3    H226820   6.537   0.451   2.272
 8959TIP3   OH226821   3.324   5.820   4.019
 8959TIP3    H126822   3.307   5.832   4.112
 8959TIP3    H226823   3.414   5.787   4.014
 8960TIP3   OH226824   4.211   3.722   4.620
 8960TIP3    H126825   4.196   3.651   4.682
 8960TIP3    H226826   4.134   3.778   4.627
 8961TIP3   OH226827   1.946   1.560   4.559
 8961TIP3    H126828   1.925   1.475   4.597
 8961TIP3    H226829   1.898   1.563   4.476
 8962TIP3   OH226830   0.626   1.503   2.395
 8962TIP3    H126831   0.679   1.565   2.445
 8962TIP3    H226832   0.644   1.525   2.304
 8963TIP3   OH226833   8.061   0.053   5.300
 8963TIP3    H126834   8.151   0.027   5.322
 8963TIP3    H226835   8.017  -0.029   5.277
 8964TIP3   OH226836   6.603   2.532   0.315
 8964TIP3    H126837   6.632   2.474   0.245
 8964TIP3    H226838   6.559   2.474   0.377
 8965TIP3   OH226839   4.003   5.087   3.618
 8965TIP3    H126840   4.015   5.090   3.713
 8965TIP3    H226841   4.077   5.135   3.582
 8966TIP3   OH226842   0.730   5.445   4.469
 8966TIP3    H126843   0.825   5.439   4.456
 8966TIP3    H226844   0.706   5.360   4.506
 8967TIP3   OH226845   4.132   7.281   6.607
 8967TIP3    H126846   4.136   7.246   6.518
 8967TIP3    H226847   4.193   7.355   6.607
 8968TIP3   OH226848   1.870   4.448   5.401
 8968TIP3    H126849   1.846   4.421   5.313
 8968TIP3    H226850   1.820   4.528   5.416
 8969TIP3   OH226851   3.247   4.060   3.296
 8969TIP3    H126852   3.189   4.074   3.221
 8969TIP3    H226853   3.322   4.014   3.259
 8970TIP3   OH226854   4.778   2.168   2.937
 8970TIP3    H126855   4.701   2.205   2.979
 8970TIP3    H226856   4.771   2.074   2.951
 8971TIP3   OH226857   6.999   5.137   3.789
 8971TIP3    H126858   7.079   5.182   3.763
 8971TIP3    H226859   6.956   5.114   3.707
 8972TIP3   OH226860   3.653   3.704   2.755
 8972TIP3    H126861   3.735   3.692   2.708
 8972TIP3    H226862   3.631   3.617   2.789
 8973TIP3   OH226863   0.155   3.447   4.162
 8973TIP3    H126864   0.122   3.516   4.105
 8973TIP3    H226865   0.238   3.481   4.195
 8974TIP3   OH226866   4.758   4.474   2.853
 8974TIP3    H126867   4.802   4.458   2.770
 8974TIP3    H226868   4.828   4.481   2.917
 8975TIP3   OH226869   7.434   6.534   4.250
 8975TIP3    H126870   7.429   6.471   4.322
 8975TIP3    H226871   7.465   6.615   4.290
 8976TIP3   OH226872   5.720   7.550   6.650
 8976TIP3    H126873   5.678   7.507   6.576
 8976TIP3    H226874   5.811   7.520   6.647
 8977TIP3   OH226875   0.538   7.386   2.627
 8977TIP3    H126876   0.576   7.386   2.715
 8977TIP3    H226877   0.469   7.320   2.631
 8978TIP3   OH226878   5.290   4.938   4.138
 8978TIP3    H126879   5.281   4.989   4.058
 8978TIP3    H226880   5.346   4.991   4.194
 8979TIP3   OH226881   4.005   7.155   0.178
 8979TIP3    H126882   3.946   7.172   0.252
 8979TIP3    H226883   4.079   7.110   0.217
 8980TIP3   OH226884   5.908   0.400   2.564
 8980TIP3    H126885   5.906   0.312   2.528
 8980TIP3    H226886   5.963   0.450   2.503
 8981TIP3   OH226887   1.124   2.659   4.427
 8981TIP3    H126888   1.112   2.578   4.378
 8981TIP3    H226889   1.210   2.650   4.468
 8982TIP3   OH226890   7.649   1.723   4.013
 8982TIP3    H126891   7.672   1.813   3.989
 8982TIP3    H226892   7.724   1.671   3.984
 8983TIP3   OH226893   2.266   6.048   4.348
 8983TIP3    H126894   2.217   6.068   4.268
 8983TIP3    H226895   2.328   6.121   4.357
 8984TIP3   OH226896   2.479   1.432   2.084
 8984TIP3    H126897   2.554   1.396   2.036
 8984TIP3    H226898   2.497   1.409   2.176
 8985TIP3   OH226899   5.049   7.275   4.486
 8985TIP3    H126900   5.004   7.260   4.403
 8985TIP3    H226901   5.046   7.190   4.530
 8986TIP3   OH226902   2.007   4.771   3.892
 8986TIP3    H126903   2.074   4.705   3.909
 8986TIP3    H226904   1.986   4.762   3.799
 8987TIP3   OH226905   7.436   3.012   2.967
 8987TIP3    H126906   7.375   2.997   3.039
 8987TIP3    H226907   7.422   3.104   2.942
 8988TIP3   OH226908   8.132   3.503   1.127
 8988TIP3    H126909   8.071   3.564   1.085
 8988TIP3    H226910   8.084   3.470   1.203
 8989TIP3   OH226911   5.112   4.554   6.594
 8989TIP3    H126912   5.178   4.598   6.647
 8989TIP3    H226913   5.031   4.604   6.609
 8990TIP3   OH226914   6.639   2.324   0.806
 8990TIP3    H126915   6.632   2.416   0.781
 8990TIP3    H226916   6.634   2.325   0.901
 8991TIP3   OH226917   8.121   5.526   4.399
 8991TIP3    H126918   8.126   5.565   4.312
 8991TIP3    H226919   8.027   5.511   4.413
 8992TIP3   OH226920   4.065   5.584   5.925
 8992TIP3    H126921   4.153   5.614   5.900
 8992TIP3    H226922   4.054   5.501   5.878
 8993TIP3   OH226923   5.952   2.871   3.918
 8993TIP3    H126924   5.862   2.899   3.902
 8993TIP3    H226925   5.991   2.863   3.831
 8994TIP3   OH226926   2.341   2.705   3.564
 8994TIP3    H126927   2.303   2.725   3.478
 8994TIP3    H226928   2.305   2.619   3.585
 8995TIP3   OH226929   1.769   6.051   0.463
 8995TIP3    H126930   1.812   6.014   0.386
 8995TIP3    H226931   1.735   5.975   0.511
 8996TIP3   OH226932   3.172   7.463   2.821
 8996TIP3    H126933   3.219   7.404   2.763
 8996TIP3    H226934   3.096   7.413   2.850
 8997TIP3   OH226935   6.581   3.866   3.179
 8997TIP3    H126936   6.512   3.848   3.242
 8997TIP3    H226937   6.605   3.780   3.144
 8998TIP3   OH226938   3.680   5.934   4.006
 8998TIP3    H126939   3.646   5.920   3.918
 8998TIP3    H226940   3.730   6.016   3.999
 8999TIP3   OH226941   2.284   4.907   2.280
 8999TIP3    H126942   2.280   4.875   2.370
 8999TIP3    H226943   2.209   4.965   2.272
 9000TIP3   OH226944   5.859   1.708   1.979
 9000TIP3    H126945   5.878   1.799   1.957
 9000TIP3    H226946   5.817   1.673   1.900
 9001TIP3   OH226947   0.598   5.628   5.455
 9001TIP3    H126948   0.550   5.580   5.524
 9001TIP3    H226949   0.648   5.560   5.410
 9002TIP3   OH226950   5.715   5.365   3.929
 9002TIP3    H126951   5.752   5.422   3.996
 9002TIP3    H226952   5.626   5.397   3.916
 9003TIP3   OH226953   2.919   6.340   4.254
 9003TIP3    H126954   2.995   6.378   4.299
 9003TIP3    H226955   2.956   6.295   4.179
 9004TIP3   OH226956   3.015   4.346   2.294
 9004TIP3    H126957   3.105   4.344   2.261
 9004TIP3    H226958   3.020   4.306   2.381
 9005TIP3   OH226959   6.929   4.644   2.085
 9005TIP3    H126960   6.921   4.705   2.158
 9005TIP3    H226961   7.022   4.620   2.083
 9006TIP3   OH226962   5.539   4.104   1.150
 9006TIP3    H126963   5.469   4.114   1.215
 9006TIP3    H226964   5.514   4.163   1.079
 9007TIP3   OH226965   7.366   5.926   1.369
 9007TIP3    H126966   7.433   5.864   1.399
 9007TIP3    H226967   7.305   5.872   1.319
 9008TIP3   OH226968   3.281   5.217   3.111
 9008TIP3    H126969   3.241   5.178   3.189
 9008TIP3    H226970   3.211   5.270   3.073
 9009TIP3   OH226971   6.644   4.637   2.136
 9009TIP3    H126972   6.723   4.651   2.189
 9009TIP3    H226973   6.665   4.674   2.050
 9010TIP3   OH226974   5.137   2.398   0.205
 9010TIP3    H126975   5.152   2.401   0.300
 9010TIP3    H226976   5.214   2.441   0.167
 9011TIP3   OH226977   3.246   2.041   4.566
 9011TIP3    H126978   3.220   2.132   4.551
 9011TIP3    H226979   3.169   1.990   4.541
 9012TIP3   OH226980   6.697   4.108   2.326
 9012TIP3    H126981   6.752   4.115   2.404
 9012TIP3    H226982   6.751   4.143   2.255
 9013TIP3   OH226983   1.996   6.807   4.066
 9013TIP3    H126984   2.054   6.739   4.099
 9013TIP3    H226985   2.055   6.880   4.046
 9014TIP3   OH226986   3.725   6.474   3.796
 9014TIP3    H126987   3.640   6.509   3.822
 9014TIP3    H226988   3.717   6.379   3.807
 9015TIP3   OH226989   1.543   3.934   1.920
 9015TIP3    H126990   1.634   3.954   1.898
 9015TIP3    H226991   1.499   3.926   1.836
 9016TIP3   OH226992   5.144   1.016   0.366
 9016TIP3    H126993   5.217   1.050   0.313
 9016TIP3    H226994   5.165   1.044   0.455
 9017TIP3   OH226995   5.479   1.925   4.926
 9017TIP3    H126996   5.470   2.011   4.968
 9017TIP3    H226997   5.515   1.868   4.993
 9018TIP3   OH226998   0.608   3.690   2.763
 9018TIP3    H126999   0.639   3.713   2.850
 9018TIP3    H227000   0.522   3.732   2.756
 9019TIP3   OH227001   4.274   3.663   5.036
 9019TIP3    H127002   4.297   3.753   5.012
 9019TIP3    H227003   4.278   3.614   4.953
 9020TIP3   OH227004   4.305   1.177   3.325
 9020TIP3    H127005   4.379   1.190   3.385
 9020TIP3    H227006   4.259   1.100   3.360
 9021TIP3   OH227007   4.661   4.850   2.060
 9021TIP3    H127008   4.606   4.882   1.989
 9021TIP3    H227009   4.601   4.834   2.133
 9022TIP3   OH227010   1.920   7.116   4.522
 9022TIP3    H127011   1.960   7.191   4.477
 9022TIP3    H227012   1.964   7.040   4.486
 9023TIP3   OH227013   0.537   6.912   4.855
 9023TIP3    H127014   0.489   6.835   4.823
 9023TIP3    H227015   0.569   6.886   4.942
 9024TIP3   OH227016   3.425   1.017   1.940
 9024TIP3    H127017   3.415   0.936   1.889
 9024TIP3    H227018   3.339   1.059   1.934
 9025TIP3   OH227019   6.467   6.398   5.804
 9025TIP3    H127020   6.411   6.457   5.853
 9025TIP3    H227021   6.492   6.448   5.726
 9026TIP3   OH227022   3.213   5.020   0.072
 9026TIP3    H127023   3.123   5.043   0.095
 9026TIP3    H227024   3.208   4.996  -0.021
 9027TIP3   OH227025   7.236   6.318   3.994
 9027TIP3    H127026   7.200   6.329   3.906
 9027TIP3    H227027   7.309   6.257   3.983
 9028TIP3   OH227028   0.525   4.297   3.543
 9028TIP3    H127029   0.533   4.351   3.464
 9028TIP3    H227030   0.471   4.349   3.603
 9029TIP3   OH227031   6.032   1.676   5.794
 9029TIP3    H127032   6.047   1.651   5.702
 9029TIP3    H227033   5.963   1.742   5.790
 9030TIP3   OH227034   3.293   2.910   2.149
 9030TIP3    H127035   3.214   2.961   2.170
 9030TIP3    H227036   3.277   2.876   2.061
 9031TIP3   OH227037   6.237   5.650   3.497
 9031TIP3    H127038   6.174   5.674   3.565
 9031TIP3    H227039   6.184   5.639   3.418
 9032TIP3   OH227040   5.450   2.493   0.960
 9032TIP3    H127041   5.537   2.480   0.996
 9032TIP3    H227042   5.423   2.579   0.993
 9033TIP3   OH227043   1.423   5.188   4.438
 9033TIP3    H127044   1.459   5.147   4.359
 9033TIP3    H227045   1.461   5.137   4.510
 9034TIP3   OH227046   6.738   4.183   3.058
 9034TIP3    H127047   6.813   4.221   3.013
 9034TIP3    H227048   6.770   4.099   3.091
 9035TIP3   OH227049   2.413   5.142   2.386
 9035TIP3    H127050   2.330   5.106   2.418
 9035TIP3    H227051   2.398   5.156   2.292
 9036TIP3   OH227052   0.660   5.989   3.588
 9036TIP3    H127053   0.722   6.057   3.561
 9036TIP3    H227054   0.574   6.024   3.564
 9037TIP3   OH227055   1.428   3.890   5.550
 9037TIP3    H127056   1.352   3.943   5.526
 9037TIP3    H227057   1.498   3.923   5.493
 9038TIP3   OH227058   1.439   0.978   1.555
 9038TIP3    H127059   1.425   0.896   1.506
 9038TIP3    H227060   1.380   0.972   1.630
 9039TIP3   OH227061   0.940   6.881   3.987
 9039TIP3    H127062   0.897   6.866   4.072
 9039TIP3    H227063   0.925   6.800   3.938
 9040TIP3   OH227064   0.044   1.008   1.918
 9040TIP3    H127065  -0.034   0.973   1.874
 9040TIP3    H227066   0.029   1.103   1.921
 9041TIP3   OH227067   0.102   2.775   6.289
 9041TIP3    H127068   0.055   2.844   6.335
 9041TIP3    H227069   0.034   2.726   6.242
 9042TIP3   OH227070   3.906   7.719   6.249
 9042TIP3    H127071   3.968   7.669   6.301
 9042TIP3    H227072   3.961   7.781   6.200
 9043TIP3   OH227073   8.286   1.239   6.503
 9043TIP3    H127074   8.358   1.246   6.441
 9043TIP3    H227075   8.215   1.197   6.454
 9044TIP3   OH227076   7.535   2.580   2.522
 9044TIP3    H127077   7.500   2.666   2.497
 9044TIP3    H227078   7.628   2.596   2.535
 9045TIP3   OH227079   4.150   4.440   3.017
 9045TIP3    H127080   4.058   4.434   3.044
 9045TIP3    H227081   4.159   4.528   2.981
 9046TIP3   OH227082   6.794   1.120   5.863
 9046TIP3    H127083   6.699   1.111   5.851
 9046TIP3    H227084   6.811   1.074   5.945
 9047TIP3   OH227085   3.441   0.614   5.810
 9047TIP3    H127086   3.358   0.610   5.857
 9047TIP3    H227087   3.494   0.544   5.849
 9048TIP3   OH227088   6.059   2.790   6.421
 9048TIP3    H127089   6.008   2.853   6.369
 9048TIP3    H227090   6.021   2.705   6.400
 9049TIP3   OH227091   7.214   1.903   5.894
 9049TIP3    H127092   7.167   1.984   5.911
 9049TIP3    H227093   7.302   1.919   5.929
 9050TIP3   OH227094   0.786   3.020   5.997
 9050TIP3    H127095   0.702   3.013   6.042
 9050TIP3    H227096   0.765   3.005   5.905
 9051TIP3   OH227097   6.345   2.248   2.898
 9051TIP3    H127098   6.411   2.190   2.860
 9051TIP3    H227099   6.291   2.191   2.953
 9052TIP3   OH227100   5.929   4.669   4.528
 9052TIP3    H127101   5.859   4.604   4.534
 9052TIP3    H227102   5.969   4.669   4.615
 9053TIP3   OH227103   1.515   6.169   4.196
 9053TIP3    H127104   1.529   6.179   4.290
 9053TIP3    H227105   1.592   6.210   4.155
 9054TIP3   OH227106   0.229   5.068   6.464
 9054TIP3    H127107   0.242   5.151   6.509
 9054TIP3    H227108   0.221   5.004   6.535
 9055TIP3   OH227109   1.169   2.976   6.561
 9055TIP3    H127110   1.089   3.022   6.537
 9055TIP3    H227111   1.149   2.883   6.550
 9056TIP3   OH227112   2.307   1.483   3.118
 9056TIP3    H127113   2.335   1.573   3.136
 9056TIP3    H227114   2.387   1.431   3.125
 9057TIP3   OH227115   5.984   1.529   0.020
 9057TIP3    H127116   6.020   1.515   0.108
 9057TIP3    H227117   5.964   1.623   0.018
 9058TIP3   OH227118   5.837   6.628   6.647
 9058TIP3    H127119   5.895   6.704   6.641
 9058TIP3    H227120   5.784   6.645   6.725
 9059TIP3   OH227121   7.106   4.440   2.641
 9059TIP3    H127122   7.195   4.474   2.629
 9059TIP3    H227123   7.095   4.436   2.736
 9060TIP3   OH227124   1.826   4.146   4.857
 9060TIP3    H127125   1.824   4.199   4.777
 9060TIP3    H227126   1.900   4.181   4.906
 9061TIP3   OH227127   4.724   1.567   0.413
 9061TIP3    H127128   4.807   1.595   0.450
 9061TIP3    H227129   4.688   1.645   0.371
 9062TIP3   OH227130   3.279   4.893   0.476
 9062TIP3    H127131   3.374   4.895   0.464
 9062TIP3    H227132   3.265   4.927   0.564
 9063TIP3   OH227133   6.277   1.677   3.515
 9063TIP3    H127134   6.264   1.626   3.436
 9063TIP3    H227135   6.324   1.619   3.574
 9064TIP3   OH227136   3.957   6.090   3.844
 9064TIP3    H127137   4.044   6.093   3.884
 9064TIP3    H227138   3.912   6.167   3.876
 9065TIP3   OH227139   8.023   1.861   1.415
 9065TIP3    H127140   7.930   1.854   1.393
 9065TIP3    H227141   8.036   1.799   1.487
 9066TIP3   OH227142   7.794   4.231   6.433
 9066TIP3    H127143   7.816   4.275   6.515
 9066TIP3    H227144   7.708   4.193   6.448
 9067TIP3   OH227145   7.112   1.147   3.082
 9067TIP3    H127146   7.196   1.130   3.040
 9067TIP3    H227147   7.097   1.241   3.068
 9068TIP3   OH227148   5.245   5.255   5.366
 9068TIP3    H127149   5.210   5.174   5.330
 9068TIP3    H227150   5.176   5.320   5.352
 9069TIP3   OH227151   5.733   3.879   6.204
 9069TIP3    H127152   5.767   3.968   6.196
 9069TIP3    H227153   5.638   3.890   6.215
 9070TIP3   OH227154   6.908   2.336   2.281
 9070TIP3    H127155   6.859   2.279   2.222
 9070TIP3    H227156   6.959   2.276   2.336
 9071TIP3   OH227157   5.488   0.057   4.368
 9071TIP3    H127158   5.463  -0.033   4.389
 9071TIP3    H227159   5.410   0.109   4.389
 9072TIP3   OH227160   6.117   1.716   6.321
 9072TIP3    H127161   6.087   1.702   6.411
 9072TIP3    H227162   6.203   1.675   6.316
 9073TIP3   OH227163   3.020   4.226   2.543
 9073TIP3    H127164   3.104   4.225   2.589
 9073TIP3    H227165   2.961   4.273   2.601
 9074TIP3   OH227166   7.905   2.019   0.309
 9074TIP3    H127167   7.881   2.104   0.347
 9074TIP3    H227168   7.968   1.983   0.371
 9075TIP3   OH227169   4.161   5.744   0.199
 9075TIP3    H127170   4.221   5.802   0.247
 9075TIP3    H227171   4.131   5.681   0.264
 9076TIP3   OH227172   0.995   6.513   6.300
 9076TIP3    H127173   0.929   6.565   6.253
 9076TIP3    H227174   0.993   6.428   6.256
 9077TIP3   OH227175   6.269   6.907   4.929
 9077TIP3    H127176   6.178   6.937   4.927
 9077TIP3    H227177   6.288   6.884   4.838
 9078TIP3   OH227178   4.557   4.317   4.316
 9078TIP3    H127179   4.557   4.351   4.405
 9078TIP3    H227180   4.566   4.395   4.261
 9079TIP3   OH227181   7.349   6.877   2.455
 9079TIP3    H127182   7.403   6.844   2.383
 9079TIP3    H227183   7.288   6.939   2.414
 9080TIP3   OH227184   5.754   6.983   1.648
 9080TIP3    H127185   5.747   7.030   1.732
 9080TIP3    H227186   5.846   6.993   1.623
 9081TIP3   OH227187   4.455   6.602   2.487
 9081TIP3    H127188   4.408   6.584   2.569
 9081TIP3    H227189   4.481   6.515   2.455
 9082TIP3   OH227190   7.518   5.219   4.343
 9082TIP3    H127191   7.459   5.156   4.385
 9082TIP3    H227192   7.462   5.276   4.292
 9083TIP3   OH227193   6.131   2.713   2.481
 9083TIP3    H127194   6.203   2.772   2.460
 9083TIP3    H227195   6.091   2.749   2.560
 9084TIP3   OH227196   3.164   7.829   2.079
 9084TIP3    H127197   3.146   7.793   2.166
 9084TIP3    H227198   3.078   7.836   2.038
 9085TIP3   OH227199   1.241   1.048   3.476
 9085TIP3    H127200   1.330   1.080   3.489
 9085TIP3    H227201   1.215   1.081   3.390
 9086TIP3   OH227202   4.286   6.206   5.813
 9086TIP3    H127203   4.352   6.238   5.752
 9086TIP3    H227204   4.204   6.206   5.762
 9087TIP3   OH227205   2.624   1.222   4.329
 9087TIP3    H127206   2.662   1.173   4.257
 9087TIP3    H227207   2.540   1.255   4.295
 9088TIP3   OH227208   7.539   0.693   3.402
 9088TIP3    H127209   7.613   0.664   3.454
 9088TIP3    H227210   7.465   0.694   3.463
 9089TIP3   OH227211   7.122   5.170   6.532
 9089TIP3    H127212   7.093   5.227   6.461
 9089TIP3    H227213   7.106   5.221   6.612
 9090TIP3   OH227214   3.467   2.890   2.367
 9090TIP3    H127215   3.438   2.808   2.406
 9090TIP3    H227216   3.414   2.898   2.287
 9091TIP3   OH227217   7.666   0.159   6.208
 9091TIP3    H127218   7.741   0.130   6.259
 9091TIP3    H227219   7.661   0.254   6.223
 9092TIP3   OH227220   2.800   1.346   6.410
 9092TIP3    H127221   2.742   1.384   6.344
 9092TIP3    H227222   2.885   1.388   6.395
 9093TIP3   OH227223   3.695   4.492   3.960
 9093TIP3    H127224   3.691   4.541   3.878
 9093TIP3    H227225   3.640   4.415   3.945
 9094TIP3   OH227226   3.337   3.850   6.471
 9094TIP3    H127227   3.389   3.803   6.405
 9094TIP3    H227228   3.246   3.827   6.450
 9095TIP3   OH227229   2.582   3.652   1.495
 9095TIP3    H127230   2.672   3.667   1.521
 9095TIP3    H227231   2.588   3.587   1.425
 9096TIP3   OH227232   0.899   6.196   4.623
 9096TIP3    H127233   0.923   6.210   4.714
 9096TIP3    H227234   0.869   6.105   4.620
 9097TIP3   OH227235   7.416   6.261   3.156
 9097TIP3    H127236   7.344   6.324   3.153
 9097TIP3    H227237   7.458   6.269   3.070
 9098TIP3   OH227238   4.875   0.673   4.483
 9098TIP3    H127239   4.813   0.741   4.454
 9098TIP3    H227240   4.948   0.679   4.422
 9099TIP3   OH227241   6.305   1.469   3.303
 9099TIP3    H127242   6.395   1.440   3.315
 9099TIP3    H227243   6.255   1.389   3.290
 9100TIP3   OH227244   6.010   5.769   6.471
 9100TIP3    H127245   6.091   5.813   6.446
 9100TIP3    H227246   5.940   5.828   6.445
 9101TIP3   OH227247   4.268   4.019   5.845
 9101TIP3    H127248   4.322   4.059   5.777
 9101TIP3    H227249   4.183   4.063   5.838
 9102TIP3   OH227250   5.205   0.109   3.059
 9102TIP3    H127251   5.242   0.103   2.971
 9102TIP3    H227252   5.271   0.154   3.110
 9103TIP3   OH227253   7.026   2.511   4.530
 9103TIP3    H127254   7.049   2.595   4.569
 9103TIP3    H227255   6.941   2.489   4.567
 9104TIP3   OH227256   0.467   4.198   0.102
 9104TIP3    H127257   0.434   4.207   0.191
 9104TIP3    H227258   0.410   4.133   0.061
 9105TIP3   OH227259   3.415   3.189   2.306
 9105TIP3    H127260   3.420   3.097   2.334
 9105TIP3    H227261   3.374   3.233   2.380
 9106TIP3   OH227262   7.438   0.910   1.753
 9106TIP3    H127263   7.376   0.837   1.742
 9106TIP3    H227264   7.426   0.938   1.844
 9107TIP3   OH227265   5.853   7.066   1.232
 9107TIP3    H127266   5.867   7.082   1.139
 9107TIP3    H227267   5.762   7.090   1.247
 9108TIP3   OH227268   8.301   3.674   3.744
 9108TIP3    H127269   8.365   3.667   3.814
 9108TIP3    H227270   8.266   3.763   3.752
 9109TIP3   OH227271   7.405   3.245   2.851
 9109TIP3    H127272   7.429   3.330   2.889
 9109TIP3    H227273   7.437   3.249   2.761
 9110TIP3   OH227274   1.392   2.628   1.861
 9110TIP3    H127275   1.384   2.554   1.800
 9110TIP3    H227276   1.481   2.622   1.894
 9111TIP3   OH227277   3.068   6.365   0.305
 9111TIP3    H127278   3.049   6.274   0.281
 9111TIP3    H227279   3.158   6.379   0.275
 9112TIP3   OH227280   6.418   1.093   1.336
 9112TIP3    H127281   6.363   1.015   1.321
 9112TIP3    H227282   6.493   1.081   1.278
 9113TIP3   OH227283   6.987   1.496   4.913
 9113TIP3    H127284   6.973   1.453   4.829
 9113TIP3    H227285   7.071   1.463   4.944
 9114TIP3   OH227286   7.112   0.892   6.068
 9114TIP3    H127287   7.047   0.831   6.104
 9114TIP3    H227288   7.154   0.844   5.997
 9115TIP3   OH227289   1.018   5.350   1.926
 9115TIP3    H127290   1.046   5.435   1.961
 9115TIP3    H227291   1.096   5.295   1.931
 9116TIP3   OH227292   7.716   7.719   0.201
 9116TIP3    H127293   7.724   7.811   0.223
 9116TIP3    H227294   7.630   7.710   0.162
 9117TIP3   OH227295   8.150   4.486   0.752
 9117TIP3    H127296   8.223   4.459   0.696
 9117TIP3    H227297   8.076   4.435   0.719
 9118TIP3   OH227298   0.123   2.112   4.054
 9118TIP3    H127299   0.215   2.118   4.079
 9118TIP3    H227300   0.086   2.197   4.076
 9119TIP3   OH227301   7.314   3.937   0.995
 9119TIP3    H127302   7.268   3.883   1.060
 9119TIP3    H227303   7.368   3.996   1.047
 9120TIP3   OH227304   3.566   2.993   3.648
 9120TIP3    H127305   3.475   2.967   3.634
 9120TIP3    H227306   3.572   3.080   3.609
 9121TIP3   OH227307   2.191   5.932   0.614
 9121TIP3    H127308   2.265   5.966   0.664
 9121TIP3    H227309   2.131   6.006   0.607
 9122TIP3   OH227310   3.442   1.562   5.480
 9122TIP3    H127311   3.415   1.573   5.389
 9122TIP3    H227312   3.496   1.484   5.479
 9123TIP3   OH227313   5.256   2.417   2.965
 9123TIP3    H127314   5.248   2.492   2.906
 9123TIP3    H227315   5.208   2.443   3.044
 9124TIP3   OH227316   7.531   4.786   0.262
 9124TIP3    H127317   7.573   4.784   0.348
 9124TIP3    H227318   7.512   4.694   0.243
 9125TIP3   OH227319   2.634   1.988   5.496
 9125TIP3    H127320   2.585   2.032   5.565
 9125TIP3    H227321   2.620   2.041   5.418
 9126TIP3   OH227322   2.618   6.198   3.776
 9126TIP3    H127323   2.644   6.259   3.707
 9126TIP3    H227324   2.689   6.134   3.781
 9127TIP3   OH227325   8.022   0.863   4.774
 9127TIP3    H127326   8.084   0.925   4.735
 9127TIP3    H227327   8.076   0.807   4.830
 9128TIP3   OH227328   7.322   7.768   3.469
 9128TIP3    H127329   7.304   7.733   3.382
 9128TIP3    H227330   7.247   7.742   3.522
 9129TIP3   OH227331   1.003   1.767   6.062
 9129TIP3    H127332   1.047   1.737   5.982
 9129TIP3    H227333   1.072   1.813   6.111
 9130TIP3   OH227334   5.372   4.556   1.629
 9130TIP3    H127335   5.276   4.554   1.626
 9130TIP3    H227336   5.396   4.629   1.572
 9131TIP3   OH227337   3.120   3.058   6.602
 9131TIP3    H127338   3.213   3.078   6.608
 9131TIP3    H227339   3.076   3.140   6.625
 9132TIP3   OH227340   4.618   2.173   3.748
 9132TIP3    H127341   4.699   2.123   3.755
 9132TIP3    H227342   4.582   2.173   3.837
 9133TIP3   OH227343   0.167   4.189   5.128
 9133TIP3    H127344   0.205   4.252   5.189
 9133TIP3    H227345   0.074   4.190   5.148
 9134TIP3   OH227346   7.562   3.354   2.059
 9134TIP3    H127347   7.549   3.288   1.991
 9134TIP3    H227348   7.549   3.438   2.014
 9135TIP3   OH227349   2.949   4.500   4.176
 9135TIP3    H127350   2.938   4.456   4.092
 9135TIP3    H227351   2.924   4.434   4.241
 9136TIP3   OH227352   7.948   6.799   2.473
 9136TIP3    H127353   7.961   6.831   2.562
 9136TIP3    H227354   7.988   6.865   2.417
 9137TIP3   OH227355   6.412   0.581   1.866
 9137TIP3    H127356   6.343   0.624   1.816
 9137TIP3    H227357   6.415   0.628   1.949
 9138TIP3   OH227358   1.436   2.554   3.256
 9138TIP3    H127359   1.403   2.560   3.166
 9138TIP3    H227360   1.390   2.479   3.293
 9139TIP3   OH227361   7.955   2.843   4.540
 9139TIP3    H127362   8.030   2.843   4.600
 9139TIP3    H227363   7.989   2.884   4.460
 9140TIP3   OH227364   2.389   1.151   3.084
 9140TIP3    H127365   2.448   1.196   3.144
 9140TIP3    H227366   2.355   1.077   3.135
 9141TIP3   OH227367   6.111   4.712   0.797
 9141TIP3    H127368   6.018   4.701   0.818
 9141TIP3    H227369   6.152   4.631   0.829
 9142TIP3   OH227370   4.305   3.154   4.226
 9142TIP3    H127371   4.334   3.230   4.275
 9142TIP3    H227372   4.209   3.154   4.234
 9143TIP3   OH227373   6.560   5.264   1.740
 9143TIP3    H127374   6.560   5.248   1.645
 9143TIP3    H227375   6.469   5.279   1.762
 9144TIP3   OH227376   3.435   2.677   4.236
 9144TIP3    H127377   3.527   2.651   4.233
 9144TIP3    H227378   3.437   2.772   4.251
 9145TIP3   OH227379   5.936   5.302   6.622
 9145TIP3    H127380   6.030   5.304   6.607
 9145TIP3    H227381   5.903   5.380   6.578
 9146TIP3   OH227382   4.773   7.059   3.143
 9146TIP3    H127383   4.763   7.149   3.174
 9146TIP3    H227384   4.778   7.067   3.048
 9147TIP3   OH227385   6.719   3.081   0.827
 9147TIP3    H127386   6.690   3.044   0.743
 9147TIP3    H227387   6.747   3.170   0.805
 9148TIP3   OH227388   5.254   4.504   1.271
 9148TIP3    H127389   5.323   4.443   1.296
 9148TIP3    H227390   5.181   4.482   1.330
 9149TIP3   OH227391   0.608   2.989   1.264
 9149TIP3    H127392   0.569   2.991   1.176
 9149TIP3    H227393   0.690   3.036   1.254
 9150TIP3   OH227394   3.390   4.996   3.733
 9150TIP3    H127395   3.381   4.909   3.771
 9150TIP3    H227396   3.459   4.987   3.667
 9151TIP3   OH227397   6.803   5.354   4.019
 9151TIP3    H127398   6.886   5.386   3.984
 9151TIP3    H227399   6.769   5.428   4.070
 9152TIP3   OH227400   7.258   2.936   0.009
 9152TIP3    H127401   7.237   2.844  -0.002
 9152TIP3    H227402   7.177   2.982  -0.015
 9153TIP3   OH227403   5.014   1.929   6.455
 9153TIP3    H127404   5.093   1.899   6.411
 9153TIP3    H227405   4.948   1.935   6.385
 9154TIP3   OH227406   1.788   7.749   4.184
 9154TIP3    H127407   1.754   7.823   4.234
 9154TIP3    H227408   1.778   7.673   4.242
 9155TIP3   OH227409   0.344   0.062   3.905
 9155TIP3    H127410   0.354   0.143   3.956
 9155TIP3    H227411   0.318  -0.004   3.970
 9156TIP3   OH227412   1.040   0.316   2.715
 9156TIP3    H127413   0.947   0.337   2.720
 9156TIP3    H227414   1.083   0.393   2.752
 9157TIP3   OH227415   0.456   5.877   1.425
 9157TIP3    H127416   0.379   5.839   1.467
 9157TIP3    H227417   0.524   5.810   1.437
 9158TIP3   OH227418   2.039   0.916   2.050
 9158TIP3    H127419   2.074   0.993   2.005
 9158TIP3    H227420   1.945   0.931   2.054
 9159TIP3   OH227421   1.375   7.684   0.496
 9159TIP3    H127422   1.458   7.733   0.498
 9159TIP3    H227423   1.397   7.601   0.454
 9160TIP3   OH227424   1.694   6.862   4.491
 9160TIP3    H127425   1.762   6.815   4.443
 9160TIP3    H227426   1.689   6.818   4.576
 9161TIP3   OH227427   4.254   0.722   4.092
 9161TIP3    H127428   4.220   0.705   4.180
 9161TIP3    H227429   4.257   0.636   4.050
 9162TIP3   OH227430   5.204   5.667   6.442
 9162TIP3    H127431   5.110   5.666   6.460
 9162TIP3    H227432   5.212   5.721   6.363
 9163TIP3   OH227433   6.944   3.796   4.931
 9163TIP3    H127434   6.917   3.887   4.939
 9163TIP3    H227435   6.907   3.767   4.847
 9164TIP3   OH227436   3.560   2.530   6.765
 9164TIP3    H127437   3.478   2.574   6.742
 9164TIP3    H227438   3.624   2.563   6.702
 9165TIP3   OH227439   0.565   6.223   5.335
 9165TIP3    H127440   0.544   6.188   5.422
 9165TIP3    H227441   0.489   6.276   5.311
 9166TIP3   OH227442   6.075   6.429   1.721
 9166TIP3    H127443   6.127   6.413   1.800
 9166TIP3    H227444   6.109   6.511   1.686
 9167TIP3   OH227445   1.235   1.213   6.535
 9167TIP3    H127446   1.217   1.121   6.513
 9167TIP3    H227447   1.151   1.257   6.522
 9168TIP3   OH227448   0.931   5.016   0.789
 9168TIP3    H127449   0.890   5.013   0.876
 9168TIP3    H227450   0.858   5.011   0.728
 9169TIP3   OH227451   1.214   5.714   2.288
 9169TIP3    H127452   1.247   5.804   2.286
 9169TIP3    H227453   1.134   5.719   2.340
 9170TIP3   OH227454   2.337   6.690   2.501
 9170TIP3    H127455   2.370   6.746   2.571
 9170TIP3    H227456   2.337   6.602   2.539
 9171TIP3   OH227457   7.713   5.275   0.199
 9171TIP3    H127458   7.737   5.185   0.223
 9171TIP3    H227459   7.768   5.330   0.255
 9172TIP3   OH227460   3.406   6.889   0.699
 9172TIP3    H127461   3.392   6.914   0.607
 9172TIP3    H227462   3.452   6.806   0.694
 9173TIP3   OH227463   4.384   7.016   1.299
 9173TIP3    H127464   4.291   7.027   1.276
 9173TIP3    H227465   4.385   6.939   1.356
 9174TIP3   OH227466   6.675   4.063   4.268
 9174TIP3    H127467   6.653   4.129   4.334
 9174TIP3    H227468   6.593   4.048   4.221
 9175TIP3   OH227469   2.848   7.198   1.937
 9175TIP3    H127470   2.889   7.139   2.001
 9175TIP3    H227471   2.912   7.204   1.866
 9176TIP3   OH227472   7.049   1.940   1.034
 9176TIP3    H127473   6.996   1.960   0.957
 9176TIP3    H227474   7.120   2.005   1.031
 9177TIP3   OH227475   7.243   3.874   6.095
 9177TIP3    H127476   7.272   3.955   6.137
 9177TIP3    H227477   7.312   3.811   6.111
 9178TIP3   OH227478   0.818   2.393   2.797
 9178TIP3    H127479   0.776   2.463   2.847
 9178TIP3    H227480   0.812   2.421   2.706
 9179TIP3   OH227481   4.590   0.919   6.359
 9179TIP3    H127482   4.617   0.880   6.442
 9179TIP3    H227483   4.662   0.978   6.335
 9180TIP3   OH227484   2.100   2.679   1.290
 9180TIP3    H127485   2.166   2.621   1.326
 9180TIP3    H227486   2.114   2.763   1.333
 9181TIP3   OH227487   5.136   4.125   0.047
 9181TIP3    H127488   5.103   4.190   0.110
 9181TIP3    H227489   5.072   4.126  -0.024
 9182TIP3   OH227490   5.315   4.773   6.436
 9182TIP3    H127491   5.355   4.859   6.439
 9182TIP3    H227492   5.236   4.784   6.382
 9183TIP3   OH227493   4.703   4.057   3.417
 9183TIP3    H127494   4.609   4.046   3.402
 9183TIP3    H227495   4.743   4.036   3.333
 9184TIP3   OH227496   4.857   2.248   2.657
 9184TIP3    H127497   4.873   2.162   2.617
 9184TIP3    H227498   4.840   2.229   2.749
 9185TIP3   OH227499   2.872   4.694   3.490
 9185TIP3    H127500   2.908   4.778   3.518
 9185TIP3    H227501   2.796   4.680   3.547
 9186TIP3   OH227502   4.490   3.035   5.358
 9186TIP3    H127503   4.513   3.022   5.266
 9186TIP3    H227504   4.449   2.952   5.384
 9187TIP3   OH227505   1.739   0.466   6.580
 9187TIP3    H127506   1.743   0.500   6.490
 9187TIP3    H227507   1.818   0.499   6.622
 9188TIP3   OH227508   7.318   0.696   5.047
 9188TIP3    H127509   7.242   0.667   5.097
 9188TIP3    H227510   7.334   0.785   5.079
 9189TIP3   OH227511   1.081   4.277   3.756
 9189TIP3    H127512   1.000   4.242   3.719
 9189TIP3    H227513   1.149   4.218   3.726
 9190TIP3   OH227514   1.794   3.623   2.535
 9190TIP3    H127515   1.805   3.718   2.543
 9190TIP3    H227516   1.714   3.613   2.483
 9191TIP3   OH227517   4.613   1.696   2.697
 9191TIP3    H127518   4.632   1.602   2.700
 9191TIP3    H227519   4.541   1.707   2.759
 9192TIP3   OH227520   7.679   0.723   6.366
 9192TIP3    H127521   7.595   0.718   6.411
 9192TIP3    H227522   7.694   0.817   6.353
 9193TIP3   OH227523   5.544   7.500   6.235
 9193TIP3    H127524   5.566   7.470   6.323
 9193TIP3    H227525   5.569   7.428   6.178
 9194TIP3   OH227526   1.514   5.756   2.379
 9194TIP3    H127527   1.539   5.846   2.358
 9194TIP3    H227528   1.546   5.705   2.304
 9195TIP3   OH227529   6.079   2.762   5.049
 9195TIP3    H127530   6.147   2.781   4.984
 9195TIP3    H227531   6.125   2.715   5.119
 9196TIP3   OH227532   8.181   6.024   0.371
 9196TIP3    H127533   8.103   6.073   0.395
 9196TIP3    H227534   8.234   6.086   0.320
 9197TIP3   OH227535   7.926   6.924   0.174
 9197TIP3    H127536   7.942   7.006   0.221
 9197TIP3    H227537   7.833   6.906   0.187
 9198TIP3   OH227538   7.214   0.661   4.481
 9198TIP3    H127539   7.248   0.576   4.507
 9198TIP3    H227540   7.292   0.718   4.476
 9199TIP3   OH227541   5.532   3.751   2.639
 9199TIP3    H127542   5.561   3.714   2.556
 9199TIP3    H227543   5.520   3.844   2.622
 9200TIP3   OH227544   5.139   3.818   5.705
 9200TIP3    H127545   5.183   3.903   5.699
 9200TIP3    H227546   5.147   3.782   5.617
 9201TIP3   OH227547   3.900   1.981   1.387
 9201TIP3    H127548   3.819   2.030   1.402
 9201TIP3    H227549   3.968   2.033   1.431
 9202TIP3   OH227550   5.617   1.790   3.736
 9202TIP3    H127551   5.524   1.768   3.738
 9202TIP3    H227552   5.622   1.878   3.773
 9203TIP3   OH227553   7.392   2.709   0.205
 9203TIP3    H127554   7.373   2.628   0.253
 9203TIP3    H227555   7.348   2.697   0.121
 9204TIP3   OH227556   1.041   1.199   6.169
 9204TIP3    H127557   0.975   1.164   6.109
 9204TIP3    H227558   1.020   1.161   6.254
 9205TIP3   OH227559   7.813   0.894   5.455
 9205TIP3    H127560   7.846   0.969   5.406
 9205TIP3    H227561   7.851   0.904   5.543
 9206TIP3   OH227562   1.480   5.242   0.787
 9206TIP3    H127563   1.464   5.271   0.697
 9206TIP3    H227564   1.574   5.253   0.799
 9207TIP3   OH227565   1.416   3.038   6.005
 9207TIP3    H127566   1.348   3.088   5.960
 9207TIP3    H227567   1.376   3.012   6.088
 9208TIP3   OH227568   4.882   0.452   1.777
 9208TIP3    H127569   4.789   0.463   1.757
 9208TIP3    H227570   4.916   0.541   1.782
 9209TIP3   OH227571   1.831   5.942   6.477
 9209TIP3    H127572   1.867   5.999   6.410
 9209TIP3    H227573   1.776   5.999   6.531
 9210TIP3   OH227574   7.553   1.451   5.594
 9210TIP3    H127575   7.543   1.357   5.577
 9210TIP3    H227576   7.582   1.455   5.685
 9211TIP3   OH227577   2.662   1.973   3.465
 9211TIP3    H127578   2.727   1.922   3.416
 9211TIP3    H227579   2.706   2.055   3.486
 9212TIP3   OH227580   2.002   2.845   1.529
 9212TIP3    H127581   2.006   2.934   1.494
 9212TIP3    H227582   2.092   2.812   1.519
 9213TIP3   OH227583   0.317   2.303   0.532
 9213TIP3    H127584   0.264   2.258   0.466
 9213TIP3    H227585   0.323   2.241   0.604
 9214TIP3   OH227586   5.490   7.296   2.346
 9214TIP3    H127587   5.518   7.286   2.437
 9214TIP3    H227588   5.565   7.337   2.303
 9215TIP3   OH227589   0.055   1.739   1.031
 9215TIP3    H127590   0.148   1.756   1.012
 9215TIP3    H227591   0.056   1.661   1.087
 9216TIP3   OH227592   4.215   1.881   1.499
 9216TIP3    H127593   4.189   1.952   1.440
 9216TIP3    H227594   4.186   1.801   1.455
 9217TIP3   OH227595   4.216   7.593   3.444
 9217TIP3    H127596   4.148   7.618   3.381
 9217TIP3    H227597   4.187   7.631   3.527
 9218TIP3   OH227598   2.841   3.369   1.490
 9218TIP3    H127599   2.788   3.407   1.421
 9218TIP3    H227600   2.928   3.359   1.451
 9219TIP3   OH227601   0.320   2.382   0.952
 9219TIP3    H127602   0.317   2.315   0.883
 9219TIP3    H227603   0.360   2.337   1.026
 9220TIP3   OH227604   2.545   7.338   5.634
 9220TIP3    H127605   2.583   7.347   5.547
 9220TIP3    H227606   2.565   7.421   5.678
 9221TIP3   OH227607   6.288   2.207   3.614
 9221TIP3    H127608   6.196   2.192   3.637
 9221TIP3    H227609   6.291   2.199   3.519
 9222TIP3   OH227610   2.945   3.634   0.167
 9222TIP3    H127611   2.951   3.571   0.239
 9222TIP3    H227612   2.988   3.591   0.093
 9223TIP3   OH227613   7.865   6.160   5.680
 9223TIP3    H127614   7.951   6.161   5.636
 9223TIP3    H227615   7.874   6.224   5.751
 9224TIP3   OH227616   2.015   6.143   0.597
 9224TIP3    H127617   1.923   6.126   0.579
 9224TIP3    H227618   2.039   6.213   0.536
 9225TIP3   OH227619   2.562   5.832   2.125
 9225TIP3    H127620   2.610   5.765   2.172
 9225TIP3    H227621   2.589   5.914   2.166
 9226TIP3   OH227622   7.920   2.802   5.909
 9226TIP3    H127623   7.892   2.713   5.931
 9226TIP3    H227624   8.014   2.803   5.928
 9227TIP3   OH227625   1.193   6.508   5.394
 9227TIP3    H127626   1.272   6.492   5.446
 9227TIP3    H227627   1.131   6.442   5.425
 9228TIP3   OH227628   7.997   0.325   6.053
 9228TIP3    H127629   8.067   0.381   6.088
 9228TIP3    H227630   8.020   0.237   6.081
 9229TIP3   OH227631   1.631   7.801   0.721
 9229TIP3    H127632   1.558   7.780   0.779
 9229TIP3    H227633   1.705   7.751   0.756
 9230TIP3   OH227634   7.887   2.108   1.058
 9230TIP3    H127635   7.965   2.163   1.049
 9230TIP3    H227636   7.911   2.045   1.126
 9231TIP3   OH227637   0.913   6.028   3.955
 9231TIP3    H127638   0.863   6.011   3.876
 9231TIP3    H227639   0.994   6.070   3.923
 9232TIP3   OH227640   2.026   2.458   3.000
 9232TIP3    H127641   2.077   2.527   3.043
 9232TIP3    H227642   2.060   2.376   3.036
 9233TIP3   OH227643   3.572   2.955   2.849
 9233TIP3    H127644   3.647   2.996   2.893
 9233TIP3    H227645   3.590   2.861   2.854
 9234TIP3   OH227646   5.616   6.534   4.162
 9234TIP3    H127647   5.593   6.442   4.146
 9234TIP3    H227648   5.711   6.536   4.158
 9235TIP3   OH227649   3.127   0.289   0.980
 9235TIP3    H127650   3.073   0.249   0.912
 9235TIP3    H227651   3.074   0.362   1.012
 9236TIP3   OH227652   1.278   7.568   0.825
 9236TIP3    H127653   1.310   7.528   0.745
 9236TIP3    H227654   1.196   7.522   0.844
 9237TIP3   OH227655   4.508   2.176   2.169
 9237TIP3    H127656   4.576   2.180   2.101
 9237TIP3    H227657   4.429   2.148   2.123
 9238TIP3   OH227658   4.788   0.075   0.867
 9238TIP3    H127659   4.814   0.115   0.784
 9238TIP3    H227660   4.754   0.148   0.919
 9239TIP3   OH227661   3.425   3.050   5.375
 9239TIP3    H127662   3.481   3.127   5.391
 9239TIP3    H227663   3.336   3.086   5.374
 9240TIP3   OH227664   5.667   4.852   4.134
 9240TIP3    H127665   5.644   4.819   4.221
 9240TIP3    H227666   5.677   4.773   4.081
 9241TIP3   OH227667   4.001   5.840   0.000
 9241TIP3    H127668   4.038   5.805   0.081
 9241TIP3    H227669   4.034   5.782  -0.069
 9242TIP3   OH227670   6.052   2.433   1.659
 9242TIP3    H127671   6.127   2.486   1.687
 9242TIP3    H227672   5.988   2.443   1.730
 9243TIP3   OH227673   6.012   4.974   3.628
 9243TIP3    H127674   6.085   5.029   3.656
 9243TIP3    H227675   5.959   4.964   3.707
 9244TIP3   OH227676   4.948   1.890   4.250
 9244TIP3    H127677   4.866   1.915   4.292
 9244TIP3    H227678   4.987   1.973   4.221
 9245TIP3   OH227679   6.818   1.779   4.008
 9245TIP3    H127680   6.899   1.801   4.054
 9245TIP3    H227681   6.843   1.709   3.947
 9246TIP3   OH227682   1.082   5.240   0.412
 9246TIP3    H127683   1.093   5.173   0.479
 9246TIP3    H227684   1.159   5.231   0.356
 9247TIP3   OH227685   0.867   1.066   0.594
 9247TIP3    H127686   0.921   1.068   0.673
 9247TIP3    H227687   0.795   1.008   0.616
 9248TIP3   OH227688   6.727   0.767   2.766
 9248TIP3    H127689   6.719   0.705   2.838
 9248TIP3    H227690   6.696   0.720   2.689
 9249TIP3   OH227691   7.258   4.929   0.005
 9249TIP3    H127692   7.328   4.865  -0.012
 9249TIP3    H227693   7.284   4.971   0.087
 9250TIP3   OH227694   8.013   3.038   5.714
 9250TIP3    H127695   8.077   3.057   5.782
 9250TIP3    H227696   7.931   3.022   5.761
 9251TIP3   OH227697   0.533   0.045   3.474
 9251TIP3    H127698   0.529   0.048   3.379
 9251TIP3    H227699   0.598   0.111   3.497
 9252TIP3   OH227700   0.672   1.576   2.112
 9252TIP3    H127701   0.636   1.652   2.067
 9252TIP3    H227702   0.745   1.547   2.058
 9253TIP3   OH227703   0.617   5.043   2.065
 9253TIP3    H127704   0.697   5.057   2.014
 9253TIP3    H227705   0.581   5.130   2.078
 9254TIP3   OH227706   2.989   1.055   0.880
 9254TIP3    H127707   2.910   1.078   0.930
 9254TIP3    H227708   2.955   1.033   0.793
 9255TIP3   OH227709   2.095   7.178   6.357
 9255TIP3    H127710   2.040   7.129   6.418
 9255TIP3    H227711   2.096   7.125   6.277
 9256TIP3   OH227712   3.095   0.275   0.593
 9256TIP3    H127713   3.113   0.184   0.570
 9256TIP3    H227714   3.175   0.323   0.570
 9257TIP3   OH227715   4.881   3.784   2.944
 9257TIP3    H127716   4.845   3.856   2.891
 9257TIP3    H227717   4.845   3.705   2.904
 9258TIP3   OH227718   3.454   0.521   4.300
 9258TIP3    H127719   3.375   0.490   4.255
 9258TIP3    H227720   3.428   0.528   4.392
 9259TIP3   OH227721   0.202   2.388   1.346
 9259TIP3    H127722   0.203   2.418   1.437
 9259TIP3    H227723   0.129   2.435   1.306
 9260TIP3   OH227724   7.763   7.195   2.723
 9260TIP3    H127725   7.852   7.222   2.747
 9260TIP3    H227726   7.765   7.188   2.628
 9261TIP3   OH227727   1.440   6.067   0.982
 9261TIP3    H127728   1.453   6.093   1.073
 9261TIP3    H227729   1.347   6.083   0.966
 9262TIP3   OH227730   3.826   4.071   3.456
 9262TIP3    H127731   3.756   4.045   3.516
 9262TIP3    H227732   3.892   4.112   3.512
 9263TIP3   OH227733   1.923   4.926   2.815
 9263TIP3    H127734   1.942   4.872   2.738
 9263TIP3    H227735   2.008   4.938   2.858
 9264TIP3   OH227736   5.309   6.680   0.293
 9264TIP3    H127737   5.390   6.633   0.274
 9264TIP3    H227738   5.242   6.636   0.241
 9265TIP3   OH227739   1.485   6.229   3.128
 9265TIP3    H127740   1.457   6.317   3.154
 9265TIP3    H227741   1.459   6.173   3.200
 9266TIP3   OH227742   7.775   5.805   4.776
 9266TIP3    H127743   7.835   5.730   4.764
 9266TIP3    H227744   7.688   5.767   4.767
 9267TIP3   OH227745   7.756   1.344   3.947
 9267TIP3    H127746   7.726   1.254   3.933
 9267TIP3    H227747   7.707   1.374   4.023
 9268TIP3   OH227748   7.080   2.911   3.731
 9268TIP3    H127749   7.149   2.975   3.746
 9268TIP3    H227750   7.120   2.827   3.754
 9269TIP3   OH227751   6.107   4.516   5.696
 9269TIP3    H127752   6.078   4.445   5.639
 9269TIP3    H227753   6.201   4.502   5.706
 9270TIP3   OH227754   6.454   4.495   0.895
 9270TIP3    H127755   6.493   4.577   0.925
 9270TIP3    H227756   6.366   4.495   0.932
 9271TIP3   OH227757   6.630   5.442   5.865
 9271TIP3    H127758   6.679   5.388   5.803
 9271TIP3    H227759   6.539   5.430   5.840
 9272TIP3   OH227760   2.076   1.175   6.485
 9272TIP3    H127761   2.125   1.219   6.415
 9272TIP3    H227762   1.990   1.216   6.484
 9273TIP3   OH227763   2.188   3.657   1.163
 9273TIP3    H127764   2.193   3.594   1.235
 9273TIP3    H227765   2.270   3.645   1.114
 9274TIP3   OH227766   6.524   2.663   1.875
 9274TIP3    H127767   6.607   2.627   1.844
 9274TIP3    H227768   6.526   2.652   1.970
 9275TIP3   OH227769   6.930   0.064   3.438
 9275TIP3    H127770   6.849   0.013   3.437
 9275TIP3    H227771   6.962   0.056   3.528
 9276TIP3   OH227772   2.080   4.897   6.367
 9276TIP3    H127773   2.063   4.880   6.275
 9276TIP3    H227774   2.161   4.849   6.385
 9277TIP3   OH227775   7.243   3.847   4.136
 9277TIP3    H127776   7.311   3.915   4.133
 9277TIP3    H227777   7.219   3.840   4.228
 9278TIP3   OH227778   3.454   2.341   3.276
 9278TIP3    H127779   3.495   2.416   3.320
 9278TIP3    H227780   3.524   2.276   3.270
 9279TIP3   OH227781   5.318   2.057   5.848
 9279TIP3    H127782   5.341   2.127   5.787
 9279TIP3    H227783   5.355   1.978   5.809
 9280TIP3   OH227784   0.713   1.242   4.216
 9280TIP3    H127785   0.798   1.266   4.178
 9280TIP3    H227786   0.729   1.156   4.254
 9281TIP3   OH227787   5.294   5.909   0.022
 9281TIP3    H127788   5.377   5.891   0.067
 9281TIP3    H227789   5.244   5.963   0.084
 9282TIP3   OH227790   3.245   5.915   5.971
 9282TIP3    H127791   3.180   5.858   5.931
 9282TIP3    H227792   3.216   6.004   5.950
 9283TIP3   OH227793   8.165   4.346   6.342
 9283TIP3    H127794   8.237   4.330   6.403
 9283TIP3    H227795   8.099   4.392   6.393
 9284TIP3   OH227796   2.897   1.120   0.612
 9284TIP3    H127797   2.887   1.025   0.601
 9284TIP3    H227798   2.899   1.155   0.523
 9285TIP3   OH227799   1.462   5.748   4.652
 9285TIP3    H127800   1.463   5.777   4.743
 9285TIP3    H227801   1.414   5.816   4.605
 9286TIP3   OH227802   3.405   5.830   1.560
 9286TIP3    H127803   3.471   5.769   1.592
 9286TIP3    H227804   3.385   5.886   1.635
 9287TIP3   OH227805   2.314   5.743   2.027
 9287TIP3    H127806   2.251   5.794   2.077
 9287TIP3    H227807   2.398   5.762   2.068
 9288TIP3   OH227808   4.822   2.522   4.758
 9288TIP3    H127809   4.807   2.614   4.776
 9288TIP3    H227810   4.862   2.487   4.837
 9289TIP3   OH227811   3.325   4.843   2.715
 9289TIP3    H127812   3.335   4.906   2.786
 9289TIP3    H227813   3.388   4.872   2.649
 9290TIP3   OH227814   6.300   4.798   3.361
 9290TIP3    H127815   6.211   4.777   3.388
 9290TIP3    H227816   6.323   4.875   3.413
 9291TIP3   OH227817   3.713   2.459   1.839
 9291TIP3    H127818   3.731   2.393   1.905
 9291TIP3    H227819   3.798   2.502   1.823
 9292TIP3   OH227820   4.781   3.608   5.732
 9292TIP3    H127821   4.799   3.653   5.649
 9292TIP3    H227822   4.840   3.533   5.731
 9293TIP3   OH227823   4.103   6.488   3.103
 9293TIP3    H127824   4.179   6.501   3.046
 9293TIP3    H227825   4.097   6.568   3.155
 9294TIP3   OH227826   5.352  -0.019   3.581
 9294TIP3    H127827   5.348   0.002   3.675
 9294TIP3    H227828   5.335   0.064   3.537
 9295TIP3   OH227829   4.718   7.140   4.120
 9295TIP3    H127830   4.770   7.078   4.171
 9295TIP3    H227831   4.634   7.097   4.108
 9296TIP3   OH227832   0.975   3.717   3.273
 9296TIP3    H127833   0.923   3.639   3.255
 9296TIP3    H227834   1.013   3.701   3.359
 9297TIP3   OH227835   1.402   2.554   2.788
 9297TIP3    H127836   1.392   2.473   2.838
 9297TIP3    H227837   1.369   2.623   2.847
 9298TIP3   OH227838   6.338   0.070   1.937
 9298TIP3    H127839   6.314   0.114   1.856
 9298TIP3    H227840   6.424   0.105   1.959
 9299TIP3   OH227841   5.744   1.893   0.959
 9299TIP3    H127842   5.825   1.850   0.932
 9299TIP3    H227843   5.729   1.863   1.049
 9300TIP3   OH227844   0.229   4.774   2.750
 9300TIP3    H127845   0.146   4.757   2.795
 9300TIP3    H227846   0.246   4.693   2.701
 9301TIP3   OH227847   0.175   6.354   6.635
 9301TIP3    H127848   0.139   6.360   6.546
 9301TIP3    H227849   0.168   6.261   6.658
 9302TIP3   OH227850   6.696   0.772   1.664
 9302TIP3    H127851   6.724   0.688   1.629
 9302TIP3    H227852   6.772   0.804   1.713
 9303TIP3   OH227853   6.707   1.892   2.279
 9303TIP3    H127854   6.721   1.801   2.304
 9303TIP3    H227855   6.681   1.888   2.187
 9304TIP3   OH227856   4.426   5.561   1.743
 9304TIP3    H127857   4.473   5.490   1.786
 9304TIP3    H227858   4.362   5.590   1.807
 9305TIP3   OH227859   4.509   0.674   0.784
 9305TIP3    H127860   4.530   0.630   0.702
 9305TIP3    H227861   4.418   0.700   0.775
 9306TIP3   OH227862   7.819   7.724   5.722
 9306TIP3    H127863   7.735   7.725   5.676
 9306TIP3    H227864   7.877   7.671   5.667
 9307TIP3   OH227865   8.150   5.229   5.170
 9307TIP3    H127866   8.147   5.142   5.208
 9307TIP3    H227867   8.101   5.284   5.231
 9308TIP3   OH227868   6.327   7.407   0.568
 9308TIP3    H127869   6.417   7.420   0.538
 9308TIP3    H227870   6.329   7.325   0.616
 9309TIP3   OH227871   0.832   6.834   3.444
 9309TIP3    H127872   0.903   6.884   3.404
 9309TIP3    H227873   0.752   6.882   3.419
 9310TIP3   OH227874   1.501   4.003   0.942
 9310TIP3    H127875   1.431   3.949   0.905
 9310TIP3    H227876   1.581   3.966   0.905
 9311TIP3   OH227877   1.163   1.921   3.343
 9311TIP3    H127878   1.258   1.920   3.331
 9311TIP3    H227879   1.136   2.005   3.305
 9312TIP3   OH227880   2.451   6.897   3.654
 9312TIP3    H127881   2.546   6.910   3.648
 9312TIP3    H227882   2.440   6.803   3.665
 9313TIP3   OH227883   7.917   5.487   3.685
 9313TIP3    H127884   7.918   5.525   3.597
 9313TIP3    H227885   8.006   5.453   3.697
 9314TIP3   OH227886   1.470   6.446   3.558
 9314TIP3    H127887   1.492   6.453   3.650
 9314TIP3    H227888   1.482   6.535   3.523
 9315TIP3   OH227889   5.100   6.354   4.275
 9315TIP3    H127890   5.114   6.374   4.183
 9315TIP3    H227891   5.039   6.280   4.274
 9316TIP3   OH227892   6.683   4.967   3.518
 9316TIP3    H127893   6.633   4.934   3.592
 9316TIP3    H227894   6.718   4.888   3.476
 9317TIP3   OH227895   1.471   2.002   0.520
 9317TIP3    H127896   1.510   2.032   0.438
 9317TIP3    H227897   1.406   1.936   0.493
 9318TIP3   OH227898   3.981   6.055   1.987
 9318TIP3    H127899   4.050   5.992   1.966
 9318TIP3    H227900   3.968   6.044   2.082
 9319TIP3   OH227901   1.236   0.050   6.333
 9319TIP3    H127902   1.210   0.023   6.421
 9319TIP3    H227903   1.227  -0.030   6.280
 9320TIP3   OH227904   7.234   6.318   2.863
 9320TIP3    H127905   7.147   6.356   2.847
 9320TIP3    H227906   7.253   6.339   2.954
 9321TIP3   OH227907   6.667   3.094   0.135
 9321TIP3    H127908   6.693   3.185   0.149
 9321TIP3    H227909   6.641   3.063   0.222
 9322TIP3   OH227910   0.337   5.641   3.805
 9322TIP3    H127911   0.267   5.631   3.870
 9322TIP3    H227912   0.294   5.682   3.730
 9323TIP3   OH227913   1.223   1.084   0.690
 9323TIP3    H127914   1.185   1.010   0.738
 9323TIP3    H227915   1.160   1.155   0.702
 9324TIP3   OH227916   8.055   4.931   3.484
 9324TIP3    H127917   8.040   4.974   3.400
 9324TIP3    H227918   8.001   4.981   3.546
 9325TIP3   OH227919   7.851   1.213   1.245
 9325TIP3    H127920   7.874   1.243   1.157
 9325TIP3    H227921   7.825   1.122   1.233
 9326TIP3   OH227922   4.963   0.351   2.509
 9326TIP3    H127923   5.048   0.307   2.500
 9326TIP3    H227924   4.957   0.406   2.431
 9327TIP3   OH227925   5.676   5.848   5.838
 9327TIP3    H127926   5.701   5.920   5.897
 9327TIP3    H227927   5.748   5.786   5.843
 9328TIP3   OH227928   8.274   7.064   3.273
 9328TIP3    H127929   8.291   6.987   3.218
 9328TIP3    H227930   8.352   7.072   3.328
 9329TIP3   OH227931   4.393   2.442   6.730
 9329TIP3    H127932   4.335   2.515   6.707
 9329TIP3    H227933   4.479   2.482   6.742
 9330TIP3   OH227934   1.413   1.576   2.605
 9330TIP3    H127935   1.380   1.608   2.521
 9330TIP3    H227936   1.501   1.615   2.613
 9331TIP3   OH227937   1.149   2.027   5.132
 9331TIP3    H127938   1.171   2.066   5.217
 9331TIP3    H227939   1.233   2.006   5.093
 9332TIP3   OH227940   4.730   1.011   5.545
 9332TIP3    H127941   4.783   0.965   5.481
 9332TIP3    H227942   4.640   0.992   5.520
 9333TIP3   OH227943   7.592   1.438   1.232
 9333TIP3    H127944   7.605   1.426   1.138
 9333TIP3    H227945   7.533   1.367   1.258
 9334TIP3   OH227946   3.646   7.471   2.324
 9334TIP3    H127947   3.737   7.455   2.347
 9334TIP3    H227948   3.650   7.537   2.254
 9335TIP3   OH227949   7.163   7.561   1.633
 9335TIP3    H127950   7.176   7.596   1.545
 9335TIP3    H227951   7.151   7.467   1.619
 9336TIP3   OH227952   2.537   2.950   0.068
 9336TIP3    H127953   2.563   3.011   0.136
 9336TIP3    H227954   2.611   2.949   0.006
 9337TIP3   OH227955   7.608   0.633   0.985
 9337TIP3    H127956   7.681   0.656   0.929
 9337TIP3    H227957   7.571   0.554   0.945
 9338TIP3   OH227958   6.382   0.396   3.169
 9338TIP3    H127959   6.332   0.362   3.095
 9338TIP3    H227960   6.362   0.490   3.170
 9339TIP3   OH227961   5.378   2.615   5.295
 9339TIP3    H127962   5.358   2.533   5.251
 9339TIP3    H227963   5.440   2.591   5.364
 9340TIP3   OH227964   0.499   2.193   3.915
 9340TIP3    H127965   0.427   2.255   3.916
 9340TIP3    H227966   0.515   2.177   3.822
 9341TIP3   OH227967   4.545   6.545   2.781
 9341TIP3    H127968   4.490   6.468   2.765
 9341TIP3    H227969   4.624   6.510   2.823
 9342TIP3   OH227970   8.243   3.698   4.450
 9342TIP3    H127971   8.315   3.758   4.430
 9342TIP3    H227972   8.282   3.632   4.507
 9343TIP3   OH227973   5.051   6.002   0.448
 9343TIP3    H127974   5.072   5.927   0.504
 9343TIP3    H227975   4.963   5.983   0.414
 9344TIP3   OH227976   7.487   7.378   5.262
 9344TIP3    H127977   7.556   7.314   5.281
 9344TIP3    H227978   7.449   7.350   5.179
 9345TIP3   OH227979   4.259   4.307   0.456
 9345TIP3    H127980   4.302   4.329   0.539
 9345TIP3    H227981   4.166   4.317   0.474
 9346TIP3   OH227982   1.706   7.529   3.810
 9346TIP3    H127983   1.640   7.551   3.875
 9346TIP3    H227984   1.656   7.512   3.730
 9347TIP3   OH227985   7.675   4.575   5.997
 9347TIP3    H127986   7.633   4.628   6.064
 9347TIP3    H227987   7.743   4.631   5.960
 9348TIP3   OH227988   3.251   4.209   0.375
 9348TIP3    H127989   3.241   4.299   0.343
 9348TIP3    H227990   3.274   4.159   0.297
 9349TIP3   OH227991   3.075   6.049   2.735
 9349TIP3    H127992   2.981   6.061   2.720
 9349TIP3    H227993   3.094   6.105   2.810
 9350TIP3   OH227994   6.137   0.982   4.769
 9350TIP3    H127995   6.164   0.994   4.860
 9350TIP3    H227996   6.041   0.991   4.772
 9351TIP3   OH227997   6.190   6.154   4.403
 9351TIP3    H127998   6.182   6.218   4.333
 9351TIP3    H227999   6.177   6.205   4.483
 9352TIP3   OH228000   4.599   0.608   4.752
 9352TIP3    H128001   4.687   0.574   4.734
 9352TIP3    H228002   4.574   0.566   4.834
 9353TIP3   OH228003   7.511   7.628   0.533
 9353TIP3    H128004   7.545   7.717   0.544
 9353TIP3    H228005   7.417   7.636   0.549
 9354TIP3   OH228006   4.805   5.999   5.300
 9354TIP3    H128007   4.750   5.925   5.327
 9354TIP3    H228008   4.785   6.068   5.362
 9355TIP3   OH228009   0.942   2.690   3.964
 9355TIP3    H128010   0.984   2.606   3.945
 9355TIP3    H228011   0.993   2.754   3.915
 9356TIP3   OH228012   4.294   7.667  -0.015
 9356TIP3    H128013   4.272   7.761  -0.015
 9356TIP3    H228014   4.311   7.647   0.076
 9357TIP3   OH228015   0.654   7.534   4.470
 9357TIP3    H128016   0.591   7.566   4.406
 9357TIP3    H228017   0.603   7.521   4.550
 9358TIP3   OH228018   3.788   2.663   3.220
 9358TIP3    H128019   3.757   2.669   3.130
 9358TIP3    H228020   3.860   2.600   3.217
 9359TIP3   OH228021   0.301   5.124   2.171
 9359TIP3    H128022   0.271   5.060   2.106
 9359TIP3    H228023   0.391   5.144   2.145
 9360TIP3   OH228024   2.964   0.517   1.675
 9360TIP3    H128025   2.883   0.478   1.709
 9360TIP3    H228026   2.993   0.578   1.743
 9361TIP3   OH228027   2.340   4.198   2.052
 9361TIP3    H128028   2.367   4.106   2.049
 9361TIP3    H228029   2.400   4.238   2.114
 9362TIP3   OH228030   4.678   2.668   3.733
 9362TIP3    H128031   4.592   2.627   3.729
 9362TIP3    H228032   4.661   2.758   3.761
 9363TIP3   OH228033   6.158   0.470   4.907
 9363TIP3    H128034   6.119   0.554   4.933
 9363TIP3    H228035   6.105   0.440   4.834
 9364TIP3   OH228036   5.422   3.676   6.505
 9364TIP3    H128037   5.462   3.594   6.533
 9364TIP3    H228038   5.402   3.663   6.413
 9365TIP3   OH228039   5.285   3.861   1.951
 9365TIP3    H128040   5.234   3.927   1.997
 9365TIP3    H228041   5.225   3.786   1.944
 9366TIP3   OH228042   4.372   4.015   0.727
 9366TIP3    H128043   4.458   4.053   0.708
 9366TIP3    H228044   4.372   4.001   0.821
 9367TIP3   OH228045   5.799   5.734   1.795
 9367TIP3    H128046   5.762   5.810   1.840
 9367TIP3    H228047   5.751   5.729   1.713
 9368TIP3   OH228048   3.415   3.849   0.258
 9368TIP3    H128049   3.377   3.858   0.345
 9368TIP3    H228050   3.343   3.818   0.203
 9369TIP3   OH228051   6.197   6.261   5.187
 9369TIP3    H128052   6.208   6.272   5.093
 9369TIP3    H228053   6.107   6.229   5.197
 9370TIP3   OH228054   6.112   3.828   3.079
 9370TIP3    H128055   6.177   3.783   3.133
 9370TIP3    H228056   6.028   3.801   3.115
 9371TIP3   OH228057   2.831   3.247   5.270
 9371TIP3    H128058   2.859   3.157   5.286
 9371TIP3    H228059   2.800   3.247   5.179
 9372TIP3   OH228060   8.185   5.279   1.089
 9372TIP3    H128061   8.184   5.354   1.148
 9372TIP3    H228062   8.178   5.203   1.147
 9373TIP3   OH228063   3.418   2.299   5.931
 9373TIP3    H128064   3.361   2.271   6.003
 9373TIP3    H228065   3.503   2.259   5.950
 9374TIP3   OH228066   2.135   0.756   3.003
 9374TIP3    H128067   2.070   0.826   2.994
 9374TIP3    H228068   2.158   0.733   2.913
 9375TIP3   OH228069   7.629   6.306   5.872
 9375TIP3    H128070   7.615   6.397   5.898
 9375TIP3    H228071   7.548   6.262   5.898
 9376TIP3   OH228072   6.489   0.973   6.116
 9376TIP3    H128073   6.512   0.894   6.067
 9376TIP3    H228074   6.442   1.027   6.053
 9377TIP3   OH228075   7.021   0.728   4.688
 9377TIP3    H128076   7.076   0.715   4.610
 9377TIP3    H228077   7.058   0.668   4.753
 9378TIP3   OH228078   0.702   4.676   1.433
 9378TIP3    H128079   0.650   4.623   1.494
 9378TIP3    H228080   0.787   4.633   1.430
 9379TIP3   OH228081   3.235   6.659   3.099
 9379TIP3    H128082   3.317   6.612   3.088
 9379TIP3    H228083   3.247   6.740   3.049
 9380TIP3   OH228084   5.573   5.258   0.577
 9380TIP3    H128085   5.646   5.248   0.516
 9380TIP3    H228086   5.511   5.316   0.532
 9381TIP3   OH228087   3.261   7.270   3.692
 9381TIP3    H128088   3.305   7.214   3.629
 9381TIP3    H228089   3.315   7.265   3.771
 9382TIP3   OH228090   0.867   7.703   0.027
 9382TIP3    H128091   0.817   7.738  -0.047
 9382TIP3    H228092   0.862   7.772   0.093
 9383TIP3   OH228093   3.192   6.787   1.786
 9383TIP3    H128094   3.258   6.743   1.732
 9383TIP3    H228095   3.122   6.809   1.725
 9384TIP3   OH228096   3.119   6.435   3.532
 9384TIP3    H128097   3.112   6.452   3.438
 9384TIP3    H228098   3.134   6.341   3.539
 9385TIP3   OH228099   1.045   4.056   4.352
 9385TIP3    H128100   1.065   4.050   4.446
 9385TIP3    H228101   1.005   3.972   4.331
 9386TIP3   OH228102   4.146   5.711   3.920
 9386TIP3    H128103   4.062   5.667   3.920
 9386TIP3    H228104   4.202   5.657   3.976
 9387TIP3   OH228105   4.554   2.516   4.047
 9387TIP3    H128106   4.552   2.424   4.022
 9387TIP3    H228107   4.647   2.534   4.064
 9388TIP3   OH228108   6.210   0.239   5.350
 9388TIP3    H128109   6.120   0.243   5.382
 9388TIP3    H228110   6.201   0.235   5.255
 9389TIP3   OH228111   5.271   0.079   6.310
 9389TIP3    H128112   5.291   0.035   6.393
 9389TIP3    H228113   5.286   0.172   6.328
 9390TIP3   OH228114   5.617   0.757   0.785
 9390TIP3    H128115   5.523   0.747   0.773
 9390TIP3    H228116   5.626   0.814   0.861
 9391TIP3   OH228117   2.399   4.246   2.819
 9391TIP3    H128118   2.416   4.174   2.758
 9391TIP3    H228119   2.410   4.325   2.767
 9392TIP3   OH228120   7.382   2.497   3.494
 9392TIP3    H128121   7.436   2.501   3.573
 9392TIP3    H228122   7.411   2.572   3.442
 9393TIP3   OH228123   6.832   6.559   3.747
 9393TIP3    H128124   6.859   6.563   3.838
 9393TIP3    H228125   6.803   6.469   3.734
 9394TIP3   OH228126   3.577   0.353   2.584
 9394TIP3    H128127   3.525   0.434   2.588
 9394TIP3    H228128   3.514   0.283   2.600
 9395TIP3   OH228129   0.622   5.636   0.642
 9395TIP3    H128130   0.580   5.575   0.582
 9395TIP3    H228131   0.708   5.654   0.603
 9396TIP3   OH228132   0.931   3.066   6.507
 9396TIP3    H128133   0.902   3.053   6.416
 9396TIP3    H228134   0.861   3.117   6.547
 9397TIP3   OH228135   0.088   3.989   3.518
 9397TIP3    H128136   0.157   3.953   3.574
 9397TIP3    H228137   0.007   3.953   3.553
 9398TIP3   OH228138   4.980   4.237   6.399
 9398TIP3    H128139   4.960   4.166   6.338
 9398TIP3    H228140   4.975   4.195   6.485
 9399TIP3   OH228141   7.334   0.377   5.874
 9399TIP3    H128142   7.375   0.306   5.826
 9399TIP3    H228143   7.406   0.421   5.919
 9400TIP3   OH228144   1.090   2.034   1.485
 9400TIP3    H128145   1.061   2.124   1.471
 9400TIP3    H228146   1.022   1.995   1.539
 9401TIP3   OH228147   4.375   4.411   5.262
 9401TIP3    H128148   4.314   4.416   5.336
 9401TIP3    H228149   4.450   4.361   5.295
 9402TIP3   OH228150   0.328   3.871   4.819
 9402TIP3    H128151   0.407   3.897   4.867
 9402TIP3    H228152   0.349   3.890   4.727
 9403TIP3   OH228153   5.446   4.801   6.123
 9403TIP3    H128154   5.527   4.805   6.175
 9403TIP3    H228155   5.390   4.740   6.171
 9404TIP3   OH228156   2.222   5.570   5.015
 9404TIP3    H128157   2.238   5.545   4.924
 9404TIP3    H228158   2.199   5.663   5.011
 9405TIP3   OH228159   1.723   5.083   3.721
 9405TIP3    H128160   1.752   5.119   3.637
 9405TIP3    H228161   1.676   5.003   3.698
 9406TIP3   OH228162   4.451   5.646   4.453
 9406TIP3    H128163   4.390   5.622   4.523
 9406TIP3    H228164   4.434   5.739   4.437
 9407TIP3   OH228165   4.709   3.342   1.138
 9407TIP3    H128166   4.803   3.325   1.144
 9407TIP3    H228167   4.677   3.277   1.076
 9408TIP3   OH228168   0.917   4.477   5.249
 9408TIP3    H128169   0.967   4.480   5.167
 9408TIP3    H228170   0.845   4.538   5.235
 9409TIP3   OH228171   7.001   1.282   3.468
 9409TIP3    H128172   6.932   1.284   3.535
 9409TIP3    H228173   6.955   1.263   3.387
 9410TIP3   OH228174   2.472   0.282   4.936
 9410TIP3    H128175   2.440   0.292   4.847
 9410TIP3    H228176   2.424   0.347   4.987
 9411TIP3   OH228177   7.595   4.431   5.500
 9411TIP3    H128178   7.519   4.392   5.458
 9411TIP3    H228179   7.562   4.464   5.584
 9412TIP3   OH228180   8.111   3.041   2.877
 9412TIP3    H128181   8.108   3.114   2.815
 9412TIP3    H228182   8.151   3.078   2.956
 9413TIP3   OH228183   4.868   0.493   4.700
 9413TIP3    H128184   4.958   0.520   4.721
 9413TIP3    H228185   4.846   0.544   4.622
 9414TIP3   OH228186   1.000   3.658   1.207
 9414TIP3    H128187   0.991   3.567   1.180
 9414TIP3    H228188   0.914   3.681   1.242
 9415TIP3   OH228189   5.337   2.094   2.598
 9415TIP3    H128190   5.321   2.118   2.507
 9415TIP3    H228191   5.267   2.138   2.647
 9416TIP3   OH228192   5.849   3.640   3.571
 9416TIP3    H128193   5.932   3.612   3.533
 9416TIP3    H228194   5.837   3.730   3.538
 9417TIP3   OH228195   5.448   3.969   0.632
 9417TIP3    H128196   5.511   4.020   0.683
 9417TIP3    H228197   5.503   3.909   0.581
 9418TIP3   OH228198   0.990   5.911   1.276
 9418TIP3    H128199   0.897   5.928   1.259
 9418TIP3    H228200   1.021   5.992   1.318
 9419TIP3   OH228201   6.338   5.419   1.520
 9419TIP3    H128202   6.301   5.501   1.552
 9419TIP3    H228203   6.280   5.392   1.449
 9420TIP3   OH228204   5.664   6.973   5.291
 9420TIP3    H128205   5.582   6.932   5.317
 9420TIP3    H228206   5.705   6.910   5.231
 9421TIP3   OH228207   1.434   6.574   1.701
 9421TIP3    H128208   1.465   6.649   1.750
 9421TIP3    H228209   1.374   6.529   1.761
 9422TIP3   OH228210   6.399   3.806   5.610
 9422TIP3    H128211   6.391   3.876   5.546
 9422TIP3    H228212   6.485   3.768   5.594
 9423TIP3   OH228213   8.016   6.006   0.745
 9423TIP3    H128214   8.005   5.924   0.696
 9423TIP3    H228215   8.098   5.993   0.793
 9424TIP3   OH228216   3.159   3.699   2.009
 9424TIP3    H128217   3.187   3.764   2.073
 9424TIP3    H228218   3.087   3.652   2.052
 9425TIP3   OH228219   0.779   6.568   5.147
 9425TIP3    H128220   0.852   6.623   5.116
 9425TIP3    H228221   0.811   6.479   5.135
 9426TIP3   OH228222  -0.031   6.806   3.569
 9426TIP3    H128223   0.065   6.816   3.567
 9426TIP3    H228224  -0.059   6.863   3.641
 9427TIP3   OH228225   5.492   6.230   5.108
 9427TIP3    H128226   5.541   6.218   5.189
 9427TIP3    H228227   5.558   6.250   5.042
 9428TIP3   OH228228   0.090   1.205   5.265
 9428TIP3    H128229  -0.001   1.184   5.244
 9428TIP3    H228230   0.109   1.150   5.341
 9429TIP3   OH228231   0.329   0.284   3.112
 9429TIP3    H128232   0.293   0.371   3.127
 9429TIP3    H228233   0.297   0.259   3.025
 9430TIP3   OH228234   4.793   2.844   2.510
 9430TIP3    H128235   4.780   2.936   2.529
 9430TIP3    H228236   4.718   2.820   2.455
 9431TIP3   OH228237   7.829   1.475   4.591
 9431TIP3    H128238   7.791   1.563   4.595
 9431TIP3    H228239   7.796   1.430   4.669
 9432TIP3   OH228240   8.164   0.085   6.518
 9432TIP3    H128241   8.101   0.013   6.511
 9432TIP3    H228242   8.218   0.077   6.439
 9433TIP3   OH228243   5.289   1.468   6.312
 9433TIP3    H128244   5.229   1.542   6.307
 9433TIP3    H228245   5.374   1.504   6.286
 9434TIP3   OH228246   2.855   7.122   2.681
 9434TIP3    H128247   2.861   7.074   2.599
 9434TIP3    H228248   2.813   7.061   2.742
 9435TIP3   OH228249   1.214   7.787   4.394
 9435TIP3    H128250   1.283   7.722   4.383
 9435TIP3    H228251   1.134   7.736   4.405
 9436TIP3   OH228252   2.349   4.250   5.723
 9436TIP3    H128253   2.274   4.204   5.759
 9436TIP3    H228254   2.375   4.199   5.646
 9437TIP3   OH228255   4.828   1.784   4.023
 9437TIP3    H128256   4.892   1.749   3.961
 9437TIP3    H228257   4.881   1.808   4.100
 9438TIP3   OH228258   1.849   5.748   5.309
 9438TIP3    H128259   1.881   5.659   5.292
 9438TIP3    H228260   1.873   5.764   5.401
 9439TIP3   OH228261   0.078   3.540   4.644
 9439TIP3    H128262   0.072   3.623   4.691
 9439TIP3    H228263   0.052   3.475   4.708
 9440TIP3   OH228264   7.725   3.792   1.643
 9440TIP3    H128265   7.675   3.715   1.617
 9440TIP3    H228266   7.667   3.838   1.705
 9441TIP3   OH228267   0.359   1.493   1.045
 9441TIP3    H128268   0.344   1.587   1.053
 9441TIP3    H228269   0.444   1.479   1.087
 9442TIP3   OH228270   4.771   5.960   6.672
 9442TIP3    H128271   4.772   5.943   6.578
 9442TIP3    H228272   4.833   5.896   6.708
 9443TIP3   OH228273   5.387   6.310   2.462
 9443TIP3    H128274   5.325   6.271   2.401
 9443TIP3    H228275   5.448   6.239   2.483
 9444TIP3   OH228276   5.853   6.100   5.951
 9444TIP3    H128277   5.912   6.039   5.906
 9444TIP3    H228278   5.878   6.094   6.043
 9445TIP3   OH228279   1.200   0.839   4.047
 9445TIP3    H128280   1.257   0.887   4.107
 9445TIP3    H228281   1.233   0.749   4.050
 9446TIP3   OH228282   4.216   5.039   2.000
 9446TIP3    H128283   4.177   5.066   2.084
 9446TIP3    H228284   4.178   4.953   1.982
 9447TIP3   OH228285   1.035   2.973   5.203
 9447TIP3    H128286   1.014   2.953   5.112
 9447TIP3    H228287   1.028   2.889   5.248
 9448TIP3   OH228288   0.856   5.139   1.966
 9448TIP3    H128289   0.895   5.226   1.958
 9448TIP3    H228290   0.888   5.106   2.050
 9449TIP3   OH228291   4.214   0.299   2.288
 9449TIP3    H128292   4.283   0.346   2.241
 9449TIP3    H228293   4.222   0.209   2.258
 9450TIP3   OH228294   5.135   3.925   1.670
 9450TIP3    H128295   5.088   3.991   1.620
 9450TIP3    H228296   5.217   3.967   1.694
 9451TIP3   OH228297   2.778   0.593   0.602
 9451TIP3    H128298   2.818   0.538   0.668
 9451TIP3    H228299   2.692   0.615   0.637
 9452TIP3   OH228300   8.074   4.530   0.413
 9452TIP3    H128301   8.067   4.546   0.319
 9452TIP3    H228302   8.111   4.442   0.420
 9453TIP3   OH228303   7.361   0.426   2.049
 9453TIP3    H128304   7.357   0.520   2.071
 9453TIP3    H228305   7.404   0.386   2.124
 9454TIP3   OH228306   4.110   3.814   5.746
 9454TIP3    H128307   4.110   3.743   5.810
 9454TIP3    H228308   4.187   3.866   5.768
 9455TIP3   OH228309   6.491   0.367   2.835
 9455TIP3    H128310   6.421   0.326   2.886
 9455TIP3    H228311   6.448   0.439   2.789
 9456TIP3   OH228312   1.750   6.595   6.714
 9456TIP3    H128313   1.709   6.522   6.667
 9456TIP3    H228314   1.836   6.605   6.672
 9457TIP3   OH228315   1.662   1.080   3.777
 9457TIP3    H128316   1.679   1.137   3.702
 9457TIP3    H228317   1.681   1.135   3.853
 9458TIP3   OH228318   7.723   2.030   0.860
 9458TIP3    H128319   7.636   2.018   0.899
 9458TIP3    H228320   7.774   2.076   0.927
 9459TIP3   OH228321   0.475   1.619   5.124
 9459TIP3    H128322   0.459   1.703   5.081
 9459TIP3    H228323   0.481   1.556   5.052
 9460TIP3   OH228324   6.385   4.351   5.215
 9460TIP3    H128325   6.330   4.282   5.252
 9460TIP3    H228326   6.399   4.412   5.286
 9461TIP3   OH228327   6.613   1.102   2.510
 9461TIP3    H128328   6.611   1.196   2.492
 9461TIP3    H228329   6.706   1.081   2.518
 9462TIP3   OH228330   4.731   5.323   4.938
 9462TIP3    H128331   4.638   5.322   4.960
 9462TIP3    H228332   4.738   5.265   4.862
 9463TIP3   OH228333   7.650   6.914   0.316
 9463TIP3    H128334   7.641   7.010   0.318
 9463TIP3    H228335   7.565   6.881   0.346
 9464TIP3   OH228336   4.318   1.069   6.557
 9464TIP3    H128337   4.377   1.045   6.630
 9464TIP3    H228338   4.291   0.985   6.520
 9465TIP3   OH228339   2.854   4.575   4.652
 9465TIP3    H128340   2.786   4.577   4.720
 9465TIP3    H228341   2.806   4.560   4.571
 9466TIP3   OH228342   3.210   5.163   0.417
 9466TIP3    H128343   3.202   5.083   0.366
 9466TIP3    H228344   3.304   5.170   0.436
 9467TIP3   OH228345   3.023   6.180   1.661
 9467TIP3    H128346   2.968   6.225   1.725
 9467TIP3    H228347   2.973   6.103   1.636
 9468TIP3   OH228348   1.379   7.571   2.689
 9468TIP3    H128349   1.294   7.572   2.733
 9468TIP3    H228350   1.373   7.502   2.624
 9469TIP3   OH228351   1.132   5.490   2.786
 9469TIP3    H128352   1.195   5.481   2.858
 9469TIP3    H228353   1.169   5.559   2.731
 9470TIP3   OH228354   6.796   6.453   5.924
 9470TIP3    H128355   6.773   6.532   5.973
 9470TIP3    H228356   6.721   6.395   5.936
 9471TIP3   OH228357   3.406   1.928   6.647
 9471TIP3    H128358   3.402   1.844   6.693
 9471TIP3    H228359   3.321   1.935   6.604
 9472TIP3   OH228360   2.317   3.007   4.917
 9472TIP3    H128361   2.274   2.979   4.997
 9472TIP3    H228362   2.377   2.935   4.895
 9473TIP3   OH228363   7.810   3.868   1.408
 9473TIP3    H128364   7.755   3.937   1.373
 9473TIP3    H228365   7.763   3.836   1.485
 9474TIP3   OH228366   4.931   3.189   3.590
 9474TIP3    H128367   4.942   3.117   3.529
 9474TIP3    H228368   5.004   3.180   3.651
 9475TIP3   OH228369   6.864   2.840   1.535
 9475TIP3    H128370   6.796   2.906   1.543
 9475TIP3    H228371   6.944   2.883   1.566
 9476TIP3   OH228372   3.828   1.059   6.267
 9476TIP3    H128373   3.919   1.046   6.295
 9476TIP3    H228374   3.834   1.070   6.172
 9477TIP3   OH228375   6.305   1.153   4.623
 9477TIP3    H128376   6.247   1.102   4.680
 9477TIP3    H228377   6.333   1.090   4.556
 9478TIP3   OH228378   2.473   0.875   6.403
 9478TIP3    H128379   2.448   0.887   6.312
 9478TIP3    H228380   2.449   0.784   6.423
 9479TIP3   OH228381   5.498   1.686   5.101
 9479TIP3    H128382   5.437   1.702   5.173
 9479TIP3    H228383   5.471   1.602   5.064
 9480TIP3   OH228384   4.382   4.472   2.088
 9480TIP3    H128385   4.444   4.507   2.152
 9480TIP3    H228386   4.331   4.408   2.137
 9481TIP3   OH228387   2.523   3.634   4.264
 9481TIP3    H128388   2.464   3.580   4.212
 9481TIP3    H228389   2.601   3.643   4.210
 9482TIP3   OH228390   4.336   0.146   2.967
 9482TIP3    H128391   4.381   0.203   2.905
 9482TIP3    H228392   4.271   0.100   2.915
 9483TIP3   OH228393   1.855   0.798   2.391
 9483TIP3    H128394   1.851   0.730   2.323
 9483TIP3    H228395   1.765   0.805   2.423
 9484TIP3   OH228396   5.163   1.141   4.208
 9484TIP3    H128397   5.071   1.133   4.235
 9484TIP3    H228398   5.165   1.104   4.120
 9485TIP3   OH228399   7.007   0.766   0.519
 9485TIP3    H128400   7.042   0.816   0.593
 9485TIP3    H228401   6.983   0.682   0.556
 9486TIP3   OH228402   1.806   1.853   6.115
 9486TIP3    H128403   1.870   1.897   6.171
 9486TIP3    H228404   1.762   1.791   6.173
 9487TIP3   OH228405   0.851   2.961   2.105
 9487TIP3    H128406   0.842   2.916   2.189
 9487TIP3    H228407   0.764   2.955   2.065
 9488TIP3   OH228408   7.089   0.102   1.438
 9488TIP3    H128409   7.114   0.023   1.390
 9488TIP3    H228410   7.015   0.075   1.492
 9489TIP3   OH228411   6.727   0.546   5.955
 9489TIP3    H128412   6.790   0.546   5.883
 9489TIP3    H228413   6.710   0.454   5.972
 9490TIP3   OH228414   0.749   4.471   4.834
 9490TIP3    H128415   0.750   4.377   4.848
 9490TIP3    H228416   0.662   4.490   4.797
 9491TIP3   OH228417   6.429   7.618   1.220
 9491TIP3    H128418   6.361   7.554   1.240
 9491TIP3    H228419   6.423   7.630   1.125
 9492TIP3   OH228420   2.528   2.217   1.679
 9492TIP3    H128421   2.485   2.215   1.765
 9492TIP3    H228422   2.613   2.175   1.693
 9493TIP3   OH228423   0.546   2.387   2.250
 9493TIP3    H128424   0.461   2.349   2.271
 9493TIP3    H228425   0.556   2.458   2.313
 9494TIP3   OH228426   2.652   0.196   5.898
 9494TIP3    H128427   2.627   0.213   5.989
 9494TIP3    H228428   2.746   0.211   5.896
 9495TIP3   OH228429   5.651   4.898   3.465
 9495TIP3    H128430   5.688   4.931   3.547
 9495TIP3    H228431   5.559   4.925   3.468
 9496TIP3   OH228432   8.029   2.202   6.501
 9496TIP3    H128433   8.077   2.146   6.439
 9496TIP3    H228434   7.965   2.143   6.541
 9497TIP3   OH228435   5.735   6.497   5.231
 9497TIP3    H128436   5.811   6.456   5.191
 9497TIP3    H228437   5.745   6.590   5.212
 9498TIP3   OH228438   1.442   3.009   5.170
 9498TIP3    H128439   1.483   3.039   5.089
 9498TIP3    H228440   1.515   2.985   5.227
 9499TIP3   OH228441   0.514   0.647   4.064
 9499TIP3    H128442   0.547   0.723   4.017
 9499TIP3    H228443   0.421   0.665   4.076
 9500TIP3   OH228444   4.206   3.336   0.094
 9500TIP3    H128445   4.221   3.256   0.045
 9500TIP3    H228446   4.252   3.322   0.177
 9501TIP3   OH228447   0.118   6.099   3.593
 9501TIP3    H128448   0.062   6.171   3.622
 9501TIP3    H228449   0.195   6.105   3.649
 9502TIP3   OH228450   4.728   3.724   6.615
 9502TIP3    H128451   4.708   3.703   6.707
 9502TIP3    H228452   4.707   3.643   6.568
 9503TIP3   OH228453   4.661   4.000   5.651
 9503TIP3    H128454   4.737   4.055   5.629
 9503TIP3    H228455   4.661   3.931   5.585
 9504TIP3   OH228456   4.585   5.818   2.261
 9504TIP3    H128457   4.527   5.877   2.309
 9504TIP3    H228458   4.667   5.820   2.309
 9505TIP3   OH228459   1.611   4.011   4.560
 9505TIP3    H128460   1.547   3.951   4.521
 9505TIP3    H228461   1.584   4.019   4.651
 9506TIP3   OH228462   4.938   0.274   4.147
 9506TIP3    H128463   4.858   0.226   4.128
 9506TIP3    H228464   4.992   0.265   4.068
 9507TIP3   OH228465   3.149   1.448   0.348
 9507TIP3    H128466   3.231   1.475   0.307
 9507TIP3    H228467   3.167   1.453   0.442
 9508TIP3   OH228468   3.375   6.867   0.985
 9508TIP3    H128469   3.364   6.862   0.890
 9508TIP3    H228470   3.437   6.797   1.006
 9509TIP3   OH228471   2.743   1.054   6.390
 9509TIP3    H128472   2.802   1.130   6.395
 9509TIP3    H228473   2.656   1.091   6.403
 9510TIP3   OH228474   3.354   3.416   2.883
 9510TIP3    H128475   3.436   3.460   2.905
 9510TIP3    H228476   3.370   3.324   2.903
 9511TIP3   OH228477   6.066   6.936   1.710
 9511TIP3    H128478   6.157   6.937   1.740
 9511TIP3    H228479   6.056   7.018   1.662
 9512TIP3   OH228480   2.973   1.844   1.752
 9512TIP3    H128481   3.058   1.835   1.709
 9512TIP3    H228482   2.928   1.762   1.732
 9513TIP3   OH228483   6.686   5.604   5.320
 9513TIP3    H128484   6.716   5.643   5.402
 9513TIP3    H228485   6.679   5.677   5.259
 9514TIP3   OH228486   1.149   4.024   6.486
 9514TIP3    H128487   1.183   4.077   6.414
 9514TIP3    H228488   1.056   4.048   6.491
 9515TIP3   OH228489   0.579   2.491   3.009
 9515TIP3    H128490   0.572   2.550   3.084
 9515TIP3    H228491   0.617   2.411   3.044
 9516TIP3   OH228492   5.471   2.033   1.831
 9516TIP3    H128493   5.393   2.084   1.806
 9516TIP3    H228494   5.511   2.083   1.902
 9517TIP3   OH228495   3.270   3.682   0.826
 9517TIP3    H128496   3.246   3.756   0.771
 9517TIP3    H228497   3.212   3.688   0.902
 9518TIP3   OH228498   7.034   6.875   5.344
 9518TIP3    H128499   7.123   6.901   5.321
 9518TIP3    H228500   7.045   6.821   5.422
 9519TIP3   OH228501   1.338   5.598   3.846
 9519TIP3    H128502   1.299   5.512   3.866
 9519TIP3    H228503   1.366   5.632   3.930
 9520TIP3   OH228504   6.179   7.230   5.980
 9520TIP3    H128505   6.256   7.258   6.031
 9520TIP3    H228506   6.215   7.178   5.908
 9521TIP3   OH228507   7.494   3.877   2.665
 9521TIP3    H128508   7.548   3.811   2.622
 9521TIP3    H228509   7.479   3.943   2.597
 9522TIP3   OH228510   3.916   5.637   1.787
 9522TIP3    H128511   3.881   5.608   1.702
 9522TIP3    H228512   3.956   5.722   1.769
 9523TIP3   OH228513   1.096   4.444   4.582
 9523TIP3    H128514   1.036   4.438   4.508
 9523TIP3    H228515   1.095   4.356   4.620
 9524TIP3   OH228516   2.371   6.901   2.695
 9524TIP3    H128517   2.359   6.928   2.787
 9524TIP3    H228518   2.407   6.979   2.652
 9525TIP3   OH228519   2.059   0.970   3.897
 9525TIP3    H128520   2.123   0.928   3.955
 9525TIP3    H228521   1.977   0.967   3.946
 9526TIP3   OH228522   8.031   4.117   2.923
 9526TIP3    H128523   8.109   4.070   2.953
 9526TIP3    H228524   7.998   4.162   3.001
 9527TIP3   OH228525   2.457   3.367   2.452
 9527TIP3    H128526   2.426   3.456   2.439
 9527TIP3    H228527   2.550   3.376   2.470
 9528TIP3   OH228528   6.897   7.508   0.104
 9528TIP3    H128529   6.897   7.587   0.050
 9528TIP3    H228530   6.805   7.490   0.121
 9529TIP3   OH228531   1.712   1.001   1.229
 9529TIP3    H128532   1.711   1.051   1.311
 9529TIP3    H228533   1.627   1.019   1.189
 9530TIP3   OH228534   0.521   0.515   5.981
 9530TIP3    H128535   0.562   0.558   5.906
 9530TIP3    H228536   0.430   0.545   5.979
 9531TIP3   OH228537   4.048   0.861   0.152
 9531TIP3    H128538   3.996   0.787   0.184
 9531TIP3    H228539   4.002   0.890   0.073
 9532TIP3   OH228540   7.110  -0.009   6.306
 9532TIP3    H128541   7.168   0.015   6.234
 9532TIP3    H228542   7.121   0.061   6.370
 9533TIP3   OH228543   7.246   0.484   1.248
 9533TIP3    H128544   7.262   0.549   1.316
 9533TIP3    H228545   7.332   0.469   1.208
 9534TIP3   OH228546   7.319   0.822   3.194
 9534TIP3    H128547   7.370   0.784   3.265
 9534TIP3    H228548   7.229   0.818   3.223
 9535TIP3   OH228549   5.416   0.256   1.455
 9535TIP3    H128550   5.497   0.209   1.473
 9535TIP3    H228551   5.444   0.342   1.425
 9536TIP3   OH228552   4.686   6.678   4.556
 9536TIP3    H128553   4.651   6.673   4.645
 9536TIP3    H228554   4.688   6.771   4.536
 9537TIP3   OH228555   8.144   0.597   3.565
 9537TIP3    H128556   8.079   0.568   3.629
 9537TIP3    H228557   8.165   0.519   3.514
 9538TIP3   OH228558   6.822   6.757   0.284
 9538TIP3    H128559   6.841   6.825   0.349
 9538TIP3    H228560   6.905   6.745   0.237
 9539TIP3   OH228561   4.481   1.395   6.569
 9539TIP3    H128562   4.442   1.311   6.547
 9539TIP3    H228563   4.545   1.411   6.499
 9540TIP3   OH228564   5.427   2.010   4.006
 9540TIP3    H128565   5.483   2.080   4.042
 9540TIP3    H228566   5.338   2.038   4.028
 9541TIP3   OH228567   7.490   4.515   0.563
 9541TIP3    H128568   7.396   4.529   0.576
 9541TIP3    H228569   7.497   4.479   0.474
 9542TIP3   OH228570   4.394   3.642   6.667
 9542TIP3    H128571   4.354   3.562   6.701
 9542TIP3    H228572   4.373   3.642   6.574
 9543TIP3   OH228573   4.440   6.799   2.177
 9543TIP3    H128574   4.510   6.859   2.150
 9543TIP3    H228575   4.487   6.721   2.207
 9544TIP3   OH228576   0.749   1.945   0.835
 9544TIP3    H128577   0.808   2.018   0.852
 9544TIP3    H228578   0.753   1.931   0.741
 9545TIP3   OH228579   4.324   4.693   1.150
 9545TIP3    H128580   4.311   4.787   1.168
 9545TIP3    H228581   4.419   4.683   1.145
 9546TIP3   OH228582   2.977   3.331   6.374
 9546TIP3    H128583   2.910   3.378   6.324
 9546TIP3    H228584   2.939   3.324   6.462
 9547TIP3   OH228585   1.218   5.779   4.378
 9547TIP3    H128586   1.235   5.699   4.329
 9547TIP3    H228587   1.276   5.844   4.338
 9548TIP3   OH228588   4.324   5.782   3.449
 9548TIP3    H128589   4.235   5.749   3.436
 9548TIP3    H228590   4.347   5.822   3.365
 9549TIP3   OH228591   4.031   0.185   6.310
 9549TIP3    H128592   4.094   0.231   6.365
 9549TIP3    H228593   4.005   0.250   6.244
 9550TIP3   OH228594   6.090   1.350   0.243
 9550TIP3    H128595   6.140   1.268   0.253
 9550TIP3    H228596   6.157   1.416   0.225
 9551TIP3   OH228597   1.020   1.012   3.158
 9551TIP3    H128598   0.932   1.033   3.189
 9551TIP3    H228599   1.010   0.927   3.115
 9552TIP3   OH228600   7.612   2.206   1.627
 9552TIP3    H128601   7.704   2.217   1.648
 9552TIP3    H228602   7.574   2.293   1.636
 9553TIP3   OH228603   4.649   3.446   6.478
 9553TIP3    H128604   4.616   3.356   6.468
 9553TIP3    H228605   4.656   3.459   6.572
 9554TIP3   OH228606   4.619   7.613   6.568
 9554TIP3    H128607   4.676   7.658   6.506
 9554TIP3    H228608   4.677   7.584   6.638
 9555TIP3   OH228609   0.282   7.541   1.006
 9555TIP3    H128610   0.338   7.464   1.016
 9555TIP3    H228611   0.343   7.615   1.011
 9556TIP3   OH228612   7.425   1.244   0.107
 9556TIP3    H128613   7.404   1.271   0.018
 9556TIP3    H228614   7.515   1.213   0.103
 9557TIP3   OH228615   3.194   1.514   2.439
 9557TIP3    H128616   3.226   1.437   2.392
 9557TIP3    H228617   3.196   1.489   2.531
 9558TIP3   OH228618   5.633   6.690   2.032
 9558TIP3    H128619   5.689   6.766   2.039
 9558TIP3    H228620   5.642   6.645   2.116
 9559TIP3   OH228621   1.953   2.420   1.584
 9559TIP3    H128622   1.968   2.408   1.678
 9559TIP3    H228623   1.889   2.490   1.578
 9560TIP3   OH228624   5.612   1.435   1.714
 9560TIP3    H128625   5.607   1.525   1.747
 9560TIP3    H228626   5.535   1.392   1.749
 9561TIP3   OH228627   5.732   7.232   4.013
 9561TIP3    H128628   5.692   7.155   3.974
 9561TIP3    H228629   5.816   7.241   3.967
 9562TIP3   OH228630   2.877   1.870   3.335
 9562TIP3    H128631   2.943   1.938   3.320
 9562TIP3    H228632   2.847   1.846   3.248
 9563TIP3   OH228633   7.205   4.749   3.227
 9563TIP3    H128634   7.209   4.838   3.193
 9563TIP3    H228635   7.293   4.731   3.259
 9564TIP3   OH228636   1.170   6.892   0.914
 9564TIP3    H128637   1.138   6.943   0.988
 9564TIP3    H228638   1.182   6.956   0.844
 9565TIP3   OH228639   7.090   1.771   2.252
 9565TIP3    H128640   7.033   1.805   2.321
 9565TIP3    H228641   7.037   1.779   2.172
 9566TIP3   OH228642   2.151   1.441   4.844
 9566TIP3    H128643   2.105   1.498   4.782
 9566TIP3    H228644   2.084   1.414   4.906
 9567TIP3   OH228645   3.390   4.734   5.921
 9567TIP3    H128646   3.394   4.726   6.016
 9567TIP3    H228647   3.314   4.791   5.905
 9568TIP3   OH228648   7.384   3.476   6.008
 9568TIP3    H128649   7.450   3.532   6.050
 9568TIP3    H228650   7.301   3.504   6.047
 9569TIP3   OH228651   0.373   2.526   0.685
 9569TIP3    H128652   0.386   2.484   0.770
 9569TIP3    H228653   0.362   2.453   0.623
 9570TIP3   OH228654   0.355   4.185   1.912
 9570TIP3    H128655   0.330   4.251   1.846
 9570TIP3    H228656   0.446   4.206   1.932
 9571TIP3   OH228657   5.613   2.477   6.387
 9571TIP3    H128658   5.577   2.391   6.410
 9571TIP3    H228659   5.675   2.459   6.316
 9572TIP3   OH228660   4.211   1.369   2.072
 9572TIP3    H128661   4.287   1.400   2.022
 9572TIP3    H228662   4.143   1.355   2.006
 9573TIP3   OH228663   2.556   6.865   6.414
 9573TIP3    H128664   2.577   6.880   6.507
 9573TIP3    H228665   2.558   6.770   6.404
 9574TIP3   OH228666   2.690   3.225   6.771
 9574TIP3    H128667   2.642   3.271   6.840
 9574TIP3    H228668   2.655   3.261   6.690
 9575TIP3   OH228669   1.237   0.438   3.986
 9575TIP3    H128670   1.161   0.484   4.021
 9575TIP3    H228671   1.311   0.496   4.005
 9576TIP3   OH228672   5.806   7.715   2.376
 9576TIP3    H128673   5.750   7.703   2.299
 9576TIP3    H228674   5.797   7.807   2.399
 9577TIP3   OH228675   5.050   5.868   5.254
 9577TIP3    H128676   5.020   5.777   5.250
 9577TIP3    H228677   4.972   5.918   5.279
 9578TIP3   OH228678   5.239   4.202   3.047
 9578TIP3    H128679   5.244   4.288   3.088
 9578TIP3    H228680   5.173   4.154   3.098
 9579TIP3   OH228681   2.154   0.874   2.305
 9579TIP3    H128682   2.121   0.935   2.371
 9579TIP3    H228683   2.104   0.895   2.226
 9580TIP3   OH228684   2.382   4.979   1.540
 9580TIP3    H128685   2.380   5.070   1.572
 9580TIP3    H228686   2.432   4.932   1.607
 9581TIP3   OH228687   5.517   3.151   6.228
 9581TIP3    H128688   5.495   3.062   6.201
 9581TIP3    H228689   5.599   3.142   6.277
 9582TIP3   OH228690   4.949   1.973   4.695
 9582TIP3    H128691   4.889   1.973   4.620
 9582TIP3    H228692   4.921   1.898   4.748
 9583TIP3   OH228693   3.823   0.385   0.475
 9583TIP3    H128694   3.729   0.373   0.488
 9583TIP3    H228695   3.850   0.443   0.547
 9584TIP3   OH228696   0.380   1.786   6.639
 9584TIP3    H128697   0.314   1.717   6.639
 9584TIP3    H228698   0.455   1.747   6.595
 9585TIP3   OH228699   2.087   3.692   4.072
 9585TIP3    H128700   2.127   3.617   4.028
 9585TIP3    H228701   2.137   3.701   4.153
 9586TIP3   OH228702   8.229   1.912   0.851
 9586TIP3    H128703   8.148   1.861   0.856
 9586TIP3    H228704   8.266   1.905   0.939
 9587TIP3   OH228705   3.670   7.465   0.687
 9587TIP3    H128706   3.583   7.492   0.658
 9587TIP3    H228707   3.656   7.380   0.727
 9588TIP3   OH228708   7.514   2.130   5.101
 9588TIP3    H128709   7.558   2.058   5.056
 9588TIP3    H228710   7.508   2.100   5.192
 9589TIP3   OH228711   0.051   3.975   2.320
 9589TIP3    H128712   0.139   3.953   2.352
 9589TIP3    H228713   0.067   4.030   2.243
 9590TIP3   OH228714   6.524   3.742   4.220
 9590TIP3    H128715   6.458   3.809   4.237
 9590TIP3    H228716   6.560   3.765   4.135
 9591TIP3   OH228717   1.857   0.793   5.769
 9591TIP3    H128718   1.808   0.721   5.731
 9591TIP3    H228719   1.948   0.774   5.750
 9592TIP3   OH228720   8.015   2.757   2.455
 9592TIP3    H128721   7.946   2.697   2.484
 9592TIP3    H228722   8.091   2.700   2.441
 9593TIP3   OH228723   2.864   2.146   6.642
 9593TIP3    H128724   2.906   2.178   6.562
 9593TIP3    H228725   2.794   2.209   6.659
 9594TIP3   OH228726   1.154   5.087   4.478
 9594TIP3    H128727   1.232   5.131   4.511
 9594TIP3    H228728   1.159   5.098   4.383
 9595TIP3   OH228729   3.958   7.457   3.594
 9595TIP3    H128730   4.001   7.532   3.634
 9595TIP3    H228731   3.864   7.477   3.602
 9596TIP3   OH228732   1.520   1.579   5.034
 9596TIP3    H128733   1.552   1.552   4.947
 9596TIP3    H228734   1.593   1.629   5.071
 9597TIP3   OH228735   2.862   0.810   4.824
 9597TIP3    H128736   2.881   0.716   4.833
 9597TIP3    H228737   2.934   0.844   4.771
 9598TIP3   OH228738   7.287   7.592   5.348
 9598TIP3    H128739   7.365   7.538   5.340
 9598TIP3    H228740   7.243   7.558   5.426
 9599TIP3   OH228741   1.766   0.641   0.587
 9599TIP3    H128742   1.861   0.649   0.578
 9599TIP3    H228743   1.731   0.723   0.553
 9600TIP3   OH228744   7.378   1.699   5.673
 9600TIP3    H128745   7.390   1.792   5.655
 9600TIP3    H228746   7.399   1.690   5.766
 9601TIP3   OH228747   2.734   6.617   4.595
 9601TIP3    H128748   2.639   6.625   4.589
 9601TIP3    H228749   2.766   6.639   4.508
 9602TIP3   OH228750   0.495   4.385   6.717
 9602TIP3    H128751   0.460   4.473   6.731
 9602TIP3    H228752   0.518   4.383   6.625
 9603TIP3   OH228753   6.991   3.931   5.808
 9603TIP3    H128754   6.978   3.939   5.902
 9603TIP3    H228755   7.076   3.971   5.792
 9604TIP3   OH228756   2.945   3.999   1.080
 9604TIP3    H128757   2.968   3.908   1.064
 9604TIP3    H228758   2.884   4.022   1.009
 9605TIP3   OH228759   1.390   5.986   0.285
 9605TIP3    H128760   1.343   5.994   0.368
 9605TIP3    H228761   1.323   5.960   0.222
 9606TIP3   OH228762   6.277   7.697   6.138
 9606TIP3    H128763   6.323   7.779   6.156
 9606TIP3    H228764   6.269   7.654   6.224
 9607TIP3   OH228765   1.427   5.046   5.644
 9607TIP3    H128766   1.379   4.965   5.623
 9607TIP3    H228767   1.419   5.054   5.739
 9608TIP3   OH228768   5.033   0.615   6.694
 9608TIP3    H128769   5.064   0.697   6.656
 9608TIP3    H228770   5.015   0.559   6.619
 9609TIP3   OH228771   2.481   3.654   2.383
 9609TIP3    H128772   2.539   3.624   2.312
 9609TIP3    H228773   2.515   3.741   2.406
 9610TIP3   OH228774   5.118   1.710   3.033
 9610TIP3    H128775   5.202   1.723   2.989
 9610TIP3    H228776   5.138   1.652   3.106
 9611TIP3   OH228777   6.503   3.637   0.139
 9611TIP3    H128778   6.416   3.675   0.126
 9611TIP3    H228779   6.559   3.712   0.160
 9612TIP3   OH228780   4.572   1.958   3.111
 9612TIP3    H128781   4.514   1.984   3.039
 9612TIP3    H228782   4.516   1.909   3.171
 9613TIP3   OH228783   5.993   6.798   1.936
 9613TIP3    H128784   6.086   6.807   1.957
 9613TIP3    H228785   5.982   6.849   1.856
 9614TIP3   OH228786   4.539   2.688   2.386
 9614TIP3    H128787   4.509   2.620   2.447
 9614TIP3    H228788   4.545   2.643   2.302
 9615TIP3   OH228789   2.610   2.947   6.736
 9615TIP3    H128790   2.635   3.037   6.757
 9615TIP3    H228791   2.536   2.928   6.793
 9616TIP3   OH228792   8.163   5.931   6.623
 9616TIP3    H128793   8.128   5.847   6.596
 9616TIP3    H228794   8.180   5.978   6.541
 9617TIP3   OH228795   0.203   4.500   3.440
 9617TIP3    H128796   0.133   4.561   3.416
 9617TIP3    H228797   0.170   4.414   3.413
 9618TIP3   OH228798   6.275   1.611   1.547
 9618TIP3    H128799   6.292   1.704   1.532
 9618TIP3    H228800   6.307   1.568   1.468
 9619TIP3   OH228801   7.203   3.460   0.804
 9619TIP3    H128802   7.297   3.458   0.821
 9619TIP3    H228803   7.195   3.477   0.710
 9620TIP3   OH228804   1.616   6.703   2.073
 9620TIP3    H128805   1.655   6.640   2.134
 9620TIP3    H228806   1.601   6.781   2.126
 9621TIP3   OH228807   5.055   7.418   1.587
 9621TIP3    H128808   5.086   7.333   1.555
 9621TIP3    H228809   4.982   7.440   1.529
 9622TIP3   OH228810   1.945   1.366   2.147
 9622TIP3    H128811   1.996   1.287   2.163
 9622TIP3    H228812   1.894   1.378   2.227
 9623TIP3   OH228813   3.893   7.191   1.176
 9623TIP3    H128814   3.824   7.257   1.183
 9623TIP3    H228815   3.964   7.236   1.130
 9624TIP3   OH228816   1.381   0.113   4.270
 9624TIP3    H128817   1.289   0.128   4.252
 9624TIP3    H228818   1.384   0.029   4.316
 9625TIP3   OH228819   7.678   7.270   1.510
 9625TIP3    H128820   7.765   7.307   1.498
 9625TIP3    H228821   7.691   7.199   1.573
 9626TIP3   OH228822   1.321   2.183   1.668
 9626TIP3    H128823   1.416   2.188   1.666
 9626TIP3    H228824   1.296   2.158   1.579
 9627TIP3   OH228825   5.956   4.863   6.271
 9627TIP3    H128826   5.971   4.942   6.323
 9627TIP3    H228827   6.020   4.867   6.201
 9628TIP3   OH228828   5.234   3.017   5.325
 9628TIP3    H128829   5.183   2.947   5.367
 9628TIP3    H228830   5.232   3.089   5.388
 9629TIP3   OH228831   2.257   3.348   3.564
 9629TIP3    H128832   2.216   3.430   3.591
 9629TIP3    H228833   2.350   3.369   3.558
 9630TIP3   OH228834   6.622   2.971   1.388
 9630TIP3    H128835   6.557   3.034   1.356
 9630TIP3    H228836   6.593   2.950   1.477
 9631TIP3   OH228837   2.841   5.101   4.279
 9631TIP3    H128838   2.850   5.044   4.202
 9631TIP3    H228839   2.759   5.073   4.320
 9632TIP3   OH228840   3.390   4.345   1.016
 9632TIP3    H128841   3.295   4.336   1.023
 9632TIP3    H228842   3.404   4.391   0.933
 9633TIP3   OH228843   3.934   2.961   4.530
 9633TIP3    H128844   3.950   2.893   4.595
 9633TIP3    H228845   3.933   3.043   4.581
 9634TIP3   OH228846   0.496   4.010   4.215
 9634TIP3    H128847   0.457   4.094   4.193
 9634TIP3    H228848   0.551   4.028   4.291
 9635TIP3   OH228849   5.083   2.360   3.220
 9635TIP3    H128850   5.133   2.285   3.188
 9635TIP3    H228851   4.994   2.344   3.190
 9636TIP3   OH228852   7.737   0.220   0.567
 9636TIP3    H128853   7.642   0.208   0.568
 9636TIP3    H228854   7.767   0.182   0.650
 9637TIP3   OH228855   5.595   2.961   4.268
 9637TIP3    H128856   5.562   2.902   4.335
 9637TIP3    H228857   5.538   2.947   4.192
 9638TIP3   OH228858   6.915   5.870   2.396
 9638TIP3    H128859   6.909   5.881   2.490
 9638TIP3    H228860   7.008   5.873   2.377
 9639TIP3   OH228861   3.337   1.882   1.514
 9639TIP3    H128862   3.274   1.927   1.459
 9639TIP3    H228863   3.322   1.918   1.602
 9640TIP3   OH228864   5.817   7.354   1.466
 9640TIP3    H128865   5.783   7.362   1.555
 9640TIP3    H228866   5.742   7.371   1.410
 9641TIP3   OH228867   1.983   3.327   0.002
 9641TIP3    H128868   1.983   3.275   0.083
 9641TIP3    H228869   1.959   3.265  -0.066
 9642TIP3   OH228870   5.088   7.617   1.003
 9642TIP3    H128871   5.009   7.576   1.038
 9642TIP3    H228872   5.095   7.699   1.050
 9643TIP3   OH228873   6.874   7.275   1.428
 9643TIP3    H128874   6.921   7.242   1.505
 9643TIP3    H228875   6.885   7.370   1.433
 9644TIP3   OH228876   8.278   1.580   1.288
 9644TIP3    H128877   8.345   1.513   1.299
 9644TIP3    H228878   8.195   1.533   1.297
 9645TIP3   OH228879   1.550   6.918   1.328
 9645TIP3    H128880   1.556   6.965   1.244
 9645TIP3    H228881   1.485   6.967   1.377
 9646TIP3   OH228882   2.811   2.286   5.278
 9646TIP3    H128883   2.831   2.198   5.311
 9646TIP3    H228884   2.879   2.342   5.316
 9647TIP3   OH228885   3.881   5.843   3.606
 9647TIP3    H128886   3.969   5.867   3.635
 9647TIP3    H228887   3.879   5.747   3.615
 9648TIP3   OH228888   3.000   0.121   6.242
 9648TIP3    H128889   2.956   0.056   6.296
 9648TIP3    H228890   2.991   0.087   6.152
 9649TIP3   OH228891   3.575   1.231   0.521
 9649TIP3    H128892   3.626   1.150   0.527
 9649TIP3    H228893   3.595   1.278   0.602
 9650TIP3   OH228894   1.017   1.142   1.888
 9650TIP3    H128895   0.934   1.114   1.851
 9650TIP3    H228896   1.005   1.134   1.983
 9651TIP3   OH228897   2.725   5.212   4.634
 9651TIP3    H128898   2.696   5.302   4.619
 9651TIP3    H228899   2.730   5.204   4.729
 9652TIP3   OH228900   5.789   5.538   0.140
 9652TIP3    H128901   5.721   5.522   0.075
 9652TIP3    H228902   5.765   5.622   0.179
 9653TIP3   OH228903   4.647   5.528   2.953
 9653TIP3    H128904   4.671   5.578   3.031
 9653TIP3    H228905   4.563   5.563   2.926
 9654TIP3   OH228906   7.232   4.163   0.552
 9654TIP3    H128907   7.146   4.188   0.520
 9654TIP3    H228908   7.225   4.165   0.647
 9655TIP3   OH228909   0.776   3.154   0.357
 9655TIP3    H128910   0.862   3.130   0.323
 9655TIP3    H228911   0.774   3.119   0.445
 9656TIP3   OH228912   5.895   6.205   1.132
 9656TIP3    H128913   5.974   6.222   1.082
 9656TIP3    H228914   5.924   6.149   1.205
 9657TIP3   OH228915   3.640   1.259   6.353
 9657TIP3    H128916   3.689   1.179   6.339
 9657TIP3    H228917   3.600   1.248   6.440
 9658TIP3   OH228918   3.849   2.332   6.215
 9658TIP3    H128919   3.780   2.390   6.247
 9658TIP3    H228920   3.806   2.248   6.201
 9659TIP3   OH228921   0.866   3.415   2.895
 9659TIP3    H128922   0.830   3.479   2.955
 9659TIP3    H228923   0.940   3.376   2.941
 9660TIP3   OH228924   0.177   1.626   4.711
 9660TIP3    H128925   0.257   1.585   4.745
 9660TIP3    H228926   0.109   1.602   4.775
 9661TIP3   OH228927   0.679   1.133   5.744
 9661TIP3    H128928   0.706   1.196   5.678
 9661TIP3    H228929   0.705   1.048   5.708
 9662TIP3   OH228930   6.983   2.244   0.088
 9662TIP3    H128931   7.070   2.223   0.122
 9662TIP3    H228932   6.941   2.159   0.073
 9663TIP3   OH228933   0.956   6.265   3.264
 9663TIP3    H128934   1.032   6.206   3.264
 9663TIP3    H228935   0.987   6.345   3.222
 9664TIP3   OH228936   7.466   7.122   4.513
 9664TIP3    H128937   7.523   7.106   4.438
 9664TIP3    H228938   7.392   7.172   4.478
 9665TIP3   OH228939   7.715   5.736   4.258
 9665TIP3    H128940   7.797   5.753   4.212
 9665TIP3    H228941   7.740   5.726   4.350
 9666TIP3   OH228942   1.039   1.069   4.617
 9666TIP3    H128943   1.027   0.975   4.614
 9666TIP3    H228944   1.007   1.095   4.703
 9667TIP3   OH228945   8.154   3.046   5.950
 9667TIP3    H128946   8.144   3.094   6.032
 9667TIP3    H228947   8.164   2.954   5.976
 9668TIP3   OH228948   8.182   1.484   0.673
 9668TIP3    H128949   8.222   1.400   0.649
 9668TIP3    H228950   8.187   1.487   0.768
 9669TIP3   OH228951   6.648   6.026   3.706
 9669TIP3    H128952   6.655   5.941   3.662
 9669TIP3    H228953   6.692   6.013   3.790
 9670TIP3   OH228954   5.453   1.026   3.579
 9670TIP3    H128955   5.480   1.118   3.584
 9670TIP3    H228956   5.435   1.011   3.486
 9671TIP3   OH228957   7.516   4.630   4.884
 9671TIP3    H128958   7.516   4.547   4.837
 9671TIP3    H228959   7.577   4.685   4.836
 9672TIP3   OH228960   2.113   0.688   1.748
 9672TIP3    H128961   2.064   0.691   1.666
 9672TIP3    H228962   2.045   0.693   1.816
 9673TIP3   OH228963   4.131   1.780   6.676
 9673TIP3    H128964   4.178   1.708   6.635
 9673TIP3    H228965   4.186   1.805   6.750
 9674TIP3   OH228966   8.000   0.125   3.470
 9674TIP3    H128967   7.983   0.213   3.504
 9674TIP3    H228968   8.092   0.126   3.445
 9675TIP3   OH228969   6.711   3.400   6.473
 9675TIP3    H128970   6.625   3.440   6.485
 9675TIP3    H228971   6.753   3.454   6.406
 9676TIP3   OH228972   3.872   4.679   1.957
 9676TIP3    H128973   3.779   4.660   1.974
 9676TIP3    H228974   3.910   4.594   1.935
 9677TIP3   OH228975   2.709   4.879   2.343
 9677TIP3    H128976   2.686   4.937   2.271
 9677TIP3    H228977   2.707   4.935   2.421
 9678TIP3   OH228978   0.474   1.651   0.336
 9678TIP3    H128979   0.476   1.556   0.345
 9678TIP3    H228980   0.400   1.679   0.390
 9679TIP3   OH228981   4.304   4.497   1.655
 9679TIP3    H128982   4.296   4.579   1.703
 9679TIP3    H228983   4.263   4.514   1.570
 9680TIP3   OH228984   0.886   3.746   0.163
 9680TIP3    H128985   0.964   3.742   0.108
 9680TIP3    H228986   0.837   3.821   0.130
 9681TIP3   OH228987   7.369   7.324   5.533
 9681TIP3    H128988   7.385   7.328   5.439
 9681TIP3    H228989   7.294   7.266   5.542
 9682TIP3   OH228990   0.946   2.488   6.282
 9682TIP3    H128991   1.028   2.504   6.329
 9682TIP3    H228992   0.934   2.566   6.228
 9683TIP3   OH228993   2.309   6.481   5.740
 9683TIP3    H128994   2.314   6.433   5.822
 9683TIP3    H228995   2.391   6.460   5.695
 9684TIP3   OH228996   5.541   3.399   1.075
 9684TIP3    H128997   5.562   3.485   1.039
 9684TIP3    H228998   5.530   3.414   1.169
 9685TIP3   OH228999   6.433   3.465   3.693
 9685TIP3    H129000   6.518   3.508   3.705
 9685TIP3    H229001   6.371   3.521   3.738
 9686TIP3   OH229002   7.805   0.412   6.233
 9686TIP3    H129003   7.873   0.377   6.176
 9686TIP3    H229004   7.805   0.506   6.217
 9687TIP3   OH229005   5.834   6.168   2.434
 9687TIP3    H129006   5.906   6.131   2.484
 9687TIP3    H229007   5.799   6.238   2.489
 9688TIP3   OH229008   1.217   7.565   3.336
 9688TIP3    H129009   1.194   7.542   3.426
 9688TIP3    H229010   1.156   7.636   3.313
 9689TIP3   OH229011   2.125   3.422   0.986
 9689TIP3    H129012   2.110   3.500   0.932
 9689TIP3    H229013   2.218   3.426   1.008
 9690TIP3   OH229014   5.095   1.721   5.935
 9690TIP3    H129015   5.000   1.719   5.921
 9690TIP3    H229016   5.109   1.791   5.999
 9691TIP3   OH229017   0.823   7.364   3.329
 9691TIP3    H129018   0.850   7.297   3.392
 9691TIP3    H229019   0.876   7.441   3.350
 9692TIP3   OH229020   2.143   2.697   2.343
 9692TIP3    H129021   2.157   2.786   2.310
 9692TIP3    H229022   2.194   2.642   2.283
 9693TIP3   OH229023   7.741   4.029   3.533
 9693TIP3    H129024   7.688   3.979   3.596
 9693TIP3    H229025   7.819   3.976   3.520
 9694TIP3   OH229026   3.883   1.423   2.726
 9694TIP3    H129027   3.906   1.428   2.819
 9694TIP3    H229028   3.827   1.345   2.720
 9695TIP3   OH229029   6.838   2.652   0.167
 9695TIP3    H129030   6.828   2.574   0.112
 9695TIP3    H229031   6.763   2.707   0.145
 9696TIP3   OH229032   2.573   2.645   5.620
 9696TIP3    H129033   2.645   2.691   5.576
 9696TIP3    H229034   2.494   2.691   5.591
 9697TIP3   OH229035   4.799   4.491   4.030
 9697TIP3    H129036   4.756   4.421   3.981
 9697TIP3    H229037   4.837   4.547   3.963
 9698TIP3   OH229038   8.080   7.122   5.921
 9698TIP3    H129039   8.056   7.029   5.929
 9698TIP3    H229040   8.107   7.131   5.829
 9699TIP3   OH229041   0.585   2.702   4.926
 9699TIP3    H129042   0.577   2.798   4.931
 9699TIP3    H229043   0.667   2.683   4.971
 9700TIP3   OH229044   2.567   6.381   4.807
 9700TIP3    H129045   2.487   6.424   4.775
 9700TIP3    H229046   2.617   6.360   4.729
 9701TIP3   OH229047   0.597   6.288   0.424
 9701TIP3    H129048   0.595   6.290   0.328
 9701TIP3    H229049   0.574   6.198   0.447
 9702TIP3   OH229050   5.191   6.468   4.944
 9702TIP3    H129051   5.151   6.454   4.858
 9702TIP3    H229052   5.193   6.380   4.983
 9703TIP3   OH229053   4.539   7.228   4.549
 9703TIP3    H129054   4.526   7.242   4.643
 9703TIP3    H229055   4.481   7.154   4.528
 9704TIP3   OH229056   1.481   5.014   3.135
 9704TIP3    H129057   1.414   4.946   3.131
 9704TIP3    H229058   1.544   4.990   3.068
 9705TIP3   OH229059   1.650   3.815   5.752
 9705TIP3    H129060   1.674   3.898   5.711
 9705TIP3    H229061   1.554   3.817   5.755
 9706TIP3   OH229062   7.312   5.251   3.278
 9706TIP3    H129063   7.405   5.274   3.280
 9706TIP3    H229064   7.298   5.203   3.360
 9707TIP3   OH229065   3.353   6.099   0.684
 9707TIP3    H129066   3.408   6.020   0.686
 9707TIP3    H229067   3.338   6.120   0.776
 9708TIP3   OH229068   6.220   4.442   4.389
 9708TIP3    H129069   6.284   4.481   4.448
 9708TIP3    H229070   6.174   4.377   4.442
 9709TIP3   OH229071   7.016   2.380   1.563
 9709TIP3    H129072   7.055   2.464   1.539
 9709TIP3    H229073   7.035   2.322   1.489
 9710TIP3   OH229074   7.333   1.027   2.811
 9710TIP3    H129075   7.397   1.086   2.771
 9710TIP3    H229076   7.347   1.037   2.905
 9711TIP3   OH229077   6.829   3.001   3.725
 9711TIP3    H129078   6.917   2.964   3.731
 9711TIP3    H229079   6.770   2.927   3.738
 9712TIP3   OH229080   2.536   6.456   5.605
 9712TIP3    H129081   2.519   6.494   5.519
 9712TIP3    H229082   2.553   6.363   5.588
 9713TIP3   OH229083   7.207   6.157   0.196
 9713TIP3    H129084   7.259   6.225   0.240
 9713TIP3    H229085   7.199   6.188   0.106
 9714TIP3   OH229086   3.986   4.552   0.154
 9714TIP3    H129087   4.071   4.527   0.190
 9714TIP3    H229088   3.923   4.525   0.220
 9715TIP3   OH229089   3.190   3.255   3.986
 9715TIP3    H129090   3.188   3.255   3.890
 9715TIP3    H229091   3.176   3.164   4.010
 9716TIP3   OH229092   0.841   7.114   2.210
 9716TIP3    H129093   0.830   7.144   2.120
 9716TIP3    H229094   0.886   7.186   2.254
 9717TIP3   OH229095   2.685   3.659   0.305
 9717TIP3    H129096   2.762   3.681   0.252
 9717TIP3    H229097   2.620   3.725   0.280
 9718TIP3   OH229098   0.166   3.925   1.200
 9718TIP3    H129099   0.082   3.880   1.192
 9718TIP3    H229100   0.220   3.887   1.131
 9719TIP3   OH229101   6.685   2.729   1.235
 9719TIP3    H129102   6.682   2.671   1.312
 9719TIP3    H229103   6.666   2.816   1.270
 9720TIP3   OH229104   5.228   5.960   1.931
 9720TIP3    H129105   5.187   6.031   1.980
 9720TIP3    H229106   5.293   6.003   1.875
 9721TIP3   OH229107   5.896   6.485   4.951
 9721TIP3    H129108   5.930   6.451   4.868
 9721TIP3    H229109   5.935   6.572   4.959
 9722TIP3   OH229110   3.017   6.035   4.258
 9722TIP3    H129111   3.081   6.051   4.189
 9722TIP3    H229112   3.063   6.057   4.339
 9723TIP3   OH229113   0.339   3.095   1.286
 9723TIP3    H129114   0.306   3.016   1.243
 9723TIP3    H229115   0.427   3.070   1.316
 9724TIP3   OH229116   2.286   1.597   1.830
 9724TIP3    H129117   2.260   1.525   1.888
 9724TIP3    H229118   2.357   1.641   1.877
 9725TIP3   OH229119   4.214   2.086   4.775
 9725TIP3    H129120   4.208   2.006   4.724
 9725TIP3    H229121   4.161   2.069   4.853
 9726TIP3   OH229122   4.810   3.840   0.700
 9726TIP3    H129123   4.781   3.801   0.782
 9726TIP3    H229124   4.741   3.817   0.637
 9727TIP3   OH229125   5.136   6.222   5.161
 9727TIP3    H129126   5.042   6.219   5.140
 9727TIP3    H229127   5.152   6.312   5.188
 9728TIP3   OH229128   3.767   5.413   6.554
 9728TIP3    H129129   3.760   5.374   6.468
 9728TIP3    H229130   3.789   5.340   6.612
 9729TIP3   OH229131   7.856   5.984   2.003
 9729TIP3    H129132   7.804   5.928   2.060
 9729TIP3    H229133   7.816   6.070   2.011
 9730TIP3   OH229134   6.027   2.688   4.748
 9730TIP3    H129135   5.963   2.700   4.678
 9730TIP3    H229136   5.975   2.680   4.827
 9731TIP3   OH229137   4.364   7.796   4.587
 9731TIP3    H129138   4.405   7.746   4.658
 9731TIP3    H229139   4.270   7.776   4.595
 9732TIP3   OH229140   4.130   2.680   3.525
 9732TIP3    H129141   4.098   2.625   3.454
 9732TIP3    H229142   4.151   2.618   3.595
 9733TIP3   OH229143   7.571   1.188   4.699
 9733TIP3    H129144   7.478   1.211   4.699
 9733TIP3    H229145   7.573   1.098   4.734
 9734TIP3   OH229146   3.009   5.174   5.282
 9734TIP3    H129147   2.918   5.160   5.310
 9734TIP3    H229148   3.061   5.127   5.347
 9735TIP3   OH229149   0.162   2.410   6.725
 9735TIP3    H129150   0.152   2.384   6.817
 9735TIP3    H229151   0.075   2.441   6.699
 9736TIP3   OH229152   7.983   2.876   3.399
 9736TIP3    H129153   7.961   2.879   3.492
 9736TIP3    H229154   7.916   2.929   3.356
 9737TIP3   OH229155   1.005   7.637   3.809
 9737TIP3    H129156   1.010   7.601   3.721
 9737TIP3    H229157   0.998   7.732   3.797
 9738TIP3   OH229158   7.252   5.789   1.967
 9738TIP3    H129159   7.331   5.835   1.993
 9738TIP3    H229160   7.182   5.853   1.979
 9739TIP3   OH229161   5.259   5.834   3.830
 9739TIP3    H129162   5.330   5.769   3.836
 9739TIP3    H229163   5.254   5.854   3.737
 9740TIP3   OH229164   7.802   6.046   4.073
 9740TIP3    H129165   7.855   5.976   4.111
 9740TIP3    H229166   7.758   6.087   4.147
 9741TIP3   OH229167   2.550   4.122   1.332
 9741TIP3    H129168   2.478   4.174   1.297
 9741TIP3    H229169   2.529   4.032   1.305
 9742TIP3   OH229170   8.140   6.795   6.347
 9742TIP3    H129171   8.124   6.700   6.352
 9742TIP3    H229172   8.054   6.835   6.359
 9743TIP3   OH229173   6.320   1.232   2.742
 9743TIP3    H129174   6.298   1.244   2.835
 9743TIP3    H229175   6.356   1.144   2.738
 9744TIP3   OH229176   0.942   6.631   2.264
 9744TIP3    H129177   0.977   6.548   2.298
 9744TIP3    H229178   0.921   6.681   2.343
 9745TIP3   OH229179   7.814   4.358   6.213
 9745TIP3    H129180   7.814   4.303   6.291
 9745TIP3    H229181   7.798   4.298   6.140
 9746TIP3   OH229182   2.824   3.370   2.970
 9746TIP3    H129183   2.883   3.298   2.991
 9746TIP3    H229184   2.808   3.413   3.053
 9747TIP3   OH229185   1.528   3.344   5.862
 9747TIP3    H129186   1.603   3.286   5.850
 9747TIP3    H229187   1.564   3.433   5.854
 9748TIP3   OH229188   3.391   0.442   3.892
 9748TIP3    H129189   3.343   0.389   3.955
 9748TIP3    H229190   3.383   0.395   3.809
 9749TIP3   OH229191   2.853   4.679   1.023
 9749TIP3    H129192   2.769   4.650   1.060
 9749TIP3    H229193   2.856   4.773   1.040
 9750TIP3   OH229194   4.111   6.912   4.504
 9750TIP3    H129195   4.121   7.006   4.496
 9750TIP3    H229196   4.080   6.898   4.593
 9751TIP3   OH229197   7.858   3.912   6.566
 9751TIP3    H129198   7.873   3.971   6.492
 9751TIP3    H229199   7.919   3.943   6.633
 9752TIP3   OH229200   4.996   3.173   4.998
 9752TIP3    H129201   5.081   3.163   4.955
 9752TIP3    H229202   5.014   3.159   5.091
 9753TIP3   OH229203   7.072   3.751   6.394
 9753TIP3    H129204   7.014   3.809   6.444
 9753TIP3    H229205   7.152   3.746   6.445
 9754TIP3   OH229206   2.393   5.308   1.816
 9754TIP3    H129207   2.431   5.322   1.729
 9754TIP3    H229208   2.446   5.239   1.855
 9755TIP3   OH229209   1.171   7.509   6.644
 9755TIP3    H129210   1.169   7.524   6.549
 9755TIP3    H229211   1.235   7.439   6.656
 9756TIP3   OH229212   2.445   2.771   2.044
 9756TIP3    H129213   2.499   2.693   2.028
 9756TIP3    H229214   2.480   2.836   1.983
 9757TIP3   OH229215   4.104   6.549   5.433
 9757TIP3    H129216   4.076   6.538   5.524
 9757TIP3    H229217   4.158   6.472   5.416
 9758TIP3   OH229218   7.006   3.413   1.997
 9758TIP3    H129219   6.917   3.396   2.027
 9758TIP3    H229220   7.000   3.406   1.901
 9759TIP3   OH229221   6.114   0.661   2.857
 9759TIP3    H129222   6.096   0.722   2.786
 9759TIP3    H229223   6.203   0.630   2.840
 9760TIP3   OH229224   1.936   6.377   3.166
 9760TIP3    H129225   1.951   6.406   3.076
 9760TIP3    H229226   2.024   6.363   3.201
 9761TIP3   OH229227   1.968   1.051   1.668
 9761TIP3    H129228   2.043   1.041   1.726
 9761TIP3    H229229   1.943   1.143   1.677
 9762TIP3   OH229230   0.697   6.546   2.408
 9762TIP3    H129231   0.695   6.552   2.313
 9762TIP3    H229232   0.776   6.497   2.428
 9763TIP3   OH229233   6.223   1.431   2.263
 9763TIP3    H129234   6.183   1.517   2.251
 9763TIP3    H229235   6.199   1.405   2.352
 9764TIP3   OH229236   4.150   1.428   3.270
 9764TIP3    H129237   4.214   1.357   3.275
 9764TIP3    H229238   4.167   1.480   3.349
 9765TIP3   OH229239   6.995   2.244   3.140
 9765TIP3    H129240   6.981   2.272   3.231
 9765TIP3    H229241   7.082   2.204   3.141
 9766TIP3   OH229242   6.183   4.230   1.828
 9766TIP3    H129243   6.124   4.278   1.887
 9766TIP3    H229244   6.192   4.144   1.869
 9767TIP3   OH229245   2.217   7.195   5.123
 9767TIP3    H129246   2.232   7.288   5.144
 9767TIP3    H229247   2.304   7.156   5.124
 9768TIP3   OH229248   2.116   4.131   4.419
 9768TIP3    H129249   2.051   4.062   4.435
 9768TIP3    H229250   2.189   4.085   4.378
 9769TIP3   OH229251   6.164   3.851   0.761
 9769TIP3    H129252   6.122   3.937   0.768
 9769TIP3    H229253   6.180   3.825   0.852
 9770TIP3   OH229254   5.371   3.651   2.849
 9770TIP3    H129255   5.450   3.665   2.797
 9770TIP3    H229256   5.345   3.739   2.878
 9771TIP3   OH229257   6.137   1.735   5.061
 9771TIP3    H129258   6.116   1.647   5.032
 9771TIP3    H229259   6.063   1.761   5.116
 9772TIP3   OH229260   5.993   5.402   5.297
 9772TIP3    H129261   5.997   5.472   5.361
 9772TIP3    H229262   6.014   5.323   5.347
 9773TIP3   OH229263   1.218   6.802   0.151
 9773TIP3    H129264   1.172   6.784   0.233
 9773TIP3    H229265   1.152   6.791   0.083
 9774TIP3   OH229266   2.945   2.698   2.613
 9774TIP3    H129267   3.000   2.718   2.537
 9774TIP3    H229268   2.989   2.623   2.654
 9775TIP3   OH229269   0.353   7.519   5.148
 9775TIP3    H129270   0.328   7.436   5.107
 9775TIP3    H229271   0.400   7.493   5.227
 9776TIP3   OH229272   3.250   5.191   4.320
 9776TIP3    H129273   3.174   5.194   4.261
 9776TIP3    H229274   3.227   5.250   4.391
 9777TIP3   OH229275   8.306   2.994   3.461
 9777TIP3    H129276   8.239   3.023   3.523
 9777TIP3    H229277   8.291   2.900   3.452
 9778TIP3   OH229278   3.875   3.682   1.707
 9778TIP3    H129279   3.857   3.740   1.781
 9778TIP3    H229280   3.898   3.599   1.747
 9779TIP3   OH229281   0.903   6.970   0.382
 9779TIP3    H129282   0.860   7.022   0.314
 9779TIP3    H229283   0.977   7.024   0.409
 9780TIP3   OH229284   5.422   0.381   0.030
 9780TIP3    H129285   5.462   0.385  -0.057
 9780TIP3    H229286   5.369   0.460   0.035
 9781TIP3   OH229287   4.787   4.603   5.614
 9781TIP3    H129288   4.760   4.690   5.642
 9781TIP3    H229289   4.829   4.617   5.529
 9782TIP3   OH229290   4.246   0.809   6.327
 9782TIP3    H129291   4.193   0.737   6.293
 9782TIP3    H229292   4.328   0.803   6.278
 9783TIP3   OH229293   3.045   6.255   5.454
 9783TIP3    H129294   3.078   6.206   5.529
 9783TIP3    H229295   2.981   6.316   5.491
 9784TIP3   OH229296   4.053   1.391   0.342
 9784TIP3    H129297   4.024   1.311   0.298
 9784TIP3    H229298   4.123   1.363   0.401
 9785TIP3   OH229299   7.948   1.189   0.136
 9785TIP3    H129300   8.013   1.154   0.197
 9785TIP3    H229301   7.991   1.266   0.097
 9786TIP3   OH229302   2.558  -0.017   5.359
 9786TIP3    H129303   2.502   0.061   5.363
 9786TIP3    H229304   2.498  -0.090   5.370
 9787TIP3   OH229305   5.726   0.336   5.203
 9787TIP3    H129306   5.706   0.243   5.195
 9787TIP3    H229307   5.814   0.339   5.241
 9788TIP3   OH229308   6.816   5.389   5.204
 9788TIP3    H129309   6.751   5.321   5.184
 9788TIP3    H229310   6.767   5.455   5.254
 9789TIP3   OH229311   6.141   4.418   3.364
 9789TIP3    H129312   6.225   4.374   3.349
 9789TIP3    H229313   6.146   4.448   3.455
 9790TIP3   OH229314   8.199   1.811   2.115
 9790TIP3    H129315   8.212   1.868   2.191
 9790TIP3    H229316   8.106   1.819   2.095
 9791TIP3   OH229317   0.826   4.292   0.741
 9791TIP3    H129318   0.886   4.366   0.738
 9791TIP3    H229319   0.817   4.265   0.650
 9792TIP3   OH229320   4.956   6.629   0.239
 9792TIP3    H129321   4.923   6.550   0.283
 9792TIP3    H229322   5.016   6.668   0.303
 9793TIP3   OH229323   1.367   3.324   0.116
 9793TIP3    H129324   1.415   3.311   0.198
 9793TIP3    H229325   1.288   3.372   0.142
 9794TIP3   OH229326   5.864   3.701   1.451
 9794TIP3    H129327   5.873   3.690   1.357
 9794TIP3    H229328   5.784   3.653   1.473
 9795TIP3   OH229329   3.255   7.701   3.764
 9795TIP3    H129330   3.315   7.766   3.728
 9795TIP3    H229331   3.205   7.669   3.688
 9796TIP3   OH229332   5.476   6.630   1.338
 9796TIP3    H129333   5.452   6.676   1.419
 9796TIP3    H229334   5.571   6.623   1.342
 9797TIP3   OH229335   6.551   6.852   4.214
 9797TIP3    H129336   6.580   6.772   4.258
 9797TIP3    H229337   6.608   6.860   4.137
 9798TIP3   OH229338   1.020   2.293   1.364
 9798TIP3    H129339   0.928   2.295   1.391
 9798TIP3    H229340   1.063   2.356   1.422
 9799TIP3   OH229341   3.301   0.000   2.836
 9799TIP3    H129342   3.293  -0.061   2.762
 9799TIP3    H229343   3.214   0.000   2.876
 9800TIP3   OH229344   3.696   5.480   2.906
 9800TIP3    H129345   3.647   5.477   2.824
 9800TIP3    H229346   3.631   5.457   2.973
 9801TIP3   OH229347   6.227   5.497   2.029
 9801TIP3    H129348   6.303   5.529   1.980
 9801TIP3    H229349   6.151   5.533   1.982
 9802TIP3   OH229350   6.167   2.215   0.588
 9802TIP3    H129351   6.151   2.299   0.546
 9802TIP3    H229352   6.113   2.217   0.667
 9803TIP3   OH229353   1.855   2.397   0.293
 9803TIP3    H129354   1.891   2.448   0.220
 9803TIP3    H229355   1.920   2.329   0.308
 9804TIP3   OH229356   4.574   4.615   0.890
 9804TIP3    H129357   4.579   4.658   0.975
 9804TIP3    H229358   4.553   4.686   0.829
 9805TIP3   OH229359   5.572   3.610   4.773
 9805TIP3    H129360   5.531   3.525   4.790
 9805TIP3    H229361   5.597   3.606   4.680
 9806TIP3   OH229362   5.991   2.142   6.155
 9806TIP3    H129363   6.082   2.162   6.178
 9806TIP3    H229364   5.993   2.134   6.059
 9807TIP3   OH229365   5.613   5.153   3.753
 9807TIP3    H129366   5.572   5.196   3.678
 9807TIP3    H229367   5.653   5.225   3.802
 9808TIP3   OH229368   4.950   3.371   2.990
 9808TIP3    H129369   4.915   3.352   3.077
 9808TIP3    H229370   5.032   3.417   3.007
 9809TIP3   OH229371   1.044   5.558   0.900
 9809TIP3    H129372   0.957   5.542   0.935
 9809TIP3    H229373   1.033   5.633   0.841
 9810TIP3   OH229374   1.971   1.857   5.213
 9810TIP3    H129375   1.887   1.891   5.245
 9810TIP3    H229376   1.998   1.920   5.146
 9811TIP3   OH229377   0.703   3.683   6.473
 9811TIP3    H129378   0.613   3.710   6.453
 9811TIP3    H229379   0.741   3.663   6.388
 9812TIP3   OH229380   5.846   2.399   0.584
 9812TIP3    H129381   5.796   2.342   0.526
 9812TIP3    H229382   5.934   2.398   0.547
 9813TIP3   OH229383   6.806   6.264   0.901
 9813TIP3    H129384   6.820   6.190   0.842
 9813TIP3    H229385   6.880   6.322   0.885
 9814TIP3   OH229386   2.487   2.734   5.131
 9814TIP3    H129387   2.546   2.761   5.060
 9814TIP3    H229388   2.413   2.794   5.125
 9815TIP3   OH229389   5.667   5.468   6.091
 9815TIP3    H129390   5.601   5.411   6.053
 9815TIP3    H229391   5.627   5.502   6.171
 9816TIP3   OH229392   4.299   1.412   6.346
 9816TIP3    H129393   4.265   1.427   6.434
 9816TIP3    H229394   4.311   1.317   6.341
 9817TIP3   OH229395   6.226   6.657   5.426
 9817TIP3    H129396   6.170   6.588   5.460
 9817TIP3    H229397   6.315   6.631   5.450
 9818TIP3   OH229398   5.896   4.330   2.782
 9818TIP3    H129399   5.806   4.300   2.774
 9818TIP3    H229400   5.929   4.288   2.862
 9819TIP3   OH229401   1.097   4.801   1.517
 9819TIP3    H129402   1.189   4.782   1.532
 9819TIP3    H229403   1.085   4.787   1.423
 9820TIP3   OH229404   3.439   2.656   2.493
 9820TIP3    H129405   3.527   2.644   2.529
 9820TIP3    H229406   3.418   2.571   2.453
 9821TIP3   OH229407   2.085   4.868   3.269
 9821TIP3    H129408   2.021   4.818   3.218
 9821TIP3    H229409   2.124   4.804   3.329
 9822TIP3   OH229410   1.425   2.369   6.262
 9822TIP3    H129411   1.411   2.344   6.170
 9822TIP3    H229412   1.519   2.381   6.270
 9823TIP3   OH229413   0.278   6.856   5.151
 9823TIP3    H129414   0.364   6.886   5.122
 9823TIP3    H229415   0.246   6.802   5.078
 9824TIP3   OH229416   6.788   1.194   5.237
 9824TIP3    H129417   6.840   1.161   5.163
 9824TIP3    H229418   6.793   1.125   5.303
 9825TIP3   OH229419   8.300   0.047   2.630
 9825TIP3    H129420   8.290   0.010   2.718
 9825TIP3    H229421   8.293  -0.027   2.571
 9826TIP3   OH229422   5.967   5.362   6.031
 9826TIP3    H129423   6.011   5.405   6.104
 9826TIP3    H229424   5.879   5.343   6.065
 9827TIP3   OH229425   2.817   4.780   6.542
 9827TIP3    H129426   2.904   4.741   6.544
 9827TIP3    H229427   2.827   4.863   6.589
 9828TIP3   OH229428   2.659   6.554   0.147
 9828TIP3    H129429   2.731   6.579   0.206
 9828TIP3    H229430   2.669   6.460   0.135
 9829TIP3   OH229431   3.850   0.104   0.459
 9829TIP3    H129432   3.822   0.195   0.470
 9829TIP3    H229433   3.926   0.095   0.516
 9830TIP3   OH229434   0.254   3.245   1.518
 9830TIP3    H129435   0.313   3.319   1.526
 9830TIP3    H229436   0.268   3.213   1.429
 9831TIP3   OH229437   6.104   6.291   0.942
 9831TIP3    H129438   6.113   6.260   0.852
 9831TIP3    H229439   6.055   6.373   0.934
 9832TIP3   OH229440   4.657   7.684   2.008
 9832TIP3    H129441   4.749   7.688   2.036
 9832TIP3    H229442   4.610   7.737   2.072
 9833TIP3   OH229443   1.983   7.425   0.804
 9833TIP3    H129444   2.074   7.432   0.833
 9833TIP3    H229445   1.946   7.511   0.824
 9834TIP3   OH229446   4.635   7.565   2.491
 9834TIP3    H129447   4.660   7.657   2.504
 9834TIP3    H229448   4.549   7.570   2.449
 9835TIP3   OH229449   5.751   1.316   1.927
 9835TIP3    H129450   5.696   1.364   1.864
 9835TIP3    H229451   5.733   1.358   2.011
 9836TIP3   OH229452   8.201   7.156   1.788
 9836TIP3    H129453   8.229   7.130   1.700
 9836TIP3    H229454   8.172   7.246   1.778
 9837TIP3   OH229455   5.738   1.007   6.477
 9837TIP3    H129456   5.789   1.036   6.553
 9837TIP3    H229457   5.647   1.008   6.506
 9838TIP3   OH229458   3.661   2.216   6.662
 9838TIP3    H129459   3.742   2.264   6.644
 9838TIP3    H229460   3.630   2.188   6.575
 9839TIP3   OH229461   7.885   5.456   0.945
 9839TIP3    H129462   7.920   5.401   0.875
 9839TIP3    H229463   7.921   5.418   1.025
 9840TIP3   OH229464   5.727   1.949   6.444
 9840TIP3    H129465   5.800   2.011   6.453
 9840TIP3    H229466   5.752   1.893   6.371
 9841TIP3   OH229467   3.057   3.046   2.246
 9841TIP3    H129468   2.985   3.101   2.277
 9841TIP3    H229469   3.110   3.031   2.324
 9842TIP3   OH229470   2.757   2.356   5.938
 9842TIP3    H129471   2.722   2.333   6.024
 9842TIP3    H229472   2.687   2.408   5.898
 9843TIP3   OH229473   0.402   5.656   0.803
 9843TIP3    H129474   0.373   5.746   0.819
 9843TIP3    H229475   0.475   5.665   0.742
 9844TIP3   OH229476   1.407   2.362   1.183
 9844TIP3    H129477   1.469   2.289   1.191
 9844TIP3    H229478   1.361   2.345   1.101
 9845TIP3   OH229479   6.038   7.366   5.483
 9845TIP3    H129480   6.098   7.421   5.432
 9845TIP3    H229481   6.003   7.423   5.550
 9846TIP3   OH229482   2.789   1.431   4.159
 9846TIP3    H129483   2.785   1.503   4.096
 9846TIP3    H229484   2.787   1.352   4.105
 9847TIP3   OH229485   3.327   2.878   5.167
 9847TIP3    H129486   3.394   2.927   5.214
 9847TIP3    H229487   3.246   2.894   5.214
 9848TIP3   OH229488   6.291   1.793   5.947
 9848TIP3    H129489   6.336   1.873   5.921
 9848TIP3    H229490   6.229   1.776   5.876
 9849TIP3   OH229491   4.768   7.472   5.657
 9849TIP3    H129492   4.779   7.379   5.673
 9849TIP3    H229493   4.779   7.482   5.562
 9850TIP3   OH229494   5.111   6.801   6.373
 9850TIP3    H129495   5.189   6.842   6.409
 9850TIP3    H229496   5.045   6.811   6.441
 9851TIP3   OH229497   6.515   3.590   5.357
 9851TIP3    H129498   6.567   3.628   5.428
 9851TIP3    H229499   6.565   3.513   5.329
 9852TIP3   OH229500   4.929   4.460   0.406
 9852TIP3    H129501   4.942   4.420   0.320
 9852TIP3    H229502   5.003   4.520   0.416
 9853TIP3   OH229503   3.078   4.578   0.425
 9853TIP3    H129504   3.122   4.573   0.340
 9853TIP3    H229505   3.024   4.657   0.419
 9854TIP3   OH229506   0.451   3.608   4.898
 9854TIP3    H129507   0.504   3.685   4.876
 9854TIP3    H229508   0.375   3.643   4.944
 9855TIP3   OH229509   5.645   2.158   2.700
 9855TIP3    H129510   5.576   2.186   2.760
 9855TIP3    H229511   5.696   2.237   2.683
 9856TIP3   OH229512   2.651   3.216   5.797
 9856TIP3    H129513   2.613   3.252   5.877
 9856TIP3    H229514   2.694   3.291   5.755
 9857TIP3   OH229515   0.910   5.810   5.531
 9857TIP3    H129516   0.863   5.742   5.482
 9857TIP3    H229517   0.988   5.766   5.564
 9858TIP3   OH229518   2.982   2.964   0.521
 9858TIP3    H129519   2.993   2.986   0.428
 9858TIP3    H229520   2.916   3.026   0.552
 9859TIP3   OH229521   7.763   0.996   6.680
 9859TIP3    H129522   7.695   0.929   6.686
 9859TIP3    H229523   7.778   1.022   6.771
 9860TIP3   OH229524   4.571   3.146   3.965
 9860TIP3    H129525   4.585   3.216   4.028
 9860TIP3    H229526   4.479   3.152   3.942
 9861TIP3   OH229527   2.505   5.363   0.615
 9861TIP3    H129528   2.546   5.372   0.529
 9861TIP3    H229529   2.461   5.447   0.629
 9862TIP3   OH229530   4.645   0.924   2.867
 9862TIP3    H129531   4.654   0.829   2.866
 9862TIP3    H229532   4.570   0.941   2.923
 9863TIP3   OH229533   3.345   3.280   1.184
 9863TIP3    H129534   3.289   3.207   1.212
 9863TIP3    H229535   3.291   3.358   1.195
 9864TIP3   OH229536   4.455   2.448   1.930
 9864TIP3    H129537   4.468   2.476   1.840
 9864TIP3    H229538   4.383   2.503   1.962
 9865TIP3   OH229539   3.949   5.678   5.579
 9865TIP3    H129540   4.016   5.747   5.574
 9865TIP3    H229541   3.937   5.662   5.672
 9866TIP3   OH229542   5.546   4.343   1.698
 9866TIP3    H129543   5.489   4.277   1.737
 9866TIP3    H229544   5.486   4.406   1.659
 9867TIP3   OH229545   3.992   4.348   2.369
 9867TIP3    H129546   4.061   4.339   2.304
 9867TIP3    H229547   4.034   4.391   2.443
 9868TIP3   OH229548   2.545   0.275   1.318
 9868TIP3    H129549   2.475   0.212   1.335
 9868TIP3    H229550   2.608   0.261   1.388
 9869TIP3   OH229551   1.281   1.220   2.573
 9869TIP3    H129552   1.273   1.216   2.668
 9869TIP3    H229553   1.253   1.309   2.550
 9870TIP3   OH229554   3.119   0.484   2.583
 9870TIP3    H129555   3.083   0.554   2.638
 9870TIP3    H229556   3.087   0.403   2.623
 9871TIP3   OH229557   3.657   2.042   4.961
 9871TIP3    H129558   3.635   2.089   4.881
 9871TIP3    H229559   3.574   2.039   5.010
 9872TIP3   OH229560   7.220   0.485   0.530
 9872TIP3    H129561   7.234   0.432   0.608
 9872TIP3    H229562   7.288   0.457   0.468
 9873TIP3   OH229563   2.251   0.930   2.758
 9873TIP3    H129564   2.312   0.970   2.696
 9873TIP3    H229565   2.218   0.852   2.713
 9874TIP3   OH229566   3.891   2.326   3.137
 9874TIP3    H129567   3.803   2.320   3.101
 9874TIP3    H229568   3.949   2.296   3.067
 9875TIP3   OH229569   5.470   2.929   4.023
 9875TIP3    H129570   5.394   2.870   4.021
 9875TIP3    H229571   5.533   2.888   3.964
 9876TIP3   OH229572   1.327   4.070   1.136
 9876TIP3    H129573   1.350   4.003   1.200
 9876TIP3    H229574   1.385   4.053   1.062
 9877TIP3   OH229575   0.240   2.339   2.519
 9877TIP3    H129576   0.281   2.262   2.558
 9877TIP3    H229577   0.259   2.410   2.580
 9878TIP3   OH229578   4.680   0.319   0.013
 9878TIP3    H129579   4.588   0.329   0.038
 9878TIP3    H229580   4.713   0.251   0.071
 9879TIP3   OH229581   0.523   2.077   4.917
 9879TIP3    H129582   0.555   1.992   4.888
 9879TIP3    H229583   0.468   2.057   4.993
 9880TIP3   OH229584   2.665   3.205   5.052
 9880TIP3    H129585   2.609   3.251   4.989
 9880TIP3    H229586   2.604   3.166   5.114
 9881TIP3   OH229587   6.726   4.833   5.740
 9881TIP3    H129588   6.743   4.869   5.827
 9881TIP3    H229589   6.807   4.789   5.716
 9882TIP3   OH229590   7.581   5.249   3.750
 9882TIP3    H129591   7.513   5.182   3.758
 9882TIP3    H229592   7.663   5.202   3.766
 9883TIP3   OH229593   0.298   4.434   3.697
 9883TIP3    H129594   0.282   4.464   3.607
 9883TIP3    H229595   0.223   4.379   3.718
 9884TIP3   OH229596   7.242   0.738   1.706
 9884TIP3    H129597   7.276   0.648   1.706
 9884TIP3    H229598   7.203   0.749   1.620
 9885TIP3   OH229599   1.955   1.857   0.701
 9885TIP3    H129600   1.871   1.822   0.733
 9885TIP3    H229601   1.947   1.853   0.605
 9886TIP3   OH229602   3.869   4.215   1.975
 9886TIP3    H129603   3.880   4.122   1.957
 9886TIP3    H229604   3.932   4.259   1.917
 9887TIP3   OH229605   8.135   1.800   4.690
 9887TIP3    H129606   8.079   1.798   4.767
 9887TIP3    H229607   8.102   1.874   4.638
 9888TIP3   OH229608   1.250   0.969   4.914
 9888TIP3    H129609   1.279   0.878   4.907
 9888TIP3    H229610   1.155   0.965   4.902
 9889TIP3   OH229611   8.175   7.121   4.477
 9889TIP3    H129612   8.170   7.179   4.553
 9889TIP3    H229613   8.223   7.045   4.508
 9890TIP3   OH229614   1.774   7.004   1.871
 9890TIP3    H129615   1.730   7.077   1.828
 9890TIP3    H229616   1.738   6.926   1.831
 9891TIP3   OH229617   8.087   4.239   1.592
 9891TIP3    H129618   8.031   4.195   1.655
 9891TIP3    H229619   8.176   4.226   1.624
 9892TIP3   OH229620   5.460   3.310   3.241
 9892TIP3    H129621   5.431   3.250   3.310
 9892TIP3    H229622   5.391   3.306   3.176
 9893TIP3   OH229623   5.472   5.283   0.179
 9893TIP3    H129624   5.545   5.298   0.119
 9893TIP3    H229625   5.398   5.264   0.121
 9894TIP3   OH229626   2.776   1.602   6.745
 9894TIP3    H129627   2.696   1.585   6.695
 9894TIP3    H229628   2.808   1.685   6.711
 9895TIP3   OH229629   2.633   0.936   2.875
 9895TIP3    H129630   2.586   1.016   2.852
 9895TIP3    H229631   2.575   0.865   2.848
 9896TIP3   OH229632   2.358   7.675   3.461
 9896TIP3    H129633   2.405   7.592   3.458
 9896TIP3    H229634   2.422   7.738   3.494
 9897TIP3   OH229635   0.056   1.512   4.955
 9897TIP3    H129636   0.056   1.429   4.907
 9897TIP3    H229637   0.105   1.493   5.035
 9898TIP3   OH229638   7.753   3.373   5.587
 9898TIP3    H129639   7.833   3.322   5.605
 9898TIP3    H229640   7.727   3.406   5.673
 9899TIP3   OH229641   0.078   6.097   6.759
 9899TIP3    H129642   0.005   6.035   6.768
 9899TIP3    H229643   0.147   6.045   6.718
 9900TIP3   OH229644   1.505   2.196   6.676
 9900TIP3    H129645   1.495   2.170   6.585
 9900TIP3    H229646   1.418   2.222   6.704
 9901TIP3   OH229647   6.237   7.482   2.657
 9901TIP3    H129648   6.154   7.434   2.668
 9901TIP3    H229649   6.256   7.517   2.743
 9902TIP3   OH229650   1.386   0.041   2.988
 9902TIP3    H129651   1.428  -0.044   2.999
 9902TIP3    H229652   1.404   0.088   3.070
 9903TIP3   OH229653   5.598   7.088   5.904
 9903TIP3    H129654   5.634   7.126   5.825
 9903TIP3    H229655   5.508   7.064   5.880
 9904TIP3   OH229656   6.033   3.172   4.520
 9904TIP3    H129657   6.102   3.224   4.561
 9904TIP3    H229658   5.957   3.231   4.516
 9905TIP3   OH229659   7.378   6.131   4.931
 9905TIP3    H129660   7.352   6.220   4.907
 9905TIP3    H229661   7.421   6.097   4.852
 9906TIP3   OH229662   0.153   7.259   1.724
 9906TIP3    H129663   0.122   7.307   1.647
 9906TIP3    H229664   0.073   7.235   1.771
 9907TIP3   OH229665   0.174   5.336   2.296
 9907TIP3    H129666   0.214   5.332   2.383
 9907TIP3    H229667   0.223   5.272   2.244
 9908TIP3   OH229668   4.137   7.224   6.350
 9908TIP3    H129669   4.197   7.242   6.278
 9908TIP3    H229670   4.074   7.162   6.313
 9909TIP3   OH229671   1.832   2.574   1.322
 9909TIP3    H129672   1.918   2.615   1.332
 9909TIP3    H229673   1.851   2.487   1.286
 9910TIP3   OH229674   2.597   6.040   4.590
 9910TIP3    H129675   2.645   6.056   4.509
 9910TIP3    H229676   2.616   6.116   4.645
 9911TIP3   OH229677   8.162   4.141   6.142
 9911TIP3    H129678   8.178   4.218   6.197
 9911TIP3    H229679   8.066   4.131   6.143
 9912TIP3   OH229680   5.139   6.185   5.461
 9912TIP3    H129681   5.057   6.230   5.440
 9912TIP3    H229682   5.130   6.099   5.420
 9913TIP3   OH229683   0.540   1.283   2.061
 9913TIP3    H129684   0.602   1.353   2.084
 9913TIP3    H229685   0.484   1.322   1.994
 9914TIP3   OH229686   6.060   2.401   2.757
 9914TIP3    H129687   6.133   2.388   2.696
 9914TIP3    H229688   6.081   2.482   2.803
 9915TIP3   OH229689   7.779   5.068   5.923
 9915TIP3    H129690   7.868   5.034   5.937
 9915TIP3    H229691   7.731   5.042   6.001
 9916TIP3   OH229692   4.266   2.240   4.384
 9916TIP3    H129693   4.307   2.320   4.353
 9916TIP3    H229694   4.194   2.225   4.322
 9917TIP3   OH229695   5.001   2.991   3.406
 9917TIP3    H129696   4.983   2.901   3.435
 9917TIP3    H229697   5.060   2.980   3.331
 9918TIP3   OH229698   0.271   3.183   1.007
 9918TIP3    H129699   0.176   3.191   0.999
 9918TIP3    H229700   0.286   3.159   1.098
 9919TIP3   OH229701   2.024   2.001   6.253
 9919TIP3    H129702   2.023   2.025   6.346
 9919TIP3    H229703   2.109   1.958   6.241
 9920TIP3   OH229704   6.404   7.509   4.397
 9920TIP3    H129705   6.379   7.559   4.475
 9920TIP3    H229706   6.403   7.573   4.326
 9921TIP3   OH229707   2.131   1.715   6.442
 9921TIP3    H129708   2.095   1.759   6.519
 9921TIP3    H229709   2.056   1.701   6.385
 9922TIP3   OH229710   6.464   5.017   1.858
 9922TIP3    H129711   6.396   5.066   1.904
 9922TIP3    H229712   6.503   5.082   1.798
 9923TIP3   OH229713   8.068   5.269   3.781
 9923TIP3    H129714   8.121   5.285   3.703
 9923TIP3    H229715   8.026   5.185   3.764
 9924TIP3   OH229716   7.102   6.221   0.917
 9924TIP3    H129717   7.181   6.232   0.971
 9924TIP3    H229718   7.120   6.143   0.865
 9925TIP3   OH229719   1.709   3.521   4.886
 9925TIP3    H129720   1.774   3.544   4.952
 9925TIP3    H229721   1.720   3.426   4.873
 9926TIP3   OH229722   3.661   0.807   5.454
 9926TIP3    H129723   3.586   0.829   5.509
 9926TIP3    H229724   3.713   0.746   5.507
 9927TIP3   OH229725   4.907   6.741   2.647
 9927TIP3    H129726   4.933   6.832   2.637
 9927TIP3    H229727   4.923   6.722   2.739
 9928TIP3   OH229728   3.940   7.315   4.061
 9928TIP3    H129729   3.973   7.382   4.001
 9928TIP3    H229730   3.852   7.295   4.030
 9929TIP3   OH229731   4.645   1.384   3.723
 9929TIP3    H129732   4.659   1.473   3.690
 9929TIP3    H229733   4.554   1.364   3.699
 9930TIP3   OH229734   8.075   5.221   3.383
 9930TIP3    H129735   8.125   5.298   3.355
 9930TIP3    H229736   8.135   5.173   3.440
 9931TIP3   OH229737   7.957   6.714   5.365
 9931TIP3    H129738   7.886   6.650   5.365
 9931TIP3    H229739   8.026   6.673   5.418
 9932TIP3   OH229740   3.396   6.585   0.140
 9932TIP3    H129741   3.401   6.652   0.209
 9932TIP3    H229742   3.359   6.509   0.184
 9933TIP3   OH229743   7.684   3.066   2.533
 9933TIP3    H129744   7.668   3.003   2.603
 9933TIP3    H229745   7.778   3.083   2.537
 9934TIP3   OH229746   3.173   0.775   6.523
 9934TIP3    H129747   3.130   0.782   6.608
 9934TIP3    H229748   3.129   0.840   6.469
 9935TIP3   OH229749   7.941   1.593   5.587
 9935TIP3    H129750   7.955   1.588   5.493
 9935TIP3    H229751   7.891   1.514   5.608
 9936TIP3   OH229752   0.726   7.045   5.046
 9936TIP3    H129753   0.718   7.027   4.952
 9936TIP3    H229754   0.820   7.063   5.059
 9937TIP3   OH229755   1.674   7.096   3.605
 9937TIP3    H129756   1.763   7.127   3.589
 9937TIP3    H229757   1.649   7.136   3.689
 9938TIP3   OH229758   3.748   2.621   4.592
 9938TIP3    H129759   3.744   2.690   4.526
 9938TIP3    H229760   3.780   2.544   4.544
 9939TIP3   OH229761   7.244   4.976   1.645
 9939TIP3    H129762   7.172   5.030   1.614
 9939TIP3    H229763   7.297   4.959   1.566
 9940TIP3   OH229764   5.290   1.646   4.214
 9940TIP3    H129765   5.251   1.569   4.255
 9940TIP3    H229766   5.385   1.634   4.226
 9941TIP3   OH229767   6.823   5.244   0.596
 9941TIP3    H129768   6.905   5.198   0.615
 9941TIP3    H229769   6.818   5.313   0.662
 9942TIP3   OH229770   5.555   6.099   2.155
 9942TIP3    H129771   5.528   6.158   2.084
 9942TIP3    H229772   5.648   6.118   2.168
 9943TIP3   OH229773   1.610   0.864   2.908
 9943TIP3    H129774   1.529   0.887   2.953
 9943TIP3    H229775   1.634   0.943   2.859
 9944TIP3   OH229776   2.461   1.958   6.105
 9944TIP3    H129777   2.435   1.904   6.030
 9944TIP3    H229778   2.399   1.934   6.174
 9945TIP3   OH229779   0.544   0.903   3.658
 9945TIP3    H129780   0.591   0.869   3.734
 9945TIP3    H229781   0.455   0.871   3.669
 9946TIP3   OH229782   6.653   0.148   4.050
 9946TIP3    H129783   6.668   0.074   4.109
 9946TIP3    H229784   6.565   0.179   4.073
 9947TIP3   OH229785   6.620   0.664   1.285
 9947TIP3    H129786   6.587   0.677   1.374
 9947TIP3    H229787   6.710   0.633   1.297
 9948TIP3   OH229788   2.696   6.631   6.696
 9948TIP3    H129789   2.726   6.655   6.608
 9948TIP3    H229790   2.755   6.560   6.723
 9949TIP3   OH229791   1.831   5.745   3.206
 9949TIP3    H129792   1.889   5.703   3.142
 9949TIP3    H229793   1.781   5.808   3.155
 9950TIP3   OH229794   6.047   2.785   2.738
 9950TIP3    H129795   6.062   2.859   2.797
 9950TIP3    H229796   6.037   2.710   2.796
 9951TIP3   OH229797   7.526   3.215   6.091
 9951TIP3    H129798   7.526   3.307   6.119
 9951TIP3    H229799   7.604   3.207   6.037
 9952TIP3   OH229800   4.037   4.141   4.677
 9952TIP3    H129801   4.089   4.142   4.757
 9952TIP3    H229802   3.961   4.087   4.698
 9953TIP3   OH229803   7.725   1.968   6.766
 9953TIP3    H129804   7.739   2.003   6.678
 9953TIP3    H229805   7.632   1.945   6.768
 9954TIP3   OH229806   0.939   0.244   0.645
 9954TIP3    H129807   1.022   0.264   0.688
 9954TIP3    H229808   0.933   0.308   0.575
 9955TIP3   OH229809   7.243   5.685   0.842
 9955TIP3    H129810   7.209   5.695   0.753
 9955TIP3    H229811   7.242   5.590   0.857
 9956TIP3   OH229812  -0.003   2.149   3.792
 9956TIP3    H129813  -0.065   2.187   3.855
 9956TIP3    H229814   0.055   2.095   3.845
 9957TIP3   OH229815   4.038   4.034   0.442
 9957TIP3    H129816   4.084   4.079   0.514
 9957TIP3    H229817   4.108   4.011   0.381
 9958TIP3   OH229818   6.009   2.196   5.156
 9958TIP3    H129819   6.062   2.214   5.234
 9958TIP3    H229820   5.921   2.180   5.190
 9959TIP3   OH229821   0.165   1.312   3.294
 9959TIP3    H129822   0.247   1.281   3.257
 9959TIP3    H229823   0.097   1.271   3.241
 9960TIP3   OH229824   6.294   6.220   4.655
 9960TIP3    H129825   6.258   6.220   4.744
 9960TIP3    H229826   6.334   6.133   4.645
 9961TIP3   OH229827   1.620   5.858   0.254
 9961TIP3    H129828   1.645   5.869   0.162
 9961TIP3    H229829   1.561   5.931   0.273
 9962TIP3   OH229830   6.197   1.894   0.862
 9962TIP3    H129831   6.162   1.983   0.861
 9962TIP3    H229832   6.120   1.837   0.856
 9963TIP3   OH229833   3.278   2.559   6.120
 9963TIP3    H129834   3.190   2.593   6.137
 9963TIP3    H229835   3.268   2.507   6.040
 9964TIP3   OH229836   6.342   0.377   0.581
 9964TIP3    H129837   6.282   0.437   0.538
 9964TIP3    H229838   6.429   0.411   0.560
 9965TIP3   OH229839   7.885   5.518   0.243
 9965TIP3    H129840   7.900   5.511   0.337
 9965TIP3    H229841   7.930   5.599   0.217
 9966TIP3   OH229842   4.824   4.433   1.472
 9966TIP3    H129843   4.760   4.483   1.522
 9966TIP3    H229844   4.845   4.489   1.397
 9967TIP3   OH229845   7.860   3.465   4.580
 9967TIP3    H129846   7.777   3.419   4.570
 9967TIP3    H229847   7.922   3.396   4.605
 9968TIP3   OH229848   1.923   0.770   1.564
 9968TIP3    H129849   1.931   0.852   1.613
 9968TIP3    H229850   1.857   0.788   1.497
 9969TIP3   OH229851   5.578   7.704   3.169
 9969TIP3    H129852   5.553   7.624   3.215
 9969TIP3    H229853   5.533   7.775   3.217
 9970TIP3   OH229854   2.386   0.341   4.676
 9970TIP3    H129855   2.311   0.395   4.701
 9970TIP3    H229856   2.351   0.281   4.610
 9971TIP3   OH229857   1.247   1.941   3.916
 9971TIP3    H129858   1.292   1.893   3.847
 9971TIP3    H229859   1.207   2.015   3.871
 9972TIP3   OH229860   8.046   2.816   1.134
 9972TIP3    H129861   8.006   2.733   1.106
 9972TIP3    H229862   8.004   2.836   1.217
 9973TIP3   OH229863   0.224   0.186   2.891
 9973TIP3    H129864   0.267   0.172   2.807
 9973TIP3    H229865   0.151   0.123   2.892
 9974TIP3   OH229866   7.891   1.966   5.151
 9974TIP3    H129867   7.852   1.882   5.178
 9974TIP3    H229868   7.849   2.031   5.208
 9975TIP3   OH229869   4.514   4.371   0.167
 9975TIP3    H129870   4.517   4.439   0.235
 9975TIP3    H229871   4.597   4.381   0.120
 9976TIP3   OH229872   7.827   4.596   3.897
 9976TIP3    H129873   7.899   4.659   3.890
 9976TIP3    H229874   7.857   4.520   3.849
 9977TIP3   OH229875   1.929   5.426   3.186
 9977TIP3    H129876   1.996   5.436   3.253
 9977TIP3    H229877   1.930   5.510   3.139
 9978TIP3   OH229878   4.670   0.554   6.557
 9978TIP3    H129879   4.649   0.509   6.639
 9978TIP3    H229880   4.585   0.579   6.521
 9979TIP3   OH229881   7.860   5.848   1.504
 9979TIP3    H129882   7.842   5.765   1.548
 9979TIP3    H229883   7.849   5.915   1.571
 9980TIP3   OH229884   4.117   0.118   3.205
 9980TIP3    H129885   4.142   0.042   3.152
 9980TIP3    H229886   4.165   0.191   3.166
 9981TIP3   OH229887   1.169   0.859   5.511
 9981TIP3    H129888   1.120   0.899   5.439
 9981TIP3    H229889   1.117   0.783   5.537
 9982TIP3   OH229890   4.413   1.771   3.229
 9982TIP3    H129891   4.429   1.682   3.197
 9982TIP3    H229892   4.318   1.778   3.232
 9983TIP3   OH229893   0.035   3.234   2.824
 9983TIP3    H129894   0.067   3.305   2.769
 9983TIP3    H229895  -0.059   3.232   2.809
 9984TIP3   OH229896   1.084   7.773   3.000
 9984TIP3    H129897   0.991   7.773   2.976
 9984TIP3    H229898   1.123   7.841   2.946
 9985TIP3   OH229899   6.184   3.618   6.682
 9985TIP3    H129900   6.176   3.529   6.649
 9985TIP3    H229901   6.255   3.657   6.631
 9986TIP3   OH229902   4.563   3.909   6.159
 9986TIP3    H129903   4.618   3.840   6.122
 9986TIP3    H229904   4.619   3.950   6.225
 9987TIP3   OH229905   5.449   3.102   0.769
 9987TIP3    H129906   5.519   3.105   0.704
 9987TIP3    H229907   5.390   3.033   0.738
 9988TIP3   OH229908   0.453   0.491   5.366
 9988TIP3    H129909   0.372   0.460   5.407
 9988TIP3    H229910   0.453   0.585   5.382
 9989TIP3   OH229911   6.349   1.797   2.741
 9989TIP3    H129912   6.281   1.864   2.737
 9989TIP3    H229913   6.403   1.815   2.664
 9990TIP3   OH229914   1.899   6.095   5.382
 9990TIP3    H129915   1.856   6.017   5.347
 9990TIP3    H229916   1.865   6.167   5.329
 9991TIP3   OH229917   0.366   7.748   1.301
 9991TIP3    H129918   0.461   7.732   1.307
 9991TIP3    H229919   0.359   7.842   1.284
 9992TIP3   OH229920   4.458   7.113   4.823
 9992TIP3    H129921   4.477   7.020   4.831
 9992TIP3    H229922   4.363   7.119   4.821
 9993TIP3   OH229923   7.024   3.033   4.112
 9993TIP3    H129924   6.963   3.078   4.054
 9993TIP3    H229925   7.105   3.026   4.060
 9994TIP3   OH229926   4.082   2.813   2.800
 9994TIP3    H129927   4.038   2.894   2.827
 9994TIP3    H229928   4.159   2.844   2.750
 9995TIP3   OH229929   7.947   0.056   1.137
 9995TIP3    H129930   7.912   0.144   1.127
 9995TIP3    H229931   7.946   0.040   1.231
 9996TIP3   OH229932   1.841   3.066   5.157
 9996TIP3    H129933   1.768   3.115   5.195
 9996TIP3    H229934   1.873   3.012   5.229
 9997TIP3   OH229935   5.560   4.136   3.288
 9997TIP3    H129936   5.531   4.215   3.332
 9997TIP3    H229937   5.526   4.065   3.342
 9998TIP3   OH229938   6.701   0.487   4.155
 9998TIP3    H129939   6.683   0.464   4.246
 9998TIP3    H229940   6.635   0.440   4.104
 9999TIP3   OH229941   4.862   5.666   5.934
 9999TIP3    H129942   4.850   5.585   5.983
 9999TIP3    H229943   4.787   5.720   5.958
10000TIP3   OH229944   5.446   3.131   1.459
10000TIP3    H129945   5.382   3.060   1.460
10000TIP3    H229946   5.431   3.177   1.542
10001TIP3   OH229947   2.958   0.468   2.969
10001TIP3    H129948   2.909   0.418   3.034
10001TIP3    H229949   2.954   0.415   2.890
10002TIP3   OH229950   4.298   5.998   0.322
10002TIP3    H129951   4.343   5.939   0.382
10002TIP3    H229952   4.367   6.031   0.265
10003TIP3   OH229953   3.809   1.686   3.589
10003TIP3    H129954   3.838   1.647   3.506
10003TIP3    H229955   3.847   1.774   3.589
10004TIP3   OH229956   5.533   6.351   3.840
10004TIP3    H129957   5.550   6.258   3.823
10004TIP3    H229958   5.575   6.368   3.924
10005TIP3   OH229959   6.126   1.817   1.337
10005TIP3    H129960   6.214   1.810   1.373
10005TIP3    H229961   6.097   1.905   1.361
10006TIP3   OH229962   1.923   3.644   6.009
10006TIP3    H129963   1.936   3.560   6.053
10006TIP3    H229964   1.828   3.655   6.005
10007TIP3   OH229965   6.156   5.012   6.693
10007TIP3    H129966   6.248   5.012   6.719
10007TIP3    H229967   6.116   5.081   6.745
10008TIP3   OH229968   4.788   5.034   2.401
10008TIP3    H129969   4.792   5.084   2.483
10008TIP3    H229970   4.827   5.092   2.336
10009TIP3   OH229971   5.475   2.506   5.573
10009TIP3    H129972   5.455   2.545   5.658
10009TIP3    H229973   5.545   2.444   5.591
10010TIP3   OH229974   6.871   4.035   0.647
10010TIP3    H129975   6.865   4.057   0.554
10010TIP3    H229976   6.794   3.981   0.664
10011TIP3   OH229977   3.066   6.647   1.094
10011TIP3    H129978   3.156   6.620   1.113
10011TIP3    H229979   3.037   6.588   1.025
10012TIP3   OH229980   4.882   4.802   2.565
10012TIP3    H129981   4.799   4.759   2.585
10012TIP3    H229982   4.858   4.871   2.503
10013TIP3   OH229983   7.280   7.124   2.591
10013TIP3    H129984   7.356   7.068   2.578
10013TIP3    H229985   7.298   7.171   2.673
10014TIP3   OH229986   2.111   7.568   6.145
10014TIP3    H129987   2.054   7.492   6.154
10014TIP3    H229988   2.171   7.545   6.074
10015TIP3   OH229989   1.359   4.259   4.285
10015TIP3    H129990   1.337   4.204   4.210
10015TIP3    H229991   1.455   4.262   4.286
10016TIP3   OH229992   6.918   3.888   1.367
10016TIP3    H129993   6.893   3.976   1.339
10016TIP3    H229994   7.007   3.899   1.401
10017TIP3   OH229995   6.616   4.907   2.451
10017TIP3    H129996   6.606   4.910   2.356
10017TIP3    H229997   6.617   4.999   2.477
10018TIP3   OH229998   7.281   4.676   4.379
10018TIP3    H129999   7.328   4.624   4.313
10018TIP3    H230000   7.270   4.616   4.453
10019TIP3   OH230001   3.858   0.310   4.223
10019TIP3    H130002   3.844   0.399   4.191
10019TIP3    H230003   3.821   0.254   4.154
10020TIP3   OH230004   8.093   3.166   2.290
10020TIP3    H130005   8.088   3.120   2.207
10020TIP3    H230006   8.029   3.122   2.346
10021TIP3   OH230007   6.278   6.653   1.792
10021TIP3    H130008   6.277   6.725   1.855
10021TIP3    H230009   6.357   6.667   1.740
10022TIP3   OH230010   3.428   5.129   2.285
10022TIP3    H130011   3.401   5.109   2.374
10022TIP3    H230012   3.377   5.068   2.231
10023TIP3   OH230013   7.940   6.424   4.295
10023TIP3    H130014   7.915   6.506   4.252
10023TIP3    H230015   7.965   6.365   4.223
10024TIP3   OH230016   1.274   2.999   4.451
10024TIP3    H130017   1.253   2.906   4.441
10024TIP3    H230018   1.216   3.030   4.520
10025TIP3   OH230019   5.490   1.233   2.709
10025TIP3    H130020   5.497   1.268   2.620
10025TIP3    H230021   5.489   1.310   2.765
10026TIP3   OH230022   1.937   5.888   2.706
10026TIP3    H130023   2.018   5.913   2.661
10026TIP3    H230024   1.869   5.941   2.664
10027TIP3   OH230025   0.033   3.739   4.842
10027TIP3    H130026   0.007   3.831   4.847
10027TIP3    H230027  -0.032   3.692   4.893
10028TIP3   OH230028   3.400   7.026   1.207
10028TIP3    H130029   3.395   6.946   1.156
10028TIP3    H230030   3.313   7.034   1.247
10029TIP3   OH230031   4.210   0.524   6.282
10029TIP3    H130032   4.158   0.485   6.353
10029TIP3    H230033   4.186   0.473   6.205
10030TIP3   OH230034   0.130   6.491   1.791
10030TIP3    H130035   0.119   6.450   1.705
10030TIP3    H230036   0.066   6.446   1.847
10031TIP3   OH230037   2.884   6.417   6.723
10031TIP3    H130038   2.877   6.330   6.762
10031TIP3    H230039   2.976   6.440   6.731
10032TIP3   OH230040   4.410   6.519   5.167
10032TIP3    H130041   4.319   6.505   5.140
10032TIP3    H230042   4.462   6.471   5.103
10033TIP3   OH230043   1.909   7.041   5.463
10033TIP3    H130044   1.903   7.095   5.384
10033TIP3    H230045   1.986   7.075   5.509
10034TIP3   OH230046   2.449   6.181   0.227
10034TIP3    H130047   2.487   6.188   0.139
10034TIP3    H230048   2.416   6.091   0.233
10035TIP3   OH230049   1.827   6.788   5.451
10035TIP3    H130050   1.872   6.872   5.460
10035TIP3    H230051   1.813   6.758   5.541
10036TIP3   OH230052   4.888   4.899   0.323
10036TIP3    H130053   4.971   4.945   0.307
10036TIP3    H230054   4.882   4.892   0.418
10037TIP3   OH230055   0.729   1.517   1.501
10037TIP3    H130056   0.789   1.558   1.439
10037TIP3    H230057   0.734   1.423   1.481
10038TIP3   OH230058   0.222   7.032   3.428
10038TIP3    H130059   0.220   6.941   3.458
10038TIP3    H230060   0.274   7.030   3.348
10039TIP3   OH230061   7.509   7.556   4.651
10039TIP3    H130062   7.548   7.529   4.569
10039TIP3    H230063   7.544   7.496   4.716
10040TIP3   OH230064   7.099   6.906   1.091
10040TIP3    H130065   7.159   6.934   1.160
10040TIP3    H230066   7.144   6.927   1.009
10041TIP3   OH230067   1.248   6.340   1.291
10041TIP3    H130068   1.279   6.336   1.381
10041TIP3    H230069   1.213   6.253   1.273
10042TIP3   OH230070   6.260   0.046   3.981
10042TIP3    H130071   6.271   0.058   3.887
10042TIP3    H230072   6.308  -0.035   4.001
10043TIP3   OH230073   0.602   5.769   4.751
10043TIP3    H130074   0.544   5.845   4.747
10043TIP3    H230075   0.564   5.706   4.689
10044TIP3   OH230076   6.010   7.424   2.945
10044TIP3    H130077   6.052   7.498   2.987
10044TIP3    H230078   5.937   7.461   2.896
10045TIP3   OH230079   0.595   5.381   4.208
10045TIP3    H130080   0.578   5.471   4.181
10045TIP3    H230081   0.653   5.389   4.284
10046TIP3   OH230082   2.549   0.688   0.755
10046TIP3    H130083   2.509   0.637   0.825
10046TIP3    H230084   2.475   0.726   0.708
10047TIP3   OH230085   3.490   0.716   3.494
10047TIP3    H130086   3.451   0.739   3.578
10047TIP3    H230087   3.518   0.799   3.456
10048TIP3   OH230088   3.044   7.208   5.702
10048TIP3    H130089   3.002   7.125   5.726
10048TIP3    H230090   3.012   7.226   5.614
10049TIP3   OH230091   4.331   3.480   0.974
10049TIP3    H130092   4.244   3.475   1.015
10049TIP3    H230093   4.390   3.502   1.046
10050TIP3   OH230094   0.508   2.702   4.404
10050TIP3    H130095   0.531   2.771   4.341
10050TIP3    H230096   0.580   2.639   4.397
10051TIP3   OH230097   5.577   0.016   6.176
10051TIP3    H130098   5.670  -0.008   6.181
10051TIP3    H230099   5.531  -0.066   6.191
10052TIP3   OH230100   4.418   1.725   1.794
10052TIP3    H130101   4.440   1.727   1.701
10052TIP3    H230102   4.497   1.757   1.837
10053TIP3   OH230103   5.785   6.755   5.144
10053TIP3    H130104   5.822   6.755   5.055
10053TIP3    H230105   5.861   6.768   5.201
10054TIP3   OH230106   4.796   5.951   0.733
10054TIP3    H130107   4.774   6.036   0.695
10054TIP3    H230108   4.887   5.959   0.761
10055TIP3   OH230109   0.796   0.552   2.848
10055TIP3    H130110   0.760   0.609   2.916
10055TIP3    H230111   0.872   0.599   2.815
10056TIP3   OH230112   7.950   6.202   4.476
10056TIP3    H130113   7.862   6.238   4.474
10056TIP3    H230114   7.993   6.239   4.398
10057TIP3   OH230115   5.017   7.156   5.413
10057TIP3    H130116   5.087   7.188   5.469
10057TIP3    H230117   4.966   7.097   5.468
10058TIP3   OH230118   5.744   5.781   1.225
10058TIP3    H130119   5.812   5.838   1.261
10058TIP3    H230120   5.738   5.709   1.288
10059TIP3   OH230121   1.102   0.782   2.353
10059TIP3    H130122   1.037   0.847   2.378
10059TIP3    H230123   1.053   0.700   2.347
10060TIP3   OH230124   0.194   3.032   1.675
10060TIP3    H130125   0.209   3.100   1.609
10060TIP3    H230126   0.125   3.067   1.731
10061TIP3   OH230127   0.849   2.272   6.136
10061TIP3    H130128   0.816   2.205   6.195
10061TIP3    H230129   0.884   2.340   6.194
10062TIP3   OH230130   8.020   2.745   0.708
10062TIP3    H130131   8.109   2.713   0.718
10062TIP3    H230132   7.980   2.686   0.645
10063TIP3   OH230133   7.300   5.575   3.765
10063TIP3    H130134   7.396   5.573   3.773
10063TIP3    H230135   7.283   5.654   3.714
10064TIP3   OH230136   5.602   7.129   0.427
10064TIP3    H130137   5.595   7.208   0.482
10064TIP3    H230138   5.545   7.065   0.470
10065TIP3   OH230139   2.433   7.061   1.430
10065TIP3    H130140   2.425   7.005   1.353
10065TIP3    H230141   2.359   7.037   1.486
10066TIP3   OH230142   2.868   2.970   3.190
10066TIP3    H130143   2.824   2.886   3.189
10066TIP3    H230144   2.797   3.035   3.189
10067TIP3   OH230145   1.048   4.220   6.045
10067TIP3    H130146   0.989   4.260   5.981
10067TIP3    H230147   1.133   4.259   6.028
10068TIP3   OH230148   0.553   4.793   3.633
10068TIP3    H130149   0.560   4.885   3.608
10068TIP3    H230150   0.587   4.745   3.557
10069TIP3   OH230151   4.537   6.749   3.128
10069TIP3    H130152   4.594   6.786   3.061
10069TIP3    H230153   4.581   6.668   3.154
10070TIP3   OH230154   2.092   1.611   2.684
10070TIP3    H130155   2.171   1.570   2.649
10070TIP3    H230156   2.106   1.615   2.778
10071TIP3   OH230157   1.694   3.005   3.305
10071TIP3    H130158   1.736   3.021   3.220
10071TIP3    H230159   1.615   2.956   3.284
10072TIP3   OH230160   6.711   4.440   4.685
10072TIP3    H130161   6.796   4.481   4.664
10072TIP3    H230162   6.681   4.488   4.763
10073TIP3   OH230163   4.256   2.033   1.005
10073TIP3    H130164   4.265   2.123   1.036
10073TIP3    H230165   4.240   2.040   0.911
10074TIP3   OH230166   0.673   3.421   5.709
10074TIP3    H130167   0.684   3.358   5.781
10074TIP3    H230168   0.588   3.463   5.727
10075TIP3   OH230169   7.042   5.462   3.947
10075TIP3    H130170   6.990   5.541   3.959
10075TIP3    H230171   7.130   5.494   3.925
10076TIP3   OH230172   1.536   1.683   2.374
10076TIP3    H130173   1.558   1.693   2.282
10076TIP3    H230174   1.569   1.763   2.416
10077TIP3   OH230175   0.169   3.357   3.116
10077TIP3    H130176   0.220   3.375   3.037
10077TIP3    H230177   0.220   3.398   3.187
10078TIP3   OH230178   1.208   7.777   0.268
10078TIP3    H130179   1.268   7.744   0.336
10078TIP3    H230180   1.145   7.830   0.315
10079TIP3   OH230181   4.195   1.113   4.829
10079TIP3    H130182   4.236   1.026   4.825
10079TIP3    H230183   4.203   1.139   4.920
10080TIP3   OH230184   2.444   7.033   5.032
10080TIP3    H130185   2.408   6.950   5.001
10080TIP3    H230186   2.533   7.035   4.996
10081TIP3   OH230187   3.842   2.588   2.968
10081TIP3    H130188   3.929   2.596   3.007
10081TIP3    H230189   3.844   2.503   2.923
10082TIP3   OH230190   3.151   7.588   2.201
10082TIP3    H130191   3.148   7.565   2.109
10082TIP3    H230192   3.094   7.524   2.244
10083TIP3   OH230193   1.686   0.526   5.732
10083TIP3    H130194   1.638   0.601   5.697
10083TIP3    H230195   1.637   0.450   5.702
10084TIP3   OH230196   4.536   6.516   1.606
10084TIP3    H130197   4.553   6.457   1.533
10084TIP3    H230198   4.446   6.496   1.632
10085TIP3   OH230199   2.202   7.750   6.546
10085TIP3    H130200   2.141   7.680   6.570
10085TIP3    H230201   2.286   7.705   6.533
10086TIP3   OH230202   2.690   1.787   6.155
10086TIP3    H130203   2.613   1.842   6.137
10086TIP3    H230204   2.731   1.827   6.231
10087TIP3   OH230205   5.611   2.353   5.990
10087TIP3    H130206   5.525   2.369   6.030
10087TIP3    H230207   5.627   2.431   5.938
10088TIP3   OH230208   0.649   2.951   5.024
10088TIP3    H130209   0.588   2.990   4.962
10088TIP3    H230210   0.686   3.024   5.072
10089TIP3   OH230211   5.537   5.581   4.912
10089TIP3    H130212   5.445   5.606   4.901
10089TIP3    H230213   5.554   5.594   5.006
10090TIP3   OH230214   0.871   1.162   4.798
10090TIP3    H130215   0.817   1.085   4.815
10090TIP3    H230216   0.815   1.236   4.822
10091TIP3   OH230217   1.094   0.687   1.275
10091TIP3    H130218   1.114   0.692   1.369
10091TIP3    H230219   1.085   0.778   1.248
10092TIP3   OH230220   4.196   3.981   1.669
10092TIP3    H130221   4.269   3.921   1.677
10092TIP3    H230222   4.235   4.068   1.669
10093TIP3   OH230223   3.830   1.860   5.228
10093TIP3    H130224   3.744   1.900   5.222
10093TIP3    H230225   3.827   1.785   5.168
10094TIP3   OH230226   7.246   4.233   3.384
10094TIP3    H130227   7.158   4.238   3.347
10094TIP3    H230228   7.300   4.283   3.323
10095TIP3   OH230229   1.796   4.549   2.077
10095TIP3    H130230   1.731   4.589   2.021
10095TIP3    H230231   1.756   4.467   2.107
10096TIP3   OH230232   1.744   5.371   5.180
10096TIP3    H130233   1.817   5.433   5.190
10096TIP3    H230234   1.684   5.393   5.251
10097TIP3   OH230235   6.497   7.792   3.148
10097TIP3    H130236   6.516   7.836   3.066
10097TIP3    H230237   6.536   7.706   3.139
10098TIP3   OH230238   0.621   1.371   5.428
10098TIP3    H130239   0.584   1.284   5.409
10098TIP3    H230240   0.699   1.352   5.481
10099TIP3   OH230241   6.710   0.148   1.460
10099TIP3    H130242   6.752   0.211   1.519
10099TIP3    H230243   6.657   0.202   1.401
10100TIP3   OH230244   3.381   6.333   4.835
10100TIP3    H130245   3.415   6.245   4.818
10100TIP3    H230246   3.299   6.317   4.883
10101TIP3   OH230247   5.347   5.529   1.892
10101TIP3    H130248   5.306   5.444   1.878
10101TIP3    H230249   5.400   5.518   1.971
10102TIP3   OH230250   3.140   6.456   4.390
10102TIP3    H130251   3.181   6.472   4.475
10102TIP3    H230252   3.207   6.412   4.338
10103TIP3   OH230253   7.632   4.129   3.129
10103TIP3    H130254   7.576   4.200   3.098
10103TIP3    H230255   7.682   4.168   3.201
10104TIP3   OH230256   4.511   5.656   3.878
10104TIP3    H130257   4.438   5.670   3.819
10104TIP3    H230258   4.485   5.580   3.930
10105TIP3   OH230259   3.348   6.124   1.286
10105TIP3    H130260   3.329   6.031   1.300
10105TIP3    H230261   3.263   6.165   1.276
10106TIP3   OH230262   0.389   6.226   0.828
10106TIP3    H130263   0.371   6.274   0.909
10106TIP3    H230264   0.439   6.288   0.774
10107TIP3   OH230265   7.535   2.603   6.018
10107TIP3    H130266   7.573   2.523   5.981
10107TIP3    H230267   7.448   2.609   5.978
10108TIP3   OH230268   4.624   6.638   4.819
10108TIP3    H130269   4.710   6.608   4.849
10108TIP3    H230270   4.574   6.558   4.805
10109TIP3   OH230271   2.137   5.553   5.676
10109TIP3    H130272   2.173   5.533   5.590
10109TIP3    H230273   2.081   5.629   5.662
10110TIP3   OH230274   7.726   4.822   6.713
10110TIP3    H130275   7.653   4.761   6.702
10110TIP3    H230276   7.688   4.895   6.763
10111TIP3   OH230277   8.296   0.645   1.259
10111TIP3    H130278   8.203   0.645   1.237
10111TIP3    H230279   8.317   0.552   1.268
10112TIP3   OH230280   6.615   4.299   4.433
10112TIP3    H130281   6.647   4.343   4.354
10112TIP3    H230282   6.625   4.364   4.502
10113TIP3   OH230283   1.390   1.996   5.908
10113TIP3    H130284   1.382   1.924   5.845
10113TIP3    H230285   1.372   2.075   5.857
10114TIP3   OH230286   0.798   5.931   6.585
10114TIP3    H130287   0.889   5.956   6.599
10114TIP3    H230288   0.750   5.976   6.655
10115TIP3   OH230289   6.221   4.881   5.259
10115TIP3    H130290   6.141   4.856   5.214
10115TIP3    H230291   6.207   4.853   5.350
10116TIP3   OH230292   2.323   6.177   3.821
10116TIP3    H130293   2.411   6.215   3.813
10116TIP3    H230294   2.300   6.152   3.731
10117TIP3   OH230295   1.710   2.031   1.626
10117TIP3    H130296   1.733   2.072   1.709
10117TIP3    H230297   1.729   2.097   1.560
10118TIP3   OH230298   4.108   6.393   3.759
10118TIP3    H130299   4.134   6.479   3.727
10118TIP3    H230300   4.190   6.349   3.779
10119TIP3   OH230301   3.475   3.488   0.327
10119TIP3    H130302   3.569   3.476   0.338
10119TIP3    H230303   3.464   3.511   0.235
10120TIP3   OH230304   3.594   0.415   5.915
10120TIP3    H130305   3.624   0.326   5.929
10120TIP3    H230306   3.560   0.443   6.001
10121TIP3   OH230307   6.503   6.414   0.871
10121TIP3    H130308   6.592   6.388   0.892
10121TIP3    H230309   6.513   6.485   0.808
10122TIP3   OH230310   6.914   6.519   0.827
10122TIP3    H130311   6.915   6.563   0.912
10122TIP3    H230312   6.850   6.569   0.776
10123TIP3   OH230313   2.232   1.450   6.485
10123TIP3    H130314   2.247   1.440   6.391
10123TIP3    H230315   2.216   1.544   6.497
10124TIP3   OH230316   7.918   4.601   5.369
10124TIP3    H130317   7.908   4.681   5.318
10124TIP3    H230318   7.857   4.612   5.442
10125TIP3   OH230319   0.375   2.223   3.120
10125TIP3    H130320   0.379   2.290   3.188
10125TIP3    H230321   0.464   2.191   3.112
10126TIP3   OH230322   0.282   6.901   2.158
10126TIP3    H130323   0.376   6.900   2.172
10126TIP3    H230324   0.269   6.860   2.072
10127TIP3   OH230325   5.106   6.789   6.097
10127TIP3    H130326   5.191   6.746   6.089
10127TIP3    H230327   5.094   6.801   6.191
10128TIP3   OH230328   6.095   0.015   3.456
10128TIP3    H130329   6.174  -0.018   3.413
10128TIP3    H230330   6.122   0.095   3.500
10129TIP3   OH230331   6.649   5.858   2.671
10129TIP3    H130332   6.744   5.849   2.685
10129TIP3    H230333   6.641   5.913   2.593
10130TIP3   OH230334   4.411   3.156   5.763
10130TIP3    H130335   4.435   3.096   5.693
10130TIP3    H230336   4.339   3.112   5.809
10131TIP3   OH230337   1.902   0.969   2.606
10131TIP3    H130338   1.903   0.898   2.542
10131TIP3    H230339   1.831   1.027   2.576
10132TIP3   OH230340   5.109   3.138   0.690
10132TIP3    H130341   5.155   3.060   0.720
10132TIP3    H230342   5.058   3.109   0.614
10133TIP3   OH230343   8.298   4.759   3.851
10133TIP3    H130344   8.205   4.763   3.874
10133TIP3    H230345   8.321   4.849   3.827
10134TIP3   OH230346   2.066   0.773   1.308
10134TIP3    H130347   2.058   0.759   1.214
10134TIP3    H230348   2.069   0.869   1.318
10135TIP3   OH230349   7.335   5.515   6.484
10135TIP3    H130350   7.397   5.579   6.519
10135TIP3    H230351   7.255   5.528   6.536
10136TIP3   OH230352   1.213   2.704   6.612
10136TIP3    H130353   1.224   2.629   6.670
10136TIP3    H230354   1.118   2.713   6.601
10137TIP3   OH230355   1.266   0.893   0.902
10137TIP3    H130356   1.326   0.963   0.923
10137TIP3    H230357   1.287   0.823   0.964
10138TIP3   OH230358   3.406   2.461   2.945
10138TIP3    H130359   3.341   2.465   3.015
10138TIP3    H230360   3.365   2.502   2.870
10139TIP3   OH230361   3.324   0.595   4.520
10139TIP3    H130362   3.258   0.654   4.485
10139TIP3    H230363   3.286   0.561   4.601
10140TIP3   OH230364   4.084   2.382   0.288
10140TIP3    H130365   4.153   2.324   0.320
10140TIP3    H230366   4.086   2.372   0.193
10141TIP3   OH230367   2.676   7.220   1.481
10141TIP3    H130368   2.587   7.184   1.483
10141TIP3    H230369   2.705   7.209   1.391
10142TIP3   OH230370   3.565   7.165   1.012
10142TIP3    H130371   3.516   7.126   1.084
10142TIP3    H230372   3.619   7.232   1.053
10143TIP3   OH230373   6.963   2.161   0.389
10143TIP3    H130374   6.953   2.253   0.412
10143TIP3    H230375   7.036   2.159   0.327
10144TIP3   OH230376   4.299   4.684   0.322
10144TIP3    H130377   4.392   4.667   0.338
10144TIP3    H230378   4.296   4.723   0.234
10145TIP3   OH230379   4.026   0.778   5.040
10145TIP3    H130380   3.969   0.740   4.973
10145TIP3    H230381   3.989   0.865   5.056
10146TIP3   OH230382   5.207   5.643   4.663
10146TIP3    H130383   5.239   5.730   4.638
10146TIP3    H230384   5.115   5.656   4.684
10147TIP3   OH230385   1.026   4.896   5.613
10147TIP3    H130386   1.053   4.892   5.522
10147TIP3    H230387   1.047   4.810   5.649
10148TIP3   OH230388   7.929   1.808   6.525
10148TIP3    H130389   7.909   1.771   6.610
10148TIP3    H230390   7.897   1.743   6.462
10149TIP3   OH230391   1.294   7.770   1.651
10149TIP3    H130392   1.293   7.832   1.724
10149TIP3    H230393   1.385   7.770   1.621
10150TIP3   OH230394   1.180   4.286   1.938
10150TIP3    H130395   1.218   4.258   2.021
10150TIP3    H230396   1.198   4.213   1.878
10151TIP3   OH230397   0.496   2.479   4.613
10151TIP3    H130398   0.524   2.420   4.683
10151TIP3    H230399   0.577   2.509   4.573
10152TIP3   OH230400   5.509   5.921   3.602
10152TIP3    H130401   5.517   5.989   3.535
10152TIP3    H230402   5.416   5.899   3.602
10153TIP3   OH230403   0.888   5.259   6.699
10153TIP3    H130404   0.901   5.344   6.656
10153TIP3    H230405   0.972   5.240   6.740
10154TIP3   OH230406   2.442   1.582   6.043
10154TIP3    H130407   2.468   1.538   5.962
10154TIP3    H230408   2.367   1.532   6.074
10155TIP3   OH230409   6.244   3.315   5.471
10155TIP3    H130410   6.185   3.386   5.497
10155TIP3    H230411   6.186   3.246   5.439
10156TIP3   OH230412   3.575   4.951   3.315
10156TIP3    H130413   3.517   4.876   3.306
10156TIP3    H230414   3.516   5.026   3.325
10157TIP3   OH230415   6.250   1.329   0.751
10157TIP3    H130416   6.210   1.399   0.698
10157TIP3    H230417   6.254   1.365   0.839
10158TIP3   OH230418   2.479   7.434   0.170
10158TIP3    H130419   2.401   7.455   0.220
10158TIP3    H230420   2.467   7.343   0.143
10159TIP3   OH230421   6.046   1.596   1.181
10159TIP3    H130422   6.062   1.667   1.242
10159TIP3    H230423   5.968   1.552   1.215
10160TIP3   OH230424   7.369   5.389   0.118
10160TIP3    H130425   7.404   5.454   0.179
10160TIP3    H230426   7.415   5.406   0.035
10161TIP3   OH230427   2.114   3.815   5.948
10161TIP3    H130428   2.193   3.782   5.991
10161TIP3    H230429   2.049   3.746   5.962
10162TIP3   OH230430   4.797   0.727   1.771
10162TIP3    H130431   4.742   0.778   1.711
10162TIP3    H230432   4.740   0.706   1.844
10163TIP3   OH230433   3.835   7.705   5.532
10163TIP3    H130434   3.785   7.777   5.494
10163TIP3    H230435   3.776   7.630   5.528
10164TIP3   OH230436   7.413   2.690   2.231
10164TIP3    H130437   7.355   2.713   2.158
10164TIP3    H230438   7.480   2.633   2.191
10165TIP3   OH230439   1.906   4.086   3.013
10165TIP3    H130440   1.826   4.033   3.014
10165TIP3    H230441   1.934   4.088   3.105
10166TIP3   OH230442   7.306   7.104   4.724
10166TIP3    H130443   7.261   7.185   4.746
10166TIP3    H230444   7.359   7.125   4.647
10167TIP3   OH230445   4.413   3.748   1.399
10167TIP3    H130446   4.483   3.686   1.378
10167TIP3    H230447   4.332   3.700   1.378
10168TIP3   OH230448   4.178   1.052   2.553
10168TIP3    H130449   4.084   1.045   2.534
10168TIP3    H230450   4.183   1.117   2.623
10169TIP3   OH230451   1.870   0.001   6.483
10169TIP3    H130452   1.797   0.049   6.521
10169TIP3    H230453   1.850  -0.003   6.389
10170TIP3   OH230454   2.069   0.928   6.172
10170TIP3    H130455   1.993   0.979   6.198
10170TIP3    H230456   2.138   0.950   6.235
10171TIP3   OH230457   1.265   3.678   1.170
10171TIP3    H130458   1.170   3.671   1.172
10171TIP3    H230459   1.282   3.755   1.116
10172TIP3   OH230460   4.002   5.855   2.828
10172TIP3    H130461   3.907   5.851   2.821
10172TIP3    H230462   4.034   5.809   2.750
10173TIP3   OH230463   0.477   2.003   0.567
10173TIP3    H130464   0.459   2.040   0.481
10173TIP3    H230465   0.573   2.005   0.574
10174TIP3   OH230466   1.529   6.646   5.195
10174TIP3    H130467   1.601   6.672   5.252
10174TIP3    H230468   1.489   6.729   5.167
10175TIP3   OH230469   5.400   5.351   2.782
10175TIP3    H130470   5.376   5.413   2.713
10175TIP3    H230471   5.336   5.365   2.851
10176TIP3   OH230472   1.495   3.486   1.282
10176TIP3    H130473   1.453   3.402   1.269
10176TIP3    H230474   1.516   3.489   1.375
10177TIP3   OH230475   7.955   2.035   3.494
10177TIP3    H130476   7.947   2.130   3.484
10177TIP3    H230477   7.876   2.008   3.541
10178TIP3   OH230478   7.457   3.864   5.670
10178TIP3    H130479   7.464   3.840   5.578
10178TIP3    H230480   7.435   3.782   5.714
10179TIP3   OH230481   6.106   5.113   5.042
10179TIP3    H130482   6.137   5.030   5.006
10179TIP3    H230483   6.034   5.088   5.100
10180TIP3   OH230484   3.709   3.692   4.620
10180TIP3    H130485   3.669   3.612   4.654
10180TIP3    H230486   3.781   3.660   4.565
10181TIP3   OH230487   4.879   1.771   1.427
10181TIP3    H130488   4.905   1.759   1.519
10181TIP3    H230489   4.881   1.682   1.390
10182TIP3   OH230490   7.158   0.157   2.831
10182TIP3    H130491   7.164   0.248   2.802
10182TIP3    H230492   7.145   0.164   2.926
10183TIP3   OH230493   1.792   3.647   1.607
10183TIP3    H130494   1.805   3.640   1.702
10183TIP3    H230495   1.880   3.650   1.571
10184TIP3   OH230496   4.777   7.480   2.243
10184TIP3    H130497   4.708   7.497   2.179
10184TIP3    H230498   4.738   7.506   2.327
10185TIP3   OH230499   7.345   2.029   2.358
10185TIP3    H130500   7.266   2.046   2.410
10185TIP3    H230501   7.340   2.093   2.287
10186TIP3   OH230502   3.479   2.707   1.151
10186TIP3    H130503   3.428   2.773   1.105
10186TIP3    H230504   3.433   2.693   1.233
10187TIP3   OH230505   8.233   0.282   4.029
10187TIP3    H130506   8.162   0.314   4.085
10187TIP3    H230507   8.190   0.261   3.946
10188TIP3   OH230508   6.378   4.749   2.431
10188TIP3    H130509   6.461   4.796   2.436
10188TIP3    H230510   6.320   4.797   2.491
10189TIP3   OH230511   5.878   3.355   2.155
10189TIP3    H130512   5.901   3.401   2.074
10189TIP3    H230513   5.870   3.263   2.128
10190TIP3   OH230514   1.006   2.772   6.359
10190TIP3    H130515   0.955   2.851   6.344
10190TIP3    H230516   0.978   2.741   6.445
10191TIP3   OH230517   2.605   2.108   3.760
10191TIP3    H130518   2.655   2.140   3.685
10191TIP3    H230519   2.672   2.084   3.825
10192TIP3   OH230520   4.390   1.815   4.070
10192TIP3    H130521   4.322   1.748   4.061
10192TIP3    H230522   4.445   1.804   3.992
10193TIP3   OH230523   2.200   0.879   0.380
10193TIP3    H130524   2.164   0.937   0.312
10193TIP3    H230525   2.134   0.879   0.449
10194TIP3   OH230526   3.017   5.696   1.399
10194TIP3    H130527   3.020   5.651   1.483
10194TIP3    H230528   3.090   5.661   1.349
10195TIP3   OH230529   5.867   0.354   4.851
10195TIP3    H130530   5.780   0.353   4.890
10195TIP3    H230531   5.913   0.282   4.893
10196TIP3   OH230532   1.161   5.752   2.696
10196TIP3    H130533   1.197   5.814   2.633
10196TIP3    H230534   1.122   5.806   2.764
10197TIP3   OH230535   5.867   4.145   6.278
10197TIP3    H130536   5.910   4.229   6.292
10197TIP3    H230537   5.856   4.108   6.366
10198TIP3   OH230538   3.396   3.114   6.664
10198TIP3    H130539   3.408   3.032   6.712
10198TIP3    H230540   3.390   3.181   6.732
10199TIP3   OH230541   1.573   3.025   2.341
10199TIP3    H130542   1.559   3.078   2.263
10199TIP3    H230543   1.594   2.938   2.308
10200TIP3   OH230544   8.267   2.999   6.766
10200TIP3    H130545   8.319   3.059   6.712
10200TIP3    H230546   8.177   3.010   6.734
10201TIP3   OH230547   8.081   3.120   3.668
10201TIP3    H130548   8.065   3.028   3.690
10201TIP3    H230549   8.159   3.143   3.718
10202TIP3   OH230550   3.485   5.566   1.481
10202TIP3    H130551   3.410   5.619   1.508
10202TIP3    H230552   3.448   5.479   1.465
10203TIP3   OH230553   7.216   3.183   5.526
10203TIP3    H130554   7.159   3.258   5.542
10203TIP3    H230555   7.163   3.107   5.552
10204TIP3   OH230556   2.814   0.782   6.371
10204TIP3    H130557   2.880   0.831   6.322
10204TIP3    H230558   2.763   0.848   6.417
10205TIP3   OH230559   0.028   7.585   0.980
10205TIP3    H130560   0.000   7.504   1.022
10205TIP3    H230561   0.124   7.583   0.987
10206TIP3   OH230562   5.796   6.709   4.506
10206TIP3    H130563   5.802   6.803   4.520
10206TIP3    H230564   5.702   6.691   4.506
10207TIP3   OH230565   2.403   1.811   5.883
10207TIP3    H130566   2.393   1.725   5.925
10207TIP3    H230567   2.328   1.817   5.824
10208TIP3   OH230568   2.234   7.497   2.268
10208TIP3    H130569   2.236   7.546   2.185
10208TIP3    H230570   2.246   7.406   2.242
10209TIP3   OH230571   1.492   6.402   6.381
10209TIP3    H130572   1.518   6.440   6.296
10209TIP3    H230573   1.418   6.456   6.409
10210TIP3   OH230574   5.312   1.727   0.534
10210TIP3    H130575   5.279   1.650   0.581
10210TIP3    H230576   5.255   1.799   0.562
10211TIP3   OH230577   3.677   0.316   3.964
10211TIP3    H130578   3.617   0.252   4.000
10211TIP3    H230579   3.636   0.401   3.982
10212TIP3   OH230580   1.378   6.775   4.599
10212TIP3    H130581   1.434   6.711   4.555
10212TIP3    H230582   1.436   6.848   4.620
10213TIP3   OH230583   2.318   3.855   3.474
10213TIP3    H130584   2.296   3.899   3.557
10213TIP3    H230585   2.283   3.913   3.406
10214TIP3   OH230586   4.123   0.323   4.627
10214TIP3    H130587   4.074   0.376   4.690
10214TIP3    H230588   4.056   0.278   4.576
10215TIP3   OH230589   7.741   2.098   0.068
10215TIP3    H130590   7.809   2.031   0.082
10215TIP3    H230591   7.685   2.092   0.146
10216TIP3   OH230592   7.520   0.506   3.852
10216TIP3    H130593   7.505   0.506   3.947
10216TIP3    H230594   7.506   0.597   3.826
10217TIP3   OH230595   6.961   2.701   5.656
10217TIP3    H130596   7.014   2.644   5.600
10217TIP3    H230597   6.872   2.666   5.649
10218TIP3   OH230598   2.487   2.531   1.850
10218TIP3    H130599   2.397   2.509   1.826
10218TIP3    H230600   2.527   2.562   1.769
10219TIP3   OH230601   0.415   3.188   4.613
10219TIP3    H130602   0.336   3.212   4.565
10219TIP3    H230603   0.439   3.101   4.579
10220TIP3   OH230604   4.927   6.191   1.021
10220TIP3    H130605   4.861   6.199   0.952
10220TIP3    H230606   4.883   6.223   1.100
10221TIP3   OH230607   0.432   3.971   4.535
10221TIP3    H130608   0.520   3.935   4.520
10221TIP3    H230609   0.434   4.056   4.492
10222TIP3   OH230610   5.369   7.522   0.578
10222TIP3    H130611   5.351   7.587   0.646
10222TIP3    H230612   5.287   7.515   0.529
10223TIP3   OH230613   4.588   3.692   2.614
10223TIP3    H130614   4.531   3.697   2.691
10223TIP3    H230615   4.528   3.690   2.540
10224TIP3   OH230616   5.573   0.387   0.795
10224TIP3    H130617   5.574   0.292   0.812
10224TIP3    H230618   5.607   0.395   0.706
10225TIP3   OH230619   2.232   0.573   4.705
10225TIP3    H130620   2.294   0.588   4.777
10225TIP3    H230621   2.210   0.660   4.673
10226TIP3   OH230622   3.594   0.908   0.228
10226TIP3    H130623   3.624   0.999   0.233
10226TIP3    H230624   3.502   0.912   0.252
10227TIP3   OH230625   2.742   1.819   1.389
10227TIP3    H130626   2.673   1.815   1.322
10227TIP3    H230627   2.821   1.790   1.344
10228TIP3   OH230628   7.128   2.871   3.434
10228TIP3    H130629   7.221   2.873   3.455
10228TIP3    H230630   7.085   2.846   3.516
10229TIP3   OH230631   4.788   0.345   3.745
10229TIP3    H130632   4.853   0.284   3.780
10229TIP3    H230633   4.704   0.302   3.761
10230TIP3   OH230634   2.825   1.838   4.184
10230TIP3    H130635   2.798   1.790   4.262
10230TIP3    H230636   2.781   1.794   4.112
10231TIP3   OH230637   5.093   4.040   5.230
10231TIP3    H130638   5.185   4.065   5.226
10231TIP3    H230639   5.074   4.003   5.144
10232TIP3   OH230640   6.322   5.192   5.777
10232TIP3    H130641   6.237   5.198   5.819
10232TIP3    H230642   6.345   5.099   5.781
10233TIP3   OH230643   0.730   6.242   1.554
10233TIP3    H130644   0.701   6.210   1.468
10233TIP3    H230645   0.701   6.333   1.556
10234TIP3   OH230646   3.928   1.484   0.681
10234TIP3    H130647   3.961   1.499   0.770
10234TIP3    H230648   3.983   1.540   0.626
10235TIP3   OH230649   0.596   2.326   0.491
10235TIP3    H130650   0.502   2.318   0.504
10235TIP3    H230651   0.620   2.248   0.442
10236TIP3   OH230652   6.335   6.671   2.732
10236TIP3    H130653   6.260   6.700   2.782
10236TIP3    H230654   6.333   6.723   2.652
10237TIP3   OH230655   5.435   1.256   1.796
10237TIP3    H130656   5.451   1.166   1.769
10237TIP3    H230657   5.378   1.293   1.729
10238TIP3   OH230658   4.820   6.200   3.476
10238TIP3    H130659   4.863   6.160   3.552
10238TIP3    H230660   4.819   6.131   3.410
10239TIP3   OH230661   6.209   2.175   2.553
10239TIP3    H130662   6.188   2.263   2.521
10239TIP3    H230663   6.304   2.176   2.567
10240TIP3   OH230664   5.792   6.582   5.796
10240TIP3    H130665   5.828   6.632   5.722
10240TIP3    H230666   5.841   6.500   5.796
10241TIP3   OH230667   1.674   4.674   5.083
10241TIP3    H130668   1.709   4.713   5.003
10241TIP3    H230669   1.580   4.693   5.080
10242TIP3   OH230670   5.522   1.453   0.988
10242TIP3    H130671   5.562   1.394   0.923
10242TIP3    H230672   5.453   1.402   1.028
10243TIP3   OH230673   1.043   2.125   4.442
10243TIP3    H130674   0.964   2.094   4.399
10243TIP3    H230675   1.113   2.113   4.378
10244TIP3   OH230676   7.009   6.730   0.084
10244TIP3    H130677   7.103   6.747   0.097
10244TIP3    H230678   7.006   6.679   0.003
10245TIP3   OH230679   3.572   7.663   5.950
10245TIP3    H130680   3.568   7.711   6.033
10245TIP3    H230681   3.481   7.641   5.931
10246TIP3   OH230682   7.735   0.613   3.585
10246TIP3    H130683   7.777   0.673   3.647
10246TIP3    H230684   7.796   0.539   3.579
10247TIP3   OH230685   2.578   1.610   3.773
10247TIP3    H130686   2.509   1.579   3.715
10247TIP3    H230687   2.642   1.650   3.714
10248TIP3   OH230688   0.375   5.340   3.546
10248TIP3    H130689   0.363   5.423   3.501
10248TIP3    H230690   0.468   5.319   3.536
10249TIP3   OH230691   3.283   2.525   6.447
10249TIP3    H130692   3.195   2.487   6.445
10249TIP3    H230693   3.273   2.610   6.403
10250TIP3   OH230694   2.254   1.470   5.434
10250TIP3    H130695   2.243   1.449   5.527
10250TIP3    H230696   2.230   1.390   5.389
10251TIP3   OH230697   1.128   2.815   2.727
10251TIP3    H130698   1.090   2.872   2.660
10251TIP3    H230699   1.175   2.748   2.677
10252TIP3   OH230700   2.989   7.558   4.373
10252TIP3    H130701   3.020   7.486   4.319
10252TIP3    H230702   2.948   7.619   4.312
10253TIP3   OH230703   3.774   4.148   2.399
10253TIP3    H130704   3.819   4.082   2.346
10253TIP3    H230705   3.834   4.223   2.399
10254TIP3   OH230706   3.231   1.240   1.899
10254TIP3    H130707   3.254   1.332   1.916
10254TIP3    H230708   3.182   1.213   1.977
10255TIP3   OH230709   3.606   2.945   5.125
10255TIP3    H130710   3.678   2.997   5.161
10255TIP3    H230711   3.604   2.867   5.180
10256TIP3   OH230712   0.632   4.217   6.146
10256TIP3    H130713   0.717   4.249   6.177
10256TIP3    H230714   0.586   4.192   6.226
10257TIP3   OH230715   4.247   5.101   5.873
10257TIP3    H130716   4.178   5.046   5.909
10257TIP3    H230717   4.215   5.127   5.786
10258TIP3   OH230718   7.613   6.530   6.034
10258TIP3    H130719   7.667   6.606   6.057
10258TIP3    H230720   7.531   6.568   6.003
10259TIP3   OH230721   7.304   3.787   2.249
10259TIP3    H130722   7.250   3.720   2.207
10259TIP3    H230723   7.282   3.781   2.342
10260TIP3   OH230724   6.014   7.084   2.673
10260TIP3    H130725   5.951   7.069   2.603
10260TIP3    H230726   6.096   7.105   2.628
10261TIP3   OH230727   3.265   5.228   5.827
10261TIP3    H130728   3.238   5.314   5.858
10261TIP3    H230729   3.187   5.174   5.835
10262TIP3   OH230730   5.110   4.350   3.717
10262TIP3    H130731   5.184   4.301   3.681
10262TIP3    H230732   5.036   4.324   3.662
10263TIP3   OH230733   7.789   3.303   4.866
10263TIP3    H130734   7.862   3.356   4.835
10263TIP3    H230735   7.816   3.213   4.850
10264TIP3   OH230736   3.729   5.392   0.752
10264TIP3    H130737   3.792   5.348   0.809
10264TIP3    H230738   3.748   5.485   0.763
10265TIP3   OH230739   6.406   3.053   2.281
10265TIP3    H130740   6.488   3.097   2.303
10265TIP3    H230741   6.344   3.125   2.267
10266TIP3   OH230742   6.097   5.839   2.200
10266TIP3    H130743   6.068   5.794   2.280
10266TIP3    H230744   6.018   5.846   2.147
10267TIP3   OH230745   5.445   3.386   2.841
10267TIP3    H130746   5.508   3.383   2.913
10267TIP3    H230747   5.413   3.476   2.841
10268TIP3   OH230748   6.775   3.275   5.435
10268TIP3    H130749   6.736   3.298   5.519
10268TIP3    H230750   6.704   3.282   5.372
10269TIP3   OH230751   5.263   6.450   2.079
10269TIP3    H130752   5.218   6.476   2.159
10269TIP3    H230753   5.293   6.532   2.039
10270TIP3   OH230754   6.468   2.171   5.500
10270TIP3    H130755   6.442   2.190   5.410
10270TIP3    H230756   6.422   2.089   5.521
10271TIP3   OH230757   7.117   4.799   1.288
10271TIP3    H130758   7.065   4.793   1.368
10271TIP3    H230759   7.053   4.813   1.219
10272TIP3   OH230760   0.858   3.682   4.054
10272TIP3    H130761   0.782   3.737   4.039
10272TIP3    H230762   0.889   3.659   3.966
10273TIP3   OH230763   6.057   2.218   3.814
10273TIP3    H130764   5.985   2.210   3.751
10273TIP3    H230765   6.014   2.213   3.900
10274TIP3   OH230766   6.405   2.117   0.701
10274TIP3    H130767   6.326   2.143   0.653
10274TIP3    H230768   6.465   2.190   0.687
10275TIP3   OH230769   3.037   7.096   2.994
10275TIP3    H130770   3.057   7.016   3.042
10275TIP3    H230771   3.060   7.076   2.903
10276TIP3   OH230772   3.941   6.524   5.660
10276TIP3    H130773   3.886   6.602   5.656
10276TIP3    H230774   3.977   6.524   5.748
10277TIP3   OH230775   6.455   5.954   2.008
10277TIP3    H130776   6.509   5.949   1.929
10277TIP3    H230777   6.411   6.039   2.000
10278TIP3   OH230778   5.094   1.322   4.885
10278TIP3    H130779   5.066   1.303   4.796
10278TIP3    H230780   5.015   1.312   4.938
10279TIP3   OH230781   7.820   6.783   4.220
10279TIP3    H130782   7.731   6.796   4.252
10279TIP3    H230783   7.811   6.717   4.152
10280TIP3   OH230784   2.891   2.026   1.531
10280TIP3    H130785   2.875   2.000   1.622
10280TIP3    H230786   2.840   1.964   1.479
10281TIP3   OH230787   7.227   6.795   0.464
10281TIP3    H130788   7.177   6.787   0.546
10281TIP3    H230789   7.274   6.878   0.473
10282TIP3   OH230790   8.048   0.756   1.345
10282TIP3    H130791   8.028   0.795   1.430
10282TIP3    H230792   7.966   0.760   1.296
10283TIP3   OH230793   8.201   6.652   2.700
10283TIP3    H130794   8.283   6.652   2.748
10283TIP3    H230795   8.142   6.597   2.752
10284TIP3   OH230796   4.540   3.879   1.953
10284TIP3    H130797   4.633   3.887   1.975
10284TIP3    H230798   4.524   3.949   1.891
10285TIP3   OH230799   5.740   7.610   2.617
10285TIP3    H130800   5.773   7.672   2.682
10285TIP3    H230801   5.798   7.622   2.541
10286TIP3   OH230802   0.184   1.812   2.045
10286TIP3    H130803   0.095   1.776   2.038
10286TIP3    H230804   0.241   1.737   2.026
10287TIP3   OH230805   6.378   6.400   1.616
10287TIP3    H130806   6.399   6.387   1.524
10287TIP3    H230807   6.282   6.401   1.619
10288TIP3   OH230808   0.165   7.051   2.485
10288TIP3    H130809   0.251   7.009   2.477
10288TIP3    H230810   0.185   7.135   2.527
10289TIP3   OH230811   4.747   3.059   5.998
10289TIP3    H130812   4.810   3.083   5.929
10289TIP3    H230813   4.703   2.982   5.964
10290TIP3   OH230814   3.565   6.597   0.482
10290TIP3    H130815   3.653   6.628   0.506
10290TIP3    H230816   3.575   6.503   0.471
10291TIP3   OH230817   4.012   7.293   3.378
10291TIP3    H130818   4.021   7.339   3.461
10291TIP3    H230819   4.102   7.276   3.349
10292TIP3   OH230820   5.247   5.329   3.745
10292TIP3    H130821   5.284   5.355   3.829
10292TIP3    H230822   5.262   5.234   3.740
10293TIP3   OH230823   2.840   6.207   3.553
10293TIP3    H130824   2.930   6.176   3.545
10293TIP3    H230825   2.786   6.130   3.534
10294TIP3   OH230826   6.606   0.416   0.673
10294TIP3    H130827   6.561   0.359   0.736
10294TIP3    H230828   6.660   0.474   0.727
10295TIP3   OH230829   4.002   1.827   4.850
10295TIP3    H130830   3.922   1.801   4.805
10295TIP3    H230831   3.979   1.909   4.894
10296TIP3   OH230832   2.551   6.553   0.797
10296TIP3    H130833   2.624   6.614   0.787
10296TIP3    H230834   2.566   6.511   0.881
10297TIP3   OH230835   0.539   6.770   0.621
10297TIP3    H130836   0.471   6.719   0.577
10297TIP3    H230837   0.510   6.861   0.612
10298TIP3   OH230838   6.832   2.453   2.010
10298TIP3    H130839   6.798   2.529   2.057
10298TIP3    H230840   6.824   2.381   2.072
10299TIP3   OH230841   5.195   1.161   0.891
10299TIP3    H130842   5.260   1.121   0.950
10299TIP3    H230843   5.215   1.255   0.894
10300TIP3   OH230844   3.208   5.894   0.906
10300TIP3    H130845   3.147   5.859   0.970
10300TIP3    H230846   3.198   5.837   0.829
10301TIP3   OH230847   1.912   3.731   5.291
10301TIP3    H130848   1.913   3.647   5.245
10301TIP3    H230849   1.831   3.774   5.261
10302TIP3   OH230850   2.791   3.489   6.270
10302TIP3    H130851   2.740   3.530   6.200
10302TIP3    H230852   2.787   3.552   6.342
10303TIP3   OH230853   8.010   1.394   3.147
10303TIP3    H130854   8.016   1.489   3.143
10303TIP3    H230855   7.980   1.367   3.061
10304TIP3   OH230856   3.126   4.772   2.394
10304TIP3    H130857   3.196   4.730   2.445
10304TIP3    H230858   3.166   4.789   2.309
10305TIP3   OH230859   7.538   0.044   3.801
10305TIP3    H130860   7.594   0.102   3.749
10305TIP3    H230861   7.494  -0.011   3.737
10306TIP3   OH230862   1.861   1.571   0.991
10306TIP3    H130863   1.827   1.483   1.005
10306TIP3    H230864   1.926   1.582   1.060
10307TIP3   OH230865   5.264   0.335   5.379
10307TIP3    H130866   5.339   0.377   5.337
10307TIP3    H230867   5.297   0.251   5.411
10308TIP3   OH230868  -0.042   5.560   5.340
10308TIP3    H130869   0.027   5.516   5.291
10308TIP3    H230870   0.004   5.622   5.397
10309TIP3   OH230871   5.240   0.608   0.088
10309TIP3    H130872   5.253   0.658   0.168
10309TIP3    H230873   5.174   0.543   0.111
10310TIP3   OH230874   5.589   3.851   1.246
10310TIP3    H130875   5.578   3.919   1.180
10310TIP3    H230876   5.680   3.860   1.274
10311TIP3   OH230877   1.232   7.768   5.373
10311TIP3    H130878   1.197   7.686   5.407
10311TIP3    H230879   1.326   7.763   5.387
10312TIP3   OH230880   2.158   7.750   3.672
10312TIP3    H130881   2.193   7.828   3.629
10312TIP3    H230882   2.191   7.677   3.618
10313TIP3   OH230883   1.277   2.297   3.839
10313TIP3    H130884   1.321   2.373   3.800
10313TIP3    H230885   1.321   2.221   3.800
10314TIP3   OH230886   0.108   3.678   2.828
10314TIP3    H130887   0.074   3.592   2.801
10314TIP3    H230888   0.120   3.725   2.746
10315TIP3   OH230889   7.159   4.756   0.691
10315TIP3    H130890   7.171   4.661   0.695
10315TIP3    H230891   7.209   4.783   0.614
10316TIP3   OH230892   1.626   0.593   2.972
10316TIP3    H130893   1.587   0.674   2.937
10316TIP3    H230894   1.601   0.593   3.065
10317TIP3   OH230895   1.942   5.260   0.311
10317TIP3    H130896   1.927   5.169   0.286
10317TIP3    H230897   1.854   5.297   0.319
10318TIP3   OH230898   1.017   4.054   0.105
10318TIP3    H130899   1.039   4.010   0.187
10318TIP3    H230900   1.072   4.012   0.039
10319TIP3   OH230901   5.184   2.785   0.217
10319TIP3    H130902   5.170   2.878   0.200
10319TIP3    H230903   5.096   2.747   0.216
10320TIP3   OH230904   3.558   0.762   4.475
10320TIP3    H130905   3.573   0.764   4.381
10320TIP3    H230906   3.483   0.704   4.487
10321TIP3   OH230907   7.921   0.260   1.799
10321TIP3    H130908   7.889   0.174   1.827
10321TIP3    H230909   7.979   0.241   1.726
10322TIP3   OH230910   6.433   4.319   1.979
10322TIP3    H130911   6.358   4.337   1.922
10322TIP3    H230912   6.396   4.271   2.053
10323TIP3   OH230913   3.593   1.484   3.622
10323TIP3    H130914   3.647   1.410   3.649
10323TIP3    H230915   3.649   1.561   3.634
10324TIP3   OH230916   6.431   7.681   4.660
10324TIP3    H130917   6.421   7.678   4.755
10324TIP3    H230918   6.432   7.774   4.639
10325TIP3   OH230919   4.044   5.368   4.788
10325TIP3    H130920   3.973   5.312   4.756
10325TIP3    H230921   4.001   5.434   4.842
10326TIP3   OH230922   3.319   3.329   2.079
10326TIP3    H130923   3.349   3.268   2.146
10326TIP3    H230924   3.258   3.388   2.126
10327TIP3   OH230925   6.021   7.716   0.900
10327TIP3    H130926   5.983   7.801   0.878
10327TIP3    H230927   6.055   7.683   0.816
10328TIP3   OH230928   7.202   1.392   5.046
10328TIP3    H130929   7.260   1.389   5.121
10328TIP3    H230930   7.225   1.314   4.994
10329TIP3   OH230931   0.696   1.154   2.708
10329TIP3    H130932   0.656   1.169   2.794
10329TIP3    H230933   0.648   1.213   2.649
10330TIP3   OH230934   0.671   2.577   5.897
10330TIP3    H130935   0.602   2.523   5.860
10330TIP3    H230936   0.630   2.621   5.972
10331TIP3   OH230937   3.715   7.579   5.279
10331TIP3    H130938   3.685   7.609   5.193
10331TIP3    H230939   3.808   7.561   5.267
10332TIP3   OH230940   5.776   2.906   4.671
10332TIP3    H130941   5.840   2.977   4.671
10332TIP3    H230942   5.738   2.907   4.759
10333TIP3   OH230943   4.659   5.672   4.267
10333TIP3    H130944   4.586   5.644   4.322
10333TIP3    H230945   4.726   5.606   4.280
10334TIP3   OH230946   0.538   4.924   4.819
10334TIP3    H130947   0.542   4.989   4.889
10334TIP3    H230948   0.452   4.936   4.779
10335TIP3   OH230949   1.097   4.618   2.115
10335TIP3    H130950   1.054   4.703   2.116
10335TIP3    H230951   1.031   4.558   2.082
10336TIP3   OH230952   7.642   7.195   4.758
10336TIP3    H130953   7.626   7.124   4.820
10336TIP3    H230954   7.606   7.164   4.675
10337TIP3   OH230955   8.333   4.472   5.053
10337TIP3    H130956   8.288   4.420   5.120
10337TIP3    H230957   8.284   4.454   4.972
10338TIP3   OH230958   2.062   5.201   0.674
10338TIP3    H130959   1.997   5.267   0.650
10338TIP3    H230960   2.033   5.121   0.630
10339TIP3   OH230961   7.062   1.838   4.113
10339TIP3    H130962   7.127   1.900   4.082
10339TIP3    H230963   7.063   1.848   4.209
10340TIP3   OH230964   0.401   2.056   4.205
10340TIP3    H130965   0.412   2.124   4.272
10340TIP3    H230966   0.459   2.083   4.134
10341TIP3   OH230967   2.071   6.880   3.046
10341TIP3    H130968   2.009   6.921   3.106
10341TIP3    H230969   2.091   6.948   2.982
10342TIP3   OH230970   4.895   5.897   4.916
10342TIP3    H130971   4.880   5.817   4.966
10342TIP3    H230972   4.826   5.957   4.944
10343TIP3   OH230973   5.364   2.874   0.419
10343TIP3    H130974   5.423   2.934   0.373
10343TIP3    H230975   5.296   2.853   0.355
10344TIP3   OH230976   0.325   6.250   3.272
10344TIP3    H130977   0.353   6.161   3.295
10344TIP3    H230978   0.338   6.300   3.352
10345TIP3   OH230979   3.818   0.041   3.280
10345TIP3    H130980   3.829   0.136   3.278
10345TIP3    H230981   3.825   0.013   3.189
10346TIP3   OH230982   0.421   6.517   4.188
10346TIP3    H130983   0.483   6.588   4.176
10346TIP3    H230984   0.373   6.512   4.105
10347TIP3   OH230985   7.997   6.211   6.644
10347TIP3    H130986   7.929   6.274   6.620
10347TIP3    H230987   8.067   6.264   6.681
10348TIP3   OH230988   7.446   5.929   2.373
10348TIP3    H130989   7.517   5.865   2.380
10348TIP3    H230990   7.490   6.011   2.348
10349TIP3   OH230991   5.029   5.372   2.031
10349TIP3    H130992   5.107   5.332   1.992
10349TIP3    H230993   5.060   5.410   2.113
10350TIP3   OH230994   2.826   7.120   6.346
10350TIP3    H130995   2.794   7.094   6.432
10350TIP3    H230996   2.918   7.093   6.344
10351TIP3   OH230997   2.426   4.722   0.193
10351TIP3    H130998   2.474   4.746   0.273
10351TIP3    H230999   2.470   4.770   0.123
10352TIP3   OH231000   7.123   7.642   1.987
10352TIP3    H131001   7.078   7.566   1.950
10352TIP3    H231002   7.184   7.670   1.919
10353TIP3   OH231003   3.144   2.613   3.002
10353TIP3    H131004   3.147   2.680   3.071
10353TIP3    H231005   3.204   2.646   2.935
10354TIP3   OH231006   5.763   3.281   0.840
10354TIP3    H131007   5.682   3.294   0.791
10354TIP3    H231008   5.735   3.263   0.930
10355TIP3   OH231009   6.477   7.124   0.570
10355TIP3    H131010   6.432   7.101   0.489
10355TIP3    H231011   6.560   7.162   0.542
10356TIP3   OH231012   0.654   1.978   3.705
10356TIP3    H131013   0.732   1.960   3.758
10356TIP3    H231014   0.580   1.966   3.765
10357TIP3   OH231015   4.737   3.345   5.049
10357TIP3    H131016   4.828   3.340   5.018
10357TIP3    H231017   4.694   3.271   5.007
10358TIP3   OH231018   2.550   7.019   0.576
10358TIP3    H131019   2.563   6.926   0.560
10358TIP3    H231020   2.502   7.023   0.659
10359TIP3   OH231021   0.729   3.791   2.413
10359TIP3    H131022   0.644   3.748   2.421
10359TIP3    H231023   0.793   3.723   2.434
10360TIP3   OH231024   4.693   2.164   5.580
10360TIP3    H131025   4.697   2.082   5.630
10360TIP3    H231026   4.609   2.161   5.535
10361TIP3   OH231027   3.701   1.113   1.528
10361TIP3    H131028   3.783   1.155   1.553
10361TIP3    H231029   3.726   1.050   1.460
10362TIP3   OH231030   1.390   6.867   5.123
10362TIP3    H131031   1.342   6.854   5.041
10362TIP3    H231032   1.347   6.941   5.165
10363TIP3   OH231033   3.818   7.414   4.344
10363TIP3    H131034   3.753   7.344   4.348
10363TIP3    H231035   3.847   7.414   4.253
10364TIP3   OH231036   2.010   4.431   4.716
10364TIP3    H131037   2.032   4.503   4.656
10364TIP3    H231038   1.955   4.373   4.664
10365TIP3   OH231039   2.620   4.569   4.786
10365TIP3    H131040   2.566   4.516   4.726
10365TIP3    H231041   2.557   4.620   4.837
10366TIP3   OH231042   7.178   5.616   1.226
10366TIP3    H131043   7.109   5.665   1.270
10366TIP3    H231044   7.236   5.682   1.189
10367TIP3   OH231045   0.280   4.586   5.153
10367TIP3    H131046   0.215   4.544   5.097
10367TIP3    H231047   0.340   4.628   5.091
10368TIP3   OH231048   2.040   0.409   2.670
10368TIP3    H131049   1.970   0.469   2.644
10368TIP3    H231050   2.056   0.428   2.762
10369TIP3   OH231051   1.570   6.416   6.094
10369TIP3    H131052   1.477   6.433   6.081
10369TIP3    H231053   1.580   6.322   6.075
10370TIP3   OH231054   6.751   6.263   3.391
10370TIP3    H131055   6.706   6.179   3.397
10370TIP3    H231056   6.777   6.283   3.481
10371TIP3   OH231057   0.549   1.570   6.579
10371TIP3    H131058   0.568   1.513   6.504
10371TIP3    H231059   0.570   1.518   6.656
10372TIP3   OH231060   0.424   2.484   6.669
10372TIP3    H131061   0.444   2.487   6.763
10372TIP3    H231062   0.329   2.473   6.665
10373TIP3   OH231063   0.711   7.065   1.881
10373TIP3    H131064   0.785   7.125   1.887
10373TIP3    H231065   0.660   7.097   1.807
10374TIP3   OH231066   4.434   2.312   6.486
10374TIP3    H131067   4.417   2.368   6.562
10374TIP3    H231068   4.528   2.319   6.472
10375TIP3   OH231069   5.495   0.234   4.685
10375TIP3    H131070   5.526   0.230   4.775
10375TIP3    H231071   5.453   0.149   4.671
10376TIP3   OH231072   1.105   5.622   1.530
10376TIP3    H131073   1.013   5.636   1.552
10376TIP3    H231074   1.107   5.617   1.434
10377TIP3   OH231075   0.902   2.397   3.851
10377TIP3    H131076   0.894   2.344   3.772
10377TIP3    H231077   0.829   2.459   3.846
10378TIP3   OH231078   2.211   7.504   5.643
10378TIP3    H131079   2.259   7.587   5.647
10378TIP3    H231080   2.220   7.476   5.552
10379TIP3   OH231081   1.505   2.707   0.027
10379TIP3    H131082   1.510   2.730   0.119
10379TIP3    H231083   1.594   2.717  -0.006
10380TIP3   OH231084   0.689   3.997   4.445
10380TIP3    H131085   0.723   4.086   4.433
10380TIP3    H231086   0.737   3.963   4.520
10381TIP3   OH231087   5.433   6.561   5.265
10381TIP3    H131088   5.350   6.515   5.253
10381TIP3    H231089   5.457   6.592   5.178
10382TIP3   OH231090   7.889   5.609   2.537
10382TIP3    H131091   7.886   5.698   2.573
10382TIP3    H231092   7.910   5.554   2.612
10383TIP3   OH231093   4.057   3.394   4.088
10383TIP3    H131094   4.102   3.433   4.013
10383TIP3    H231095   4.044   3.302   4.063
10384TIP3   OH231096   7.800   4.779   0.402
10384TIP3    H131097   7.870   4.714   0.400
10384TIP3    H231098   7.819   4.833   0.479
10385TIP3   OH231099   7.466   1.119   6.526
10385TIP3    H131100   7.421   1.176   6.463
10385TIP3    H231101   7.529   1.177   6.569
10386TIP3   OH231102   5.048   5.603   0.127
10386TIP3    H131103   5.067   5.524   0.075
10386TIP3    H231104   4.988   5.653   0.073
10387TIP3   OH231105   2.360   2.157   3.653
10387TIP3    H131106   2.442   2.169   3.701
10387TIP3    H231107   2.387   2.150   3.561
10388TIP3   OH231108   8.212   0.774   2.480
10388TIP3    H131109   8.134   0.721   2.463
10388TIP3    H231110   8.186   0.834   2.550
10389TIP3   OH231111   2.468   6.288   2.878
10389TIP3    H131112   2.395   6.291   2.939
10389TIP3    H231113   2.534   6.345   2.917
10390TIP3   OH231114   5.619   1.390   5.364
10390TIP3    H131115   5.561   1.318   5.392
10390TIP3    H231116   5.634   1.372   5.271
10391TIP3   OH231117   4.864   4.182   5.586
10391TIP3    H131118   4.953   4.217   5.578
10391TIP3    H231119   4.848   4.137   5.503
10392TIP3   OH231120   4.997   0.259   6.379
10392TIP3    H131121   4.979   0.242   6.471
10392TIP3    H231122   5.091   0.273   6.375
10393TIP3   OH231123   3.274   6.963   5.517
10393TIP3    H131124   3.322   6.937   5.595
10393TIP3    H231125   3.316   7.044   5.488
10394TIP3   OH231126   1.538   0.369   0.370
10394TIP3    H131127   1.626   0.363   0.334
10394TIP3    H231128   1.535   0.455   0.413
10395TIP3   OH231129   0.930   7.612   2.263
10395TIP3    H131130   0.865   7.640   2.198
10395TIP3    H231131   1.014   7.637   2.225
10396TIP3   OH231132   7.062   4.249   6.126
10396TIP3    H131133   7.087   4.234   6.036
10396TIP3    H231134   7.004   4.326   6.123
10397TIP3   OH231135   7.318   4.313   4.135
10397TIP3    H131136   7.358   4.228   4.156
10397TIP3    H231137   7.226   4.302   4.157
10398TIP3   OH231138   0.582   6.673   6.603
10398TIP3    H131139   0.615   6.697   6.516
10398TIP3    H231140   0.661   6.663   6.656
10399TIP3   OH231141   1.557   5.094   4.217
10399TIP3    H131142   1.607   5.014   4.230
10399TIP3    H231143   1.581   5.124   4.129
10400TIP3   OH231144   2.667   2.602   6.685
10400TIP3    H131145   2.586   2.651   6.700
10400TIP3    H231146   2.726   2.634   6.753
10401TIP3   OH231147   0.743   0.452   5.410
10401TIP3    H131148   0.782   0.401   5.339
10401TIP3    H231149   0.652   0.422   5.414
10402TIP3   OH231150   6.816   3.857   1.062
10402TIP3    H131151   6.748   3.883   1.000
10402TIP3    H231152   6.878   3.930   1.062
10403TIP3   OH231153   6.561   2.783   3.483
10403TIP3    H131154   6.648   2.818   3.467
10403TIP3    H231155   6.577   2.702   3.532
10404TIP3   OH231156   4.680   2.259   4.373
10404TIP3    H131157   4.666   2.248   4.279
10404TIP3    H231158   4.756   2.316   4.380
10405TIP3   OH231159   2.918   4.681   2.103
10405TIP3    H131160   2.856   4.630   2.156
10405TIP3    H231161   2.977   4.616   2.066
10406TIP3   OH231162   4.645   0.114   4.830
10406TIP3    H131163   4.706   0.151   4.766
10406TIP3    H231164   4.646   0.020   4.811
10407TIP3   OH231165   3.022   6.846   1.582
10407TIP3    H131166   2.952   6.910   1.593
10407TIP3    H231167   3.013   6.816   1.491
10408TIP3   OH231168   3.768   6.995   4.701
10408TIP3    H131169   3.766   7.023   4.793
10408TIP3    H231170   3.785   7.075   4.652
10409TIP3   OH231171   4.027   6.498   4.072
10409TIP3    H131172   4.040   6.449   3.990
10409TIP3    H231173   3.978   6.576   4.046
10410TIP3   OH231174   7.133   6.545   6.566
10410TIP3    H131175   7.051   6.532   6.518
10410TIP3    H231176   7.185   6.601   6.508
10411TIP3   OH231177   6.937   5.332   6.033
10411TIP3    H131178   6.925   5.425   6.017
10411TIP3    H231179   7.005   5.305   5.971
10412TIP3   OH231180   0.017   6.321   3.088
10412TIP3    H131181  -0.007   6.276   3.168
10412TIP3    H231182   0.099   6.280   3.061
10413TIP3   OH231183   2.310   4.702   1.009
10413TIP3    H131184   2.276   4.787   1.037
10413TIP3    H231185   2.267   4.639   1.067
10414TIP3   OH231186   0.645   4.556   0.611
10414TIP3    H131187   0.603   4.477   0.579
10414TIP3    H231188   0.578   4.598   0.666
10415TIP3   OH231189   6.682   4.511   6.624
10415TIP3    H131190   6.704   4.503   6.531
10415TIP3    H231191   6.764   4.541   6.665
10416TIP3   OH231192   0.181   3.349   3.858
10416TIP3    H131193   0.109   3.400   3.896
10416TIP3    H231194   0.245   3.415   3.830
10417TIP3   OH231195   2.481   4.471   0.848
10417TIP3    H131196   2.481   4.567   0.849
10417TIP3    H231197   2.460   4.448   0.758
10418TIP3   OH231198   2.487   0.326   4.202
10418TIP3    H131199   2.397   0.358   4.202
10418TIP3    H231200   2.540   0.404   4.188
10419TIP3   OH231201   5.087   3.962   2.460
10419TIP3    H131202   5.153   3.898   2.489
10419TIP3    H231203   5.049   3.922   2.382
10420TIP3   OH231204   1.856   4.773   0.964
10420TIP3    H131205   1.935   4.732   0.930
10420TIP3    H231206   1.831   4.836   0.897
10421TIP3   OH231207   5.954   7.365   2.661
10421TIP3    H131208   5.988   7.277   2.672
10421TIP3    H231209   5.878   7.370   2.719
10422TIP3   OH231210   1.732   6.068   0.997
10422TIP3    H131211   1.723   5.988   1.048
10422TIP3    H231212   1.651   6.072   0.945
10423TIP3   OH231213   4.196   5.730   2.969
10423TIP3    H131214   4.156   5.644   2.978
10423TIP3    H231215   4.133   5.782   2.920
10424TIP3   OH231216   6.158   5.628   0.359
10424TIP3    H131217   6.220   5.613   0.429
10424TIP3    H231218   6.194   5.701   0.309
10425TIP3   OH231219   2.500   4.758   4.993
10425TIP3    H131220   2.490   4.795   5.081
10425TIP3    H231221   2.422   4.705   4.980
10426TIP3   OH231222   4.019   4.713   6.534
10426TIP3    H131223   4.028   4.621   6.510
10426TIP3    H231224   4.000   4.758   6.451
10427TIP3   OH231225   7.256   4.928   4.700
10427TIP3    H131226   7.169   4.939   4.663
10427TIP3    H231227   7.262   4.835   4.721
10428TIP3   OH231228   6.748   4.726   0.268
10428TIP3    H131229   6.719   4.649   0.221
10428TIP3    H231230   6.730   4.799   0.209
10429TIP3   OH231231   0.434   5.925   1.864
10429TIP3    H131232   0.362   5.949   1.921
10429TIP3    H231233   0.511   5.967   1.903
10430TIP3   OH231234   8.005   0.979   3.917
10430TIP3    H131235   8.100   0.985   3.909
10430TIP3    H231236   7.990   0.967   4.011
10431TIP3   OH231237   3.642   1.877   6.437
10431TIP3    H131238   3.720   1.932   6.444
10431TIP3    H231239   3.639   1.829   6.519
10432TIP3   OH231240   7.421   1.940   4.736
10432TIP3    H131241   7.349   1.900   4.785
10432TIP3    H231242   7.389   2.027   4.714
10433TIP3   OH231243   6.042   1.029   3.726
10433TIP3    H131244   6.003   1.111   3.695
10433TIP3    H231245   6.062   0.980   3.646
10434TIP3   OH231246   6.004   2.953   1.023
10434TIP3    H131247   5.959   3.011   1.084
10434TIP3    H231248   5.934   2.904   0.980
10435TIP3   OH231249   4.849   7.056   3.848
10435TIP3    H131250   4.900   7.137   3.856
10435TIP3    H231251   4.800   7.050   3.929
10436TIP3   OH231252   4.648   4.496   6.282
10436TIP3    H131253   4.708   4.482   6.208
10436TIP3    H231254   4.586   4.561   6.250
10437TIP3   OH231255   0.206   1.083   2.940
10437TIP3    H131256   0.167   1.091   2.853
10437TIP3    H231257   0.159   1.148   2.993
10438TIP3   OH231258   3.797   5.065   2.187
10438TIP3    H131259   3.855   4.989   2.180
10438TIP3    H231260   3.719   5.041   2.136
10439TIP3   OH231261   1.440   0.202   2.765
10439TIP3    H131262   1.498   0.260   2.816
10439TIP3    H231263   1.422   0.129   2.824
10440TIP3   OH231264   7.546   4.985   2.516
10440TIP3    H131265   7.558   4.891   2.528
10440TIP3    H231266   7.605   5.008   2.444
10441TIP3   OH231267   5.050   0.832   6.449
10441TIP3    H131268   4.959   0.825   6.476
10441TIP3    H231269   5.075   0.921   6.472
10442TIP3   OH231270   0.053   3.908   5.799
10442TIP3    H131271   0.096   3.987   5.832
10442TIP3    H231272   0.058   3.915   5.704
10443TIP3   OH231273   1.036   6.330   2.672
10443TIP3    H131274   1.120   6.287   2.659
10443TIP3    H231275   1.022   6.329   2.766
10444TIP3   OH231276   1.519   4.517   0.802
10444TIP3    H131277   1.472   4.593   0.836
10444TIP3    H231278   1.494   4.445   0.860
10445TIP3   OH231279   8.166   1.272   6.746
10445TIP3    H131280   8.136   1.183   6.764
10445TIP3    H231281   8.169   1.278   6.651
10446TIP3   OH231282   8.032   2.796   2.854
10446TIP3    H131283   8.103   2.740   2.819
10446TIP3    H231284   8.070   2.884   2.855
10447TIP3   OH231285   7.479   4.560   4.213
10447TIP3    H131286   7.563   4.581   4.174
10447TIP3    H231287   7.427   4.524   4.141
10448TIP3   OH231288   0.812   2.264   0.975
10448TIP3    H131289   0.883   2.262   1.040
10448TIP3    H231290   0.851   2.309   0.900
10449TIP3   OH231291   7.108   6.173   5.507
10449TIP3    H131292   7.119   6.167   5.412
10449TIP3    H231293   7.093   6.083   5.535
10450TIP3   OH231294   6.594   1.989   3.477
10450TIP3    H131295   6.524   1.937   3.516
10450TIP3    H231296   6.564   2.006   3.388
10451TIP3   OH231297   7.277   6.439   5.758
10451TIP3    H131298   7.290   6.396   5.673
10451TIP3    H231299   7.183   6.452   5.765
10452TIP3   OH231300   4.347   7.463   4.587
10452TIP3    H131301   4.413   7.454   4.518
10452TIP3    H231302   4.316   7.373   4.601
10453TIP3   OH231303   2.798   0.900   5.714
10453TIP3    H131304   2.728   0.909   5.650
10453TIP3    H231305   2.767   0.833   5.775
10454TIP3   OH231306   4.201   4.919   0.702
10454TIP3    H131307   4.176   4.828   0.718
10454TIP3    H231308   4.208   4.958   0.790
10455TIP3   OH231309   2.220   3.744   4.996
10455TIP3    H131310   2.307   3.745   5.037
10455TIP3    H231311   2.211   3.831   4.957
10456TIP3   OH231312   3.594   5.503   5.428
10456TIP3    H131313   3.561   5.432   5.373
10456TIP3    H231314   3.636   5.459   5.502
10457TIP3   OH231315   5.322   7.216   0.590
10457TIP3    H131316   5.404   7.264   0.581
10457TIP3    H231317   5.317   7.193   0.682
10458TIP3   OH231318   2.231   5.651   3.250
10458TIP3    H131319   2.262   5.564   3.226
10458TIP3    H231320   2.288   5.711   3.202
10459TIP3   OH231321   4.075   2.620   2.450
10459TIP3    H131322   4.129   2.700   2.449
10459TIP3    H231323   4.100   2.574   2.370
10460TIP3   OH231324   4.629   5.765   5.120
10460TIP3    H131325   4.587   5.682   5.145
10460TIP3    H231326   4.715   5.739   5.086
10461TIP3   OH231327   4.964   6.299   3.086
10461TIP3    H131328   4.900   6.328   3.151
10461TIP3    H231329   4.911   6.262   3.016
10462TIP3   OH231330   7.332   2.374   0.047
10462TIP3    H131331   7.401   2.316   0.014
10462TIP3    H231332   7.294   2.413  -0.032
10463TIP3   OH231333   5.546   4.787   4.960
10463TIP3    H131334   5.551   4.881   4.941
10463TIP3    H231335   5.591   4.745   4.887
10464TIP3   OH231336   0.091   6.758   1.509
10464TIP3    H131337   0.125   6.782   1.422
10464TIP3    H231338   0.019   6.698   1.491
10465TIP3   OH231339   2.032   4.043   5.265
10465TIP3    H131340   2.006   4.127   5.303
10465TIP3    H231341   1.951   4.005   5.233
10466TIP3   OH231342   7.480   3.293   2.548
10466TIP3    H131343   7.555   3.237   2.529
10466TIP3    H231344   7.453   3.328   2.462
10467TIP3   OH231345   3.427   0.581   2.675
10467TIP3    H131346   3.378   0.540   2.747
10467TIP3    H231347   3.517   0.587   2.709
10468TIP3   OH231348   1.539   1.528   4.145
10468TIP3    H131349   1.589   1.481   4.212
10468TIP3    H231350   1.474   1.465   4.115
10469TIP3   OH231351   7.762   5.275   4.239
10469TIP3    H131352   7.668   5.257   4.231
10469TIP3    H231353   7.791   5.290   4.149
10470TIP3   OH231354   1.620   1.366   0.499
10470TIP3    H131355   1.568   1.426   0.445
10470TIP3    H231356   1.641   1.294   0.440
10471TIP3   OH231357   5.184   2.240   5.216
10471TIP3    H131358   5.113   2.292   5.179
10471TIP3    H231359   5.184   2.262   5.309
10472TIP3   OH231360   1.374   1.497   0.394
10472TIP3    H131361   1.365   1.548   0.314
10472TIP3    H231362   1.316   1.422   0.382
10473TIP3   OH231363   6.095   1.918   1.690
10473TIP3    H131364   6.147   1.949   1.616
10473TIP3    H231365   6.115   1.980   1.760
10474TIP3   OH231366   4.739   6.086   4.073
10474TIP3    H131367   4.718   5.994   4.058
10474TIP3    H231368   4.784   6.114   3.993
10475TIP3   OH231369   4.433   2.534   0.267
10475TIP3    H131370   4.370   2.581   0.212
10475TIP3    H231371   4.462   2.460   0.214
10476TIP3   OH231372   3.025   3.179   0.775
10476TIP3    H131373   3.013   3.264   0.816
10476TIP3    H231374   2.991   3.190   0.686
10477TIP3   OH231375   5.834   0.061   5.276
10477TIP3    H131376   5.917   0.025   5.245
10477TIP3    H231377   5.826   0.031   5.367
10478TIP3   OH231378   1.850   4.659   2.324
10478TIP3    H131379   1.831   4.651   2.230
10478TIP3    H231380   1.933   4.613   2.335
10479TIP3   OH231381   3.180   6.831   5.267
10479TIP3    H131382   3.095   6.873   5.285
10479TIP3    H231383   3.238   6.863   5.337
10480TIP3   OH231384   1.525   5.365   3.998
10480TIP3    H131385   1.499   5.274   4.007
10480TIP3    H231386   1.522   5.382   3.904
10481TIP3   OH231387   2.181   1.241   3.557
10481TIP3    H131388   2.164   1.241   3.463
10481TIP3    H231389   2.172   1.150   3.583
10482TIP3   OH231390   6.572   6.541   1.773
10482TIP3    H131391   6.517   6.486   1.718
10482TIP3    H231392   6.655   6.547   1.726
10483TIP3   OH231393   3.908   4.592   0.658
10483TIP3    H131394   3.975   4.656   0.636
10483TIP3    H231395   3.837   4.643   0.697
10484TIP3   OH231396   3.039   0.598   3.390
10484TIP3    H131397   3.015   0.600   3.297
10484TIP3    H231398   2.963   0.635   3.435
10485TIP3   OH231399   1.326   7.444   0.377
10485TIP3    H131400   1.388   7.401   0.319
10485TIP3    H231401   1.243   7.398   0.362
10486TIP3   OH231402   6.888   1.221   3.230
10486TIP3    H131403   6.964   1.202   3.175
10486TIP3    H231404   6.829   1.270   3.174
10487TIP3   OH231405   0.725   0.575   3.671
10487TIP3    H131406   0.761   0.487   3.662
10487TIP3    H231407   0.634   0.561   3.698
10488TIP3   OH231408   1.287   3.620   5.493
10488TIP3    H131409   1.300   3.558   5.565
10488TIP3    H231410   1.371   3.666   5.486
10489TIP3   OH231411   0.493   4.906   1.805
10489TIP3    H131412   0.525   4.914   1.895
10489TIP3    H231413   0.408   4.863   1.813
10490TIP3   OH231414   6.425   5.267   4.922
10490TIP3    H131415   6.501   5.324   4.910
10490TIP3    H231416   6.407   5.233   4.835
10491TIP3   OH231417   2.115   6.183   0.346
10491TIP3    H131418   2.203   6.155   0.322
10491TIP3    H231419   2.057   6.113   0.315
10492TIP3   OH231420   4.077   1.026   6.364
10492TIP3    H131421   4.123   1.074   6.433
10492TIP3    H231422   4.123   0.942   6.358
10493TIP3   OH231423   3.198   3.355   1.819
10493TIP3    H131424   3.235   3.345   1.907
10493TIP3    H231425   3.262   3.314   1.761
10494TIP3   OH231426   7.404   0.032   0.740
10494TIP3    H131427   7.394   0.000   0.830
10494TIP3    H231428   7.437  -0.044   0.691
10495TIP3   OH231429   6.095   7.774   2.511
10495TIP3    H131430   6.153   7.762   2.436
10495TIP3    H231431   6.010   7.740   2.482
10496TIP3   OH231432   7.078   0.420   2.718
10496TIP3    H131433   7.023   0.487   2.677
10496TIP3    H231434   7.019   0.372   2.776
10497TIP3   OH231435   4.548   2.935   0.651
10497TIP3    H131436   4.469   2.989   0.661
10497TIP3    H231437   4.551   2.916   0.557
10498TIP3   OH231438   3.760   0.000   5.136
10498TIP3    H131439   3.729  -0.021   5.048
10498TIP3    H231440   3.855  -0.011   5.132
10499TIP3   OH231441   2.084   5.717   0.366
10499TIP3    H131442   2.073   5.660   0.441
10499TIP3    H231443   2.174   5.704   0.338
10500TIP3   OH231444   4.426   2.803   4.823
10500TIP3    H131445   4.427   2.731   4.760
10500TIP3    H231446   4.410   2.761   4.907
10501TIP3   OH231447   1.076   4.218   2.597
10501TIP3    H131448   1.003   4.167   2.631
10501TIP3    H231449   1.037   4.276   2.532
10502TIP3   OH231450   6.359   2.917   5.785
10502TIP3    H131451   6.324   2.974   5.854
10502TIP3    H231452   6.453   2.915   5.800
10503TIP3   OH231453   7.803   0.472   1.967
10503TIP3    H131454   7.838   0.421   1.894
10503TIP3    H231455   7.724   0.513   1.932
10504TIP3   OH231456   0.741   7.072   5.381
10504TIP3    H131457   0.723   7.090   5.289
10504TIP3    H231458   0.781   6.986   5.381
10505TIP3   OH231459   3.251   0.917   5.897
10505TIP3    H131460   3.166   0.884   5.867
10505TIP3    H231461   3.270   0.866   5.976
10506TIP3   OH231462   6.582   3.854   2.299
10506TIP3    H131463   6.623   3.940   2.289
10506TIP3    H231464   6.654   3.796   2.323
10507TIP3   OH231465   5.841   2.371   4.304
10507TIP3    H131466   5.801   2.365   4.391
10507TIP3    H231467   5.925   2.326   4.313
10508TIP3   OH231468   6.585   3.329   0.652
10508TIP3    H131469   6.541   3.245   0.661
10508TIP3    H231470   6.565   3.357   0.562
10509TIP3   OH231471   0.708   7.017   2.424
10509TIP3    H131472   0.758   7.047   2.348
10509TIP3    H231473   0.756   6.940   2.456
10510TIP3   OH231474   5.180   1.873   2.644
10510TIP3    H131475   5.217   1.834   2.723
10510TIP3    H231476   5.243   1.939   2.617
10511TIP3   OH231477   7.668   0.390   2.693
10511TIP3    H131478   7.683   0.359   2.782
10511TIP3    H231479   7.575   0.414   2.691
10512TIP3   OH231480   1.484   7.342   0.188
10512TIP3    H131481   1.453   7.256   0.160
10512TIP3    H231482   1.524   7.380   0.110
10513TIP3   OH231483   1.230   2.774   1.557
10513TIP3    H131484   1.325   2.762   1.568
10513TIP3    H231485   1.222   2.850   1.500
10514TIP3   OH231486   3.701   2.713   4.093
10514TIP3    H131487   3.702   2.618   4.077
10514TIP3    H231488   3.694   2.752   4.006
10515TIP3   OH231489   7.638   1.601   2.680
10515TIP3    H131490   7.669   1.686   2.649
10515TIP3    H231491   7.694   1.581   2.755
10516TIP3   OH231492   5.692   6.362   2.570
10516TIP3    H131493   5.620   6.421   2.551
10516TIP3    H231494   5.670   6.324   2.656
10517TIP3   OH231495   7.705   1.755   1.142
10517TIP3    H131496   7.764   1.708   1.200
10517TIP3    H231497   7.681   1.834   1.191
10518TIP3   OH231498   1.759   6.622   6.040
10518TIP3    H131499   1.747   6.708   6.080
10518TIP3    H231500   1.681   6.572   6.066
10519TIP3   OH231501   2.398   4.164   5.047
10519TIP3    H131502   2.475   4.116   5.015
10519TIP3    H231503   2.384   4.131   5.136
10520TIP3   OH231504   6.527   1.485   6.457
10520TIP3    H131505   6.617   1.516   6.446
10520TIP3    H231506   6.525   1.451   6.547
10521TIP3   OH231507   1.528   5.540   5.032
10521TIP3    H131508   1.569   5.456   5.053
10521TIP3    H231509   1.500   5.530   4.941
10522TIP3   OH231510   6.732   6.270   3.699
10522TIP3    H131511   6.825   6.274   3.718
10522TIP3    H231512   6.711   6.177   3.703
10523TIP3   OH231513   4.366   5.389   5.281
10523TIP3    H131514   4.333   5.309   5.322
10523TIP3    H231515   4.393   5.362   5.193
10524TIP3   OH231516   5.159   7.610   4.912
10524TIP3    H131517   5.175   7.593   4.819
10524TIP3    H231518   5.145   7.704   4.918
10525TIP3   OH231519   7.994   0.455   2.728
10525TIP3    H131520   8.002   0.373   2.680
10525TIP3    H231521   7.906   0.487   2.707
10526TIP3   OH231522   5.376   5.113   3.255
10526TIP3    H131523   5.287   5.082   3.240
10526TIP3    H231524   5.369   5.208   3.257
10527TIP3   OH231525   7.262   0.385   4.198
10527TIP3    H131526   7.271   0.315   4.134
10527TIP3    H231527   7.183   0.363   4.247
10528TIP3   OH231528   4.356   1.972   2.912
10528TIP3    H131529   4.317   2.030   2.978
10528TIP3    H231530   4.365   2.028   2.835
10529TIP3   OH231531   6.428   4.996   0.807
10529TIP3    H131532   6.390   5.081   0.785
10529TIP3    H231533   6.497   4.984   0.741
10530TIP3   OH231534   1.719   1.926   5.574
10530TIP3    H131535   1.655   1.979   5.526
10530TIP3    H231536   1.705   1.948   5.666
10531TIP3   OH231537   4.562   3.207   6.432
10531TIP3    H131538   4.621   3.133   6.445
10531TIP3    H231539   4.558   3.218   6.337
10532TIP3   OH231540   7.731   6.896   6.005
10532TIP3    H131541   7.769   6.973   6.048
10532TIP3    H231542   7.641   6.922   5.985
10533TIP3   OH231543   4.916   0.504   5.047
10533TIP3    H131544   4.955   0.500   5.135
10533TIP3    H231545   4.904   0.597   5.031
10534TIP3   OH231546   4.483   7.799   4.125
10534TIP3    H131547   4.392   7.770   4.122
10534TIP3    H231548   4.484   7.881   4.075
10535TIP3   OH231549   2.095   6.880   5.858
10535TIP3    H131550   2.157   6.883   5.931
10535TIP3    H231551   2.149   6.862   5.782
10536TIP3   OH231552   0.142   5.462   5.128
10536TIP3    H131553   0.079   5.443   5.059
10536TIP3    H231554   0.201   5.527   5.089
10537TIP3   OH231555   6.181   7.613   0.091
10537TIP3    H131556   6.095   7.606   0.049
10537TIP3    H231557   6.171   7.564   0.172
10538TIP3   OH231558   3.997   4.385   0.533
10538TIP3    H131559   3.999   4.327   0.609
10538TIP3    H231560   3.963   4.467   0.566
10539TIP3   OH231561   7.918   4.601   4.872
10539TIP3    H131562   7.845   4.662   4.874
10539TIP3    H231563   7.925   4.569   4.962
10540TIP3   OH231564   5.679   2.892   1.087
10540TIP3    H131565   5.703   2.864   0.999
10540TIP3    H231566   5.644   2.981   1.076
10541TIP3   OH231567   1.922   1.770   2.303
10541TIP3    H131568   2.005   1.806   2.335
10541TIP3    H231569   1.940   1.745   2.212
10542TIP3   OH231570   0.320   5.267   0.334
10542TIP3    H131571   0.370   5.205   0.282
10542TIP3    H231572   0.281   5.214   0.403
10543TIP3   OH231573   6.524   4.186   0.281
10543TIP3    H131574   6.440   4.222   0.253
10543TIP3    H231575   6.523   4.096   0.248
10544TIP3   OH231576   3.697   4.865   1.482
10544TIP3    H131577   3.725   4.808   1.410
10544TIP3    H231578   3.742   4.830   1.559
10545TIP3   OH231579   5.022   4.259   3.215
10545TIP3    H131580   4.973   4.231   3.138
10545TIP3    H231581   5.033   4.353   3.204
10546TIP3   OH231582   0.487   6.965   5.689
10546TIP3    H131583   0.522   6.878   5.668
10546TIP3    H231584   0.561   7.024   5.676
10547TIP3   OH231585   7.573   0.449   0.686
10547TIP3    H131586   7.545   0.361   0.661
10547TIP3    H231587   7.545   0.505   0.614
10548TIP3   OH231588   4.955   5.075   5.476
10548TIP3    H131589   5.049   5.059   5.477
10548TIP3    H231590   4.941   5.141   5.544
10549TIP3   OH231591   7.309   4.809   2.367
10549TIP3    H131592   7.404   4.815   2.376
10549TIP3    H231593   7.275   4.832   2.453
10550TIP3   OH231594   6.216   0.291   3.524
10550TIP3    H131595   6.293   0.288   3.468
10550TIP3    H231596   6.246   0.334   3.604
10551TIP3   OH231597   4.326   0.712   1.891
10551TIP3    H131598   4.284   0.789   1.931
10551TIP3    H231599   4.287   0.706   1.804
10552TIP3   OH231600   6.616   0.434   6.537
10552TIP3    H131601   6.549   0.499   6.558
10552TIP3    H231602   6.678   0.481   6.482
10553TIP3   OH231603   1.556   7.592   5.996
10553TIP3    H131604   1.610   7.513   5.990
10553TIP3    H231605   1.606   7.659   5.949
10554TIP3   OH231606   5.361   5.419   3.506
10554TIP3    H131607   5.317   5.381   3.430
10554TIP3    H231608   5.313   5.385   3.581
10555TIP3   OH231609   1.035   7.277   4.453
10555TIP3    H131610   0.964   7.321   4.407
10555TIP3    H231611   1.048   7.329   4.532
10556TIP3   OH231612   0.610   0.357   0.281
10556TIP3    H131613   0.525   0.396   0.299
10556TIP3    H231614   0.658   0.424   0.233
10557TIP3   OH231615   5.516   6.355   2.062
10557TIP3    H131616   5.422   6.373   2.070
10557TIP3    H231617   5.556   6.399   2.137
10558TIP3   OH231618   3.982   2.242   1.612
10558TIP3    H131619   3.998   2.282   1.697
10558TIP3    H231620   4.069   2.223   1.577
10559TIP3   OH231621   3.863   3.574   4.035
10559TIP3    H131622   3.904   3.658   4.015
10559TIP3    H231623   3.936   3.514   4.048
10560TIP3   OH231624   1.487   5.306   1.508
10560TIP3    H131625   1.463   5.324   1.599
10560TIP3    H231626   1.562   5.247   1.514
10561TIP3   OH231627   1.197   0.710   3.270
10561TIP3    H131628   1.275   0.756   3.240
10561TIP3    H231629   1.133   0.721   3.200
10562TIP3   OH231630   3.546   3.818   3.611
10562TIP3    H131631   3.534   3.810   3.705
10562TIP3    H231632   3.528   3.910   3.592
10563TIP3   OH231633   4.387   0.348   3.326
10563TIP3    H131634   4.313   0.341   3.266
10563TIP3    H231635   4.438   0.268   3.310
10564TIP3   OH231636   5.193   2.074   0.333
10564TIP3    H131637   5.243   2.117   0.264
10564TIP3    H231638   5.134   2.014   0.288
10565TIP3   OH231639   2.115   1.824   3.849
10565TIP3    H131640   2.193   1.778   3.819
10565TIP3    H231641   2.141   1.863   3.933
10566TIP3   OH231642   5.657   2.481   2.594
10566TIP3    H131643   5.723   2.548   2.580
10566TIP3    H231644   5.627   2.496   2.684
10567TIP3   OH231645   4.696   6.997   5.837
10567TIP3    H131646   4.777   6.963   5.876
10567TIP3    H231647   4.635   6.924   5.841
10568TIP3   OH231648   1.881   6.299   3.933
10568TIP3    H131649   1.971   6.330   3.947
10568TIP3    H231650   1.846   6.288   4.021
10569TIP3   OH231651   3.529   4.568   1.737
10569TIP3    H131652   3.605   4.510   1.732
10569TIP3    H231653   3.513   4.595   1.647
10570TIP3   OH231654   5.677   5.747   1.566
10570TIP3    H131655   5.656   5.826   1.516
10570TIP3    H231656   5.642   5.675   1.512
10571TIP3   OH231657   1.410   3.466   1.929
10571TIP3    H131658   1.397   3.489   2.021
10571TIP3    H231659   1.472   3.531   1.896
10572TIP3   OH231660   1.637   4.817   4.212
10572TIP3    H131661   1.587   4.741   4.242
10572TIP3    H231662   1.656   4.798   4.120
10573TIP3   OH231663   5.114   0.104   1.164
10573TIP3    H131664   5.084   0.118   1.074
10573TIP3    H231665   5.066   0.169   1.215
10574TIP3   OH231666   3.672   7.103   1.800
10574TIP3    H131667   3.731   7.049   1.748
10574TIP3    H231668   3.592   7.052   1.806
10575TIP3   OH231669   7.087   3.190   5.180
10575TIP3    H131670   7.049   3.176   5.267
10575TIP3    H231671   7.048   3.122   5.125
10576TIP3   OH231672   3.281   0.714   4.036
10576TIP3    H131673   3.188   0.722   4.016
10576TIP3    H231674   3.311   0.640   3.982
10577TIP3   OH231675   6.803   1.022   4.976
10577TIP3    H131676   6.884   0.981   4.946
10577TIP3    H231677   6.798   1.105   4.928
10578TIP3   OH231678   5.795   2.416   1.877
10578TIP3    H131679   5.739   2.461   1.813
10578TIP3    H231680   5.744   2.339   1.902
10579TIP3   OH231681   3.813   1.131   5.391
10579TIP3    H131682   3.879   1.198   5.404
10579TIP3    H231683   3.785   1.106   5.479
10580TIP3   OH231684   5.334   7.814   2.123
10580TIP3    H131685   5.368   7.755   2.190
10580TIP3    H231686   5.276   7.873   2.171
10581TIP3   OH231687   1.978   7.712   0.627
10581TIP3    H131688   2.063   7.674   0.650
10581TIP3    H231689   1.923   7.696   0.703
10582TIP3   OH231690   5.868   2.052   4.982
10582TIP3    H131691   5.864   1.958   5.002
10582TIP3    H231692   5.925   2.088   5.049
10583TIP3   OH231693   5.505   4.664   0.421
10583TIP3    H131694   5.502   4.740   0.478
10583TIP3    H231695   5.428   4.612   0.446
10584TIP3   OH231696   4.120   7.421   6.077
10584TIP3    H131697   4.127   7.461   6.163
10584TIP3    H231698   4.033   7.445   6.045
10585TIP3   OH231699   1.566   6.321   2.702
10585TIP3    H131700   1.639   6.362   2.749
10585TIP3    H231701   1.599   6.308   2.613
10586TIP3   OH231702   0.798   4.778   0.124
10586TIP3    H131703   0.745   4.738   0.055
10586TIP3    H231704   0.853   4.707   0.156
10587TIP3   OH231705   1.642   5.955   5.253
10587TIP3    H131706   1.666   6.025   5.192
10587TIP3    H231707   1.708   5.888   5.239
10588TIP3   OH231708   3.265   0.904   1.268
10588TIP3    H131709   3.301   0.825   1.309
10588TIP3    H231710   3.211   0.871   1.197
10589TIP3   OH231711   0.656   5.309   5.706
10589TIP3    H131712   0.722   5.360   5.753
10589TIP3    H231713   0.698   5.225   5.689
10590TIP3   OH231714   6.290   4.134   2.169
10590TIP3    H131715   6.350   4.123   2.242
10590TIP3    H231716   6.244   4.216   2.187
10591TIP3   OH231717   3.880   5.543   0.993
10591TIP3    H131718   3.846   5.628   0.965
10591TIP3    H231719   3.816   5.513   1.058
10592TIP3   OH231720   0.487   3.312   0.387
10592TIP3    H131721   0.475   3.229   0.432
10592TIP3    H231722   0.567   3.301   0.336
10593TIP3   OH231723   6.393   4.499   3.592
10593TIP3    H131724   6.439   4.499   3.507
10593TIP3    H231725   6.367   4.590   3.605
10594TIP3   OH231726   6.620   5.746   2.951
10594TIP3    H131727   6.693   5.685   2.944
10594TIP3    H231728   6.624   5.798   2.871
10595TIP3   OH231729   7.935   3.850   1.833
10595TIP3    H131730   7.856   3.835   1.782
10595TIP3    H231731   7.929   3.787   1.905
10596TIP3   OH231732   4.005   5.108   6.182
10596TIP3    H131733   3.994   5.199   6.155
10596TIP3    H231734   4.035   5.063   6.102
10597TIP3   OH231735   7.297   6.646   1.464
10597TIP3    H131736   7.250   6.563   1.457
10597TIP3    H231737   7.230   6.710   1.487
10598TIP3   OH231738   3.677   6.040   1.903
10598TIP3    H131739   3.613   6.052   1.833
10598TIP3    H231740   3.758   6.077   1.868
10599TIP3   OH231741   4.296   5.074   5.317
10599TIP3    H131742   4.253   4.992   5.293
10599TIP3    H231743   4.250   5.141   5.267
10600TIP3   OH231744   4.473   1.705   2.944
10600TIP3    H131745   4.502   1.650   3.017
10600TIP3    H231746   4.435   1.782   2.985
10601TIP3   OH231747   1.527   5.017   0.981
10601TIP3    H131748   1.515   5.082   0.911
10601TIP3    H231749   1.555   4.938   0.935
10602TIP3   OH231750   0.887   5.435   2.944
10602TIP3    H131751   0.916   5.508   2.999
10602TIP3    H231752   0.947   5.436   2.869
10603TIP3   OH231753   3.689   2.129   0.226
10603TIP3    H131754   3.722   2.118   0.315
10603TIP3    H231755   3.594   2.134   0.237
10604TIP3   OH231756   1.597   0.707   6.219
10604TIP3    H131757   1.525   0.713   6.283
10604TIP3    H231758   1.577   0.774   6.154
10605TIP3   OH231759   6.872   2.014   3.217
10605TIP3    H131760   6.914   2.097   3.193
10605TIP3    H231761   6.784   2.020   3.180
10606TIP3   OH231762   0.284   6.185   3.779
10606TIP3    H131763   0.328   6.143   3.853
10606TIP3    H231764   0.216   6.239   3.819
10607TIP3   OH231765   3.640   4.098   2.873
10607TIP3    H131766   3.621   4.017   2.919
10607TIP3    H231767   3.701   4.073   2.804
10608TIP3   OH231768   0.301   7.016   4.035
10608TIP3    H131769   0.251   6.940   4.007
10608TIP3    H231770   0.392   6.994   4.016
10609TIP3   OH231771   4.402   1.918   3.464
10609TIP3    H131772   4.365   1.992   3.416
10609TIP3    H231773   4.392   1.844   3.405
10610TIP3   OH231774   7.625   5.265   6.335
10610TIP3    H131775   7.555   5.256   6.399
10610TIP3    H231776   7.685   5.192   6.353
10611TIP3   OH231777   4.238   4.340   0.155
10611TIP3    H131778   4.230   4.289   0.236
10611TIP3    H231779   4.328   4.370   0.155
10612TIP3   OH231780   1.089   7.407   6.054
10612TIP3    H131781   1.122   7.497   6.052
10612TIP3    H231782   1.065   7.393   6.146
10613TIP3   OH231783   4.906   3.257   6.654
10613TIP3    H131784   4.948   3.297   6.578
10613TIP3    H231785   4.963   3.280   6.728
10614TIP3   OH231786   6.445   7.069   1.980
10614TIP3    H131787   6.414   7.121   2.055
10614TIP3    H231788   6.507   7.126   1.935
10615TIP3   OH231789   5.287   5.658   0.294
10615TIP3    H131790   5.212   5.632   0.241
10615TIP3    H231791   5.350   5.691   0.230
10616TIP3   OH231792   4.559   7.844   1.813
10616TIP3    H131793   4.575   7.776   1.879
10616TIP3    H231794   4.539   7.795   1.733
10617TIP3   OH231795   8.087   4.976   5.273
10617TIP3    H131796   7.999   5.010   5.292
10617TIP3    H231797   8.074   4.883   5.259
10618TIP3   OH231798   0.084   3.881   1.753
10618TIP3    H131799   0.061   3.824   1.826
10618TIP3    H231800   0.176   3.903   1.767
10619TIP3   OH231801   1.963   1.805   5.868
10619TIP3    H131802   1.958   1.844   5.955
10619TIP3    H231803   1.889   1.745   5.864
10620TIP3   OH231804   6.247   5.435   0.125
10620TIP3    H131805   6.205   5.513   0.162
10620TIP3    H231806   6.237   5.368   0.193
10621TIP3   OH231807   4.255   5.045  -0.006
10621TIP3    H131808   4.339   5.081   0.024
10621TIP3    H231809   4.190   5.088   0.049
10622TIP3   OH231810   3.683   7.083   4.944
10622TIP3    H131811   3.695   7.176   4.961
10622TIP3    H231812   3.598   7.062   4.983
10623TIP3   OH231813   3.259   4.157   2.703
10623TIP3    H131814   3.287   4.141   2.793
10623TIP3    H231815   3.264   4.071   2.661
10624TIP3   OH231816   5.618   1.944   6.697
10624TIP3    H131817   5.663   1.945   6.613
10624TIP3    H231818   5.660   2.014   6.748
10625TIP3   OH231819   1.460   2.890   3.490
10625TIP3    H131820   1.488   2.801   3.470
10625TIP3    H231821   1.521   2.920   3.557
10626TIP3   OH231822   4.825   4.120   1.912
10626TIP3    H131823   4.734   4.133   1.939
10626TIP3    H231824   4.832   4.026   1.896
10627TIP3   OH231825   6.642   7.255   1.885
10627TIP3    H131826   6.675   7.322   1.946
10627TIP3    H231827   6.630   7.302   1.803
10628TIP3   OH231828   8.062   6.224   5.419
10628TIP3    H131829   8.085   6.139   5.457
10628TIP3    H231830   8.067   6.285   5.493
10629TIP3   OH231831   6.459   6.126   4.334
10629TIP3    H131832   6.369   6.102   4.355
10629TIP3    H231833   6.507   6.112   4.415
10630TIP3   OH231834   8.038   1.903   4.434
10630TIP3    H131835   8.087   1.984   4.448
10630TIP3    H231836   7.989   1.918   4.353
10631TIP3   OH231837   2.581   7.596   0.679
10631TIP3    H131838   2.671   7.565   0.687
10631TIP3    H231839   2.529   7.516   0.668
10632TIP3   OH231840   1.611   3.353   4.454
10632TIP3    H131841   1.547   3.381   4.388
10632TIP3    H231842   1.558   3.329   4.530
10633TIP3   OH231843   1.704   5.529   4.632
10633TIP3    H131844   1.720   5.438   4.605
10633TIP3    H231845   1.785   5.556   4.675
10634TIP3   OH231846   0.528   7.263   5.109
10634TIP3    H131847   0.574   7.347   5.108
10634TIP3    H231848   0.598   7.198   5.111
10635TIP3   OH231849   6.734   4.004   5.219
10635TIP3    H131850   6.789   4.066   5.267
10635TIP3    H231851   6.790   3.927   5.207
10636TIP3   OH231852   3.831   2.715  -0.002
10636TIP3    H131853   3.773   2.790   0.012
10636TIP3    H231854   3.843   2.677   0.085
10637TIP3   OH231855   4.717   1.341   4.349
10637TIP3    H131856   4.780   1.413   4.353
10637TIP3    H231857   4.692   1.336   4.257
10638TIP3   OH231858   7.758   0.934   4.665
10638TIP3    H131859   7.711   0.866   4.714
10638TIP3    H231860   7.849   0.925   4.692
10639TIP3   OH231861   8.235   4.830   2.082
10639TIP3    H131862   8.222   4.869   2.169
10639TIP3    H231863   8.305   4.882   2.043
10640TIP3   OH231864   2.671   7.480   2.641
10640TIP3    H131865   2.746   7.500   2.697
10640TIP3    H231866   2.598   7.528   2.679
10641TIP3   OH231867   6.651   2.592   0.775
10641TIP3    H131868   6.737   2.605   0.814
10641TIP3    H231869   6.597   2.662   0.813
10642TIP3   OH231870   6.861   2.383   0.588
10642TIP3    H131871   6.832   2.294   0.606
10642TIP3    H231872   6.818   2.436   0.656
10643TIP3   OH231873   4.875   2.812   1.586
10643TIP3    H131874   4.853   2.762   1.507
10643TIP3    H231875   4.962   2.846   1.569
10644TIP3   OH231876   6.712   0.752   0.047
10644TIP3    H131877   6.707   0.845   0.025
10644TIP3    H231878   6.736   0.750   0.139
10645TIP3   OH231879   8.163   2.291   5.631
10645TIP3    H131880   8.247   2.248   5.646
10645TIP3    H231881   8.108   2.261   5.704
10646TIP3   OH231882   7.380   0.155   5.288
10646TIP3    H131883   7.362   0.110   5.206
10646TIP3    H231884   7.380   0.085   5.354
10647TIP3   OH231885   3.484   3.518   3.583
10647TIP3    H131886   3.569   3.502   3.540
10647TIP3    H231887   3.486   3.610   3.607
10648TIP3   OH231888   7.098   0.044   3.644
10648TIP3    H131889   7.186   0.012   3.624
10648TIP3    H231890   7.083   0.018   3.735
10649TIP3   OH231891   4.026   4.395   5.079
10649TIP3    H131892   3.932   4.379   5.080
10649TIP3    H231893   4.050   4.407   5.171
10650TIP3   OH231894   8.287   3.261   5.641
10650TIP3    H131895   8.313   3.294   5.727
10650TIP3    H231896   8.340   3.311   5.579
10651TIP3   OH231897   0.308   4.153   3.110
10651TIP3    H131898   0.339   4.241   3.089
10651TIP3    H231899   0.229   4.142   3.056
10652TIP3   OH231900   1.995   5.378   4.914
10652TIP3    H131901   2.043   5.430   4.977
10652TIP3    H231902   2.049   5.380   4.835
10653TIP3   OH231903   6.049   2.067   1.417
10653TIP3    H131904   6.080   2.155   1.439
10653TIP3    H231905   5.957   2.079   1.394
10654TIP3   OH231906   0.291   1.596   0.538
10654TIP3    H131907   0.266   1.586   0.630
10654TIP3    H231908   0.230   1.540   0.491
10655TIP3   OH231909   0.321   0.118   0.850
10655TIP3    H131910   0.310   0.212   0.835
10655TIP3    H231911   0.273   0.101   0.931
10656TIP3   OH231912   6.994   0.169   2.176
10656TIP3    H131913   7.047   0.164   2.096
10656TIP3    H231914   6.983   0.262   2.192
10657TIP3   OH231915   4.320   6.366   0.021
10657TIP3    H131916   4.270   6.378   0.102
10657TIP3    H231917   4.312   6.273   0.001
10658TIP3   OH231918   2.230   3.330   5.646
10658TIP3    H131919   2.139   3.331   5.678
10658TIP3    H231920   2.253   3.423   5.640
10659TIP3   OH231921   2.700   6.093   5.287
10659TIP3    H131922   2.681   6.024   5.223
10659TIP3    H231923   2.793   6.111   5.275
10660TIP3   OH231924   5.565   7.096   1.263
10660TIP3    H131925   5.558   7.053   1.349
10660TIP3    H231926   5.476   7.125   1.244
10661TIP3   OH231927   2.285   2.606   5.371
10661TIP3    H131928   2.310   2.688   5.413
10661TIP3    H231929   2.315   2.538   5.431
10662TIP3   OH231930   4.150   2.955   1.585
10662TIP3    H131931   4.164   3.033   1.531
10662TIP3    H231932   4.188   2.883   1.534
10663TIP3   OH231933   1.328   0.675   1.676
10663TIP3    H131934   1.394   0.675   1.746
10663TIP3    H231935   1.379   0.675   1.595
10664TIP3   OH231936   2.444   3.800   5.165
10664TIP3    H131937   2.500   3.790   5.242
10664TIP3    H231938   2.494   3.761   5.093
10665TIP3   OH231939   5.122   4.233   2.523
10665TIP3    H131940   5.065   4.275   2.459
10665TIP3    H231941   5.124   4.141   2.496
10666TIP3   OH231942   7.511   1.027   0.806
10666TIP3    H131943   7.418   1.006   0.800
10666TIP3    H231944   7.536   1.050   0.716
10667TIP3   OH231945   4.407   3.012   3.334
10667TIP3    H131946   4.314   2.990   3.346
10667TIP3    H231947   4.454   2.936   3.367
10668TIP3   OH231948   4.732   4.346   3.364
10668TIP3    H131949   4.696   4.409   3.301
10668TIP3    H231950   4.673   4.271   3.358
10669TIP3   OH231951   6.554   6.879   5.260
10669TIP3    H131952   6.523   6.916   5.343
10669TIP3    H231953   6.627   6.822   5.286
10670TIP3   OH231954   1.653   6.035   4.785
10670TIP3    H131955   1.560   6.047   4.805
10670TIP3    H231956   1.660   6.054   4.691
10671TIP3   OH231957   6.473   7.152   1.597
10671TIP3    H131958   6.473   7.151   1.501
10671TIP3    H231959   6.528   7.227   1.620
10672TIP3   OH231960   3.323   7.275   0.937
10672TIP3    H131961   3.291   7.364   0.952
10672TIP3    H231962   3.414   7.277   0.965
10673TIP3   OH231963   7.510   5.850   3.541
10673TIP3    H131964   7.512   5.934   3.586
10673TIP3    H231965   7.525   5.786   3.611
10674TIP3   OH231966   4.849   0.217   4.684
10674TIP3    H131967   4.836   0.312   4.690
10674TIP3    H231968   4.929   0.200   4.735
10675TIP3   OH231969   1.231   7.145   4.596
10675TIP3    H131970   1.170   7.188   4.536
10675TIP3    H231971   1.189   7.061   4.616
10676TIP3   OH231972   4.334   6.974   3.265
10676TIP3    H131973   4.296   7.060   3.279
10676TIP3    H231974   4.339   6.966   3.170
10677TIP3   OH231975   5.852   7.330   1.072
10677TIP3    H131976   5.945   7.350   1.080
10677TIP3    H231977   5.807   7.404   1.112
10678TIP3   OH231978   7.164   6.743   4.560
10678TIP3    H131979   7.241   6.770   4.611
10678TIP3    H231980   7.157   6.649   4.577
10679TIP3   OH231981   6.177   2.625   2.932
10679TIP3    H131982   6.223   2.656   2.855
10679TIP3    H231983   6.233   2.650   3.005
10680TIP3   OH231984   7.548   3.882   3.375
10680TIP3    H131985   7.584   3.943   3.440
10680TIP3    H231986   7.612   3.881   3.305
10681TIP3   OH231987   4.045   5.303   1.289
10681TIP3    H131988   3.954   5.276   1.295
10681TIP3    H231989   4.094   5.232   1.329
10682TIP3   OH231990   2.215   6.754   6.208
10682TIP3    H131991   2.138   6.733   6.157
10682TIP3    H231992   2.195   6.723   6.296
10683TIP3   OH231993   4.318   5.344   2.930
10683TIP3    H131994   4.365   5.404   2.987
10683TIP3    H231995   4.227   5.373   2.935
10684TIP3   OH231996   5.177   0.631   5.539
10684TIP3    H131997   5.111   0.592   5.596
10684TIP3    H231998   5.253   0.645   5.596
10685TIP3   OH231999   3.492   3.567   5.328
10685TIP3    H132000   3.507   3.472   5.323
10685TIP3    H232001   3.577   3.603   5.354
10686TIP3   OH232002   7.629   1.565   2.284
10686TIP3    H132003   7.621   1.502   2.355
10686TIP3    H232004   7.624   1.513   2.204
10687TIP3   OH232005   6.952   4.482   1.459
10687TIP3    H132006   6.875   4.523   1.499
10687TIP3    H232007   6.951   4.392   1.493
10688TIP3   OH232008   4.995   1.374   5.758
10688TIP3    H132009   4.945   1.455   5.771
10688TIP3    H232010   4.934   1.316   5.714
10689TIP3   OH232011   7.123   0.242   1.195
10689TIP3    H132012   7.161   0.327   1.215
10689TIP3    H232013   7.118   0.197   1.279
10690TIP3   OH232014   3.764   0.536   5.670
10690TIP3    H132015   3.760   0.597   5.744
10690TIP3    H232016   3.809   0.459   5.704
10691TIP3   OH232017   6.543   7.058   6.458
10691TIP3    H132018   6.578   7.146   6.473
10691TIP3    H232019   6.459   7.058   6.505
10692TIP3   OH232020   4.860   6.963   3.404
10692TIP3    H132021   4.814   7.028   3.351
10692TIP3    H232022   4.902   7.014   3.474
10693TIP3   OH232023   3.866   1.836   0.138
10693TIP3    H132024   3.845   1.889   0.215
10693TIP3    H232025   3.831   1.750   0.158
10694TIP3   OH232026   7.396   0.870   6.677
10694TIP3    H132027   7.432   0.946   6.631
10694TIP3    H232028   7.360   0.905   6.758
10695TIP3   OH232029   1.638   7.248   4.975
10695TIP3    H132030   1.643   7.341   4.955
10695TIP3    H232031   1.668   7.205   4.895
10696TIP3   OH232032   7.910   7.294   6.683
10696TIP3    H132033   7.823   7.264   6.655
10696TIP3    H232034   7.966   7.278   6.607
10697TIP3   OH232035   2.299   0.121   2.443
10697TIP3    H132036   2.211   0.118   2.480
10697TIP3    H232037   2.298   0.198   2.386
10698TIP3   OH232038   0.730   5.634   3.279
10698TIP3    H132039   0.823   5.631   3.298
10698TIP3    H232040   0.688   5.656   3.362
10699TIP3   OH232041   6.513   7.321   4.029
10699TIP3    H132042   6.586   7.262   4.050
10699TIP3    H232043   6.441   7.262   4.004
10700TIP3   OH232044   2.503   6.076   1.277
10700TIP3    H132045   2.452   6.119   1.209
10700TIP3    H232046   2.483   5.982   1.267
10701TIP3   OH232047   2.985   0.555   5.750
10701TIP3    H132048   2.895   0.579   5.768
10701TIP3    H232049   2.978   0.479   5.692
10702TIP3   OH232050   8.116   2.926   5.395
10702TIP3    H132051   8.113   2.833   5.370
10702TIP3    H232052   8.061   2.931   5.473
10703TIP3   OH232053   4.412   6.926   5.685
10703TIP3    H132054   4.345   6.964   5.741
10703TIP3    H232055   4.441   6.998   5.629
10704TIP3   OH232056   6.737   3.267   1.986
10704TIP3    H132057   6.736   3.172   1.996
10704TIP3    H232058   6.712   3.282   1.894
10705TIP3   OH232059   2.343   3.626   2.813
10705TIP3    H132060   2.306   3.642   2.727
10705TIP3    H232061   2.430   3.667   2.810
10706TIP3   OH232062   6.872   3.077   2.886
10706TIP3    H132063   6.830   3.123   2.814
10706TIP3    H232064   6.922   3.145   2.932
10707TIP3   OH232065   4.010   3.475   1.849
10707TIP3    H132066   4.096   3.514   1.835
10707TIP3    H232067   3.987   3.498   1.939
10708TIP3   OH232068   0.819   0.481   4.445
10708TIP3    H132069   0.775   0.431   4.513
10708TIP3    H232070   0.779   0.451   4.363
10709TIP3   OH232071   0.773   6.215   3.469
10709TIP3    H132072   0.806   6.215   3.379
10709TIP3    H232073   0.844   6.253   3.521
10710TIP3   OH232074   7.602   5.128   3.446
10710TIP3    H132075   7.674   5.174   3.402
10710TIP3    H232076   7.639   5.097   3.528
10711TIP3   OH232077   3.660   1.843   0.640
10711TIP3    H132078   3.592   1.781   0.613
10711TIP3    H232079   3.694   1.807   0.722
10712TIP3   OH232080   7.815   0.783   2.025
10712TIP3    H132081   7.827   0.760   1.933
10712TIP3    H232082   7.768   0.866   2.023
10713TIP3   OH232083   5.408   4.250   0.932
10713TIP3    H132084   5.420   4.342   0.956
10713TIP3    H232085   5.461   4.239   0.853
10714TIP3   OH232086   5.735   1.856   5.401
10714TIP3    H132087   5.695   1.775   5.434
10714TIP3    H232088   5.787   1.828   5.326
10715TIP3   OH232089   0.891   4.492   1.462
10715TIP3    H132090   0.941   4.497   1.543
10715TIP3    H232091   0.892   4.399   1.439
10716TIP3   OH232092   8.109   0.153   5.583
10716TIP3    H132093   8.092   0.091   5.512
10716TIP3    H232094   8.034   0.142   5.643
10717TIP3   OH232095   6.163   3.915   5.705
10717TIP3    H132096   6.254   3.898   5.677
10717TIP3    H232097   6.115   3.924   5.623
10718TIP3   OH232098   3.777   2.247   2.015
10718TIP3    H132099   3.871   2.262   2.013
10718TIP3    H232100   3.756   2.236   2.108
10719TIP3   OH232101   6.355   2.715   2.706
10719TIP3    H132102   6.369   2.779   2.636
10719TIP3    H232103   6.443   2.699   2.741
10720TIP3   OH232104   1.917   4.934   1.180
10720TIP3    H132105   1.840   4.981   1.212
10720TIP3    H232106   1.884   4.877   1.111
10721TIP3   OH232107   8.102   3.731   0.009
10721TIP3    H132108   8.074   3.739   0.100
10721TIP3    H232109   8.197   3.732   0.013
10722TIP3   OH232110   5.917   6.532   2.600
10722TIP3    H132111   5.825   6.530   2.573
10722TIP3    H232112   5.915   6.512   2.693
10723TIP3   OH232113   0.456   1.960   2.276
10723TIP3    H132114   0.423   1.914   2.353
10723TIP3    H232115   0.550   1.947   2.279
10724TIP3   OH232116   6.990   2.909   2.639
10724TIP3    H132117   6.974   2.992   2.684
10724TIP3    H232118   7.080   2.886   2.663
10725TIP3   OH232119   7.726   6.523   0.495
10725TIP3    H132120   7.766   6.493   0.577
10725TIP3    H232121   7.751   6.616   0.490
10726TIP3   OH232122   4.531   5.578   0.752
10726TIP3    H132123   4.557   5.647   0.690
10726TIP3    H232124   4.612   5.530   0.769
10727TIP3   OH232125   0.022   0.389   3.387
10727TIP3    H132126  -0.005   0.466   3.337
10727TIP3    H232127  -0.008   0.315   3.335
10728TIP3   OH232128   3.599   2.029   5.334
10728TIP3    H132129   3.524   2.063   5.285
10728TIP3    H232130   3.635   2.106   5.378
10729TIP3   OH232131   3.290   2.203   2.593
10729TIP3    H132132   3.268   2.215   2.685
10729TIP3    H232133   3.205   2.204   2.548
10730TIP3   OH232134   4.352   3.641   6.393
10730TIP3    H132135   4.447   3.648   6.403
10730TIP3    H232136   4.340   3.568   6.331
10731TIP3   OH232137   3.570   5.984   5.280
10731TIP3    H132138   3.537   6.033   5.355
10731TIP3    H232139   3.646   5.937   5.313
10732TIP3   OH232140   1.743   2.753   4.292
10732TIP3    H132141   1.682   2.694   4.246
10732TIP3    H232142   1.686   2.811   4.343
10733TIP3   OH232143   0.319   7.831   5.152
10733TIP3    H132144   0.352   7.747   5.182
10733TIP3    H232145   0.348   7.837   5.061
10734TIP3   OH232146   4.693   6.953   4.467
10734TIP3    H132147   4.631   7.020   4.494
10734TIP3    H232148   4.746   6.995   4.399
10735TIP3   OH232149   3.953   6.059   3.349
10735TIP3    H132150   3.966   6.034   3.257
10735TIP3    H232151   3.931   6.152   3.346
10736TIP3   OH232152   1.870   4.169   0.948
10736TIP3    H132153   1.812   4.245   0.943
10736TIP3    H232154   1.957   4.207   0.959
10737TIP3   OH232155   6.952   4.837   4.734
10737TIP3    H132156   6.963   4.770   4.801
10737TIP3    H232157   6.950   4.919   4.783
10738TIP3   OH232158   4.545   6.264   3.536
10738TIP3    H132159   4.491   6.188   3.516
10738TIP3    H232160   4.635   6.233   3.525
10739TIP3   OH232161   7.111   4.864   2.520
10739TIP3    H132162   7.168   4.908   2.583
10739TIP3    H232163   7.026   4.859   2.564
10740TIP3   OH232164   5.370   6.640   1.888
10740TIP3    H132165   5.465   6.637   1.900
10740TIP3    H232166   5.358   6.644   1.793
10741TIP3   OH232167   4.004   1.467   3.700
10741TIP3    H132168   3.928   1.525   3.696
10741TIP3    H232169   3.981   1.401   3.765
10742TIP3   OH232170   2.209   4.763   4.872
10742TIP3    H132171   2.223   4.703   4.945
10742TIP3    H232172   2.174   4.842   4.912
10743TIP3   OH232173   0.224   6.860   0.732
10743TIP3    H132174   0.235   6.809   0.651
10743TIP3    H232175   0.300   6.918   0.734
10744TIP3   OH232176   2.737   4.829   5.397
10744TIP3    H132177   2.738   4.753   5.456
10744TIP3    H232178   2.785   4.800   5.320
10745TIP3   OH232179   7.783   0.403   0.124
10745TIP3    H132180   7.848   0.345   0.083
10745TIP3    H232181   7.788   0.383   0.217
10746TIP3   OH232182   3.978   6.343   3.522
10746TIP3    H132183   4.019   6.405   3.461
10746TIP3    H232184   4.012   6.368   3.608
10747TIP3   OH232185   2.293   1.174   6.302
10747TIP3    H132186   2.307   1.131   6.386
10747TIP3    H232187   2.382   1.184   6.266
10748TIP3   OH232188   7.015   3.986   2.910
10748TIP3    H132189   6.937   3.950   2.953
10748TIP3    H232190   7.083   3.920   2.925
10749TIP3   OH232191   5.236   1.595   3.538
10749TIP3    H132192   5.279   1.569   3.620
10749TIP3    H232193   5.303   1.642   3.489
10750TIP3   OH232194   0.853   5.105   1.224
10750TIP3    H132195   0.816   5.087   1.137
10750TIP3    H232196   0.873   5.198   1.223
10751TIP3   OH232197   0.204   3.790   0.646
10751TIP3    H132198   0.138   3.751   0.589
10751TIP3    H232199   0.281   3.801   0.590
10752TIP3   OH232200   6.015   5.608   1.938
10752TIP3    H132201   5.975   5.634   2.021
10752TIP3    H232202   5.967   5.656   1.871
10753TIP3   OH232203   8.156   3.760   3.310
10753TIP3    H132204   8.202   3.843   3.301
10753TIP3    H232205   8.193   3.704   3.241
10754TIP3   OH232206   4.769   3.666   4.060
10754TIP3    H132207   4.840   3.667   4.124
10754TIP3    H232208   4.805   3.619   3.984
10755TIP3   OH232209   1.573   7.764   6.244
10755TIP3    H132210   1.659   7.723   6.252
10755TIP3    H232211   1.571   7.799   6.155
10756TIP3   OH232212   6.958   3.781   3.772
10756TIP3    H132213   6.939   3.706   3.829
10756TIP3    H232214   7.048   3.805   3.794
10757TIP3   OH232215   0.850   4.108   1.674
10757TIP3    H132216   0.874   4.112   1.582
10757TIP3    H232217   0.927   4.071   1.717
10758TIP3   OH232218   8.076   2.328   6.732
10758TIP3    H132219   8.113   2.407   6.691
10758TIP3    H232220   8.044   2.276   6.658
10759TIP3   OH232221   0.651   2.794   6.152
10759TIP3    H132222   0.582   2.750   6.201
10759TIP3    H232223   0.604   2.846   6.086
10760TIP3   OH232224   3.574   7.369   2.698
10760TIP3    H132225   3.534   7.382   2.611
10760TIP3    H232226   3.522   7.298   2.737
10761TIP3   OH232227   8.213   0.419   2.059
10761TIP3    H132228   8.148   0.489   2.051
10761TIP3    H232229   8.289   0.451   2.011
10762TIP3   OH232230   0.552   1.694   1.626
10762TIP3    H132231   0.465   1.679   1.590
10762TIP3    H232232   0.610   1.641   1.572
10763TIP3   OH232233   7.865   0.766   0.648
10763TIP3    H132234   7.868   0.674   0.676
10763TIP3    H232235   7.774   0.791   0.659
10764TIP3   OH232236   2.571   6.977   4.509
10764TIP3    H132237   2.624   6.934   4.442
10764TIP3    H232238   2.494   6.921   4.518
10765TIP3   OH232239   6.434   7.786   5.301
10765TIP3    H132240   6.419   7.741   5.218
10765TIP3    H232241   6.422   7.718   5.368
10766TIP3   OH232242   6.641   2.823   0.071
10766TIP3    H132243   6.630   2.913   0.102
10766TIP3    H232244   6.655   2.831  -0.024
10767TIP3   OH232245   5.870   5.091   4.079
10767TIP3    H132246   5.900   5.106   4.169
10767TIP3    H232247   5.786   5.136   4.073
10768TIP3   OH232248   4.016   5.346   4.137
10768TIP3    H132249   3.977   5.259   4.137
10768TIP3    H232250   3.941   5.405   4.143
10769TIP3   OH232251   0.727   3.812   3.401
10769TIP3    H132252   0.786   3.877   3.440
10769TIP3    H232253   0.781   3.769   3.334
10770TIP3   OH232254   4.647   6.365   3.193
10770TIP3    H132255   4.569   6.310   3.189
10770TIP3    H232256   4.647   6.400   3.282
10771TIP3   OH232257   4.210   1.778   0.041
10771TIP3    H132258   4.134   1.724   0.065
10771TIP3    H232259   4.172   1.861   0.014
10772TIP3   OH232260   4.922   6.511   4.001
10772TIP3    H132261   5.004   6.463   3.988
10772TIP3    H232262   4.866   6.450   4.048
10773TIP3   OH232263   5.059   2.625   2.295
10773TIP3    H132264   5.044   2.530   2.294
10773TIP3    H232265   4.987   2.661   2.243
10774TIP3   OH232266   0.591   7.692   6.742
10774TIP3    H132267   0.609   7.675   6.835
10774TIP3    H232268   0.590   7.606   6.701
10775TIP3   OH232269   4.672   7.129   0.125
10775TIP3    H132270   4.603   7.166   0.070
10775TIP3    H232271   4.700   7.051   0.078
10776TIP3   OH232272   6.777   6.944   0.015
10776TIP3    H132273   6.827   6.867   0.043
10776TIP3    H232274   6.765   6.994   0.096
10777TIP3   OH232275   2.295   3.618   6.618
10777TIP3    H132276   2.296   3.523   6.618
10777TIP3    H232277   2.238   3.642   6.691
10778TIP3   OH232278   3.323   2.585   0.899
10778TIP3    H132279   3.255   2.568   0.834
10778TIP3    H232280   3.309   2.519   0.967
10779TIP3   OH232281   4.275   7.264   3.301
10779TIP3    H132282   4.353   7.308   3.335
10779TIP3    H232283   4.281   7.273   3.206
10780TIP3   OH232284   1.375   7.421   5.584
10780TIP3    H132285   1.444   7.355   5.590
10780TIP3    H232286   1.310   7.394   5.648
10781TIP3   OH232287   5.738   7.241   5.308
10781TIP3    H132288   5.724   7.237   5.403
10781TIP3    H232289   5.732   7.150   5.279
10782TIP3   OH232290   3.594   3.765   2.189
10782TIP3    H132291   3.647   3.812   2.124
10782TIP3    H232292   3.527   3.722   2.136
10783TIP3   OH232293   8.235   2.444   1.769
10783TIP3    H132294   8.307   2.480   1.717
10783TIP3    H232295   8.206   2.517   1.824
10784TIP3   OH232296   1.036   2.942   6.048
10784TIP3    H132297   1.114   2.978   6.005
10784TIP3    H232298   0.968   3.007   6.031
10785TIP3   OH232299   4.268   6.650   5.931
10785TIP3    H132300   4.300   6.664   5.842
10785TIP3    H232301   4.224   6.565   5.928
10786TIP3   OH232302   4.392   3.266   0.800
10786TIP3    H132303   4.433   3.208   0.864
10786TIP3    H232304   4.392   3.352   0.842
10787TIP3   OH232305   0.499   0.090   3.169
10787TIP3    H132306   0.442   0.167   3.155
10787TIP3    H232307   0.456   0.020   3.121
10788TIP3   OH232308   4.382   7.183   2.429
10788TIP3    H132309   4.305   7.240   2.431
10788TIP3    H232310   4.454   7.238   2.458
10789TIP3   OH232311   5.532   2.259   2.010
10789TIP3    H132312   5.555   2.278   2.101
10789TIP3    H232313   5.446   2.299   1.998
10790TIP3   OH232314   3.816   2.438   3.817
10790TIP3    H132315   3.844   2.365   3.872
10790TIP3    H232316   3.741   2.475   3.864
10791TIP3   OH232317   5.244   4.920   1.596
10791TIP3    H132318   5.268   4.976   1.521
10791TIP3    H232319   5.149   4.915   1.592
10792TIP3   OH232320   1.882   1.763   1.395
10792TIP3    H132321   1.851   1.687   1.344
10792TIP3    H232322   1.807   1.823   1.394
10793TIP3   OH232323   7.775   5.391   3.058
10793TIP3    H132324   7.697   5.365   3.009
10793TIP3    H232325   7.846   5.341   3.019
10794TIP3   OH232326   6.411   3.615   2.866
10794TIP3    H132327   6.365   3.697   2.850
10794TIP3    H232328   6.485   3.638   2.921
10795TIP3   OH232329   5.302   5.932   6.703
10795TIP3    H132330   5.258   5.960   6.622
10795TIP3    H232331   5.370   5.871   6.673
10796TIP3   OH232332   4.328   3.685   0.758
10796TIP3    H132333   4.264   3.743   0.798
10796TIP3    H232334   4.356   3.628   0.829
10797TIP3   OH232335   1.118   5.153   2.937
10797TIP3    H132336   1.028   5.124   2.950
10797TIP3    H232337   1.115   5.203   2.855
10798TIP3   OH232338   3.698   3.956   5.248
10798TIP3    H132339   3.740   4.041   5.233
10798TIP3    H232340   3.700   3.944   5.343
10799TIP3   OH232341   6.438   2.668   6.312
10799TIP3    H132342   6.503   2.734   6.338
10799TIP3    H232343   6.445   2.663   6.217
10800TIP3   OH232344   0.678   6.193   6.268
10800TIP3    H132345   0.730   6.217   6.345
10800TIP3    H232346   0.587   6.203   6.297
10801TIP3   OH232347   3.529   6.528   4.968
10801TIP3    H132348   3.458   6.486   4.919
10801TIP3    H232349   3.535   6.478   5.049
10802TIP3   OH232350   7.866   2.343   1.328
10802TIP3    H132351   7.805   2.289   1.279
10802TIP3    H232352   7.900   2.285   1.396
10803TIP3   OH232353   2.759   7.700   5.331
10803TIP3    H132354   2.777   7.646   5.408
10803TIP3    H232355   2.730   7.784   5.366
10804TIP3   OH232356   3.269   6.854   0.104
10804TIP3    H132357   3.339   6.918   0.104
10804TIP3    H232358   3.312   6.771   0.083
10805TIP3   OH232359   7.871   3.904   5.471
10805TIP3    H132360   7.929   3.916   5.397
10805TIP3    H232361   7.860   3.809   5.479
10806TIP3   OH232362   0.164   5.187   0.951
10806TIP3    H132363   0.158   5.093   0.970
10806TIP3    H232364   0.077   5.221   0.972
10807TIP3   OH232365   4.375   0.680   4.586
10807TIP3    H132366   4.365   0.586   4.573
10807TIP3    H232367   4.431   0.688   4.664
10808TIP3   OH232368   3.093   6.458   2.843
10808TIP3    H132369   3.121   6.398   2.774
10808TIP3    H232370   3.172   6.504   2.869
10809TIP3   OH232371   0.323   7.166   2.668
10809TIP3    H132372   0.341   7.072   2.671
10809TIP3    H232373   0.281   7.186   2.752
10810TIP3   OH232374   4.219   6.962   2.006
10810TIP3    H132375   4.291   6.918   2.051
10810TIP3    H232376   4.172   7.009   2.075
10811TIP3   OH232377   4.930   5.430   1.782
10811TIP3    H132378   4.965   5.447   1.869
10811TIP3    H232379   4.878   5.350   1.793
10812TIP3   OH232380   7.544   2.874   2.003
10812TIP3    H132381   7.508   2.786   2.013
10812TIP3    H232382   7.521   2.919   2.085
10813TIP3   OH232383   0.959   5.903   4.398
10813TIP3    H132384   1.048   5.872   4.412
10813TIP3    H232385   0.920   5.840   4.338
10814TIP3   OH232386   3.050   1.523   3.199
10814TIP3    H132387   3.091   1.593   3.250
10814TIP3    H232388   3.121   1.461   3.184
10815TIP3   OH232389   7.557   7.592   6.386
10815TIP3    H132390   7.487   7.649   6.420
10815TIP3    H232391   7.638   7.632   6.417
10816TIP3   OH232392   4.690   1.987   1.299
10816TIP3    H132393   4.656   1.975   1.210
10816TIP3    H232394   4.753   1.916   1.310
10817TIP3   OH232395   2.765   3.629   5.395
10817TIP3    H132396   2.843   3.585   5.429
10817TIP3    H232397   2.697   3.563   5.396
10818TIP3   OH232398   5.910   6.077   4.526
10818TIP3    H132399   5.929   6.170   4.523
10818TIP3    H232400   5.963   6.039   4.457
10819TIP3   OH232401   7.453  -0.004   2.605
10819TIP3    H132402   7.518   0.046   2.555
10819TIP3    H232403   7.465   0.025   2.695
10820TIP3   OH232404   3.877   1.518   6.494
10820TIP3    H132405   3.863   1.572   6.572
10820TIP3    H232406   3.946   1.457   6.518
10821TIP3   OH232407   3.971   6.293   1.361
10821TIP3    H132408   4.065   6.288   1.342
10821TIP3    H232409   3.929   6.275   1.276
10822TIP3   OH232410   3.720   6.599   6.232
10822TIP3    H132411   3.732   6.577   6.325
10822TIP3    H232412   3.626   6.613   6.223
10823TIP3   OH232413   6.607   3.611   3.122
10823TIP3    H132414   6.670   3.551   3.082
10823TIP3    H232415   6.539   3.554   3.158
10824TIP3   OH232416   6.170   3.068   3.341
10824TIP3    H132417   6.149   3.070   3.434
10824TIP3    H232418   6.128   3.147   3.305
10825TIP3   OH232419   6.070   4.921   2.337
10825TIP3    H132420   6.114   4.921   2.252
10825TIP3    H232421   6.112   4.992   2.385
10826TIP3   OH232422   0.308   1.639   5.675
10826TIP3    H132423   0.333   1.628   5.584
10826TIP3    H232424   0.390   1.659   5.720
10827TIP3   OH232425   8.236   7.288   2.447
10827TIP3    H132426   8.264   7.342   2.521
10827TIP3    H232427   8.207   7.206   2.487
10828TIP3   OH232428   4.149   6.210   4.989
10828TIP3    H132429   4.223   6.157   4.962
10828TIP3    H232430   4.085   6.201   4.918
10829TIP3   OH232431   7.026   5.016   3.227
10829TIP3    H132432   7.040   4.970   3.310
10829TIP3    H232433   6.977   5.095   3.251
10830TIP3   OH232434   6.623   2.924   5.908
10830TIP3    H132435   6.668   2.975   5.976
10830TIP3    H232436   6.665   2.952   5.826
10831TIP3   OH232437   6.177   6.879   2.833
10831TIP3    H132438   6.218   6.873   2.747
10831TIP3    H232439   6.103   6.939   2.820
10832TIP3   OH232440   1.205   3.622   3.994
10832TIP3    H132441   1.234   3.622   3.903
10832TIP3    H232442   1.178   3.713   4.011
10833TIP3   OH232443   4.320   6.946   5.134
10833TIP3    H132444   4.357   6.926   5.048
10833TIP3    H232445   4.250   6.882   5.145
10834TIP3   OH232446   5.710   0.359   4.108
10834TIP3    H132447   5.690   0.452   4.095
10834TIP3    H232448   5.787   0.344   4.053
10835TIP3   OH232449   2.872   6.838   5.018
10835TIP3    H132450   2.843   6.794   4.938
10835TIP3    H232451   2.959   6.872   4.996
10836TIP3   OH232452   2.674   4.466   3.329
10836TIP3    H132453   2.674   4.509   3.243
10836TIP3    H232454   2.715   4.381   3.314
10837TIP3   OH232455   5.302   7.449   0.942
10837TIP3    H132456   5.369   7.517   0.942
10837TIP3    H232457   5.219   7.497   0.937
10838TIP3   OH232458   3.750   6.443   1.432
10838TIP3    H132459   3.840   6.413   1.422
10838TIP3    H232460   3.697   6.364   1.416
10839TIP3   OH232461   1.592   7.262   5.562
10839TIP3    H132462   1.682   7.292   5.571
10839TIP3    H232463   1.599   7.174   5.525
10840TIP3   OH232464   3.746   0.500   3.524
10840TIP3    H132465   3.655   0.531   3.526
10840TIP3    H232466   3.746   0.422   3.579
10841TIP3   OH232467   0.370   3.672   5.928
10841TIP3    H132468   0.439   3.660   5.992
10841TIP3    H232469   0.387   3.758   5.890
10842TIP3   OH232470   4.468   6.182   5.191
10842TIP3    H132471   4.462   6.168   5.096
10842TIP3    H232472   4.452   6.095   5.229
10843TIP3   OH232473   4.973   4.893   1.625
10843TIP3    H132474   4.968   4.855   1.538
10843TIP3    H232475   4.945   4.984   1.614
10844TIP3   OH232476   4.899   0.830   5.411
10844TIP3    H132477   4.855   0.751   5.381
10844TIP3    H232478   4.985   0.827   5.369
10845TIP3   OH232479   2.285   3.024   0.009
10845TIP3    H132480   2.374   3.032   0.042
10845TIP3    H232481   2.274   2.930  -0.007
10846TIP3   OH232482   4.905   0.221   1.299
10846TIP3    H132483   4.862   0.293   1.252
10846TIP3    H232484   4.901   0.248   1.391
10847TIP3   OH232485   3.984   2.284   5.193
10847TIP3    H132486   3.960   2.323   5.277
10847TIP3    H232487   3.992   2.191   5.210
10848TIP3   OH232488   6.035   6.469   0.658
10848TIP3    H132489   6.120   6.511   0.668
10848TIP3    H232490   5.972   6.533   0.693
10849TIP3   OH232491   0.033   5.025   3.763
10849TIP3    H132492   0.097   5.064   3.823
10849TIP3    H232493  -0.051   5.063   3.791
10850TIP3   OH232494   3.477   3.659   6.312
10850TIP3    H132495   3.458   3.705   6.231
10850TIP3    H232496   3.447   3.570   6.297
10851TIP3   OH232497   0.033   0.987   5.787
10851TIP3    H132498  -0.015   0.916   5.831
10851TIP3    H232499   0.120   0.984   5.826
10852TIP3   OH232500   3.118   4.125   1.522
10852TIP3    H132501   3.168   4.177   1.584
10852TIP3    H232502   3.028   4.156   1.531
10853TIP3   OH232503   2.398   4.576   6.300
10853TIP3    H132504   2.330   4.598   6.236
10853TIP3    H232505   2.454   4.513   6.255
10854TIP3   OH232506   1.534   4.340   4.951
10854TIP3    H132507   1.599   4.374   4.890
10854TIP3    H232508   1.476   4.287   4.897
10855TIP3   OH232509   2.907   6.581   0.280
10855TIP3    H132510   2.970   6.511   0.297
10855TIP3    H232511   2.956   6.662   0.296
10856TIP3   OH232512   6.173   0.775   4.387
10856TIP3    H132513   6.100   0.817   4.341
10856TIP3    H232514   6.143   0.685   4.402
10857TIP3   OH232515   7.955   3.544   3.867
10857TIP3    H132516   7.910   3.582   3.943
10857TIP3    H232517   7.971   3.453   3.892
10858TIP3   OH232518   3.037   4.341   5.544
10858TIP3    H132519   3.109   4.366   5.602
10858TIP3    H232520   3.055   4.250   5.522
10859TIP3   OH232521   0.479   1.070   1.557
10859TIP3    H132522   0.485   0.975   1.542
10859TIP3    H232523   0.417   1.079   1.629
10860TIP3   OH232524   2.171   3.577   3.810
10860TIP3    H132525   2.196   3.605   3.722
10860TIP3    H232526   2.076   3.587   3.812
10861TIP3   OH232527   5.197   6.873   2.402
10861TIP3    H132528   5.214   6.958   2.361
10861TIP3    H232529   5.135   6.830   2.343
10862TIP3   OH232530   7.042   2.838   2.336
10862TIP3    H132531   7.017   2.817   2.426
10862TIP3    H232532   7.108   2.773   2.314
10863TIP3   OH232533   5.343   1.579   1.933
10863TIP3    H132534   5.311   1.571   1.843
10863TIP3    H232535   5.267   1.606   1.983
10864TIP3   OH232536   7.750   0.287   6.549
10864TIP3    H132537   7.788   0.256   6.467
10864TIP3    H232538   7.775   0.379   6.554
10865TIP3   OH232539   0.502   0.095   6.083
10865TIP3    H132540   0.562   0.136   6.021
10865TIP3    H232541   0.424   0.151   6.081
10866TIP3   OH232542   5.598   3.531   5.400
10866TIP3    H132543   5.536   3.459   5.414
10866TIP3    H232544   5.684   3.489   5.405
10867TIP3   OH232545   2.098   3.152   3.082
10867TIP3    H132546   2.186   3.165   3.045
10867TIP3    H232547   2.112   3.146   3.176
10868TIP3   OH232548   7.193   6.325   1.379
10868TIP3    H132549   7.113   6.350   1.425
10868TIP3    H232550   7.181   6.361   1.291
10869TIP3   OH232551   2.034   0.666   5.398
10869TIP3    H132552   1.963   0.730   5.401
10869TIP3    H232553   1.990   0.581   5.404
10870TIP3   OH232554   4.617   7.183   6.371
10870TIP3    H132555   4.615   7.174   6.276
10870TIP3    H232556   4.696   7.234   6.389
10871TIP3   OH232557   3.145   2.521   1.226
10871TIP3    H132558   3.126   2.473   1.146
10871TIP3    H232559   3.138   2.455   1.296
10872TIP3   OH232560   1.428   0.306   1.735
10872TIP3    H132561   1.516   0.341   1.747
10872TIP3    H232562   1.431   0.262   1.650
10873TIP3   OH232563   5.830   4.928   3.845
10873TIP3    H132564   5.809   4.996   3.909
10873TIP3    H232565   5.749   4.878   3.835
10874TIP3   OH232566   5.326   1.369   5.896
10874TIP3    H132567   5.399   1.328   5.851
10874TIP3    H232568   5.288   1.429   5.831
10875TIP3   OH232569   3.465   4.506   0.793
10875TIP3    H132570   3.411   4.531   0.718
10875TIP3    H232571   3.539   4.458   0.755
10876TIP3   OH232572   4.195   4.279   3.244
10876TIP3    H132573   4.153   4.198   3.214
10876TIP3    H232574   4.189   4.338   3.169
10877TIP3   OH232575   3.497   4.017   0.476
10877TIP3    H132576   3.441   4.081   0.433
10877TIP3    H232577   3.586   4.043   0.453
10878TIP3   OH232578   6.204   4.102   2.513
10878TIP3    H132579   6.170   4.186   2.542
10878TIP3    H232580   6.261   4.122   2.439
10879TIP3   OH232581   1.977   3.280   5.056
10879TIP3    H132582   1.928   3.201   5.079
10879TIP3    H232583   1.971   3.284   4.960
10880TIP3   OH232584   7.938   7.308   5.132
10880TIP3    H132585   7.917   7.367   5.060
10880TIP3    H232586   7.873   7.239   5.126
10881TIP3   OH232587   3.317   4.621   2.509
10881TIP3    H132588   3.343   4.533   2.483
10881TIP3    H232589   3.399   4.665   2.532
10882TIP3   OH232590   2.804   5.464   1.692
10882TIP3    H132591   2.853   5.428   1.619
10882TIP3    H232592   2.837   5.553   1.703
10883TIP3   OH232593   2.454   4.252   6.713
10883TIP3    H132594   2.398   4.305   6.656
10883TIP3    H232595   2.413   4.166   6.714
10884TIP3   OH232596   5.071   4.253   4.279
10884TIP3    H132597   5.033   4.330   4.322
10884TIP3    H232598   5.143   4.227   4.337
10885TIP3   OH232599   3.097   7.315   3.146
10885TIP3    H132600   3.091   7.233   3.096
10885TIP3    H232601   3.014   7.320   3.193
10886TIP3   OH232602   2.894   1.806   5.626
10886TIP3    H132603   2.888   1.721   5.671
10886TIP3    H232604   2.808   1.846   5.637
10887TIP3   OH232605   3.856   1.396   4.269
10887TIP3    H132606   3.925   1.330   4.278
10887TIP3    H232607   3.804   1.388   4.348
10888TIP3   OH232608   3.546   1.297   1.701
10888TIP3    H132609   3.633   1.269   1.672
10888TIP3    H232610   3.557   1.322   1.792
10889TIP3   OH232611   6.225   1.685   2.482
10889TIP3    H132612   6.250   1.668   2.573
10889TIP3    H232613   6.137   1.648   2.475
10890TIP3   OH232614   0.166   3.092   3.234
10890TIP3    H132615   0.134   3.077   3.323
10890TIP3    H232616   0.139   3.181   3.213
10891TIP3   OH232617   6.568   0.145   0.294
10891TIP3    H132618   6.539   0.109   0.378
10891TIP3    H232619   6.505   0.213   0.274
10892TIP3   OH232620   1.431   0.849   5.177
10892TIP3    H132621   1.383   0.766   5.176
10892TIP3    H232622   1.469   0.855   5.089
10893TIP3   OH232623   0.492   4.543   6.242
10893TIP3    H132624   0.574   4.586   6.266
10893TIP3    H232625   0.492   4.542   6.146
10894TIP3   OH232626   7.316   5.821   1.101
10894TIP3    H132627   7.409   5.816   1.081
10894TIP3    H232628   7.273   5.798   1.018
10895TIP3   OH232629   2.314   2.393   4.597
10895TIP3    H132630   2.239   2.335   4.579
10895TIP3    H232631   2.277   2.464   4.649
10896TIP3   OH232632   4.659   2.903   3.515
10896TIP3    H132633   4.699   2.949   3.588
10896TIP3    H232634   4.565   2.901   3.536
10897TIP3   OH232635   6.138   0.551   2.482
10897TIP3    H132636   6.219   0.570   2.434
10897TIP3    H232637   6.162   0.560   2.574
10898TIP3   OH232638   0.378   2.992   3.081
10898TIP3    H132639   0.360   3.025   2.993
10898TIP3    H232640   0.300   3.015   3.132
10899TIP3   OH232641   7.753   3.464   0.672
10899TIP3    H132642   7.811   3.430   0.740
10899TIP3    H232643   7.743   3.557   0.692
10900TIP3   OH232644   6.711   6.188   2.263
10900TIP3    H132645   6.803   6.209   2.245
10900TIP3    H232646   6.662   6.253   2.212
10901TIP3   OH232647   3.331   0.426   2.408
10901TIP3    H132648   3.362   0.358   2.467
10901TIP3    H232649   3.255   0.464   2.452
10902TIP3   OH232650   1.264   3.347   6.680
10902TIP3    H132651   1.258   3.287   6.755
10902TIP3    H232652   1.287   3.431   6.720
10903TIP3   OH232653   2.201   1.967   4.667
10903TIP3    H132654   2.176   1.893   4.723
10903TIP3    H232655   2.259   1.928   4.601
10904TIP3   OH232656   3.989   3.047   3.909
10904TIP3    H132657   3.930   3.021   3.980
10904TIP3    H232658   3.960   2.995   3.834
10905TIP3   OH232659   8.110   2.362   3.166
10905TIP3    H132660   8.128   2.456   3.176
10905TIP3    H232661   8.196   2.322   3.160
10906TIP3   OH232662   1.879   2.058   4.012
10906TIP3    H132663   1.843   2.095   4.092
10906TIP3    H232664   1.973   2.079   4.017
10907TIP3   OH232665   2.035   6.579   2.673
10907TIP3    H132666   2.039   6.530   2.591
10907TIP3    H232667   2.126   6.584   2.702
10908TIP3   OH232668   3.829   6.551   6.488
10908TIP3    H132669   3.895   6.510   6.433
10908TIP3    H232670   3.871   6.630   6.522
10909TIP3   OH232671   5.021   7.798   3.135
10909TIP3    H132672   5.039   7.753   3.217
10909TIP3    H232673   5.053   7.887   3.149
10910TIP3   OH232674   5.769   4.557   5.138
10910TIP3    H132675   5.736   4.645   5.158
10910TIP3    H232676   5.843   4.545   5.198
10911TIP3   OH232677   6.269   0.121   0.175
10911TIP3    H132678   6.229   0.208   0.183
10911TIP3    H232679   6.300   0.117   0.085
10912TIP3   OH232680   4.312   2.276   0.394
10912TIP3    H132681   4.349   2.193   0.425
10912TIP3    H232682   4.388   2.324   0.361
10913TIP3   OH232683   7.886   2.275   5.320
10913TIP3    H132684   7.818   2.207   5.330
10913TIP3    H232685   7.846   2.339   5.261
10914TIP3   OH232686   1.728   2.619   2.217
10914TIP3    H132687   1.722   2.564   2.295
10914TIP3    H232688   1.794   2.577   2.162
10915TIP3   OH232689   7.984   4.944   4.196
10915TIP3    H132690   8.054   4.908   4.249
10915TIP3    H232691   7.910   4.953   4.257
10916TIP3   OH232692   2.270   5.660   4.075
10916TIP3    H132693   2.220   5.706   4.008
10916TIP3    H232694   2.320   5.729   4.119
10917TIP3   OH232695   1.210   7.479   4.251
10917TIP3    H132696   1.253   7.399   4.280
10917TIP3    H232697   1.233   7.486   4.158
10918TIP3   OH232698   7.598   2.494   1.651
10918TIP3    H132699   7.662   2.522   1.586
10918TIP3    H232700   7.562   2.576   1.685
10919TIP3   OH232701   1.076   2.214   1.108
10919TIP3    H132702   1.076   2.239   1.201
10919TIP3    H232703   1.138   2.275   1.067
10920TIP3   OH232704   3.889   2.835   1.427
10920TIP3    H132705   3.831   2.896   1.380
10920TIP3    H232706   3.972   2.841   1.380
10921TIP3   OH232707   7.552   1.635   1.434
10921TIP3    H132708   7.482   1.687   1.394
10921TIP3    H232709   7.557   1.556   1.380
10922TIP3   OH232710   3.060   2.188   1.121
10922TIP3    H132711   2.994   2.124   1.095
10922TIP3    H232712   3.044   2.263   1.064
10923TIP3   OH232713   3.894   0.278   5.781
10923TIP3    H132714   3.851   0.211   5.728
10923TIP3    H232715   3.859   0.266   5.869
10924TIP3   OH232716   0.623   1.398   6.346
10924TIP3    H132717   0.554   1.380   6.282
10924TIP3    H232718   0.701   1.414   6.293
10925TIP3   OH232719   0.048   5.046   3.452
10925TIP3    H132720   0.097   4.983   3.398
10925TIP3    H232721   0.001   4.991   3.515
10926TIP3   OH232722   4.943   7.340   2.055
10926TIP3    H132723   4.905   7.428   2.055
10926TIP3    H232724   4.961   7.322   2.148
10927TIP3   OH232725   0.783   0.059   5.761
10927TIP3    H132726   0.830   0.065   5.844
10927TIP3    H232727   0.695   0.090   5.780
10928TIP3   OH232728   0.127   1.431  -0.003
10928TIP3    H132729   0.106   1.505   0.055
10928TIP3    H232730   0.042   1.391  -0.023
10929TIP3   OH232731   7.441   5.712   6.698
10929TIP3    H132732   7.368   5.698   6.758
10929TIP3    H232733   7.514   5.663   6.736
10930TIP3   OH232734   4.286   3.365   6.722
10930TIP3    H132735   4.281   3.308   6.645
10930TIP3    H232736   4.194   3.386   6.742
10931TIP3   OH232737   2.855   3.755   3.245
10931TIP3    H132738   2.933   3.714   3.207
10931TIP3    H232739   2.886   3.795   3.326
10932TIP3   OH232740   7.495   6.867   4.021
10932TIP3    H132741   7.520   6.957   3.998
10932TIP3    H232742   7.520   6.815   3.944
10933TIP3   OH232743   1.380   3.637   2.904
10933TIP3    H132744   1.396   3.729   2.886
10933TIP3    H232745   1.311   3.637   2.971
10934TIP3   OH232746   4.386   5.971   5.933
10934TIP3    H132747   4.458   6.008   5.882
10934TIP3    H232748   4.314   6.033   5.921
10935TIP3   OH232749   1.559   7.430   1.924
10935TIP3    H132750   1.626   7.497   1.940
10935TIP3    H232751   1.550   7.385   2.007
10936TIP3   OH232752   2.087   0.506   0.030
10936TIP3    H132753   2.061   0.573   0.092
10936TIP3    H232754   2.044   0.532  -0.052
10937TIP3   OH232755   0.741   2.270   2.424
10937TIP3    H132756   0.809   2.233   2.367
10937TIP3    H232757   0.676   2.306   2.364
10938TIP3   OH232758   7.813   4.524   4.472
10938TIP3    H132759   7.881   4.537   4.538
10938TIP3    H232760   7.769   4.443   4.499
10939TIP3   OH232761   7.498   3.449   0.875
10939TIP3    H132762   7.587   3.439   0.909
10939TIP3    H232763   7.482   3.543   0.877
10940TIP3   OH232764   6.765   4.950   1.205
10940TIP3    H132765   6.679   4.961   1.246
10940TIP3    H232766   6.816   5.026   1.236
10941TIP3   OH232767   8.015   1.571   6.745
10941TIP3    H132768   8.002   1.510   6.818
10941TIP3    H232769   7.996   1.519   6.667
10942TIP3   OH232770   1.696   5.450   1.911
10942TIP3    H132771   1.688   5.529   1.859
10942TIP3    H232772   1.774   5.464   1.964
10943TIP3   OH232773   4.258   2.319   6.022
10943TIP3    H132774   4.200   2.243   6.029
10943TIP3    H232775   4.334   2.296   6.076
10944TIP3   OH232776   1.585   2.077   6.140
10944TIP3    H132777   1.543   2.106   6.059
10944TIP3    H232778   1.659   2.025   6.111
10945TIP3   OH232779   2.980   1.326   0.194
10945TIP3    H132780   3.058   1.344   0.247
10945TIP3    H232781   2.934   1.410   0.190
10946TIP3   OH232782   6.858   1.936   3.521
10946TIP3    H132783   6.767   1.964   3.534
10946TIP3    H232784   6.887   1.986   3.445
10947TIP3   OH232785   5.145   2.604   6.514
10947TIP3    H132786   5.049   2.602   6.525
10947TIP3    H232787   5.171   2.690   6.547
10948TIP3   OH232788   2.223   5.078   0.465
10948TIP3    H132789   2.182   5.084   0.552
10948TIP3    H232790   2.225   5.167   0.433
10949TIP3   OH232791   4.991   4.810   1.370
10949TIP3    H132792   4.953   4.781   1.287
10949TIP3    H232793   5.072   4.759   1.378
10950TIP3   OH232794   2.113   1.730   5.450
10950TIP3    H132795   2.144   1.641   5.435
10950TIP3    H232796   2.054   1.748   5.376
10951TIP3   OH232797   3.794   0.716   5.873
10951TIP3    H132798   3.858   0.767   5.921
10951TIP3    H232799   3.712   0.730   5.921
10952TIP3   OH232800   3.597   3.389   2.608
10952TIP3    H132801   3.649   3.312   2.633
10952TIP3    H232802   3.516   3.352   2.572
10953TIP3   OH232803   6.345   4.946   5.715
10953TIP3    H132804   6.416   4.977   5.658
10953TIP3    H232805   6.294   4.887   5.660
10954TIP3   OH232806   6.118   4.727   5.888
10954TIP3    H132807   6.176   4.737   5.813
10954TIP3    H232808   6.091   4.635   5.887
10955TIP3   OH232809   3.943   0.760   4.178
10955TIP3    H132810   3.852   0.743   4.200
10955TIP3    H232811   3.970   0.829   4.239
10956TIP3   OH232812   1.585   4.389   0.516
10956TIP3    H132813   1.571   4.319   0.580
10956TIP3    H232814   1.557   4.469   0.561
10957TIP3   OH232815   7.073   0.049   6.721
10957TIP3    H132816   6.984   0.022   6.742
10957TIP3    H232817   7.128  -0.004   6.779
10958TIP3   OH232818   1.849   2.948   2.266
10958TIP3    H132819   1.937   2.911   2.265
10958TIP3    H232820   1.808   2.911   2.344
10959TIP3   OH232821   2.118   7.148   6.756
10959TIP3    H132822   2.138   7.059   6.784
10959TIP3    H232823   2.202   7.185   6.731
10960TIP3   OH232824   7.449   6.890   0.813
10960TIP3    H132825   7.393   6.941   0.755
10960TIP3    H232826   7.408   6.803   0.816
10961TIP3   OH232827   3.178   5.107   3.602
10961TIP3    H132828   3.250   5.080   3.658
10961TIP3    H232829   3.150   5.192   3.636
10962TIP3   OH232830   0.488   6.976   6.288
10962TIP3    H132831   0.577   6.945   6.305
10962TIP3    H232832   0.499   7.064   6.253
10963TIP3   OH232833   6.252   2.289   1.471
10963TIP3    H132834   6.188   2.353   1.503
10963TIP3    H232835   6.327   2.342   1.444
10964TIP3   OH232836   0.071   0.667   6.641
10964TIP3    H132837   0.142   0.652   6.703
10964TIP3    H232838  -0.008   0.662   6.694
10965TIP3   OH232839   4.478   7.478   0.180
10965TIP3    H132840   4.417   7.406   0.195
10965TIP3    H232841   4.476   7.493   0.086
10966TIP3   OH232842   4.284   0.282   1.794
10966TIP3    H132843   4.226   0.356   1.777
10966TIP3    H232844   4.301   0.286   1.888
10967TIP3   OH232845   3.345   6.131   2.020
10967TIP3    H132846   3.351   6.071   2.095
10967TIP3    H232847   3.362   6.076   1.944
10968TIP3   OH232848   4.867   3.594   1.976
10968TIP3    H132849   4.819   3.575   2.057
10968TIP3    H232850   4.839   3.527   1.915
10969TIP3   OH232851   5.873   5.248   2.516
10969TIP3    H132852   5.803   5.260   2.581
10969TIP3    H232853   5.884   5.153   2.510
10970TIP3   OH232854   1.682   0.862   4.213
10970TIP3    H132855   1.611   0.894   4.269
10970TIP3    H232856   1.643   0.790   4.164
10971TIP3   OH232857   1.074   0.128   2.924
10971TIP3    H132858   1.081   0.199   2.859
10971TIP3    H232859   1.157   0.132   2.972
10972TIP3   OH232860   6.558   3.963   4.589
10972TIP3    H132861   6.485   4.020   4.613
10972TIP3    H232862   6.599   3.941   4.673
10973TIP3   OH232863   3.803   4.355   3.088
10973TIP3    H132864   3.755   4.292   3.143
10973TIP3    H232865   3.813   4.433   3.143
10974TIP3   OH232866   4.455   5.540   2.605
10974TIP3    H132867   4.445   5.446   2.614
10974TIP3    H232868   4.467   5.554   2.511
10975TIP3   OH232869   6.949   1.482   2.578
10975TIP3    H132870   7.012   1.515   2.642
10975TIP3    H232871   6.880   1.548   2.577
10976TIP3   OH232872   1.284   2.619   3.014
10976TIP3    H132873   1.242   2.705   3.019
10976TIP3    H232874   1.214   2.558   2.993
10977TIP3   OH232875   0.791   5.907   2.497
10977TIP3    H132876   0.805   5.948   2.412
10977TIP3    H232877   0.833   5.965   2.560
10978TIP3   OH232878   6.057   1.321   3.333
10978TIP3    H132879   6.033   1.398   3.281
10978TIP3    H232880   5.985   1.311   3.395
10979TIP3   OH232881   1.588   3.826   2.520
10979TIP3    H132882   1.587   3.800   2.428
10979TIP3    H232883   1.670   3.875   2.529
10980TIP3   OH232884   2.309   3.151   2.894
10980TIP3    H132885   2.270   3.228   2.853
10980TIP3    H232886   2.270   3.076   2.848
10981TIP3   OH232887   4.458   3.646   2.389
10981TIP3    H132888   4.463   3.727   2.337
10981TIP3    H232889   4.484   3.577   2.328
10982TIP3   OH232890   5.569   6.857   1.114
10982TIP3    H132891   5.547   6.802   1.190
10982TIP3    H232892   5.565   6.947   1.148
10983TIP3   OH232893   2.633   3.512   6.038
10983TIP3    H132894   2.542   3.488   6.017
10983TIP3    H232895   2.675   3.520   5.953
10984TIP3   OH232896   3.452   1.858   4.731
10984TIP3    H132897   3.443   1.945   4.692
10984TIP3    H232898   3.368   1.842   4.774
10985TIP3   OH232899   2.583   3.962   5.964
10985TIP3    H132900   2.507   4.019   5.976
10985TIP3    H232901   2.658   4.021   5.971
10986TIP3   OH232902   1.333   5.364   6.394
10986TIP3    H132903   1.325   5.352   6.299
10986TIP3    H232904   1.400   5.432   6.404
10987TIP3   OH232905   3.688   2.446   5.685
10987TIP3    H132906   3.715   2.534   5.659
10987TIP3    H232907   3.746   2.423   5.757
10988TIP3   OH232908   6.038   5.073   6.453
10988TIP3    H132909   6.047   5.039   6.542
10988TIP3    H232910   6.005   5.162   6.464
10989TIP3   OH232911   7.824   7.085   1.248
10989TIP3    H132912   7.735   7.113   1.270
10989TIP3    H232913   7.815   7.040   1.164
10990TIP3   OH232914   5.670   2.787   3.446
10990TIP3    H132915   5.712   2.867   3.413
10990TIP3    H232916   5.579   2.795   3.418
10991TIP3   OH232917   4.480   3.388   0.561
10991TIP3    H132918   4.571   3.371   0.583
10991TIP3    H232919   4.430   3.331   0.620
10992TIP3   OH232920   3.316   4.891   4.436
10992TIP3    H132921   3.390   4.918   4.490
10992TIP3    H232922   3.281   4.973   4.400
10993TIP3   OH232923   2.274   1.838   0.331
10993TIP3    H132924   2.346   1.777   0.350
10993TIP3    H232925   2.268   1.892   0.410
10994TIP3   OH232926   1.142   0.640   2.090
10994TIP3    H132927   1.185   0.566   2.048
10994TIP3    H232928   1.049   0.626   2.074
10995TIP3   OH232929   6.331   2.900   4.263
10995TIP3    H132930   6.261   2.900   4.328
10995TIP3    H232931   6.285   2.908   4.179
10996TIP3   OH232932   2.537   1.046   0.010
10996TIP3    H132933   2.558   1.133  -0.024
10996TIP3    H232934   2.566   1.049   0.102
10997TIP3   OH232935   3.183   1.408   0.609
10997TIP3    H132936   3.125   1.339   0.641
10997TIP3    H232937   3.261   1.402   0.663
10998TIP3   OH232938   5.998   6.529   4.662
10998TIP3    H132939   5.993   6.622   4.640
10998TIP3    H232940   5.915   6.492   4.631
10999TIP3   OH232941   4.554   1.718   5.155
10999TIP3    H132942   4.621   1.665   5.198
10999TIP3    H232943   4.495   1.744   5.226
11000TIP3   OH232944   7.650   4.987   6.195
11000TIP3    H132945   7.733   4.948   6.225
11000TIP3    H232946   7.597   4.912   6.168
11001TIP3   OH232947   0.892   6.313   5.123
11001TIP3    H132948   0.975   6.265   5.132
11001TIP3    H232949   0.828   6.259   5.169
11002TIP3   OH232950   2.317   3.439   0.256
11002TIP3    H132951   2.403   3.398   0.260
11002TIP3    H232952   2.296   3.440   0.162
11003TIP3   OH232953   4.115   0.085   3.477
11003TIP3    H132954   4.137  -0.008   3.473
11003TIP3    H232955   4.101   0.110   3.385
11004TIP3   OH232956   7.425   6.853   3.330
11004TIP3    H132957   7.466   6.768   3.346
11004TIP3    H232958   7.344   6.851   3.381
11005TIP3   OH232959   8.050   5.227   0.872
11005TIP3    H132960   8.100   5.246   0.951
11005TIP3    H232961   8.038   5.132   0.872
11006TIP3   OH232962   7.104   7.181   3.966
11006TIP3    H132963   7.042   7.153   3.898
11006TIP3    H232964   7.151   7.101   3.990
11007TIP3   OH232965   5.349   2.679   1.155
11007TIP3    H132966   5.293   2.607   1.184
11007TIP3    H232967   5.414   2.688   1.225
11008TIP3   OH232968   6.831   5.300   4.656
11008TIP3    H132969   6.915   5.255   4.651
11008TIP3    H232970   6.798   5.299   4.566
11009TIP3   OH232971   4.872   2.061   3.796
11009TIP3    H132972   4.924   2.048   3.876
11009TIP3    H232973   4.913   2.004   3.731
11010TIP3   OH232974   1.289   4.829   5.498
11010TIP3    H132975   1.245   4.845   5.415
11010TIP3    H232976   1.347   4.755   5.480
11011TIP3   OH232977   5.782   2.521   6.648
11011TIP3    H132978   5.697   2.510   6.606
11011TIP3    H232979   5.845   2.515   6.576
11012TIP3   OH232980   4.406   3.306   3.014
11012TIP3    H132981   4.441   3.395   3.005
11012TIP3    H232982   4.430   3.263   2.932
11013TIP3   OH232983   0.475   2.877   5.241
11013TIP3    H132984   0.555   2.895   5.192
11013TIP3    H232985   0.409   2.935   5.203
11014TIP3   OH232986   0.250   7.195   0.476
11014TIP3    H132987   0.245   7.259   0.547
11014TIP3    H232988   0.277   7.246   0.400
11015TIP3   OH232989   2.134   6.775   5.571
11015TIP3    H132990   2.138   6.808   5.481
11015TIP3    H232991   2.223   6.786   5.605
11016TIP3   OH232992   6.152   2.211   2.079
11016TIP3    H132993   6.120   2.301   2.083
11016TIP3    H232994   6.167   2.195   1.986
11017TIP3   OH232995   2.248   6.329   0.586
11017TIP3    H132996   2.295   6.263   0.637
11017TIP3    H232997   2.242   6.291   0.498
11018TIP3   OH232998   5.864   1.442   3.164
11018TIP3    H132999   5.808   1.394   3.102
11018TIP3    H233000   5.931   1.482   3.108
11019TIP3   OH233001   1.497   5.127   6.225
11019TIP3    H133002   1.563   5.193   6.244
11019TIP3    H233003   1.529   5.083   6.146
11020TIP3   OH233004   7.627   7.853   2.850
11020TIP3    H133005   7.670   7.797   2.914
11020TIP3    H233006   7.606   7.795   2.777
11021TIP3   OH233007   4.184   2.064   2.490
11021TIP3    H133008   4.199   2.142   2.437
11021TIP3    H233009   4.271   2.024   2.498
11022TIP3   OH233010   1.593   4.010   0.520
11022TIP3    H133011   1.582   4.075   0.589
11022TIP3    H233012   1.608   3.927   0.566
11023TIP3   OH233013   3.508   6.947   2.749
11023TIP3    H133014   3.538   6.862   2.780
11023TIP3    H233015   3.587   6.988   2.713
11024TIP3   OH233016   0.474   4.907   6.070
11024TIP3    H133017   0.473   4.837   6.135
11024TIP3    H233018   0.523   4.978   6.112
11025TIP3   OH233019   8.043   2.174   3.920
11025TIP3    H133020   7.949   2.187   3.909
11025TIP3    H233021   8.050   2.123   4.001
11026TIP3   OH233022   7.430   2.555   4.120
11026TIP3    H133023   7.423   2.580   4.028
11026TIP3    H233024   7.370   2.613   4.166
11027TIP3   OH233025   5.781   2.030   3.105
11027TIP3    H133026   5.771   1.954   3.163
11027TIP3    H233027   5.708   2.088   3.129
11028TIP3   OH233028   2.878   0.593   4.402
11028TIP3    H133029   2.787   0.568   4.382
11028TIP3    H233030   2.931   0.522   4.366
11029TIP3   OH233031   2.623   5.643   2.317
11029TIP3    H133032   2.546   5.590   2.332
11029TIP3    H233033   2.690   5.606   2.375
11030TIP3   OH233034   2.497   2.050   2.449
11030TIP3    H133035   2.519   2.011   2.534
11030TIP3    H233036   2.580   2.084   2.416
11031TIP3   OH233037   2.003   4.377   4.383
11031TIP3    H133038   2.060   4.301   4.378
11031TIP3    H233039   2.058   4.450   4.352
11032TIP3   OH233040   8.114   7.670   5.656
11032TIP3    H133041   8.157   7.755   5.643
11032TIP3    H233042   8.115   7.628   5.570
11033TIP3   OH233043   3.034   5.529   0.566
11033TIP3    H133044   2.948   5.570   0.557
11033TIP3    H233045   3.016   5.437   0.579
11034TIP3   OH233046   2.750   0.709   0.961
11034TIP3    H133047   2.837   0.729   0.927
11034TIP3    H233048   2.691   0.734   0.890
11035TIP3   OH233049   4.174   7.311   3.022
11035TIP3    H133050   4.119   7.388   3.037
11035TIP3    H233051   4.216   7.328   2.937
11036TIP3   OH233052   4.538   0.690   5.506
11036TIP3    H133053   4.577   0.608   5.534
11036TIP3    H233054   4.511   0.734   5.587
11037TIP3   OH233055   1.254   5.193   2.670
11037TIP3    H133056   1.314   5.173   2.599
11037TIP3    H233057   1.271   5.285   2.692
11038TIP3   OH233058   1.128   6.446   3.939
11038TIP3    H133059   1.202   6.499   3.910
11038TIP3    H233060   1.157   6.355   3.926
11039TIP3   OH233061   3.366   1.648   3.642
11039TIP3    H133062   3.422   1.573   3.619
11039TIP3    H233063   3.367   1.649   3.738
11040TIP3   OH233064   7.462   6.940   5.982
11040TIP3    H133065   7.407   6.931   6.060
11040TIP3    H233066   7.422   6.882   5.918
11041TIP3   OH233067   2.365   7.544   6.600
11041TIP3    H133068   2.441   7.521   6.655
11041TIP3    H233069   2.396   7.533   6.511
11042TIP3   OH233070   1.964   5.891   0.990
11042TIP3    H133071   2.000   5.938   1.065
11042TIP3    H233072   1.944   5.959   0.927
11043TIP3   OH233073   2.081   0.449   2.955
11043TIP3    H133074   1.988   0.472   2.963
11043TIP3    H233075   2.093   0.376   3.016
11044TIP3   OH233076   6.813   7.244   2.283
11044TIP3    H133077   6.802   7.153   2.309
11044TIP3    H233078   6.734   7.288   2.316
11045TIP3   OH233079   4.953   5.384   1.235
11045TIP3    H133080   4.898   5.357   1.309
11045TIP3    H233081   4.934   5.320   1.167
11046TIP3   OH233082   4.826   1.550   1.255
11046TIP3    H133083   4.835   1.579   1.164
11046TIP3    H233084   4.732   1.537   1.267
11047TIP3   OH233085   4.789   0.235   5.405
11047TIP3    H133086   4.732   0.293   5.355
11047TIP3    H233087   4.732   0.200   5.474
11048TIP3   OH233088   2.204   1.822   2.956
11048TIP3    H133089   2.172   1.732   2.953
11048TIP3    H233090   2.148   1.865   3.022
11049TIP3   OH233091   1.050   4.961   3.289
11049TIP3    H133092   1.097   4.965   3.372
11049TIP3    H233093   0.960   4.985   3.310
11050TIP3   OH233094   1.660   3.310   3.310
11050TIP3    H133095   1.662   3.214   3.315
11050TIP3    H233096   1.615   3.337   3.390
11051TIP3   OH233097   4.861   0.589   1.457
11051TIP3    H133098   4.879   0.677   1.488
11051TIP3    H233099   4.915   0.532   1.513
11052TIP3   OH233100   1.532   2.324   2.917
11052TIP3    H133101   1.593   2.370   2.974
11052TIP3    H233102   1.586   2.259   2.871
11053TIP3   OH233103   8.029   3.873   4.822
11053TIP3    H133104   7.949   3.909   4.861
11053TIP3    H233105   7.997   3.812   4.755
11054TIP3   OH233106   0.391   7.062   1.016
11054TIP3    H133107   0.306   7.030   0.985
11054TIP3    H233108   0.455   7.021   0.957
11055TIP3   OH233109   0.221   7.512   1.325
11055TIP3    H133110   0.238   7.594   1.279
11055TIP3    H233111   0.307   7.471   1.334
11056TIP3   OH233112   7.390   1.351   1.801
11056TIP3    H133113   7.402   1.302   1.719
11056TIP3    H233114   7.460   1.416   1.800
11057TIP3   OH233115   7.347   0.491   1.764
11057TIP3    H133116   7.341   0.461   1.855
11057TIP3    H233117   7.324   0.415   1.712
11058TIP3   OH233118   3.511   4.385   6.628
11058TIP3    H133119   3.475   4.404   6.541
11058TIP3    H233120   3.578   4.452   6.641
11059TIP3   OH233121   1.864   4.718   4.852
11059TIP3    H133122   1.917   4.698   4.775
11059TIP3    H233123   1.866   4.813   4.860
11060TIP3   OH233124   4.406   1.157   6.293
11060TIP3    H133125   4.378   1.065   6.298
11060TIP3    H233126   4.501   1.153   6.303
11061TIP3   OH233127   7.258   6.113   1.519
11061TIP3    H133128   7.297   6.052   1.455
11061TIP3    H233129   7.258   6.197   1.473
11062TIP3   OH233130   4.362   2.276   2.402
11062TIP3    H133131   4.417   2.328   2.461
11062TIP3    H233132   4.425   2.232   2.344
11063TIP3   OH233133   3.181   0.061   2.211
11063TIP3    H133134   3.229  -0.010   2.253
11063TIP3    H233135   3.175   0.034   2.119
11064TIP3   OH233136   2.870   5.921   1.930
11064TIP3    H133137   2.797   5.931   1.991
11064TIP3    H233138   2.886   6.010   1.898
11065TIP3   OH233139   5.263   6.102   4.414
11065TIP3    H133140   5.177   6.141   4.426
11065TIP3    H233141   5.319   6.144   4.480
11066TIP3   OH233142   6.774   2.463   5.925
11066TIP3    H133143   6.860   2.502   5.940
11066TIP3    H233144   6.717   2.537   5.905
11067TIP3   OH233145   2.394   6.120   6.472
11067TIP3    H133146   2.341   6.180   6.420
11067TIP3    H233147   2.460   6.176   6.513
11068TIP3   OH233148   2.259   7.487   0.374
11068TIP3    H133149   2.240   7.454   0.462
11068TIP3    H233150   2.180   7.468   0.324
11069TIP3   OH233151   3.214   7.052   5.952
11069TIP3    H133152   3.139   7.021   6.002
11069TIP3    H233153   3.224   7.143   5.978
11070TIP3   OH233154   7.113   5.338   5.808
11070TIP3    H133155   7.059   5.402   5.763
11070TIP3    H233156   7.201   5.353   5.775
11071TIP3   OH233157   8.119   2.030   3.233
11071TIP3    H133158   8.067   2.068   3.304
11071TIP3    H233159   8.157   1.950   3.271
11072TIP3   OH233160   7.373   0.297   3.407
11072TIP3    H133161   7.340   0.212   3.378
11072TIP3    H233162   7.459   0.305   3.368
11073TIP3   OH233163   2.638   5.227   2.782
11073TIP3    H133164   2.728   5.233   2.748
11073TIP3    H233165   2.650   5.221   2.877
11074TIP3   OH233166   7.223   4.298   0.256
11074TIP3    H133167   7.195   4.229   0.195
11074TIP3    H233168   7.184   4.273   0.340
11075TIP3   OH233169   7.963   7.144   3.290
11075TIP3    H133170   8.034   7.132   3.228
11075TIP3    H233171   7.988   7.093   3.367
11076TIP3   OH233172   7.516   3.530   0.516
11076TIP3    H133173   7.547   3.571   0.436
11076TIP3    H233174   7.594   3.521   0.571
11077TIP3   OH233175   1.741   1.413   0.191
11077TIP3    H133176   1.674   1.450   0.135
11077TIP3    H233177   1.821   1.416   0.138
11078TIP3   OH233178   7.130   4.069   3.986
11078TIP3    H133179   7.172   3.984   3.996
11078TIP3    H233180   7.189   4.130   4.030
11079TIP3   OH233181   2.197   3.581   2.293
11079TIP3    H133182   2.292   3.587   2.282
11079TIP3    H233183   2.165   3.552   2.208
11080TIP3   OH233184   1.718   4.545   1.808
11080TIP3    H133185   1.627   4.521   1.823
11080TIP3    H233186   1.769   4.471   1.842
11081TIP3   OH233187   6.824   2.009   4.204
11081TIP3    H133188   6.894   2.005   4.270
11081TIP3    H233189   6.841   1.934   4.147
11082TIP3   OH233190   0.750   5.133   5.435
11082TIP3    H133191   0.812   5.125   5.508
11082TIP3    H233192   0.721   5.224   5.438
11083TIP3   OH233193   5.500   4.251   0.270
11083TIP3    H133194   5.484   4.279   0.361
11083TIP3    H233195   5.593   4.267   0.257
11084TIP3   OH233196   3.300   6.002   5.463
11084TIP3    H133197   3.269   5.911   5.469
11084TIP3    H233198   3.316   6.015   5.369
11085TIP3   OH233199   2.248   0.833   5.954
11085TIP3    H133200   2.165   0.874   5.982
11085TIP3    H233201   2.293   0.902   5.906
11086TIP3   OH233202   4.453   0.615   6.402
11086TIP3    H133203   4.380   0.565   6.365
11086TIP3    H233204   4.483   0.670   6.330
11087TIP3   OH233205   3.664   4.949   4.151
11087TIP3    H133206   3.580   4.992   4.135
11087TIP3    H233207   3.642   4.866   4.193
11088TIP3   OH233208   0.631   5.465   3.078
11088TIP3    H133209   0.706   5.464   3.017
11088TIP3    H233210   0.667   5.500   3.159
11089TIP3   OH233211   5.416   5.049   0.363
11089TIP3    H133212   5.416   5.001   0.281
11089TIP3    H233213   5.465   5.129   0.345
11090TIP3   OH233214   7.546   3.677   1.496
11090TIP3    H133215   7.517   3.751   1.443
11090TIP3    H233216   7.534   3.601   1.439
11091TIP3   OH233217   0.695   0.803   3.449
11091TIP3    H133218   0.732   0.731   3.499
11091TIP3    H233219   0.670   0.868   3.515
11092TIP3   OH233220   0.069   2.987   5.595
11092TIP3    H133221  -0.009   2.966   5.544
11092TIP3    H233222   0.061   3.080   5.615
11093TIP3   OH233223   3.051   6.057   2.353
11093TIP3    H133224   3.090   6.144   2.364
11093TIP3    H233225   3.101   6.000   2.410
11094TIP3   OH233226   6.362   5.104   4.708
11094TIP3    H133227   6.445   5.063   4.684
11094TIP3    H233228   6.330   5.052   4.782
11095TIP3   OH233229   6.595   0.429   5.025
11095TIP3    H133230   6.548   0.413   4.943
11095TIP3    H233231   6.540   0.493   5.072
11096TIP3   OH233232   3.434   3.246   4.577
11096TIP3    H133233   3.498   3.175   4.577
11096TIP3    H233234   3.356   3.208   4.616
11097TIP3   OH233235   3.915   1.967   5.516
11097TIP3    H133236   3.973   1.930   5.450
11097TIP3    H233237   3.841   1.907   5.519
11098TIP3   OH233238   6.683   3.207   4.640
11098TIP3    H133239   6.631   3.126   4.640
11098TIP3    H233240   6.681   3.237   4.549
11099TIP3   OH233241   2.710   0.070   5.585
11099TIP3    H133242   2.805   0.062   5.589
11099TIP3    H233243   2.690   0.062   5.491
11100TIP3   OH233244   4.124   6.945   2.644
11100TIP3    H133245   4.111   7.037   2.621
11100TIP3    H233246   4.213   6.926   2.616
11101TIP3   OH233247   4.496   6.530   0.139
11101TIP3    H133248   4.447   6.603   0.101
11101TIP3    H233249   4.456   6.451   0.101
11102TIP3   OH233250   2.667   6.944   5.415
11102TIP3    H133251   2.648   6.972   5.505
11102TIP3    H233252   2.581   6.919   5.379
11103TIP3   OH233253   7.161   0.667   0.299
11103TIP3    H133254   7.085   0.690   0.352
11103TIP3    H233255   7.198   0.590   0.343
11104TIP3   OH233256   0.647   5.608   2.754
11104TIP3    H133257   0.631   5.547   2.683
11104TIP3    H233258   0.713   5.565   2.808
11105TIP3   OH233259   6.484   0.273   0.865
11105TIP3    H133260   6.552   0.212   0.892
11105TIP3    H233261   6.404   0.220   0.861
11106TIP3   OH233262   5.143   3.624   2.002
11106TIP3    H133263   5.056   3.616   2.042
11106TIP3    H233264   5.158   3.538   1.963
11107TIP3   OH233265   3.785   4.564   0.347
11107TIP3    H133266   3.705   4.519   0.376
11107TIP3    H233267   3.753   4.645   0.307
11108TIP3   OH233268   0.652   3.837   5.180
11108TIP3    H133269   0.741   3.870   5.194
11108TIP3    H233270   0.648   3.755   5.229
11109TIP3   OH233271   2.330   5.169   0.741
11109TIP3    H133272   2.387   5.094   0.754
11109TIP3    H233273   2.370   5.217   0.668
11110TIP3   OH233274   1.179   3.752   6.412
11110TIP3    H133275   1.179   3.719   6.502
11110TIP3    H233276   1.194   3.846   6.420
11111TIP3   OH233277   5.258   5.457   0.871
11111TIP3    H133278   5.239   5.384   0.929
11111TIP3    H233279   5.248   5.422   0.782
11112TIP3   OH233280   3.682   2.298   2.762
11112TIP3    H133281   3.664   2.291   2.856
11112TIP3    H233282   3.715   2.212   2.738
11113TIP3   OH233283   6.365   5.592   6.134
11113TIP3    H133284   6.431   5.612   6.068
11113TIP3    H233285   6.377   5.499   6.153
11114TIP3   OH233286   0.197   0.145   6.597
11114TIP3    H133287   0.162   0.088   6.665
11114TIP3    H233288   0.143   0.224   6.602
11115TIP3   OH233289   3.993   7.227   3.753
11115TIP3    H133290   3.976   7.309   3.706
11115TIP3    H233291   3.908   7.202   3.789
11116TIP3   OH233292   5.338   0.754   6.364
11116TIP3    H133293   5.350   0.762   6.270
11116TIP3    H233294   5.247   0.780   6.380
11117TIP3   OH233295   0.348   1.012   3.900
11117TIP3    H133296   0.316   1.016   3.991
11117TIP3    H233297   0.337   0.920   3.875
11118TIP3   OH233298   4.928  -0.003   1.679
11118TIP3    H133299   4.853   0.042   1.641
11118TIP3    H233300   5.002   0.055   1.662
11119TIP3   OH233301   4.780   4.731   6.330
11119TIP3    H133302   4.730   4.806   6.361
11119TIP3    H233303   4.715   4.661   6.319
11120TIP3   OH233304   7.464   5.148   4.769
11120TIP3    H133305   7.418   5.220   4.727
11120TIP3    H233306   7.401   5.076   4.769
11121TIP3   OH233307   7.777   7.713   1.612
11121TIP3    H133308   7.780   7.769   1.689
11121TIP3    H233309   7.684   7.701   1.594
11122TIP3   OH233310   2.445   5.657   0.678
11122TIP3    H133311   2.451   5.711   0.599
11122TIP3    H233312   2.428   5.718   0.749
11123TIP3   OH233313   4.258   2.200   3.042
11123TIP3    H133314   4.168   2.190   3.011
11123TIP3    H233315   4.275   2.294   3.038
11124TIP3   OH233316   3.915   5.963   4.286
11124TIP3    H133317   3.941   6.022   4.215
11124TIP3    H233318   3.984   5.897   4.289
11125TIP3   OH233319   1.364   1.703   0.875
11125TIP3    H133320   1.365   1.669   0.786
11125TIP3    H233321   1.406   1.635   0.928
11126TIP3   OH233322   6.759   0.785   2.361
11126TIP3    H133323   6.787   0.721   2.297
11126TIP3    H233324   6.755   0.868   2.313
11127TIP3   OH233325   6.065   7.087   3.680
11127TIP3    H133326   6.040   6.999   3.708
11127TIP3    H233327   6.143   7.073   3.626
11128TIP3   OH233328   3.500   1.851   5.854
11128TIP3    H133329   3.460   1.774   5.815
11128TIP3    H233330   3.527   1.823   5.942
11129TIP3   OH233331   2.730   6.131   4.357
11129TIP3    H133332   2.694   6.163   4.274
11129TIP3    H233333   2.797   6.194   4.381
11130TIP3   OH233334   3.643   7.751   6.304
11130TIP3    H133335   3.629   7.822   6.367
11130TIP3    H233336   3.732   7.765   6.270
11131TIP3   OH233337   7.092   3.702   5.694
11131TIP3    H133338   7.008   3.747   5.707
11131TIP3    H233339   7.146   3.765   5.647
11132TIP3   OH233340   1.306   5.249   0.212
11132TIP3    H133341   1.295   5.216   0.123
11132TIP3    H233342   1.332   5.341   0.201
11133TIP3   OH233343   4.429   6.328   2.434
11133TIP3    H133344   4.461   6.260   2.374
11133TIP3    H233345   4.335   6.331   2.419
11134TIP3   OH233346   3.370   1.383   0.814
11134TIP3    H133347   3.451   1.402   0.861
11134TIP3    H233348   3.307   1.446   0.849
11135TIP3   OH233349   5.913   2.115   2.872
11135TIP3    H133350   5.875   2.117   2.960
11135TIP3    H233351   5.845   2.075   2.818
11136TIP3   OH233352   2.088   6.766   0.746
11136TIP3    H133353   2.175   6.774   0.785
11136TIP3    H233354   2.094   6.814   0.664
11137TIP3   OH233355   1.332   5.606   1.678
11137TIP3    H133356   1.398   5.663   1.637
11137TIP3    H233357   1.250   5.631   1.635
11138TIP3   OH233358   1.110   3.119   2.817
11138TIP3    H133359   1.053   3.113   2.893
11138TIP3    H233360   1.069   3.063   2.751
11139TIP3   OH233361   1.203   3.356   0.596
11139TIP3    H133362   1.251   3.428   0.555
11139TIP3    H233363   1.232   3.356   0.687
11140TIP3   OH233364   4.625   3.731   5.917
11140TIP3    H133365   4.688   3.682   5.864
11140TIP3    H233366   4.539   3.706   5.881
11141TIP3   OH233367   2.211   3.382   2.805
11141TIP3    H133368   2.246   3.468   2.829
11141TIP3    H233369   2.181   3.393   2.715
11142TIP3   OH233370   1.763   1.009   5.955
11142TIP3    H133371   1.788   0.953   5.881
11142TIP3    H233372   1.797   1.096   5.932
11143TIP3   OH233373   0.313   1.763   3.456
11143TIP3    H133374   0.312   1.765   3.360
11143TIP3    H233375   0.370   1.836   3.480
11144TIP3   OH233376   5.085   2.194   1.577
11144TIP3    H133377   4.994   2.184   1.549
11144TIP3    H233378   5.137   2.168   1.501
11145TIP3   OH233379   4.385   2.750   5.073
11145TIP3    H133380   4.369   2.656   5.067
11145TIP3    H233381   4.318   2.782   5.134
11146TIP3   OH233382   0.014   1.006   0.710
11146TIP3    H133383   0.101   1.026   0.745
11146TIP3    H233384   0.029   0.932   0.651
11147TIP3   OH233385   2.944   6.881   4.674
11147TIP3    H133386   2.946   6.967   4.715
11147TIP3    H233387   2.903   6.824   4.739
11148TIP3   OH233388   4.076   7.353   0.796
11148TIP3    H133389   4.066   7.268   0.754
11148TIP3    H233390   4.038   7.416   0.735
11149TIP3   OH233391   4.358   6.492   4.609
11149TIP3    H133392   4.386   6.532   4.526
11149TIP3    H233393   4.339   6.401   4.587
11150TIP3   OH233394   6.321   3.805   0.457
11150TIP3    H133395   6.314   3.782   0.550
11150TIP3    H233396   6.407   3.847   0.449
11151TIP3   OH233397   5.849   5.761   2.895
11151TIP3    H133398   5.899   5.726   2.969
11151TIP3    H233399   5.813   5.683   2.852
11152TIP3   OH233400   0.064   4.358   0.626
11152TIP3    H133401   0.024   4.340   0.541
11152TIP3    H233402   0.098   4.273   0.655
11153TIP3   OH233403   3.275   3.909   0.680
11153TIP3    H133404   3.353   3.927   0.733
11153TIP3    H233405   3.239   3.995   0.660
11154TIP3   OH233406   7.500   1.174   2.634
11154TIP3    H133407   7.589   1.172   2.671
11154TIP3    H233408   7.509   1.224   2.553
11155TIP3   OH233409   2.142   7.545   4.646
11155TIP3    H133410   2.166   7.622   4.595
11155TIP3    H233411   2.064   7.571   4.694
11156TIP3   OH233412   3.968   5.262   2.087
11156TIP3    H133413   3.908   5.190   2.107
11156TIP3    H233414   3.932   5.303   2.008
11157TIP3   OH233415   0.704   6.659   2.116
11157TIP3    H133416   0.790   6.671   2.156
11157TIP3    H233417   0.711   6.575   2.069
11158TIP3   OH233418   7.299   7.248   6.433
11158TIP3    H133419   7.289   7.163   6.476
11158TIP3    H233420   7.336   7.228   6.347
11159TIP3   OH233421   1.721   1.150   0.815
11159TIP3    H133422   1.717   1.072   0.760
11159TIP3    H233423   1.637   1.193   0.802
11160TIP3   OH233424   2.132   4.086   5.839
11160TIP3    H133425   2.134   3.991   5.826
11160TIP3    H233426   2.050   4.114   5.799
11161TIP3   OH233427   1.626   2.440   4.206
11161TIP3    H133428   1.565   2.512   4.223
11161TIP3    H233429   1.630   2.435   4.111
11162TIP3   OH233430   3.077   7.783   3.375
11162TIP3    H133431   3.067   7.693   3.409
11162TIP3    H233432   3.163   7.810   3.406
11163TIP3   OH233433   2.474   7.281   6.316
11163TIP3    H133434   2.430   7.232   6.386
11163TIP3    H233435   2.547   7.225   6.289
11164TIP3   OH233436   0.497   2.930   5.938
11164TIP3    H133437   0.536   2.929   5.851
11164TIP3    H233438   0.446   3.011   5.941
11165TIP3   OH233439   5.811   4.471   3.137
11165TIP3    H133440   5.890   4.518   3.109
11165TIP3    H233441   5.842   4.386   3.167
11166TIP3   OH233442   7.714   5.738   2.134
11166TIP3    H133443   7.661   5.705   2.206
11166TIP3    H233444   7.798   5.759   2.174
11167TIP3   OH233445   4.205   3.674   0.278
11167TIP3    H133446   4.256   3.701   0.202
11167TIP3    H233447   4.266   3.622   0.331
11168TIP3   OH233448   7.952   2.745   5.627
11168TIP3    H133449   7.936   2.684   5.700
11168TIP3    H233450   7.968   2.829   5.670
11169TIP3   OH233451   0.950   5.911   3.674
11169TIP3    H133452   0.909   5.870   3.598
11169TIP3    H233453   1.022   5.853   3.697
11170TIP3   OH233454   3.461   7.266   4.703
11170TIP3    H133455   3.386   7.261   4.763
11170TIP3    H233456   3.519   7.330   4.742
11171TIP3   OH233457   0.575   6.737   2.568
11171TIP3    H133458   0.640   6.678   2.530
11171TIP3    H233459   0.492   6.690   2.560
11172TIP3   OH233460   7.859   5.333   5.887
11172TIP3    H133461   7.916   5.317   5.962
11172TIP3    H233462   7.806   5.253   5.879
11173TIP3   OH233463   7.936   1.323   2.876
11173TIP3    H133464   8.013   1.352   2.827
11173TIP3    H233465   7.883   1.401   2.887
11174TIP3   OH233466   3.453   6.413   6.082
11174TIP3    H133467   3.511   6.401   6.007
11174TIP3    H233468   3.397   6.486   6.057
11175TIP3   OH233469   7.352   7.056   0.502
11175TIP3    H133470   7.363   7.105   0.583
11175TIP3    H233471   7.414   7.097   0.441
11176TIP3   OH233472   4.288   4.066   2.099
11176TIP3    H133473   4.294   4.058   2.194
11176TIP3    H233474   4.230   3.995   2.072
11177TIP3   OH233475   5.621   0.894   5.554
11177TIP3    H133476   5.546   0.862   5.603
11177TIP3    H233477   5.587   0.908   5.465
11178TIP3   OH233478   3.725   4.405   3.452
11178TIP3    H133479   3.691   4.439   3.535
11178TIP3    H233480   3.818   4.387   3.471
11179TIP3   OH233481   7.254   7.138   4.326
11179TIP3    H133482   7.181   7.144   4.389
11179TIP3    H233483   7.275   7.045   4.322
11180TIP3   OH233484   3.822   7.060   0.893
11180TIP3    H133485   3.750   7.101   0.940
11180TIP3    H233486   3.807   6.966   0.905
11181TIP3   OH233487   6.283   2.357   6.519
11181TIP3    H133488   6.230   2.415   6.464
11181TIP3    H233489   6.223   2.327   6.588
11182TIP3   OH233490   1.415   6.116   3.383
11182TIP3    H133491   1.362   6.185   3.423
11182TIP3    H233492   1.422   6.049   3.451
11183TIP3   OH233493   4.580   0.626   1.889
11183TIP3    H133494   4.491   0.660   1.880
11183TIP3    H233495   4.579   0.543   1.842
11184TIP3   OH233496   8.117   5.785   4.918
11184TIP3    H133497   8.209   5.786   4.946
11184TIP3    H233498   8.101   5.874   4.886
11185TIP3   OH233499   7.155   5.130   1.212
11185TIP3    H133500   7.097   5.184   1.158
11185TIP3    H233501   7.120   5.138   1.301
11186TIP3   OH233502   6.460   4.568   1.624
11186TIP3    H133503   6.432   4.653   1.659
11186TIP3    H233504   6.382   4.533   1.582
11187TIP3   OH233505   8.139   4.786   4.358
11187TIP3    H133506   8.057   4.764   4.401
11187TIP3    H233507   8.204   4.784   4.427
11188TIP3   OH233508   0.965   0.887   4.894
11188TIP3    H133509   0.880   0.926   4.916
11188TIP3    H233510   0.944   0.804   4.853
11189TIP3   OH233511   7.092   7.244   0.413
11189TIP3    H133512   7.119   7.154   0.397
11189TIP3    H233513   7.139   7.296   0.347
11190TIP3   OH233514   1.192   4.185   0.706
11190TIP3    H133515   1.155   4.209   0.791
11190TIP3    H233516   1.118   4.154   0.654
11191TIP3   OH233517   5.603   4.133   4.488
11191TIP3    H133518   5.539   4.081   4.535
11191TIP3    H233519   5.675   4.145   4.550
11192TIP3   OH233520   3.813   1.827   3.048
11192TIP3    H133521   3.753   1.897   3.020
11192TIP3    H233522   3.837   1.782   2.967
11193TIP3   OH233523   7.097   3.725   2.700
11193TIP3    H133524   7.025   3.781   2.672
11193TIP3    H233525   7.095   3.730   2.796
11194TIP3   OH233526   0.684   5.240   2.771
11194TIP3    H133527   0.754   5.281   2.719
11194TIP3    H233528   0.704   5.147   2.768
11195TIP3   OH233529   4.191   1.786   2.388
11195TIP3    H133530   4.212   1.873   2.422
11195TIP3    H233531   4.220   1.787   2.297
11196TIP3   OH233532   5.664   6.050   1.082
11196TIP3    H133533   5.748   6.096   1.088
11196TIP3    H233534   5.599   6.114   1.111
11197TIP3   OH233535   3.685   4.470   1.190
11197TIP3    H133536   3.619   4.422   1.139
11197TIP3    H233537   3.743   4.402   1.224
11198TIP3   OH233538   4.152   4.153   0.661
11198TIP3    H133539   4.241   4.118   0.668
11198TIP3    H233540   4.119   4.150   0.751
11199TIP3   OH233541   7.928   3.074   4.890
11199TIP3    H133542   8.023   3.070   4.877
11199TIP3    H233543   7.914   3.037   4.977
11200TIP3   OH233544   6.593   4.913   3.198
11200TIP3    H133545   6.630   4.849   3.258
11200TIP3    H233546   6.560   4.983   3.255
11201TIP3   OH233547   5.314   6.139   4.865
11201TIP3    H133548   5.266   6.058   4.885
11201TIP3    H233549   5.364   6.157   4.944
11202TIP3   OH233550   1.880   7.620   4.771
11202TIP3    H133551   1.861   7.583   4.684
11202TIP3    H233552   1.812   7.583   4.828
11203TIP3   OH233553   2.040   4.583   2.864
11203TIP3    H133554   2.086   4.579   2.781
11203TIP3    H233555   2.097   4.536   2.926
11204TIP3   OH233556   5.605   1.333   5.680
11204TIP3    H133557   5.660   1.263   5.645
11204TIP3    H233558   5.631   1.411   5.631
11205TIP3   OH233559   3.520   4.459   2.307
11205TIP3    H133560   3.583   4.422   2.369
11205TIP3    H233561   3.567   4.463   2.224
11206TIP3   OH233562   4.298   6.610   2.954
11206TIP3    H133563   4.259   6.696   2.936
11206TIP3    H233564   4.393   6.627   2.954
11207TIP3   OH233565   4.791   6.520   1.706
11207TIP3    H133566   4.801   6.444   1.764
11207TIP3    H233567   4.701   6.512   1.673
11208TIP3   OH233568   6.871   2.298   2.711
11208TIP3    H133569   6.962   2.292   2.683
11208TIP3    H233570   6.875   2.311   2.805
11209TIP3   OH233571   0.316   1.437   0.767
11209TIP3    H133572   0.336   1.447   0.860
11209TIP3    H233573   0.386   1.381   0.733
11210TIP3   OH233574   7.552   5.584   4.065
11210TIP3    H133575   7.615   5.626   4.125
11210TIP3    H233576   7.604   5.562   3.988
11211TIP3   OH233577   1.306   1.887   0.345
11211TIP3    H133578   1.365   1.817   0.316
11211TIP3    H233579   1.277   1.928   0.264
11212TIP3   OH233580   5.494   0.668   4.401
11212TIP3    H133581   5.508   0.578   4.432
11212TIP3    H233582   5.463   0.657   4.311
11213TIP3   OH233583   5.790   0.608   2.270
11213TIP3    H133584   5.759   0.518   2.258
11213TIP3    H233585   5.713   0.655   2.304
11214TIP3   OH233586   0.360   2.098   2.558
11214TIP3    H133587   0.441   2.138   2.592
11214TIP3    H233588   0.386   2.009   2.534
11215TIP3   OH233589   0.283   0.108   6.345
11215TIP3    H133590   0.257   0.118   6.437
11215TIP3    H233591   0.301   0.198   6.316
11216TIP3   OH233592   7.745   1.345   2.128
11216TIP3    H133593   7.807   1.338   2.056
11216TIP3    H233594   7.660   1.322   2.088
11217TIP3   OH233595   0.736   6.101   0.948
11217TIP3    H133596   0.662   6.043   0.930
11217TIP3    H233597   0.806   6.068   0.892
11218TIP3   OH233598   4.680   6.256   4.804
11218TIP3    H133599   4.677   6.170   4.846
11218TIP3    H233600   4.615   6.308   4.851
11219TIP3   OH233601   7.069   7.257   2.176
11219TIP3    H133602   7.087   7.211   2.094
11219TIP3    H233603   6.974   7.265   2.179
11220TIP3   OH233604   3.927   1.538   2.082
11220TIP3    H133605   4.014   1.503   2.102
11220TIP3    H233606   3.909   1.510   1.992
11221TIP3   OH233607   3.831   2.316   0.059
11221TIP3    H133608   3.851   2.232   0.100
11221TIP3    H233609   3.840   2.380   0.129
11222TIP3   OH233610   6.961   2.492   4.259
11222TIP3    H133611   6.921   2.578   4.247
11222TIP3    H233612   6.985   2.490   4.352
11223TIP3   OH233613   6.263   1.531   0.126
11223TIP3    H133614   6.313   1.609   0.103
11223TIP3    H233615   6.276   1.471   0.052
11224TIP3   OH233616   5.313   4.201   3.604
11224TIP3    H133617   5.372   4.262   3.559
11224TIP3    H233618   5.371   4.150   3.660
11225TIP3   OH233619   0.614   4.717   3.384
11225TIP3    H133620   0.702   4.686   3.406
11225TIP3    H233621   0.623   4.755   3.296
11226TIP3   OH233622   5.560   2.819   2.118
11226TIP3    H133623   5.625   2.809   2.188
11226TIP3    H233624   5.513   2.736   2.117
11227TIP3   OH233625   1.295   5.594   3.029
11227TIP3    H133626   1.317   5.649   2.954
11227TIP3    H233627   1.380   5.562   3.061
11228TIP3   OH233628   6.115   1.664   1.781
11228TIP3    H133629   6.083   1.754   1.766
11228TIP3    H233630   6.158   1.640   1.699
11229TIP3   OH233631   5.944   4.182   3.504
11229TIP3    H133632   6.016   4.152   3.560
11229TIP3    H233633   5.933   4.275   3.526
11230TIP3   OH233634   6.899   1.615   0.202
11230TIP3    H133635   6.939   1.650   0.123
11230TIP3    H233636   6.906   1.685   0.266
11231TIP3   OH233637   1.141   7.605   4.932
11231TIP3    H133638   1.189   7.678   4.971
11231TIP3    H233639   1.069   7.647   4.884
11232TIP3   OH233640   2.203   1.254   6.721
11232TIP3    H133641   2.255   1.334   6.709
11232TIP3    H233642   2.170   1.234   6.634
11233TIP3   OH233643   7.495   5.894   2.081
11233TIP3    H133644   7.493   5.959   2.151
11233TIP3    H233645   7.568   5.836   2.104
11234TIP3   OH233646   2.351   1.890   2.261
11234TIP3    H133647   2.400   1.959   2.306
11234TIP3    H233648   2.292   1.937   2.202
11235TIP3   OH233649   4.418   1.949   2.530
11235TIP3    H133650   4.508   1.926   2.507
11235TIP3    H233651   4.398   1.892   2.605
11236TIP3   OH233652   1.997   3.254   4.242
11236TIP3    H133653   2.025   3.247   4.333
11236TIP3    H233654   1.913   3.299   4.245
11237TIP3   OH233655   5.373   3.992   0.029
11237TIP3    H133656   5.300   4.053   0.041
11237TIP3    H233657   5.426   4.031  -0.040
11238TIP3   OH233658   0.722   5.003   1.003
11238TIP3    H133659   0.735   4.917   1.043
11238TIP3    H233660   0.627   5.008   0.988
11239TIP3   OH233661   3.802   6.877   6.167
11239TIP3    H133662   3.783   6.894   6.075
11239TIP3    H233663   3.753   6.798   6.187
11240TIP3   OH233664   3.756   6.525   4.796
11240TIP3    H133665   3.700   6.483   4.862
11240TIP3    H233666   3.804   6.453   4.756
11241TIP3   OH233667   7.800   1.890   6.271
11241TIP3    H133668   7.710   1.880   6.304
11241TIP3    H233669   7.855   1.870   6.346
11242TIP3   OH233670   8.055   3.891   0.851
11242TIP3    H133671   7.977   3.920   0.803
11242TIP3    H233672   8.097   3.972   0.879
11243TIP3   OH233673   2.793   6.129   2.956
11243TIP3    H133674   2.789   6.118   2.861
11243TIP3    H233675   2.885   6.147   2.974
11244TIP3   OH233676   4.179   3.908   3.363
11244TIP3    H133677   4.100   3.896   3.310
11244TIP3    H233678   4.150   3.889   3.452
11245TIP3   OH233679   4.280   2.591   2.062
11245TIP3    H133680   4.259   2.680   2.090
11245TIP3    H233681   4.254   2.536   2.135
11246TIP3   OH233682   3.457   0.051   6.332
11246TIP3    H133683   3.465  -0.033   6.288
11246TIP3    H233684   3.375   0.045   6.381
11247TIP3   OH233685   1.347   0.255   0.530
11247TIP3    H133686   1.277   0.244   0.465
11247TIP3    H233687   1.422   0.287   0.480
11248TIP3   OH233688   4.267   6.117   2.738
11248TIP3    H133689   4.181   6.116   2.697
11248TIP3    H233690   4.317   6.050   2.691
11249TIP3   OH233691   7.286   2.417   0.389
11249TIP3    H133692   7.234   2.347   0.349
11249TIP3    H233693   7.232   2.495   0.380
11250TIP3   OH233694   4.796   7.099   1.506
11250TIP3    H133695   4.750   7.136   1.431
11250TIP3    H233696   4.733   7.042   1.548
11251TIP3   OH233697   5.514   6.101   6.020
11251TIP3    H133698   5.534   6.157   6.095
11251TIP3    H233699   5.535   6.155   5.943
11252TIP3   OH233700   5.209   3.347   3.576
11252TIP3    H133701   5.205   3.294   3.496
11252TIP3    H233702   5.253   3.427   3.549
11253TIP3   OH233703   5.422   1.033   0.222
11253TIP3    H133704   5.493   1.013   0.161
11253TIP3    H233705   5.440   0.977   0.298
11254TIP3   OH233706   2.401   1.106   2.293
11254TIP3    H133707   2.438   1.191   2.317
11254TIP3    H233708   2.459   1.073   2.224
11255TIP3   OH233709   1.167   5.523   2.092
11255TIP3    H133710   1.183   5.607   2.134
11255TIP3    H233711   1.248   5.474   2.105
11256TIP3   OH233712   3.320   3.259   4.963
11256TIP3    H133713   3.372   3.184   4.933
11256TIP3    H233714   3.384   3.319   5.000
11257TIP3   OH233715   7.296   2.335   1.692
11257TIP3    H133716   7.284   2.270   1.623
11257TIP3    H233717   7.217   2.390   1.686
11258TIP3   OH233718   5.219   4.692   2.788
11258TIP3    H133719   5.204   4.597   2.793
11258TIP3    H233720   5.134   4.728   2.764
11259TIP3   OH233721   2.379   4.732   4.254
11259TIP3    H133722   2.452   4.697   4.203
11259TIP3    H233723   2.420   4.775   4.329
11260TIP3   OH233724   0.699   7.259   3.064
11260TIP3    H133725   0.778   7.224   3.024
11260TIP3    H233726   0.728   7.297   3.147
11261TIP3   OH233727   2.329   5.018   0.143
11261TIP3    H133728   2.343   5.109   0.171
11261TIP3    H233729   2.417   4.986   0.123
11262TIP3   OH233730   3.818   6.262   4.008
11262TIP3    H133731   3.766   6.315   4.068
11262TIP3    H233732   3.909   6.288   4.026
11263TIP3   OH233733   0.278   5.770   1.633
11263TIP3    H133734   0.285   5.724   1.717
11263TIP3    H233735   0.233   5.852   1.654
11264TIP3   OH233736   5.284   0.335   4.169
11264TIP3    H133737   5.208   0.300   4.121
11264TIP3    H233738   5.360   0.294   4.127
11265TIP3   OH233739   3.747   0.049   5.671
11265TIP3    H133740   3.829   0.000   5.678
11265TIP3    H233741   3.683  -0.016   5.643
11266TIP3   OH233742   5.281   4.707   5.884
11266TIP3    H133743   5.362   4.727   5.932
11266TIP3    H233744   5.306   4.638   5.823
11267TIP3   OH233745   7.132   4.647   6.103
11267TIP3    H133746   7.196   4.602   6.158
11267TIP3    H233747   7.184   4.699   6.043
11268TIP3   OH233748   8.291   0.782   2.965
11268TIP3    H133749   8.269   0.873   2.987
11268TIP3    H233750   8.210   0.745   2.930
11269TIP3   OH233751   1.163   6.747   0.438
11269TIP3    H133752   1.254   6.755   0.467
11269TIP3    H233753   1.113   6.733   0.519
11270TIP3   OH233754   2.877   2.199   2.900
11270TIP3    H133755   2.878   2.202   2.995
11270TIP3    H233756   2.790   2.232   2.875
11271TIP3   OH233757   3.799   6.052   1.602
11271TIP3    H133758   3.720   6.012   1.639
11271TIP3    H233759   3.787   6.044   1.507
11272TIP3   OH233760   2.388   6.125   0.686
11272TIP3    H133761   2.393   6.119   0.782
11272TIP3    H233762   2.473   6.094   0.656
11273TIP3   OH233763   3.573   1.027   2.766
11273TIP3    H133764   3.543   1.107   2.723
11273TIP3    H233765   3.538   1.033   2.855
11274TIP3   OH233766   1.270   7.513   3.980
11274TIP3    H133767   1.224   7.571   3.919
11274TIP3    H233768   1.252   7.425   3.948
11275TIP3   OH233769   1.860   0.694   4.619
11275TIP3    H133770   1.831   0.622   4.676
11275TIP3    H233771   1.952   0.706   4.641
11276TIP3   OH233772   7.549   3.849   1.935
11276TIP3    H133773   7.596   3.928   1.906
11276TIP3    H233774   7.477   3.840   1.874
11277TIP3   OH233775   7.645   5.981   4.482
11277TIP3    H133776   7.698   6.038   4.426
11277TIP3    H233777   7.699   5.902   4.494
11278TIP3   OH233778   1.640   7.034   5.143
11278TIP3    H133779   1.651   7.113   5.090
11278TIP3    H233780   1.556   6.998   5.115
11279TIP3   OH233781   4.122   3.396   2.253
11279TIP3    H133782   4.037   3.374   2.291
11279TIP3    H233783   4.108   3.481   2.211
11280TIP3   OH233784   1.417   3.069   2.796
11280TIP3    H133785   1.483   3.011   2.758
11280TIP3    H233786   1.394   3.028   2.879
11281TIP3   OH233787   8.148   7.385   1.121
11281TIP3    H133788   8.072   7.384   1.063
11281TIP3    H233789   8.133   7.312   1.181
11282TIP3   OH233790   4.561   6.901   3.404
11282TIP3    H133791   4.641   6.900   3.352
11282TIP3    H233792   4.494   6.935   3.345
11283TIP3   OH233793   6.746   2.289   6.579
11283TIP3    H133794   6.754   2.340   6.660
11283TIP3    H233795   6.804   2.334   6.517
11284TIP3   OH233796   8.166   7.660   4.511
11284TIP3    H133797   8.195   7.749   4.491
11284TIP3    H233798   8.170   7.654   4.607
11285TIP3   OH233799   5.104   2.651   5.280
11285TIP3    H133800   5.063   2.616   5.358
11285TIP3    H233801   5.198   2.644   5.297
11286TIP3   OH233802   3.900   6.371   5.314
11286TIP3    H133803   3.830   6.435   5.298
11286TIP3    H233804   3.947   6.406   5.389
11287TIP3   OH233805   6.940   5.689   2.011
11287TIP3    H133806   6.972   5.777   1.994
11287TIP3    H233807   6.863   5.681   1.955
11288TIP3   OH233808   5.882   3.126   1.209
11288TIP3    H133809   5.805   3.119   1.266
11288TIP3    H233810   5.876   3.215   1.173
11289TIP3   OH233811   4.243   7.806   3.892
11289TIP3    H133812   4.213   7.891   3.924
11289TIP3    H233813   4.241   7.750   3.970
11290TIP3   OH233814   7.563   5.578   5.768
11290TIP3    H133815   7.646   5.580   5.815
11290TIP3    H233816   7.498   5.603   5.833
11291TIP3   OH233817   4.479   1.808   5.405
11291TIP3    H133818   4.402   1.764   5.441
11291TIP3    H233819   4.459   1.902   5.413
11292TIP3   OH233820   3.372   3.373   3.275
11292TIP3    H133821   3.299   3.328   3.233
11292TIP3    H233822   3.450   3.334   3.236
11293TIP3   OH233823   7.344   2.285   0.917
11293TIP3    H133824   7.415   2.339   0.951
11293TIP3    H233825   7.278   2.286   0.986
11294TIP3   OH233826   0.279   7.478   3.061
11294TIP3    H133827   0.344   7.456   3.128
11294TIP3    H233828   0.256   7.569   3.077
11295TIP3   OH233829   3.861   6.495   1.976
11295TIP3    H133830   3.923   6.439   1.929
11295TIP3    H233831   3.786   6.503   1.917
11296TIP3   OH233832   6.320   3.478   2.588
11296TIP3    H133833   6.322   3.501   2.681
11296TIP3    H233834   6.338   3.384   2.585
11297TIP3   OH233835   5.505   1.786   1.331
11297TIP3    H133836   5.504   1.835   1.413
11297TIP3    H233837   5.500   1.694   1.357
11298TIP3   OH233838   6.421   6.626   1.229
11298TIP3    H133839   6.359   6.698   1.216
11298TIP3    H233840   6.383   6.552   1.182
11299TIP3   OH233841   0.032   3.242   4.310
11299TIP3    H133842   0.026   3.176   4.242
11299TIP3    H233843   0.086   3.311   4.272
11300TIP3   OH233844   6.725   7.369   3.220
11300TIP3    H133845   6.711   7.277   3.198
11300TIP3    H233846   6.804   7.369   3.273
11301TIP3   OH233847   2.899   0.210   5.133
11301TIP3    H133848   2.967   0.142   5.132
11301TIP3    H233849   2.820   0.165   5.102
11302TIP3   OH233850   8.222   3.764   1.270
11302TIP3    H133851   8.158   3.825   1.306
11302TIP3    H233852   8.171   3.709   1.211
11303TIP3   OH233853   5.497   4.411   4.422
11303TIP3    H133854   5.461   4.380   4.339
11303TIP3    H233855   5.439   4.374   4.489
11304TIP3   OH233856   5.514   6.969   1.981
11304TIP3    H133857   5.419   6.985   1.975
11304TIP3    H233858   5.521   6.875   1.999
11305TIP3   OH233859   5.561   2.170   3.152
11305TIP3    H133860   5.494   2.198   3.089
11305TIP3    H233861   5.557   2.235   3.222
11306TIP3   OH233862   2.648   7.536   1.156
11306TIP3    H133863   2.655   7.449   1.117
11306TIP3    H233864   2.555   7.559   1.149
11307TIP3   OH233865   6.404   4.109   2.777
11307TIP3    H133866   6.352   4.078   2.702
11307TIP3    H233867   6.410   4.033   2.835
11308TIP3   OH233868   4.874   1.080   5.951
11308TIP3    H133869   4.901   0.990   5.967
11308TIP3    H233870   4.927   1.132   6.013
11309TIP3   OH233871   6.860   4.541   2.564
11309TIP3    H133872   6.821   4.571   2.646
11309TIP3    H233873   6.948   4.513   2.588
11310TIP3   OH233874   2.512   4.834   5.262
11310TIP3    H133875   2.434   4.812   5.312
11310TIP3    H233876   2.581   4.846   5.327
11311TIP3   OH233877   4.305   5.126   6.407
11311TIP3    H133878   4.348   5.090   6.329
11311TIP3    H233879   4.333   5.068   6.478
11312TIP3   OH233880   1.115   4.775   0.712
11312TIP3    H133881   1.102   4.771   0.618
11312TIP3    H233882   1.069   4.854   0.740
11313TIP3   OH233883   2.133   5.195   1.924
11313TIP3    H133884   2.228   5.188   1.921
11313TIP3    H233885   2.103   5.160   1.840
11314TIP3   OH233886   7.951   3.010   0.770
11314TIP3    H133887   7.860   3.019   0.742
11314TIP3    H233888   7.968   2.916   0.765
11315TIP3   OH233889   1.153   7.101   6.627
11315TIP3    H133890   1.059   7.120   6.626
11315TIP3    H233891   1.171   7.074   6.717
11316TIP3   OH233892   3.617   7.264   5.139
11316TIP3    H133893   3.622   7.230   5.229
11316TIP3    H233894   3.660   7.349   5.143
11317TIP3   OH233895   5.490   6.871   5.535
11317TIP3    H133896   5.495   6.785   5.493
11317TIP3    H233897   5.499   6.853   5.628
11318TIP3   OH233898   2.643   7.609   6.325
11318TIP3    H133899   2.564   7.556   6.314
11318TIP3    H233900   2.710   7.561   6.276
11319TIP3   OH233901   1.023   3.040   5.670
11319TIP3    H133902   1.055   2.950   5.657
11319TIP3    H233903   0.979   3.061   5.587
11320TIP3   OH233904   4.442   0.340   6.032
11320TIP3    H133905   4.356   0.377   6.051
11320TIP3    H233906   4.483   0.403   5.974
11321TIP3   OH233907   6.257   3.741   5.985
11321TIP3    H133908   6.252   3.697   5.900
11321TIP3    H233909   6.267   3.834   5.963
11322TIP3   OH233910   4.436   2.313   0.741
11322TIP3    H133911   4.435   2.407   0.761
11322TIP3    H233912   4.344   2.289   0.733
11323TIP3   OH233913   2.858   5.608   2.067
11323TIP3    H133914   2.859   5.692   2.112
11323TIP3    H233915   2.774   5.606   2.021
11324TIP3   OH233916   1.659   1.141   2.767
11324TIP3    H133917   1.577   1.146   2.817
11324TIP3    H233918   1.724   1.182   2.824
11325TIP3   OH233919   5.123   2.878   5.116
11325TIP3    H133920   5.151   2.937   5.186
11325TIP3    H233921   5.099   2.797   5.160
11326TIP3   OH233922   7.069   2.112   2.389
11326TIP3    H133923   7.096   2.093   2.299
11326TIP3    H233924   7.031   2.030   2.421
11327TIP3   OH233925   5.709   3.265   5.493
11327TIP3    H133926   5.667   3.180   5.482
11327TIP3    H233927   5.768   3.273   5.418
11328TIP3   OH233928   3.640   4.948   1.993
11328TIP3    H133929   3.605   4.925   1.906
11328TIP3    H233930   3.574   4.915   2.054
11329TIP3   OH233931   6.969   6.165   6.517
11329TIP3    H133932   7.047   6.110   6.516
11329TIP3    H233933   6.911   6.126   6.452
11330TIP3   OH233934   3.781   7.777   2.374
11330TIP3    H133935   3.691   7.765   2.403
11330TIP3    H233936   3.831   7.785   2.455
11331TIP3   OH233937   3.539   1.231   3.372
11331TIP3    H133938   3.578   1.144   3.382
11331TIP3    H233939   3.445   1.217   3.386
11332TIP3   OH233940   8.170   4.277   0.420
11332TIP3    H133941   8.140   4.281   0.329
11332TIP3    H233942   8.140   4.191   0.451
11333TIP3   OH233943   6.639   4.627   4.952
11333TIP3    H133944   6.728   4.662   4.946
11333TIP3    H233945   6.582   4.704   4.949
11334TIP3   OH233946   0.498   4.497   1.879
11334TIP3    H133947   0.411   4.459   1.890
11334TIP3    H233948   0.507   4.557   1.953
11335TIP3   OH233949   7.715   6.313   0.944
11335TIP3    H133950   7.619   6.313   0.941
11335TIP3    H233951   7.739   6.221   0.946
11336TIP3   OH233952   3.471   6.975   6.546
11336TIP3    H133953   3.504   6.899   6.595
11336TIP3    H233954   3.495   6.957   6.455
11337TIP3   OH233955   4.394   7.509   3.677
11337TIP3    H133956   4.362   7.419   3.679
11337TIP3    H233957   4.358   7.546   3.596
11338TIP3   OH233958   7.172   2.586   0.963
11338TIP3    H133959   7.249   2.597   1.019
11338TIP3    H233960   7.206   2.591   0.874
11339TIP3   OH233961   2.563   2.331   4.720
11339TIP3    H133962   2.597   2.259   4.667
11339TIP3    H233963   2.476   2.347   4.685
11340TIP3   OH233964   5.575   2.507   3.189
11340TIP3    H133965   5.616   2.594   3.183
11340TIP3    H233966   5.481   2.525   3.184
11341TIP3   OH233967   0.479   4.171   2.540
11341TIP3    H133968   0.418   4.207   2.603
11341TIP3    H233969   0.482   4.077   2.560
11342TIP3   OH233970   5.506   0.019   0.392
11342TIP3    H133971   5.430  -0.033   0.368
11342TIP3    H233972   5.577  -0.045   0.402
11343TIP3   OH233973   6.289   7.311   3.308
11343TIP3    H133974   6.277   7.229   3.261
11343TIP3    H233975   6.251   7.296   3.394
11344TIP3   OH233976   0.822   1.690   4.828
11344TIP3    H133977   0.825   1.782   4.801
11344TIP3    H233978   0.744   1.655   4.786
11345TIP3   OH233979   6.427   1.372   4.744
11345TIP3    H133980   6.393   1.303   4.687
11345TIP3    H233981   6.416   1.338   4.833
11346TIP3   OH233982   6.422   6.412   6.229
11346TIP3    H133983   6.387   6.349   6.293
11346TIP3    H233984   6.352   6.477   6.220
11347TIP3   OH233985   3.668   3.844   2.997
11347TIP3    H133986   3.667   3.805   2.910
11347TIP3    H233987   3.742   3.802   3.042
11348TIP3   OH233988   0.790   2.804   0.516
11348TIP3    H133989   0.786   2.827   0.609
11348TIP3    H233990   0.701   2.778   0.494
11349TIP3   OH233991   8.233   0.264   0.934
11349TIP3    H133992   8.191   0.333   0.986
11349TIP3    H233993   8.325   0.290   0.931
11350TIP3   OH233994   8.202   2.069   0.180
11350TIP3    H133995   8.239   2.110   0.101
11350TIP3    H233996   8.184   2.142   0.239
11351TIP3   OH233997   7.789   0.410   2.426
11351TIP3    H133998   7.763   0.497   2.394
11351TIP3    H233999   7.748   0.403   2.512
11352TIP3   OH234000   1.397   3.810   4.511
11352TIP3    H134001   1.362   3.766   4.588
11352TIP3    H234002   1.446   3.742   4.464
11353TIP3   OH234003   0.627   0.800   2.662
11353TIP3    H134004   0.673   0.725   2.625
11353TIP3    H234005   0.595   0.849   2.586
11354TIP3   OH234006   1.187   3.744   2.187
11354TIP3    H134007   1.261   3.684   2.198
11354TIP3    H234008   1.169   3.743   2.093
11355TIP3   OH234009   0.473   7.633   3.397
11355TIP3    H134010   0.465   7.709   3.455
11355TIP3    H234011   0.383   7.611   3.374
11356TIP3   OH234012   4.057   6.808   0.028
11356TIP3    H134013   4.032   6.889  -0.018
11356TIP3    H234014   4.020   6.738  -0.026
11357TIP3   OH234015   5.189   6.169   3.313
11357TIP3    H134016   5.116   6.218   3.352
11357TIP3    H234017   5.154   6.081   3.299
11358TIP3   OH234018   4.169   6.614   0.474
11358TIP3    H134019   4.257   6.645   0.499
11358TIP3    H234020   4.127   6.593   0.557
11359TIP3   OH234021   5.039   5.087   5.219
11359TIP3    H134022   4.993   5.161   5.180
11359TIP3    H234023   4.977   5.050   5.281
11360TIP3   OH234024   6.259   7.192   0.739
11360TIP3    H134025   6.224   7.169   0.825
11360TIP3    H234026   6.350   7.161   0.741
11361TIP3   OH234027   3.901   0.139   1.309
11361TIP3    H134028   3.923   0.231   1.321
11361TIP3    H234029   3.827   0.140   1.247
11362TIP3   OH234030   6.775   6.663   6.104
11362TIP3    H134031   6.710   6.732   6.093
11362TIP3    H234032   6.858   6.709   6.115
11363TIP3   OH234033   8.178   0.441   4.406
11363TIP3    H134034   8.152   0.350   4.402
11363TIP3    H234035   8.122   0.479   4.474
11364TIP3   OH234036   2.393   1.354   0.293
11364TIP3    H134037   2.451   1.401   0.352
11364TIP3    H234038   2.314   1.336   0.344
11365TIP3   OH234039   4.676   3.848   0.114
11365TIP3    H134040   4.590   3.848   0.072
11365TIP3    H234041   4.679   3.929   0.165
11366TIP3   OH234042   5.718   2.176   1.739
11366TIP3    H134043   5.794   2.134   1.778
11366TIP3    H234044   5.643   2.134   1.781
11367TIP3   OH234045   3.309   0.308   6.230
11367TIP3    H134046   3.231   0.359   6.211
11367TIP3    H234047   3.281   0.245   6.296
11368TIP3   OH234048   7.983   6.397   1.805
11368TIP3    H134049   7.940   6.375   1.723
11368TIP3    H234050   7.964   6.490   1.818
11369TIP3   OH234051   2.505   4.979   3.487
11369TIP3    H134052   2.415   4.962   3.516
11369TIP3    H234053   2.546   4.893   3.483
11370TIP3   OH234054   1.522   3.712   4.946
11370TIP3    H134055   1.597   3.661   4.917
11370TIP3    H234056   1.484   3.662   5.018
11371TIP3   OH234057   1.337   2.630   5.422
11371TIP3    H134058   1.424   2.670   5.420
11371TIP3    H234059   1.333   2.585   5.506
11372TIP3   OH234060   3.417   7.544   6.571
11372TIP3    H134061   3.401   7.636   6.550
11372TIP3    H234062   3.511   7.538   6.584
11373TIP3   OH234063   5.905   6.903   3.085
11373TIP3    H134064   5.886   6.996   3.077
11373TIP3    H234065   5.865   6.864   3.007
11374TIP3   OH234066   5.791   5.319   3.247
11374TIP3    H134067   5.819   5.256   3.314
11374TIP3    H234068   5.807   5.405   3.287
11375TIP3   OH234069   0.179   5.269   5.321
11375TIP3    H134070   0.119   5.198   5.298
11375TIP3    H234071   0.201   5.309   5.237
11376TIP3   OH234072   3.542   7.190   6.760
11376TIP3    H134073   3.461   7.240   6.770
11376TIP3    H234074   3.525   7.133   6.685
11377TIP3   OH234075   2.723   2.126   2.335
11377TIP3    H134076   2.744   2.218   2.317
11377TIP3    H234077   2.808   2.085   2.351
11378TIP3   OH234078   0.099   7.414   3.386
11378TIP3    H134079   0.138   7.336   3.427
11378TIP3    H234080   0.108   7.398   3.292
11379TIP3   OH234081   5.061   7.592   2.286
11379TIP3    H134082   5.019   7.524   2.339
11379TIP3    H234083   5.125   7.544   2.233
11380TIP3   OH234084   6.387   4.246   3.354
11380TIP3    H134085   6.348   4.173   3.305
11380TIP3    H234086   6.470   4.262   3.310
11381TIP3   OH234087   7.378   4.997   1.043
11381TIP3    H134088   7.289   4.969   1.062
11381TIP3    H234089   7.370   5.086   1.009
11382TIP3   OH234090   5.908   1.404   2.707
11382TIP3    H134091   5.837   1.464   2.729
11382TIP3    H234092   5.950   1.385   2.790
11383TIP3   OH234093   0.988   0.529   0.752
11383TIP3    H134094   1.056   0.473   0.716
11383TIP3    H234095   0.977   0.599   0.687
11384TIP3   OH234096   2.611   6.182   5.529
11384TIP3    H134097   2.546   6.116   5.554
11384TIP3    H234098   2.624   6.169   5.435
11385TIP3   OH234099   0.034   0.489   2.579
11385TIP3    H134100  -0.038   0.427   2.566
11385TIP3    H234101   0.066   0.471   2.667
11386TIP3   OH234102   7.653   3.397   5.193
11386TIP3    H134103   7.581   3.343   5.226
11386TIP3    H234104   7.610   3.467   5.144
11387TIP3   OH234105   8.061   6.221   0.950
11387TIP3    H134106   8.126   6.176   0.895
11387TIP3    H234107   7.980   6.171   0.937
11388TIP3   OH234108   4.391   0.855   3.040
11388TIP3    H134109   4.407   0.761   3.031
11388TIP3    H234110   4.297   0.864   3.024
11389TIP3   OH234111   7.251   6.163   3.488
11389TIP3    H134112   7.282   6.102   3.421
11389TIP3    H234113   7.282   6.249   3.458
11390TIP3   OH234114   0.208   2.353   3.589
11390TIP3    H134115   0.156   2.423   3.548
11390TIP3    H234116   0.175   2.272   3.549
11391TIP3   OH234117   4.912   0.844   4.724
11391TIP3    H134118   4.900   0.800   4.640
11391TIP3    H234119   4.865   0.927   4.716
11392TIP3   OH234120   8.198   3.378   1.630
11392TIP3    H134121   8.264   3.313   1.654
11392TIP3    H234122   8.120   3.325   1.608
11393TIP3   OH234123   6.987   2.184   3.927
11393TIP3    H134124   6.986   2.097   3.887
11393TIP3    H234125   6.944   2.173   4.012
11394TIP3   OH234126   0.900   3.992   3.535
11394TIP3    H134127   0.976   3.941   3.566
11394TIP3    H234128   0.907   4.075   3.581
11395TIP3   OH234129   3.023   0.119   4.237
11395TIP3    H134130   2.970   0.192   4.206
11395TIP3    H234131   3.068   0.152   4.314
11396TIP3   OH234132   3.996   3.381   6.685
11396TIP3    H134133   3.955   3.347   6.764
11396TIP3    H234134   3.927   3.434   6.644
11397TIP3   OH234135   6.202   3.591   1.153
11397TIP3    H134136   6.159   3.626   1.231
11397TIP3    H234137   6.197   3.496   1.163
11398TIP3   OH234138   3.896   1.042   6.809
11398TIP3    H134139   3.879   1.133   6.785
11398TIP3    H234140   3.957   1.010   6.743
11399TIP3   OH234141   1.293   1.358   1.769
11399TIP3    H134142   1.290   1.426   1.836
11399TIP3    H234143   1.342   1.397   1.697
11400TIP3   OH234144   2.050   7.349   4.450
11400TIP3    H134145   2.060   7.413   4.521
11400TIP3    H234146   2.131   7.356   4.400
11401TIP3   OH234147   1.616   3.716   2.276
11401TIP3    H134148   1.665   3.634   2.269
11401TIP3    H234149   1.675   3.782   2.240
11402TIP3   OH234150   4.878   6.273   0.579
11402TIP3    H134151   4.895   6.262   0.485
11402TIP3    H234152   4.964   6.265   0.620
11403TIP3   OH234153   4.176   6.209   4.056
11403TIP3    H134154   4.258   6.251   4.030
11403TIP3    H234155   4.202   6.132   4.105
11404TIP3   OH234156   6.655   0.168   6.594
11404TIP3    H134157   6.661   0.264   6.598
11404TIP3    H234158   6.740   0.140   6.560
11405TIP3   OH234159   7.110   6.385   3.755
11405TIP3    H134160   7.069   6.356   3.674
11405TIP3    H234161   7.183   6.441   3.726
11406TIP3   OH234162   7.239   0.374   0.775
11406TIP3    H134163   7.314   0.398   0.829
11406TIP3    H234164   7.201   0.298   0.820
11407TIP3   OH234165   5.674   5.492   1.860
11407TIP3    H134166   5.613   5.501   1.933
11407TIP3    H234167   5.697   5.581   1.836
11408TIP3   OH234168   4.436   4.988   2.704
11408TIP3    H134169   4.365   5.005   2.641
11408TIP3    H234170   4.512   4.966   2.650
11409TIP3   OH234171   4.914   6.739   0.771
11409TIP3    H134172   4.855   6.812   0.791
11409TIP3    H234173   4.866   6.687   0.707
11410TIP3   OH234174   0.694   2.506   5.404
11410TIP3    H134175   0.630   2.509   5.333
11410TIP3    H234176   0.704   2.597   5.431
11411TIP3   OH234177   3.122   7.308   5.050
11411TIP3    H134178   3.198   7.257   5.078
11411TIP3    H234179   3.159   7.392   5.023
11412TIP3   OH234180   2.008   3.612   1.798
11412TIP3    H134181   2.077   3.618   1.863
11412TIP3    H234182   1.926   3.615   1.848
11413TIP3   OH234183   3.180   1.661   1.653
11413TIP3    H134184   3.237   1.584   1.647
11413TIP3    H234185   3.234   1.733   1.621
11414TIP3   OH234186   2.336   5.319   0.174
11414TIP3    H134187   2.422   5.349   0.204
11414TIP3    H234188   2.278   5.335   0.249
11415TIP3   OH234189   3.135   0.322   1.534
11415TIP3    H134190   3.063   0.383   1.551
11415TIP3    H234191   3.140   0.269   1.613
11416TIP3   OH234192   7.514   2.371   0.252
11416TIP3    H134193   7.418   2.367   0.260
11416TIP3    H234194   7.541   2.280   0.245
11417TIP3   OH234195   6.421   4.930   5.976
11417TIP3    H134196   6.406   4.910   5.883
11417TIP3    H234197   6.480   5.005   5.974
11418TIP3   OH234198   3.106   7.092   3.991
11418TIP3    H134199   3.162   7.015   3.987
11418TIP3    H234200   3.061   7.085   4.075
11419TIP3   OH234201   0.151   6.053   4.814
11419TIP3    H134202   0.182   6.077   4.902
11419TIP3    H234203   0.094   6.126   4.788
11420TIP3   OH234204   2.124   7.178   0.036
11420TIP3    H134205   2.059   7.241   0.005
11420TIP3    H234206   2.146   7.209   0.124
11421TIP3   OH234207   4.958   3.029   5.792
11421TIP3    H134208   4.930   2.938   5.783
11421TIP3    H234209   5.049   3.023   5.821
11422TIP3   OH234210   0.086   6.081   6.009
11422TIP3    H134211   0.182   6.074   6.011
11422TIP3    H234212   0.066   6.155   6.066
11423TIP3   OH234213   5.145   6.273   5.915
11423TIP3    H134214   5.171   6.304   6.002
11423TIP3    H234215   5.204   6.319   5.855
11424TIP3   OH234216   6.596   5.296   1.423
11424TIP3    H134217   6.668   5.358   1.424
11424TIP3    H234218   6.519   5.348   1.448
11425TIP3   OH234219   6.362   4.535   6.396
11425TIP3    H134220   6.428   4.477   6.432
11425TIP3    H234221   6.294   4.538   6.462
11426TIP3   OH234222   0.604   6.127   4.753
11426TIP3    H134223   0.515   6.130   4.716
11426TIP3    H234224   0.652   6.067   4.696
11427TIP3   OH234225   6.250   2.298   1.065
11427TIP3    H134226   6.257   2.367   0.999
11427TIP3    H234227   6.340   2.282   1.094
11428TIP3   OH234228   1.024   0.907   2.069
11428TIP3    H134229   1.025   0.982   2.128
11428TIP3    H234230   1.070   0.838   2.116
11429TIP3   OH234231   4.798   7.645  -0.033
11429TIP3    H134232   4.705   7.626  -0.048
11429TIP3    H234233   4.813   7.620   0.058
11430TIP3   OH234234   3.688   0.972   0.530
11430TIP3    H134235   3.633   0.915   0.477
11430TIP3    H234236   3.674   0.942   0.620
11431TIP3   OH234237   0.084   1.436   4.206
11431TIP3    H134238   0.177   1.429   4.229
11431TIP3    H234239   0.046   1.355   4.239
11432TIP3   OH234240   7.699   7.540   4.131
11432TIP3    H134241   7.702   7.454   4.089
11432TIP3    H234242   7.675   7.601   4.062
11433TIP3   OH234243   1.221   5.968   1.541
11433TIP3    H134244   1.231   5.961   1.636
11433TIP3    H234245   1.185   5.883   1.514
11434TIP3   OH234246   5.252   3.407   4.969
11434TIP3    H134247   5.317   3.355   5.016
11434TIP3    H234248   5.168   3.367   4.992
11435TIP3   OH234249   0.146   4.425   0.885
11435TIP3    H134250   0.071   4.382   0.926
11435TIP3    H234251   0.137   4.406   0.792
11436TIP3   OH234252   0.642   0.592   0.652
11436TIP3    H134253   0.664   0.550   0.735
11436TIP3    H234254   0.548   0.611   0.659
11437TIP3   OH234255   1.979   4.400   0.386
11437TIP3    H134256   1.953   4.316   0.425
11437TIP3    H234257   1.904   4.458   0.400
11438TIP3   OH234258   1.151   1.338   1.314
11438TIP3    H134259   1.056   1.350   1.314
11438TIP3    H234260   1.181   1.379   1.396
11439TIP3   OH234261   4.245   5.939   1.245
11439TIP3    H134262   4.215   6.015   1.195
11439TIP3    H234263   4.169   5.912   1.296
11440TIP3   OH234264   6.103   4.812   1.753
11440TIP3    H134265   6.196   4.803   1.733
11440TIP3    H234266   6.064   4.728   1.728
11441TIP3   OH234267   1.670   2.126   6.409
11441TIP3    H134268   1.703   2.213   6.430
11441TIP3    H234269   1.624   2.138   6.325
11442TIP3   OH234270   6.104   4.242   4.562
11442TIP3    H134271   6.073   4.209   4.646
11442TIP3    H234272   6.199   4.234   4.567
11443TIP3   OH234273   0.195   4.223   3.360
11443TIP3    H134274   0.252   4.201   3.286
11443TIP3    H234275   0.180   4.140   3.405
11444TIP3   OH234276   5.317   1.433   5.621
11444TIP3    H134277   5.267   1.515   5.615
11444TIP3    H234278   5.399   1.452   5.577
11445TIP3   OH234279   4.649   7.362   3.573
11445TIP3    H134280   4.577   7.416   3.542
11445TIP3    H234281   4.677   7.402   3.655
11446TIP3   OH234282   6.941   1.128   1.813
11446TIP3    H134283   6.988   1.095   1.736
11446TIP3    H234284   6.849   1.111   1.795
11447TIP3   OH234285   2.093   0.738   4.213
11447TIP3    H134286   2.015   0.717   4.264
11447TIP3    H234287   2.103   0.832   4.222
11448TIP3   OH234288   8.118   5.239   6.053
11448TIP3    H134289   8.184   5.307   6.039
11448TIP3    H234290   8.095   5.248   6.146
11449TIP3   OH234291   4.344   1.249   4.363
11449TIP3    H134292   4.402   1.205   4.301
11449TIP3    H234293   4.388   1.332   4.382
11450TIP3   OH234294   7.699   0.059   6.705
11450TIP3    H134295   7.737   0.134   6.660
11450TIP3    H234296   7.612   0.087   6.732
11451TIP3   OH234297   7.900   3.872   3.386
11451TIP3    H134298   7.992   3.847   3.374
11451TIP3    H234299   7.856   3.839   3.308
11452TIP3   OH234300   4.642   6.063   3.065
11452TIP3    H134301   4.664   6.025   3.151
11452TIP3    H234302   4.546   6.073   3.068
11453TIP3   OH234303   0.058   0.612   5.803
11453TIP3    H134304  -0.035   0.632   5.810
11453TIP3    H234305   0.076   0.612   5.709
11454TIP3   OH234306   2.521   7.467   3.488
11454TIP3    H134307   2.582   7.397   3.465
11454TIP3    H234308   2.482   7.437   3.570
11455TIP3   OH234309   6.554   1.415   4.364
11455TIP3    H134310   6.466   1.438   4.394
11455TIP3    H234311   6.572   1.478   4.294
11456TIP3   OH234312   5.067   7.210   1.862
11456TIP3    H134313   4.991   7.183   1.809
11456TIP3    H234314   5.028   7.252   1.939
11457TIP3   OH234315   1.483   4.949   0.233
11457TIP3    H134316   1.417   4.891   0.195
11457TIP3    H234317   1.476   5.030   0.181
11458TIP3   OH234318   6.754   7.565   3.523
11458TIP3    H134319   6.796   7.639   3.479
11458TIP3    H234320   6.701   7.524   3.455
11459TIP3   OH234321   1.398   4.624   3.331
11459TIP3    H134322   1.367   4.533   3.327
11459TIP3    H234323   1.461   4.631   3.259
11460TIP3   OH234324   1.672   5.337   0.368
11460TIP3    H134325   1.710   5.424   0.366
11460TIP3    H234326   1.585   5.347   0.328
11461TIP3   OH234327   1.690   3.766   0.096
11461TIP3    H134328   1.782   3.793   0.093
11461TIP3    H234329   1.687   3.687   0.043
11462TIP3   OH234330   0.249   0.999   4.175
11462TIP3    H134331   0.273   1.010   4.267
11462TIP3    H234332   0.260   0.905   4.159
11463TIP3   OH234333   5.588   3.087   0.539
11463TIP3    H134334   5.609   3.047   0.454
11463TIP3    H234335   5.520   3.151   0.519
11464TIP3   OH234336   0.254   3.379   5.517
11464TIP3    H134337   0.309   3.415   5.586
11464TIP3    H234338   0.190   3.449   5.499
11465TIP3   OH234339   0.351   3.194   2.574
11465TIP3    H134340   0.414   3.235   2.634
11465TIP3    H234341   0.285   3.262   2.558
11466TIP3   OH234342   1.025   5.344  -0.009
11466TIP3    H134343   0.956   5.326   0.055
11466TIP3    H234344   1.067   5.259  -0.022
11467TIP3   OH234345   4.835   6.734   1.322
11467TIP3    H134346   4.890   6.799   1.279
11467TIP3    H234347   4.893   6.690   1.383
11468TIP3   OH234348   0.854   7.787   2.868
11468TIP3    H134349   0.790   7.735   2.918
11468TIP3    H234350   0.823   7.782   2.778
11469TIP3   OH234351   2.734   1.786   3.643
11469TIP3    H134352   2.719   1.866   3.592
11469TIP3    H234353   2.823   1.795   3.676
11470TIP3   OH234354   5.235   5.822   6.225
11470TIP3    H134355   5.236   5.904   6.274
11470TIP3    H234356   5.262   5.847   6.136
11471TIP3   OH234357   4.927   1.523   3.257
11471TIP3    H134358   5.023   1.530   3.252
11471TIP3    H234359   4.896   1.612   3.241
11472TIP3   OH234360   2.716   3.508   2.259
11472TIP3    H134361   2.800   3.497   2.306
11472TIP3    H234362   2.713   3.433   2.200
11473TIP3   OH234363   2.097   6.271   2.279
11473TIP3    H134364   2.163   6.217   2.323
11473TIP3    H234365   2.020   6.215   2.272
11474TIP3   OH234366   0.606   2.325   4.824
11474TIP3    H134367   0.590   2.233   4.845
11474TIP3    H234368   0.541   2.373   4.875
11475TIP3   OH234369   7.800   6.027   1.705
11475TIP3    H134370   7.838   6.024   1.793
11475TIP3    H234371   7.713   5.989   1.716
11476TIP3   OH234372   1.571   6.567   0.698
11476TIP3    H134373   1.527   6.497   0.747
11476TIP3    H234374   1.664   6.551   0.711
11477TIP3   OH234375   5.239   0.462   2.864
11477TIP3    H134376   5.233   0.524   2.936
11477TIP3    H234377   5.332   0.438   2.860
11478TIP3   OH234378   2.754   5.020   1.857
11478TIP3    H134379   2.723   4.969   1.933
11478TIP3    H234380   2.756   4.956   1.785
11479TIP3   OH234381   7.249   6.863   4.320
11479TIP3    H134382   7.263   6.816   4.402
11479TIP3    H234383   7.154   6.872   4.313
11480TIP3   OH234384   2.613   1.190   1.684
11480TIP3    H134385   2.671   1.235   1.622
11480TIP3    H234386   2.524   1.215   1.656
11481TIP3   OH234387   2.152   5.747   3.495
11481TIP3    H134388   2.154   5.707   3.408
11481TIP3    H234389   2.060   5.767   3.510
11482TIP3   OH234390   3.328   1.023   4.753
11482TIP3    H134391   3.328   1.009   4.658
11482TIP3    H234392   3.359   1.113   4.764
11483TIP3   OH234393   5.098   1.377   5.452
11483TIP3    H134394   5.177   1.377   5.506
11483TIP3    H234395   5.042   1.444   5.491
11484TIP3   OH234396   3.157   2.712   3.759
11484TIP3    H134397   3.244   2.687   3.791
11484TIP3    H234398   3.101   2.708   3.836
11485TIP3   OH234399   7.170   5.672   1.693
11485TIP3    H134400   7.264   5.659   1.684
11485TIP3    H234401   7.161   5.725   1.772
11486TIP3   OH234402   2.858   0.085   4.809
11486TIP3    H134403   2.814   0.018   4.863
11486TIP3    H234404   2.816   0.079   4.724
11487TIP3   OH234405   5.206   7.312   5.225
11487TIP3    H134406   5.269   7.273   5.164
11487TIP3    H234407   5.158   7.237   5.260
11488TIP3   OH234408   2.849   0.464   6.087
11488TIP3    H134409   2.760   0.500   6.089
11488TIP3    H234410   2.843   0.388   6.028
11489TIP3   OH234411   1.303   4.225   3.074
11489TIP3    H134412   1.261   4.248   2.991
11489TIP3    H234413   1.395   4.248   3.061
11490TIP3   OH234414   8.196   5.465   3.283
11490TIP3    H134415   8.233   5.518   3.213
11490TIP3    H234416   8.272   5.436   3.333
11491TIP3   OH234417   5.230   2.101   4.176
11491TIP3    H134418   5.149   2.145   4.201
11491TIP3    H234419   5.299   2.163   4.199
11492TIP3   OH234420   4.568   2.579   2.145
11492TIP3    H134421   4.580   2.664   2.104
11492TIP3    H234422   4.526   2.525   2.078
11493TIP3   OH234423   7.385   2.554   1.126
11493TIP3    H134424   7.470   2.567   1.083
11493TIP3    H234425   7.391   2.605   1.207
11494TIP3   OH234426   2.967   6.704   2.364
11494TIP3    H134427   3.044   6.719   2.308
11494TIP3    H234428   2.961   6.609   2.371
11495TIP3   OH234429   1.479   2.696   6.238
11495TIP3    H134430   1.386   2.713   6.224
11495TIP3    H234431   1.486   2.600   6.237
11496TIP3   OH234432   2.967   3.043   1.011
11496TIP3    H134433   2.939   2.956   0.982
11496TIP3    H234434   2.978   3.093   0.930
11497TIP3   OH234435   2.963   3.118   5.833
11497TIP3    H134436   2.919   3.035   5.854
11497TIP3    H234437   2.895   3.184   5.843
11498TIP3   OH234438   2.883   4.210   6.685
11498TIP3    H134439   2.827   4.274   6.729
11498TIP3    H234440   2.838   4.126   6.698
11499TIP3   OH234441   5.616   4.327   6.548
11499TIP3    H134442   5.665   4.364   6.475
11499TIP3    H234443   5.526   4.357   6.535
11500TIP3   OH234444   1.496   6.352   0.853
11500TIP3    H134445   1.518   6.323   0.941
11500TIP3    H234446   1.571   6.326   0.800
11501TIP3   OH234447   5.695   3.431   2.544
11501TIP3    H134448   5.601   3.415   2.539
11501TIP3    H234449   5.713   3.434   2.638
11502TIP3   OH234450   3.586   0.973   3.725
11502TIP3    H134451   3.513   0.915   3.746
11502TIP3    H234452   3.567   1.054   3.772
11503TIP3   OH234453   1.105   3.848   5.925
11503TIP3    H134454   1.100   3.921   5.864
11503TIP3    H234455   1.178   3.795   5.895
11504TIP3   OH234456   4.577   4.246   6.670
11504TIP3    H134457   4.596   4.153   6.678
11504TIP3    H234458   4.649   4.281   6.617
11505TIP3   OH234459   1.074   6.548   1.285
11505TIP3    H134460   1.149   6.493   1.265
11505TIP3    H234461   1.102   6.636   1.260
11506TIP3   OH234462   6.649   1.615   2.581
11506TIP3    H134463   6.667   1.663   2.662
11506TIP3    H234464   6.596   1.675   2.529
11507TIP3   OH234465   2.585   3.724   2.746
11507TIP3    H134466   2.605   3.807   2.790
11507TIP3    H234467   2.651   3.718   2.676
11508TIP3   OH234468   8.082   4.136   4.887
11508TIP3    H134469   8.095   4.043   4.905
11508TIP3    H234470   8.009   4.139   4.825
11509TIP3   OH234471   1.547   6.392   0.462
11509TIP3    H134472   1.583   6.477   0.485
11509TIP3    H234473   1.586   6.332   0.526
11510TIP3   OH234474   1.798   1.240   6.390
11510TIP3    H134475   1.713   1.222   6.430
11510TIP3    H234476   1.809   1.172   6.324
11511TIP3   OH234477   1.135   6.993   1.869
11511TIP3    H134478   1.088   6.913   1.891
11511TIP3    H234479   1.111   7.011   1.778
11512TIP3   OH234480   5.298   6.010   5.708
11512TIP3    H134481   5.273   5.984   5.797
11512TIP3    H234482   5.265   6.100   5.699
11513TIP3   OH234483   2.566   5.215   5.397
11513TIP3    H134484   2.618   5.287   5.360
11513TIP3    H234485   2.487   5.212   5.343
11514TIP3   OH234486   3.639   6.427   6.636
11514TIP3    H134487   3.664   6.337   6.613
11514TIP3    H234488   3.704   6.482   6.591
11515TIP3   OH234489   3.023   5.857   0.581
11515TIP3    H134490   2.938   5.861   0.625
11515TIP3    H234491   3.065   5.780   0.619
11516TIP3   OH234492   2.025   7.524   4.193
11516TIP3    H134493   2.030   7.565   4.106
11516TIP3    H234494   2.050   7.433   4.178
11517TIP3   OH234495   0.113   1.429   5.409
11517TIP3    H134496   0.116   1.353   5.350
11517TIP3    H234497   0.160   1.498   5.362
11518TIP3   OH234498   3.730   1.735   4.776
11518TIP3    H134499   3.754   1.741   4.683
11518TIP3    H234500   3.636   1.749   4.777
11519TIP3   OH234501   4.593   2.838   3.984
11519TIP3    H134502   4.576   2.822   4.076
11519TIP3    H234503   4.575   2.931   3.971
11520TIP3   OH234504   6.202   6.618   4.208
11520TIP3    H134505   6.280   6.574   4.175
11520TIP3    H234506   6.215   6.710   4.184
11521TIP3   OH234507   2.455   0.930   3.790
11521TIP3    H134508   2.405   0.878   3.853
11521TIP3    H234509   2.469   1.014   3.834
11522TIP3   OH234510   6.189   7.597   6.611
11522TIP3    H134511   6.231   7.588   6.525
11522TIP3    H234512   6.099   7.569   6.596
11523TIP3   OH234513   2.094   7.189   1.480
11523TIP3    H134514   2.127   7.100   1.490
11523TIP3    H234515   2.042   7.186   1.400
11524TIP3   OH234516   6.156   1.382   2.527
11524TIP3    H134517   6.076   1.401   2.576
11524TIP3    H234518   6.221   1.362   2.594
11525TIP3   OH234519   6.732   0.279   4.775
11525TIP3    H134520   6.780   0.236   4.845
11525TIP3    H234521   6.699   0.360   4.814
11526TIP3   OH234522   1.902   5.295   1.572
11526TIP3    H134523   1.899   5.279   1.667
11526TIP3    H234524   1.995   5.311   1.554
11527TIP3   OH234525   3.151   2.765   1.110
11527TIP3    H134526   3.183   2.683   1.150
11527TIP3    H234527   3.098   2.736   1.036
11528TIP3   OH234528   7.731   5.324   2.067
11528TIP3    H134529   7.652   5.289   2.109
11528TIP3    H234530   7.801   5.309   2.130
11529TIP3   OH234531   4.080   2.677   3.046
11529TIP3    H134532   4.073   2.730   2.967
11529TIP3    H234533   4.042   2.732   3.115
11530TIP3   OH234534   4.728   5.481   4.023
11530TIP3    H134535   4.717   5.541   3.949
11530TIP3    H234536   4.648   5.429   4.023
11531TIP3   OH234537   2.218   2.355   2.357
11531TIP3    H134538   2.232   2.291   2.428
11531TIP3    H234539   2.305   2.392   2.341
11532TIP3   OH234540   6.806   3.593   1.123
11532TIP3    H134541   6.719   3.569   1.154
11532TIP3    H234542   6.798   3.685   1.098
11533TIP3   OH234543   2.450   7.140   2.527
11533TIP3    H134544   2.500   7.196   2.468
11533TIP3    H234545   2.385   7.198   2.566
11534TIP3   OH234546   5.344   2.512   2.545
11534TIP3    H134547   5.276   2.483   2.484
11534TIP3    H234548   5.426   2.482   2.505
11535TIP3   OH234549   4.846   6.741   5.657
11535TIP3    H134550   4.767   6.719   5.706
11535TIP3    H234551   4.915   6.688   5.696
11536TIP3   OH234552   5.346   7.672   3.513
11536TIP3    H134553   5.319   7.764   3.512
11536TIP3    H234554   5.341   7.646   3.605
11537TIP3   OH234555   7.283   4.160   1.942
11537TIP3    H134556   7.255   4.207   2.021
11537TIP3    H234557   7.373   4.189   1.928
11538TIP3   OH234558   7.401   6.483   3.652
11538TIP3    H134559   7.358   6.538   3.717
11538TIP3    H234560   7.330   6.446   3.600
11539TIP3   OH234561   6.930   1.309   0.002
11539TIP3    H134562   6.973   1.224   0.005
11539TIP3    H234563   7.001   1.373   0.014
11540TIP3   OH234564   4.982   3.646   4.865
11540TIP3    H134565   5.034   3.610   4.793
11540TIP3    H234566   4.904   3.681   4.822
11541TIP3   OH234567   0.041   6.243   4.081
11541TIP3    H134568  -0.054   6.258   4.087
11541TIP3    H234569   0.068   6.296   4.006
11542TIP3   OH234570   2.522   0.048   0.867
11542TIP3    H134571   2.594   0.034   0.928
11542TIP3    H234572   2.525   0.142   0.847
11543TIP3   OH234573   4.232   0.124   0.554
11543TIP3    H134574   4.281   0.073   0.618
11543TIP3    H234575   4.140   0.109   0.577
11544TIP3   OH234576   1.539   3.973   4.848
11544TIP3    H134577   1.523   3.889   4.890
11544TIP3    H234578   1.628   3.996   4.874
11545TIP3   OH234579   5.467   0.934   6.504
11545TIP3    H134580   5.445   1.011   6.451
11545TIP3    H234581   5.438   0.859   6.451
11546TIP3   OH234582   2.820   5.574   1.226
11546TIP3    H134583   2.882   5.597   1.296
11546TIP3    H234584   2.852   5.491   1.191
11547TIP3   OH234585   4.640   3.095   2.610
11547TIP3    H134586   4.621   3.060   2.697
11547TIP3    H234587   4.663   3.187   2.626
11548TIP3   OH234588   7.665   7.502   0.789
11548TIP3    H134589   7.686   7.570   0.853
11548TIP3    H234590   7.571   7.513   0.773
11549TIP3   OH234591   5.902   2.736   2.034
11549TIP3    H134592   5.893   2.683   2.113
11549TIP3    H234593   5.992   2.769   2.036
11550TIP3   OH234594   7.238   3.929   3.557
11550TIP3    H134595   7.181   3.972   3.621
11550TIP3    H234596   7.268   3.850   3.602
11551TIP3   OH234597   1.628   3.040   1.355
11551TIP3    H134598   1.715   3.055   1.319
11551TIP3    H234599   1.600   2.956   1.318
11552TIP3   OH234600   2.368   1.736   0.975
11552TIP3    H134601   2.458   1.729   0.941
11552TIP3    H234602   2.320   1.780   0.905
11553TIP3   OH234603   7.402   3.309   5.790
11553TIP3    H134604   7.360   3.223   5.789
11553TIP3    H234605   7.377   3.347   5.875
11554TIP3   OH234606   1.306   4.161   6.294
11554TIP3    H134607   1.316   4.148   6.199
11554TIP3    H234608   1.387   4.127   6.331
11555TIP3   OH234609   6.368   4.391   4.144
11555TIP3    H134610   6.288   4.375   4.093
11555TIP3    H234611   6.338   4.401   4.234
11556TIP3   OH234612   6.863   7.598   6.216
11556TIP3    H134613   6.835   7.554   6.136
11556TIP3    H234614   6.894   7.527   6.273
11557TIP3   OH234615   4.516   3.214   2.321
11557TIP3    H134616   4.591   3.274   2.327
11557TIP3    H234617   4.476   3.216   2.408
11558TIP3   OH234618   7.143   7.298   3.143
11558TIP3    H134619   7.228   7.331   3.114
11558TIP3    H234620   7.097   7.278   3.061
11559TIP3   OH234621   0.710   0.992   4.942
11559TIP3    H134622   0.624   1.032   4.927
11559TIP3    H234623   0.701   0.947   5.026
11560TIP3   OH234624   2.061   1.335   1.771
11560TIP3    H134625   2.140   1.283   1.771
11560TIP3    H234626   2.035   1.339   1.864
11561TIP3   OH234627   0.286   7.446   1.988
11561TIP3    H134628   0.346   7.372   1.985
11561TIP3    H234629   0.209   7.417   1.940
11562TIP3   OH234630   1.249   6.610   6.295
11562TIP3    H134631   1.160   6.578   6.309
11562TIP3    H234632   1.281   6.635   6.382
11563TIP3   OH234633   7.696   6.656   2.013
11563TIP3    H134634   7.756   6.649   1.938
11563TIP3    H234635   7.753   6.656   2.090
11564TIP3   OH234636   4.731   6.252   0.819
11564TIP3    H134637   4.642   6.285   0.813
11564TIP3    H234638   4.770   6.270   0.733
11565TIP3   OH234639   3.747   7.451   6.250
11565TIP3    H134640   3.757   7.428   6.343
11565TIP3    H234641   3.754   7.547   6.248
11566TIP3   OH234642   0.081   2.625   3.688
11566TIP3    H134643   0.046   2.639   3.600
11566TIP3    H234644   0.174   2.648   3.681
11567TIP3   OH234645   1.215   0.605   4.535
11567TIP3    H134646   1.236   0.558   4.615
11567TIP3    H234647   1.300   0.634   4.501
11568TIP3   OH234648   6.745   5.244   6.474
11568TIP3    H134649   6.770   5.185   6.402
11568TIP3    H234650   6.751   5.189   6.553
11569TIP3   OH234651   8.135   5.949   1.213
11569TIP3    H134652   8.101   6.038   1.214
11569TIP3    H234653   8.128   5.920   1.304
11570TIP3   OH234654   5.890   3.780   2.456
11570TIP3    H134655   5.918   3.841   2.388
11570TIP3    H234656   5.804   3.749   2.427
11571TIP3   OH234657   1.881   7.360   5.585
11571TIP3    H134658   1.967   7.318   5.576
11571TIP3    H234659   1.875   7.384   5.677
11572TIP3   OH234660   5.299   0.702   2.628
11572TIP3    H134661   5.386   0.689   2.665
11572TIP3    H234662   5.241   0.646   2.681
11573TIP3   OH234663   5.445   0.580   2.145
11573TIP3    H134664   5.377   0.539   2.091
11573TIP3    H234665   5.455   0.668   2.107
11574TIP3   OH234666   5.573   1.848   1.595
11574TIP3    H134667   5.667   1.834   1.598
11574TIP3    H234668   5.561   1.942   1.612
11575TIP3   OH234669   0.234   5.530   2.098
11575TIP3    H134670   0.231   5.605   2.157
11575TIP3    H234671   0.231   5.454   2.155
11576TIP3   OH234672   8.276   5.165   2.667
11576TIP3    H134673   8.352   5.203   2.623
11576TIP3    H234674   8.304   5.153   2.758
11577TIP3   OH234675   7.400   1.783   3.138
11577TIP3    H134676   7.445   1.859   3.175
11577TIP3    H234677   7.378   1.809   3.049
11578TIP3   OH234678   1.633   4.826   0.796
11578TIP3    H134679   1.583   4.786   0.724
11578TIP3    H234680   1.670   4.752   0.844
11579TIP3   OH234681   7.159   7.322   4.905
11579TIP3    H134682   7.173   7.374   4.984
11579TIP3    H234683   7.102   7.376   4.850
11580TIP3   OH234684   0.488   6.144   6.560
11580TIP3    H134685   0.450   6.091   6.490
11580TIP3    H234686   0.458   6.103   6.641
11581TIP3   OH234687   6.555   3.604   6.692
11581TIP3    H134688   6.640   3.638   6.718
11581TIP3    H234689   6.493   3.670   6.721
11582TIP3   OH234690   3.433   5.239   0.709
11582TIP3    H134691   3.494   5.311   0.719
11582TIP3    H234692   3.471   5.183   0.641
11583TIP3   OH234693   7.228   2.935   3.187
11583TIP3    H134694   7.201   2.904   3.274
11583TIP3    H234695   7.164   2.898   3.127
11584TIP3   OH234696   8.227   6.862   3.068
11584TIP3    H134697   8.132   6.853   3.075
11584TIP3    H234698   8.259   6.773   3.059
11585TIP3   OH234699   0.781   4.762   4.403
11585TIP3    H134700   0.824   4.772   4.318
11585TIP3    H234701   0.836   4.810   4.464
11586TIP3   OH234702   1.694   0.642   0.936
11586TIP3    H134703   1.645   0.622   0.857
11586TIP3    H234704   1.753   0.713   0.910
11587TIP3   OH234705   3.748   6.846   5.065
11587TIP3    H134706   3.659   6.811   5.070
11587TIP3    H234707   3.737   6.937   5.036
11588TIP3   OH234708   2.351   5.008   3.956
11588TIP3    H134709   2.311   4.985   4.040
11588TIP3    H234710   2.278   5.013   3.895
11589TIP3   OH234711   1.113   6.693   4.635
11589TIP3    H134712   1.199   6.710   4.597
11589TIP3    H234713   1.108   6.598   4.644
11590TIP3   OH234714   3.887   6.938   1.615
11590TIP3    H134715   3.957   6.912   1.675
11590TIP3    H234716   3.866   6.859   1.566
11591TIP3   OH234717   6.872   3.375   4.910
11591TIP3    H134718   6.965   3.401   4.913
11591TIP3    H234719   6.875   3.280   4.909
11592TIP3   OH234720   3.187   4.885   1.868
11592TIP3    H134721   3.195   4.976   1.896
11592TIP3    H234722   3.215   4.834   1.945
11593TIP3   OH234723   5.792   1.249   1.302
11593TIP3    H134724   5.797   1.334   1.260
11593TIP3    H234725   5.854   1.255   1.375
11594TIP3   OH234726   7.620   7.715   3.912
11594TIP3    H134727   7.535   7.748   3.942
11594TIP3    H234728   7.605   7.687   3.822
11595TIP3   OH234729   2.891   0.180   1.927
11595TIP3    H134730   2.859   0.092   1.905
11595TIP3    H234731   2.910   0.175   2.021
11596TIP3   OH234732   4.883   3.317   2.336
11596TIP3    H134733   4.964   3.366   2.316
11596TIP3    H234734   4.911   3.226   2.343
11597TIP3   OH234735   4.933   3.597   6.357
11597TIP3    H134736   4.910   3.667   6.418
11597TIP3    H234737   4.871   3.606   6.284
11598TIP3   OH234738   3.871   1.930   0.431
11598TIP3    H134739   3.893   1.838   0.418
11598TIP3    H234740   3.794   1.929   0.487
11599TIP3   OH234741   1.648   4.819   6.395
11599TIP3    H134742   1.602   4.901   6.377
11599TIP3    H234743   1.703   4.838   6.471
11600TIP3   OH234744   0.234   5.479   0.192
11600TIP3    H134745   0.247   5.407   0.253
11600TIP3    H234746   0.200   5.438   0.112
11601TIP3   OH234747   8.122   4.929   2.308
11601TIP3    H134748   8.080   4.957   2.389
11601TIP3    H234749   8.216   4.942   2.325
11602TIP3   OH234750   7.430   1.948   2.918
11602TIP3    H134751   7.353   2.004   2.911
11602TIP3    H234752   7.504   2.007   2.904
11603TIP3   OH234753   5.761   7.326   4.923
11603TIP3    H134754   5.826   7.335   4.993
11603TIP3    H234755   5.678   7.312   4.968
11604TIP3   OH234756   7.593   0.377   3.278
11604TIP3    H134757   7.596   0.458   3.227
11604TIP3    H234758   7.679   0.371   3.320
11605TIP3   OH234759   7.037   2.542   4.863
11605TIP3    H134760   7.069   2.467   4.912
11605TIP3    H234761   6.995   2.598   4.929
11606TIP3   OH234762   4.415   4.360   2.993
11606TIP3    H134763   4.324   4.377   3.017
11606TIP3    H234764   4.411   4.322   2.905
11607TIP3   OH234765   6.893   5.574   1.100
11607TIP3    H134766   6.898   5.622   1.183
11607TIP3    H234767   6.880   5.642   1.034
11608TIP3   OH234768   7.818   7.396   6.248
11608TIP3    H134769   7.865   7.384   6.165
11608TIP3    H234770   7.842   7.485   6.276
11609TIP3   OH234771   3.337   0.759   2.143
11609TIP3    H134772   3.267   0.825   2.140
11609TIP3    H234773   3.331   0.714   2.059
11610TIP3   OH234774   2.341   2.080   5.665
11610TIP3    H134775   2.324   2.084   5.571
11610TIP3    H234776   2.324   1.989   5.688
11611TIP3   OH234777   1.024   6.616   1.717
11611TIP3    H134778   0.952   6.636   1.777
11611TIP3    H234779   1.039   6.698   1.670
11612TIP3   OH234780   3.288   2.527   3.567
11612TIP3    H134781   3.370   2.487   3.595
11612TIP3    H234782   3.268   2.590   3.637
11613TIP3   OH234783   5.206   1.055   4.898
11613TIP3    H134784   5.214   1.042   4.992
11613TIP3    H234785   5.165   1.141   4.890
11614TIP3   OH234786   2.760   6.342   4.593
11614TIP3    H134787   2.848   6.308   4.611
11614TIP3    H234788   2.775   6.428   4.554
11615TIP3   OH234789   6.626   4.784   2.719
11615TIP3    H134790   6.689   4.713   2.732
11615TIP3    H234791   6.597   4.773   2.629
11616TIP3   OH234792   4.742   3.297   0.610
11616TIP3    H134793   4.815   3.335   0.560
11616TIP3    H234794   4.758   3.203   0.609
11617TIP3   OH234795   2.078   6.544   4.726
11617TIP3    H134796   1.999   6.498   4.697
11617TIP3    H234797   2.052   6.587   4.807
11618TIP3   OH234798   0.482   0.106   4.610
11618TIP3    H134799   0.471   0.042   4.540
11618TIP3    H234800   0.397   0.107   4.654
11619TIP3   OH234801   4.734   0.766   2.575
11619TIP3    H134802   4.735   0.730   2.664
11619TIP3    H234803   4.806   0.829   2.574
11620TIP3   OH234804   4.351   2.551   0.527
11620TIP3    H134805   4.355   2.521   0.436
11620TIP3    H234806   4.259   2.575   0.540
11621TIP3   OH234807   3.608   0.865   6.704
11621TIP3    H134808   3.685   0.890   6.653
11621TIP3    H234809   3.632   0.781   6.743
11622TIP3   OH234810   2.293   1.901   6.337
11622TIP3    H134811   2.225   1.838   6.362
11622TIP3    H234812   2.369   1.878   6.390
11623TIP3   OH234813   4.689   5.288   5.488
11623TIP3    H134814   4.772   5.246   5.512
11623TIP3    H234815   4.638   5.219   5.447
11624TIP3   OH234816   8.153   4.469   5.450
11624TIP3    H134817   8.222   4.504   5.395
11624TIP3    H234818   8.072   4.500   5.410
11625TIP3   OH234819   0.119   7.030   4.590
11625TIP3    H134820   0.150   6.990   4.509
11625TIP3    H234821   0.140   6.966   4.658
11626TIP3   OH234822   3.594   7.188   3.502
11626TIP3    H134823   3.566   7.276   3.476
11626TIP3    H234824   3.648   7.158   3.429
11627TIP3   OH234825   2.312   3.466   3.252
11627TIP3    H134826   2.380   3.498   3.312
11627TIP3    H234827   2.348   3.385   3.217
11628TIP3   OH234828   5.498   7.562   1.359
11628TIP3    H134829   5.445   7.513   1.423
11628TIP3    H234830   5.435   7.592   1.293
11629TIP3   OH234831   7.998   1.837   4.928
11629TIP3    H134832   7.990   1.913   4.985
11629TIP3    H234833   8.057   1.778   4.976
11630TIP3   OH234834   0.416   2.783   0.787
11630TIP3    H134835   0.382   2.706   0.742
11630TIP3    H234836   0.338   2.827   0.821
11631TIP3   OH234837   5.977   5.334   3.821
11631TIP3    H134838   6.021   5.286   3.891
11631TIP3    H234839   5.886   5.339   3.849
11632TIP3   OH234840   6.500   2.380   1.196
11632TIP3    H134841   6.572   2.379   1.134
11632TIP3    H234842   6.452   2.461   1.177
11633TIP3   OH234843   6.565   7.660   5.525
11633TIP3    H134844   6.552   7.708   5.607
11633TIP3    H234845   6.660   7.656   5.514
11634TIP3   OH234846   5.820   6.754   1.000
11634TIP3    H134847   5.746   6.770   1.058
11634TIP3    H234848   5.865   6.839   0.994
11635TIP3   OH234849   8.021   4.493   6.555
11635TIP3    H134850   7.971   4.572   6.535
11635TIP3    H234851   8.007   4.480   6.649
11636TIP3   OH234852   8.015   3.020   2.519
11636TIP3    H134853   8.022   3.043   2.612
11636TIP3    H234854   8.035   2.926   2.516
11637TIP3   OH234855   0.303   3.419   2.862
11637TIP3    H134856   0.365   3.473   2.911
11637TIP3    H234857   0.315   3.444   2.771
11638TIP3   OH234858   3.348   2.279   5.024
11638TIP3    H134859   3.257   2.266   5.052
11638TIP3    H234860   3.382   2.344   5.085
11639TIP3   OH234861   1.379   7.682   3.065
11639TIP3    H134862   1.430   7.603   3.082
11639TIP3    H234863   1.303   7.651   3.015
11640TIP3   OH234864   2.351   2.635   0.341
11640TIP3    H134865   2.297   2.578   0.396
11640TIP3    H234866   2.351   2.593   0.255
11641TIP3   OH234867   6.826   7.122   0.228
11641TIP3    H134868   6.884   7.126   0.304
11641TIP3    H234869   6.766   7.196   0.240
11642TIP3   OH234870   7.759   6.504   3.057
11642TIP3    H134871   7.686   6.494   3.119
11642TIP3    H234872   7.720   6.490   2.971
11643TIP3   OH234873   0.013   3.738   5.300
11643TIP3    H134874  -0.046   3.811   5.283
11643TIP3    H234875   0.101   3.775   5.291
11644TIP3   OH234876   1.879   3.107   1.819
11644TIP3    H134877   1.841   3.056   1.891
11644TIP3    H234878   1.905   3.040   1.755
11645TIP3   OH234879   3.497   1.665   2.471
11645TIP3    H134880   3.450   1.724   2.529
11645TIP3    H234881   3.473   1.694   2.383
11646TIP3   OH234882   2.951   7.628   3.164
11646TIP3    H134883   2.874   7.665   3.206
11646TIP3    H234884   3.024   7.681   3.195
11647TIP3   OH234885   7.516   4.781   6.114
11647TIP3    H134886   7.468   4.807   6.036
11647TIP3    H234887   7.458   4.720   6.159
11648TIP3   OH234888   4.446   3.956   6.410
11648TIP3    H134889   4.353   3.936   6.403
11648TIP3    H234890   4.459   4.029   6.349
11649TIP3   OH234891   8.049   4.558   4.608
11649TIP3    H134892   8.140   4.587   4.595
11649TIP3    H234893   8.024   4.596   4.692
11650TIP3   OH234894   3.636   2.920   3.333
11650TIP3    H134895   3.679   2.835   3.321
11650TIP3    H234896   3.598   2.915   3.421
11651TIP3   OH234897   0.505   4.819   0.519
11651TIP3    H134898   0.425   4.839   0.567
11651TIP3    H234899   0.490   4.732   0.482
11652TIP3   OH234900   5.129   1.132   1.234
11652TIP3    H134901   5.088   1.201   1.182
11652TIP3    H234902   5.059   1.069   1.251
11653TIP3   OH234903   8.325   4.597   1.841
11653TIP3    H134904   8.280   4.596   1.756
11653TIP3    H234905   8.280   4.664   1.892
11654TIP3   OH234906   5.964   7.454   5.744
11654TIP3    H134907   6.044   7.478   5.790
11654TIP3    H234908   5.916   7.536   5.735
11655TIP3   OH234909   7.664   6.664   6.657
11655TIP3    H134910   7.593   6.728   6.662
11655TIP3    H234911   7.631   6.596   6.599
11656TIP3   OH234912   1.666   1.175   0.319
11656TIP3    H134913   1.686   1.246   0.257
11656TIP3    H234914   1.744   1.119   0.318
11657TIP3   OH234915   3.378   0.510   1.927
11657TIP3    H134916   3.448   0.452   1.899
11657TIP3    H234917   3.343   0.469   2.007
11658TIP3   OH234918   2.658   0.113   5.078
11658TIP3    H134919   2.601   0.041   5.052
11658TIP3    H234920   2.618   0.190   5.039
11659TIP3   OH234921   1.013   7.643   1.988
11659TIP3    H134922   1.086   7.581   1.994
11659TIP3    H234923   1.054   7.728   1.972
11660TIP3   OH234924   8.135   2.690   4.743
11660TIP3    H134925   8.200   2.637   4.697
11660TIP3    H234926   8.051   2.660   4.708
11661TIP3   OH234927   2.154   0.356   2.379
11661TIP3    H134928   2.115   0.384   2.462
11661TIP3    H234929   2.182   0.438   2.338
11662TIP3   OH234930   5.269   6.023   5.264
11662TIP3    H134931   5.239   6.103   5.221
11662TIP3    H234932   5.203   5.958   5.241
11663TIP3   OH234933   1.922   4.195   1.588
11663TIP3    H134934   1.975   4.122   1.556
11663TIP3    H234935   1.985   4.256   1.626
11664TIP3   OH234936   8.158   1.274   1.659
11664TIP3    H134937   8.119   1.298   1.575
11664TIP3    H234938   8.252   1.273   1.643
11665TIP3   OH234939   5.939   6.552   3.376
11665TIP3    H134940   5.964   6.504   3.455
11665TIP3    H234941   5.869   6.498   3.337
11666TIP3   OH234942   7.623   0.307   3.652
11666TIP3    H134943   7.717   0.328   3.651
11666TIP3    H234944   7.586   0.369   3.715
11667TIP3   OH234945   5.452   6.833   2.505
11667TIP3    H134946   5.524   6.867   2.453
11667TIP3    H234947   5.376   6.837   2.446
11668TIP3   OH234948   8.095   3.927   0.310
11668TIP3    H134949   8.016   3.879   0.283
11668TIP3    H234950   8.078   3.949   0.402
11669TIP3   OH234951   2.871   5.165   3.757
11669TIP3    H134952   2.896   5.257   3.749
11669TIP3    H234953   2.939   5.127   3.813
11670TIP3   OH234954   2.811   4.435   0.290
11670TIP3    H134955   2.735   4.450   0.233
11670TIP3    H234956   2.801   4.501   0.359
11671TIP3   OH234957   4.017   4.781   4.836
11671TIP3    H134958   4.064   4.702   4.864
11671TIP3    H234959   3.940   4.785   4.892
11672TIP3   OH234960   0.021   1.478   2.345
11672TIP3    H134961   0.110   1.456   2.371
11672TIP3    H234962  -0.004   1.550   2.404
11673TIP3   OH234963   6.483   3.817   6.289
11673TIP3    H134964   6.498   3.774   6.205
11673TIP3    H234965   6.455   3.906   6.266
11674TIP3   OH234966   7.140   3.364   4.906
11674TIP3    H134967   7.173   3.285   4.865
11674TIP3    H234968   7.172   3.435   4.850
11675TIP3   OH234969   5.634   1.702   3.034
11675TIP3    H134970   5.562   1.762   3.016
11675TIP3    H234971   5.675   1.736   3.114
11676TIP3   OH234972   3.838   5.248   2.724
11676TIP3    H134973   3.839   5.224   2.631
11676TIP3    H234974   3.876   5.336   2.726
11677TIP3   OH234975   5.061   7.218   2.284
11677TIP3    H134976   5.001   7.197   2.356
11677TIP3    H234977   5.115   7.139   2.275
11678TIP3   OH234978   2.584   0.100   4.387
11678TIP3    H134979   2.532   0.174   4.357
11678TIP3    H234980   2.610   0.054   4.308
11679TIP3   OH234981   1.746   2.612   1.576
11679TIP3    H134982   1.780   2.702   1.583
11679TIP3    H234983   1.741   2.596   1.482
11680TIP3   OH234984   6.209   3.825   1.029
11680TIP3    H134985   6.212   3.741   1.075
11680TIP3    H234986   6.230   3.890   1.095
11681TIP3   OH234987   7.418   7.217   0.717
11681TIP3    H134988   7.496   7.167   0.744
11681TIP3    H234989   7.436   7.306   0.747
11682TIP3   OH234990   6.598   6.904   3.721
11682TIP3    H134991   6.612   6.915   3.815
11682TIP3    H234992   6.684   6.882   3.686
11683TIP3   OH234993   3.315   2.566   0.107
11683TIP3    H134994   3.286   2.505   0.038
11683TIP3    H234995   3.402   2.534   0.132
11684TIP3   OH234996   7.609   4.069   5.980
11684TIP3    H134997   7.661   4.138   5.939
11684TIP3    H234998   7.519   4.103   5.981
11685TIP3   OH234999   8.099   3.454   6.594
11685TIP3    H135000   8.099   3.538   6.640
11685TIP3    H235001   8.061   3.393   6.657
11686TIP3   OH235002   5.208   5.797   0.554
11686TIP3    H135003   5.212   5.716   0.603
11686TIP3    H235004   5.196   5.769   0.463
11687TIP3   OH235005   7.464   3.688   3.612
11687TIP3    H135006   7.465   3.716   3.520
11687TIP3    H235007   7.522   3.612   3.615
11688TIP3   OH235008   3.467   0.116   5.835
11688TIP3    H135009   3.412   0.112   5.913
11688TIP3    H235010   3.553   0.088   5.865
11689TIP3   OH235011   0.608   6.380   3.824
11689TIP3    H135012   0.701   6.382   3.845
11689TIP3    H235013   0.603   6.391   3.729
11690TIP3   OH235014   6.922   1.456   0.934
11690TIP3    H135015   6.958   1.542   0.915
11690TIP3    H235016   6.837   1.454   0.890
11691TIP3   OH235017   2.180   0.285   3.135
11691TIP3    H135018   2.253   0.228   3.108
11691TIP3    H235019   2.152   0.250   3.219
11692TIP3   OH235020   6.793   1.665   1.230
11692TIP3    H135021   6.858   1.732   1.252
11692TIP3    H235022   6.841   1.603   1.175
11693TIP3   OH235023   6.876   3.239   6.607
11693TIP3    H135024   6.870   3.255   6.702
11693TIP3    H235025   6.812   3.299   6.569
11694TIP3   OH235026   1.283   4.484   2.874
11694TIP3    H135027   1.376   4.479   2.853
11694TIP3    H235028   1.277   4.457   2.966
11695TIP3   OH235029   0.958   2.205   5.011
11695TIP3    H135030   0.933   2.256   5.088
11695TIP3    H235031   1.034   2.154   5.039
11696TIP3   OH235032   4.400   3.778   1.030
11696TIP3    H135033   4.492   3.804   1.022
11696TIP3    H235034   4.399   3.715   1.102
11697TIP3   OH235035   5.721   3.386   1.548
11697TIP3    H135036   5.741   3.397   1.455
11697TIP3    H235037   5.708   3.292   1.559
11698TIP3   OH235038   5.792   2.720   3.057
11698TIP3    H135039   5.865   2.708   3.118
11698TIP3    H235040   5.730   2.776   3.105
11699TIP3   OH235041   6.306   7.609   2.966
11699TIP3    H135042   6.321   7.684   2.909
11699TIP3    H235043   6.393   7.570   2.978
11700TIP3   OH235044   4.400   4.081   5.595
11700TIP3    H135045   4.394   4.175   5.612
11700TIP3    H235046   4.493   4.062   5.606
11701TIP3   OH235047   7.922   5.334   6.540
11701TIP3    H135048   7.844   5.365   6.494
11701TIP3    H235049   7.891   5.263   6.596
11702TIP3   OH235050   2.705   4.587   5.060
11702TIP3    H135051   2.754   4.569   4.980
11702TIP3    H235052   2.655   4.666   5.040
11703TIP3   OH235053   7.334   1.527   2.813
11703TIP3    H135054   7.423   1.550   2.785
11703TIP3    H235055   7.344   1.498   2.904
11704TIP3   OH235056   7.719   7.726   0.929
11704TIP3    H135057   7.626   7.743   0.944
11704TIP3    H235058   7.745   7.791   0.863
11705TIP3   OH235059   6.080   7.281   4.136
11705TIP3    H135060   6.047   7.281   4.047
11705TIP3    H235061   6.025   7.218   4.183
11706TIP3   OH235062   2.181   6.549   3.316
11706TIP3    H135063   2.200   6.629   3.365
11706TIP3    H235064   2.201   6.571   3.225
11707TIP3   OH235065   0.575   5.600   0.999
11707TIP3    H135066   0.501   5.617   0.941
11707TIP3    H235067   0.535   5.573   1.082
11708TIP3   OH235068   0.340   5.880   5.731
11708TIP3    H135069   0.287   5.947   5.688
11708TIP3    H235070   0.279   5.809   5.750
11709TIP3   OH235071   6.297   1.069   4.060
11709TIP3    H135072   6.339   1.094   4.142
11709TIP3    H235073   6.222   1.015   4.087
11710TIP3   OH235074   7.118   1.325   5.389
11710TIP3    H135075   7.039   1.342   5.439
11710TIP3    H235076   7.184   1.383   5.428
11711TIP3   OH235077   5.694   3.350   0.329
11711TIP3    H135078   5.618   3.321   0.380
11711TIP3    H235079   5.751   3.273   0.324
11712TIP3   OH235080   7.495   6.398   2.147
11712TIP3    H135081   7.530   6.379   2.061
11712TIP3    H235082   7.415   6.448   2.130
11713TIP3   OH235083   0.716   6.859   1.338
11713TIP3    H135084   0.729   6.827   1.427
11713TIP3    H235085   0.750   6.789   1.282
11714TIP3   OH235086   3.043   5.008   4.779
11714TIP3    H135087   3.131   4.984   4.809
11714TIP3    H235088   2.988   5.000   4.856
11715TIP3   OH235089   7.113   3.971   3.323
11715TIP3    H135090   7.102   4.065   3.308
11715TIP3    H235091   7.166   3.965   3.403
11716TIP3   OH235092   2.791   7.741   5.864
11716TIP3    H135093   2.803   7.793   5.943
11716TIP3    H235094   2.739   7.797   5.806
11717TIP3   OH235095   6.913   7.115   5.379
11717TIP3    H135096   6.901   7.145   5.288
11717TIP3    H235097   6.976   7.043   5.372
11718TIP3   OH235098   0.333   5.123   2.930
11718TIP3    H135099   0.389   5.050   2.957
11718TIP3    H235100   0.265   5.127   2.997
11719TIP3   OH235101   1.728   2.406   3.474
11719TIP3    H135102   1.717   2.376   3.384
11719TIP3    H235103   1.820   2.387   3.494
11720TIP3   OH235104   7.161   6.461   4.598
11720TIP3    H135105   7.135   6.423   4.514
11720TIP3    H235106   7.081   6.459   4.651
11721TIP3   OH235107   5.601   6.445   4.421
11721TIP3    H135108   5.505   6.438   4.427
11721TIP3    H235109   5.617   6.467   4.329
11722TIP3   OH235110   2.594   2.560   5.303
11722TIP3    H135111   2.625   2.488   5.248
11722TIP3    H235112   2.557   2.624   5.242
11723TIP3   OH235113   5.729   3.728   1.789
11723TIP3    H135114   5.644   3.751   1.751
11723TIP3    H235115   5.776   3.811   1.795
11724TIP3   OH235116   2.904   0.250   5.858
11724TIP3    H135117   2.995   0.236   5.884
11724TIP3    H235118   2.908   0.267   5.764
11725TIP3   OH235119   0.121   4.911   1.311
11725TIP3    H135120   0.113   4.818   1.330
11725TIP3    H235121   0.190   4.941   1.370
11726TIP3   OH235122   3.059   5.036   5.817
11726TIP3    H135123   3.090   5.008   5.903
11726TIP3    H235124   2.976   4.990   5.806
11727TIP3   OH235125   0.951   2.454   2.106
11727TIP3    H135126   0.896   2.383   2.071
11727TIP3    H235127   1.030   2.452   2.052
11728TIP3   OH235128   2.395   2.173   0.339
11728TIP3    H135129   2.385   2.174   0.244
11728TIP3    H235130   2.439   2.255   0.360
11729TIP3   OH235131   2.141   1.206   3.264
11729TIP3    H135132   2.070   1.227   3.205
11729TIP3    H235133   2.211   1.268   3.242
11730TIP3   OH235134   4.119   1.439   4.864
11730TIP3    H135135   4.066   1.441   4.784
11730TIP3    H235136   4.187   1.375   4.846
11731TIP3   OH235137   6.724   4.115   6.687
11731TIP3    H135138   6.679   4.188   6.729
11731TIP3    H235139   6.680   4.037   6.722
11732TIP3   OH235140   2.615   5.217   0.807
11732TIP3    H135141   2.571   5.276   0.867
11732TIP3    H235142   2.595   5.252   0.720
11733TIP3   OH235143   6.544   3.555   0.429
11733TIP3    H135144   6.613   3.621   0.436
11733TIP3    H235145   6.535   3.540   0.335
11734TIP3   OH235146   4.043   0.568   5.679
11734TIP3    H135147   4.045   0.664   5.685
11734TIP3    H235148   4.001   0.551   5.595
11735TIP3   OH235149   0.148   6.553   1.117
11735TIP3    H135150   0.091   6.477   1.107
11735TIP3    H235151   0.222   6.535   1.059
11736TIP3   OH235152   2.105   5.604   2.604
11736TIP3    H135153   2.184   5.653   2.625
11736TIP3    H235154   2.057   5.599   2.687
11737TIP3   OH235155   6.832   3.086   3.394
11737TIP3    H135156   6.917   3.128   3.406
11737TIP3    H235157   6.773   3.135   3.451
11738TIP3   OH235158   5.314   5.543   2.582
11738TIP3    H135159   5.384   5.603   2.555
11738TIP3    H235160   5.246   5.554   2.515
11739TIP3   OH235161   3.987   4.235   0.955
11739TIP3    H135162   3.960   4.155   1.000
11739TIP3    H235163   3.906   4.273   0.921
11740TIP3   OH235164   4.748   7.760   5.862
11740TIP3    H135165   4.685   7.698   5.826
11740TIP3    H235166   4.740   7.750   5.957
11741TIP3   OH235167   4.620   4.137   1.115
11741TIP3    H135168   4.675   4.148   1.192
11741TIP3    H235169   4.635   4.215   1.062
11742TIP3   OH235170   4.038   4.462   4.731
11742TIP3    H135171   4.043   4.367   4.729
11742TIP3    H235172   4.100   4.488   4.800
11743TIP3   OH235173   8.118   0.407   1.138
11743TIP3    H135174   8.142   0.493   1.105
11743TIP3    H235175   8.155   0.402   1.226
11744TIP3   OH235176   1.554   1.209   6.497
11744TIP3    H135177   1.491   1.182   6.429
11744TIP3    H235178   1.514   1.182   6.579
11745TIP3   OH235179   6.868   1.008   4.204
11745TIP3    H135180   6.799   1.008   4.137
11745TIP3    H235181   6.834   0.949   4.272
11746TIP3   OH235182   4.622   6.936   1.619
11746TIP3    H135183   4.568   6.914   1.543
11746TIP3    H235184   4.595   6.874   1.687
11747TIP3   OH235185   1.559   2.096   3.995
11747TIP3    H135186   1.527   2.008   4.015
11747TIP3    H235187   1.653   2.084   3.980
11748TIP3   OH235188   1.654   0.321   2.881
11748TIP3    H135189   1.675   0.413   2.869
11748TIP3    H235190   1.737   0.281   2.909
11749TIP3   OH235191   5.513   6.173   0.589
11749TIP3    H135192   5.561   6.105   0.542
11749TIP3    H235193   5.563   6.253   0.572
11750TIP3   OH235194   7.726   0.664   4.781
11750TIP3    H135195   7.658   0.628   4.837
11750TIP3    H235196   7.791   0.700   4.843
11751TIP3   OH235197   6.146   4.149   5.276
11751TIP3    H135198   6.218   4.134   5.216
11751TIP3    H235199   6.071   4.167   5.220
11752TIP3   OH235200   1.227   7.002   6.361
11752TIP3    H135201   1.264   7.073   6.307
11752TIP3    H235202   1.218   7.041   6.448
11753TIP3   OH235203   2.539   3.017   6.289
11753TIP3    H135204   2.578   2.973   6.365
11753TIP3    H235205   2.453   2.975   6.279
11754TIP3   OH235206   5.205   0.884   6.734
11754TIP3    H135207   5.289   0.903   6.692
11754TIP3    H235208   5.143   0.944   6.693
11755TIP3   OH235209   3.689   5.202   6.402
11755TIP3    H135210   3.664   5.113   6.430
11755TIP3    H235211   3.676   5.201   6.307
11756TIP3   OH235212   7.326   6.228   1.982
11756TIP3    H135213   7.373   6.268   1.908
11756TIP3    H235214   7.372   6.262   2.060
11757TIP3   OH235215   4.616   3.195   3.247
11757TIP3    H135216   4.556   3.270   3.247
11757TIP3    H235217   4.568   3.127   3.294
11758TIP3   OH235218   0.991   7.059   5.599
11758TIP3    H135219   1.004   7.102   5.684
11758TIP3    H235220   1.041   6.978   5.605
11759TIP3   OH235221   1.168   2.504   5.938
11759TIP3    H135222   1.092   2.454   5.908
11759TIP3    H235223   1.136   2.554   6.013
11760TIP3   OH235224   2.619   6.451   3.958
11760TIP3    H135225   2.590   6.392   3.888
11760TIP3    H235226   2.693   6.406   3.999
11761TIP3   OH235227   6.848   0.592   1.884
11761TIP3    H135228   6.845   0.575   1.978
11761TIP3    H235229   6.874   0.508   1.846
11762TIP3   OH235230   3.246   0.174   0.073
11762TIP3    H135231   3.319   0.163   0.013
11762TIP3    H235232   3.257   0.103   0.137
11763TIP3   OH235233   2.409   7.349   3.731
11763TIP3    H135234   2.374   7.268   3.695
11763TIP3    H235235   2.406   7.336   3.826
11764TIP3   OH235236   5.593   4.541   3.270
11764TIP3    H135237   5.526   4.587   3.220
11764TIP3    H235238   5.653   4.507   3.204
11765TIP3   OH235239   3.112   4.549   1.706
11765TIP3    H135240   3.041   4.592   1.753
11765TIP3    H235241   3.107   4.584   1.617
11766TIP3   OH235242   6.585   7.646   5.886
11766TIP3    H135243   6.672   7.608   5.899
11766TIP3    H235244   6.536   7.577   5.841
11767TIP3   OH235245   7.911   0.209   3.203
11767TIP3    H135246   7.921   0.182   3.294
11767TIP3    H235247   7.908   0.305   3.207
11768TIP3   OH235248   3.632   2.337   2.396
11768TIP3    H135249   3.644   2.250   2.358
11768TIP3    H235250   3.540   2.341   2.419
11769TIP3   OH235251   1.521   5.418   3.727
11769TIP3    H135252   1.615   5.405   3.712
11769TIP3    H235253   1.508   5.513   3.716
11770TIP3   OH235254   6.480   4.695   2.955
11770TIP3    H135255   6.387   4.685   2.936
11770TIP3    H235256   6.521   4.709   2.870
11771TIP3   OH235257   6.878   2.133   6.168
11771TIP3    H135258   6.909   2.048   6.135
11771TIP3    H235259   6.833   2.111   6.250
11772TIP3   OH235260   5.260   1.384   1.098
11772TIP3    H135261   5.205   1.383   1.176
11772TIP3    H235262   5.237   1.466   1.053
11773TIP3   OH235263   8.176   0.235   4.870
11773TIP3    H135264   8.171   0.201   4.780
11773TIP3    H235265   8.260   0.280   4.874
11774TIP3   OH235266   5.098   7.641   3.331
11774TIP3    H135267   5.117   7.548   3.314
11774TIP3    H235268   5.157   7.665   3.402
11775TIP3   OH235269   3.608   7.611   4.062
11775TIP3    H135270   3.696   7.578   4.044
11775TIP3    H235271   3.549   7.539   4.036
11776TIP3   OH235272   6.443   2.105   0.252
11776TIP3    H135273   6.440   2.016   0.288
11776TIP3    H235274   6.529   2.110   0.209
11777TIP3   OH235275   3.054   7.394   1.032
11777TIP3    H135276   2.962   7.386   1.007
11777TIP3    H235277   3.080   7.481   1.002
11778TIP3   OH235278   6.468   0.659   1.566
11778TIP3    H135279   6.428   0.655   1.653
11778TIP3    H235280   6.551   0.704   1.580
11779TIP3   OH235281   1.017   4.387   0.498
11779TIP3    H135282   1.091   4.404   0.557
11779TIP3    H235283   1.020   4.293   0.483
11780TIP3   OH235284   4.682   0.655   2.868
11780TIP3    H135285   4.660   0.637   2.959
11780TIP3    H235286   4.694   0.568   2.829
11781TIP3   OH235287   1.038   0.380   5.601
11781TIP3    H135288   1.015   0.382   5.508
11781TIP3    H235289   1.083   0.296   5.612
11782TIP3   OH235290   0.428   6.170   1.683
11782TIP3    H135291   0.431   6.225   1.761
11782TIP3    H235292   0.481   6.094   1.705
11783TIP3   OH235293   5.516   2.631   6.577
11783TIP3    H135294   5.464   2.710   6.563
11783TIP3    H235295   5.552   2.611   6.490
11784TIP3   OH235296   7.560   5.639   3.718
11784TIP3    H135297   7.577   5.580   3.644
11784TIP3    H235298   7.632   5.621   3.779
11785TIP3   OH235299   5.237   1.970   5.307
11785TIP3    H135300   5.182   2.027   5.252
11785TIP3    H235301   5.323   1.973   5.266
11786TIP3   OH235302   3.433   1.703   5.182
11786TIP3    H135303   3.454   1.760   5.108
11786TIP3    H235304   3.345   1.729   5.208
11787TIP3   OH235305   2.081   2.997   6.407
11787TIP3    H135306   2.099   2.909   6.439
11787TIP3    H235307   2.056   2.984   6.315
11788TIP3   OH235308   8.203   5.519   1.235
11788TIP3    H135309   8.123   5.571   1.225
11788TIP3    H235310   8.274   5.578   1.209
11789TIP3   OH235311   4.909   5.679   2.213
11789TIP3    H135312   4.884   5.767   2.241
11789TIP3    H235313   5.005   5.681   2.212
11790TIP3   OH235314   7.045   3.326   4.124
11790TIP3    H135315   7.013   3.396   4.067
11790TIP3    H235316   7.035   3.246   4.073
11791TIP3   OH235317   1.894   7.712   1.461
11791TIP3    H135318   1.943   7.733   1.381
11791TIP3    H235319   1.826   7.651   1.432
11792TIP3   OH235320   4.765   5.332   1.451
11792TIP3    H135321   4.784   5.404   1.511
11792TIP3    H235322   4.671   5.339   1.435
11793TIP3   OH235323   6.294   3.599   1.971
11793TIP3    H135324   6.207   3.629   1.945
11793TIP3    H235325   6.319   3.656   2.043
11794TIP3   OH235326   3.294   5.562   0.353
11794TIP3    H135327   3.219   5.621   0.341
11794TIP3    H235328   3.257   5.474   0.347
11795TIP3   OH235329   3.358   7.000   0.446
11795TIP3    H135330   3.414   7.078   0.446
11795TIP3    H235331   3.324   6.994   0.357
11796TIP3   OH235332   7.090   2.428   4.018
11796TIP3    H135333   7.060   2.447   4.106
11796TIP3    H235334   7.024   2.368   3.982
11797TIP3   OH235335   1.054   0.325   3.839
11797TIP3    H135336   1.014   0.404   3.803
11797TIP3    H235337   1.124   0.357   3.897
11798TIP3   OH235338   3.653   5.624   4.654
11798TIP3    H135339   3.601   5.577   4.719
11798TIP3    H235340   3.651   5.715   4.682
11799TIP3   OH235341   3.968   1.044   4.713
11799TIP3    H135342   4.004   1.028   4.626
11799TIP3    H235343   4.045   1.054   4.769
11800TIP3   OH235344   3.299   5.526   2.745
11800TIP3    H135345   3.207   5.534   2.719
11800TIP3    H235346   3.317   5.432   2.743
11801TIP3   OH235347   5.609   6.692   3.155
11801TIP3    H135348   5.670   6.636   3.202
11801TIP3    H235349   5.645   6.700   3.067
11802TIP3   OH235350   4.751   4.182   1.360
11802TIP3    H135351   4.768   4.273   1.383
11802TIP3    H235352   4.719   4.142   1.441
11803TIP3   OH235353   3.145   2.366   1.471
11803TIP3    H135354   3.204   2.325   1.535
11803TIP3    H235355   3.057   2.351   1.507
11804TIP3   OH235356   6.495   5.276   3.991
11804TIP3    H135357   6.456   5.189   3.997
11804TIP3    H235358   6.589   5.261   4.006
11805TIP3   OH235359   4.031   0.871   5.673
11805TIP3    H135360   4.102   0.904   5.727
11805TIP3    H235361   3.955   0.925   5.697
11806TIP3   OH235362   0.170   2.252   1.603
11806TIP3    H135363   0.158   2.284   1.693
11806TIP3    H235364   0.264   2.232   1.598
11807TIP3   OH235365   3.530   2.928   5.863
11807TIP3    H135366   3.517   2.835   5.848
11807TIP3    H235367   3.442   2.966   5.859
11808TIP3   OH235368   2.924   4.184   3.063
11808TIP3    H135369   2.915   4.236   3.142
11808TIP3    H235370   2.853   4.214   3.006
11809TIP3   OH235371   8.094   0.651   5.914
11809TIP3    H135372   8.102   0.740   5.950
11809TIP3    H235373   8.102   0.594   5.990
11810TIP3   OH235374   0.526   2.354   5.824
11810TIP3    H135375   0.597   2.318   5.771
11810TIP3    H235376   0.517   2.291   5.896
11811TIP3   OH235377   8.222   1.184   0.226
11811TIP3    H135378   8.172   1.263   0.249
11811TIP3    H235379   8.201   1.122   0.296
11812TIP3   OH235380   5.159   0.158   5.107
11812TIP3    H135381   5.234   0.207   5.139
11812TIP3    H235382   5.116   0.125   5.186
11813TIP3   OH235383   0.435   4.747   5.544
11813TIP3    H135384   0.445   4.805   5.468
11813TIP3    H235385   0.520   4.705   5.554
11814TIP3   OH235386   5.023   0.307   6.045
11814TIP3    H135387   4.983   0.222   6.027
11814TIP3    H235388   4.954   0.370   6.025
11815TIP3   OH235389   0.201   5.928   2.018
11815TIP3    H135390   0.221   5.879   2.098
11815TIP3    H235391   0.118   5.972   2.037
11816TIP3   OH235392   2.975   7.594   4.901
11816TIP3    H135393   3.023   7.513   4.886
11816TIP3    H235394   3.040   7.657   4.931
11817TIP3   OH235395   2.811   5.396   5.008
11817TIP3    H135396   2.776   5.395   5.097
11817TIP3    H235397   2.763   5.327   4.962
11818TIP3   OH235398  -0.026   1.202   4.304
11818TIP3    H135399  -0.059   1.112   4.299
11818TIP3    H235400   0.043   1.199   4.371
11819TIP3   OH235401   7.053   6.888   6.667
11819TIP3    H135402   7.000   6.950   6.617
11819TIP3    H235403   6.997   6.810   6.675
11820TIP3   OH235404   4.467   4.273   3.986
11820TIP3    H135405   4.485   4.283   4.080
11820TIP3    H235406   4.553   4.255   3.948
11821TIP3   OH235407   5.914   7.148   2.969
11821TIP3    H135408   5.920   7.243   2.976
11821TIP3    H235409   5.901   7.131   2.875
11822TIP3   OH235410   4.102   1.771   5.437
11822TIP3    H135411   4.146   1.853   5.459
11822TIP3    H235412   4.075   1.735   5.522
11823TIP3   OH235413   2.477   3.231   4.771
11823TIP3    H135414   2.471   3.139   4.798
11823TIP3    H235415   2.456   3.230   4.677
11824TIP3   OH235416   0.875   7.850   0.688
11824TIP3    H135417   0.875   7.779   0.752
11824TIP3    H235418   0.942   7.826   0.624
11825TIP3   OH235419   0.987   0.078   5.959
11825TIP3    H135420   0.946   0.062   6.044
11825TIP3    H235421   1.031  -0.004   5.937
11826TIP3   OH235422   1.404   3.997   6.686
11826TIP3    H135423   1.319   3.957   6.701
11826TIP3    H235424   1.392   4.089   6.709
11827TIP3   OH235425   2.881   0.805   2.907
11827TIP3    H135426   2.798   0.853   2.910
11827TIP3    H235427   2.891   0.771   2.996
11828TIP3   OH235428   1.679   6.510   0.095
11828TIP3    H135429   1.598   6.469   0.125
11828TIP3    H235430   1.749   6.463   0.141
11829TIP3   OH235431   4.873   7.138   4.964
11829TIP3    H135432   4.868   7.101   5.052
11829TIP3    H235433   4.949   7.197   4.967
11830TIP3   OH235434   2.799   5.822   3.019
11830TIP3    H135435   2.867   5.854   3.079
11830TIP3    H235436   2.756   5.902   2.987
11831TIP3   OH235437   4.880   3.693   5.481
11831TIP3    H135438   4.961   3.736   5.457
11831TIP3    H235439   4.872   3.621   5.418
11832TIP3   OH235440   6.577   5.477   4.567
11832TIP3    H135441   6.599   5.436   4.651
11832TIP3    H235442   6.482   5.473   4.562
11833TIP3   OH235443   7.559   6.769   5.217
11833TIP3    H135444   7.616   6.809   5.283
11833TIP3    H235445   7.504   6.708   5.267
11834TIP3   OH235446   6.813   7.186   3.531
11834TIP3    H135447   6.852   7.186   3.618
11834TIP3    H235448   6.862   7.252   3.482
11835TIP3   OH235449   6.765   5.351   3.735
11835TIP3    H135450   6.836   5.290   3.714
11835TIP3    H235451   6.767   5.358   3.830
11836TIP3   OH235452   3.347   1.237   0.380
11836TIP3    H135453   3.423   1.228   0.437
11836TIP3    H235454   3.287   1.295   0.427
11837TIP3   OH235455   0.430   0.867   6.153
11837TIP3    H135456   0.467   0.877   6.065
11837TIP3    H235457   0.495   0.814   6.200
11838TIP3   OH235458   5.997   0.717   6.650
11838TIP3    H135459   6.005   0.710   6.555
11838TIP3    H235460   6.043   0.640   6.684
11839TIP3   OH235461   1.657   6.768   6.358
11839TIP3    H135462   1.740   6.761   6.405
11839TIP3    H235463   1.593   6.793   6.425
11840TIP3   OH235464   2.707   0.808   1.227
11840TIP3    H135465   2.743   0.746   1.289
11840TIP3    H235466   2.730   0.773   1.141
11841TIP3   OH235467   4.319   0.830   2.707
11841TIP3    H135468   4.243   0.886   2.693
11841TIP3    H235469   4.372   0.842   2.628
11842TIP3   OH235470   3.212   0.555   5.955
11842TIP3    H135471   3.158   0.534   5.879
11842TIP3    H235472   3.159   0.530   6.030
11843TIP3   OH235473   0.349   1.421   4.291
11843TIP3    H135474   0.388   1.442   4.206
11843TIP3    H235475   0.395   1.342   4.319
11844TIP3   OH235476   5.138   5.697   1.856
11844TIP3    H135477   5.173   5.785   1.872
11844TIP3    H235478   5.214   5.640   1.865
11845TIP3   OH235479   1.155   6.254   5.140
11845TIP3    H135480   1.228   6.192   5.135
11845TIP3    H235481   1.191   6.330   5.186
11846TIP3   OH235482   0.566   4.387   4.561
11846TIP3    H135483   0.628   4.341   4.504
11846TIP3    H235484   0.480   4.353   4.535
11847TIP3   OH235485   1.327   1.729   1.226
11847TIP3    H135486   1.366   1.803   1.180
11847TIP3    H235487   1.384   1.716   1.302
11848TIP3   OH235488   3.332   1.656   2.882
11848TIP3    H135489   3.264   1.633   2.818
11848TIP3    H235490   3.414   1.643   2.835
11849TIP3   OH235491   1.075   0.348   4.432
11849TIP3    H135492   1.032   0.433   4.446
11849TIP3    H235493   1.051   0.323   4.343
11850TIP3   OH235494   6.197   6.594   3.721
11850TIP3    H135495   6.283   6.590   3.761
11850TIP3    H235496   6.210   6.563   3.632
11851TIP3   OH235497   1.432   2.613   4.264
11851TIP3    H135498   1.353   2.600   4.211
11851TIP3    H235499   1.399   2.629   4.352
11852TIP3   OH235500   4.951   5.797   4.176
11852TIP3    H135501   5.016   5.747   4.226
11852TIP3    H235502   4.867   5.768   4.211
11853TIP3   OH235503   5.198   2.507   5.513
11853TIP3    H135504   5.193   2.411   5.511
11853TIP3    H235505   5.281   2.526   5.556
11854TIP3   OH235506   2.713   3.348   4.590
11854TIP3    H135507   2.737   3.374   4.679
11854TIP3    H235508   2.769   3.401   4.534
11855TIP3   OH235509   2.405   1.914   4.978
11855TIP3    H135510   2.394   1.995   4.929
11855TIP3    H235511   2.391   1.939   5.069
11856TIP3   OH235512   0.562   1.412   2.686
11856TIP3    H135513   0.480   1.449   2.654
11856TIP3    H235514   0.600   1.481   2.740
11857TIP3   OH235515   1.715   0.670   2.107
11857TIP3    H135516   1.781   0.663   2.038
11857TIP3    H235517   1.704   0.765   2.120
11858TIP3   OH235518   4.247   5.450   0.438
11858TIP3    H135519   4.256   5.398   0.518
11858TIP3    H235520   4.156   5.479   0.438
11859TIP3   OH235521   7.059   0.734   4.245
11859TIP3    H135522   7.122   0.676   4.286
11859TIP3    H235523   7.047   0.805   4.308
11860TIP3   OH235524   1.781   5.262   4.289
11860TIP3    H135525   1.775   5.170   4.315
11860TIP3    H235526   1.708   5.275   4.229
11861TIP3   OH235527   3.027   0.924   6.214
11861TIP3    H135528   3.038   0.992   6.147
11861TIP3    H235529   3.052   0.966   6.296
11862TIP3   OH235530   2.507   7.247   1.054
11862TIP3    H135531   2.515   7.333   1.013
11862TIP3    H235532   2.429   7.209   1.014
11863TIP3   OH235533   2.593   2.263   4.993
11863TIP3    H135534   2.639   2.336   5.034
11863TIP3    H235535   2.564   2.297   4.909
11864TIP3   OH235536   7.148   7.767   4.442
11864TIP3    H135537   7.061   7.728   4.449
11864TIP3    H235538   7.197   7.707   4.385
11865TIP3   OH235539   6.399   0.037   5.393
11865TIP3    H135540   6.324  -0.022   5.392
11865TIP3    H235541   6.361   0.124   5.378
11866TIP3   OH235542   2.453   0.078   6.481
11866TIP3    H135543   2.384   0.143   6.470
11866TIP3    H235544   2.529   0.129   6.510
11867TIP3   OH235545   1.015   6.282   6.134
11867TIP3    H135546   1.025   6.188   6.149
11867TIP3    H235547   1.029   6.294   6.040
11868TIP3   OH235548   6.548   2.045   1.172
11868TIP3    H135549   6.469   2.068   1.221
11868TIP3    H235550   6.518   2.033   1.082
11869TIP3   OH235551   0.921   0.615   6.012
11869TIP3    H135552   0.959   0.690   5.966
11869TIP3    H235553   0.921   0.544   5.948
11870TIP3   OH235554   6.273   2.758   4.636
11870TIP3    H135555   6.244   2.821   4.569
11870TIP3    H235556   6.194   2.709   4.658
11871TIP3   OH235557   6.471   4.575   3.344
11871TIP3    H135558   6.417   4.654   3.345
11871TIP3    H235559   6.541   4.594   3.282
11872TIP3   OH235560   5.072   2.434   3.501
11872TIP3    H135561   5.073   2.419   3.407
11872TIP3    H235562   4.980   2.451   3.522
11873TIP3   OH235563   7.759   1.425   4.872
11873TIP3    H135564   7.844   1.442   4.912
11873TIP3    H235565   7.726   1.347   4.918
11874TIP3   OH235566   3.175   2.839   6.353
11874TIP3    H135567   3.130   2.922   6.364
11874TIP3    H235568   3.232   2.831   6.429
11875TIP3   OH235569   6.768   3.411   1.527
11875TIP3    H135570   6.766   3.357   1.449
11875TIP3    H235571   6.713   3.486   1.506
11876TIP3   OH235572   4.206   0.356   0.215
11876TIP3    H135573   4.187   0.414   0.290
11876TIP3    H235574   4.120   0.332   0.181
11877TIP3   OH235575   8.066   1.853   0.450
11877TIP3    H135576   7.983   1.804   0.452
11877TIP3    H235577   8.121   1.809   0.515
11878TIP3   OH235578   4.425   0.291   5.734
11878TIP3    H135579   4.403   0.233   5.807
11878TIP3    H235580   4.341   0.319   5.698
11879TIP3   OH235581   6.668   5.807   0.617
11879TIP3    H135582   6.735   5.869   0.587
11879TIP3    H235583   6.657   5.747   0.544
11880TIP3   OH235584   0.765   4.495   6.540
11880TIP3    H135585   0.856   4.472   6.522
11880TIP3    H235586   0.765   4.516   6.633
11881TIP3   OH235587   6.330   5.576   6.522
11881TIP3    H135588   6.284   5.633   6.461
11881TIP3    H235589   6.381   5.635   6.577
11882TIP3   OH235590   3.510   1.513   6.480
11882TIP3    H135591   3.520   1.606   6.501
11882TIP3    H235592   3.570   1.498   6.408
11883TIP3   OH235593   4.153   3.664   1.310
11883TIP3    H135594   4.084   3.704   1.362
11883TIP3    H235595   4.109   3.596   1.259
11884TIP3   OH235596   1.909   3.966   0.112
11884TIP3    H135597   1.947   3.949   0.198
11884TIP3    H235598   1.915   4.061   0.101
11885TIP3   OH235599   3.753   1.033   5.692
11885TIP3    H135600   3.679   0.972   5.697
11885TIP3    H235601   3.738   1.095   5.763
11886TIP3   OH235602   4.221   7.626   5.232
11886TIP3    H135603   4.195   7.690   5.299
11886TIP3    H235604   4.316   7.620   5.242
11887TIP3   OH235605   1.332   0.227   5.378
11887TIP3    H135606   1.366   0.316   5.381
11887TIP3    H235607   1.239   0.237   5.357
11888TIP3   OH235608   3.348   1.579   4.951
11888TIP3    H135609   3.411   1.509   4.935
11888TIP3    H235610   3.369   1.610   5.039
11889TIP3   OH235611   1.691   0.231   3.435
11889TIP3    H135612   1.747   0.154   3.444
11889TIP3    H235613   1.605   0.202   3.466
11890TIP3   OH235614   6.138   4.388   2.151
11890TIP3    H135615   6.070   4.401   2.085
11890TIP3    H235616   6.182   4.473   2.157
11891TIP3   OH235617   6.054   5.075   1.928
11891TIP3    H135618   6.039   4.985   1.897
11891TIP3    H235619   5.980   5.093   1.985
11892TIP3   OH235620   1.566   4.974   5.244
11892TIP3    H135621   1.621   4.947   5.171
11892TIP3    H235622   1.510   5.043   5.208
11893TIP3   OH235623   3.751   6.827   3.505
11893TIP3    H135624   3.815   6.897   3.523
11893TIP3    H235625   3.730   6.838   3.413
11894TIP3   OH235626   3.186   4.237   6.020
11894TIP3    H135627   3.159   4.174   5.953
11894TIP3    H235628   3.161   4.322   5.984
11895TIP3   OH235629   5.035   6.561   5.751
11895TIP3    H135630   4.981   6.514   5.815
11895TIP3    H235631   5.114   6.508   5.742
11896TIP3   OH235632   5.160   4.275   0.312
11896TIP3    H135633   5.218   4.203   0.335
11896TIP3    H235634   5.212   4.329   0.252
11897TIP3   OH235635   6.548   2.178   4.460
11897TIP3    H135636   6.591   2.093   4.470
11897TIP3    H235637   6.458   2.164   4.487
11898TIP3   OH235638   3.477   7.159   2.487
11898TIP3    H135639   3.392   7.190   2.456
11898TIP3    H235640   3.456   7.107   2.565
11899TIP3   OH235641   1.569   3.259   0.981
11899TIP3    H135642   1.622   3.213   0.916
11899TIP3    H235643   1.505   3.194   1.010
11900TIP3   OH235644   3.183   1.769   5.495
11900TIP3    H135645   3.099   1.796   5.533
11900TIP3    H235646   3.170   1.677   5.470
11901TIP3   OH235647   1.979   4.510   3.670
11901TIP3    H135648   1.884   4.507   3.656
11901TIP3    H235649   2.014   4.543   3.587
11902TIP3   OH235650   0.384   7.551   5.992
11902TIP3    H135651   0.409   7.470   5.948
11902TIP3    H235652   0.288   7.545   5.999
11903TIP3   OH235653   3.799   0.721   0.175
11903TIP3    H135654   3.790   0.715   0.080
11903TIP3    H235655   3.742   0.794   0.200
11904TIP3   OH235656   1.158   6.493   5.730
11904TIP3    H135657   1.094   6.520   5.796
11904TIP3    H235658   1.216   6.568   5.720
11905TIP3   OH235659   3.358   7.799   4.814
11905TIP3    H135660   3.395   7.760   4.894
11905TIP3    H235661   3.318   7.880   4.843
11906TIP3   OH235662   1.429   3.034   6.502
11906TIP3    H135663   1.341   3.006   6.527
11906TIP3    H235664   1.415   3.085   6.421
11907TIP3   OH235665   6.528   5.054   1.325
11907TIP3    H135666   6.539   5.130   1.382
11907TIP3    H235667   6.498   5.090   1.242
11908TIP3   OH235668   3.888   1.303   6.730
11908TIP3    H135669   3.896   1.315   6.824
11908TIP3    H235670   3.798   1.330   6.709
11909TIP3   OH235671   7.688   4.374   0.750
11909TIP3    H135672   7.624   4.384   0.679
11909TIP3    H235673   7.642   4.324   0.817
11910TIP3   OH235674   6.051   4.659   0.481
11910TIP3    H135675   6.062   4.742   0.527
11910TIP3    H235676   6.084   4.675   0.393
11911TIP3   OH235677   4.112   1.816   2.881
11911TIP3    H135678   4.138   1.754   2.949
11911TIP3    H235679   4.195   1.850   2.847
11912TIP3   OH235680   3.016   4.898   1.558
11912TIP3    H135681   3.092   4.881   1.614
11912TIP3    H235682   3.053   4.930   1.476
11913TIP3   OH235683   7.251   7.013   6.531
11913TIP3    H135684   7.212   6.957   6.599
11913TIP3    H235685   7.299   6.951   6.475
11914TIP3   OH235686   7.662   4.747   2.392
11914TIP3    H135687   7.654   4.766   2.299
11914TIP3    H235688   7.757   4.737   2.406
11915TIP3   OH235689   6.739   1.438   1.762
11915TIP3    H135690   6.715   1.478   1.678
11915TIP3    H235691   6.778   1.354   1.739
11916TIP3   OH235692   2.544   6.527   5.330
11916TIP3    H135693   2.627   6.569   5.352
11916TIP3    H235694   2.552   6.503   5.238
11917TIP3   OH235695   0.664   2.647   1.675
11917TIP3    H135696   0.637   2.691   1.595
11917TIP3    H235697   0.706   2.715   1.727
11918TIP3   OH235698   8.055   6.230   1.218
11918TIP3    H135699   8.094   6.258   1.135
11918TIP3    H235700   7.973   6.279   1.223
11919TIP3   OH235701   1.064   4.821   2.428
11919TIP3    H135702   1.116   4.858   2.500
11919TIP3    H235703   1.019   4.746   2.468
11920TIP3   OH235704   7.988   2.902   0.408
11920TIP3    H135705   8.082   2.916   0.399
11920TIP3    H235706   7.972   2.815   0.372
11921TIP3   OH235707   2.097   2.104   6.518
11921TIP3    H135708   2.031   2.121   6.586
11921TIP3    H235709   2.177   2.084   6.566
11922TIP3   OH235710   3.564   4.835   1.151
11922TIP3    H135711   3.551   4.753   1.105
11922TIP3    H235712   3.632   4.816   1.216
11923TIP3   OH235713   2.526   5.465   2.586
11923TIP3    H135714   2.499   5.450   2.495
11923TIP3    H235715   2.564   5.381   2.614
11924TIP3   OH235716   4.825   1.115   0.554
11924TIP3    H135717   4.912   1.152   0.538
11924TIP3    H235718   4.839   1.053   0.626
11925TIP3   OH235719   7.160   0.955   6.559
11925TIP3    H135720   7.228   0.928   6.620
11925TIP3    H235721   7.205   0.970   6.476
11926TIP3   OH235722   3.450   1.014   6.181
11926TIP3    H135723   3.384   0.946   6.169
11926TIP3    H235724   3.483   0.999   6.270
11927TIP3   OH235725   0.506   3.406   2.038
11927TIP3    H135726   0.520   3.491   2.080
11927TIP3    H235727   0.446   3.361   2.097
11928TIP3   OH235728   6.314   2.092   1.304
11928TIP3    H135729   6.251   2.105   1.233
11928TIP3    H235730   6.283   2.149   1.375
11929TIP3   OH235731   4.366   0.912   3.444
11929TIP3    H135732   4.458   0.935   3.440
11929TIP3    H235733   4.357   0.862   3.525
11930TIP3   OH235734   3.746   1.597   1.547
11930TIP3    H135735   3.732   1.586   1.453
11930TIP3    H235736   3.709   1.683   1.567
11931TIP3   OH235737   3.326   6.896   5.759
11931TIP3    H135738   3.243   6.851   5.745
11931TIP3    H235739   3.311   6.951   5.837
11932TIP3   OH235740   1.581   1.207   4.963
11932TIP3    H135741   1.515   1.208   5.033
11932TIP3    H235742   1.664   1.191   5.007
11933TIP3   OH235743   3.773   0.198   1.652
11933TIP3    H135744   3.718   0.138   1.603
11933TIP3    H235745   3.767   0.281   1.605
11934TIP3   OH235746   4.700   7.737   6.155
11934TIP3    H135747   4.628   7.800   6.153
11934TIP3    H235748   4.762   7.773   6.218
11935TIP3   OH235749   0.939   7.620   0.835
11935TIP3    H135750   0.855   7.583   0.808
11935TIP3    H235751   0.999   7.597   0.764
11936TIP3   OH235752   6.082   5.494   5.823
11936TIP3    H135753   6.079   5.413   5.772
11936TIP3    H235754   6.021   5.478   5.896
11937TIP3   OH235755   3.083   6.803   3.531
11937TIP3    H135756   3.043   6.883   3.496
11937TIP3    H235757   3.010   6.752   3.565
11938TIP3   OH235758   5.977   5.554   0.673
11938TIP3    H135759   5.957   5.576   0.764
11938TIP3    H235760   6.049   5.613   0.649
11939TIP3   OH235761   4.596   3.960   6.656
11939TIP3    H135762   4.572   3.968   6.564
11939TIP3    H235763   4.631   3.871   6.664
11940TIP3   OH235764   2.133   6.374   6.580
11940TIP3    H135765   2.124   6.424   6.661
11940TIP3    H235766   2.082   6.294   6.595
11941TIP3   OH235767   7.559   0.774   4.275
11941TIP3    H135768   7.505   0.822   4.338
11941TIP3    H235769   7.635   0.745   4.326
11942TIP3   OH235770   3.579   5.107   2.715
11942TIP3    H135771   3.607   5.030   2.668
11942TIP3    H235772   3.659   5.158   2.730
11943TIP3   OH235773   2.732   6.137   6.418
11943TIP3    H135774   2.666   6.114   6.353
11943TIP3    H235775   2.792   6.063   6.420
11944TIP3   OH235776   1.608   3.451   1.511
11944TIP3    H135777   1.660   3.374   1.534
11944TIP3    H235778   1.662   3.525   1.539
11945TIP3   OH235779   5.218   3.712   2.610
11945TIP3    H135780   5.262   3.671   2.685
11945TIP3    H235781   5.126   3.712   2.634
11946TIP3   OH235782   1.253   1.209   5.951
11946TIP3    H135783   1.248   1.261   6.032
11946TIP3    H235784   1.171   1.160   5.948
11947TIP3   OH235785   6.191   1.745   3.215
11947TIP3    H135786   6.268   1.772   3.165
11947TIP3    H235787   6.213   1.657   3.246
11948TIP3   OH235788   0.405   2.703   2.186
11948TIP3    H135789   0.475   2.694   2.121
11948TIP3    H235790   0.325   2.716   2.135
11949TIP3   OH235791   3.075   4.493   5.989
11949TIP3    H135792   3.070   4.560   6.057
11949TIP3    H235793   2.984   4.467   5.974
11950TIP3   OH235794   6.413   7.532   5.165
11950TIP3    H135795   6.498   7.499   5.193
11950TIP3    H235796   6.379   7.464   5.107
11951TIP3   OH235797   2.146   3.434   1.650
11951TIP3    H135798   2.110   3.507   1.700
11951TIP3    H235799   2.230   3.416   1.691
11952TIP3   OH235800   4.474   4.773   0.700
11952TIP3    H135801   4.467   4.858   0.743
11952TIP3    H235802   4.389   4.760   0.658
11953TIP3   OH235803   7.930   1.896   2.980
11953TIP3    H135804   7.889   1.938   2.905
11953TIP3    H235805   8.016   1.939   2.987
11954TIP3   OH235806   3.182   1.971   0.180
11954TIP3    H135807   3.102   1.993   0.132
11954TIP3    H235808   3.251   1.973   0.114
11955TIP3   OH235809   2.788   4.411   2.111
11955TIP3    H135810   2.695   4.387   2.114
11955TIP3    H235811   2.823   4.381   2.195
11956TIP3   OH235812   1.671   5.951   4.031
11956TIP3    H135813   1.692   5.858   4.022
11956TIP3    H235814   1.643   5.961   4.122
11957TIP3   OH235815   4.574   2.036   6.025
11957TIP3    H135816   4.514   2.105   6.055
11957TIP3    H235817   4.553   1.961   6.081
11958TIP3   OH235818   1.254   7.230   3.915
11958TIP3    H135819   1.194   7.228   3.841
11958TIP3    H235820   1.240   7.147   3.960
11959TIP3   OH235821   5.959   2.050   2.567
11959TIP3    H135822   5.919   2.136   2.578
11959TIP3    H235823   6.053   2.067   2.560
11960TIP3   OH235824   4.309   0.349   5.420
11960TIP3    H135825   4.253   0.295   5.363
11960TIP3    H235826   4.264   0.349   5.504
11961TIP3   OH235827   3.577   6.912   2.109
11961TIP3    H135828   3.518   6.842   2.082
11961TIP3    H235829   3.608   6.886   2.195
11962TIP3   OH235830   8.025   4.055   6.713
11962TIP3    H135831   8.028   3.996   6.789
11962TIP3    H235832   8.059   4.139   6.747
11963TIP3   OH235833   2.984   5.684   2.772
11963TIP3    H135834   2.968   5.719   2.859
11963TIP3    H235835   3.043   5.748   2.731
11964TIP3   OH235836   1.710   3.163   2.809
11964TIP3    H135837   1.711   3.183   2.716
11964TIP3    H235838   1.780   3.217   2.846
11965TIP3   OH235839   6.337   0.446   5.864
11965TIP3    H135840   6.293   0.436   5.780
11965TIP3    H235841   6.325   0.538   5.887
11966TIP3   OH235842   7.588   1.399   4.167
11966TIP3    H135843   7.566   1.308   4.189
11966TIP3    H235844   7.512   1.450   4.195
11967TIP3   OH235845   6.612   1.070   4.715
11967TIP3    H135846   6.692   1.112   4.748
11967TIP3    H235847   6.597   1.111   4.630
11968TIP3   OH235848   2.995   6.307   1.199
11968TIP3    H135849   2.916   6.279   1.245
11968TIP3    H235850   2.964   6.358   1.125
11969TIP3   OH235851   3.758   0.605   1.025
11969TIP3    H135852   3.728   0.694   1.006
11969TIP3    H235853   3.718   0.584   1.109
11970TIP3   OH235854   7.275   4.654   4.755
11970TIP3    H135855   7.354   4.642   4.807
11970TIP3    H235856   7.287   4.596   4.679
11971TIP3   OH235857   4.602   0.419   1.681
11971TIP3    H135858   4.632   0.338   1.641
11971TIP3    H235859   4.565   0.470   1.608
11972TIP3   OH235860   4.538   5.119   3.762
11972TIP3    H135861   4.455   5.113   3.809
11972TIP3    H235862   4.515   5.159   3.678
11973TIP3   OH235863   0.566   0.443   5.104
11973TIP3    H135864   0.551   0.482   5.190
11973TIP3    H235865   0.545   0.514   5.042
11974TIP3   OH235866   5.315   7.080   3.755
11974TIP3    H135867   5.299   7.022   3.680
11974TIP3    H235868   5.237   7.070   3.810
11975TIP3   OH235869   4.515   5.511   0.378
11975TIP3    H135870   4.421   5.508   0.398
11975TIP3    H235871   4.552   5.436   0.425
11976TIP3   OH235872   5.359   5.049   2.447
11976TIP3    H135873   5.321   4.988   2.383
11976TIP3    H235874   5.391   4.994   2.518
11977TIP3   OH235875   0.472   6.050   0.459
11977TIP3    H135876   0.476   5.990   0.385
11977TIP3    H235877   0.379   6.066   0.472
11978TIP3   OH235878   7.961   0.561   2.186
11978TIP3    H135879   8.000   0.634   2.139
11978TIP3    H235880   7.890   0.531   2.129
11979TIP3   OH235881   2.730   5.795   2.587
11979TIP3    H135882   2.716   5.763   2.676
11979TIP3    H235883   2.781   5.727   2.544
11980TIP3   OH235884   1.338   5.220   3.608
11980TIP3    H135885   1.383   5.186   3.530
11980TIP3    H235886   1.402   5.279   3.648
11981TIP3   OH235887   6.532   1.895   2.526
11981TIP3    H135888   6.610   1.920   2.576
11981TIP3    H235889   6.560   1.897   2.435
11982TIP3   OH235890   4.102   2.888   0.112
11982TIP3    H135891   4.029   2.893   0.174
11982TIP3    H235892   4.079   2.950   0.043
11983TIP3   OH235893   2.601   4.309   6.448
11983TIP3    H135894   2.647   4.233   6.486
11983TIP3    H235895   2.535   4.270   6.390
11984TIP3   OH235896   7.669   3.251   3.184
11984TIP3    H135897   7.686   3.344   3.173
11984TIP3    H235898   7.580   3.246   3.218
11985TIP3   OH235899   5.691   6.064   0.165
11985TIP3    H135900   5.763   6.118   0.198
11985TIP3    H235901   5.678   6.093   0.075
11986TIP3   OH235902   3.437   3.236   5.769
11986TIP3    H135903   3.504   3.195   5.714
11986TIP3    H235904   3.364   3.174   5.767
11987TIP3   OH235905   7.659   5.974   5.992
11987TIP3    H135906   7.754   5.979   5.988
11987TIP3    H235907   7.633   6.048   6.047
11988TIP3   OH235908   6.023   6.769   5.305
11988TIP3    H135909   6.049   6.861   5.295
11988TIP3    H235910   6.098   6.726   5.345
11989TIP3   OH235911   4.226   6.629   1.483
11989TIP3    H135912   4.227   6.580   1.400
11989TIP3    H235913   4.162   6.582   1.537
11990TIP3   OH235914   4.215   0.368   3.085
11990TIP3    H135915   4.192   0.436   3.022
11990TIP3    H235916   4.281   0.316   3.040
11991TIP3   OH235917   2.057   1.043   5.917
11991TIP3    H135918   2.029   1.008   6.001
11991TIP3    H235919   2.118   1.114   5.938
11992TIP3   OH235920   7.979   3.666   0.268
11992TIP3    H135921   8.015   3.578   0.280
11992TIP3    H235922   7.954   3.695   0.356
11993TIP3   OH235923   6.330   6.430   6.671
11993TIP3    H135924   6.303   6.362   6.610
11993TIP3    H235925   6.271   6.503   6.654
11994TIP3   OH235926   7.073   4.088   5.566
11994TIP3    H135927   7.155   4.049   5.536
11994TIP3    H235928   7.020   4.014   5.594
11995TIP3   OH235929   4.451   3.921   3.422
11995TIP3    H135930   4.473   3.828   3.413
11995TIP3    H235931   4.356   3.924   3.419
11996TIP3   OH235932   7.125   7.004   0.236
11996TIP3    H135933   7.131   6.912   0.261
11996TIP3    H235934   7.049   7.009   0.178
11997TIP3   OH235935   5.858   2.522   0.265
11997TIP3    H135936   5.780   2.471   0.243
11997TIP3    H235937   5.913   2.515   0.187
11998TIP3   OH235938   4.592   4.078   3.706
11998TIP3    H135939   4.521   4.120   3.657
11998TIP3    H235940   4.616   4.001   3.654
11999TIP3   OH235941   7.957   7.539   4.299
11999TIP3    H135942   7.909   7.532   4.217
11999TIP3    H235943   8.047   7.558   4.274
12000TIP3   OH235944   2.912   1.276   2.084
12000TIP3    H135945   2.955   1.225   2.152
12000TIP3    H235946   2.918   1.367   2.114
12001TIP3   OH235947   2.806   5.076   5.420
12001TIP3    H135948   2.782   4.985   5.433
12001TIP3    H235949   2.726   5.125   5.438
12002TIP3   OH235950   4.509   0.956   0.665
12002TIP3    H135951   4.587   0.905   0.687
12002TIP3    H235952   4.481   0.994   0.748
12003TIP3   OH235953   4.582   7.316   2.584
12003TIP3    H135954   4.599   7.303   2.678
12003TIP3    H235955   4.614   7.404   2.566
12004TIP3   OH235956   1.675   6.684   4.837
12004TIP3    H135957   1.713   6.606   4.877
12004TIP3    H235958   1.741   6.714   4.775
12005TIP3   OH235959   6.175   2.388   5.012
12005TIP3    H135960   6.127   2.317   5.055
12005TIP3    H235961   6.251   2.344   4.973
12006TIP3   OH235962   5.673   7.638   0.657
12006TIP3    H135963   5.751   7.604   0.614
12006TIP3    H235964   5.628   7.688   0.589
12007TIP3   OH235965   5.618   2.864   2.618
12007TIP3    H135966   5.530   2.838   2.643
12007TIP3    H235967   5.635   2.943   2.669
12008TIP3   OH235968   7.137   6.071   5.978
12008TIP3    H135969   7.063   6.021   6.013
12008TIP3    H235970   7.210   6.009   5.981
12009TIP3   OH235971   5.467   5.657   3.839
12009TIP3    H135972   5.517   5.733   3.869
12009TIP3    H235973   5.524   5.614   3.775
12010TIP3   OH235974   6.779   0.494   3.599
12010TIP3    H135975   6.857   0.484   3.654
12010TIP3    H235976   6.813   0.521   3.514
12011TIP3   OH235977   0.376   2.531   5.695
12011TIP3    H135978   0.427   2.458   5.730
12011TIP3    H235979   0.292   2.526   5.740
12012TIP3   OH235980   2.036   1.953   3.162
12012TIP3    H135981   1.957   1.928   3.114
12012TIP3    H235982   2.030   1.907   3.245
12013TIP3   OH235983   0.209   2.589   1.121
12013TIP3    H135984   0.260   2.525   1.071
12013TIP3    H235985   0.131   2.541   1.148
12014TIP3   OH235986   7.255   7.101   2.308
12014TIP3    H135987   7.183   7.157   2.279
12014TIP3    H235988   7.334   7.149   2.284
12015TIP3   OH235989   2.373   1.879   3.584
12015TIP3    H135990   2.342   1.965   3.611
12015TIP3    H235991   2.464   1.894   3.558
12016TIP3   OH235992   7.862   5.475   4.418
12016TIP3    H135993   7.781   5.464   4.468
12016TIP3    H235994   7.847   5.426   4.337
12017TIP3   OH235995   0.708   3.768   0.993
12017TIP3    H135996   0.692   3.863   0.987
12017TIP3    H235997   0.673   3.743   1.078
12018TIP3   OH235998   0.901   2.630   1.089
12018TIP3    H135999   0.890   2.572   1.013
12018TIP3    H236000   0.839   2.596   1.154
12019TIP3   OH236001   3.799   3.549   2.031
12019TIP3    H136002   3.789   3.638   1.999
12019TIP3    H236003   3.768   3.553   2.122
12020TIP3   OH236004   4.200   1.567   3.501
12020TIP3    H136005   4.127   1.549   3.560
12020TIP3    H236006   4.278   1.549   3.553
12021TIP3   OH236007   2.699   5.861   5.147
12021TIP3    H136008   2.627   5.799   5.165
12021TIP3    H236009   2.777   5.806   5.142
12022TIP3   OH236010   0.362   3.189   2.177
12022TIP3    H136011   0.318   3.137   2.110
12022TIP3    H236012   0.428   3.130   2.213
12023TIP3   OH236013   6.179   3.566   0.653
12023TIP3    H136014   6.144   3.653   0.634
12023TIP3    H236015   6.176   3.520   0.569
12024TIP3   OH236016   4.801   4.076   5.324
12024TIP3    H136017   4.884   4.075   5.277
12024TIP3    H236018   4.743   4.021   5.271
12025TIP3   OH236019   4.080   5.346   3.501
12025TIP3    H136020   4.104   5.378   3.588
12025TIP3    H236021   4.151   5.288   3.476
12026TIP3   OH236022   3.050   2.175   0.721
12026TIP3    H136023   3.117   2.222   0.770
12026TIP3    H236024   3.046   2.219   0.636
12027TIP3   OH236025   0.282   0.803   3.496
12027TIP3    H136026   0.195   0.809   3.536
12027TIP3    H236027   0.296   0.887   3.454
12028TIP3   OH236028   8.262   1.534   2.082
12028TIP3    H136029   8.261   1.630   2.080
12028TIP3    H236030   8.299   1.512   2.168
12029TIP3   OH236031   0.958   7.265   5.849
12029TIP3    H136032   0.896   7.202   5.884
12029TIP3    H236033   0.991   7.311   5.926
12030TIP3   OH236034   6.664   4.274   1.039
12030TIP3    H136035   6.626   4.212   0.977
12030TIP3    H236036   6.706   4.340   0.985
12031TIP3   OH236037   5.346   4.663   4.447
12031TIP3    H136038   5.253   4.661   4.425
12031TIP3    H236039   5.374   4.571   4.444
12032TIP3   OH236040   7.478   4.449   1.591
12032TIP3    H136041   7.451   4.541   1.585
12032TIP3    H236042   7.515   4.440   1.679
12033TIP3   OH236043   1.215   7.814   4.671
12033TIP3    H136044   1.228   7.726   4.634
12033TIP3    H236045   1.212   7.871   4.594
12034TIP3   OH236046   2.137   1.903   2.463
12034TIP3    H136047   2.223   1.885   2.426
12034TIP3    H236048   2.152   1.913   2.557
12035TIP3   OH236049   7.700   1.019   1.980
12035TIP3    H136050   7.732   1.061   1.900
12035TIP3    H236051   7.633   1.080   2.013
12036TIP3   OH236052   6.505   5.875   1.018
12036TIP3    H136053   6.422   5.921   1.006
12036TIP3    H236054   6.571   5.945   1.015
12037TIP3   OH236055   4.335   5.055   3.927
12037TIP3    H136056   4.326   5.032   4.019
12037TIP3    H236057   4.245   5.057   3.893
12038TIP3   OH236058   3.974   6.097   5.236
12038TIP3    H136059   3.928   6.079   5.318
12038TIP3    H236060   3.982   6.192   5.233
12039TIP3   OH236061   5.042   2.425   5.106
12039TIP3    H136062   5.068   2.514   5.133
12039TIP3    H236063   4.950   2.434   5.081
12040TIP3   OH236064   5.741   6.759   2.926
12040TIP3    H136065   5.678   6.800   2.867
12040TIP3    H236066   5.768   6.679   2.882
12041TIP3   OH236067   0.911   2.905   4.959
12041TIP3    H136068   0.819   2.929   4.960
12041TIP3    H236069   0.955   2.981   4.921
12042TIP3   OH236070   4.139   5.244   5.149
12042TIP3    H136071   4.061   5.189   5.150
12042TIP3    H236072   4.175   5.233   5.061
12043TIP3   OH236073   4.459   7.511   3.397
12043TIP3    H136074   4.371   7.541   3.375
12043TIP3    H236075   4.517   7.564   3.343
12044TIP3   OH236076   0.044   1.132   3.773
12044TIP3    H136077   0.113   1.189   3.806
12044TIP3    H236078   0.073   1.107   3.685
12045TIP3   OH236079   2.337   5.397   3.179
12045TIP3    H136080   2.348   5.334   3.107
12045TIP3    H236081   2.313   5.343   3.254
12046TIP3   OH236082   6.931   1.263   3.934
12046TIP3    H136083   7.017   1.275   3.974
12046TIP3    H236084   6.870   1.302   3.997
12047TIP3   OH236085   4.620   3.109   0.999
12047TIP3    H136086   4.585   3.036   1.050
12047TIP3    H236087   4.678   3.068   0.935
12048TIP3   OH236088   6.602   4.877   1.528
12048TIP3    H136089   6.515   4.906   1.556
12048TIP3    H236090   6.646   4.958   1.502
12049TIP3   OH236091   4.937   7.791   5.203
12049TIP3    H136092   4.888   7.756   5.129
12049TIP3    H236093   5.025   7.754   5.194
12050TIP3   OH236094   1.802   4.733   1.481
12050TIP3    H136095   1.804   4.705   1.389
12050TIP3    H236096   1.860   4.671   1.526
12051TIP3   OH236097   4.003   6.102   2.666
12051TIP3    H136098   4.027   6.015   2.698
12051TIP3    H236099   4.017   6.096   2.571
12052TIP3   OH236100   3.864   3.963   0.974
12052TIP3    H136101   3.840   3.899   0.907
12052TIP3    H236102   3.944   3.927   1.013
12053TIP3   OH236103   1.987   5.493   5.219
12053TIP3    H136104   2.015   5.401   5.215
12053TIP3    H236105   2.033   5.529   5.294
12054TIP3   OH236106   0.787   2.792   4.142
12054TIP3    H136107   0.848   2.748   4.083
12054TIP3    H236108   0.810   2.759   4.229
12055TIP3   OH236109   5.599   6.613   5.511
12055TIP3    H136110   5.586   6.590   5.419
12055TIP3    H236111   5.694   6.623   5.520
12056TIP3   OH236112   2.444   2.884   0.373
12056TIP3    H136113   2.411   2.794   0.365
12056TIP3    H236114   2.529   2.873   0.415
12057TIP3   OH236115   0.279   2.806   5.439
12057TIP3    H136116   0.322   2.842   5.362
12057TIP3    H236117   0.226   2.734   5.406
12058TIP3   OH236118   0.752   4.062   0.967
12058TIP3    H136119   0.659   4.082   0.953
12058TIP3    H236120   0.796   4.100   0.891
12059TIP3   OH236121   7.699   2.044   5.345
12059TIP3    H136122   7.641   1.968   5.334
12059TIP3    H236123   7.697   2.062   5.439
12060TIP3   OH236124   4.078   6.124   0.771
12060TIP3    H136125   4.157   6.079   0.800
12060TIP3    H236126   4.013   6.104   0.838
12061TIP3   OH236127   1.995   0.256   5.361
12061TIP3    H136128   2.036   0.186   5.412
12061TIP3    H236129   1.950   0.211   5.290
12062TIP3   OH236130   4.838   2.322   6.250
12062TIP3    H136131   4.857   2.247   6.193
12062TIP3    H236132   4.916   2.377   6.245
12063TIP3   OH236133   5.978   0.356   4.607
12063TIP3    H136134   5.922   0.360   4.685
12063TIP3    H236135   6.066   0.341   4.642
12064TIP3   OH236136   0.211   4.078   3.909
12064TIP3    H136137   0.132   4.132   3.918
12064TIP3    H236138   0.230   4.049   3.999
12065TIP3   OH236139   4.066   7.072   5.109
12065TIP3    H136140   4.158   7.066   5.132
12065TIP3    H236141   4.047   7.166   5.109
12066TIP3   OH236142   0.047   3.036   6.377
12066TIP3    H136143   0.142   3.042   6.378
12066TIP3    H236144   0.020   3.053   6.468
12067TIP3   OH236145   2.978   3.531   5.555
12067TIP3    H136146   3.052   3.555   5.499
12067TIP3    H236147   2.988   3.437   5.568
12068TIP3   OH236148   3.253   3.726   3.599
12068TIP3    H136149   3.345   3.754   3.601
12068TIP3    H236150   3.209   3.786   3.659
12069TIP3   OH236151   0.574   2.200   0.849
12069TIP3    H136152   0.610   2.112   0.843
12069TIP3    H236153   0.648   2.254   0.878
12070TIP3   OH236154   5.408   6.814   0.914
12070TIP3    H136155   5.403   6.719   0.906
12070TIP3    H236156   5.457   6.828   0.995
12071TIP3   OH236157   3.776   1.095   4.049
12071TIP3    H136158   3.748   1.163   4.110
12071TIP3    H236159   3.715   1.023   4.064
12072TIP3   OH236160   5.748   1.684   5.914
12072TIP3    H136161   5.688   1.714   5.982
12072TIP3    H236162   5.797   1.613   5.954
12073TIP3   OH236163   2.440   4.485   2.690
12073TIP3    H136164   2.463   4.569   2.729
12073TIP3    H236165   2.498   4.477   2.614
12074TIP3   OH236166   1.411   1.522   6.321
12074TIP3    H136167   1.328   1.487   6.352
12074TIP3    H236168   1.412   1.504   6.227
12075TIP3   OH236169   3.521   3.936   4.730
12075TIP3    H136170   3.478   3.852   4.716
12075TIP3    H236171   3.456   4.001   4.701
12076TIP3   OH236172   1.211   5.096   5.847
12076TIP3    H136173   1.151   5.035   5.803
12076TIP3    H236174   1.186   5.182   5.813
12077TIP3   OH236175   6.268   2.750   0.871
12077TIP3    H136176   6.265   2.821   0.808
12077TIP3    H236177   6.328   2.686   0.832
12078TIP3   OH236178   6.333   6.690   5.765
12078TIP3    H136179   6.250   6.734   5.781
12078TIP3    H236180   6.312   6.620   5.703
12079TIP3   OH236181   6.433   0.427   4.808
12079TIP3    H136182   6.459   0.428   4.716
12079TIP3    H236183   6.343   0.460   4.808
12080TIP3   OH236184   5.598   7.627   3.955
12080TIP3    H136185   5.665   7.660   4.014
12080TIP3    H236186   5.591   7.534   3.977
12081TIP3   OH236187   0.608   7.188   1.617
12081TIP3    H136188   0.617   7.283   1.607
12081TIP3    H236189   0.670   7.151   1.554
12082TIP3   OH236190   2.321   2.553   4.041
12082TIP3    H136191   2.294   2.643   4.059
12082TIP3    H236192   2.338   2.515   4.127
12083TIP3   OH236193   5.869   1.445   0.850
12083TIP3    H136194   5.938   1.394   0.806
12083TIP3    H236195   5.792   1.432   0.795
12084TIP3   OH236196   2.989   3.146   4.789
12084TIP3    H136197   3.028   3.233   4.781
12084TIP3    H236198   3.053   3.096   4.840
12085TIP3   OH236199   5.106   2.547   5.861
12085TIP3    H136200   5.047   2.593   5.802
12085TIP3    H236201   5.049   2.515   5.931
12086TIP3   OH236202   0.590   4.951   6.492
12086TIP3    H136203   0.561   4.992   6.574
12086TIP3    H236204   0.639   5.020   6.447
12087TIP3   OH236205   6.371   6.704   0.204
12087TIP3    H136206   6.396   6.713   0.112
12087TIP3    H236207   6.454   6.688   0.250
12088TIP3   OH236208   5.845   3.670   1.144
12088TIP3    H136209   5.780   3.663   1.074
12088TIP3    H236210   5.857   3.765   1.156
12089TIP3   OH236211   6.878   5.250   3.305
12089TIP3    H136212   6.848   5.223   3.218
12089TIP3    H236213   6.898   5.343   3.296
12090TIP3   OH236214   6.412   1.366   1.620
12090TIP3    H136215   6.358   1.446   1.613
12090TIP3    H236216   6.495   1.390   1.578
12091TIP3   OH236217   2.529   2.686   6.056
12091TIP3    H136218   2.607   2.702   6.110
12091TIP3    H236219   2.479   2.621   6.105
12092TIP3   OH236220   4.077   2.056   0.284
12092TIP3    H136221   4.154   2.046   0.340
12092TIP3    H236222   4.009   2.005   0.327
12093TIP3   OH236223   0.710   2.287   3.103
12093TIP3    H136224   0.746   2.275   3.191
12093TIP3    H236225   0.751   2.218   3.051
12094TIP3   OH236226   5.122   6.905   3.867
12094TIP3    H136227   5.126   6.824   3.919
12094TIP3    H236228   5.030   6.915   3.844
12095TIP3   OH236229   7.151   7.511   2.234
12095TIP3    H136230   7.150   7.417   2.222
12095TIP3    H236231   7.139   7.547   2.146
12096TIP3   OH236232   8.238   2.482   5.923
12096TIP3    H136233   8.254   2.506   6.014
12096TIP3    H236234   8.158   2.429   5.926
12097TIP3   OH236235   3.692   6.466   2.590
12097TIP3    H136236   3.639   6.425   2.659
12097TIP3    H236237   3.704   6.397   2.525
12098TIP3   OH236238   7.377   3.564   5.444
12098TIP3    H136239   7.401   3.477   5.475
12098TIP3    H236240   7.316   3.549   5.372
12099TIP3   OH236241   7.082   7.720   0.229
12099TIP3    H136242   7.021   7.753   0.164
12099TIP3    H236243   7.144   7.791   0.243
12100TIP3   OH236244   7.333   4.507   5.190
12100TIP3    H136245   7.299   4.594   5.172
12100TIP3    H236246   7.426   4.512   5.166
12101TIP3   OH236247   5.044   6.867   4.901
12101TIP3    H136248   5.080   6.881   4.813
12101TIP3    H236249   4.986   6.942   4.915
12102TIP3   OH236250   7.912   7.608   3.877
12102TIP3    H136251   7.992   7.606   3.930
12102TIP3    H236252   7.846   7.647   3.935
12103TIP3   OH236253   1.312   4.336   2.511
12103TIP3    H136254   1.252   4.266   2.537
12103TIP3    H236255   1.256   4.404   2.474
12104TIP3   OH236256   7.275   1.179   1.019
12104TIP3    H136257   7.198   1.212   1.067
12104TIP3    H236258   7.244   1.101   0.973
12105TIP3   OH236259   6.341   3.045   1.352
12105TIP3    H136260   6.325   3.013   1.263
12105TIP3    H236261   6.258   3.084   1.380
12106TIP3   OH236262   6.673   7.402   4.277
12106TIP3    H136263   6.638   7.451   4.352
12106TIP3    H236264   6.600   7.399   4.215
12107TIP3   OH236265   2.029   1.269   1.111
12107TIP3    H136266   2.026   1.208   1.037
12107TIP3    H236267   2.116   1.257   1.149
12108TIP3   OH236268   3.817   4.901   3.904
12108TIP3    H136269   3.807   4.812   3.872
12108TIP3    H236270   3.771   4.902   3.987
12109TIP3   OH236271   6.324   0.712   2.267
12109TIP3    H136272   6.401   0.657   2.255
12109TIP3    H236273   6.268   0.692   2.192
12110TIP3   OH236274   2.039   4.714   4.592
12110TIP3    H136275   1.950   4.739   4.571
12110TIP3    H236276   2.085   4.713   4.508
12111TIP3   OH236277   1.138   2.932   0.029
12111TIP3    H136278   1.080   2.935  -0.047
12111TIP3    H236279   1.113   2.852   0.076
12112TIP3   OH236280   3.541   6.455   2.145
12112TIP3    H136281   3.576   6.544   2.155
12112TIP3    H236282   3.494   6.458   2.062
12113TIP3   OH236283   6.233   6.756   3.336
12113TIP3    H136284   6.153   6.803   3.356
12113TIP3    H236285   6.257   6.784   3.248
12114TIP3   OH236286   3.650   0.267   2.887
12114TIP3    H136287   3.646   0.180   2.847
12114TIP3    H236288   3.673   0.325   2.815
12115TIP3   OH236289   0.037   2.492   2.938
12115TIP3    H136290  -0.030   2.547   2.978
12115TIP3    H236291   0.021   2.500   2.844
12116TIP3   OH236292   0.546   5.277   2.141
12116TIP3    H136293   0.615   5.287   2.206
12116TIP3    H236294   0.476   5.335   2.172
12117TIP3   OH236295   6.403   1.805   3.910
12117TIP3    H136296   6.333   1.752   3.948
12117TIP3    H236297   6.472   1.741   3.891
12118TIP3   OH236298   1.783   7.737   1.134
12118TIP3    H136299   1.874   7.749   1.161
12118TIP3    H236300   1.735   7.724   1.216
12119TIP3   OH236301   1.659   0.866   0.463
12119TIP3    H136302   1.579   0.918   0.452
12119TIP3    H236303   1.719   0.900   0.397
12120TIP3   OH236304   5.525   2.157   1.505
12120TIP3    H136305   5.469   2.208   1.564
12120TIP3    H236306   5.608   2.150   1.552
12121TIP3   OH236307   5.450   2.856   4.461
12121TIP3    H136308   5.355   2.861   4.468
12121TIP3    H236309   5.469   2.763   4.457
12122TIP3   OH236310   1.892   7.052   3.159
12122TIP3    H136311   1.920   7.119   3.221
12122TIP3    H236312   1.844   7.100   3.092
12123TIP3   OH236313   1.551   2.774   3.169
12123TIP3    H136314   1.634   2.735   3.143
12123TIP3    H236315   1.510   2.709   3.226
12124TIP3   OH236316   7.937   2.556   1.152
12124TIP3    H136317   7.935   2.476   1.203
12124TIP3    H236318   7.862   2.550   1.093
12125TIP3   OH236319   2.595   7.455   4.277
12125TIP3    H136320   2.625   7.365   4.260
12125TIP3    H236321   2.620   7.504   4.198
12126TIP3   OH236322   3.924   1.963   6.197
12126TIP3    H136323   3.874   1.908   6.136
12126TIP3    H236324   3.945   1.904   6.270
12127TIP3   OH236325   2.291   4.399   6.538
12127TIP3    H136326   2.356   4.406   6.467
12127TIP3    H236327   2.209   4.380   6.493
12128TIP3   OH236328   2.139   0.799   4.582
12128TIP3    H136329   2.175   0.881   4.617
12128TIP3    H236330   2.182   0.788   4.497
12129TIP3   OH236331   6.152   7.222   6.556
12129TIP3    H136332   6.228   7.227   6.615
12129TIP3    H236333   6.186   7.251   6.471
12130TIP3   OH236334   5.526   4.902   3.802
12130TIP3    H136335   5.499   4.856   3.723
12130TIP3    H236336   5.559   4.987   3.771
12131TIP3   OH236337   5.373   3.020   2.203
12131TIP3    H136338   5.436   2.948   2.194
12131TIP3    H236339   5.305   3.000   2.139
12132TIP3   OH236340   3.989   3.242   1.665
12132TIP3    H136341   4.030   3.302   1.728
12132TIP3    H236342   4.054   3.231   1.596
12133TIP3   OH236343   2.885   4.734   2.921
12133TIP3    H136344   2.976   4.760   2.906
12133TIP3    H236345   2.833   4.797   2.871
12134TIP3   OH236346   3.437   3.637   5.017
12134TIP3    H136347   3.492   3.701   4.972
12134TIP3    H236348   3.419   3.676   5.102
12135TIP3   OH236349   3.383   6.114   6.359
12135TIP3    H136350   3.396   6.092   6.451
12135TIP3    H236351   3.472   6.115   6.323
12136TIP3   OH236352   8.188   4.222   5.570
12136TIP3    H136353   8.196   4.234   5.665
12136TIP3    H236354   8.165   4.308   5.536
12137TIP3   OH236355   3.448   5.898   0.175
12137TIP3    H136356   3.450   5.824   0.115
12137TIP3    H236357   3.355   5.922   0.179
12138TIP3   OH236358   7.815   6.976   2.099
12138TIP3    H136359   7.815   7.069   2.080
12138TIP3    H236360   7.861   6.936   2.026
12139TIP3   OH236361   1.789   4.734   5.984
12139TIP3    H136362   1.771   4.717   6.077
12139TIP3    H236363   1.763   4.654   5.939
12140TIP3   OH236364   0.576   6.915   0.883
12140TIP3    H136365   0.601   6.879   0.798
12140TIP3    H236366   0.658   6.920   0.932
12141TIP3   OH236367   1.313   3.204   5.578
12141TIP3    H136368   1.319   3.109   5.570
12141TIP3    H236369   1.228   3.225   5.541
12142TIP3   OH236370   2.509   5.789   0.917
12142TIP3    H136371   2.582   5.852   0.916
12142TIP3    H236372   2.501   5.764   1.009
12143TIP3   OH236373   6.298   5.198   2.013
12143TIP3    H136374   6.252   5.158   1.939
12143TIP3    H236375   6.255   5.282   2.025
12144TIP3   OH236376   5.815   7.198   6.339
12144TIP3    H136377   5.830   7.288   6.367
12144TIP3    H236378   5.740   7.203   6.280
12145TIP3   OH236379   4.883   3.175   4.000
12145TIP3    H136380   4.878   3.231   4.078
12145TIP3    H236381   4.891   3.236   3.927
12146TIP3   OH236382   2.718   2.388   0.878
12146TIP3    H136383   2.626   2.407   0.898
12146TIP3    H236384   2.716   2.304   0.832
12147TIP3   OH236385   3.116   2.755   3.266
12147TIP3    H136386   3.082   2.748   3.355
12147TIP3    H236387   3.124   2.849   3.250
12148TIP3   OH236388   6.825   4.284   2.169
12148TIP3    H136389   6.796   4.348   2.234
12148TIP3    H236390   6.788   4.315   2.086
12149TIP3   OH236391   5.897   5.120   2.170
12149TIP3    H136392   5.869   5.211   2.184
12149TIP3    H236393   5.834   5.068   2.219
12150TIP3   OH236394   0.804   3.115   1.100
12150TIP3    H136395   0.775   3.153   1.017
12150TIP3    H236396   0.851   3.036   1.075
12151TIP3   OH236397   3.196   0.941   5.026
12151TIP3    H136398   3.129   0.888   5.070
12151TIP3    H236399   3.151   0.981   4.952
12152TIP3   OH236400   1.942   5.155   6.442
12152TIP3    H136401   1.987   5.078   6.408
12152TIP3    H236402   2.011   5.210   6.479
12153TIP3   OH236403   7.338   7.334   1.820
12153TIP3    H136404   7.432   7.326   1.833
12153TIP3    H236405   7.329   7.358   1.727
12154TIP3   OH236406   0.287   7.286   5.020
12154TIP3    H136407   0.374   7.260   5.050
12154TIP3    H236408   0.292   7.279   4.925
12155TIP3   OH236409   6.605   7.369   2.377
12155TIP3    H136410   6.531   7.429   2.388
12155TIP3    H236411   6.582   7.292   2.429
12156TIP3   OH236412   3.842   7.274   0.396
12156TIP3    H136413   3.750   7.251   0.391
12156TIP3    H236414   3.844   7.369   0.386
12157TIP3   OH236415   6.318   3.178   0.356
12157TIP3    H136416   6.303   3.084   0.352
12157TIP3    H236417   6.262   3.209   0.426
12158TIP3   OH236418   3.800   2.290   0.705
12158TIP3    H136419   3.761   2.236   0.774
12158TIP3    H236420   3.811   2.231   0.631
12159TIP3   OH236421   2.571   5.302   6.762
12159TIP3    H136422   2.543   5.383   6.804
12159TIP3    H236423   2.523   5.300   6.680
12160TIP3   OH236424   1.751   5.762   2.880
12160TIP3    H136425   1.779   5.808   2.801
12160TIP3    H236426   1.828   5.711   2.907
12161TIP3   OH236427   6.175   4.517   1.000
12161TIP3    H136428   6.120   4.439   0.992
12161TIP3    H236429   6.170   4.541   1.093
12162TIP3   OH236430   1.691   1.685   0.553
12162TIP3    H136431   1.771   1.726   0.519
12162TIP3    H236432   1.715   1.594   0.569
12163TIP3   OH236433   6.765   7.214   0.778
12163TIP3    H136434   6.691   7.250   0.828
12163TIP3    H236435   6.841   7.228   0.834
12164TIP3   OH236436   5.112   3.032   6.141
12164TIP3    H136437   5.066   2.962   6.095
12164TIP3    H236438   5.186   3.053   6.083
12165TIP3   OH236439   7.519   6.032   2.991
12165TIP3    H136440   7.599   6.068   3.028
12165TIP3    H236441   7.508   6.078   2.908
12166TIP3   OH236442   3.569   3.743   0.566
12166TIP3    H136443   3.509   3.675   0.535
12166TIP3    H236444   3.529   3.825   0.538
12167TIP3   OH236445   3.475   2.074   2.966
12167TIP3    H136446   3.567   2.088   2.942
12167TIP3    H236447   3.468   1.980   2.984
12168TIP3   OH236448   2.359   4.613   5.504
12168TIP3    H136449   2.414   4.567   5.568
12168TIP3    H236450   2.317   4.544   5.454
12169TIP3   OH236451   1.000   5.733   0.666
12169TIP3    H136452   1.031   5.794   0.732
12169TIP3    H236453   0.979   5.788   0.590
12170TIP3   OH236454   6.121   0.559   1.390
12170TIP3    H136455   6.114   0.464   1.382
12170TIP3    H236456   6.152   0.588   1.304
12171TIP3   OH236457   5.134   5.639   4.363
12171TIP3    H136458   5.104   5.558   4.322
12171TIP3    H236459   5.131   5.620   4.457
12172TIP3   OH236460   3.879   1.706   2.780
12172TIP3    H136461   3.961   1.755   2.775
12172TIP3    H236462   3.903   1.616   2.762
12173TIP3   OH236463   0.726   1.739   0.387
12173TIP3    H136464   0.753   1.746   0.295
12173TIP3    H236465   0.631   1.730   0.384
12174TIP3   OH236466   6.543   4.924   2.193
12174TIP3    H136467   6.568   4.978   2.118
12174TIP3    H236468   6.546   4.834   2.160
12175TIP3   OH236469   6.378   5.984   5.432
12175TIP3    H136470   6.301   5.931   5.415
12175TIP3    H236471   6.349   6.074   5.416
12176TIP3   OH236472   3.984   2.752   4.706
12176TIP3    H136473   3.947   2.680   4.654
12176TIP3    H236474   3.939   2.746   4.790
12177TIP3   OH236475   6.723   0.381   2.438
12177TIP3    H136476   6.766   0.371   2.354
12177TIP3    H236477   6.743   0.471   2.465
12178TIP3   OH236478   5.842   3.952   5.852
12178TIP3    H136479   5.769   3.889   5.849
12178TIP3    H236480   5.901   3.922   5.783
12179TIP3   OH236481   0.182   1.631   5.227
12179TIP3    H136482   0.258   1.615   5.171
12179TIP3    H236483   0.151   1.718   5.201
12180TIP3   OH236484   3.531   7.449   3.395
12180TIP3    H136485   3.522   7.541   3.370
12180TIP3    H236486   3.443   7.414   3.389
12181TIP3   OH236487   2.644   6.986   3.109
12181TIP3    H136488   2.668   6.957   3.197
12181TIP3    H236489   2.707   7.054   3.087
12182TIP3   OH236490   6.565   5.362   0.512
12182TIP3    H136491   6.621   5.284   0.511
12182TIP3    H236492   6.571   5.395   0.601
12183TIP3   OH236493   2.503   7.686   0.418
12183TIP3    H136494   2.533   7.689   0.509
12183TIP3    H236495   2.413   7.654   0.424
12184TIP3   OH236496   8.220   7.510   6.285
12184TIP3    H136497   8.160   7.475   6.351
12184TIP3    H236498   8.223   7.442   6.218
12185TIP3   OH236499   2.011   5.682   4.489
12185TIP3    H136500   1.936   5.662   4.433
12185TIP3    H236501   2.057   5.598   4.497
12186TIP3   OH236502   7.126   3.492   4.377
12186TIP3    H136503   7.062   3.557   4.346
12186TIP3    H236504   7.151   3.443   4.299
12187TIP3   OH236505   0.976   5.026   4.793
12187TIP3    H136506   0.958   5.002   4.884
12187TIP3    H236507   0.978   5.122   4.794
12188TIP3   OH236508   5.861   5.882   0.738
12188TIP3    H136509   5.883   5.834   0.658
12188TIP3    H236510   5.838   5.970   0.708
12189TIP3   OH236511   5.849   5.546   4.111
12189TIP3    H136512   5.860   5.605   4.036
12189TIP3    H236513   5.777   5.585   4.160
12190TIP3   OH236514   4.662   1.787   0.289
12190TIP3    H136515   4.596   1.798   0.221
12190TIP3    H236516   4.686   1.877   0.314
12191TIP3   OH236517   6.328   1.603   2.930
12191TIP3    H136518   6.399   1.549   2.897
12191TIP3    H236519   6.312   1.667   2.861
12192TIP3   OH236520   3.797   1.211   3.609
12192TIP3    H136521   3.837   1.229   3.694
12192TIP3    H236522   3.703   1.222   3.624
12193TIP3   OH236523   5.301   3.720   4.705
12193TIP3    H136524   5.359   3.653   4.669
12193TIP3    H236525   5.317   3.719   4.799
12194TIP3   OH236526   2.052   2.399   5.131
12194TIP3    H136527   2.089   2.313   5.151
12194TIP3    H236528   2.128   2.455   5.117
12195TIP3   OH236529   3.432   3.604   2.008
12195TIP3    H136530   3.346   3.645   2.021
12195TIP3    H236531   3.416   3.511   2.021
12196TIP3   OH236532   4.771   7.323   0.749
12196TIP3    H136533   4.860   7.294   0.729
12196TIP3    H236534   4.716   7.245   0.738
12197TIP3   OH236535   5.563   4.190   4.836
12197TIP3    H136536   5.504   4.115   4.841
12197TIP3    H236537   5.629   4.165   4.772
12198TIP3   OH236538   6.971   3.095   5.412
12198TIP3    H136539   6.918   3.022   5.382
12198TIP3    H236540   6.910   3.150   5.462
12199TIP3   OH236541   5.585   5.523   1.389
12199TIP3    H136542   5.583   5.451   1.452
12199TIP3    H236543   5.530   5.493   1.316
12200TIP3   OH236544   3.179   4.971   6.058
12200TIP3    H136545   3.252   5.009   6.107
12200TIP3    H236546   3.145   4.902   6.115
12201TIP3   OH236547   5.318   3.540   1.651
12201TIP3    H136548   5.293   3.577   1.567
12201TIP3    H236549   5.346   3.450   1.631
12202TIP3   OH236550   5.944   2.383   3.562
12202TIP3    H136551   5.867   2.405   3.510
12202TIP3    H236552   5.963   2.292   3.539
12203TIP3   OH236553   8.093   3.411   2.056
12203TIP3    H136554   8.093   3.373   2.144
12203TIP3    H236555   8.034   3.355   2.005
12204TIP3   OH236556   6.513   5.673   1.472
12204TIP3    H136557   6.471   5.755   1.499
12204TIP3    H236558   6.577   5.700   1.406
12205TIP3   OH236559   7.102   4.461   5.045
12205TIP3    H136560   7.072   4.375   5.073
12205TIP3    H236561   7.182   4.477   5.095
12206TIP3   OH236562   4.593   1.245   0.603
12206TIP3    H136563   4.670   1.210   0.558
12206TIP3    H236564   4.566   1.174   0.662
12207TIP3   OH236565   7.738   7.080   3.822
12207TIP3    H136566   7.685   7.013   3.778
12207TIP3    H236567   7.827   7.063   3.792
12208TIP3   OH236568   1.618   0.208   1.019
12208TIP3    H136569   1.553   0.137   1.015
12208TIP3    H236570   1.664   0.202   0.935
12209TIP3   OH236571   3.710   0.267   6.541
12209TIP3    H136572   3.767   0.190   6.536
12209TIP3    H236573   3.688   0.286   6.450
12210TIP3   OH236574   7.479   3.900   1.381
12210TIP3    H136575   7.454   3.969   1.442
12210TIP3    H236576   7.529   3.945   1.313
12211TIP3   OH236577   3.945   2.630   6.414
12211TIP3    H136578   3.969   2.722   6.419
12211TIP3    H236579   3.979   2.592   6.495
12212TIP3   OH236580   3.804   6.552   0.787
12212TIP3    H136581   3.796   6.603   0.868
12212TIP3    H236582   3.742   6.480   0.799
12213TIP3   OH236583   3.113   7.359   4.647
12213TIP3    H136584   3.069   7.428   4.598
12213TIP3    H236585   3.181   7.327   4.588
12214TIP3   OH236586   7.982   4.377   2.756
12214TIP3    H136587   8.008   4.290   2.786
12214TIP3    H236588   7.891   4.367   2.728
12215TIP3   OH236589   4.772   5.478   2.095
12215TIP3    H136590   4.800   5.560   2.136
12215TIP3    H236591   4.853   5.437   2.065
12216TIP3   OH236592   0.791   3.222   2.396
12216TIP3    H136593   0.832   3.259   2.475
12216TIP3    H236594   0.756   3.137   2.425
12217TIP3   OH236595   0.271   7.211   2.962
12217TIP3    H136596   0.275   7.192   3.056
12217TIP3    H236597   0.259   7.306   2.957
12218TIP3   OH236598   5.386   2.676   6.291
12218TIP3    H136599   5.383   2.648   6.383
12218TIP3    H236600   5.396   2.595   6.242
12219TIP3   OH236601   0.584   1.992   3.008
12219TIP3    H136602   0.614   1.996   3.099
12219TIP3    H236603   0.659   2.019   2.956
12220TIP3   OH236604   8.208   4.395   3.962
12220TIP3    H136605   8.223   4.487   3.984
12220TIP3    H236606   8.154   4.398   3.883
12221TIP3   OH236607   3.688   7.783   4.705
12221TIP3    H136608   3.647   7.758   4.789
12221TIP3    H236609   3.763   7.724   4.697
12222TIP3   OH236610   3.928   3.907   3.261
12222TIP3    H136611   3.940   3.974   3.193
12222TIP3    H236612   3.877   3.952   3.329
12223TIP3   OH236613   2.076   1.787   4.307
12223TIP3    H136614   2.040   1.781   4.219
12223TIP3    H236615   2.171   1.779   4.294
12224TIP3   OH236616   0.850   3.025   4.421
12224TIP3    H136617   0.890   3.040   4.335
12224TIP3    H236618   0.845   2.930   4.429
12225TIP3   OH236619   7.005   3.562   3.206
12225TIP3    H136620   6.969   3.510   3.278
12225TIP3    H236621   7.027   3.646   3.246
12226TIP3   OH236622   5.760   1.633   0.356
12226TIP3    H136623   5.726   1.685   0.284
12226TIP3    H236624   5.686   1.578   0.383
12227TIP3   OH236625   5.582   4.802   1.755
12227TIP3    H136626   5.667   4.777   1.790
12227TIP3    H236627   5.521   4.789   1.828
12228TIP3   OH236628   0.072   0.545   3.895
12228TIP3    H136629   0.123   0.534   3.815
12228TIP3    H236630   0.007   0.475   3.892
12229TIP3   OH236631   2.072   2.158   0.300
12229TIP3    H136632   1.996   2.101   0.284
12229TIP3    H236633   2.111   2.123   0.380
12230TIP3   OH236634   3.913   1.544   0.969
12230TIP3    H136635   3.943   1.457   0.993
12230TIP3    H236636   3.823   1.549   1.001
12231TIP3   OH236637   1.355   4.422   5.236
12231TIP3    H136638   1.301   4.501   5.234
12231TIP3    H236639   1.425   4.443   5.298
12232TIP3   OH236640   1.307   6.351   4.866
12232TIP3    H136641   1.236   6.344   4.930
12232TIP3    H236642   1.349   6.435   4.886
12233TIP3   OH236643   2.251   5.700   2.889
12233TIP3    H136644   2.281   5.750   2.965
12233TIP3    H236645   2.310   5.726   2.818
12234TIP3   OH236646   5.024   4.132   6.044
12234TIP3    H136647   4.939   4.131   6.000
12234TIP3    H236648   5.013   4.073   6.119
12235TIP3   OH236649   4.818   5.826   6.291
12235TIP3    H136650   4.883   5.852   6.226
12235TIP3    H236651   4.769   5.755   6.249
12236TIP3   OH236652   6.484   3.855   2.653
12236TIP3    H136653   6.556   3.877   2.594
12236TIP3    H236654   6.513   3.885   2.739
12237TIP3   OH236655   7.092   0.739   3.325
12237TIP3    H136656   7.047   0.801   3.382
12237TIP3    H236657   7.032   0.664   3.319
12238TIP3   OH236658   6.028   2.768   3.685
12238TIP3    H136659   6.059   2.678   3.690
12238TIP3    H236660   5.940   2.761   3.647
12239TIP3   OH236661   7.940   5.953   5.233
12239TIP3    H136662   7.902   6.035   5.265
12239TIP3    H236663   7.896   5.937   5.150
12240TIP3   OH236664   5.000   6.122   6.404
12240TIP3    H136665   4.912   6.086   6.390
12240TIP3    H236666   4.992   6.215   6.384
12241TIP3   OH236667   4.701   6.313   6.226
12241TIP3    H136668   4.615   6.280   6.202
12241TIP3    H236669   4.763   6.258   6.178
12242TIP3   OH236670   4.091   3.991   1.159
12242TIP3    H136671   4.107   3.899   1.138
12242TIP3    H236672   4.013   3.990   1.214
12243TIP3   OH236673   6.549   6.148   6.393
12243TIP3    H136674   6.634   6.135   6.436
12243TIP3    H236675   6.535   6.067   6.343
12244TIP3   OH236676   6.148   5.409   5.082
12244TIP3    H136677   6.179   5.322   5.055
12244TIP3    H236678   6.080   5.390   5.147
12245TIP3   OH236679   6.584   5.175   2.485
12245TIP3    H136680   6.608   5.259   2.525
12245TIP3    H236681   6.501   5.192   2.441
12246TIP3   OH236682   7.799   3.687   4.363
12246TIP3    H136683   7.876   3.744   4.370
12246TIP3    H236684   7.802   3.633   4.442
12247TIP3   OH236685   2.004   7.641   2.854
12247TIP3    H136686   1.991   7.645   2.949
12247TIP3    H236687   1.972   7.725   2.822
12248TIP3   OH236688   3.684   6.921   0.304
12248TIP3    H136689   3.677   6.953   0.394
12248TIP3    H236690   3.768   6.874   0.302
12249TIP3   OH236691   2.734   4.489   6.585
12249TIP3    H136692   2.718   4.433   6.661
12249TIP3    H236693   2.685   4.447   6.514
12250TIP3   OH236694   7.659   5.996   6.715
12250TIP3    H136695   7.654   6.091   6.732
12250TIP3    H236696   7.711   5.989   6.635
12251TIP3   OH236697   5.486   0.082   1.252
12251TIP3    H136698   5.536   0.064   1.332
12251TIP3    H236699   5.432   0.157   1.274
12252TIP3   OH236700   5.281   1.718   2.419
12252TIP3    H136701   5.250   1.768   2.495
12252TIP3    H236702   5.205   1.713   2.361
12253TIP3   OH236703   0.789   5.689   1.924
12253TIP3    H136704   0.733   5.630   1.975
12253TIP3    H236705   0.734   5.719   1.852
12254TIP3   OH236706   6.516   1.436   2.821
12254TIP3    H136707   6.456   1.365   2.801
12254TIP3    H236708   6.593   1.419   2.768
12255TIP3   OH236709   4.018   4.865   4.371
12255TIP3    H136710   4.092   4.811   4.346
12255TIP3    H236711   3.974   4.815   4.440
12256TIP3   OH236712   1.890   1.737   6.584
12256TIP3    H136713   1.870   1.654   6.541
12256TIP3    H236714   1.817   1.794   6.562
12257TIP3   OH236715   0.359   1.074   5.500
12257TIP3    H136716   0.265   1.055   5.505
12257TIP3    H236717   0.366   1.164   5.532
12258TIP3   OH236718   4.534   5.585   3.463
12258TIP3    H136719   4.598   5.633   3.516
12258TIP3    H236720   4.466   5.649   3.444
12259TIP3   OH236721   6.346   0.788   4.739
12259TIP3    H136722   6.284   0.859   4.724
12259TIP3    H236723   6.351   0.742   4.655
12260TIP3   OH236724   4.145   7.640   1.194
12260TIP3    H136725   4.097   7.575   1.143
12260TIP3    H236726   4.083   7.671   1.259
12261TIP3   OH236727   1.218   2.771   6.197
12261TIP3    H136728   1.180   2.855   6.173
12261TIP3    H236729   1.151   2.728   6.250
12262TIP3   OH236730   3.687   1.847   0.937
12262TIP3    H136731   3.764   1.837   0.993
12262TIP3    H236732   3.624   1.894   0.992
12263TIP3   OH236733   6.650   0.953   1.203
12263TIP3    H136734   6.658   0.892   1.129
12263TIP3    H236735   6.684   0.904   1.278
12264TIP3   OH236736   3.984   5.071   5.910
12264TIP3    H136737   3.892   5.053   5.887
12264TIP3    H236738   3.998   5.162   5.885
12265TIP3   OH236739   6.633   4.981   2.925
12265TIP3    H136740   6.604   4.922   2.994
12265TIP3    H236741   6.614   4.934   2.844
12266TIP3   OH236742   3.077   5.812   5.050
12266TIP3    H136743   3.000   5.764   5.082
12266TIP3    H236744   3.065   5.815   4.955
12267TIP3   OH236745   1.806   3.638   0.502
12267TIP3    H136746   1.769   3.653   0.589
12267TIP3    H236747   1.881   3.697   0.497
12268TIP3   OH236748   1.298   6.531   2.625
12268TIP3    H136749   1.298   6.438   2.648
12268TIP3    H236750   1.380   6.564   2.661
12269TIP3   OH236751   6.958   4.693   4.957
12269TIP3    H136752   6.982   4.765   5.015
12269TIP3    H236753   7.012   4.619   4.986
12270TIP3   OH236754   8.252   6.733   0.735
12270TIP3    H136755   8.274   6.640   0.744
12270TIP3    H236756   8.336   6.777   0.725
12271TIP3   OH236757   8.166   3.922   3.676
12271TIP3    H136758   8.115   3.987   3.725
12271TIP3    H236759   8.100   3.872   3.628
12272TIP3   OH236760   0.973   0.707   2.675
12272TIP3    H136761   0.985   0.708   2.580
12272TIP3    H236762   0.956   0.798   2.699
12273TIP3   OH236763   5.565   7.586   0.942
12273TIP3    H136764   5.608   7.606   0.860
12273TIP3    H236765   5.537   7.672   0.976
12274TIP3   OH236766   7.801   4.281   1.066
12274TIP3    H136767   7.868   4.228   1.109
12274TIP3    H236768   7.731   4.219   1.044
12275TIP3   OH236769   4.500   0.249   4.602
12275TIP3    H136770   4.449   0.195   4.663
12275TIP3    H236771   4.555   0.303   4.659
12276TIP3   OH236772   2.715   6.393   6.054
12276TIP3    H136773   2.621   6.371   6.050
12276TIP3    H236774   2.726   6.436   6.139
12277TIP3   OH236775   6.725   0.301  -0.019
12277TIP3    H136776   6.696   0.370   0.040
12277TIP3    H236777   6.647   0.249  -0.035
12278TIP3   OH236778   5.350   5.308   2.275
12278TIP3    H136779   5.339   5.243   2.344
12278TIP3    H236780   5.268   5.358   2.276
12279TIP3   OH236781   4.201   6.950   0.573
12279TIP3    H136782   4.256   6.898   0.631
12279TIP3    H236783   4.130   6.981   0.629
12280TIP3   OH236784   6.664   6.080   4.996
12280TIP3    H136785   6.684   5.997   4.953
12280TIP3    H236786   6.729   6.087   5.066
12281TIP3   OH236787   5.664   7.348   1.681
12281TIP3    H136788   5.570   7.367   1.677
12281TIP3    H236789   5.673   7.285   1.753
12282TIP3   OH236790   6.169   5.403   2.314
12282TIP3    H136791   6.236   5.468   2.333
12282TIP3    H236792   6.134   5.429   2.228
12283TIP3   OH236793   4.180   3.178   1.447
12283TIP3    H136794   4.153   3.190   1.356
12283TIP3    H236795   4.276   3.186   1.444
12284TIP3   OH236796   5.981   1.315   3.655
12284TIP3    H136797   5.907   1.283   3.604
12284TIP3    H236798   5.944   1.380   3.715
12285TIP3   OH236799   6.908   5.105   5.685
12285TIP3    H136800   6.865   5.190   5.697
12285TIP3    H236801   6.925   5.074   5.774
12286TIP3   OH236802   8.110   5.340   4.044
12286TIP3    H136803   8.133   5.270   4.105
12286TIP3    H236804   8.093   5.296   3.961
12287TIP3   OH236805   3.142   3.666   2.552
12287TIP3    H136806   3.086   3.742   2.534
12287TIP3    H236807   3.185   3.689   2.635
12288TIP3   OH236808   4.231   2.868   2.116
12288TIP3    H136809   4.148   2.834   2.150
12288TIP3    H236810   4.211   2.891   2.025
12289TIP3   OH236811   3.891   5.083   1.412
12289TIP3    H136812   3.887   5.122   1.499
12289TIP3    H236813   3.819   5.021   1.410
12290TIP3   OH236814   1.994   4.542   1.553
12290TIP3    H136815   2.057   4.596   1.506
12290TIP3    H236816   2.048   4.482   1.605
12291TIP3   OH236817   5.262   5.304   1.616
12291TIP3    H136818   5.241   5.391   1.584
12291TIP3    H236819   5.193   5.248   1.580
12292TIP3   OH236820   4.229   6.369   6.691
12292TIP3    H136821   4.163   6.324   6.744
12292TIP3    H236822   4.230   6.459   6.724
12293TIP3   OH236823   5.832   5.383   2.284
12293TIP3    H136824   5.893   5.343   2.346
12293TIP3    H236825   5.753   5.399   2.336
12294TIP3   OH236826   1.856   1.125   2.261
12294TIP3    H136827   1.943   1.117   2.300
12294TIP3    H236828   1.796   1.121   2.335
12295TIP3   OH236829   6.574   7.624   6.451
12295TIP3    H136830   6.670   7.623   6.452
12295TIP3    H236831   6.550   7.710   6.483
12296TIP3   OH236832   2.084   7.267   4.067
12296TIP3    H136833   1.998   7.283   4.027
12296TIP3    H236834   2.082   7.175   4.093
12297TIP3   OH236835   4.971   4.175   4.850
12297TIP3    H136836   4.939   4.133   4.771
12297TIP3    H236837   4.972   4.106   4.916
12298TIP3   OH236838   5.012   3.548   5.123
12298TIP3    H136839   4.930   3.572   5.164
12298TIP3    H236840   5.004   3.579   5.033
12299TIP3   OH236841   6.319  -0.045   0.405
12299TIP3    H136842   6.291   0.003   0.483
12299TIP3    H236843   6.307   0.017   0.333
12300TIP3   OH236844   4.385   5.598   4.888
12300TIP3    H136845   4.410   5.675   4.838
12300TIP3    H236846   4.325   5.632   4.955
12301TIP3   OH236847   6.519   5.069   0.343
12301TIP3    H136848   6.532   5.037   0.432
12301TIP3    H236849   6.446   5.018   0.310
12302TIP3   OH236850   2.799   5.608   0.859
12302TIP3    H136851   2.884   5.649   0.872
12302TIP3    H236852   2.754   5.664   0.796
12303TIP3   OH236853   3.775   5.502   4.228
12303TIP3    H136854   3.792   5.536   4.316
12303TIP3    H236855   3.765   5.580   4.174
12304TIP3   OH236856   6.674   2.757   5.637
12304TIP3    H136857   6.676   2.756   5.541
12304TIP3    H236858   6.687   2.849   5.660
12305TIP3   OH236859   1.451   1.617   1.738
12305TIP3    H136860   1.369   1.660   1.714
12305TIP3    H236861   1.508   1.688   1.769
12306TIP3   OH236862   4.892   3.121   1.421
12306TIP3    H136863   4.973   3.072   1.438
12306TIP3    H236864   4.891   3.131   1.325
12307TIP3   OH236865   0.414   5.498   2.340
12307TIP3    H136866   0.332   5.502   2.389
12307TIP3    H236867   0.482   5.483   2.406
12308TIP3   OH236868   0.780   4.799   5.281
12308TIP3    H136869   0.714   4.864   5.307
12308TIP3    H236870   0.729   4.725   5.249
12309TIP3   OH236871   5.597   1.654   1.865
12309TIP3    H136872   5.624   1.676   1.954
12309TIP3    H236873   5.501   1.646   1.870
12310TIP3   OH236874   5.553   7.019   3.941
12310TIP3    H136875   5.471   7.040   3.897
12310TIP3    H236876   5.527   6.983   4.026
12311TIP3   OH236877   1.721   4.322   5.918
12311TIP3    H136878   1.815   4.312   5.902
12311TIP3    H236879   1.684   4.341   5.832
12312TIP3   OH236880   2.336   4.460   0.155
12312TIP3    H136881   2.265   4.464   0.091
12312TIP3    H236882   2.358   4.552   0.171
12313TIP3   OH236883   2.592   1.316   3.168
12313TIP3    H136884   2.600   1.294   3.076
12313TIP3    H236885   2.673   1.360   3.190
12314TIP3   OH236886   1.386   7.002   4.340
12314TIP3    H136887   1.309   6.960   4.303
12314TIP3    H236888   1.399   6.959   4.425
12315TIP3   OH236889   3.040   6.810   2.000
12315TIP3    H136890   3.094   6.814   1.921
12315TIP3    H236891   3.017   6.717   2.008
12316TIP3   OH236892   6.230   6.606   2.185
12316TIP3    H136893   6.287   6.607   2.108
12316TIP3    H236894   6.262   6.534   2.238
12317TIP3   OH236895   5.143  -0.008   0.803
12317TIP3    H136896   5.207   0.019   0.737
12317TIP3    H236897   5.134   0.068   0.860
12318TIP3   OH236898   2.683   6.028   1.037
12318TIP3    H136899   2.697   6.023   1.132
12318TIP3    H236900   2.598   6.071   1.028
12319TIP3   OH236901   3.535   2.514   0.743
12319TIP3    H136902   3.468   2.565   0.789
12319TIP3    H236903   3.597   2.488   0.811
12320TIP3   OH236904   4.995   6.180   4.762
12320TIP3    H136905   5.057   6.133   4.818
12320TIP3    H236906   4.909   6.161   4.801
12321TIP3   OH236907   2.717   0.299   3.385
12321TIP3    H136908   2.719   0.354   3.463
12321TIP3    H236909   2.627   0.307   3.353
12322TIP3   OH236910   4.941   6.765   1.658
12322TIP3    H136911   4.897   6.680   1.650
12322TIP3    H236912   4.994   6.757   1.738
12323TIP3   OH236913   8.206   7.728   0.286
12323TIP3    H136914   8.286   7.777   0.307
12323TIP3    H236915   8.170   7.773   0.210
12324TIP3   OH236916   3.301   0.635   4.912
12324TIP3    H136917   3.332   0.725   4.921
12324TIP3    H236918   3.353   0.585   4.975
12325TIP3   OH236919   1.863   0.645   2.837
12325TIP3    H136920   1.781   0.641   2.886
12325TIP3    H236921   1.846   0.595   2.757
12326TIP3   OH236922   5.577   2.830   3.160
12326TIP3    H136923   5.529   2.882   3.094
12326TIP3    H236924   5.512   2.812   3.227
12327TIP3   OH236925   0.030   3.354   4.822
12327TIP3    H136926  -0.006   3.324   4.906
12327TIP3    H236927   0.125   3.339   4.830
12328TIP3   OH236928   6.118   1.016   0.317
12328TIP3    H136929   6.159   0.942   0.272
12328TIP3    H236930   6.045   1.041   0.261
12329TIP3   OH236931   5.010   3.179   5.268
12329TIP3    H136932   5.052   3.124   5.334
12329TIP3    H236933   4.960   3.244   5.318
12330TIP3   OH236934   1.564   7.004   1.073
12330TIP3    H136935   1.572   6.963   0.987
12330TIP3    H236936   1.615   7.085   1.065
12331TIP3   OH236937   7.146   1.341   1.994
12331TIP3    H136938   7.205   1.385   2.055
12331TIP3    H236939   7.198   1.332   1.914
12332TIP3   OH236940   5.623   3.882   2.911
12332TIP3    H136941   5.693   3.906   2.850
12332TIP3    H236942   5.584   3.966   2.936
12333TIP3   OH236943   0.542   0.190   4.868
12333TIP3    H136944   0.546   0.155   4.779
12333TIP3    H236945   0.502   0.276   4.858
12334TIP3   OH236946   2.727   4.424   1.765
12334TIP3    H136947   2.749   4.501   1.817
12334TIP3    H236948   2.712   4.458   1.677
12335TIP3   OH236949   4.537   1.601   1.233
12335TIP3    H136950   4.514   1.655   1.309
12335TIP3    H236951   4.483   1.636   1.162
12336TIP3   OH236952   7.556   5.522   0.272
12336TIP3    H136953   7.604   5.489   0.196
12336TIP3    H236954   7.569   5.456   0.339
12337TIP3   OH236955   7.402   3.194   5.208
12337TIP3    H136956   7.365   3.210   5.295
12337TIP3    H236957   7.327   3.189   5.150
12338TIP3   OH236958   7.618   7.216   2.978
12338TIP3    H136959   7.545   7.154   2.980
12338TIP3    H236960   7.659   7.203   2.893
12339TIP3   OH236961   2.964   6.946   4.190
12339TIP3    H136962   2.877   6.927   4.155
12339TIP3    H236963   3.013   6.864   4.178
12340TIP3   OH236964   1.409   7.829   2.768
12340TIP3    H136965   1.371   7.741   2.772
12340TIP3    H236966   1.431   7.841   2.676
12341TIP3   OH236967   0.331   2.502   0.281
12341TIP3    H136968   0.317   2.435   0.214
12341TIP3    H236969   0.334   2.454   0.364
12342TIP3   OH236970   5.480   3.963   5.938
12342TIP3    H136971   5.485   3.972   6.033
12342TIP3    H236972   5.498   4.051   5.905
12343TIP3   OH236973   6.787   1.108   1.022
12343TIP3    H136974   6.695   1.082   1.029
12343TIP3    H236975   6.807   1.147   1.107
12344TIP3   OH236976   1.848   2.006   0.304
12344TIP3    H136977   1.786   2.006   0.231
12344TIP3    H236978   1.864   1.913   0.321
12345TIP3   OH236979   0.020   2.272   6.299
12345TIP3    H136980   0.031   2.286   6.393
12345TIP3    H236981   0.109   2.268   6.264
12346TIP3   OH236982   0.037   6.168   0.209
12346TIP3    H136983  -0.003   6.145   0.125
12346TIP3    H236984   0.122   6.204   0.186
12347TIP3   OH236985   3.668   2.504   4.860
12347TIP3    H136986   3.733   2.545   4.804
12347TIP3    H236987   3.659   2.415   4.825
12348TIP3   OH236988   4.559   7.208   1.495
12348TIP3    H136989   4.481   7.179   1.542
12348TIP3    H236990   4.526   7.239   1.410
12349TIP3   OH236991   7.926   4.436   3.454
12349TIP3    H136992   7.839   4.474   3.464
12349TIP3    H236993   7.986   4.507   3.475
12350TIP3   OH236994   5.117   6.279   0.702
12350TIP3    H136995   5.110   6.308   0.792
12350TIP3    H236996   5.152   6.190   0.707
12351TIP3   OH236997   3.413   1.294   2.758
12351TIP3    H136998   3.460   1.303   2.841
12351TIP3    H236999   3.464   1.347   2.696
12352TIP3   OH237000   2.976   7.133   3.368
12352TIP3    H137001   2.900   7.178   3.331
12352TIP3    H237002   3.010   7.080   3.296
12353TIP3   OH237003   1.710   3.119   0.786
12353TIP3    H137004   1.751   3.034   0.770
12353TIP3    H237005   1.784   3.180   0.791
12354TIP3   OH237006   0.820   4.046   4.053
12354TIP3    H137007   0.757   4.002   3.996
12354TIP3    H237008   0.801   4.139   4.044
12355TIP3   OH237009   7.219   1.530   0.559
12355TIP3    H137010   7.254   1.459   0.613
12355TIP3    H237011   7.165   1.581   0.619
12356TIP3   OH237012   1.846   1.271   3.290
12356TIP3    H137013   1.871   1.179   3.287
12356TIP3    H237014   1.800   1.280   3.374
12357TIP3   OH237015   7.966   6.786   3.101
12357TIP3    H137016   7.889   6.843   3.100
12357TIP3    H237017   7.977   6.763   3.193
12358TIP3   OH237018   2.214   3.272   4.835
12358TIP3    H137019   2.306   3.286   4.817
12358TIP3    H237020   2.209   3.180   4.864
12359TIP3   OH237021   0.459   7.654   4.314
12359TIP3    H137022   0.462   7.720   4.383
12359TIP3    H237023   0.391   7.685   4.254
12360TIP3   OH237024   2.359   7.123   5.964
12360TIP3    H137025   2.341   7.142   5.872
12360TIP3    H237026   2.450   7.092   5.964
12361TIP3   OH237027   0.404   1.071   3.433
12361TIP3    H137028   0.492   1.051   3.466
12361TIP3    H237029   0.389   1.161   3.460
12362TIP3   OH237030   7.479   5.335   6.093
12362TIP3    H137031   7.526   5.307   6.172
12362TIP3    H237032   7.467   5.255   6.042
12363TIP3   OH237033   3.268   3.389   3.748
12363TIP3    H137034   3.347   3.441   3.734
12363TIP3    H237035   3.227   3.383   3.662
12364TIP3   OH237036   3.342   7.565   1.030
12364TIP3    H137037   3.407   7.632   1.054
12364TIP3    H237038   3.282   7.610   0.970
12365TIP3   OH237039   0.303   2.231   1.987
12365TIP3    H137040   0.275   2.234   2.078
12365TIP3    H237041   0.390   2.192   1.989
12366TIP3   OH237042   7.762   4.243   3.331
12366TIP3    H137043   7.754   4.157   3.373
12366TIP3    H237044   7.807   4.297   3.395
12367TIP3   OH237045   3.974   5.981   3.079
12367TIP3    H137046   3.960   6.057   3.022
12367TIP3    H237047   3.999   5.910   3.019
12368TIP3   OH237048   2.869   6.636   3.286
12368TIP3    H137049   2.790   6.582   3.289
12368TIP3    H237050   2.940   6.574   3.266
12369TIP3   OH237051   3.886   5.698   4.514
12369TIP3    H137052   3.914   5.753   4.587
12369TIP3    H237053   3.801   5.663   4.542
12370TIP3   OH237054   2.867   6.498   6.276
12370TIP3    H137055   2.839   6.480   6.366
12370TIP3    H237056   2.943   6.442   6.262
12371TIP3   OH237057   5.260   4.086   5.661
12371TIP3    H137058   5.202   4.114   5.590
12371TIP3    H237059   5.244   4.149   5.731
12372TIP3   OH237060   4.580   6.745   5.830
12372TIP3    H137061   4.525   6.717   5.902
12372TIP3    H237062   4.519   6.766   5.759
12373TIP3   OH237063   5.927   4.494   2.443
12373TIP3    H137064   5.959   4.582   2.462
12373TIP3    H237065   5.980   4.437   2.500
12374TIP3   OH237066   1.977   5.803   0.737
12374TIP3    H137067   1.994   5.802   0.831
12374TIP3    H237068   2.062   5.819   0.697
12375TIP3   OH237069   5.178   0.331   4.588
12375TIP3    H137070   5.263   0.370   4.610
12375TIP3    H237071   5.129   0.334   4.671
12376TIP3   OH237072   6.821   0.300   1.065
12376TIP3    H137073   6.862   0.296   0.979
12376TIP3    H237074   6.894   0.298   1.127
12377TIP3   OH237075   4.210   1.546   5.316
12377TIP3    H137076   4.171   1.537   5.229
12377TIP3    H237077   4.162   1.618   5.356
12378TIP3   OH237078   3.581   5.253   1.992
12378TIP3    H137079   3.554   5.249   1.900
12378TIP3    H237080   3.624   5.169   2.008
12379TIP3   OH237081   2.666   6.768   4.325
12379TIP3    H137082   2.699   6.787   4.237
12379TIP3    H237083   2.590   6.713   4.311
12380TIP3   OH237084   1.827   7.304   3.964
12380TIP3    H137085   1.776   7.290   4.043
12380TIP3    H237086   1.790   7.383   3.924
12381TIP3   OH237087   0.938   3.410   1.986
12381TIP3    H137088   0.934   3.344   2.055
12381TIP3    H237089   0.952   3.492   2.032
12382TIP3   OH237090   4.115   3.521   3.516
12382TIP3    H137091   4.045   3.539   3.580
12382TIP3    H237092   4.180   3.471   3.566
12383TIP3   OH237093   2.308   1.658   3.759
12383TIP3    H137094   2.309   1.582   3.700
12383TIP3    H237095   2.357   1.725   3.711
12384TIP3   OH237096   4.833   0.307   0.502
12384TIP3    H137097   4.822   0.400   0.481
12384TIP3    H237098   4.922   0.301   0.537
12385TIP3   OH237099   5.964   2.508   6.395
12385TIP3    H137100   6.038   2.463   6.353
12385TIP3    H237101   5.889   2.488   6.340
12386TIP3   OH237102   6.871   5.612   2.865
12386TIP3    H137103   6.908   5.589   2.779
12386TIP3    H237104   6.945   5.604   2.925
12387TIP3   OH237105   7.901   0.501   3.884
12387TIP3    H137106   7.913   0.469   3.795
12387TIP3    H237107   7.882   0.595   3.874
12388TIP3   OH237108   8.236   5.111   5.810
12388TIP3    H137109   8.204   5.156   5.889
12388TIP3    H237110   8.331   5.116   5.817
12389TIP3   OH237111   5.611   5.654   4.655
12389TIP3    H137112   5.682   5.714   4.678
12389TIP3    H237113   5.582   5.617   4.739
12390TIP3   OH237114   3.811   7.554   4.585
12390TIP3    H137115   3.720   7.581   4.574
12390TIP3    H237116   3.833   7.511   4.502
12391TIP3   OH237117   6.562   0.710   4.254
12391TIP3    H137118   6.628   0.655   4.211
12391TIP3    H237119   6.605   0.794   4.268
12392TIP3   OH237120   7.169   0.561   6.020
12392TIP3    H137121   7.226   0.485   6.004
12392TIP3    H237122   7.170   0.610   5.938
12393TIP3   OH237123   6.562   6.457   5.318
12393TIP3    H137124   6.511   6.523   5.270
12393TIP3    H237125   6.651   6.465   5.283
12394TIP3   OH237126   7.142  -0.003   0.467
12394TIP3    H137127   7.146   0.088   0.435
12394TIP3    H237128   7.122   0.006   0.560
12395TIP3   OH237129   7.479   6.317   5.608
12395TIP3    H137130   7.493   6.380   5.679
12395TIP3    H237131   7.567   6.292   5.581
12396TIP3   OH237132   6.303   2.584   3.597
12396TIP3    H137133   6.308   2.583   3.501
12396TIP3    H237134   6.252   2.507   3.619
12397TIP3   OH237135   1.199   2.572   0.780
12397TIP3    H137136   1.288   2.600   0.755
12397TIP3    H237137   1.142   2.624   0.724
12398TIP3   OH237138   2.639   1.455   1.363
12398TIP3    H137139   2.617   1.401   1.286
12398TIP3    H237140   2.590   1.536   1.350
12399TIP3   OH237141   2.424   0.949   2.542
12399TIP3    H137142   2.431   1.007   2.466
12399TIP3    H237143   2.477   0.873   2.519
12400TIP3   OH237144   3.338   0.111   1.139
12400TIP3    H137145   3.330   0.112   1.235
12400TIP3    H237146   3.265   0.165   1.109
12401TIP3   OH237147   5.536   6.842   2.770
12401TIP3    H137148   5.524   6.844   2.675
12401TIP3    H237149   5.459   6.888   2.805
12402TIP3   OH237150   6.363   5.768   5.850
12402TIP3    H137151   6.373   5.680   5.813
12402TIP3    H237152   6.389   5.827   5.780
12403TIP3   OH237153   7.355   2.040   6.485
12403TIP3    H137154   7.268   2.077   6.473
12403TIP3    H237155   7.405   2.109   6.528
12404TIP3   OH237156   7.000   3.981   2.195
12404TIP3    H137157   7.087   3.980   2.155
12404TIP3    H237158   7.010   4.034   2.274
12405TIP3   OH237159   4.805   3.054   6.475
12405TIP3    H137160   4.834   3.092   6.391
12405TIP3    H237161   4.852   3.104   6.541
12406TIP3   OH237162   7.584   4.796   0.957
12406TIP3    H137163   7.535   4.782   0.876
12406TIP3    H237164   7.518   4.798   1.026
12407TIP3   OH237165   3.455   5.986   3.151
12407TIP3    H137166   3.537   5.949   3.119
12407TIP3    H237167   3.482   6.057   3.209
12408TIP3   OH237168   3.707   2.900   1.190
12408TIP3    H137169   3.739   2.912   1.100
12408TIP3    H237170   3.634   2.840   1.181
12409TIP3   OH237171   1.005   1.948   6.373
12409TIP3    H137172   1.005   1.928   6.466
12409TIP3    H237173   0.966   1.870   6.332
12410TIP3   OH237174   1.954   7.480   2.006
12410TIP3    H137175   1.926   7.572   2.010
12410TIP3    H237176   2.013   7.476   1.931
12411TIP3   OH237177   1.955   0.589   6.761
12411TIP3    H137178   2.035   0.570   6.712
12411TIP3    H237179   1.982   0.651   6.829
12412TIP3   OH237180   1.496   0.502   6.071
12412TIP3    H137181   1.567   0.441   6.055
12412TIP3    H237182   1.537   0.578   6.113
12413TIP3   OH237183   8.144   7.272   5.378
12413TIP3    H137184   8.203   7.207   5.340
12413TIP3    H237185   8.059   7.254   5.338
12414TIP3   OH237186   4.044   3.349   5.067
12414TIP3    H137187   4.090   3.346   5.151
12414TIP3    H237188   3.955   3.377   5.089
12415TIP3   OH237189   5.490   0.355   5.725
12415TIP3    H137190   5.509   0.279   5.669
12415TIP3    H237191   5.430   0.322   5.791
12416TIP3   OH237192   7.941   3.235   1.876
12416TIP3    H137193   7.941   3.175   1.801
12416TIP3    H237194   7.876   3.302   1.854
12417TIP3   OH237195   7.309   7.772   6.221
12417TIP3    H137196   7.214   7.766   6.234
12417TIP3    H237197   7.321   7.850   6.168
12418TIP3   OH237198   1.382   2.340   4.358
12418TIP3    H137199   1.295   2.375   4.339
12418TIP3    H237200   1.421   2.325   4.271
12419TIP3   OH237201   2.234   2.068   5.420
12419TIP3    H137202   2.143   2.043   5.433
12419TIP3    H237203   2.258   2.030   5.336
12420TIP3   OH237204   4.597   2.586   5.665
12420TIP3    H137205   4.565   2.557   5.580
12420TIP3    H237206   4.541   2.661   5.687
12421TIP3   OH237207   1.511   4.142   2.639
12421TIP3    H137208   1.451   4.141   2.565
12421TIP3    H237209   1.593   4.177   2.603
12422TIP3   OH237210   0.944   3.945   0.694
12422TIP3    H137211   0.901   3.908   0.771
12422TIP3    H237212   1.030   3.903   0.692
12423TIP3   OH237213   8.007   4.444   2.446
12423TIP3    H137214   7.985   4.368   2.501
12423TIP3    H237215   8.061   4.408   2.376
12424TIP3   OH237216   3.747   1.073   4.938
12424TIP3    H137217   3.747   1.018   5.016
12424TIP3    H237218   3.755   1.162   4.973
12425TIP3   OH237219   6.356   0.252   1.737
12425TIP3    H137220   6.450   0.274   1.736
12425TIP3    H237221   6.313   0.330   1.701
12426TIP3   OH237222   0.901   5.464   5.725
12426TIP3    H137223   0.950   5.502   5.651
12426TIP3    H237224   0.881   5.539   5.781
12427TIP3   OH237225   4.623   4.991   6.638
12427TIP3    H137226   4.669   5.066   6.677
12427TIP3    H237227   4.666   4.914   6.676
12428TIP3   OH237228   0.245   5.146   0.600
12428TIP3    H137229   0.239   5.054   0.626
12428TIP3    H237230   0.190   5.192   0.664
12429TIP3   OH237231   0.720   5.621   0.110
12429TIP3    H137232   0.797   5.599   0.056
12429TIP3    H237233   0.675   5.537   0.122
12430TIP3   OH237234   2.267   0.994   0.816
12430TIP3    H137235   2.175   0.999   0.840
12430TIP3    H237236   2.313   1.035   0.889
12431TIP3   OH237237   6.967   3.181   4.614
12431TIP3    H137238   6.988   3.178   4.521
12431TIP3    H237239   6.871   3.175   4.618
12432TIP3   OH237240   3.775   4.403   2.216
12432TIP3    H137241   3.815   4.357   2.142
12432TIP3    H237242   3.839   4.395   2.287
12433TIP3   OH237243   4.606   0.275   1.319
12433TIP3    H137244   4.659   0.310   1.247
12433TIP3    H237245   4.537   0.340   1.332
12434TIP3   OH237246   3.140   6.610   4.876
12434TIP3    H137247   3.132   6.695   4.919
12434TIP3    H237248   3.050   6.577   4.872
12435TIP3   OH237249   7.981   5.851   0.236
12435TIP3    H137250   8.030   5.878   0.313
12435TIP3    H237251   8.047   5.836   0.169
12436TIP3   OH237252   7.177   6.761   1.766
12436TIP3    H137253   7.179   6.707   1.845
12436TIP3    H237254   7.108   6.722   1.713
12437TIP3   OH237255   3.364   2.221   1.948
12437TIP3    H137256   3.316   2.164   2.007
12437TIP3    H237257   3.456   2.197   1.960
12438TIP3   OH237258   0.073   2.466   2.344
12438TIP3    H137259   0.069   2.454   2.250
12438TIP3    H237260   0.151   2.417   2.371
12439TIP3   OH237261   6.979   1.696   3.038
12439TIP3    H137262   7.037   1.692   3.115
12439TIP3    H237263   6.891   1.693   3.074
12440TIP3   OH237264   7.915   0.208   4.532
12440TIP3    H137265   7.848   0.264   4.571
12440TIP3    H237266   7.920   0.236   4.441
12441TIP3   OH237267   1.287   2.548   5.694
12441TIP3    H137268   1.352   2.598   5.743
12441TIP3    H237269   1.246   2.492   5.759
12442TIP3   OH237270   7.361   4.654   1.254
12442TIP3    H137271   7.429   4.720   1.238
12442TIP3    H237272   7.279   4.703   1.252
12443TIP3   OH237273   0.750   2.617   3.448
12443TIP3    H137274   0.661   2.587   3.468
12443TIP3    H237275   0.772   2.572   3.366
12444TIP3   OH237276   8.050   6.476   0.837
12444TIP3    H137277   8.077   6.407   0.898
12444TIP3    H237278   8.132   6.514   0.806
12445TIP3   OH237279   6.864   3.179   3.140
12445TIP3    H137280   6.874   3.142   3.227
12445TIP3    H237281   6.783   3.140   3.106
12446TIP3   OH237282   6.297   0.793   2.515
12446TIP3    H137283   6.212   0.833   2.500
12446TIP3    H237284   6.326   0.763   2.429
12447TIP3   OH237285   0.910   7.202   2.896
12447TIP3    H137286   0.999   7.235   2.884
12447TIP3    H237287   0.917   7.107   2.885
12448TIP3   OH237288   0.458   7.537   0.473
12448TIP3    H137289   0.367   7.509   0.482
12448TIP3    H237290   0.493   7.483   0.402
12449TIP3   OH237291   5.950   4.241   3.851
12449TIP3    H137292   5.993   4.181   3.789
12449TIP3    H237293   5.858   4.239   3.825
12450TIP3   OH237294   1.489   6.864   5.886
12450TIP3    H137295   1.450   6.883   5.972
12450TIP3    H237296   1.583   6.874   5.900
12451TIP3   OH237297   4.979   1.248   0.773
12451TIP3    H137298   5.052   1.229   0.832
12451TIP3    H237299   4.904   1.201   0.812
12452TIP3   OH237300   0.499   1.262   0.653
12452TIP3    H137301   0.563   1.315   0.700
12452TIP3    H237302   0.509   1.289   0.562
12453TIP3   OH237303   4.358   1.373   3.849
12453TIP3    H137304   4.411   1.367   3.929
12453TIP3    H237305   4.331   1.465   3.846
12454TIP3   OH237306   6.711   3.800   6.439
12454TIP3    H137307   6.620   3.816   6.414
12454TIP3    H237308   6.741   3.730   6.381
12455TIP3   OH237309   2.688   4.523   4.452
12455TIP3    H137310   2.735   4.448   4.416
12455TIP3    H237311   2.699   4.592   4.386
12456TIP3   OH237312   3.213   0.150   6.418
12456TIP3    H137313   3.162   0.159   6.499
12456TIP3    H237314   3.158   0.097   6.360
12457TIP3   OH237315   2.708   4.989   5.694
12457TIP3    H137316   2.763   5.049   5.744
12457TIP3    H237317   2.770   4.926   5.657
12458TIP3   OH237318   6.171   0.859   5.701
12458TIP3    H137319   6.106   0.916   5.659
12458TIP3    H237320   6.192   0.793   5.636
12459TIP3   OH237321   0.769   6.606   6.166
12459TIP3    H137322   0.736   6.522   6.134
12459TIP3    H237323   0.690   6.658   6.182
12460TIP3   OH237324   6.792   3.506   5.774
12460TIP3    H137325   6.884   3.484   5.790
12460TIP3    H237326   6.760   3.538   5.859
12461TIP3   OH237327   6.397   5.664   1.872
12461TIP3    H137328   6.396   5.759   1.881
12461TIP3    H237329   6.366   5.648   1.782
12462TIP3   OH237330   6.433   4.998   6.749
12462TIP3    H137331   6.504   5.021   6.810
12462TIP3    H237332   6.464   4.919   6.705
12463TIP3   OH237333   2.676   4.088   3.891
12463TIP3    H137334   2.708   4.144   3.820
12463TIP3    H237335   2.690   4.140   3.971
12464TIP3   OH237336   7.667   5.585   1.040
12464TIP3    H137337   7.715   5.564   1.120
12464TIP3    H237338   7.708   5.530   0.973
12465TIP3   OH237339   7.612   5.645   3.384
12465TIP3    H137340   7.644   5.572   3.437
12465TIP3    H237341   7.594   5.714   3.447
12466TIP3   OH237342   0.178   6.965   4.329
12466TIP3    H137343   0.135   6.922   4.256
12466TIP3    H237344   0.271   6.959   4.308
12467TIP3   OH237345   1.515   2.294   0.793
12467TIP3    H137346   1.429   2.250   0.796
12467TIP3    H237347   1.564   2.246   0.725
12468TIP3   OH237348   0.672   2.838   1.877
12468TIP3    H137349   0.586   2.866   1.847
12468TIP3    H237350   0.733   2.902   1.840
12469TIP3   OH237351   6.816   6.067   5.218
12469TIP3    H137352   6.762   6.111   5.283
12469TIP3    H237353   6.905   6.070   5.254
12470TIP3   OH237354   8.263   4.008   6.521
12470TIP3    H137355   8.319   3.932   6.510
12470TIP3    H237356   8.225   3.998   6.608
12471TIP3   OH237357   7.122   3.791   4.678
12471TIP3    H137358   7.031   3.764   4.666
12471TIP3    H237359   7.117   3.867   4.736
12472TIP3   OH237360   4.528   2.901   2.143
12472TIP3    H137361   4.534   2.983   2.191
12472TIP3    H237362   4.435   2.893   2.120
12473TIP3   OH237363   4.242   3.374   5.666
12473TIP3    H137364   4.289   3.313   5.609
12473TIP3    H237365   4.212   3.320   5.739
12474TIP3   OH237366   1.866   0.667   4.348
12474TIP3    H137367   1.847   0.659   4.441
12474TIP3    H237368   1.830   0.752   4.324
12475TIP3   OH237369   0.756   0.334   2.115
12475TIP3    H137370   0.828   0.330   2.179
12475TIP3    H237371   0.710   0.251   2.126
12476TIP3   OH237372   7.802   3.291   0.405
12476TIP3    H137373   7.850   3.342   0.340
12476TIP3    H237374   7.803   3.347   0.483
12477TIP3   OH237375   4.327   5.079   4.221
12477TIP3    H137376   4.326   5.162   4.268
12477TIP3    H237377   4.307   5.014   4.288
12478TIP3   OH237378   5.795   0.661   1.895
12478TIP3    H137379   5.818   0.573   1.923
12478TIP3    H237380   5.877   0.710   1.902
12479TIP3   OH237381   2.159   5.366   0.406
12479TIP3    H137382   2.150   5.443   0.462
12479TIP3    H237383   2.069   5.341   0.384
12480TIP3   OH237384   5.151   4.233   0.827
12480TIP3    H137385   5.147   4.327   0.847
12480TIP3    H237386   5.235   4.205   0.862
12481TIP3   OH237387   1.374   6.887   2.645
12481TIP3    H137388   1.385   6.838   2.563
12481TIP3    H237389   1.435   6.845   2.706
12482TIP3   OH237390   5.194   5.615   6.714
12482TIP3    H137391   5.198   5.623   6.619
12482TIP3    H237392   5.161   5.527   6.730
12483TIP3   OH237393   1.973   2.606   3.742
12483TIP3    H137394   1.906   2.656   3.788
12483TIP3    H237395   2.009   2.547   3.809
12484TIP3   OH237396   8.062   1.496   4.386
12484TIP3    H137397   7.999   1.525   4.452
12484TIP3    H237398   8.147   1.523   4.420
12485TIP3   OH237399   2.237   2.889   5.740
12485TIP3    H137400   2.174   2.960   5.754
12485TIP3    H237401   2.271   2.904   5.652
12486TIP3   OH237402   1.037   1.303   0.742
12486TIP3    H137403   0.942   1.306   0.748
12486TIP3    H237404   1.067   1.361   0.813
12487TIP3   OH237405   0.903   6.020   0.681
12487TIP3    H137406   0.818   6.060   0.703
12487TIP3    H237407   0.946   6.085   0.625
12488TIP3   OH237408   5.277   7.311   3.053
12488TIP3    H137409   5.197   7.344   3.013
12488TIP3    H237410   5.307   7.382   3.109
12489TIP3   OH237411   5.977   6.705   0.309
12489TIP3    H137412   6.015   6.617   0.305
12489TIP3    H237413   5.884   6.689   0.329
12490TIP3   OH237414   5.301   0.418   0.699
12490TIP3    H137415   5.284   0.452   0.612
12490TIP3    H237416   5.394   0.395   0.698
12491TIP3   OH237417   7.353   1.532   4.562
12491TIP3    H137418   7.315   1.445   4.557
12491TIP3    H237419   7.320   1.568   4.645
12492TIP3   OH237420   7.442   5.424   1.504
12492TIP3    H137421   7.418   5.418   1.412
12492TIP3    H237422   7.497   5.348   1.520
12493TIP3   OH237423   5.919   0.692   0.900
12493TIP3    H137424   5.843   0.745   0.878
12493TIP3    H237425   5.884   0.606   0.920
12494TIP3   OH237426   8.179   0.178   6.802
12494TIP3    H137427   8.184   0.092   6.762
12494TIP3    H237428   8.123   0.229   6.743
12495TIP3   OH237429   4.236   1.193   3.661
12495TIP3    H137430   4.178   1.124   3.693
12495TIP3    H237431   4.254   1.247   3.738
12496TIP3   OH237432   1.251   2.178   3.519
12496TIP3    H137433   1.285   2.093   3.492
12496TIP3    H237434   1.188   2.157   3.588
12497TIP3   OH237435   1.559   0.493   4.225
12497TIP3    H137436   1.544   0.407   4.263
12497TIP3    H237437   1.653   0.496   4.207
12498TIP3   OH237438   1.051   0.745   6.239
12498TIP3    H137439   1.115   0.792   6.185
12498TIP3    H237440   0.989   0.709   6.175
12499TIP3   OH237441   3.049   6.032   5.626
12499TIP3    H137442   2.985   5.968   5.594
12499TIP3    H237443   3.127   5.979   5.646
12500TIP3   OH237444   5.631   5.929   5.001
12500TIP3    H137445   5.602   5.984   5.073
12500TIP3    H237446   5.587   5.845   5.016
12501TIP3   OH237447   7.926   4.826   2.689
12501TIP3    H137448   7.947   4.915   2.661
12501TIP3    H237449   7.941   4.772   2.611
12502TIP3   OH237450   6.893   5.713   4.083
12502TIP3    H137451   6.860   5.743   4.168
12502TIP3    H237452   6.978   5.755   4.074
12503TIP3   OH237453   5.248   4.527   0.501
12503TIP3    H137454   5.223   4.528   0.593
12503TIP3    H237455   5.186   4.588   0.459
12504TIP3   OH237456   6.732   4.154   4.741
12504TIP3    H137457   6.699   4.243   4.731
12504TIP3    H237458   6.686   4.104   4.673
12505TIP3   OH237459   7.569   2.852   6.534
12505TIP3    H137460   7.645   2.910   6.525
12505TIP3    H237461   7.600   2.781   6.590
12506TIP3   OH237462   2.946   3.004   0.243
12506TIP3    H137463   3.003   3.058   0.188
12506TIP3    H237464   2.860   3.045   0.236
12507TIP3   OH237465   1.809   2.813   2.506
12507TIP3    H137466   1.723   2.815   2.548
12507TIP3    H237467   1.836   2.721   2.510
12508TIP3   OH237468   4.175   7.669   4.942
12508TIP3    H137469   4.166   7.647   5.035
12508TIP3    H237470   4.252   7.620   4.913
12509TIP3   OH237471   1.912   4.702   0.410
12509TIP3    H137472   1.937   4.728   0.499
12509TIP3    H237473   1.988   4.721   0.357
12510TIP3   OH237474   6.266   2.619   3.323
12510TIP3    H137475   6.236   2.695   3.274
12510TIP3    H237476   6.311   2.565   3.258
12511TIP3   OH237477   7.814   5.288   3.959
12511TIP3    H137478   7.889   5.247   3.917
12511TIP3    H237479   7.795   5.365   3.905
12512TIP3   OH237480   2.899   0.328   0.282
12512TIP3    H137481   2.949   0.397   0.324
12512TIP3    H237482   2.923   0.334   0.189
12513TIP3   OH237483   4.029   3.492   1.107
12513TIP3    H137484   3.974   3.493   1.029
12513TIP3    H237485   3.975   3.450   1.175
12514TIP3   OH237486   3.423   4.637   5.658
12514TIP3    H137487   3.431   4.690   5.737
12514TIP3    H237488   3.512   4.606   5.641
12515TIP3   OH237489   4.937   5.623   6.458
12515TIP3    H137490   4.882   5.583   6.525
12515TIP3    H237491   4.882   5.691   6.419
12516TIP3   OH237492   6.456   0.476   1.118
12516TIP3    H137493   6.504   0.550   1.155
12516TIP3    H237494   6.364   0.501   1.126
12517TIP3   OH237495   0.999   4.525   2.807
12517TIP3    H137496   0.992   4.603   2.862
12517TIP3    H237497   1.091   4.501   2.811
12518TIP3   OH237498   3.559   4.091   3.578
12518TIP3    H137499   3.543   4.119   3.668
12518TIP3    H237500   3.512   4.155   3.524
12519TIP3   OH237501   7.292   3.888   0.630
12519TIP3    H137502   7.272   3.979   0.650
12519TIP3    H237503   7.351   3.893   0.555
12520TIP3   OH237504   6.626   4.344   3.256
12520TIP3    H137505   6.625   4.429   3.211
12520TIP3    H237506   6.651   4.281   3.189
12521TIP3   OH237507   4.245   6.119   3.000
12521TIP3    H137508   4.161   6.165   2.999
12521TIP3    H237509   4.266   6.106   2.907
12522TIP3   OH237510   4.332   4.305   2.308
12522TIP3    H137511   4.294   4.234   2.360
12522TIP3    H237512   4.375   4.361   2.373
12523TIP3   OH237513   0.527   7.563   1.884
12523TIP3    H137514   0.576   7.551   1.965
12523TIP3    H237515   0.456   7.499   1.889
12524TIP3   OH237516   2.314   4.561   5.016
12524TIP3    H137517   2.257   4.531   5.088
12524TIP3    H237518   2.337   4.481   4.969
12525TIP3   OH237519   4.980   5.320   3.795
12525TIP3    H137520   4.951   5.232   3.769
12525TIP3    H237521   5.066   5.330   3.754
12526TIP3   OH237522   7.139   2.892   4.925
12526TIP3    H137523   7.175   2.975   4.893
12526TIP3    H237524   7.078   2.918   4.994
12527TIP3   OH237525   5.630   5.676   4.208
12527TIP3    H137526   5.672   5.727   4.277
12527TIP3    H237527   5.551   5.727   4.185
12528TIP3   OH237528   6.855   0.259   0.310
12528TIP3    H137529   6.815   0.334   0.354
12528TIP3    H237530   6.781   0.207   0.280
12529TIP3   OH237531   1.776   3.617   1.945
12529TIP3    H137532   1.789   3.527   1.973
12529TIP3    H237533   1.762   3.666   2.026
12530TIP3   OH237534   8.119   5.304   0.611
12530TIP3    H137535   8.214   5.310   0.620
12530TIP3    H237536   8.089   5.270   0.696
12531TIP3   OH237537   4.452   6.067   1.799
12531TIP3    H137538   4.401   6.079   1.719
12531TIP3    H237539   4.407   5.996   1.846
12532TIP3   OH237540   5.921   5.063   5.206
12532TIP3    H137541   5.866   4.989   5.234
12532TIP3    H237542   5.860   5.122   5.162
12533TIP3   OH237543   3.193   3.489   0.658
12533TIP3    H137544   3.250   3.544   0.711
12533TIP3    H237545   3.250   3.457   0.588
12534TIP3   OH237546   7.496   5.049   0.732
12534TIP3    H137547   7.471   4.964   0.695
12534TIP3    H237548   7.586   5.036   0.760
12535TIP3   OH237549   6.845   5.375   1.518
12535TIP3    H137550   6.796   5.451   1.547
12535TIP3    H237551   6.931   5.410   1.493
12536TIP3   OH237552   2.198   6.921   1.519
12536TIP3    H137553   2.195   6.901   1.613
12536TIP3    H237554   2.156   6.845   1.478
12537TIP3   OH237555   4.144   4.244   1.275
12537TIP3    H137556   4.214   4.230   1.338
12537TIP3    H237557   4.123   4.156   1.243
12538TIP3   OH237558   1.971   4.884   2.558
12538TIP3    H137559   2.054   4.860   2.598
12538TIP3    H237560   1.954   4.814   2.495
12539TIP3   OH237561   1.326   3.369   2.901
12539TIP3    H137562   1.382   3.340   2.973
12539TIP3    H237563   1.360   3.455   2.878
12540TIP3   OH237564   3.881   4.682   2.998
12540TIP3    H137565   3.815   4.751   3.003
12540TIP3    H237566   3.914   4.675   3.088
12541TIP3   OH237567   7.669   2.660   1.008
12541TIP3    H137568   7.627   2.735   0.967
12541TIP3    H237569   7.676   2.595   0.938
12542TIP3   OH237570   7.503   6.638   5.620
12542TIP3    H137571   7.446   6.621   5.545
12542TIP3    H237572   7.591   6.645   5.582
12543TIP3   OH237573   2.345   4.463   5.920
12543TIP3    H137574   2.376   4.402   5.853
12543TIP3    H237575   2.269   4.420   5.958
12544TIP3   OH237576   0.835   6.392   0.491
12544TIP3    H137577   0.763   6.333   0.472
12544TIP3    H237578   0.795   6.479   0.493
12545TIP3   OH237579   2.684   2.940   4.661
12545TIP3    H137580   2.773   2.911   4.642
12545TIP3    H237581   2.678   3.027   4.622
12546TIP3   OH237582   6.018   0.666   4.718
12546TIP3    H137583   5.999   0.731   4.651
12546TIP3    H237584   5.954   0.596   4.704
12547TIP3   OH237585   6.650   0.016   0.984
12547TIP3    H137586   6.715  -0.010   0.918
12547TIP3    H237587   6.694   0.086   1.033
12548TIP3   OH237588   3.657   0.674   4.210
12548TIP3    H137589   3.624   0.595   4.253
12548TIP3    H237590   3.654   0.654   4.117
12549TIP3   OH237591   1.989   3.448   5.672
12549TIP3    H137592   2.037   3.530   5.679
12549TIP3    H237593   1.901   3.468   5.704
12550TIP3   OH237594   3.074   6.800   0.281
12550TIP3    H137595   3.043   6.889   0.298
12550TIP3    H237596   3.159   6.812   0.239
12551TIP3   OH237597   7.865   5.681   5.323
12551TIP3    H137598   7.796   5.677   5.390
12551TIP3    H237599   7.874   5.774   5.303
12552TIP3   OH237600   5.396   6.281   4.587
12552TIP3    H137601   5.488   6.263   4.602
12552TIP3    H237602   5.352   6.256   4.668
12553TIP3   OH237603   1.740   2.556   5.428
12553TIP3    H137604   1.761   2.487   5.491
12553TIP3    H237605   1.823   2.600   5.411
12554TIP3   OH237606   7.324   7.100   2.886
12554TIP3    H137607   7.399   7.066   2.838
12554TIP3    H237608   7.337   7.069   2.976
12555TIP3   OH237609   4.530   1.816   6.440
12555TIP3    H137610   4.571   1.892   6.399
12555TIP3    H237611   4.494   1.766   6.367
12556TIP3   OH237612   5.962   2.682   1.472
12556TIP3    H137613   6.045   2.665   1.428
12556TIP3    H237614   5.895   2.666   1.405
12557TIP3   OH237615   7.055   4.874   2.860
12557TIP3    H137616   6.986   4.849   2.922
12557TIP3    H237617   7.034   4.964   2.836
12558TIP3   OH237618   1.911   3.322   3.752
12558TIP3    H137619   1.876   3.411   3.742
12558TIP3    H237620   1.861   3.269   3.690
12559TIP3   OH237621   5.675   4.720   4.722
12559TIP3    H137622   5.626   4.637   4.723
12559TIP3    H237623   5.608   4.786   4.703
12560TIP3   OH237624   2.254   3.353   0.521
12560TIP3    H137625   2.166   3.318   0.522
12560TIP3    H237626   2.269   3.381   0.431
12561TIP3   OH237627   1.115   3.747   1.917
12561TIP3    H137628   1.189   3.720   1.862
12561TIP3    H237629   1.067   3.810   1.864
12562TIP3   OH237630   2.835   0.311   6.374
12562TIP3    H137631   2.890   0.388   6.389
12562TIP3    H237632   2.889   0.254   6.320
12563TIP3   OH237633   2.167   1.181   2.934
12563TIP3    H137634   2.252   1.173   2.978
12563TIP3    H237635   2.166   1.108   2.872
12564TIP3   OH237636   4.888   7.700   6.488
12564TIP3    H137637   4.977   7.668   6.473
12564TIP3    H237638   4.892   7.745   6.572
12565TIP3   OH237639   0.933   1.017  -0.043
12565TIP3    H137640   0.959   0.939   0.006
12565TIP3    H237641   0.868   1.061   0.013
12566TIP3   OH237642   1.616   3.416   2.470
12566TIP3    H137643   1.646   3.359   2.541
12566TIP3    H237644   1.532   3.449   2.500
12567TIP3   OH237645   0.788   4.589   5.866
12567TIP3    H137646   0.792   4.613   5.959
12567TIP3    H237647   0.728   4.515   5.862
12568TIP3   OH237648   3.085   0.466   6.188
12568TIP3    H137649   3.066   0.483   6.280
12568TIP3    H237650   3.001   0.473   6.144
12569TIP3   OH237651   3.182   2.507   4.598
12569TIP3    H137652   3.091   2.528   4.616
12569TIP3    H237653   3.221   2.491   4.685
12570TIP3   OH237654   7.505   0.908   2.534
12570TIP3    H137655   7.441   0.855   2.582
12570TIP3    H237656   7.487   0.998   2.561
12571TIP3   OH237657   5.673   6.145   4.668
12571TIP3    H137658   5.639   6.058   4.687
12571TIP3    H237659   5.756   6.129   4.623
12572TIP3   OH237660   0.425   1.240   5.892
12572TIP3    H137661   0.509   1.196   5.882
12572TIP3    H237662   0.403   1.271   5.804
12573TIP3   OH237663   0.888   1.537   1.966
12573TIP3    H137664   0.862   1.505   1.880
12573TIP3    H237665   0.983   1.523   1.969
12574TIP3   OH237666   6.490   3.005   4.637
12574TIP3    H137667   6.432   3.043   4.703
12574TIP3    H237668   6.459   2.915   4.627
12575TIP3   OH237669   2.872   7.649   1.005
12575TIP3    H137670   2.793   7.702   0.996
12575TIP3    H237671   2.841   7.565   1.038
12576TIP3   OH237672   6.249   4.461   1.466
12576TIP3    H137673   6.268   4.494   1.378
12576TIP3    H237674   6.191   4.386   1.451
12577TIP3   OH237675   2.313   6.650   1.701
12577TIP3    H137676   2.265   6.710   1.643
12577TIP3    H237677   2.294   6.683   1.789
12578TIP3   OH237678   4.894   4.131   4.591
12578TIP3    H137679   4.874   4.070   4.519
12578TIP3    H237680   4.939   4.203   4.548
12579TIP3   OH237681   5.771   6.077   4.162
12579TIP3    H137682   5.862   6.061   4.185
12579TIP3    H237683   5.724   6.000   4.194
12580TIP3   OH237684   6.907   5.844   1.760
12580TIP3    H137685   6.981   5.903   1.775
12580TIP3    H237686   6.910   5.826   1.666
12581TIP3   OH237687   7.505   6.665   6.299
12581TIP3    H137688   7.455   6.611   6.238
12581TIP3    H237689   7.596   6.641   6.282
12582TIP3   OH237690   4.261   1.932   5.687
12582TIP3    H137691   4.341   1.915   5.736
12582TIP3    H237692   4.191   1.911   5.748
12583TIP3   OH237693   2.919   3.543   2.043
12583TIP3    H137694   2.848   3.479   2.046
12583TIP3    H237695   2.904   3.593   1.963
12584TIP3   OH237696   1.922   0.914   2.911
12584TIP3    H137697   1.902   0.827   2.874
12584TIP3    H237698   1.943   0.968   2.834
12585TIP3   OH237699   0.762   5.755   1.096
12585TIP3    H137700   0.753   5.777   1.189
12585TIP3    H237701   0.692   5.692   1.079
12586TIP3   OH237702   5.074   1.276   4.607
12586TIP3    H137703   5.048   1.192   4.569
12586TIP3    H237704   5.150   1.303   4.555
12587TIP3   OH237705   2.747   5.078   4.876
12587TIP3    H137706   2.673   5.023   4.849
12587TIP3    H237707   2.805   5.018   4.923
12588TIP3   OH237708   3.722   7.293   3.735
12588TIP3    H137709   3.699   7.243   3.657
12588TIP3    H237710   3.723   7.385   3.706
12589TIP3   OH237711   7.205   2.292   4.665
12589TIP3    H137712   7.153   2.373   4.661
12589TIP3    H237713   7.262   2.296   4.588
12590TIP3   OH237714   7.796   2.774   6.268
12590TIP3    H137715   7.782   2.863   6.298
12590TIP3    H237716   7.711   2.745   6.235
12591TIP3   OH237717   7.977   2.881   1.403
12591TIP3    H137718   7.904   2.846   1.454
12591TIP3    H237719   7.993   2.967   1.441
12592TIP3   OH237720   4.991   1.891   3.599
12592TIP3    H137721   4.933   1.863   3.528
12592TIP3    H237722   5.069   1.837   3.589
12593TIP3   OH237723   0.398   0.875   4.807
12593TIP3    H137724   0.322   0.834   4.767
12593TIP3    H237725   0.392   0.967   4.781
12594TIP3   OH237726   1.190   5.044   6.281
12594TIP3    H137727   1.223   5.117   6.228
12594TIP3    H237728   1.185   5.080   6.369
12595TIP3   OH237729   5.468   6.589   6.539
12595TIP3    H137730   5.444   6.555   6.454
12595TIP3    H237731   5.400   6.557   6.599
12596TIP3   OH237732   0.618   2.336   3.429
12596TIP3    H137733   0.567   2.408   3.465
12596TIP3    H237734   0.596   2.336   3.335
12597TIP3   OH237735   7.645   5.261   6.691
12597TIP3    H137736   7.554   5.282   6.713
12597TIP3    H237737   7.641   5.174   6.652
12598TIP3   OH237738   4.148   7.074   5.407
12598TIP3    H137739   4.073   7.109   5.454
12598TIP3    H237740   4.141   6.979   5.417
12599TIP3   OH237741   7.050   6.589   4.916
12599TIP3    H137742   6.979   6.579   4.853
12599TIP3    H237743   7.066   6.501   4.949
12600TIP3   OH237744   5.554   2.961   1.817
12600TIP3    H137745   5.584   3.042   1.859
12600TIP3    H237746   5.622   2.897   1.836
12601TIP3   OH237747   4.558   3.027   5.098
12601TIP3    H137748   4.516   2.947   5.065
12601TIP3    H237749   4.489   3.093   5.098
12602TIP3   OH237750   1.850   3.352   1.920
12602TIP3    H137751   1.848   3.265   1.878
12602TIP3    H237752   1.914   3.342   1.991
12603TIP3   OH237753   4.048   2.360   2.901
12603TIP3    H137754   4.099   2.414   2.961
12603TIP3    H237755   4.059   2.401   2.816
12604TIP3   OH237756   0.717   3.254   1.910
12604TIP3    H137757   0.738   3.171   1.866
12604TIP3    H237758   0.802   3.290   1.934
12605TIP3   OH237759   3.408   6.022   4.854
12605TIP3    H137760   3.462   6.027   4.933
12605TIP3    H237761   3.468   5.990   4.786
12606TIP3   OH237762   3.923   3.593   3.709
12606TIP3    H137763   3.909   3.500   3.725
12606TIP3    H237764   3.876   3.637   3.780
12607TIP3   OH237765   1.166   4.950   6.727
12607TIP3    H137766   1.200   4.972   6.641
12607TIP3    H237767   1.117   5.027   6.755
12608TIP3   OH237768   0.531   7.659   2.291
12608TIP3    H137769   0.457   7.600   2.306
12608TIP3    H237770   0.584   7.615   2.224
12609TIP3   OH237771   3.756   2.808   4.397
12609TIP3    H137772   3.767   2.786   4.305
12609TIP3    H237773   3.819   2.878   4.413
12610TIP3   OH237774   6.213   6.148   5.635
12610TIP3    H137775   6.292   6.169   5.585
12610TIP3    H237776   6.151   6.117   5.570
12611TIP3   OH237777   4.984   7.255   6.005
12611TIP3    H137778   5.024   7.308   5.936
12611TIP3    H237779   5.032   7.172   6.003
12612TIP3   OH237780   1.551   6.170   6.003
12612TIP3    H137781   1.592   6.130   5.926
12612TIP3    H237782   1.469   6.122   6.014
12613TIP3   OH237783   4.473   7.009   4.120
12613TIP3    H137784   4.462   6.917   4.144
12613TIP3    H237785   4.396   7.028   4.065
12614TIP3   OH237786   6.398   6.912   0.733
12614TIP3    H137787   6.479   6.916   0.785
12614TIP3    H237788   6.412   6.976   0.663
12615TIP3   OH237789   2.812   6.631   5.408
12615TIP3    H137790   2.810   6.625   5.503
12615TIP3    H237791   2.841   6.721   5.390
12616TIP3   OH237792   8.205   5.467   1.698
12616TIP3    H137793   8.234   5.518   1.622
12616TIP3    H237794   8.167   5.387   1.660
12617TIP3   OH237795   1.364   3.177   1.809
12617TIP3    H137796   1.377   3.158   1.716
12617TIP3    H237797   1.377   3.092   1.852
12618TIP3   OH237798   4.226   2.658   6.623
12618TIP3    H137799   4.285   2.692   6.556
12618TIP3    H237800   4.186   2.581   6.584
12619TIP3   OH237801   5.447   7.461   5.963
12619TIP3    H137802   5.539   7.484   5.959
12619TIP3    H237803   5.413   7.511   6.038
12620TIP3   OH237804   5.746   4.533   2.249
12620TIP3    H137805   5.812   4.593   2.213
12620TIP3    H237806   5.791   4.490   2.322
12621TIP3   OH237807   3.005   1.873   1.129
12621TIP3    H137808   2.966   1.910   1.051
12621TIP3    H237809   2.968   1.785   1.136
12622TIP3   OH237810   1.878   5.213   2.064
12622TIP3    H137811   1.896   5.118   2.066
12622TIP3    H237812   1.961   5.253   2.090
12623TIP3   OH237813   2.624   7.642   4.468
12623TIP3    H137814   2.684   7.591   4.521
12623TIP3    H237815   2.601   7.584   4.395
12624TIP3   OH237816   7.782   3.613   5.455
12624TIP3    H137817   7.773   3.525   5.493
12624TIP3    H237818   7.813   3.598   5.366
12625TIP3   OH237819   4.161   4.155   6.724
12625TIP3    H137820   4.188   4.077   6.773
12625TIP3    H237821   4.216   4.225   6.759
12626TIP3   OH237822   2.769   5.103   6.471
12626TIP3    H137823   2.780   5.198   6.474
12626TIP3    H237824   2.763   5.077   6.563
12627TIP3   OH237825   7.067   4.094   3.732
12627TIP3    H137826   7.078   4.073   3.824
12627TIP3    H237827   7.080   4.189   3.727
12628TIP3   OH237828   6.550   7.324   3.580
12628TIP3    H137829   6.627   7.272   3.559
12628TIP3    H237830   6.544   7.389   3.510
12629TIP3   OH237831   1.523   3.262   0.370
12629TIP3    H137832   1.598   3.208   0.396
12629TIP3    H237833   1.561   3.348   0.354
12630TIP3   OH237834   0.135   1.805   6.399
12630TIP3    H137835   0.179   1.721   6.406
12630TIP3    H237836   0.142   1.828   6.306
12631TIP3   OH237837   1.224   4.065   1.530
12631TIP3    H137838   1.312   4.039   1.559
12631TIP3    H237839   1.239   4.143   1.476
12632TIP3   OH237840   3.023   3.998   4.269
12632TIP3    H137841   2.971   4.077   4.278
12632TIP3    H237842   3.103   4.027   4.225
12633TIP3   OH237843   6.978   3.930   6.094
12633TIP3    H137844   6.971   4.017   6.133
12633TIP3    H237845   7.059   3.894   6.132
12634TIP3   OH237846   6.854   6.668   6.621
12634TIP3    H137847   6.823   6.708   6.539
12634TIP3    H237848   6.778   6.666   6.678
12635TIP3   OH237849   3.304   1.130   1.656
12635TIP3    H137850   3.390   1.170   1.663
12635TIP3    H237851   3.263   1.148   1.741
12636TIP3   OH237852   5.869   3.923   2.828
12636TIP3    H137853   5.889   3.835   2.796
12636TIP3    H237854   5.870   3.978   2.749
12637TIP3   OH237855   5.293   6.501   0.610
12637TIP3    H137856   5.225   6.558   0.574
12637TIP3    H237857   5.252   6.415   0.617
12638TIP3   OH237858   8.064   0.242   2.537
12638TIP3    H137859   8.107   0.255   2.452
12638TIP3    H237860   8.112   0.169   2.576
12639TIP3   OH237861   4.120   0.027   2.042
12639TIP3    H137862   4.203   0.074   2.032
12639TIP3    H237863   4.056   0.081   1.996
12640TIP3   OH237864   4.678   3.417   3.690
12640TIP3    H137865   4.606   3.355   3.702
12640TIP3    H237866   4.757   3.362   3.691
12641TIP3   OH237867   0.979   3.725   6.127
12641TIP3    H137868   0.892   3.763   6.143
12641TIP3    H237869   1.012   3.772   6.051
12642TIP3   OH237870   2.879   1.098   1.457
12642TIP3    H137871   2.911   1.182   1.492
12642TIP3    H237872   2.955   1.040   1.460
12643TIP3   OH237873   6.850   4.149   0.087
12643TIP3    H137874   6.894   4.107   0.013
12643TIP3    H237875   6.768   4.183   0.050
12644TIP3   OH237876   0.532   1.670   0.679
12644TIP3    H137877   0.491   1.652   0.594
12644TIP3    H237878   0.495   1.754   0.706
12645TIP3   OH237879   7.795   1.812   2.588
12645TIP3    H137880   7.831   1.730   2.555
12645TIP3    H237881   7.857   1.879   2.559
12646TIP3   OH237882   0.888   7.797   6.524
12646TIP3    H137883   0.856   7.707   6.516
12646TIP3    H237884   0.850   7.842   6.449
12647TIP3   OH237885   3.887   5.177   6.681
12647TIP3    H137886   3.900   5.085   6.705
12647TIP3    H237887   3.935   5.187   6.599
12648TIP3   OH237888   1.678   5.066   1.567
12648TIP3    H137889   1.688   4.994   1.628
12648TIP3    H237890   1.754   5.122   1.583
12649TIP3   OH237891   7.497   0.669   2.105
12649TIP3    H137892   7.451   0.751   2.086
12649TIP3    H237893   7.542   0.648   2.023
12650TIP3   OH237894   6.316   1.975   3.027
12650TIP3    H137895   6.225   1.951   3.010
12650TIP3    H237896   6.367   1.924   2.964
12651TIP3   OH237897   1.952   2.822   3.962
12651TIP3    H137898   2.030   2.786   4.004
12651TIP3    H237899   1.933   2.902   4.011
12652TIP3   OH237900   3.264   5.353   6.681
12652TIP3    H137901   3.327   5.401   6.628
12652TIP3    H237902   3.283   5.380   6.771
12653TIP3   OH237903   0.172   6.654   6.240
12653TIP3    H137904   0.086   6.638   6.200
12653TIP3    H237905   0.174   6.749   6.254
12654TIP3   OH237906   4.360   7.458   1.793
12654TIP3    H137907   4.276   7.431   1.830
12654TIP3    H237908   4.419   7.463   1.868
12655TIP3   OH237909   2.069   1.408   0.225
12655TIP3    H137910   2.017   1.449   0.294
12655TIP3    H237911   2.130   1.477   0.196
12656TIP3   OH237912   1.281   6.385   4.290
12656TIP3    H137913   1.235   6.340   4.360
12656TIP3    H237914   1.346   6.322   4.258
12657TIP3   OH237915   6.286   6.578   0.464
12657TIP3    H137916   6.362   6.591   0.407
12657TIP3    H237917   6.245   6.664   0.469
12658TIP3   OH237918   2.918   4.791   0.544
12658TIP3    H137919   2.932   4.865   0.602
12658TIP3    H237920   2.937   4.826   0.456
12659TIP3   OH237921   2.006   0.261   1.344
12659TIP3    H137922   2.051   0.324   1.288
12659TIP3    H237923   1.955   0.315   1.405
12660TIP3   OH237924   5.519   2.070   1.015
12660TIP3    H137925   5.552   2.077   1.104
12660TIP3    H237926   5.579   2.009   0.972
12661TIP3   OH237927   8.067   5.043   2.558
12661TIP3    H137928   8.008   5.115   2.534
12661TIP3    H237929   8.137   5.085   2.609
12662TIP3   OH237930   4.112   2.428   6.555
12662TIP3    H137931   4.106   2.358   6.490
12662TIP3    H237932   4.048   2.406   6.622
12663TIP3   OH237933   7.229   1.299   4.510
12663TIP3    H137934   7.136   1.307   4.488
12663TIP3    H237935   7.271   1.274   4.428
12664TIP3   OH237936   1.328   3.598   3.726
12664TIP3    H137937   1.344   3.617   3.634
12664TIP3    H237938   1.415   3.600   3.766
12665TIP3   OH237939   3.197   0.264   4.446
12665TIP3    H137940   3.235   0.178   4.461
12665TIP3    H237941   3.177   0.297   4.533
12666TIP3   OH237942   7.358   1.851   1.445
12666TIP3    H137943   7.393   1.835   1.533
12666TIP3    H237944   7.263   1.851   1.457
12667TIP3   OH237945   1.860   6.153   4.438
12667TIP3    H137946   1.887   6.068   4.472
12667TIP3    H237947   1.764   6.151   4.442
12668TIP3   OH237948   4.424   7.336   5.729
12668TIP3    H137949   4.346   7.333   5.673
12668TIP3    H237950   4.480   7.267   5.694
12669TIP3   OH237951   6.214   0.204   4.646
12669TIP3    H137952   6.235   0.128   4.700
12669TIP3    H237953   6.298   0.248   4.634
12670TIP3   OH237954   3.320   6.764   3.686
12670TIP3    H137955   3.242   6.749   3.633
12670TIP3    H237956   3.358   6.845   3.651
12671TIP3   OH237957   1.206   1.648   3.318
12671TIP3    H137958   1.191   1.635   3.412
12671TIP3    H237959   1.183   1.740   3.303
12672TIP3   OH237960   4.774   7.493   6.063
12672TIP3    H137961   4.866   7.498   6.090
12672TIP3    H237962   4.731   7.565   6.108
12673TIP3   OH237963   7.117   5.195   1.508
12673TIP3    H137964   7.022   5.181   1.508
12673TIP3    H237965   7.127   5.290   1.501
12674TIP3   OH237966   5.446   6.009   1.659
12674TIP3    H137967   5.414   6.086   1.707
12674TIP3    H237968   5.539   6.006   1.678
12675TIP3   OH237969   4.215   1.968   0.737
12675TIP3    H137970   4.271   1.900   0.700
12675TIP3    H237971   4.131   1.924   0.752
12676TIP3   OH237972   5.215   6.421   0.215
12676TIP3    H137973   5.264   6.389   0.291
12676TIP3    H237974   5.128   6.383   0.225
12677TIP3   OH237975   1.859   5.201   3.928
12677TIP3    H137976   1.799   5.155   3.870
12677TIP3    H237977   1.907   5.132   3.974
12678TIP3   OH237978   5.519   1.033   4.091
12678TIP3    H137979   5.556   1.108   4.045
12678TIP3    H237980   5.468   0.986   4.025
12679TIP3   OH237981   1.979   6.666   5.239
12679TIP3    H137982   1.921   6.692   5.311
12679TIP3    H237983   2.055   6.724   5.248
12680TIP3   OH237984   1.521   6.347   1.127
12680TIP3    H137985   1.527   6.260   1.167
12680TIP3    H237986   1.458   6.394   1.182
12681TIP3   OH237987   2.148   2.650   3.161
12681TIP3    H137988   2.191   2.733   3.142
12681TIP3    H237989   2.104   2.664   3.245
12682TIP3   OH237990   6.399   1.318   0.327
12682TIP3    H137991   6.494   1.318   0.340
12682TIP3    H237992   6.380   1.403   0.288
12683TIP3   OH237993   1.243   6.404   1.830
12683TIP3    H137994   1.269   6.435   1.917
12683TIP3    H237995   1.155   6.440   1.818
12684TIP3   OH237996   2.454   5.925   2.553
12684TIP3    H137997   2.439   6.005   2.604
12684TIP3    H237998   2.549   5.917   2.550
12685TIP3   OH237999   7.364   0.721   4.738
12685TIP3    H138000   7.326   0.675   4.813
12685TIP3    H238001   7.414   0.793   4.777
12686TIP3   OH238002   2.884   1.743   5.341
12686TIP3    H138003   2.859   1.715   5.428
12686TIP3    H238004   2.930   1.668   5.303
12687TIP3   OH238005   6.557   4.319   1.709
12687TIP3    H138006   6.511   4.388   1.661
12687TIP3    H238007   6.502   4.302   1.786
12688TIP3   OH238008   6.870   3.795   2.340
12688TIP3    H138009   6.908   3.710   2.318
12688TIP3    H238010   6.900   3.853   2.270
12689TIP3   OH238011   3.991   0.603   3.328
12689TIP3    H138012   3.903   0.640   3.319
12689TIP3    H238013   3.977   0.510   3.345
12690TIP3   OH238014   5.388   4.301   0.526
12690TIP3    H138015   5.349   4.388   0.526
12690TIP3    H238016   5.322   4.245   0.486
12691TIP3   OH238017   4.437   7.641   2.343
12691TIP3    H138018   4.351   7.640   2.384
12691TIP3    H238019   4.446   7.730   2.309
12692TIP3   OH238020   7.348   2.493   5.794
12692TIP3    H138021   7.419   2.432   5.776
12692TIP3    H238022   7.350   2.555   5.722
12693TIP3   OH238023   6.689   4.586   4.373
12693TIP3    H138024   6.756   4.621   4.313
12693TIP3    H238025   6.731   4.588   4.459
12694TIP3   OH238026   2.184   3.246   1.994
12694TIP3    H138027   2.205   3.185   1.923
12694TIP3    H238028   2.110   3.206   2.039
12695TIP3   OH238029   6.208   4.312   2.890
12695TIP3    H138030   6.129   4.265   2.915
12695TIP3    H238031   6.273   4.244   2.874
12696TIP3   OH238032   4.735   3.546   0.733
12696TIP3    H138033   4.828   3.560   0.717
12696TIP3    H238034   4.719   3.456   0.704
12697TIP3   OH238035   7.213   1.197   5.676
12697TIP3    H138036   7.201   1.288   5.650
12697TIP3    H238037   7.213   1.148   5.593
12698TIP3   OH238038   5.353   6.540   0.889
12698TIP3    H138039   5.335   6.535   0.795
12698TIP3    H238040   5.279   6.494   0.929
12699TIP3   OH238041   7.177   1.912   3.422
12699TIP3    H138042   7.125   1.840   3.384
12699TIP3    H238043   7.267   1.881   3.417
12700TIP3   OH238044   7.939   3.221   1.101
12700TIP3    H138045   7.944   3.144   1.156
12700TIP3    H238046   7.977   3.291   1.153
12701TIP3   OH238047   8.165   6.888   1.077
12701TIP3    H138048   8.077   6.866   1.045
12701TIP3    H238049   8.150   6.928   1.162
12702TIP3   OH238050   1.380   6.419   5.204
12702TIP3    H138051   1.433   6.497   5.189
12702TIP3    H238052   1.304   6.451   5.254
12703TIP3   OH238053   1.391   3.711   6.023
12703TIP3    H138054   1.420   3.791   6.066
12703TIP3    H238055   1.367   3.739   5.934
12704TIP3   OH238056   6.151   1.070   2.564
12704TIP3    H138057   6.079   1.067   2.501
12704TIP3    H238058   6.197   1.152   2.544
12705TIP3   OH238059   0.911   2.150   3.244
12705TIP3    H138060   0.997   2.149   3.203
12705TIP3    H238061   0.914   2.222   3.307
12706TIP3   OH238062   7.058   0.535   1.566
12706TIP3    H138063   7.139   0.487   1.551
12706TIP3    H238064   7.007   0.479   1.625
12707TIP3   OH238065   6.420   0.270   3.778
12707TIP3    H138066   6.497   0.243   3.728
12707TIP3    H238067   6.454   0.305   3.860
12708TIP3   OH238068   7.679   6.227   0.186
12708TIP3    H138069   7.664   6.133   0.178
12708TIP3    H238070   7.733   6.236   0.265
12709TIP3   OH238071   2.843   6.639   4.835
12709TIP3    H138072   2.802   6.635   4.749
12709TIP3    H238073   2.814   6.559   4.878
12710TIP3   OH238074   4.862   5.166   1.818
12710TIP3    H138075   4.791   5.129   1.766
12710TIP3    H238076   4.895   5.093   1.869
12711TIP3   OH238077   3.255   5.522   5.878
12711TIP3    H138078   3.214   5.600   5.841
12711TIP3    H238079   3.194   5.494   5.946
12712TIP3   OH238080   1.412   1.388   5.489
12712TIP3    H138081   1.417   1.327   5.415
12712TIP3    H238082   1.467   1.462   5.464
12713TIP3   OH238083   7.872   5.311   1.178
12713TIP3    H138084   7.782   5.327   1.147
12713TIP3    H238085   7.869   5.222   1.213
12714TIP3   OH238086   8.166   3.119   1.281
12714TIP3    H138087   8.203   3.032   1.270
12714TIP3    H238088   8.156   3.130   1.376
12715TIP3   OH238089   4.375   3.183   2.062
12715TIP3    H138090   4.428   3.153   2.137
12715TIP3    H238091   4.411   3.135   1.987
12716TIP3   OH238092   2.847   4.551   1.288
12716TIP3    H138093   2.776   4.503   1.244
12716TIP3    H238094   2.818   4.642   1.287
12717TIP3   OH238095   2.301   0.374   0.110
12717TIP3    H138096   2.373   0.392   0.049
12717TIP3    H238097   2.222   0.393   0.060
12718TIP3   OH238098   3.696   3.305   3.731
12718TIP3    H138099   3.654   3.267   3.654
12718TIP3    H238100   3.790   3.293   3.717
12719TIP3   OH238101   1.135   6.911   2.383
12719TIP3    H138102   1.155   6.955   2.300
12719TIP3    H238103   1.205   6.846   2.394
12720TIP3   OH238104   1.847   2.601   0.747
12720TIP3    H138105   1.794   2.582   0.825
12720TIP3    H238106   1.810   2.544   0.680
12721TIP3   OH238107   4.510   5.316   3.970
12721TIP3    H138108   4.515   5.248   3.902
12721TIP3    H238109   4.416   5.330   3.983
12722TIP3   OH238110   2.028   6.541   3.730
12722TIP3    H138111   2.045   6.505   3.817
12722TIP3    H238112   1.954   6.601   3.742
12723TIP3   OH238113   2.699   4.059   6.522
12723TIP3    H138114   2.785   4.018   6.517
12723TIP3    H238115   2.651   4.027   6.446
12724TIP3   OH238116   0.301   3.620   2.196
12724TIP3    H138117   0.228   3.588   2.143
12724TIP3    H238118   0.345   3.684   2.140
12725TIP3   OH238119   2.190   2.668   4.568
12725TIP3    H138120   2.269   2.720   4.576
12725TIP3    H238121   2.131   2.722   4.516
12726TIP3   OH238122   4.947   6.135   5.768
12726TIP3    H138123   4.986   6.051   5.744
12726TIP3    H238124   5.019   6.186   5.805
12727TIP3   OH238125   0.518   5.159   4.335
12727TIP3    H138126   0.562   5.214   4.269
12727TIP3    H238127   0.536   5.204   4.418
12728TIP3   OH238128   5.757   0.118   6.761
12728TIP3    H138129   5.733   0.211   6.764
12728TIP3    H238130   5.696   0.075   6.820
12729TIP3   OH238131   2.725   4.286   3.674
12729TIP3    H138132   2.781   4.345   3.623
12729TIP3    H238133   2.647   4.274   3.620
12730TIP3   OH238134   6.618   4.777   3.979
12730TIP3    H138135   6.575   4.692   3.986
12730TIP3    H238136   6.709   4.760   4.004
12731TIP3   OH238137   1.687   0.209   6.614
12731TIP3    H138138   1.594   0.197   6.635
12731TIP3    H238139   1.698   0.304   6.609
12732TIP3   OH238140   0.226   1.565   6.630
12732TIP3    H138141   0.246   1.514   6.551
12732TIP3    H238142   0.165   1.510   6.679
12733TIP3   OH238143   6.103   0.205   4.162
12733TIP3    H138144   6.131   0.144   4.093
12733TIP3    H238145   6.096   0.151   4.240
12734TIP3   OH238146   5.465   0.466   1.265
12734TIP3    H138147   5.406   0.500   1.198
12734TIP3    H238148   5.524   0.538   1.284
12735TIP3   OH238149   3.623   7.124   1.391
12735TIP3    H138150   3.550   7.112   1.331
12735TIP3    H238151   3.662   7.037   1.399
12736TIP3   OH238152   1.136   3.691   0.729
12736TIP3    H138153   1.117   3.706   0.636
12736TIP3    H238154   1.059   3.645   0.762
12737TIP3   OH238155   6.698   3.033   5.654
12737TIP3    H138156   6.774   3.086   5.677
12737TIP3    H238157   6.630   3.097   5.632
12738TIP3   OH238158   7.612   7.781   6.651
12738TIP3    H138159   7.558   7.821   6.582
12738TIP3    H238160   7.563   7.796   6.731
12739TIP3   OH238161   5.747   2.997   5.915
12739TIP3    H138162   5.802   2.949   5.853
12739TIP3    H238163   5.799   3.073   5.940
12740TIP3   OH238164   0.658   1.855   5.995
12740TIP3    H138165   0.597   1.856   6.069
12740TIP3    H238166   0.707   1.937   6.003
12741TIP3   OH238167   2.203   1.387   0.585
12741TIP3    H138168   2.135   1.330   0.550
12741TIP3    H238169   2.165   1.423   0.665
12742TIP3   OH238170   6.420   2.115   2.206
12742TIP3    H138171   6.477   2.163   2.146
12742TIP3    H238172   6.331   2.138   2.179
12743TIP3   OH238173   8.121   0.888   1.796
12743TIP3    H138174   8.175   0.841   1.733
12743TIP3    H238175   8.051   0.926   1.744
12744TIP3   OH238176   8.138   1.899   4.095
12744TIP3    H138177   8.087   1.973   4.126
12744TIP3    H238178   8.225   1.913   4.131
12745TIP3   OH238179   2.560   1.940   6.502
12745TIP3    H138180   2.528   1.923   6.590
12745TIP3    H238181   2.577   2.034   6.500
12746TIP3   OH238182   3.731   5.735   0.180
12746TIP3    H138183   3.793   5.669   0.148
12746TIP3    H238184   3.647   5.706   0.146
12747TIP3   OH238185   3.988   4.915   2.788
12747TIP3    H138186   4.011   4.969   2.863
12747TIP3    H238187   3.892   4.912   2.790
12748TIP3   OH238188   6.535   5.912   5.629
12748TIP3    H138189   6.486   5.926   5.548
12748TIP3    H238190   6.571   5.998   5.651
12749TIP3   OH238191   3.236   5.038   0.711
12749TIP3    H138192   3.239   4.987   0.792
12749TIP3    H238193   3.309   5.100   0.719
12750TIP3   OH238194   6.853   3.537   3.487
12750TIP3    H138195   6.940   3.510   3.519
12750TIP3    H238196   6.868   3.622   3.445
12751TIP3   OH238197   2.355   6.783   4.968
12751TIP3    H138198   2.311   6.698   4.967
12751TIP3    H238199   2.447   6.762   4.956
12752TIP3   OH238200   6.391   7.663   4.178
12752TIP3    H138201   6.429   7.655   4.090
12752TIP3    H238202   6.354   7.752   4.180
12753TIP3   OH238203   7.171   3.125   4.783
12753TIP3    H138204   7.094   3.123   4.726
12753TIP3    H238205   7.244   3.142   4.724
12754TIP3   OH238206   5.093   1.981   2.302
12754TIP3    H138207   5.182   2.005   2.275
12754TIP3    H238208   5.043   2.062   2.292
12755TIP3   OH238209   7.844   6.428   6.616
12755TIP3    H138210   7.782   6.380   6.671
12755TIP3    H238211   7.810   6.517   6.613
12756TIP3   OH238212   6.085   2.191   4.287
12756TIP3    H138213   6.012   2.137   4.257
12756TIP3    H238214   6.163   2.137   4.273
12757TIP3   OH238215   7.759   3.020   3.282
12757TIP3    H138216   7.691   2.998   3.346
12757TIP3    H238217   7.745   3.113   3.263
12758TIP3   OH238218   2.275   1.834   0.742
12758TIP3    H138219   2.181   1.836   0.720
12758TIP3    H238220   2.307   1.921   0.716
12759TIP3   OH238221   8.225   6.863   5.723
12759TIP3    H138222   8.307   6.903   5.750
12759TIP3    H238223   8.169   6.871   5.800
12760TIP3   OH238224   2.943   4.146   0.831
12760TIP3    H138225   3.001   4.130   0.757
12760TIP3    H238226   2.907   4.233   0.815
12761TIP3   OH238227   5.318   5.812   5.479
12761TIP3    H138228   5.342   5.854   5.562
12761TIP3    H238229   5.311   5.885   5.417
12762TIP3   OH238230   5.169   4.080   3.402
12762TIP3    H138231   5.202   4.119   3.483
12762TIP3    H238232   5.150   4.155   3.345
12763TIP3   OH238233   4.862   1.826   5.357
12763TIP3    H138234   4.805   1.899   5.334
12763TIP3    H238235   4.917   1.813   5.279
12764TIP3   OH238236   4.914   0.174   0.192
12764TIP3    H138237   4.921   0.181   0.287
12764TIP3    H238238   4.894   0.082   0.176
12765TIP3   OH238239   5.787   0.652   4.102
12765TIP3    H138240   5.872   0.618   4.077
12765TIP3    H238241   5.785   0.644   4.198
12766TIP3   OH238242   2.175   3.986   6.407
12766TIP3    H138243   2.139   3.975   6.319
12766TIP3    H238244   2.098   3.989   6.464
12767TIP3   OH238245   0.640   7.724   5.408
12767TIP3    H138246   0.565   7.674   5.442
12767TIP3    H238247   0.636   7.808   5.454
12768TIP3   OH238248   0.354   3.666   2.975
12768TIP3    H138249   0.361   3.749   3.023
12768TIP3    H238250   0.260   3.653   2.963
12769TIP3   OH238251   7.059   6.007   3.892
12769TIP3    H138252   7.072   5.992   3.798
12769TIP3    H238253   6.965   6.022   3.901
12770TIP3   OH238254   2.644   5.577   1.911
12770TIP3    H138255   2.673   5.543   1.826
12770TIP3    H238256   2.573   5.518   1.937
12771TIP3   OH238257   5.179   1.685   5.685
12771TIP3    H138258   5.216   1.773   5.683
12771TIP3    H238259   5.143   1.675   5.773
12772TIP3   OH238260   6.416   1.482   3.621
12772TIP3    H138261   6.500   1.493   3.578
12772TIP3    H238262   6.395   1.389   3.610
12773TIP3   OH238263   7.049   2.439   1.834
12773TIP3    H138264   7.017   2.410   1.749
12773TIP3    H238265   6.981   2.412   1.896
12774TIP3   OH238266   5.971   7.454   6.594
12774TIP3    H138267   5.972   7.411   6.509
12774TIP3    H238268   5.992   7.384   6.656
12775TIP3   OH238269   3.076   4.666   3.296
12775TIP3    H138270   3.000   4.647   3.351
12775TIP3    H238271   3.059   4.619   3.214
12776TIP3   OH238272   5.492   5.718   2.796
12776TIP3    H138273   5.511   5.778   2.868
12776TIP3    H238274   5.400   5.734   2.775
12777TIP3   OH238275   7.189   5.074   6.101
12777TIP3    H138276   7.257   5.055   6.165
12777TIP3    H238277   7.225   5.146   6.049
12778TIP3   OH238278   2.191   2.667   1.691
12778TIP3    H138279   2.195   2.571   1.687
12778TIP3    H238280   2.101   2.686   1.719
12779TIP3   OH238281   2.408   6.788   5.334
12779TIP3    H138282   2.465   6.738   5.393
12779TIP3    H238283   2.394   6.730   5.259
12780TIP3   OH238284   7.375   3.631   5.752
12780TIP3    H138285   7.391   3.555   5.809
12780TIP3    H238286   7.340   3.593   5.671
12781TIP3   OH238287   0.301   3.138   0.198
12781TIP3    H138288   0.384   3.166   0.237
12781TIP3    H238289   0.323   3.120   0.106
12782TIP3   OH238290   2.336   2.508   4.322
12782TIP3    H138291   2.339   2.573   4.393
12782TIP3    H238292   2.299   2.430   4.363
12783TIP3   OH238293   4.859   0.239   4.400
12783TIP3    H138294   4.871   0.151   4.364
12783TIP3    H238295   4.871   0.228   4.494
12784TIP3   OH238296   6.206   1.192   1.720
12784TIP3    H138297   6.139   1.260   1.724
12784TIP3    H238298   6.280   1.234   1.676
12785TIP3   OH238299   2.756   5.776   3.680
12785TIP3    H138300   2.741   5.757   3.772
12785TIP3    H238301   2.818   5.709   3.651
12786TIP3   OH238302   1.766   2.429   0.551
12786TIP3    H138303   1.799   2.441   0.462
12786TIP3    H238304   1.689   2.374   0.541
12787TIP3   OH238305   7.097   3.153   3.409
12787TIP3    H138306   7.134   3.195   3.331
12787TIP3    H238307   7.103   3.059   3.390
12788TIP3   OH238308   8.008   5.596   5.061
12788TIP3    H138309   7.930   5.608   5.007
12788TIP3    H238310   8.072   5.656   5.023
12789TIP3   OH238311   6.246   1.193   5.436
12789TIP3    H138312   6.319   1.198   5.498
12789TIP3    H238313   6.256   1.107   5.394
12790TIP3   OH238314   1.010   1.840   5.701
12790TIP3    H138315   1.017   1.871   5.611
12790TIP3    H238316   0.999   1.920   5.753
12791TIP3   OH238317   4.756   2.029   5.800
12791TIP3    H138318   4.758   1.946   5.751
12791TIP3    H238319   4.693   2.013   5.870
12792TIP3   OH238320   3.191   5.656   2.394
12792TIP3    H138321   3.148   5.572   2.374
12792TIP3    H238322   3.119   5.717   2.410
12793TIP3   OH238323   4.980   6.408   3.427
12793TIP3    H138324   4.919   6.346   3.468
12793TIP3    H238325   4.993   6.476   3.494
12794TIP3   OH238326   6.422   2.401   5.638
12794TIP3    H138327   6.438   2.307   5.625
12794TIP3    H238328   6.328   2.408   5.650
12795TIP3   OH238329   7.227   0.932   0.877
12795TIP3    H138330   7.146   0.893   0.910
12795TIP3    H238331   7.205   0.959   0.787
12796TIP3   OH238332   6.542   1.358   2.499
12796TIP3    H138333   6.620   1.392   2.542
12796TIP3    H238334   6.495   1.436   2.470
12797TIP3   OH238335   0.410   1.502   3.408
12797TIP3    H138336   0.464   1.524   3.484
12797TIP3    H238337   0.351   1.577   3.397
12798TIP3   OH238338   5.303   6.503   4.423
12798TIP3    H138339   5.253   6.471   4.348
12798TIP3    H238340   5.278   6.446   4.496
12799TIP3   OH238341   4.634   6.803   2.879
12799TIP3    H138342   4.560   6.864   2.878
12799TIP3    H238343   4.603   6.727   2.830
12800TIP3   OH238344   2.384   3.016   4.198
12800TIP3    H138345   2.333   3.091   4.169
12800TIP3    H238346   2.403   3.035   4.290
12801TIP3   OH238347   7.850   5.151   1.495
12801TIP3    H138348   7.758   5.178   1.495
12801TIP3    H238349   7.847   5.056   1.486
12802TIP3   OH238350   1.525   7.468   3.594
12802TIP3    H138351   1.528   7.523   3.516
12802TIP3    H238352   1.445   7.494   3.639
12803TIP3   OH238353   2.950   2.393   6.124
12803TIP3    H138354   3.019   2.328   6.111
12803TIP3    H238355   2.876   2.360   6.073
12804TIP3   OH238356   7.073   2.573   5.459
12804TIP3    H138357   7.028   2.532   5.386
12804TIP3    H238358   7.162   2.589   5.427
12805TIP3   OH238359   7.702   1.709   5.178
12805TIP3    H138360   7.682   1.732   5.087
12805TIP3    H238361   7.630   1.747   5.228
12806TIP3   OH238362   4.275   5.341   5.621
12806TIP3    H138363   4.187   5.329   5.657
12806TIP3    H238364   4.307   5.251   5.606
12807TIP3   OH238365   1.448   4.336   1.335
12807TIP3    H138366   1.526   4.330   1.390
12807TIP3    H238367   1.451   4.258   1.280
12808TIP3   OH238368   0.912   5.040   1.499
12808TIP3    H138369   0.905   5.054   1.405
12808TIP3    H238370   0.822   5.048   1.531
12809TIP3   OH238371   1.548   1.714   0.323
12809TIP3    H138372   1.623   1.701   0.266
12809TIP3    H238373   1.585   1.731   0.410
12810TIP3   OH238374   5.982   1.125   1.496
12810TIP3    H138375   5.896   1.152   1.528
12810TIP3    H238376   5.976   1.030   1.488
12811TIP3   OH238377   5.774   3.817   0.194
12811TIP3    H138378   5.693   3.865   0.205
12811TIP3    H238379   5.839   3.884   0.170
12812TIP3   OH238380   7.883   2.109   4.799
12812TIP3    H138381   7.819   2.053   4.756
12812TIP3    H238382   7.964   2.095   4.749
12813TIP3   OH238383   6.490   3.337   6.749
12813TIP3    H138384   6.513   3.427   6.725
12813TIP3    H238385   6.480   3.291   6.666
12814TIP3   OH238386   1.805   6.783   1.700
12814TIP3    H138387   1.845   6.708   1.655
12814TIP3    H238388   1.840   6.860   1.656
12815TIP3   OH238389   7.018   4.957   0.124
12815TIP3    H138390   7.100   4.943   0.077
12815TIP3    H238391   6.957   4.894   0.086
12816TIP3   OH238392   4.859   5.603   5.625
12816TIP3    H138393   4.896   5.599   5.713
12816TIP3    H238394   4.849   5.512   5.598
12817TIP3   OH238395   5.810   7.329   4.257
12817TIP3    H138396   5.766   7.278   4.189
12817TIP3    H238397   5.851   7.264   4.313
12818TIP3   OH238398   1.607   0.036   5.139
12818TIP3    H138399   1.678  -0.026   5.155
12818TIP3    H238400   1.649   0.113   5.101
12819TIP3   OH238401   8.240   6.579   1.339
12819TIP3    H138402   8.156   6.617   1.313
12819TIP3    H238403   8.298   6.596   1.264
12820TIP3   OH238404   2.895   2.791   0.079
12820TIP3    H138405   2.925   2.868   0.126
12820TIP3    H238406   2.839   2.826   0.009
12821TIP3   OH238407   4.453   3.951   3.989
12821TIP3    H138408   4.487   3.888   3.925
12821TIP3    H238409   4.433   4.029   3.938
12822TIP3   OH238410   2.478   3.826   3.027
12822TIP3    H138411   2.388   3.793   3.031
12822TIP3    H238412   2.518   3.797   3.109
12823TIP3   OH238413   7.002   7.790   5.388
12823TIP3    H138414   6.948   7.869   5.390
12823TIP3    H238415   7.078   7.815   5.335
12824TIP3   OH238416   8.246   7.156   0.306
12824TIP3    H138417   8.255   7.135   0.399
12824TIP3    H238418   8.284   7.243   0.298
12825TIP3   OH238419   3.592   3.198   1.947
12825TIP3    H138420   3.539   3.263   1.993
12825TIP3    H238421   3.680   3.235   1.944
12826TIP3   OH238422   8.101   1.704   3.663
12826TIP3    H138423   8.076   1.676   3.751
12826TIP3    H238424   8.032   1.669   3.606
12827TIP3   OH238425   7.449   7.125   3.799
12827TIP3    H138426   7.491   7.205   3.766
12827TIP3    H238427   7.432   7.143   3.891
12828TIP3   OH238428   0.658   0.326   4.612
12828TIP3    H138429   0.627   0.238   4.589
12828TIP3    H238430   0.578   0.373   4.638
12829TIP3   OH238431   1.064   4.818   0.438
12829TIP3    H138432   1.017   4.891   0.398
12829TIP3    H238433   1.003   4.745   0.433
12830TIP3   OH238434   7.904   2.030   2.131
12830TIP3    H138435   7.893   1.960   2.195
12830TIP3    H238436   7.978   2.081   2.163
12831TIP3   OH238437   6.527   6.072   4.077
12831TIP3    H138438   6.483   6.089   4.160
12831TIP3    H238439   6.456   6.059   4.014
12832TIP3   OH238440   5.234   1.346   4.386
12832TIP3    H138441   5.155   1.400   4.391
12832TIP3    H238442   5.213   1.279   4.321
12833TIP3   OH238443   1.477   4.408   1.876
12833TIP3    H138444   1.431   4.450   1.948
12833TIP3    H238445   1.408   4.383   1.814
12834TIP3   OH238446   5.216   2.856   5.732
12834TIP3    H138447   5.271   2.808   5.795
12834TIP3    H238448   5.213   2.945   5.767
12835TIP3   OH238449   1.449   0.970   3.886
12835TIP3    H138450   1.534   1.007   3.861
12835TIP3    H238451   1.455   0.959   3.981
12836TIP3   OH238452   3.142   4.201   1.042
12836TIP3    H138453   3.092   4.172   0.965
12836TIP3    H238454   3.109   4.147   1.114
12837TIP3   OH238455   4.158   1.696   1.891
12837TIP3    H138456   4.246   1.687   1.855
12837TIP3    H238457   4.123   1.775   1.850
12838TIP3   OH238458   2.043   5.550   0.607
12838TIP3    H138459   1.964   5.496   0.606
12838TIP3    H238460   2.018   5.629   0.655
12839TIP3   OH238461   2.014   4.361   5.781
12839TIP3    H138462   2.064   4.350   5.862
12839TIP3    H238463   2.005   4.455   5.770
12840TIP3   OH238464   1.249   5.294   6.127
12840TIP3    H138465   1.192   5.352   6.076
12840TIP3    H238466   1.260   5.216   6.073
12841TIP3   OH238467   0.986   7.409   5.049
12841TIP3    H138468   1.051   7.339   5.056
12841TIP3    H238469   1.029   7.476   4.996
12842TIP3   OH238470   2.448   2.503   0.934
12842TIP3    H138471   2.405   2.497   0.849
12842TIP3    H238472   2.394   2.565   0.984
12843TIP3   OH238473   3.718   5.191   2.413
12843TIP3    H138474   3.631   5.158   2.438
12843TIP3    H238475   3.740   5.144   2.333
12844TIP3   OH238476   5.929   4.254   2.325
12844TIP3    H138477   5.920   4.339   2.367
12844TIP3    H238478   6.006   4.263   2.269
12845TIP3   OH238479   5.630   3.753   5.842
12845TIP3    H138480   5.562   3.814   5.870
12845TIP3    H238481   5.591   3.706   5.768
12846TIP3   OH238482   6.243   5.111   4.206
12846TIP3    H138483   6.218   5.043   4.269
12846TIP3    H238484   6.307   5.068   4.149
12847TIP3   OH238485   3.351   5.668   6.124
12847TIP3    H138486   3.269   5.631   6.092
12847TIP3    H238487   3.373   5.736   6.060
12848TIP3   OH238488   4.883   5.237   4.082
12848TIP3    H138489   4.937   5.283   4.017
12848TIP3    H238490   4.817   5.301   4.107
12849TIP3   OH238491   1.279   2.188   5.716
12849TIP3    H138492   1.362   2.167   5.673
12849TIP3    H238493   1.250   2.269   5.675
12850TIP3   OH238494   2.625   3.100   0.965
12850TIP3    H138495   2.676   3.034   1.012
12850TIP3    H238496   2.629   3.073   0.874
12851TIP3   OH238497   0.486   3.789   2.068
12851TIP3    H138498   0.509   3.877   2.099
12851TIP3    H238499   0.570   3.747   2.050
12852TIP3   OH238500   3.711   0.658   0.706
12852TIP3    H138501   3.727   0.567   0.730
12852TIP3    H238502   3.779   0.678   0.642
12853TIP3   OH238503   6.756   6.804   5.614
12853TIP3    H138504   6.851   6.805   5.626
12853TIP3    H238505   6.744   6.782   5.522
12854TIP3   OH238506   5.564   3.980   0.214
12854TIP3    H138507   5.579   4.075   0.213
12854TIP3    H238508   5.477   3.968   0.176
12855TIP3   OH238509   6.087   1.878   5.431
12855TIP3    H138510   6.067   1.786   5.451
12855TIP3    H238511   6.001   1.919   5.418
12856TIP3   OH238512   1.668   2.484   6.250
12856TIP3    H138513   1.757   2.508   6.226
12856TIP3    H238514   1.658   2.515   6.340
12857TIP3   OH238515   0.691   4.905   2.729
12857TIP3    H138516   0.656   4.871   2.811
12857TIP3    H238517   0.660   4.843   2.663
12858TIP3   OH238518   6.750   2.078   0.784
12858TIP3    H138519   6.797   2.082   0.868
12858TIP3    H238520   6.710   2.164   0.775
12859TIP3   OH238521   7.616   1.389   5.131
12859TIP3    H138522   7.576   1.446   5.065
12859TIP3    H238523   7.541   1.346   5.173
12860TIP3   OH238524   3.075   1.778   0.328
12860TIP3    H138525   3.113   1.788   0.415
12860TIP3    H238526   3.114   1.850   0.277
12861TIP3   OH238527   5.978   4.639   6.450
12861TIP3    H138528   5.971   4.694   6.527
12861TIP3    H238529   5.990   4.700   6.377
12862TIP3   OH238530   1.727   0.205   1.855
12862TIP3    H138531   1.757   0.170   1.939
12862TIP3    H238532   1.679   0.133   1.814
12863TIP3   OH238533   7.153   3.468   2.586
12863TIP3    H138534   7.100   3.547   2.601
12863TIP3    H238535   7.243   3.500   2.587
12864TIP3   OH238536   1.767   1.011   3.158
12864TIP3    H138537   1.716   0.945   3.204
12864TIP3    H238538   1.785   0.973   3.072
12865TIP3   OH238539   6.491   1.178   3.133
12865TIP3    H138540   6.417   1.198   3.076
12865TIP3    H238541   6.456   1.187   3.222
12866TIP3   OH238542   4.884   3.576   3.817
12866TIP3    H138543   4.934   3.655   3.797
12866TIP3    H238544   4.816   3.573   3.750
12867TIP3   OH238545   5.963   5.429   4.783
12867TIP3    H138546   6.030   5.363   4.769
12867TIP3    H238547   5.971   5.489   4.709
12868TIP3   OH238548   6.827   3.924   3.095
12868TIP3    H138549   6.743   3.914   3.140
12868TIP3    H238550   6.878   3.849   3.122
12869TIP3   OH238551   1.786   1.684   4.384
12869TIP3    H138552   1.777   1.705   4.291
12869TIP3    H238553   1.798   1.769   4.427
12870TIP3   OH238554   0.059   4.892   6.740
12870TIP3    H138555   0.008   4.946   6.679
12870TIP3    H238556   0.133   4.947   6.763
12871TIP3   OH238557   2.646   1.684   2.956
12871TIP3    H138558   2.685   1.610   3.003
12871TIP3    H238559   2.588   1.725   3.021
12872TIP3   OH238560   6.831   3.583   6.301
12872TIP3    H138561   6.922   3.612   6.302
12872TIP3    H238562   6.826   3.524   6.225
12873TIP3   OH238563   7.850   5.051   5.007
12873TIP3    H138564   7.862   5.080   5.098
12873TIP3    H238565   7.893   5.119   4.955
12874TIP3   OH238566   4.396   3.421   6.215
12874TIP3    H138567   4.331   3.350   6.224
12874TIP3    H238568   4.401   3.435   6.120
12875TIP3   OH238569   5.051   1.645   2.264
12875TIP3    H138570   5.049   1.555   2.231
12875TIP3    H238571   5.086   1.697   2.192
12876TIP3   OH238572   1.518   3.965   0.276
12876TIP3    H138573   1.555   3.891   0.228
12876TIP3    H238574   1.572   3.972   0.355
12877TIP3   OH238575   4.896   1.972   2.641
12877TIP3    H138576   4.898   1.900   2.578
12877TIP3    H238577   4.985   1.974   2.678
12878TIP3   OH238578   3.238   7.175   1.913
12878TIP3    H138579   3.274   7.259   1.942
12878TIP3    H238580   3.169   7.156   1.976
12879TIP3   OH238581   2.105   7.233   0.314
12879TIP3    H138582   2.187   7.210   0.358
12879TIP3    H238583   2.048   7.266   0.383
12880TIP3   OH238584   6.389   5.065   5.117
12880TIP3    H138585   6.324   5.006   5.157
12880TIP3    H238586   6.337   5.123   5.061
12881TIP3   OH238587   2.309   6.654   2.236
12881TIP3    H138588   2.333   6.680   2.325
12881TIP3    H238589   2.289   6.737   2.192
12882TIP3   OH238590   7.987   5.900   3.661
12882TIP3    H138591   8.028   5.818   3.688
12882TIP3    H238592   7.920   5.917   3.728
12883TIP3   OH238593   6.846   0.053   6.432
12883TIP3    H138594   6.855   0.090   6.344
12883TIP3    H238595   6.923  -0.002   6.443
12884TIP3   OH238596   8.157   0.195   3.771
12884TIP3    H138597   8.082   0.235   3.728
12884TIP3    H238598   8.214   0.168   3.700
12885TIP3   OH238599   6.899   5.966   6.105
12885TIP3    H138600   6.862   6.038   6.155
12885TIP3    H238601   6.896   5.891   6.164
12886TIP3   OH238602   2.325   5.471   2.034
12886TIP3    H138603   2.350   5.434   1.950
12886TIP3    H238604   2.290   5.557   2.014
12887TIP3   OH238605   2.877   4.248   0.086
12887TIP3    H138606   2.873   4.289   0.172
12887TIP3    H238607   2.786   4.229   0.064
12888TIP3   OH238608   0.605   7.607   4.013
12888TIP3    H138609   0.536   7.576   4.071
12888TIP3    H238610   0.573   7.692   3.982
12889TIP3   OH238611   3.854   6.765   4.124
12889TIP3    H138612   3.885   6.855   4.120
12889TIP3    H238613   3.761   6.773   4.147
12890TIP3   OH238614   6.075   1.421   4.181
12890TIP3    H138615   6.094   1.360   4.252
12890TIP3    H238616   5.980   1.414   4.168
12891TIP3   OH238617   6.415   7.294   1.138
12891TIP3    H138618   6.495   7.321   1.183
12891TIP3    H238619   6.344   7.317   1.198
12892TIP3   OH238620   7.202   0.216   4.001
12892TIP3    H138621   7.117   0.248   3.971
12892TIP3    H238622   7.261   0.231   3.928
12893TIP3   OH238623   2.996   0.749   0.848
12893TIP3    H138624   3.043   0.813   0.795
12893TIP3    H238625   2.996   0.669   0.794
12894TIP3   OH238626   6.831   4.711   2.371
12894TIP3    H138627   6.831   4.646   2.441
12894TIP3    H238628   6.767   4.776   2.400
12895TIP3   OH238629   1.204   4.564   5.972
12895TIP3    H138630   1.182   4.567   6.065
12895TIP3    H238631   1.255   4.484   5.962
12896TIP3   OH238632   2.194   2.879   3.344
12896TIP3    H138633   2.207   2.941   3.416
12896TIP3    H238634   2.103   2.891   3.317
12897TIP3   OH238635   6.523   0.267   3.381
12897TIP3    H138636   6.477   0.334   3.332
12897TIP3    H238637   6.611   0.265   3.344
12898TIP3   OH238638   4.283   7.055   3.016
12898TIP3    H138639   4.221   6.993   2.978
12898TIP3    H238640   4.236   7.138   3.018
12899TIP3   OH238641   5.783   0.355   0.080
12899TIP3    H138642   5.858   0.384   0.028
12899TIP3    H238643   5.763   0.429   0.137
12900TIP3   OH238644   4.006   4.137   3.102
12900TIP3    H138645   3.944   4.208   3.119
12900TIP3    H238646   4.038   4.153   3.013
12901TIP3   OH238647   0.957   6.672   3.845
12901TIP3    H138648   1.000   6.588   3.862
12901TIP3    H238649   0.885   6.650   3.785
12902TIP3   OH238650  -0.015   4.033   5.406
12902TIP3    H138651  -0.052   4.104   5.459
12902TIP3    H238652   0.067   4.011   5.450
12903TIP3   OH238653   4.573   5.742   3.181
12903TIP3    H138654   4.515   5.667   3.192
12903TIP3    H238655   4.515   5.816   3.165
12904TIP3   OH238656   7.548   1.445   6.154
12904TIP3    H138657   7.618   1.393   6.193
12904TIP3    H238658   7.476   1.439   6.218
12905TIP3   OH238659   0.599   6.635   3.358
12905TIP3    H138660   0.606   6.730   3.366
12905TIP3    H238661   0.578   6.620   3.266
12906TIP3   OH238662   7.771   3.536   3.208
12906TIP3    H138663   7.682   3.568   3.222
12906TIP3    H238664   7.813   3.545   3.294
12907TIP3   OH238665   5.419   7.198   4.220
12907TIP3    H138666   5.356   7.132   4.246
12907TIP3    H238667   5.484   7.199   4.290
12908TIP3   OH238668   5.562   2.946   4.947
12908TIP3    H138669   5.571   2.899   5.030
12908TIP3    H238670   5.478   2.915   4.911
12909TIP3   OH238671   3.245   3.698   4.211
12909TIP3    H138672   3.264   3.604   4.210
12909TIP3    H238673   3.240   3.722   4.118
12910TIP3   OH238674   7.760   7.623   3.612
12910TIP3    H138675   7.703   7.696   3.632
12910TIP3    H238676   7.725   7.585   3.532
12911TIP3   OH238677   4.478   0.323   6.615
12911TIP3    H138678   4.503   0.312   6.523
12911TIP3    H238679   4.558   0.303   6.664
12912TIP3   OH238680   3.531   1.720   6.093
12912TIP3    H138681   3.613   1.703   6.139
12912TIP3    H238682   3.485   1.637   6.093
12913TIP3   OH238683   6.040   1.448   1.528
12913TIP3    H138684   6.007   1.396   1.601
12913TIP3    H238685   6.078   1.383   1.468
12914TIP3   OH238686   1.313   2.206   4.594
12914TIP3    H138687   1.348   2.261   4.524
12914TIP3    H238688   1.254   2.263   4.643
12915TIP3   OH238689   4.028   6.119   5.983
12915TIP3    H138690   3.989   6.089   5.901
12915TIP3    H238691   4.084   6.047   6.011
12916TIP3   OH238692   6.442   2.644   4.208
12916TIP3    H138693   6.514   2.659   4.146
12916TIP3    H238694   6.372   2.703   4.177
12917TIP3   OH238695   1.060   1.690   4.474
12917TIP3    H138696   1.119   1.617   4.453
12917TIP3    H238697   1.070   1.750   4.401
12918TIP3   OH238698   2.065   4.907   6.096
12918TIP3    H138699   2.022   4.989   6.121
12918TIP3    H238700   2.072   4.913   6.000
12919TIP3   OH238701   6.577   6.047   4.583
12919TIP3    H138702   6.582   5.962   4.539
12919TIP3    H238703   6.516   6.034   4.655
12920TIP3   OH238704   8.091   4.387   4.346
12920TIP3    H138705   8.024   4.390   4.278
12920TIP3    H238706   8.050   4.426   4.423
12921TIP3   OH238707   0.482   3.654   2.390
12921TIP3    H138708   0.517   3.567   2.369
12921TIP3    H238709   0.394   3.653   2.352
12922TIP3   OH238710   0.341   6.691   5.399
12922TIP3    H138711   0.316   6.752   5.330
12922TIP3    H238712   0.437   6.695   5.401
12923TIP3   OH238713   6.204   6.145   3.445
12923TIP3    H138714   6.155   6.094   3.380
12923TIP3    H238715   6.145   6.216   3.469
12924TIP3   OH238716   6.661   2.412   2.861
12924TIP3    H138717   6.746   2.430   2.900
12924TIP3    H238718   6.681   2.375   2.775
12925TIP3   OH238719   7.160   6.431   0.734
12925TIP3    H138720   7.071   6.467   0.737
12925TIP3    H238721   7.154   6.349   0.784
12926TIP3   OH238722   0.434   7.307   5.842
12926TIP3    H138723   0.393   7.271   5.763
12926TIP3    H238724   0.420   7.239   5.908
12927TIP3   OH238725   2.725   5.373   6.469
12927TIP3    H138726   2.741   5.452   6.521
12927TIP3    H238727   2.633   5.352   6.484
12928TIP3   OH238728   1.001   0.651   5.613
12928TIP3    H138729   1.035   0.562   5.602
12928TIP3    H238730   0.906   0.640   5.618
12929TIP3   OH238731   6.054   3.154   5.394
12929TIP3    H138732   6.005   3.086   5.440
12929TIP3    H238733   6.011   3.160   5.308
12930TIP3   OH238734   5.326   5.075   4.776
12930TIP3    H138735   5.373   4.992   4.780
12930TIP3    H238736   5.391   5.141   4.803
12931TIP3   OH238737   7.500   4.662   6.640
12931TIP3    H138738   7.414   4.642   6.676
12931TIP3    H238739   7.484   4.732   6.576
12932TIP3   OH238740   4.330   2.564   2.813
12932TIP3    H138741   4.271   2.639   2.813
12932TIP3    H238742   4.328   2.532   2.903
12933TIP3   OH238743   3.183   1.443   2.689
12933TIP3    H138744   3.109   1.430   2.747
12933TIP3    H238745   3.250   1.382   2.721
12934TIP3   OH238746   3.668   4.525   5.693
12934TIP3    H138747   3.644   4.530   5.786
12934TIP3    H238748   3.740   4.463   5.691
12935TIP3   OH238749   3.348   0.491   1.622
12935TIP3    H138750   3.354   0.481   1.717
12935TIP3    H238751   3.269   0.441   1.598
12936TIP3   OH238752   4.229   1.635   1.324
12936TIP3    H138753   4.206   1.555   1.275
12936TIP3    H238754   4.210   1.706   1.263
12937TIP3   OH238755   0.531   1.037   3.169
12937TIP3    H138756   0.540   1.084   3.086
12937TIP3    H238757   0.494   1.102   3.229
12938TIP3   OH238758   0.527   2.753   5.686
12938TIP3    H138759   0.573   2.711   5.758
12938TIP3    H238760   0.457   2.692   5.663
12939TIP3   OH238761   6.840   4.694   5.389
12939TIP3    H138762   6.835   4.599   5.389
12939TIP3    H238763   6.835   4.719   5.481
12940TIP3   OH238764   5.580   0.381   2.569
12940TIP3    H138765   5.667   0.419   2.584
12940TIP3    H238766   5.568   0.384   2.475
12941TIP3   OH238767   4.677   3.962   5.102
12941TIP3    H138768   4.672   3.867   5.090
12941TIP3    H238769   4.645   3.998   5.020
12942TIP3   OH238770   1.282   4.367   0.179
12942TIP3    H138771   1.327   4.294   0.221
12942TIP3    H238772   1.347   4.405   0.120
12943TIP3   OH238773   8.228   0.617   0.644
12943TIP3    H138774   8.296   0.616   0.577
12943TIP3    H238775   8.152   0.656   0.601
12944TIP3   OH238776   3.354   2.798   6.564
12944TIP3    H138777   3.418   2.867   6.583
12944TIP3    H238778   3.330   2.764   6.650
12945TIP3   OH238779   3.540   5.909   5.954
12945TIP3    H138780   3.509   5.838   5.898
12945TIP3    H238781   3.460   5.948   5.990
12946TIP3   OH238782   3.526   0.880   5.785
12946TIP3    H138783   3.439   0.918   5.800
12946TIP3    H238784   3.516   0.787   5.806
12947TIP3   OH238785   6.519   1.055   5.043
12947TIP3    H138786   6.592   1.037   4.983
12947TIP3    H238787   6.558   1.049   5.130
12948TIP3   OH238788   8.272   1.377   6.204
12948TIP3    H138789   8.186   1.417   6.190
12948TIP3    H238790   8.325   1.408   6.132
12949TIP3   OH238791   4.165   4.697   2.839
12949TIP3    H138792   4.229   4.730   2.901
12949TIP3    H238793   4.090   4.756   2.849
12950TIP3   OH238794   7.599   0.117   2.316
12950TIP3    H138795   7.593   0.203   2.276
12950TIP3    H238796   7.656   0.129   2.392
12951TIP3   OH238797   1.601   6.915   3.050
12951TIP3    H138798   1.695   6.922   3.033
12951TIP3    H238799   1.560   6.956   2.974
12952TIP3   OH238800   1.848   0.056   1.289
12952TIP3    H138801   1.921   0.118   1.289
12952TIP3    H238802   1.772   0.108   1.315
12953TIP3   OH238803   3.347   3.463   4.175
12953TIP3    H138804   3.440   3.481   4.161
12953TIP3    H238805   3.322   3.409   4.101
12954TIP3   OH238806   5.003   5.213   1.573
12954TIP3    H138807   4.953   5.228   1.653
12954TIP3    H238808   4.948   5.247   1.503
12955TIP3   OH238809   4.157   2.420   2.257
12955TIP3    H138810   4.221   2.380   2.317
12955TIP3    H238811   4.078   2.366   2.267
12956TIP3   OH238812   3.148   6.163   5.882
12956TIP3    H138813   3.055   6.179   5.864
12956TIP3    H238814   3.170   6.225   5.951
12957TIP3   OH238815   2.382   4.065   0.336
12957TIP3    H138816   2.443   4.130   0.369
12957TIP3    H238817   2.355   4.015   0.413
12958TIP3   OH238818   6.860   7.569   1.045
12958TIP3    H138819   6.882   7.570   0.951
12958TIP3    H238820   6.913   7.497   1.080
12959TIP3   OH238821   1.303   0.680   4.918
12959TIP3    H138822   1.237   0.658   4.984
12959TIP3    H238823   1.313   0.600   4.866
12960TIP3   OH238824   1.155   5.766   1.125
12960TIP3    H138825   1.100   5.826   1.175
12960TIP3    H238826   1.138   5.788   1.034
12961TIP3   OH238827   3.484   6.293   2.646
12961TIP3    H138828   3.478   6.283   2.551
12961TIP3    H238829   3.551   6.230   2.673
12962TIP3   OH238830   5.834   5.280   5.729
12962TIP3    H138831   5.917   5.297   5.685
12962TIP3    H238832   5.802   5.199   5.688
12963TIP3   OH238833   4.653   7.076   3.653
12963TIP3    H138834   4.713   7.073   3.728
12963TIP3    H238835   4.650   7.168   3.628
12964TIP3   OH238836   0.825   2.971   3.464
12964TIP3    H138837   0.841   2.911   3.391
12964TIP3    H238838   0.912   2.993   3.497
12965TIP3   OH238839   1.964   0.158   0.122
12965TIP3    H138840   2.000   0.143   0.035
12965TIP3    H238841   2.035   0.199   0.171
12966TIP3   OH238842   6.273   7.811   2.720
12966TIP3    H138843   6.210   7.864   2.770
12966TIP3    H238844   6.221   7.770   2.652
12967TIP3   OH238845   1.212   4.895   3.066
12967TIP3    H138846   1.214   4.976   3.016
12967TIP3    H238847   1.153   4.913   3.139
12968TIP3   OH238848   4.433   3.596   5.745
12968TIP3    H138849   4.388   3.513   5.728
12968TIP3    H238850   4.405   3.654   5.674
12969TIP3   OH238851   0.277   2.812   3.762
12969TIP3    H138852   0.285   2.877   3.832
12969TIP3    H238853   0.335   2.740   3.788
12970TIP3   OH238854   6.409   0.566   4.487
12970TIP3    H138855   6.435   0.627   4.418
12970TIP3    H238856   6.366   0.494   4.440
12971TIP3   OH238857   3.737   5.397   0.488
12971TIP3    H138858   3.726   5.371   0.579
12971TIP3    H238859   3.666   5.459   0.472
12972TIP3   OH238860   7.681   0.822   1.738
12972TIP3    H138861   7.749   0.878   1.700
12972TIP3    H238862   7.600   0.871   1.725
12973TIP3   OH238863   1.901   2.324   1.217
12973TIP3    H138864   1.848   2.305   1.139
12973TIP3    H238865   1.977   2.268   1.209
12974TIP3   OH238866   7.695   4.297   4.567
12974TIP3    H138867   7.665   4.228   4.627
12974TIP3    H238868   7.656   4.273   4.482
12975TIP3   OH238869   7.633   7.220   6.611
12975TIP3    H138870   7.562   7.200   6.672
12975TIP3    H238871   7.610   7.174   6.531
12976TIP3   OH238872   1.709   4.660   5.388
12976TIP3    H138873   1.719   4.680   5.295
12976TIP3    H238874   1.707   4.745   5.432
12977TIP3   OH238875   4.196   0.337   3.563
12977TIP3    H138876   4.122   0.374   3.611
12977TIP3    H238877   4.163   0.253   3.531
12978TIP3   OH238878   7.917   1.418   2.354
12978TIP3    H138879   7.852   1.404   2.284
12978TIP3    H238880   7.977   1.344   2.346
12979TIP3   OH238881   0.086   4.558   5.749
12979TIP3    H138882   0.025   4.523   5.814
12979TIP3    H238883   0.064   4.651   5.742
12980TIP3   OH238884   3.098   7.025   6.322
12980TIP3    H138885   3.120   7.064   6.406
12980TIP3    H238886   3.182   7.021   6.274
12981TIP3   OH238887   1.035   0.011   0.936
12981TIP3    H138888   1.000   0.089   0.980
12981TIP3    H238889   1.129   0.027   0.930
12982TIP3   OH238890   4.574   2.649   0.638
12982TIP3    H138891   4.536   2.736   0.652
12982TIP3    H238892   4.502   2.597   0.603
12983TIP3   OH238893   1.783   7.172   2.953
12983TIP3    H138894   1.810   7.263   2.940
12983TIP3    H238895   1.688   7.175   2.958
12984TIP3   OH238896   4.793   6.345   4.171
12984TIP3    H138897   4.762   6.257   4.149
12984TIP3    H238898   4.718   6.387   4.213
12985TIP3   OH238899   4.786   2.297   0.596
12985TIP3    H138900   4.859   2.238   0.579
12985TIP3    H238901   4.742   2.258   0.672
12986TIP3   OH238902   4.708   1.118   2.468
12986TIP3    H138903   4.628   1.079   2.503
12986TIP3    H238904   4.685   1.140   2.377
12987TIP3   OH238905   7.553   2.424   6.246
12987TIP3    H138906   7.487   2.357   6.230
12987TIP3    H238907   7.552   2.478   6.168
12988TIP3   OH238908   7.660   2.391   3.601
12988TIP3    H138909   7.719   2.349   3.538
12988TIP3    H238910   7.687   2.483   3.601
12989TIP3   OH238911   7.396   3.320   0.089
12989TIP3    H138912   7.487   3.335   0.065
12989TIP3    H238913   7.390   3.226   0.105
12990TIP3   OH238914   1.794   3.883   4.933
12990TIP3    H138915   1.858   3.824   4.892
12990TIP3    H238916   1.838   3.967   4.936
12991TIP3   OH238917   6.404   0.002   1.580
12991TIP3    H138918   6.414  -0.075   1.636
12991TIP3    H238919   6.350   0.062   1.631
12992TIP3   OH238920   7.069   1.426   3.024
12992TIP3    H138921   7.129   1.500   3.025
12992TIP3    H238922   6.996   1.455   2.968
12993TIP3   OH238923   2.637   3.007   5.479
12993TIP3    H138924   2.654   2.966   5.564
12993TIP3    H238925   2.602   3.093   5.501
12994TIP3   OH238926   1.455   0.132   3.526
12994TIP3    H138927   1.433   0.184   3.603
12994TIP3    H238928   1.392   0.158   3.460
12995TIP3   OH238929   2.152   4.148   0.992
12995TIP3    H138930   2.217   4.090   0.952
12995TIP3    H238931   2.158   4.130   1.085
12996TIP3   OH238932   7.309   0.041   3.340
12996TIP3    H138933   7.329  -0.009   3.419
12996TIP3    H238934   7.367   0.003   3.273
12997TIP3   OH238935   3.727   5.206   4.428
12997TIP3    H138936   3.822   5.202   4.413
12997TIP3    H238937   3.717   5.256   4.509
12998TIP3   OH238938   1.216   5.093   5.010
12998TIP3    H138939   1.149   5.076   5.076
12998TIP3    H238940   1.260   5.009   4.997
12999TIP3   OH238941   6.023   2.134   3.501
12999TIP3    H138942   5.972   2.053   3.493
12999TIP3    H238943   6.054   2.151   3.413
13000TIP3   OH238944   7.523   3.480   4.143
13000TIP3    H138945   7.599   3.430   4.174
13000TIP3    H238946   7.457   3.414   4.124
13001TIP3   OH238947   8.221   4.968   0.636
13001TIP3    H138948   8.150   4.921   0.592
13001TIP3    H238949   8.198   4.965   0.729
13002TIP3   OH238950   4.845   7.510   1.103
13002TIP3    H138951   4.775   7.556   1.149
13002TIP3    H238952   4.824   7.417   1.114
13003TIP3   OH238953   7.370   2.225   2.743
13003TIP3    H138954   7.373   2.319   2.757
13003TIP3    H238955   7.279   2.201   2.762
13004TIP3   OH238956   5.347   6.975   5.815
13004TIP3    H138957   5.424   6.919   5.817
13004TIP3    H238958   5.312   6.965   5.726
13005TIP3   OH238959   3.152   7.144   1.127
13005TIP3    H138960   3.220   7.160   1.062
13005TIP3    H238961   3.124   7.232   1.155
13006TIP3   OH238962   3.466   6.105   0.364
13006TIP3    H138963   3.474   6.020   0.321
13006TIP3    H238964   3.376   6.106   0.397
13007TIP3   OH238965   7.153   7.666   1.389
13007TIP3    H138966   7.217   7.677   1.318
13007TIP3    H238967   7.070   7.649   1.344
13008TIP3   OH238968   0.131   0.478   1.875
13008TIP3    H138969   0.158   0.542   1.809
13008TIP3    H238970   0.125   0.395   1.827
13009TIP3   OH238971   4.568   6.663   1.232
13009TIP3    H138972   4.657   6.662   1.265
13009TIP3    H238973   4.575   6.701   1.144
13010TIP3   OH238974   4.893   2.732   5.793
13010TIP3    H138975   4.877   2.730   5.699
13010TIP3    H238976   4.807   2.716   5.832
13011TIP3   OH238977   6.000   7.471   3.722
13011TIP3    H138978   5.935   7.447   3.655
13011TIP3    H238979   5.984   7.564   3.738
13012TIP3   OH238980   5.645   0.372   3.153
13012TIP3    H138981   5.667   0.418   3.235
13012TIP3    H238982   5.704   0.297   3.152
13013TIP3   OH238983   5.085   5.878   5.844
13013TIP3    H138984   5.164   5.857   5.894
13013TIP3    H238985   5.036   5.796   5.839
13014TIP3   OH238986   7.309   4.486   1.022
13014TIP3    H138987   7.225   4.448   1.049
13014TIP3    H238988   7.348   4.519   1.103
13015TIP3   OH238989   7.779   4.990   3.943
13015TIP3    H138990   7.796   5.025   3.856
13015TIP3    H238991   7.831   5.045   4.002
13016TIP3   OH238992   4.594   4.648   0.283
13016TIP3    H138993   4.599   4.719   0.219
13016TIP3    H238994   4.637   4.682   0.361
13017TIP3   OH238995   6.375   5.922   3.899
13017TIP3    H138996   6.376   5.971   3.817
13017TIP3    H238997   6.438   5.851   3.887
13018TIP3   OH238998   4.018   0.476   3.742
13018TIP3    H138999   3.986   0.566   3.732
13018TIP3    H239000   4.052   0.473   3.831
13019TIP3   OH239001   2.271   6.898   2.236
13019TIP3    H139002   2.219   6.957   2.289
13019TIP3    H239003   2.316   6.955   2.173
13020TIP3   OH239004   8.256   4.505   5.989
13020TIP3    H139005   8.335   4.482   6.037
13020TIP3    H239006   8.197   4.540   6.055
13021TIP3   OH239007   2.935   6.466   0.920
13021TIP3    H139008   2.926   6.543   0.864
13021TIP3    H239009   2.885   6.398   0.876
13022TIP3   OH239010   2.868   4.375   4.862
13022TIP3    H139011   2.923   4.432   4.808
13022TIP3    H239012   2.805   4.336   4.801
13023TIP3   OH239013   3.898   4.112   5.981
13023TIP3    H139014   3.876   4.106   6.074
13023TIP3    H239015   3.842   4.181   5.947
13024TIP3   OH239016   6.206   4.902   4.891
13024TIP3    H139017   6.278   4.859   4.937
13024TIP3    H239018   6.136   4.837   4.888
13025TIP3   OH239019   4.753   2.501   0.214
13025TIP3    H139020   4.741   2.472   0.305
13025TIP3    H239021   4.667   2.488   0.174
13026TIP3   OH239022   2.685   4.556   3.071
13026TIP3    H139023   2.771   4.582   3.038
13026TIP3    H239024   2.623   4.610   3.022
13027TIP3   OH239025   4.870   3.035   0.537
13027TIP3    H139026   4.789   3.000   0.574
13027TIP3    H239027   4.909   2.962   0.489
13028TIP3   OH239028   2.040   2.908   1.105
13028TIP3    H139029   2.007   2.839   1.047
13028TIP3    H239030   2.118   2.941   1.062
13029TIP3   OH239031   6.405   4.839   4.516
13029TIP3    H139032   6.448   4.835   4.431
13029TIP3    H239033   6.467   4.886   4.572
13030TIP3   OH239034   0.307   2.187   2.274
13030TIP3    H139035   0.269   2.170   2.360
13030TIP3    H239036   0.375   2.120   2.264
13031TIP3   OH239037   4.972   7.331   4.173
13031TIP3    H139038   4.923   7.252   4.150
13031TIP3    H239039   5.044   7.333   4.110
13032TIP3   OH239040   0.253   7.284   6.159
13032TIP3    H139041   0.213   7.290   6.072
13032TIP3    H239042   0.237   7.193   6.186
13033TIP3   OH239043   2.246   1.396   2.787
13033TIP3    H139044   2.205   1.331   2.844
13033TIP3    H239045   2.304   1.446   2.845
13034TIP3   OH239046   2.004   6.961   0.239
13034TIP3    H139047   2.051   6.924   0.163
13034TIP3    H239048   2.046   7.045   0.254
13035TIP3   OH239049   2.700   7.196   4.553
13035TIP3    H139050   2.649   7.115   4.554
13035TIP3    H239051   2.759   7.186   4.479
13036TIP3   OH239052   4.459   0.599   4.289
13036TIP3    H139053   4.416   0.551   4.360
13036TIP3    H239054   4.397   0.594   4.216
13037TIP3   OH239055   0.727   6.829   4.546
13037TIP3    H139056   0.741   6.758   4.609
13037TIP3    H239057   0.747   6.909   4.596
13038TIP3   OH239058   1.709   4.378   5.163
13038TIP3    H139059   1.646   4.335   5.105
13038TIP3    H239060   1.716   4.467   5.129
13039TIP3   OH239061   6.218   0.603   1.137
13039TIP3    H139062   6.198   0.694   1.114
13039TIP3    H239063   6.170   0.550   1.073
13040TIP3   OH239064   2.443   5.073   3.225
13040TIP3    H139065   2.363   5.112   3.261
13040TIP3    H239066   2.496   5.053   3.302
13041TIP3   OH239067   4.462   1.151   4.126
13041TIP3    H139068   4.536   1.093   4.106
13041TIP3    H239069   4.385   1.096   4.112
13042TIP3   OH239070   7.044   5.346   0.051
13042TIP3    H139071   7.063   5.285   0.123
13042TIP3    H239072   7.129   5.385   0.031
13043TIP3   OH239073   6.412   3.182   6.471
13043TIP3    H139074   6.364   3.108   6.507
13043TIP3    H239075   6.493   3.144   6.437
13044TIP3   OH239076   6.250   5.011   1.484
13044TIP3    H139077   6.164   5.036   1.518
13044TIP3    H239078   6.259   5.062   1.404
13045TIP3   OH239079   5.847   1.603   1.414
13045TIP3    H139080   5.844   1.685   1.463
13045TIP3    H239081   5.928   1.561   1.442
13046TIP3   OH239082   8.224   5.385   4.966
13046TIP3    H139083   8.164   5.459   4.977
13046TIP3    H239084   8.182   5.313   5.013
13047TIP3   OH239085   2.242   3.963   2.712
13047TIP3    H139086   2.184   3.911   2.768
13047TIP3    H239087   2.324   3.969   2.760
13048TIP3   OH239088   6.520   1.892   0.394
13048TIP3    H139089   6.472   1.856   0.468
13048TIP3    H239090   6.605   1.917   0.431
13049TIP3   OH239091   1.516   2.465   1.412
13049TIP3    H139092   1.466   2.432   1.337
13049TIP3    H239093   1.509   2.560   1.405
13050TIP3   OH239094   5.676   0.105   3.059
13050TIP3    H139095   5.652   0.084   3.149
13050TIP3    H239096   5.765   0.141   3.065
13051TIP3   OH239097   7.159   2.443   2.809
13051TIP3    H139098   7.247   2.473   2.788
13051TIP3    H239099   7.128   2.401   2.729
13052TIP3   OH239100   1.447   2.101   3.741
13052TIP3    H139101   1.494   2.174   3.699
13052TIP3    H239102   1.498   2.082   3.820
13053TIP3   OH239103   4.706   4.718   3.065
13053TIP3    H139104   4.687   4.811   3.082
13053TIP3    H239105   4.789   4.719   3.017
13054TIP3   OH239106   6.345   5.115   6.339
13054TIP3    H139107   6.285   5.108   6.413
13054TIP3    H239108   6.419   5.058   6.363
13055TIP3   OH239109   0.450   1.848   2.532
13055TIP3    H139110   0.539   1.841   2.566
13055TIP3    H239111   0.406   1.769   2.564
13056TIP3   OH239112   6.404   1.630   0.907
13056TIP3    H139113   6.439   1.681   0.980
13056TIP3    H239114   6.407   1.691   0.833
13057TIP3   OH239115   0.554   0.352   1.311
13057TIP3    H139116   0.541   0.260   1.286
13057TIP3    H239117   0.604   0.390   1.240
13058TIP3   OH239118   2.889   4.063   3.461
13058TIP3    H139119   2.909   4.059   3.554
13058TIP3    H239120   2.951   4.002   3.421
13059TIP3   OH239121   0.893   3.365   0.702
13059TIP3    H139122   0.988   3.374   0.700
13059TIP3    H239123   0.876   3.273   0.687
13060TIP3   OH239124   4.133   0.604   1.563
13060TIP3    H139125   4.154   0.697   1.568
13060TIP3    H239126   4.054   0.600   1.509
13061TIP3   OH239127   1.944   1.988   4.460
13061TIP3    H139128   2.004   1.922   4.425
13061TIP3    H239129   1.932   1.962   4.551
13062TIP3   OH239130   0.416   4.569   0.431
13062TIP3    H139131   0.392   4.572   0.339
13062TIP3    H239132   0.449   4.480   0.445
13063TIP3   OH239133   1.958   0.746   3.202
13063TIP3    H139134   2.021   0.746   3.130
13063TIP3    H239135   1.984   0.820   3.256
13064TIP3   OH239136   1.265   2.178   5.384
13064TIP3    H139137   1.349   2.172   5.429
13064TIP3    H239138   1.231   2.264   5.409
13065TIP3   OH239139   5.410   1.168   6.383
13065TIP3    H139140   5.396   1.221   6.305
13065TIP3    H239141   5.465   1.222   6.440
13066TIP3   OH239142   3.494   4.897   5.517
13066TIP3    H139143   3.445   4.979   5.525
13066TIP3    H239144   3.430   4.829   5.535
13067TIP3   OH239145   5.089   4.641   6.076
13067TIP3    H139146   5.097   4.593   6.159
13067TIP3    H239147   5.179   4.646   6.043
13068TIP3   OH239148   4.883   0.528   2.307
13068TIP3    H139149   4.866   0.495   2.219
13068TIP3    H239150   4.966   0.576   2.299
13069TIP3   OH239151   1.847   1.766   1.674
13069TIP3    H139152   1.908   1.692   1.675
13069TIP3    H239153   1.836   1.786   1.581
13070TIP3   OH239154   8.037   7.142   3.693
13070TIP3    H139155   8.114   7.092   3.722
13070TIP3    H239156   8.072   7.228   3.670
13071TIP3   OH239157   7.493   1.857   5.357
13071TIP3    H139158   7.437   1.893   5.426
13071TIP3    H239159   7.440   1.786   5.319
13072TIP3   OH239160   2.318   4.415   1.880
13072TIP3    H139161   2.373   4.479   1.925
13072TIP3    H239162   2.323   4.336   1.934
13073TIP3   OH239163   0.461   0.351   6.465
13073TIP3    H139164   0.537   0.295   6.447
13073TIP3    H239165   0.406   0.341   6.388
13074TIP3   OH239166   5.317   7.345   0.137
13074TIP3    H139167   5.335   7.439   0.134
13074TIP3    H239168   5.254   7.335   0.208
13075TIP3   OH239169   0.957   0.575   5.301
13075TIP3    H139170   0.886   0.538   5.352
13075TIP3    H239171   0.939   0.669   5.297
13076TIP3   OH239172   7.480   6.985   3.100
13076TIP3    H139173   7.566   6.947   3.082
13076TIP3    H239174   7.456   6.952   3.186
13077TIP3   OH239175   2.503   2.738   2.469
13077TIP3    H139176   2.503   2.828   2.502
13077TIP3    H239177   2.593   2.709   2.479
13078TIP3   OH239178   6.576   7.432   0.448
13078TIP3    H139179   6.624   7.514   0.434
13078TIP3    H239180   6.562   7.397   0.360
13079TIP3   OH239181   5.641   0.422   4.523
13079TIP3    H139182   5.710   0.376   4.475
13079TIP3    H239183   5.595   0.353   4.571
13080TIP3   OH239184   7.543   6.652   1.339
13080TIP3    H139185   7.514   6.575   1.290
13080TIP3    H239186   7.474   6.666   1.405
13081TIP3   OH239187   0.146   3.809   6.578
13081TIP3    H139188   0.130   3.737   6.639
13081TIP3    H239189   0.191   3.876   6.629
13082TIP3   OH239190   4.754   5.510   6.626
13082TIP3    H139191   4.710   5.425   6.628
13082TIP3    H239192   4.776   5.529   6.717
13083TIP3   OH239193   5.293   3.565   2.394
13083TIP3    H139194   5.359   3.520   2.446
13083TIP3    H239195   5.241   3.614   2.457
13084TIP3   OH239196   6.170   4.506   6.612
13084TIP3    H139197   6.115   4.516   6.535
13084TIP3    H239198   6.116   4.459   6.675
13085TIP3   OH239199   0.783   2.220   3.624
13085TIP3    H139200   0.753   2.130   3.620
13085TIP3    H239201   0.710   2.272   3.591
13086TIP3   OH239202   3.470   6.802   5.021
13086TIP3    H139203   3.468   6.837   4.932
13086TIP3    H239204   3.492   6.710   5.010
13087TIP3   OH239205   2.939   7.088   0.855
13087TIP3    H139206   3.004   7.093   0.785
13087TIP3    H239207   2.979   7.031   0.921
13088TIP3   OH239208   3.520   2.929   0.661
13088TIP3    H139209   3.500   2.878   0.583
13088TIP3    H239210   3.479   2.882   0.733
13089TIP3   OH239211   3.297   5.668   5.567
13089TIP3    H139212   3.246   5.706   5.496
13089TIP3    H239213   3.281   5.574   5.559
13090TIP3   OH239214   2.402   6.614   4.348
13090TIP3    H139215   2.415   6.647   4.437
13090TIP3    H239216   2.409   6.519   4.357
13091TIP3   OH239217   5.181   0.975   3.977
13091TIP3    H139218   5.148   1.040   3.916
13091TIP3    H239219   5.250   0.929   3.929
13092TIP3   OH239220   1.289   5.173   1.913
13092TIP3    H139221   1.346   5.125   1.973
13092TIP3    H239222   1.344   5.244   1.880
13093TIP3   OH239223   4.826   5.069   1.372
13093TIP3    H139224   4.772   4.996   1.342
13093TIP3    H239225   4.763   5.133   1.404
13094TIP3   OH239226   3.994   4.185   0.029
13094TIP3    H139227   3.982   4.197   0.124
13094TIP3    H239228   3.957   4.264  -0.010
13095TIP3   OH239229   3.719   2.519   2.602
13095TIP3    H139230   3.723   2.455   2.531
13095TIP3    H239231   3.695   2.468   2.679
13096TIP3   OH239232   4.776   5.396   0.635
13096TIP3    H139233   4.822   5.451   0.571
13096TIP3    H239234   4.803   5.431   0.719
13097TIP3   OH239235   3.427   3.831   5.712
13097TIP3    H139236   3.342   3.790   5.694
13097TIP3    H239237   3.405   3.917   5.749
13098TIP3   OH239238   3.960   4.437   3.840
13098TIP3    H139239   3.993   4.516   3.798
13098TIP3    H239240   3.900   4.468   3.908
13099TIP3   OH239241   6.810   7.751   4.924
13099TIP3    H139242   6.813   7.808   4.847
13099TIP3    H239243   6.799   7.812   4.997
13100TIP3   OH239244   6.475   5.725   4.775
13100TIP3    H139245   6.445   5.656   4.835
13100TIP3    H239246   6.413   5.724   4.703
13101TIP3   OH239247   5.796   0.676   4.383
13101TIP3    H139248   5.832   0.735   4.450
13101TIP3    H239249   5.701   0.679   4.398
13102TIP3   OH239250   7.333   5.359   1.251
13102TIP3    H139251   7.278   5.302   1.197
13102TIP3    H239252   7.285   5.441   1.256
13103TIP3   OH239253   0.545   0.688   2.001
13103TIP3    H139254   0.608   0.650   1.940
13103TIP3    H239255   0.477   0.621   2.011
13104TIP3   OH239256   7.150   2.024   1.849
13104TIP3    H139257   7.233   2.071   1.843
13104TIP3    H239258   7.170   1.946   1.901
13105TIP3   OH239259   4.300   5.503   6.191
13105TIP3    H139260   4.373   5.444   6.211
13105TIP3    H239261   4.278   5.484   6.099
13106TIP3   OH239262   2.509   7.434   1.755
13106TIP3    H139263   2.489   7.369   1.821
13106TIP3    H239264   2.428   7.442   1.704
13107TIP3   OH239265   2.752   2.050   4.934
13107TIP3    H139266   2.821   2.113   4.914
13107TIP3    H239267   2.678   2.103   4.962
13108TIP3   OH239268   5.656   2.248   0.439
13108TIP3    H139269   5.626   2.277   0.353
13108TIP3    H239270   5.601   2.172   0.459
13109TIP3   OH239271   2.248   2.814   4.069
13109TIP3    H139272   2.306   2.859   4.130
13109TIP3    H239273   2.283   2.835   3.983
13110TIP3   OH239274   1.228   1.477   2.379
13110TIP3    H139275   1.285   1.422   2.326
13110TIP3    H239276   1.145   1.477   2.332
13111TIP3   OH239277   8.153   2.668   3.140
13111TIP3    H139278   8.058   2.663   3.130
13111TIP3    H239279   8.172   2.762   3.146
13112TIP3   OH239280   2.166   6.331   4.262
13112TIP3    H139281   2.138   6.282   4.186
13112TIP3    H239282   2.255   6.299   4.280
13113TIP3   OH239283   6.388   5.780   0.331
13113TIP3    H139284   6.460   5.717   0.340
13113TIP3    H239285   6.420   5.859   0.375
13114TIP3   OH239286   4.902   2.785   0.439
13114TIP3    H139287   4.919   2.771   0.346
13114TIP3    H239288   4.844   2.713   0.464
13115TIP3   OH239289   4.053   0.451   1.763
13115TIP3    H139290   4.077   0.510   1.692
13115TIP3    H239291   4.011   0.508   1.828
13116TIP3   OH239292   5.235   4.777   3.485
13116TIP3    H139293   5.181   4.741   3.556
13116TIP3    H239294   5.321   4.790   3.525
13117TIP3   OH239295   6.012   7.359   3.286
13117TIP3    H139296   6.033   7.376   3.194
13117TIP3    H239297   6.054   7.431   3.333
13118TIP3   OH239298   7.281   0.324   6.258
13118TIP3    H139299   7.250   0.289   6.341
13118TIP3    H239300   7.367   0.362   6.279
13119TIP3   OH239301   2.071   1.588   1.164
13119TIP3    H139302   2.156   1.579   1.208
13119TIP3    H239303   2.062   1.683   1.150
13120TIP3   OH239304   6.704   3.243   5.960
13120TIP3    H139305   6.639   3.290   5.908
13120TIP3    H239306   6.653   3.194   6.024
13121TIP3   OH239307   5.660   0.418   0.514
13121TIP3    H139308   5.602   0.378   0.449
13121TIP3    H239309   5.636   0.511   0.513
13122TIP3   OH239310   4.142   6.848   2.910
13122TIP3    H139311   4.063   6.815   2.952
13122TIP3    H239312   4.112   6.886   2.828
13123TIP3   OH239313   5.799   7.101   2.454
13123TIP3    H139314   5.761   7.188   2.468
13123TIP3    H239315   5.725   7.048   2.425
13124TIP3   OH239316   3.712   3.254   4.019
13124TIP3    H139317   3.725   3.269   3.925
13124TIP3    H239318   3.658   3.176   4.024
13125TIP3   OH239319   2.452   0.369   2.316
13125TIP3    H139320   2.456   0.342   2.224
13125TIP3    H239321   2.402   0.450   2.315
13126TIP3   OH239322   3.917   4.729   4.583
13126TIP3    H139323   3.971   4.758   4.657
13126TIP3    H239324   3.852   4.671   4.621
13127TIP3   OH239325   6.827   5.077   5.381
13127TIP3    H139326   6.822   5.076   5.477
13127TIP3    H239327   6.739   5.102   5.353
13128TIP3   OH239328   7.820   1.578   1.312
13128TIP3    H139329   7.897   1.559   1.259
13128TIP3    H239330   7.756   1.512   1.287
13129TIP3   OH239331   6.126   7.743   4.322
13129TIP3    H139332   6.206   7.794   4.306
13129TIP3    H239333   6.127   7.675   4.255
13130TIP3   OH239334   2.429   7.745   0.135
13130TIP3    H139335   2.471   7.719   0.217
13130TIP3    H239336   2.335   7.739   0.154
13131TIP3   OH239337   3.829   2.511   0.909
13131TIP3    H139338   3.910   2.490   0.955
13131TIP3    H239339   3.816   2.439   0.848
13132TIP3   OH239340   0.340   2.221   1.173
13132TIP3    H139341   0.290   2.288   1.219
13132TIP3    H239342   0.281   2.145   1.170
13133TIP3   OH239343   7.600   6.410   3.287
13133TIP3    H139344   7.653   6.343   3.329
13133TIP3    H239345   7.526   6.362   3.250
13134TIP3   OH239346   7.947   6.054   2.690
13134TIP3    H139347   7.945   5.961   2.716
13134TIP3    H239348   8.029   6.087   2.726
13135TIP3   OH239349   4.743   3.649   4.456
13135TIP3    H139350   4.835   3.657   4.431
13135TIP3    H239351   4.730   3.556   4.476
13136TIP3   OH239352   5.237   4.864   1.846
13136TIP3    H139353   5.289   4.783   1.844
13136TIP3    H239354   5.249   4.902   1.759
13137TIP3   OH239355   7.891   3.666   4.090
13137TIP3    H139356   7.847   3.698   4.169
13137TIP3    H239357   7.978   3.641   4.120
13138TIP3   OH239358   2.464   6.083   5.946
13138TIP3    H139359   2.541   6.039   5.911
13138TIP3    H239360   2.425   6.128   5.871
13139TIP3   OH239361   3.441   4.956   1.522
13139TIP3    H139362   3.524   4.913   1.501
13139TIP3    H239363   3.394   4.892   1.576
13140TIP3   OH239364   2.789   3.940   3.059
13140TIP3    H139365   2.798   3.872   3.127
13140TIP3    H239366   2.863   3.998   3.074
13141TIP3   OH239367   7.790   6.585   4.033
13141TIP3    H139368   7.712   6.530   4.039
13141TIP3    H239369   7.850   6.536   3.976
13142TIP3   OH239370   0.926   1.028   3.554
13142TIP3    H139371   0.904   0.939   3.584
13142TIP3    H239372   1.022   1.027   3.546
13143TIP3   OH239373   3.126   1.382   5.954
13143TIP3    H139374   3.032   1.379   5.976
13143TIP3    H239375   3.140   1.303   5.902
13144TIP3   OH239376   0.599   5.212   3.977
13144TIP3    H139377   0.539   5.150   4.018
13144TIP3    H239378   0.554   5.297   3.983
13145TIP3   OH239379   6.408   6.305   1.354
13145TIP3    H139380   6.409   6.210   1.365
13145TIP3    H239381   6.362   6.319   1.271
13146TIP3   OH239382   7.756   7.364   0.578
13146TIP3    H139383   7.681   7.372   0.519
13146TIP3    H239384   7.733   7.417   0.654
13147TIP3   OH239385   0.880   1.278   1.427
13147TIP3    H139386   0.955   1.274   1.487
13147TIP3    H239387   0.857   1.186   1.411
13148TIP3   OH239388   0.594   5.429   2.562
13148TIP3    H139389   0.568   5.366   2.630
13148TIP3    H239390   0.660   5.383   2.510
13149TIP3   OH239391   6.222   6.355   2.287
13149TIP3    H139392   6.232   6.277   2.233
13149TIP3    H239393   6.234   6.324   2.376
13150TIP3   OH239394   6.807   0.045   6.080
13150TIP3    H139395   6.873   0.109   6.108
13150TIP3    H239396   6.848  -0.001   6.007
13151TIP3   OH239397   1.668   4.084   2.307
13151TIP3    H139398   1.607   4.017   2.275
13151TIP3    H239399   1.745   4.075   2.252
13152TIP3   OH239400   2.656   4.234   5.686
13152TIP3    H139401   2.562   4.226   5.705
13152TIP3    H239402   2.665   4.197   5.598
13153TIP3   OH239403   2.930   3.944   1.680
13153TIP3    H139404   2.900   4.026   1.642
13153TIP3    H239405   2.972   3.969   1.762
13154TIP3   OH239406   4.841   7.236   1.194
13154TIP3    H139407   4.905   7.174   1.230
13154TIP3    H239408   4.764   7.182   1.177
13155TIP3   OH239409   4.782   5.325   0.117
13155TIP3    H139410   4.711   5.372   0.074
13155TIP3    H239411   4.829   5.281   0.046
13156TIP3   OH239412   5.335   2.869   6.555
13156TIP3    H139413   5.256   2.891   6.506
13156TIP3    H239414   5.372   2.954   6.581
13157TIP3   OH239415   3.853   3.934   0.017
13157TIP3    H139416   3.919   3.867   0.034
13157TIP3    H239417   3.899   4.017   0.035
13158TIP3   OH239418   6.688   1.487   2.015
13158TIP3    H139419   6.709   1.511   1.924
13158TIP3    H239420   6.596   1.461   2.012
13159TIP3   OH239421   2.596   2.351   4.373
13159TIP3    H139422   2.507   2.382   4.389
13159TIP3    H239423   2.589   2.297   4.294
13160TIP3   OH239424   3.986   4.889   6.332
13160TIP3    H139425   4.074   4.852   6.340
13160TIP3    H239426   3.998   4.966   6.276
13161TIP3   OH239427   1.191   3.681   1.465
13161TIP3    H139428   1.128   3.751   1.451
13161TIP3    H239429   1.200   3.639   1.380
13162TIP3   OH239430   5.428   4.478   2.946
13162TIP3    H139431   5.501   4.535   2.921
13162TIP3    H239432   5.374   4.472   2.867
13163TIP3   OH239433   4.841   0.543   5.365
13163TIP3    H139434   4.771   0.521   5.304
13163TIP3    H239435   4.813   0.506   5.449
13164TIP3   OH239436   1.533   1.497   2.986
13164TIP3    H139437   1.546   1.463   2.898
13164TIP3    H239438   1.551   1.423   3.044
13165TIP3   OH239439   6.649   2.776   4.875
13165TIP3    H139440   6.680   2.741   4.791
13165TIP3    H239441   6.554   2.765   4.872
13166TIP3   OH239442   4.388   5.481   0.026
13166TIP3    H139443   4.379   5.429  -0.053
13166TIP3    H239444   4.357   5.424   0.097
13167TIP3   OH239445   4.892   6.978   4.264
13167TIP3    H139446   4.986   6.987   4.253
13167TIP3    H239447   4.873   6.888   4.237
13168TIP3   OH239448   5.025   7.555   0.262
13168TIP3    H139449   5.036   7.470   0.305
13168TIP3    H239450   4.935   7.581   0.282
13169TIP3   OH239451   0.445   4.471   1.021
13169TIP3    H139452   0.433   4.409   0.949
13169TIP3    H239453   0.357   4.503   1.040
13170TIP3   OH239454   1.921   7.365   6.207
13170TIP3    H139455   1.968   7.291   6.169
13170TIP3    H239456   1.829   7.351   6.182
13171TIP3   OH239457   8.232   5.200   2.950
13171TIP3    H139458   8.282   5.170   3.025
13171TIP3    H239459   8.286   5.271   2.913
13172TIP3   OH239460   6.314   3.064   4.866
13172TIP3    H139461   6.387   3.120   4.893
13172TIP3    H239462   6.251   3.124   4.826
13173TIP3   OH239463   7.588   1.611   0.379
13173TIP3    H139464   7.505   1.653   0.357
13173TIP3    H239465   7.575   1.519   0.354
13174TIP3   OH239466   5.742   3.123   1.461
13174TIP3    H139467   5.655   3.092   1.486
13174TIP3    H239468   5.802   3.067   1.509
13175TIP3   OH239469   2.838   6.338   4.915
13175TIP3    H139470   2.856   6.281   4.841
13175TIP3    H239471   2.744   6.355   4.911
13176TIP3   OH239472   6.580   5.981   2.417
13176TIP3    H139473   6.607   6.068   2.386
13176TIP3    H239474   6.571   5.929   2.337
13177TIP3   OH239475   0.829   0.302   3.654
13177TIP3    H139476   0.909   0.284   3.702
13177TIP3    H239477   0.759   0.269   3.710
13178TIP3   OH239478   2.443   0.772   0.237
13178TIP3    H139479   2.493   0.720   0.299
13178TIP3    H239480   2.376   0.815   0.290
13179TIP3   OH239481   7.352   5.704   3.205
13179TIP3    H139482   7.271   5.654   3.214
13179TIP3    H239483   7.327   5.780   3.151
13180TIP3   OH239484   6.024   1.119   3.162
13180TIP3    H139485   6.077   1.164   3.228
13180TIP3    H239486   6.082   1.052   3.126
13181TIP3   OH239487   5.161   7.653   5.200
13181TIP3    H139488   5.172   7.642   5.105
13181TIP3    H239489   5.152   7.564   5.234
13182TIP3   OH239490   6.017   1.629   5.514
13182TIP3    H139491   5.926   1.600   5.520
13182TIP3    H239492   6.056   1.574   5.447
13183TIP3   OH239493   8.177   7.241   4.738
13183TIP3    H139494   8.189   7.179   4.810
13183TIP3    H239495   8.091   7.280   4.754
13184TIP3   OH239496   2.594   4.888   3.947
13184TIP3    H139497   2.638   4.940   3.880
13184TIP3    H239498   2.509   4.931   3.958
13185TIP3   OH239499   8.026   7.599   2.471
13185TIP3    H139500   8.033   7.686   2.509
13185TIP3    H239501   8.109   7.586   2.425
13186TIP3   OH239502   6.751   4.773   0.549
13186TIP3    H139503   6.672   4.733   0.586
13186TIP3    H239504   6.757   4.736   0.460
13187TIP3   OH239505   7.932   5.263   4.859
13187TIP3    H139506   7.964   5.352   4.871
13187TIP3    H239507   7.845   5.274   4.820
13188TIP3   OH239508   1.950   6.338   0.072
13188TIP3    H139509   1.946   6.270   0.004
13188TIP3    H239510   1.902   6.300   0.146
13189TIP3   OH239511   2.496   2.835   4.819
13189TIP3    H139512   2.579   2.863   4.778
13189TIP3    H239513   2.498   2.740   4.816
13190TIP3   OH239514   2.455   5.828   4.257
13190TIP3    H139515   2.491   5.829   4.168
13190TIP3    H239516   2.403   5.908   4.263
13191TIP3   OH239517   7.020   4.774   3.486
13191TIP3    H139518   7.077   4.743   3.415
13191TIP3    H239519   7.079   4.789   3.560
13192TIP3   OH239520   1.231   1.563   2.929
13192TIP3    H139521   1.326   1.570   2.934
13192TIP3    H239522   1.215   1.493   2.866
13193TIP3   OH239523   4.874   3.593   0.993
13193TIP3    H139524   4.824   3.588   0.912
13193TIP3    H239525   4.825   3.538   1.055
13194TIP3   OH239526   5.458   3.755   1.751
13194TIP3    H139527   5.442   3.667   1.718
13194TIP3    H239528   5.399   3.765   1.825
13195TIP3   OH239529   5.347   2.069   2.252
13195TIP3    H139530   5.337   2.163   2.237
13195TIP3    H239531   5.440   2.057   2.270
13196TIP3   OH239532   8.149   1.188   5.741
13196TIP3    H139533   8.212   1.115   5.737
13196TIP3    H239534   8.138   1.204   5.835
13197TIP3   OH239535   0.253   6.626   4.968
13197TIP3    H139536   0.296   6.553   4.923
13197TIP3    H239537   0.172   6.588   5.003
13198TIP3   OH239538   6.021   4.176   4.830
13198TIP3    H139539   6.025   4.241   4.900
13198TIP3    H239540   6.051   4.094   4.872
13199TIP3   OH239541   0.737   3.400   6.277
13199TIP3    H139542   0.695   3.382   6.193
13199TIP3    H239543   0.697   3.337   6.338
13200TIP3   OH239544   0.876   0.310   1.439
13200TIP3    H139545   0.861   0.404   1.429
13200TIP3    H239546   0.828   0.271   1.366
13201TIP3   OH239547   1.021   0.792   4.597
13201TIP3    H139548   1.079   0.721   4.568
13201TIP3    H239549   0.947   0.748   4.638
13202TIP3   OH239550   7.695   4.290   1.511
13202TIP3    H139551   7.740   4.234   1.575
13202TIP3    H239552   7.624   4.331   1.561
13203TIP3   OH239553   5.383   1.502   2.784
13203TIP3    H139554   5.396   1.503   2.689
13203TIP3    H239555   5.290   1.519   2.796
13204TIP3   OH239556   2.974   3.961   2.098
13204TIP3    H139557   2.938   3.874   2.116
13204TIP3    H239558   3.064   3.956   2.131
13205TIP3   OH239559   6.743   3.980   1.635
13205TIP3    H139560   6.728   3.975   1.729
13205TIP3    H239561   6.800   3.906   1.616
13206TIP3   OH239562   2.446   0.702   3.330
13206TIP3    H139563   2.417   0.694   3.240
13206TIP3    H239564   2.487   0.788   3.335
13207TIP3   OH239565   4.590   5.385   3.259
13207TIP3    H139566   4.632   5.304   3.287
13207TIP3    H239567   4.603   5.445   3.332
13208TIP3   OH239568   0.458   0.114   1.561
13208TIP3    H139569   0.417   0.139   1.644
13208TIP3    H239570   0.551   0.108   1.581
13209TIP3   OH239571   1.348   0.120   5.110
13209TIP3    H139572   1.437   0.085   5.108
13209TIP3    H239573   1.351   0.191   5.174
13210TIP3   OH239574   0.436   5.220   1.661
13210TIP3    H139575   0.441   5.263   1.575
13210TIP3    H239576   0.528   5.212   1.688
13211TIP3   OH239577   1.265   1.099   3.204
13211TIP3    H139578   1.286   1.181   3.249
13211TIP3    H239579   1.182   1.116   3.160
13212TIP3   OH239580   6.453   1.591   2.349
13212TIP3    H139581   6.408   1.510   2.325
13212TIP3    H239582   6.383   1.654   2.364
13213TIP3   OH239583   7.455   3.449   4.777
13213TIP3    H139584   7.378   3.470   4.725
13213TIP3    H239585   7.506   3.530   4.779
13214TIP3   OH239586   4.466   4.955   1.896
13214TIP3    H139587   4.386   4.996   1.929
13214TIP3    H239588   4.481   4.997   1.811
13215TIP3   OH239589   3.382   3.910   4.345
13215TIP3    H139590   3.465   3.863   4.359
13215TIP3    H239591   3.327   3.847   4.299
13216TIP3   OH239592   4.851   7.344   6.417
13216TIP3    H139593   4.858   7.372   6.508
13216TIP3    H239594   4.908   7.404   6.369
13217TIP3   OH239595   8.265   6.091   2.148
13217TIP3    H139596   8.219   6.127   2.224
13217TIP3    H239597   8.247   6.152   2.077
13218TIP3   OH239598   6.964   6.921   4.553
13218TIP3    H139599   6.908   6.903   4.629
13218TIP3    H239600   7.044   6.873   4.570
13219TIP3   OH239601   5.014   0.241   2.826
13219TIP3    H139602   5.030   0.224   2.733
13219TIP3    H239603   5.093   0.286   2.856
13220TIP3   OH239604   1.303   4.123   3.688
13220TIP3    H139605   1.390   4.152   3.716
13220TIP3    H239606   1.314   4.100   3.596
13221TIP3   OH239607   2.505   4.815   1.297
13221TIP3    H139608   2.462   4.890   1.338
13221TIP3    H239609   2.537   4.849   1.213
13222TIP3   OH239610   8.052   3.299   3.988
13222TIP3    H139611   8.136   3.258   3.970
13222TIP3    H239612   7.991   3.227   4.000
13223TIP3   OH239613   7.549   7.175   0.341
13223TIP3    H139614   7.489   7.161   0.268
13223TIP3    H239615   7.574   7.267   0.335
13224TIP3   OH239616   6.691   0.922   4.407
13224TIP3    H139617   6.646   0.891   4.485
13224TIP3    H239618   6.671   1.016   4.404
13225TIP3   OH239619   4.851   0.539   6.348
13225TIP3    H139620   4.785   0.538   6.417
13225TIP3    H239621   4.821   0.606   6.287
13226TIP3   OH239622   4.222   5.182   4.904
13226TIP3    H139623   4.160   5.222   4.842
13226TIP3    H239624   4.239   5.095   4.868
13227TIP3   OH239625   7.076   5.710   0.430
13227TIP3    H139626   6.985   5.689   0.413
13227TIP3    H239627   7.089   5.690   0.523
13228TIP3   OH239628   2.680   0.524   0.366
13228TIP3    H139629   2.737   0.534   0.442
13228TIP3    H239630   2.738   0.535   0.291
13229TIP3   OH239631   2.700   6.108   0.634
13229TIP3    H139632   2.649   6.169   0.580
13229TIP3    H239633   2.742   6.163   0.700
13230TIP3   OH239634   3.244   6.418   1.270
13230TIP3    H139635   3.154   6.394   1.248
13230TIP3    H239636   3.289   6.423   1.186
13231TIP3   OH239637   0.481   0.629   0.994
13231TIP3    H139638   0.520   0.706   0.952
13231TIP3    H239639   0.395   0.659   1.024
13232TIP3   OH239640   5.649   4.089   0.771
13232TIP3    H139641   5.724   4.030   0.772
13232TIP3    H239642   5.686   4.175   0.756
13233TIP3   OH239643   5.829   7.157   3.516
13233TIP3    H139644   5.835   7.252   3.523
13233TIP3    H239645   5.912   7.124   3.551
13234TIP3   OH239646   1.366   6.828   3.208
13234TIP3    H139647   1.309   6.895   3.171
13234TIP3    H239648   1.455   6.858   3.187
13235TIP3   OH239649   2.207   0.492   0.427
13235TIP3    H139650   2.241   0.411   0.465
13235TIP3    H239651   2.266   0.511   0.354
13236TIP3   OH239652   4.043   3.519   6.215
13236TIP3    H139653   4.060   3.425   6.206
13236TIP3    H239654   3.997   3.542   6.134
13237TIP3   OH239655   6.029   5.989   1.238
13237TIP3    H139656   6.068   5.964   1.322
13237TIP3    H239657   6.044   5.914   1.181
13238TIP3   OH239658   1.017   3.887   1.433
13238TIP3    H139659   1.077   3.956   1.464
13238TIP3    H239660   0.954   3.933   1.378
13239TIP3   OH239661   2.434   4.774   3.254
13239TIP3    H139662   2.486   4.854   3.260
13239TIP3    H239663   2.457   4.725   3.333
13240TIP3   OH239664   7.625   3.104   4.977
13240TIP3    H139665   7.534   3.107   5.008
13240TIP3    H239666   7.653   3.195   4.975
13241TIP3   OH239667   3.754   4.760   4.934
13241TIP3    H139668   3.734   4.679   4.885
13241TIP3    H239669   3.681   4.770   4.995
13242TIP3   OH239670   7.728   7.493   5.494
13242TIP3    H139671   7.802   7.531   5.446
13242TIP3    H239672   7.706   7.414   5.444
13243TIP3   OH239673   6.734   2.651   3.190
13243TIP3    H139674   6.730   2.716   3.260
13243TIP3    H239675   6.727   2.702   3.109
13244TIP3   OH239676   5.473   2.252   6.728
13244TIP3    H139677   5.503   2.223   6.642
13244TIP3    H239678   5.388   2.292   6.712
13245TIP3   OH239679   3.725   5.890   5.724
13245TIP3    H139680   3.659   5.863   5.788
13245TIP3    H239681   3.695   5.853   5.641
13246TIP3   OH239682   3.631   2.066   2.292
13246TIP3    H139683   3.718   2.028   2.278
13246TIP3    H239684   3.606   2.039   2.380
13247TIP3   OH239685   6.189   5.903   1.702
13247TIP3    H139686   6.099   5.921   1.675
13247TIP3    H239687   6.216   5.981   1.750
13248TIP3   OH239688   0.720   7.543   0.173
13248TIP3    H139689   0.804   7.565   0.133
13248TIP3    H239690   0.659   7.534   0.099
13249TIP3   OH239691   4.660   7.245   1.782
13249TIP3    H139692   4.634   7.233   1.690
13249TIP3    H239693   4.714   7.324   1.781
13250TIP3   OH239694   6.825   6.186   6.237
13250TIP3    H139695   6.915   6.216   6.221
13250TIP3    H239696   6.777   6.266   6.257
13251TIP3   OH239697   6.813   0.341   5.162
13251TIP3    H139698   6.738   0.343   5.102
13251TIP3    H239699   6.785   0.284   5.233
13252TIP3   OH239700   6.267   2.002   5.747
13252TIP3    H139701   6.315   2.084   5.758
13252TIP3    H239702   6.284   1.976   5.657
13253TIP3   OH239703   2.832   0.434   3.609
13253TIP3    H139704   2.796   0.475   3.688
13253TIP3    H239705   2.927   0.431   3.625
13254TIP3   OH239706   0.891   1.822   2.009
13254TIP3    H139707   0.919   1.733   2.032
13254TIP3    H239708   0.796   1.818   2.012
13255TIP3   OH239709   2.389   3.865   1.655
13255TIP3    H139710   2.401   3.771   1.641
13255TIP3    H239711   2.478   3.901   1.659
13256TIP3   OH239712   7.457   4.105   1.151
13256TIP3    H139713   7.482   4.164   1.081
13256TIP3    H239714   7.384   4.149   1.195
13257TIP3   OH239715   3.433   6.663   5.367
13257TIP3    H139716   3.373   6.637   5.297
13257TIP3    H239717   3.391   6.635   5.448
13258TIP3   OH239718   3.735   5.649   0.763
13258TIP3    H139719   3.706   5.736   0.791
13258TIP3    H239720   3.821   5.664   0.724
13259TIP3   OH239721   5.125   4.453   0.053
13259TIP3    H139722   5.064   4.407   0.110
13259TIP3    H239723   5.078   4.461  -0.030
13260TIP3   OH239724   8.112   7.535   3.360
13260TIP3    H139725   8.198   7.495   3.350
13260TIP3    H239726   8.069   7.523   3.275
13261TIP3   OH239727   0.134   5.704   5.504
13261TIP3    H139728   0.150   5.615   5.536
13261TIP3    H239729   0.207   5.721   5.444
13262TIP3   OH239730   0.991   4.572   3.751
13262TIP3    H139731   0.909   4.602   3.791
13262TIP3    H239732   1.014   4.493   3.800
13263TIP3   OH239733   6.979   6.311   2.254
13263TIP3    H139734   7.010   6.286   2.167
13263TIP3    H239735   7.053   6.293   2.312
13264TIP3   OH239736   2.791   7.152   0.491
13264TIP3    H139737   2.697   7.133   0.500
13264TIP3    H239738   2.800   7.243   0.519
13265TIP3   OH239739   5.460   0.782   5.833
13265TIP3    H139740   5.475   0.868   5.873
13265TIP3    H239741   5.414   0.801   5.752
13266TIP3   OH239742   7.404   4.018   0.391
13266TIP3    H139743   7.330   3.986   0.339
13266TIP3    H239744   7.372   4.099   0.430
13267TIP3   OH239745   7.561   3.776   5.411
13267TIP3    H139746   7.652   3.755   5.432
13267TIP3    H239747   7.513   3.695   5.427
13268TIP3   OH239748   1.017   4.728   2.973
13268TIP3    H139749   0.987   4.810   3.012
13268TIP3    H239750   1.113   4.735   2.972
13269TIP3   OH239751   7.845   3.611   4.933
13269TIP3    H139752   7.765   3.563   4.911
13269TIP3    H239753   7.862   3.588   5.025
13270TIP3   OH239754   4.587   1.979   5.084
13270TIP3    H139755   4.600   1.895   5.127
13270TIP3    H239756   4.664   2.030   5.108
13271TIP3   OH239757   3.058   6.713   6.605
13271TIP3    H139758   3.137   6.715   6.551
13271TIP3    H239759   3.049   6.802   6.638
13272TIP3   OH239760   4.083   4.734   0.485
13272TIP3    H139761   4.135   4.696   0.415
13272TIP3    H239762   4.112   4.825   0.491
13273TIP3   OH239763   0.729   0.091   1.606
13273TIP3    H139764   0.763   0.121   1.690
13273TIP3    H239765   0.778   0.141   1.541
13274TIP3   OH239766   4.216   4.216   4.882
13274TIP3    H139767   4.285   4.161   4.845
13274TIP3    H239768   4.263   4.290   4.921
13275TIP3   OH239769   0.458   4.542   4.760
13275TIP3    H139770   0.514   4.504   4.691
13275TIP3    H239771   0.369   4.528   4.729
13276TIP3   OH239772   6.041   6.230   3.051
13276TIP3    H139773   6.086   6.199   2.973
13276TIP3    H239774   6.102   6.291   3.092
13277TIP3   OH239775   6.280   1.565   3.847
13277TIP3    H139776   6.328   1.533   3.771
13277TIP3    H239777   6.263   1.487   3.900
13278TIP3   OH239778   1.956   3.760   6.290
13278TIP3    H139779   2.043   3.741   6.324
13278TIP3    H239780   1.964   3.749   6.195
13279TIP3   OH239781   7.025   6.586   1.981
13279TIP3    H139782   6.962   6.532   1.933
13279TIP3    H239783   6.994   6.676   1.967
13280TIP3   OH239784   7.038   4.919   2.249
13280TIP3    H139785   7.133   4.922   2.235
13280TIP3    H239786   7.029   4.893   2.341
13281TIP3   OH239787   3.735   7.639   1.101
13281TIP3    H139788   3.731   7.704   1.171
13281TIP3    H239789   3.783   7.683   1.030
13282TIP3   OH239790   5.055   4.973   3.374
13282TIP3    H139791   4.974   4.930   3.347
13282TIP3    H239792   5.098   4.908   3.430
13283TIP3   OH239793   2.390   1.052   4.155
13283TIP3    H139794   2.427   1.099   4.081
13283TIP3    H239795   2.369   1.120   4.219
13284TIP3   OH239796   7.675   5.305   0.782
13284TIP3    H139797   7.641   5.306   0.872
13284TIP3    H239798   7.719   5.220   0.775
13285TIP3   OH239799   6.935   0.653   6.116
13285TIP3    H139800   6.864   0.642   6.053
13285TIP3    H239801   7.005   0.597   6.083
13286TIP3   OH239802   7.421   5.100   1.816
13286TIP3    H139803   7.356   5.093   1.886
13286TIP3    H239804   7.397   5.030   1.754
13287TIP3   OH239805   3.579   1.410   0.013
13287TIP3    H139806   3.604   1.374   0.098
13287TIP3    H239807   3.513   1.476   0.033
13288TIP3   OH239808   5.138   3.595   1.078
13288TIP3    H139809   5.051   3.586   1.039
13288TIP3    H239810   5.180   3.511   1.062
13289TIP3   OH239811   7.126   1.532   6.711
13289TIP3    H139812   7.137   1.441   6.737
13289TIP3    H239813   7.058   1.530   6.643
13290TIP3   OH239814   1.492   5.974   2.643
13290TIP3    H139815   1.466   5.888   2.676
13290TIP3    H239816   1.462   6.036   2.710
13291TIP3   OH239817   0.459   4.962   0.926
13291TIP3    H139818   0.448   4.930   0.836
13291TIP3    H239819   0.424   5.051   0.924
13292TIP3   OH239820   3.457   4.144   4.239
13292TIP3    H139821   3.372   4.188   4.243
13292TIP3    H239822   3.446   4.064   4.290
13293TIP3   OH239823   1.779   0.492   4.768
13293TIP3    H139824   1.721   0.435   4.719
13293TIP3    H239825   1.722   0.540   4.828
13294TIP3   OH239826   7.382   6.586   0.527
13294TIP3    H139827   7.325   6.662   0.521
13294TIP3    H239828   7.441   6.595   0.452
13295TIP3   OH239829   4.818   6.177   2.877
13295TIP3    H139830   4.868   6.097   2.859
13295TIP3    H239831   4.742   6.146   2.926
13296TIP3   OH239832   3.643   7.528   1.432
13296TIP3    H139833   3.590   7.591   1.481
13296TIP3    H239834   3.584   7.495   1.364
13297TIP3   OH239835   0.218   3.893   5.191
13297TIP3    H139836   0.168   3.971   5.216
13297TIP3    H239837   0.298   3.927   5.150
13298TIP3   OH239838   5.086   5.369   4.361
13298TIP3    H139839   5.114   5.341   4.449
13298TIP3    H239840   5.146   5.323   4.302
13299TIP3   OH239841   0.838   2.713   2.825
13299TIP3    H139842   0.836   2.665   2.743
13299TIP3    H239843   0.920   2.762   2.823
13300TIP3   OH239844   4.121   3.243   6.471
13300TIP3    H139845   4.065   3.272   6.543
13300TIP3    H239846   4.189   3.190   6.514
13301TIP3   OH239847   1.043   7.445   3.620
13301TIP3    H139848   0.950   7.433   3.604
13301TIP3    H239849   1.086   7.377   3.569
13302TIP3   OH239850   4.684   5.777   2.767
13302TIP3    H139851   4.608   5.744   2.816
13302TIP3    H239852   4.686   5.723   2.687
13303TIP3   OH239853   2.026   6.418   1.027
13303TIP3    H139854   1.980   6.499   1.006
13303TIP3    H239855   2.098   6.413   0.964
13304TIP3   OH239856   0.756   4.133   0.531
13304TIP3    H139857   0.830   4.082   0.562
13304TIP3    H239858   0.688   4.120   0.597
13305TIP3   OH239859   0.661   7.454   2.117
13305TIP3    H139860   0.597   7.394   2.078
13305TIP3    H239861   0.690   7.410   2.197
13306TIP3   OH239862   5.808   4.761   0.978
13306TIP3    H139863   5.803   4.839   0.922
13306TIP3    H239864   5.793   4.688   0.919
13307TIP3   OH239865   1.854   4.984   0.770
13307TIP3    H139866   1.901   4.964   0.690
13307TIP3    H239867   1.766   4.950   0.755
13308TIP3   OH239868   4.603   6.172   5.803
13308TIP3    H139869   4.582   6.140   5.716
13308TIP3    H239870   4.646   6.256   5.788
13309TIP3   OH239871   3.207   1.174   0.748
13309TIP3    H139872   3.141   1.162   0.816
13309TIP3    H239873   3.268   1.238   0.785
13310TIP3   OH239874   4.293   2.796   2.395
13310TIP3    H139875   4.378   2.754   2.386
13310TIP3    H239876   4.289   2.858   2.322
13311TIP3   OH239877   1.834   1.321   4.663
13311TIP3    H139878   1.864   1.324   4.754
13311TIP3    H239879   1.835   1.228   4.640
13312TIP3   OH239880   7.813   0.129   4.194
13312TIP3    H139881   7.818   0.081   4.111
13312TIP3    H239882   7.743   0.192   4.180
13313TIP3   OH239883   2.845   6.316   5.646
13313TIP3    H139884   2.776   6.259   5.612
13313TIP3    H239885   2.899   6.260   5.700
13314TIP3   OH239886   4.592   1.063   3.169
13314TIP3    H139887   4.546   0.985   3.200
13314TIP3    H239888   4.669   1.069   3.226
13315TIP3   OH239889   2.861   1.442   6.007
13315TIP3    H139890   2.787   1.405   5.959
13315TIP3    H239891   2.864   1.533   5.978
13316TIP3   OH239892   6.874   6.960   3.113
13316TIP3    H139893   6.823   6.992   3.188
13316TIP3    H239894   6.819   6.979   3.037
13317TIP3   OH239895   2.545   3.143   3.038
13317TIP3    H139896   2.451   3.144   3.019
13317TIP3    H239897   2.573   3.055   3.013
13318TIP3   OH239898   1.279   0.078   0.863
13318TIP3    H139899   1.333   0.052   0.938
13318TIP3    H239900   1.328   0.049   0.787
13319TIP3   OH239901   4.257   0.981   4.146
13319TIP3    H139902   4.215   0.997   4.230
13319TIP3    H239903   4.224   0.896   4.118
13320TIP3   OH239904   4.119   1.836   1.198
13320TIP3    H139905   4.159   1.915   1.161
13320TIP3    H239906   4.026   1.844   1.176
13321TIP3   OH239907   6.141   5.807   0.691
13321TIP3    H139908   6.123   5.849   0.775
13321TIP3    H239909   6.236   5.807   0.684
13322TIP3   OH239910   6.244   0.986   3.052
13322TIP3    H139911   6.316   0.935   3.015
13322TIP3    H239912   6.273   1.007   3.141
13323TIP3   OH239913   2.624   2.509   2.099
13323TIP3    H139914   2.681   2.439   2.066
13323TIP3    H239915   2.567   2.529   2.025
13324TIP3   OH239916   3.167   4.172   0.646
13324TIP3    H139917   3.158   4.190   0.552
13324TIP3    H239918   3.132   4.251   0.689
13325TIP3   OH239919   6.565   5.214   3.357
13325TIP3    H139920   6.534   5.284   3.413
13325TIP3    H239921   6.661   5.219   3.363
13326TIP3   OH239922   6.261   0.267   2.317
13326TIP3    H139923   6.317   0.323   2.372
13326TIP3    H239924   6.173   0.301   2.333
13327TIP3   OH239925   0.716   0.889   1.280
13327TIP3    H139926   0.737   0.938   1.360
13327TIP3    H239927   0.692   0.802   1.311
13328TIP3   OH239928   2.426   2.207   1.961
13328TIP3    H139929   2.519   2.213   1.982
13328TIP3    H239930   2.398   2.123   1.997
13329TIP3   OH239931   2.455   0.438   5.696
13329TIP3    H139932   2.514   0.435   5.621
13329TIP3    H239933   2.475   0.359   5.746
13330TIP3   OH239934   6.662   5.447   2.449
13330TIP3    H139935   6.720   5.476   2.378
13330TIP3    H239936   6.576   5.482   2.426
13331TIP3   OH239937   2.899   0.258   4.543
13331TIP3    H139938   2.811   0.281   4.513
13331TIP3    H239939   2.910   0.309   4.623
13332TIP3   OH239940   4.174   3.999   6.345
13332TIP3    H139941   4.120   3.920   6.351
13332TIP3    H239942   4.117   4.063   6.301
13333TIP3   OH239943   1.661   0.053   4.702
13333TIP3    H139944   1.654   0.024   4.611
13333TIP3    H239945   1.617  -0.015   4.753
13334TIP3   OH239946   3.848   7.693   6.610
13334TIP3    H139947   3.839   7.788   6.600
13334TIP3    H239948   3.912   7.669   6.543
13335TIP3   OH239949   1.361   2.257   4.078
13335TIP3    H139950   1.436   2.215   4.037
13335TIP3    H239951   1.307   2.288   4.005
13336TIP3   OH239952   0.016   3.588   3.464
13336TIP3    H139953   0.022   3.653   3.534
13336TIP3    H239954  -0.057   3.618   3.409
13337TIP3   OH239955   0.850   1.532   6.211
13337TIP3    H139956   0.885   1.611   6.170
13337TIP3    H239957   0.807   1.485   6.139
13338TIP3   OH239958   4.041   1.394   2.495
13338TIP3    H139959   3.978   1.423   2.561
13338TIP3    H239960   4.118   1.369   2.545
13339TIP3   OH239961   5.635   3.663   0.949
13339TIP3    H139962   5.630   3.658   0.853
13339TIP3    H239963   5.547   3.690   0.975
13340TIP3   OH239964   4.265   0.677   5.081
13340TIP3    H139965   4.183   0.725   5.079
13340TIP3    H239966   4.271   0.643   5.171
13341TIP3   OH239967   2.621   6.840   1.658
13341TIP3    H139968   2.689   6.908   1.659
13341TIP3    H239969   2.593   6.834   1.567
13342TIP3   OH239970   2.799   0.234   1.223
13342TIP3    H139971   2.752   0.169   1.172
13342TIP3    H239972   2.747   0.315   1.213
13343TIP3   OH239973   2.963   7.070   0.305
13343TIP3    H139974   2.911   7.103   0.379
13343TIP3    H239975   2.960   7.140   0.241
13344TIP3   OH239976   5.566   1.352   6.520
13344TIP3    H139977   5.642   1.360   6.463
13344TIP3    H239978   5.597   1.380   6.606
13345TIP3   OH239979   1.318   1.916   4.422
13345TIP3    H139980   1.400   1.917   4.373
13345TIP3    H239981   1.285   2.006   4.416
13346TIP3   OH239982   3.065   5.129   5.573
13346TIP3    H139983   2.975   5.152   5.552
13346TIP3    H239984   3.062   5.098   5.664
13347TIP3   OH239985   8.114   4.188   4.102
13347TIP3    H139986   8.163   4.182   4.185
13347TIP3    H239987   8.160   4.255   4.052
13348TIP3   OH239988   3.864   7.595   3.922
13348TIP3    H139989   3.958   7.594   3.935
13348TIP3    H239990   3.845   7.681   3.885
13349TIP3   OH239991   0.863   5.365   1.556
13349TIP3    H139992   0.936   5.309   1.528
13349TIP3    H239993   0.806   5.307   1.606
13350TIP3   OH239994   8.280   3.908   6.202
13350TIP3    H139995   8.236   3.991   6.184
13350TIP3    H239996   8.211   3.851   6.237
13351TIP3   OH239997   3.825   5.676   2.210
13351TIP3    H139998   3.800   5.627   2.289
13351TIP3    H239999   3.899   5.626   2.174
13352TIP3   OH240000   2.429   5.822   1.306
13352TIP3    H140001   2.352   5.772   1.280
13352TIP3    H240002   2.498   5.756   1.317
13353TIP3   OH240003   6.239   0.069   3.727
13353TIP3    H140004   6.259   0.163   3.726
13353TIP3    H240005   6.288   0.034   3.652
13354TIP3   OH240006   0.369   6.353   5.854
13354TIP3    H140007   0.396   6.410   5.926
13354TIP3    H240008   0.282   6.385   5.830
13355TIP3   OH240009   0.138   6.956   1.715
13355TIP3    H140010   0.150   6.902   1.637
13355TIP3    H240011   0.050   6.992   1.705
13356TIP3   OH240012   6.905   2.287   3.649
13356TIP3    H140013   6.943   2.374   3.660
13356TIP3    H240014   6.887   2.257   3.738
13357TIP3   OH240015   1.267   2.278   2.678
13357TIP3    H140016   1.335   2.247   2.618
13357TIP3    H240017   1.186   2.273   2.627
13358TIP3   OH240018   6.479   2.636   5.112
13358TIP3    H140019   6.387   2.656   5.101
13358TIP3    H240020   6.519   2.658   5.028
13359TIP3   OH240021   1.861   1.960   4.724
13359TIP3    H140022   1.879   2.025   4.792
13359TIP3    H240023   1.766   1.949   4.726
13360TIP3   OH240024   2.215   3.284   5.201
13360TIP3    H140025   2.207   3.362   5.256
13360TIP3    H240026   2.132   3.278   5.155
13361TIP3   OH240027   3.475   1.818   3.414
13361TIP3    H140028   3.459   1.774   3.497
13361TIP3    H240029   3.484   1.911   3.437
13362TIP3   OH240030   5.302   2.327   2.194
13362TIP3    H140031   5.299   2.379   2.114
13362TIP3    H240032   5.266   2.384   2.261
13363TIP3   OH240033   7.327   2.597   0.730
13363TIP3    H140034   7.272   2.575   0.654
13363TIP3    H240035   7.407   2.632   0.692
13364TIP3   OH240036   5.257   0.417   2.006
13364TIP3    H140037   5.218   0.345   2.056
13364TIP3    H240038   5.182   0.468   1.975
13365TIP3   OH240039   8.089   3.476   3.620
13365TIP3    H140040   8.023   3.476   3.689
13365TIP3    H240041   8.161   3.528   3.655
13366TIP3   OH240042   0.969   0.319   2.310
13366TIP3    H140043   1.035   0.293   2.247
13366TIP3    H240044   0.990   0.269   2.389
13367TIP3   OH240045   1.846   2.684   3.256
13367TIP3    H140046   1.899   2.736   3.195
13367TIP3    H240047   1.909   2.632   3.304
13368TIP3   OH240048   1.226   3.190   5.228
13368TIP3    H140049   1.300   3.132   5.248
13368TIP3    H240050   1.152   3.131   5.215
13369TIP3   OH240051   2.492   4.637   4.019
13369TIP3    H140052   2.517   4.723   3.986
13369TIP3    H240053   2.540   4.575   3.964
13370TIP3   OH240054   2.202   2.771   0.019
13370TIP3    H140055   2.110   2.769   0.043
13370TIP3    H240056   2.219   2.687  -0.023
13371TIP3   OH240057   5.359   1.650   6.566
13371TIP3    H140058   5.287   1.655   6.504
13371TIP3    H240059   5.437   1.636   6.512
13372TIP3   OH240060   5.188   3.566   3.326
13372TIP3    H140061   5.172   3.624   3.400
13372TIP3    H240062   5.191   3.625   3.250
13373TIP3   OH240063   3.089   4.516   1.001
13373TIP3    H140064   3.064   4.431   1.036
13373TIP3    H240065   3.008   4.568   1.004
13374TIP3   OH240066   1.604   0.616   4.972
13374TIP3    H140067   1.563   0.702   4.956
13374TIP3    H240068   1.531   0.559   4.996
13375TIP3   OH240069   0.695   2.002   0.078
13375TIP3    H140070   0.746   1.925   0.102
13375TIP3    H240071   0.697   2.004  -0.018
13376TIP3   OH240072   3.422   1.153   1.219
13376TIP3    H140073   3.355   1.211   1.255
13376TIP3    H240074   3.384   1.065   1.225
13377TIP3   OH240075   1.838   3.592   1.032
13377TIP3    H140076   1.840   3.513   1.088
13377TIP3    H240077   1.747   3.621   1.034
13378TIP3   OH240078   2.800   4.124   5.244
13378TIP3    H140079   2.765   4.212   5.245
13378TIP3    H240080   2.866   4.125   5.174
13379TIP3   OH240081   1.849   5.973   5.008
13379TIP3    H140082   1.838   5.880   5.025
13379TIP3    H240083   1.786   5.993   4.939
13380TIP3   OH240084   3.659   3.456   4.175
13380TIP3    H140085   3.686   3.369   4.147
13380TIP3    H240086   3.728   3.514   4.142
13381TIP3   OH240087   7.571   3.156   1.347
13381TIP3    H140088   7.621   3.134   1.268
13381TIP3    H240089   7.633   3.146   1.419
13382TIP3   OH240090   2.484   5.866   0.503
13382TIP3    H140091   2.414   5.902   0.449
13382TIP3    H240092   2.565   5.889   0.457
13383TIP3   OH240093   1.964   2.747   6.015
13383TIP3    H140094   1.997   2.688   5.947
13383TIP3    H240095   2.039   2.759   6.074
13384TIP3   OH240096   4.426   5.772   5.559
13384TIP3    H140097   4.373   5.706   5.513
13384TIP3    H240098   4.494   5.797   5.496
13385TIP3   OH240099   2.069   3.269   1.228
13385TIP3    H140100   2.139   3.315   1.276
13385TIP3    H240101   2.082   3.293   1.137
13386TIP3   OH240102   5.140   6.500   3.051
13386TIP3    H140103   5.083   6.424   3.058
13386TIP3    H240104   5.094   6.560   2.993
13387TIP3   OH240105   1.492   0.527   6.679
13387TIP3    H140106   1.475   0.476   6.758
13387TIP3    H240107   1.584   0.511   6.659
13388TIP3   OH240108   0.729   0.246   6.023
13388TIP3    H140109   0.753   0.283   5.938
13388TIP3    H240110   0.741   0.319   6.085
13389TIP3   OH240111   0.517   1.875   5.269
13389TIP3    H140112   0.473   1.933   5.207
13389TIP3    H240113   0.470   1.792   5.262
13390TIP3   OH240114   2.184   3.672   4.349
13390TIP3    H140115   2.209   3.580   4.360
13390TIP3    H240116   2.095   3.677   4.386
13391TIP3   OH240117   0.395   7.800   1.941
13391TIP3    H140118   0.300   7.789   1.933
13391TIP3    H240119   0.430   7.712   1.929
13392TIP3   OH240120   4.228   5.551   4.643
13392TIP3    H140121   4.212   5.497   4.720
13392TIP3    H240122   4.176   5.510   4.574
13393TIP3   OH240123   1.127   6.223   5.855
13393TIP3    H140124   1.143   6.293   5.791
13393TIP3    H240125   1.055   6.172   5.818
13394TIP3   OH240126   4.342   0.934   5.629
13394TIP3    H140127   4.322   0.921   5.722
13394TIP3    H240128   4.362   1.028   5.623
13395TIP3   OH240129   1.444   0.984   1.152
13395TIP3    H140130   1.452   0.892   1.177
13395TIP3    H240131   1.371   1.017   1.205
13396TIP3   OH240132   6.182   4.678   1.223
13396TIP3    H140133   6.270   4.685   1.259
13396TIP3    H240134   6.167   4.763   1.181
13397TIP3   OH240135   5.714   0.963   2.427
13397TIP3    H140136   5.671   0.878   2.443
13397TIP3    H240137   5.798   0.940   2.388
13398TIP3   OH240138   1.406   7.363   0.631
13398TIP3    H140139   1.433   7.272   0.618
13398TIP3    H240140   1.385   7.395   0.544
13399TIP3   OH240141   3.391   7.496   3.082
13399TIP3    H140142   3.300   7.471   3.063
13399TIP3    H240143   3.425   7.527   2.999
13400TIP3   OH240144   6.416   5.007   4.011
13400TIP3    H140145   6.499   4.958   4.014
13400TIP3    H240146   6.354   4.947   3.971
13401TIP3   OH240147   7.330   1.140   2.278
13401TIP3    H140148   7.327   1.045   2.263
13401TIP3    H240149   7.414   1.154   2.322
13402TIP3   OH240150   8.016   6.905   0.797
13402TIP3    H140151   8.074   6.981   0.799
13402TIP3    H240152   8.073   6.832   0.772
13403TIP3   OH240153   7.113   0.814   2.441
13403TIP3    H140154   7.083   0.905   2.451
13403TIP3    H240155   7.153   0.794   2.525
13404TIP3   OH240156   3.210   5.367   4.525
13404TIP3    H140157   3.260   5.433   4.574
13404TIP3    H240158   3.153   5.326   4.590
13405TIP3   OH240159   5.889   3.920   0.742
13405TIP3    H140160   5.911   3.901   0.833
13405TIP3    H240161   5.890   3.835   0.699
13406TIP3   OH240162   4.718   5.899   2.540
13406TIP3    H140163   4.739   5.885   2.632
13406TIP3    H240164   4.719   5.994   2.529
13407TIP3   OH240165   6.520   1.201   0.632
13407TIP3    H140166   6.545   1.290   0.609
13407TIP3    H240167   6.599   1.149   0.616
13408TIP3   OH240168   2.879   5.517   3.107
13408TIP3    H140169   2.795   5.497   3.064
13408TIP3    H240170   2.859   5.589   3.166
13409TIP3   OH240171   4.241   5.842   1.725
13409TIP3    H140172   4.201   5.926   1.704
13409TIP3    H240173   4.293   5.819   1.648
13410TIP3   OH240174   7.535   0.440   6.326
13410TIP3    H140175   7.626   0.440   6.355
13410TIP3    H240176   7.489   0.491   6.393
13411TIP3   OH240177   4.749   0.538   0.320
13411TIP3    H140178   4.779   0.581   0.240
13411TIP3    H240179   4.655   0.555   0.322
13412TIP3   OH240180   5.524   5.567   2.092
13412TIP3    H140181   5.535   5.659   2.113
13412TIP3    H240182   5.547   5.520   2.173
13413TIP3   OH240183   4.122   3.754   1.005
13413TIP3    H140184   4.217   3.750   1.017
13413TIP3    H240185   4.088   3.683   1.059
13414TIP3   OH240186   2.164   4.703   1.406
13414TIP3    H140187   2.195   4.747   1.327
13414TIP3    H240188   2.170   4.770   1.475
13415TIP3   OH240189   4.825   2.333   3.159
13415TIP3    H140190   4.731   2.350   3.166
13415TIP3    H240191   4.838   2.309   3.067
13416TIP3   OH240192   3.518   7.689   3.248
13416TIP3    H140193   3.595   7.689   3.192
13416TIP3    H240194   3.465   7.616   3.216
13417TIP3   OH240195   6.643   4.495   3.711
13417TIP3    H140196   6.606   4.508   3.798
13417TIP3    H240197   6.567   4.499   3.653
13418TIP3   OH240198   2.819   1.403   3.336
13418TIP3    H140199   2.853   1.317   3.312
13418TIP3    H240200   2.886   1.464   3.308
13419TIP3   OH240201   3.414   2.207   1.346
13419TIP3    H140202   3.358   2.169   1.413
13419TIP3    H240203   3.454   2.283   1.387
13420TIP3   OH240204   1.827   7.729   2.031
13420TIP3    H140205   1.803   7.799   1.971
13420TIP3    H240206   1.836   7.773   2.116
13421TIP3   OH240207   5.789   0.968   1.251
13421TIP3    H140208   5.884   0.959   1.240
13421TIP3    H240209   5.772   1.062   1.242
13422TIP3   OH240210   3.618   6.235   1.352
13422TIP3    H140211   3.664   6.156   1.324
13422TIP3    H240212   3.527   6.208   1.363
13423TIP3   OH240213   7.384   6.585   5.368
13423TIP3    H140214   7.291   6.591   5.390
13423TIP3    H240215   7.402   6.491   5.365
13424TIP3   OH240216   6.188   2.728   5.699
13424TIP3    H140217   6.203   2.740   5.605
13424TIP3    H240218   6.253   2.784   5.741
13425TIP3   OH240219   2.498   3.264   1.872
13425TIP3    H140220   2.476   3.332   1.808
13425TIP3    H240221   2.565   3.305   1.927
13426TIP3   OH240222   8.053   3.548   5.655
13426TIP3    H140223   7.963   3.530   5.630
13426TIP3    H240224   8.048   3.571   5.748
13427TIP3   OH240225   1.176   3.197   3.163
13427TIP3    H140226   1.082   3.197   3.147
13427TIP3    H240227   1.192   3.115   3.209
13428TIP3   OH240228   4.874   5.861   1.119
13428TIP3    H140229   4.935   5.893   1.052
13428TIP3    H240230   4.924   5.863   1.200
13429TIP3   OH240231   2.583   5.060   4.414
13429TIP3    H140232   2.556   4.969   4.425
13429TIP3    H240233   2.608   5.088   4.502
13430TIP3   OH240234   0.482   6.432   0.655
13430TIP3    H140235   0.519   6.371   0.590
13430TIP3    H240236   0.397   6.455   0.619
13431TIP3   OH240237   1.682   7.677   0.444
13431TIP3    H140238   1.772   7.648   0.432
13431TIP3    H240239   1.679   7.764   0.406
13432TIP3   OH240240   4.033   6.400   4.333
13432TIP3    H140241   3.940   6.417   4.346
13432TIP3    H240242   4.048   6.413   4.239
13433TIP3   OH240243   0.726   6.221   0.165
13433TIP3    H140244   0.788   6.149   0.177
13433TIP3    H240245   0.774   6.286   0.114
13434TIP3   OH240246   6.801   3.577   2.037
13434TIP3    H140247   6.736   3.613   1.976
13434TIP3    H240248   6.882   3.571   1.985
13435TIP3   OH240249   8.302   7.688   5.242
13435TIP3    H140250   8.365   7.743   5.195
13435TIP3    H240251   8.237   7.749   5.276
13436TIP3   OH240252   6.821   1.261   1.266
13436TIP3    H140253   6.754   1.329   1.262
13436TIP3    H240254   6.831   1.243   1.360
13437TIP3   OH240255   0.954   1.267   4.090
13437TIP3    H140256   1.021   1.225   4.036
13437TIP3    H240257   1.003   1.311   4.160
13438TIP3   OH240258   3.704   2.221   0.962
13438TIP3    H140259   3.666   2.292   1.014
13438TIP3    H240260   3.680   2.141   1.009
13439TIP3   OH240261   0.650   7.322   2.385
13439TIP3    H140262   0.563   7.294   2.358
13439TIP3    H240263   0.636   7.367   2.468
13440TIP3   OH240264   7.892   6.300   5.922
13440TIP3    H140265   7.799   6.319   5.911
13440TIP3    H240266   7.916   6.346   6.003
13441TIP3   OH240267   3.871   7.045   5.649
13441TIP3    H140268   3.789   7.030   5.697
13441TIP3    H240269   3.928   6.972   5.676
13442TIP3   OH240270   6.255   4.643   2.207
13442TIP3    H140271   6.262   4.727   2.161
13442TIP3    H240272   6.301   4.657   2.290
13443TIP3   OH240273   1.655   7.546   6.436
13443TIP3    H140274   1.707   7.621   6.465
13443TIP3    H240275   1.704   7.470   6.468
13444TIP3   OH240276   8.095   0.986   4.200
13444TIP3    H140277   8.075   0.894   4.187
13444TIP3    H240278   8.157   1.007   4.130
13445TIP3   OH240279   1.521   4.485   0.090
13445TIP3    H140280   1.563   4.477   0.176
13445TIP3    H240281   1.554   4.409   0.041
13446TIP3   OH240282   7.301   5.160   5.155
13446TIP3    H140283   7.374   5.222   5.149
13446TIP3    H240284   7.236   5.205   5.209
13447TIP3   OH240285   4.188   2.091  -0.001
13447TIP3    H140286   4.116   2.068  -0.060
13447TIP3    H240287   4.150   2.082   0.087
13448TIP3   OH240288   6.089   0.825   0.745
13448TIP3    H140289   6.052   0.773   0.816
13448TIP3    H240290   6.024   0.820   0.675
13449TIP3   OH240291   8.129   0.432   1.682
13449TIP3    H140292   8.195   0.500   1.665
13449TIP3    H240293   8.144   0.405   1.772
13450TIP3   OH240294   4.618   0.048   0.184
13450TIP3    H140295   4.549   0.097   0.228
13450TIP3    H240296   4.682   0.030   0.253
13451TIP3   OH240297   0.538   0.213   1.863
13451TIP3    H140298   0.558   0.121   1.878
13451TIP3    H240299   0.624   0.255   1.857
13452TIP3   OH240300   0.024   5.464   3.949
13452TIP3    H140301   0.052   5.416   3.871
13452TIP3    H240302  -0.058   5.421   3.975
13453TIP3   OH240303   4.651   7.050   1.203
13453TIP3    H140304   4.555   7.051   1.209
13453TIP3    H240305   4.676   6.963   1.234
13454TIP3   OH240306   0.726   0.477   4.158
13454TIP3    H140307   0.802   0.521   4.119
13454TIP3    H240308   0.652   0.534   4.137
13455TIP3   OH240309   1.874   2.126   6.669
13455TIP3    H140310   1.859   2.072   6.747
13455TIP3    H240311   1.787   2.138   6.630
13456TIP3   OH240312   2.535   1.715   0.617
13456TIP3    H140313   2.487   1.664   0.552
13456TIP3    H240314   2.471   1.778   0.651
13457TIP3   OH240315   0.975   5.858   6.058
13457TIP3    H140316   0.966   5.892   6.147
13457TIP3    H240317   0.897   5.889   6.012
13458TIP3   OH240318   1.755   1.356   5.302
13458TIP3    H140319   1.661   1.360   5.320
13458TIP3    H240320   1.768   1.413   5.226
13459TIP3   OH240321   1.511   2.429   2.355
13459TIP3    H140322   1.443   2.496   2.346
13459TIP3    H240323   1.525   2.422   2.450
13460TIP3   OH240324   4.198   2.072   3.892
13460TIP3    H140325   4.229   2.073   3.983
13460TIP3    H240326   4.213   1.982   3.863
13461TIP3   OH240327   4.040   2.538   4.500
13461TIP3    H140328   4.059   2.478   4.571
13461TIP3    H240329   3.974   2.493   4.447
13462TIP3   OH240330   6.900   1.967   2.890
13462TIP3    H140331   6.841   2.033   2.926
13462TIP3    H240332   6.906   1.900   2.958
13463TIP3   OH240333   4.097   1.114   6.089
13463TIP3    H140334   4.145   1.193   6.061
13463TIP3    H240335   4.096   1.118   6.184
13464TIP3   OH240336   7.226   6.581   4.089
13464TIP3    H140337   7.218   6.488   4.070
13464TIP3    H240338   7.307   6.589   4.140
13465TIP3   OH240339   3.734   3.552   2.313
13465TIP3    H140340   3.717   3.462   2.285
13465TIP3    H240341   3.654   3.600   2.290
13466TIP3   OH240342   4.227   1.402   1.480
13466TIP3    H140343   4.254   1.479   1.429
13466TIP3    H240344   4.148   1.430   1.526
13467TIP3   OH240345   1.934   3.309   2.882
13467TIP3    H140346   2.004   3.260   2.923
13467TIP3    H240347   1.976   3.357   2.811
13468TIP3   OH240348   2.526   0.800   5.309
13468TIP3    H140349   2.457   0.857   5.343
13468TIP3    H240350   2.569   0.851   5.241
13469TIP3   OH240351   8.019   4.005   2.198
13469TIP3    H140352   7.933   3.993   2.239
13469TIP3    H240353   8.051   3.916   2.182
13470TIP3   OH240354   7.689   1.223   6.303
13470TIP3    H140355   7.685   1.177   6.387
13470TIP3    H240356   7.641   1.167   6.242
13471TIP3   OH240357   2.104   7.456   6.405
13471TIP3    H140358   2.090   7.364   6.385
13471TIP3    H240359   2.104   7.499   6.319
13472TIP3   OH240360   3.275   3.940   2.130
13472TIP3    H140361   3.304   3.888   2.205
13472TIP3    H240362   3.320   4.024   2.140
13473TIP3   OH240363   8.245   6.148   3.314
13473TIP3    H140364   8.316   6.119   3.370
13473TIP3    H240365   8.173   6.166   3.374
13474TIP3   OH240366   2.929   1.641   4.827
13474TIP3    H140367   2.946   1.733   4.805
13474TIP3    H240368   2.836   1.629   4.809
13475TIP3   OH240369   0.202   7.515   0.541
13475TIP3    H140370   0.192   7.460   0.618
13475TIP3    H240371   0.115   7.550   0.525
13476TIP3   OH240372   1.801   0.830   5.350
13476TIP3    H140373   1.836   0.904   5.300
13476TIP3    H240374   1.736   0.869   5.408
13477TIP3   OH240375   0.496   6.262   4.236
13477TIP3    H140376   0.487   6.357   4.225
13477TIP3    H240377   0.587   6.244   4.212
13478TIP3   OH240378   3.318   0.096   4.045
13478TIP3    H140379   3.223   0.087   4.050
13478TIP3    H240380   3.337   0.174   4.098
13479TIP3   OH240381   4.566   5.134   4.454
13479TIP3    H140382   4.647   5.140   4.403
13479TIP3    H240383   4.510   5.203   4.418
13480TIP3   OH240384   0.265   4.928   3.641
13480TIP3    H140385   0.284   4.938   3.734
13480TIP3    H240386   0.181   4.972   3.629
13481TIP3   OH240387   6.221   2.676   1.339
13481TIP3    H140388   6.190   2.610   1.277
13481TIP3    H240389   6.238   2.753   1.286
13482TIP3   OH240390   4.924   2.735   0.157
13482TIP3    H140391   4.933   2.739   0.062
13482TIP3    H240392   4.894   2.645   0.174
13483TIP3   OH240393   5.866   0.800   5.608
13483TIP3    H140394   5.886   0.859   5.681
13483TIP3    H240395   5.775   0.819   5.585
13484TIP3   OH240396   1.003   5.161   5.214
13484TIP3    H140397   1.065   5.233   5.231
13484TIP3    H240398   0.921   5.190   5.254
13485TIP3   OH240399   0.464   4.022   6.483
13485TIP3    H140400   0.381   4.056   6.518
13485TIP3    H240401   0.522   4.098   6.483
13486TIP3   OH240402   2.511   7.824   4.744
13486TIP3    H140403   2.513   7.800   4.651
13486TIP3    H240404   2.580   7.772   4.784
13487TIP3   OH240405   7.025   3.392   1.726
13487TIP3    H140406   7.112   3.366   1.695
13487TIP3    H240407   6.969   3.386   1.649
13488TIP3   OH240408   6.627   5.624   0.432
13488TIP3    H140409   6.684   5.616   0.355
13488TIP3    H240410   6.622   5.535   0.467
13489TIP3   OH240411   2.630   0.637   6.156
13489TIP3    H140412   2.576   0.715   6.149
13489TIP3    H240413   2.655   0.633   6.249
13490TIP3   OH240414   1.796   1.083   5.471
13490TIP3    H140415   1.867   1.075   5.535
13490TIP3    H240416   1.721   1.043   5.515
13491TIP3   OH240417   3.798   3.558   6.576
13491TIP3    H140418   3.753   3.610   6.509
13491TIP3    H240419   3.730   3.536   6.639
13492TIP3   OH240420   7.588   4.917   2.922
13492TIP3    H140421   7.605   4.854   2.993
13492TIP3    H240422   7.493   4.917   2.912
13493TIP3   OH240423   2.862   7.573   6.697
13493TIP3    H140424   2.901   7.588   6.783
13493TIP3    H240425   2.899   7.642   6.641
13494TIP3   OH240426   7.982   5.565   0.544
13494TIP3    H140427   8.062   5.514   0.556
13494TIP3    H240428   7.962   5.600   0.631
13495TIP3   OH240429   2.844   1.640   1.107
13495TIP3    H140430   2.902   1.598   1.043
13495TIP3    H240431   2.772   1.676   1.055
13496TIP3   OH240432   1.016   4.081   5.062
13496TIP3    H140433   1.071   4.155   5.089
13496TIP3    H240434   0.992   4.038   5.144
13497TIP3   OH240435   1.955   7.429   5.833
13497TIP3    H140436   2.050   7.437   5.841
13497TIP3    H240437   1.933   7.352   5.886
13498TIP3   OH240438   1.256   4.816   0.156
13498TIP3    H140439   1.223   4.822   0.066
13498TIP3    H240440   1.265   4.722   0.171
13499TIP3   OH240441   1.421   5.453   2.810
13499TIP3    H140442   1.507   5.429   2.774
13499TIP3    H240443   1.407   5.392   2.882
13500TIP3   OH240444   7.294   1.196   3.690
13500TIP3    H140445   7.337   1.143   3.622
13500TIP3    H240446   7.226   1.139   3.725
13501TIP3   OH240447   3.913   1.279   1.282
13501TIP3    H140448   3.817   1.286   1.274
13501TIP3    H240449   3.945   1.297   1.194
13502TIP3   OH240450   6.695   3.574   3.697
13502TIP3    H140451   6.735   3.559   3.783
13502TIP3    H240452   6.767   3.560   3.635
13503TIP3   OH240453   4.840   4.771   3.348
13503TIP3    H140454   4.874   4.682   3.355
13503TIP3    H240455   4.753   4.766   3.388
13504TIP3   OH240456   2.484   1.599   4.663
13504TIP3    H140457   2.490   1.694   4.670
13504TIP3    H240458   2.399   1.583   4.622
13505TIP3   OH240459   8.171   2.790   6.027
13505TIP3    H140460   8.172   2.791   6.123
13505TIP3    H240461   8.191   2.699   6.004
13506TIP3   OH240462   2.303   6.050   3.258
13506TIP3    H140463   2.366   6.105   3.304
13506TIP3    H240464   2.356   5.994   3.202
13507TIP3   OH240465   4.763   7.314   3.302
13507TIP3    H140466   4.759   7.298   3.396
13507TIP3    H240467   4.741   7.407   3.293
13508TIP3   OH240468   0.245   2.232   5.024
13508TIP3    H140469   0.331   2.274   5.020
13508TIP3    H240470   0.211   2.255   5.110
13509TIP3   OH240471   6.141   3.335   1.638
13509TIP3    H140472   6.232   3.366   1.637
13509TIP3    H240473   6.089   3.414   1.629
13510TIP3   OH240474   1.864   2.127   3.345
13510TIP3    H140475   1.926   2.155   3.278
13510TIP3    H240476   1.900   2.163   3.426
13511TIP3   OH240477   2.823   5.397   3.382
13511TIP3    H140478   2.771   5.438   3.312
13511TIP3    H240479   2.887   5.343   3.335
13512TIP3   OH240480   0.281   3.459   3.632
13512TIP3    H140481   0.191   3.477   3.660
13512TIP3    H240482   0.272   3.418   3.546
13513TIP3   OH240483   5.600   4.148   5.255
13513TIP3    H140484   5.602   4.212   5.327
13513TIP3    H240485   5.621   4.199   5.177
13514TIP3   OH240486   3.814   6.522   5.996
13514TIP3    H140487   3.778   6.528   6.085
13514TIP3    H240488   3.890   6.581   5.997
13515TIP3   OH240489   8.027   4.510   1.938
13515TIP3    H140490   7.977   4.575   1.889
13515TIP3    H240491   7.971   4.433   1.939
13516TIP3   OH240492   6.704   4.471   5.703
13516TIP3    H140493   6.781   4.525   5.687
13516TIP3    H240494   6.740   4.387   5.732
13517TIP3   OH240495   6.241   5.647   2.621
13517TIP3    H140496   6.211   5.727   2.665
13517TIP3    H240497   6.160   5.598   2.604
13518TIP3   OH240498   0.893   2.751   5.817
13518TIP3    H140499   0.838   2.678   5.845
13518TIP3    H240500   0.944   2.775   5.894
13519TIP3   OH240501   2.845   0.854   0.527
13519TIP3    H140502   2.807   0.767   0.539
13519TIP3    H240503   2.907   0.843   0.455
13520TIP3   OH240504   7.886   7.439   1.411
13520TIP3    H140505   7.864   7.499   1.482
13520TIP3    H240506   7.945   7.488   1.354
13521TIP3   OH240507   6.630   5.531   4.198
13521TIP3    H140508   6.595   5.541   4.287
13521TIP3    H240509   6.619   5.617   4.158
13522TIP3   OH240510   1.011   6.780   2.045
13522TIP3    H140511   1.049   6.705   2.091
13522TIP3    H240512   0.975   6.835   2.114
13523TIP3   OH240513   6.271   6.970   3.109
13523TIP3    H140514   6.242   6.930   3.027
13523TIP3    H240515   6.192   7.009   3.146
13524TIP3   OH240516   7.685   3.274   2.304
13524TIP3    H140517   7.669   3.185   2.336
13524TIP3    H240518   7.637   3.279   2.221
13525TIP3   OH240519   7.791   7.770   5.145
13525TIP3    H140520   7.821   7.860   5.143
13525TIP3    H240521   7.742   7.759   5.063
13526TIP3   OH240522   0.724   5.186   0.008
13526TIP3    H140523   0.780   5.114  -0.021
13526TIP3    H240524   0.765   5.219   0.087
13527TIP3   OH240525   0.645   4.894   2.320
13527TIP3    H140526   0.594   4.835   2.375
13527TIP3    H240527   0.580   4.940   2.267
13528TIP3   OH240528   7.431   2.892   4.717
13528TIP3    H140529   7.426   2.925   4.627
13528TIP3    H240530   7.518   2.917   4.747
13529TIP3   OH240531   2.552   0.687   2.147
13529TIP3    H140532   2.569   0.743   2.072
13529TIP3    H240533   2.483   0.627   2.117
13530TIP3   OH240534   5.879   2.650   2.287
13530TIP3    H140535   5.923   2.666   2.371
13530TIP3    H240536   5.835   2.566   2.299
13531TIP3   OH240537   0.572   1.719   4.489
13531TIP3    H140538   0.588   1.660   4.415
13531TIP3    H240539   0.621   1.799   4.467
13532TIP3   OH240540   7.386   2.376   2.455
13532TIP3    H140541   7.456   2.438   2.475
13532TIP3    H240542   7.424   2.319   2.388
13533TIP3   OH240543   2.249   1.523   1.533
13533TIP3    H140544   2.168   1.475   1.549
13533TIP3    H240545   2.271   1.563   1.617
13534TIP3   OH240546   2.436   5.867   6.352
13534TIP3    H140547   2.416   5.954   6.388
13534TIP3    H240548   2.381   5.860   6.274
13535TIP3   OH240549   5.439   5.432   0.395
13535TIP3    H140550   5.413   5.513   0.351
13535TIP3    H240551   5.442   5.366   0.326
13536TIP3   OH240552   2.901   1.452   5.246
13536TIP3    H140553   2.925   1.381   5.186
13536TIP3    H240554   2.845   1.509   5.194
13537TIP3   OH240555   5.350   1.803   3.763
13537TIP3    H140556   5.296   1.852   3.825
13537TIP3    H240557   5.332   1.843   3.678
13538TIP3   OH240558   5.838   2.659   2.596
13538TIP3    H140559   5.917   2.686   2.644
13538TIP3    H240560   5.789   2.741   2.584
13539TIP3   OH240561   4.707   2.854   5.526
13539TIP3    H140562   4.621   2.872   5.487
13539TIP3    H240563   4.742   2.940   5.548
13540TIP3   OH240564   7.504   4.416   1.295
13540TIP3    H140565   7.462   4.502   1.295
13540TIP3    H240566   7.519   4.397   1.388
13541TIP3   OH240567   0.408   2.515   4.057
13541TIP3    H140568   0.369   2.557   4.134
13541TIP3    H240569   0.349   2.442   4.037
13542TIP3   OH240570   4.666   1.833   2.463
13542TIP3    H140571   4.645   1.774   2.535
13542TIP3    H240572   4.762   1.830   2.457
13543TIP3   OH240573   6.595   2.841   3.791
13543TIP3    H140574   6.511   2.858   3.748
13543TIP3    H240575   6.598   2.903   3.863
13544TIP3   OH240576   0.029   5.893   4.647
13544TIP3    H140577  -0.038   5.949   4.607
13544TIP3    H240578   0.074   5.950   4.710
13545TIP3   OH240579   0.203   3.298   4.501
13545TIP3    H140580   0.172   3.387   4.517
13545TIP3    H240581   0.143   3.263   4.435
13546TIP3   OH240582   6.861   4.809   3.048
13546TIP3    H140583   6.806   4.887   3.043
13546TIP3    H240584   6.932   4.833   3.107
13547TIP3   OH240585   8.234   2.857   3.796
13547TIP3    H140586   8.299   2.795   3.762
13547TIP3    H240587   8.284   2.918   3.850
13548TIP3   OH240588   7.174   3.887   4.424
13548TIP3    H140589   7.166   3.831   4.501
13548TIP3    H240590   7.083   3.909   4.402
13549TIP3   OH240591   7.987   6.669   1.265
13549TIP3    H140592   7.954   6.672   1.175
13549TIP3    H240593   7.934   6.733   1.312
13550TIP3   OH240594   5.014   6.164   4.469
13550TIP3    H140595   5.009   6.156   4.564
13550TIP3    H240596   4.923   6.163   4.440
13551TIP3   OH240597   8.229   3.061   4.126
13551TIP3    H140598   8.175   2.999   4.174
13551TIP3    H240599   8.273   3.007   4.060
13552TIP3   OH240600   2.978   3.493   5.130
13552TIP3    H140601   3.029   3.552   5.186
13552TIP3    H240602   2.981   3.409   5.175
13553TIP3   OH240603   0.134   6.401   3.873
13553TIP3    H140604   0.208   6.461   3.890
13553TIP3    H240605   0.073   6.453   3.821
13554TIP3   OH240606   0.479   4.667   5.001
13554TIP3    H140607   0.493   4.761   4.988
13554TIP3    H240608   0.472   4.631   4.912
13555TIP3   OH240609   0.516   7.668   6.258
13555TIP3    H140610   0.509   7.613   6.180
13555TIP3    H240611   0.510   7.608   6.331
13556TIP3   OH240612   1.371   3.827   4.238
13556TIP3    H140613   1.434   3.756   4.248
13556TIP3    H240614   1.344   3.848   4.328
13557TIP3   OH240615   5.649   6.007   1.453
13557TIP3    H140616   5.708   6.074   1.485
13557TIP3    H240617   5.575   6.055   1.416
13558TIP3   OH240618   3.498   0.587   2.271
13558TIP3    H140619   3.431   0.533   2.314
13558TIP3    H240620   3.448   0.659   2.233
13559TIP3   OH240621   4.304   4.124   4.429
13559TIP3    H140622   4.293   4.092   4.340
13559TIP3    H240623   4.395   4.153   4.434
13560TIP3   OH240624   0.021   6.362   2.502
13560TIP3    H140625   0.089   6.317   2.552
13560TIP3    H240626   0.066   6.436   2.461
13561TIP3   OH240627   7.829   2.076   2.816
13561TIP3    H140628   7.764   2.095   2.748
13561TIP3    H240629   7.900   2.138   2.799
13562TIP3   OH240630   1.065   1.516   0.925
13562TIP3    H140631   1.112   1.555   0.999
13562TIP3    H240632   0.981   1.561   0.923
13563TIP3   OH240633   6.277   0.645   3.141
13563TIP3    H140634   6.193   0.608   3.113
13563TIP3    H240635   6.292   0.718   3.080
13564TIP3   OH240636   1.473   5.722   2.829
13564TIP3    H140637   1.568   5.725   2.841
13564TIP3    H240638   1.455   5.629   2.813
13565TIP3   OH240639   1.651   3.142   3.705
13565TIP3    H140640   1.633   3.172   3.795
13565TIP3    H240641   1.645   3.047   3.710
13566TIP3   OH240642   2.488   1.512   5.781
13566TIP3    H140643   2.499   1.449   5.709
13566TIP3    H240644   2.477   1.596   5.737
13567TIP3   OH240645   0.484   1.068   1.000
13567TIP3    H140646   0.461   1.069   1.093
13567TIP3    H240647   0.556   1.131   0.993
13568TIP3   OH240648   7.613   4.500   5.199
13568TIP3    H140649   7.689   4.477   5.253
13568TIP3    H240650   7.641   4.481   5.109
13569TIP3   OH240651   7.994   3.292   0.844
13569TIP3    H140652   8.015   3.262   0.932
13569TIP3    H240653   7.934   3.225   0.810
13570TIP3   OH240654   3.654   4.239   5.910
13570TIP3    H140655   3.589   4.308   5.903
13570TIP3    H240656   3.610   4.170   5.960
13571TIP3   OH240657   0.197   3.304   2.365
13571TIP3    H140658   0.187   3.328   2.273
13571TIP3    H240659   0.256   3.228   2.363
13572TIP3   OH240660   6.942   2.418   6.460
13572TIP3    H140661   6.967   2.407   6.368
13572TIP3    H240662   6.947   2.513   6.475
13573TIP3   OH240663   2.060   2.480   4.002
13573TIP3    H140664   2.153   2.502   4.002
13573TIP3    H240665   2.028   2.515   4.085
13574TIP3   OH240666   0.705   4.718   6.382
13574TIP3    H140667   0.678   4.795   6.432
13574TIP3    H240668   0.712   4.648   6.447
13575TIP3   OH240669   2.412  -0.008   6.118
13575TIP3    H140670   2.402  -0.066   6.193
13575TIP3    H240671   2.343   0.058   6.130
13576TIP3   OH240672   7.486   0.196   5.747
13576TIP3    H140673   7.502   0.111   5.790
13576TIP3    H240674   7.570   0.218   5.707
13577TIP3   OH240675   3.523   5.861   2.484
13577TIP3    H140676   3.509   5.879   2.577
13577TIP3    H240677   3.565   5.775   2.483
13578TIP3   OH240678   0.616   7.436   2.878
13578TIP3    H140679   0.619   7.364   2.942
13578TIP3    H240680   0.665   7.507   2.920
13579TIP3   OH240681   1.395   3.232   1.278
13579TIP3    H140682   1.459   3.182   1.328
13579TIP3    H240683   1.341   3.166   1.235
13580TIP3   OH240684   1.996   3.866   3.238
13580TIP3    H140685   2.082   3.907   3.235
13580TIP3    H240686   2.012   3.776   3.267
13581TIP3   OH240687   2.694   7.300   5.383
13581TIP3    H140688   2.610   7.268   5.352
13581TIP3    H240689   2.757   7.268   5.319
13582TIP3   OH240690   3.367   2.048   5.720
13582TIP3    H140691   3.381   2.121   5.780
13582TIP3    H240692   3.391   1.970   5.772
13583TIP3   OH240693   1.257   7.414   2.497
13583TIP3    H140694   1.185   7.476   2.505
13583TIP3    H240695   1.216   7.333   2.468
13584TIP3   OH240696   6.931   3.230   2.509
13584TIP3    H140697   6.885   3.270   2.584
13584TIP3    H240698   6.867   3.169   2.472
13585TIP3   OH240699   6.182   4.880   1.019
13585TIP3    H140700   6.214   4.839   0.939
13585TIP3    H240701   6.118   4.945   0.990
13586TIP3   OH240702   2.171   7.337   1.060
13586TIP3    H140703   2.081   7.359   1.081
13586TIP3    H240704   2.208   7.305   1.143
13587TIP3   OH240705   4.132   0.328   6.042
13587TIP3    H140706   4.046   0.349   6.076
13587TIP3    H240707   4.119   0.249   5.989
13588TIP3   OH240708   2.481   2.988   2.557
13588TIP3    H140709   2.546   3.034   2.609
13588TIP3    H240710   2.398   3.002   2.604
13589TIP3   OH240711   1.431   0.106   3.930
13589TIP3    H140712   1.378   0.161   3.872
13589TIP3    H240713   1.379   0.099   4.010
13590TIP3   OH240714   5.723   5.932   3.132
13590TIP3    H140715   5.774   5.930   3.051
13590TIP3    H240716   5.721   5.841   3.161
13591TIP3   OH240717   7.066   2.045   2.131
13591TIP3    H140718   7.154   2.042   2.094
13591TIP3    H240719   7.008   2.028   2.056
13592TIP3   OH240720   1.341   1.854   2.863
13592TIP3    H140721   1.264   1.797   2.859
13592TIP3    H240722   1.307   1.942   2.850
13593TIP3   OH240723   2.108   1.296   5.644
13593TIP3    H140724   2.022   1.334   5.624
13593TIP3    H240725   2.104   1.207   5.608
13594TIP3   OH240726   0.271   1.097   0.825
13594TIP3    H140727   0.324   1.096   0.905
13594TIP3    H240728   0.334   1.088   0.754
13595TIP3   OH240729   1.557   1.726   2.095
13595TIP3    H140730   1.634   1.688   2.053
13595TIP3    H240731   1.534   1.801   2.040
13596TIP3   OH240732   8.176   3.360   0.661
13596TIP3    H140733   8.196   3.444   0.701
13596TIP3    H240734   8.106   3.323   0.715
13597TIP3   OH240735   0.648   6.681   5.359
13597TIP3    H140736   0.723   6.737   5.379
13597TIP3    H240737   0.685   6.610   5.305
13598TIP3   OH240738   0.315   3.020   4.315
13598TIP3    H140739   0.294   3.097   4.261
13598TIP3    H240740   0.404   2.997   4.291
13599TIP3   OH240741   7.237   7.315   1.269
13599TIP3    H140742   7.319   7.363   1.269
13599TIP3    H240743   7.187   7.351   1.196
13600TIP3   OH240744   5.623   7.018   0.185
13600TIP3    H140745   5.559   7.061   0.129
13600TIP3    H240746   5.623   7.070   0.266
13601TIP3   OH240747   3.428   4.182   2.104
13601TIP3    H140748   3.501   4.224   2.058
13601TIP3    H240749   3.461   4.170   2.194
13602TIP3   OH240750   3.833   7.194   1.559
13602TIP3    H140751   3.868   7.105   1.548
13602TIP3    H240752   3.804   7.219   1.471
13603TIP3   OH240753   5.547   6.657   0.617
13603TIP3    H140754   5.499   6.738   0.599
13603TIP3    H240755   5.480   6.589   0.616
13604TIP3   OH240756   5.799   6.585   0.757
13604TIP3    H140757   5.801   6.640   0.835
13604TIP3    H240758   5.733   6.519   0.776
13605TIP3   OH240759   4.696   0.980   4.090
13605TIP3    H140760   4.725   0.950   4.004
13605TIP3    H240761   4.688   0.899   4.141
13606TIP3   OH240762   2.710   6.089   2.224
13606TIP3    H140763   2.695   6.137   2.305
13606TIP3    H240764   2.688   6.153   2.155
13607TIP3   OH240765   5.786   0.998   2.694
13607TIP3    H140766   5.876   0.989   2.727
13607TIP3    H240767   5.796   1.003   2.599
13608TIP3   OH240768   1.176   0.324   0.728
13608TIP3    H140769   1.216   0.308   0.642
13608TIP3    H240770   1.217   0.261   0.786
13609TIP3   OH240771   6.893   6.013   0.733
13609TIP3    H140772   6.838   6.013   0.654
13609TIP3    H240773   6.982   6.016   0.699
13610TIP3   OH240774   3.516   6.555   1.343
13610TIP3    H140775   3.463   6.478   1.366
13610TIP3    H240776   3.603   6.535   1.378
13611TIP3   OH240777   3.834   4.685   1.675
13611TIP3    H140778   3.873   4.681   1.762
13611TIP3    H240779   3.894   4.636   1.619
13612TIP3   OH240780   8.309   5.337   4.502
13612TIP3    H140781   8.262   5.282   4.565
13612TIP3    H240782   8.240   5.387   4.459
13613TIP3   OH240783   2.623   1.311   5.941
13613TIP3    H140784   2.653   1.229   5.904
13613TIP3    H240785   2.569   1.351   5.873
13614TIP3   OH240786   1.036   6.977   3.320
13614TIP3    H140787   1.071   6.896   3.283
13614TIP3    H240788   1.094   7.046   3.285
13615TIP3   OH240789   4.559   7.112   5.564
13615TIP3    H140790   4.644   7.070   5.572
13615TIP3    H240791   4.545   7.120   5.469
13616TIP3   OH240792   4.483   3.618   4.023
13616TIP3    H140793   4.458   3.696   4.072
13616TIP3    H240794   4.571   3.638   3.990
13617TIP3   OH240795   1.982   2.102   2.899
13617TIP3    H140796   2.002   2.008   2.899
13617TIP3    H240797   2.007   2.131   2.987
13618TIP3   OH240798   3.708   2.790   5.334
13618TIP3    H140799   3.736   2.703   5.363
13618TIP3    H240800   3.721   2.846   5.411
13619TIP3   OH240801   1.475   6.555   1.418
13619TIP3    H140802   1.407   6.615   1.390
13619TIP3    H240803   1.472   6.556   1.513
13620TIP3   OH240804   6.802   5.655   5.562
13620TIP3    H140805   6.787   5.683   5.653
13620TIP3    H240806   6.888   5.691   5.540
13621TIP3   OH240807   6.904   4.439   5.296
13621TIP3    H140808   6.873   4.377   5.230
13621TIP3    H240809   6.971   4.490   5.251
13622TIP3   OH240810   7.026   4.059   1.129
13622TIP3    H140811   6.961   4.098   1.187
13622TIP3    H240812   7.006   4.096   1.043
13623TIP3   OH240813   4.930   2.803   4.927
13623TIP3    H140814   4.981   2.858   4.985
13623TIP3    H240815   4.849   2.785   4.975
13624TIP3   OH240816   2.360   0.603   3.066
13624TIP3    H140817   2.391   0.649   2.988
13624TIP3    H240818   2.266   0.617   3.067
13625TIP3   OH240819   4.784   0.148   1.930
13625TIP3    H140820   4.847   0.167   1.861
13625TIP3    H240821   4.699   0.153   1.886
13626TIP3   OH240822   1.770   0.437   2.319
13626TIP3    H140823   1.675   0.450   2.322
13626TIP3    H240824   1.780   0.342   2.312
13627TIP3   OH240825   5.088   1.209   5.227
13627TIP3    H140826   5.098   1.259   5.308
13627TIP3    H240827   5.165   1.153   5.223
13628TIP3   OH240828   6.925   6.938   0.470
13628TIP3    H140829   6.948   6.908   0.558
13628TIP3    H240830   6.900   7.030   0.482
13629TIP3   OH240831   3.975   6.566   1.571
13629TIP3    H140832   3.974   6.609   1.657
13629TIP3    H240833   3.927   6.484   1.585
13630TIP3   OH240834   7.500   7.547   5.640
13630TIP3    H140835   7.462   7.466   5.607
13630TIP3    H240836   7.592   7.544   5.611
13631TIP3   OH240837   0.731   7.470   5.171
13631TIP3    H140838   0.759   7.451   5.260
13631TIP3    H240839   0.812   7.472   5.119
13632TIP3   OH240840   3.850   1.631   3.331
13632TIP3    H140841   3.853   1.535   3.332
13632TIP3    H240842   3.765   1.652   3.292
13633TIP3   OH240843   4.195   6.750   3.862
13633TIP3    H140844   4.232   6.703   3.787
13633TIP3    H240845   4.102   6.726   3.861
13634TIP3   OH240846   0.787   0.991   4.299
13634TIP3    H140847   0.769   0.915   4.244
13634TIP3    H240848   0.793   0.955   4.387
13635TIP3   OH240849   7.810   1.772   1.759
13635TIP3    H140850   7.844   1.855   1.794
13635TIP3    H240851   7.787   1.721   1.837
13636TIP3   OH240852   7.548   5.260   2.963
13636TIP3    H140853   7.590   5.187   2.916
13636TIP3    H240854   7.455   5.243   2.955
13637TIP3   OH240855   2.427   2.849   1.189
13637TIP3    H140856   2.520   2.847   1.212
13637TIP3    H240857   2.382   2.835   1.273
13638TIP3   OH240858   2.101   5.835   2.235
13638TIP3    H140859   2.006   5.824   2.241
13638TIP3    H240860   2.113   5.922   2.198
13639TIP3   OH240861   4.628   4.414   4.571
13639TIP3    H140862   4.696   4.381   4.629
13639TIP3    H240863   4.552   4.426   4.628
13640TIP3   OH240864   0.839   1.013   1.006
13640TIP3    H140865   0.789   1.095   1.005
13640TIP3    H240866   0.877   1.010   1.094
13641TIP3   OH240867   7.163   6.382   3.128
13641TIP3    H140868   7.177   6.453   3.190
13641TIP3    H240869   7.072   6.357   3.140
13642TIP3   OH240870   7.288   6.757   0.149
13642TIP3    H140871   7.304   6.759   0.243
13642TIP3    H240872   7.323   6.839   0.116
13643TIP3   OH240873   6.664   4.455   0.259
13643TIP3    H140874   6.678   4.366   0.229
13643TIP3    H240875   6.569   4.465   0.264
13644TIP3   OH240876   6.231   4.218   0.755
13644TIP3    H140877   6.323   4.210   0.780
13644TIP3    H240878   6.231   4.205   0.660
13645TIP3   OH240879   6.640   3.397   0.152
13645TIP3    H140880   6.593   3.475   0.122
13645TIP3    H240881   6.732   3.418   0.140
13646TIP3   OH240882   5.686   2.997   6.464
13646TIP3    H140883   5.626   2.926   6.442
13646TIP3    H240884   5.637   3.053   6.525
13647TIP3   OH240885   7.014   0.717   6.615
13647TIP3    H140886   7.037   0.682   6.701
13647TIP3    H240887   7.041   0.809   6.619
13648TIP3   OH240888   4.401   6.921   2.562
13648TIP3    H140889   4.411   6.838   2.514
13648TIP3    H240890   4.379   6.985   2.494
13649TIP3   OH240891   1.103   0.246   1.213
13649TIP3    H140892   1.019   0.205   1.232
13649TIP3    H240893   1.083   0.314   1.148
13650TIP3   OH240894   8.208   2.612   1.985
13650TIP3    H140895   8.117   2.586   1.977
13650TIP3    H240896   8.207   2.684   2.048
13651TIP3   OH240897   1.441   7.773   6.500
13651TIP3    H140898   1.497   7.765   6.423
13651TIP3    H240899   1.352   7.770   6.465
13652TIP3   OH240900   3.027   6.229   2.954
13652TIP3    H140901   3.099   6.191   3.004
13652TIP3    H240902   3.043   6.323   2.957
13653TIP3   OH240903   2.347   3.826   4.632
13653TIP3    H140904   2.401   3.886   4.684
13653TIP3    H240905   2.284   3.790   4.694
13654TIP3   OH240906   8.148   5.029   4.026
13654TIP3    H140907   8.203   5.099   4.064
13654TIP3    H240908   8.077   5.018   4.090
13655TIP3   OH240909   2.296   7.774   4.462
13655TIP3    H140910   2.351   7.846   4.433
13655TIP3    H240911   2.236   7.760   4.389
13656TIP3   OH240912   7.498   5.472   3.143
13656TIP3    H140913   7.542   5.407   3.088
13656TIP3    H240914   7.410   5.478   3.107
13657TIP3   OH240915   6.868   4.239   5.772
13657TIP3    H140916   6.942   4.197   5.814
13657TIP3    H240917   6.903   4.274   5.690
13658TIP3   OH240918   5.283   0.785   1.334
13658TIP3    H140919   5.318   0.789   1.246
13658TIP3    H240920   5.348   0.830   1.388
13659TIP3   OH240921   1.353   7.520   1.369
13659TIP3    H140922   1.300   7.589   1.329
13659TIP3    H240923   1.343   7.533   1.464
13660TIP3   OH240924   5.262   6.614   6.714
13660TIP3    H140925   5.263   6.699   6.757
13660TIP3    H240926   5.171   6.601   6.687
13661TIP3   OH240927   8.154   3.789   1.605
13661TIP3    H140928   8.109   3.729   1.665
13661TIP3    H240929   8.222   3.830   1.658
13662TIP3   OH240930   6.896   3.114   1.618
13662TIP3    H140931   6.843   3.119   1.539
13662TIP3    H240932   6.986   3.112   1.586
13663TIP3   OH240933   5.514   4.856   4.411
13663TIP3    H140934   5.480   4.767   4.418
13663TIP3    H240935   5.436   4.912   4.417
13664TIP3   OH240936   7.337   6.493   1.049
13664TIP3    H140937   7.406   6.454   1.102
13664TIP3    H240938   7.378   6.508   0.964
13665TIP3   OH240939   6.061   3.700   2.146
13665TIP3    H140940   5.981   3.668   2.104
13665TIP3    H240941   6.031   3.763   2.211
13666TIP3   OH240942   6.428   6.052   5.105
13666TIP3    H140943   6.519   6.062   5.076
13666TIP3    H240944   6.405   6.136   5.143
13667TIP3   OH240945   1.349   4.579   0.384
13667TIP3    H140946   1.356   4.528   0.303
13667TIP3    H240947   1.291   4.527   0.440
13668TIP3   OH240948   0.386   5.907   3.745
13668TIP3    H140949   0.397   5.842   3.814
13668TIP3    H240950   0.332   5.863   3.679
13669TIP3   OH240951   3.816   6.754   5.430
13669TIP3    H140952   3.822   6.833   5.376
13669TIP3    H240953   3.786   6.686   5.369
13670TIP3   OH240954   7.192   3.562   2.169
13670TIP3    H140955   7.159   3.543   2.081
13670TIP3    H240956   7.138   3.509   2.228
13671TIP3   OH240957   0.049   2.777   6.625
13671TIP3    H140958   0.045   2.833   6.703
13671TIP3    H240959   0.140   2.781   6.598
13672TIP3   OH240960   4.279   4.346   6.498
13672TIP3    H140961   4.204   4.363   6.442
13672TIP3    H240962   4.256   4.267   6.547
13673TIP3   OH240963   3.727   1.586   1.178
13673TIP3    H140964   3.659   1.633   1.226
13673TIP3    H240965   3.702   1.494   1.186
13674TIP3   OH240966   7.001   5.842   5.111
13674TIP3    H140967   6.961   5.841   5.024
13674TIP3    H240968   6.989   5.931   5.143
13675TIP3   OH240969   7.464   0.303   0.947
13675TIP3    H140970   7.550   0.263   0.961
13675TIP3    H240971   7.405   0.229   0.931
13676TIP3   OH240972   5.499   3.593   3.475
13676TIP3    H140973   5.508   3.497   3.471
13676TIP3    H240974   5.558   3.625   3.407
13677TIP3   OH240975   1.588   5.431   1.086
13677TIP3    H140976   1.653   5.381   1.038
13677TIP3    H240977   1.508   5.379   1.081
13678TIP3   OH240978   5.318   7.646   5.658
13678TIP3    H140979   5.281   7.610   5.578
13678TIP3    H240980   5.388   7.704   5.629
13679TIP3   OH240981   2.462   6.601   1.435
13679TIP3    H140982   2.422   6.545   1.369
13679TIP3    H240983   2.492   6.678   1.386
13680TIP3   OH240984   3.183   4.603   5.248
13680TIP3    H140985   3.244   4.606   5.175
13680TIP3    H240986   3.165   4.510   5.260
13681TIP3   OH240987   1.615   0.652   0.151
13681TIP3    H140988   1.568   0.650   0.234
13681TIP3    H240989   1.547   0.663   0.085
13682TIP3   OH240990   0.085   5.561   2.639
13682TIP3    H140991   0.009   5.606   2.675
13682TIP3    H240992   0.052   5.518   2.559
13683TIP3   OH240993   2.895   5.169   3.107
13683TIP3    H140994   2.951   5.225   3.161
13683TIP3    H240995   2.948   5.092   3.089
13684TIP3   OH240996   1.249   3.351   4.048
13684TIP3    H140997   1.234   3.322   3.958
13684TIP3    H240998   1.215   3.441   4.050
13685TIP3   OH240999   3.894   4.864   3.547
13685TIP3    H141000   3.934   4.950   3.556
13685TIP3    H241001   3.962   4.809   3.508
13686TIP3   OH241002   5.280   1.892   4.371
13686TIP3    H141003   5.274   1.808   4.325
13686TIP3    H241004   5.262   1.958   4.304
13687TIP3   OH241005   1.645   1.273   2.160
13687TIP3    H141006   1.736   1.251   2.178
13687TIP3    H241007   1.623   1.220   2.083
13688TIP3   OH241008   1.162   5.878   6.361
13688TIP3    H141009   1.167   5.956   6.416
13688TIP3    H241010   1.219   5.814   6.403
13689TIP3   OH241011   4.621   3.389   4.130
13689TIP3    H141012   4.583   3.476   4.120
13689TIP3    H241013   4.711   3.405   4.158
13690TIP3   OH241014   5.886   7.289   0.038
13690TIP3    H141015   5.900   7.323   0.127
13690TIP3    H241016   5.960   7.230   0.023
13691TIP3   OH241017   3.416   3.264   1.685
13691TIP3    H141018   3.458   3.259   1.600
13691TIP3    H241019   3.469   3.207   1.742
13692TIP3   OH241020   1.217   4.747   4.352
13692TIP3    H141021   1.197   4.733   4.445
13692TIP3    H241022   1.204   4.662   4.312
13693TIP3   OH241023   5.545   5.548   6.305
13693TIP3    H141024   5.533   5.612   6.374
13693TIP3    H241025   5.505   5.468   6.338
13694TIP3   OH241026   4.157   2.063   3.328
13694TIP3    H141027   4.192   2.053   3.239
13694TIP3    H241028   4.065   2.037   3.321
13695TIP3   OH241029   8.103   4.659   3.524
13695TIP3    H141030   8.183   4.646   3.473
13695TIP3    H241031   8.073   4.747   3.499
13696TIP3   OH241032   3.447   1.344   5.078
13696TIP3    H141033   3.506   1.400   5.128
13696TIP3    H241034   3.405   1.289   5.144
13697TIP3   OH241035   6.451   5.480   3.570
13697TIP3    H141036   6.455   5.527   3.653
13697TIP3    H241037   6.370   5.511   3.529
13698TIP3   OH241038   6.049   0.834   1.448
13698TIP3    H141039   6.072   0.835   1.541
13698TIP3    H241040   6.035   0.742   1.427
13699TIP3   OH241041   6.560   3.306   2.508
13699TIP3    H141042   6.597   3.253   2.438
13699TIP3    H241043   6.488   3.254   2.543
13700TIP3   OH241044   0.839   4.965   0.324
13700TIP3    H141045   0.826   5.057   0.298
13700TIP3    H241046   0.840   4.917   0.241
13701TIP3   OH241047   1.826   7.246   2.324
13701TIP3    H141048   1.834   7.340   2.310
13701TIP3    H241049   1.765   7.238   2.398
13702TIP3   OH241050   8.191   6.253   2.846
13702TIP3    H141051   8.234   6.274   2.929
13702TIP3    H241052   8.262   6.219   2.791
13703TIP3   OH241053   5.273   3.171   2.431
13703TIP3    H141054   5.181   3.168   2.405
13703TIP3    H241055   5.320   3.130   2.359
13704TIP3   OH241056   3.008   5.285   6.534
13704TIP3    H141057   2.951   5.315   6.604
13704TIP3    H241058   3.096   5.290   6.571
13705TIP3   OH241059   5.225   7.316   4.058
13705TIP3    H141060   5.249   7.409   4.064
13705TIP3    H241061   5.297   7.270   4.099
13706TIP3   OH241062   6.423   6.625   5.134
13706TIP3    H141063   6.445   6.604   5.043
13706TIP3    H241064   6.474   6.704   5.153
13707TIP3   OH241065   7.969   0.004   1.398
13707TIP3    H141066   7.901  -0.026   1.459
13707TIP3    H241067   8.007   0.080   1.441
13708TIP3   OH241068   1.445   1.133   2.982
13708TIP3    H141069   1.367   1.154   2.931
13708TIP3    H241070   1.422   1.156   3.072
13709TIP3   OH241071   1.683   3.548   5.658
13709TIP3    H141072   1.676   3.635   5.696
13709TIP3    H241073   1.733   3.561   5.577
13710TIP3   OH241074   8.135   5.898   6.097
13710TIP3    H141075   8.174   5.827   6.148
13710TIP3    H241076   8.209   5.950   6.067
13711TIP3   OH241077   4.842   7.011   1.830
13711TIP3    H141078   4.856   6.962   1.749
13711TIP3    H241079   4.752   7.043   1.823
13712TIP3   OH241080   2.003   6.081   6.272
13712TIP3    H141081   1.921   6.080   6.221
13712TIP3    H241082   2.043   5.996   6.254
13713TIP3   OH241083   1.199   0.618   0.124
13713TIP3    H141084   1.157   0.703   0.134
13713TIP3    H241085   1.276   0.634   0.069
13714TIP3   OH241086   3.122   0.758   0.146
13714TIP3    H141087   3.176   0.781   0.070
13714TIP3    H241088   3.039   0.803   0.131
13715TIP3   OH241089   3.305   7.087   3.406
13715TIP3    H141090   3.354   7.047   3.334
13715TIP3    H241091   3.279   7.012   3.460
13716TIP3   OH241092   6.551   6.776   2.240
13716TIP3    H141093   6.563   6.699   2.185
13716TIP3    H241094   6.459   6.801   2.226
13717TIP3   OH241095   0.053   5.826   2.403
13717TIP3    H141096   0.030   5.739   2.434
13717TIP3    H241097  -0.016   5.848   2.339
13718TIP3   OH241098   7.204   4.911   5.485
13718TIP3    H141099   7.160   4.995   5.497
13718TIP3    H241100   7.172   4.879   5.401
13719TIP3   OH241101   0.655   6.458   4.472
13719TIP3    H141102   0.683   6.477   4.562
13719TIP3    H241103   0.707   6.518   4.418
13720TIP3   OH241104   5.230   6.379   6.504
13720TIP3    H141105   5.272   6.351   6.585
13720TIP3    H241106   5.283   6.342   6.435
13721TIP3   OH241107   2.326   4.082   6.030
13721TIP3    H141108   2.266   4.098   5.957
13721TIP3    H241109   2.287   4.007   6.076
13722TIP3   OH241110   6.871   7.819   2.022
13722TIP3    H141111   6.898   7.865   2.101
13722TIP3    H241112   6.953   7.796   1.978
13723TIP3   OH241113   3.119   3.824   0.281
13723TIP3    H141114   3.049   3.765   0.252
13723TIP3    H241115   3.100   3.907   0.238
13724TIP3   OH241116   1.769   1.556   2.044
13724TIP3    H141117   1.849   1.608   2.047
13724TIP3    H241118   1.798   1.467   2.065
13725TIP3   OH241119   3.703   2.206   5.910
13725TIP3    H141120   3.718   2.300   5.922
13725TIP3    H241121   3.777   2.176   5.857
13726TIP3   OH241122   2.495   4.792   4.517
13726TIP3    H141123   2.448   4.719   4.557
13726TIP3    H241124   2.585   4.762   4.508
13727TIP3   OH241125   3.414   0.091   5.200
13727TIP3    H141126   3.461   0.020   5.244
13727TIP3    H241127   3.362   0.131   5.269
13728TIP3   OH241128   3.726   1.998   6.788
13728TIP3    H141129   3.707   2.085   6.753
13728TIP3    H241130   3.658   1.942   6.752
13729TIP3   OH241131   3.936   0.368   2.263
13729TIP3    H141132   3.930   0.417   2.345
13729TIP3    H241133   4.029   0.354   2.250
13730TIP3   OH241134   0.392   4.404   2.969
13730TIP3    H141135   0.311   4.449   2.993
13730TIP3    H241136   0.456   4.431   3.035
13731TIP3   OH241137   0.771   2.887  -0.030
13731TIP3    H141138   0.718   2.944   0.026
13731TIP3    H241139   0.806   2.820   0.030
13732TIP3   OH241140   1.165   5.345   3.799
13732TIP3    H141141   1.187   5.331   3.707
13732TIP3    H241142   1.185   5.262   3.842
13733TIP3   OH241143   7.505   0.781   6.034
13733TIP3    H141144   7.443   0.792   6.106
13733TIP3    H241145   7.521   0.687   6.029
13734TIP3   OH241146   4.901   2.753   3.501
13734TIP3    H141147   4.809   2.766   3.524
13734TIP3    H241148   4.909   2.658   3.488
13735TIP3   OH241149   3.536   6.269   2.365
13735TIP3    H141150   3.537   6.338   2.299
13735TIP3    H241151   3.594   6.201   2.329
13736TIP3   OH241152   1.976   2.318   4.823
13736TIP3    H141153   2.052   2.376   4.822
13736TIP3    H241154   1.913   2.360   4.764
13737TIP3   OH241155   4.282   7.278   0.191
13737TIP3    H141156   4.198   7.316   0.166
13737TIP3    H241157   4.262   7.186   0.210
13738TIP3   OH241158   4.019   6.117   0.043
13738TIP3    H141159   4.029   6.133   0.137
13738TIP3    H241160   4.015   6.021   0.036
13739TIP3   OH241161   6.174   5.633   1.630
13739TIP3    H141162   6.174   5.729   1.629
13739TIP3    H241163   6.082   5.610   1.640
13740TIP3   OH241164   4.994   1.641   0.465
13740TIP3    H141165   5.019   1.549   0.470
13740TIP3    H241166   5.025   1.670   0.379
13741TIP3   OH241167   1.045   1.561   1.724
13741TIP3    H141168   0.979   1.507   1.681
13741TIP3    H241169   1.010   1.650   1.718
13742TIP3   OH241170   1.148   2.697   5.209
13742TIP3    H141171   1.218   2.667   5.267
13742TIP3    H241172   1.072   2.708   5.267
13743TIP3   OH241173   6.294   4.071   3.933
13743TIP3    H141174   6.232   4.135   3.898
13743TIP3    H241175   6.251   3.987   3.922
13744TIP3   OH241176   4.782   6.105   6.031
13744TIP3    H141177   4.849   6.037   6.038
13744TIP3    H241178   4.781   6.128   5.939
13745TIP3   OH241179   4.147   6.756   5.233
13745TIP3    H141180   4.181   6.703   5.160
13745TIP3    H241181   4.135   6.693   5.304
13746TIP3   OH241182   1.971   7.225   5.297
13746TIP3    H141183   1.980   7.302   5.352
13746TIP3    H241184   2.043   7.232   5.235
13747TIP3   OH241185   7.370   4.553   6.262
13747TIP3    H141186   7.416   4.469   6.270
13747TIP3    H241187   7.335   4.570   6.349
13748TIP3   OH241188   6.679   0.512   5.348
13748TIP3    H141189   6.721   0.462   5.278
13748TIP3    H241190   6.640   0.446   5.404
13749TIP3   OH241191   8.105   7.346   0.635
13749TIP3    H141192   8.105   7.411   0.705
13749TIP3    H241193   8.080   7.397   0.557
13750TIP3   OH241194   4.753   7.370   4.497
13750TIP3    H141195   4.815   7.332   4.559
13750TIP3    H241196   4.676   7.314   4.502
13751TIP3   OH241197   3.439   4.716   0.083
13751TIP3    H141198   3.379   4.679   0.019
13751TIP3    H241199   3.479   4.640   0.125
13752TIP3   OH241200   4.545   1.095   1.742
13752TIP3    H141201   4.486   1.111   1.669
13752TIP3    H241202   4.610   1.033   1.708
13753TIP3   OH241203   1.581   3.377   3.572
13753TIP3    H141204   1.612   3.290   3.596
13753TIP3    H241205   1.589   3.428   3.653
13754TIP3   OH241206   2.044   4.679   5.186
13754TIP3    H141207   2.062   4.585   5.187
13754TIP3    H241208   1.968   4.688   5.128
13755TIP3   OH241209   7.277   3.888   6.719
13755TIP3    H141210   7.296   3.956   6.654
13755TIP3    H241211   7.314   3.921   6.801
13756TIP3   OH241212   8.036   3.114   6.314
13756TIP3    H141213   8.086   3.130   6.234
13756TIP3    H241214   7.974   3.187   6.318
13757TIP3   OH241215   3.021   2.807   6.673
13757TIP3    H141216   3.059   2.889   6.644
13757TIP3    H241217   3.095   2.756   6.707
13758TIP3   OH241218   3.665   1.117   1.942
13758TIP3    H141219   3.571   1.099   1.934
13758TIP3    H241220   3.670   1.206   1.976
13759TIP3   OH241221   2.747   2.223   3.552
13759TIP3    H141222   2.821   2.274   3.518
13759TIP3    H241223   2.674   2.284   3.551
13760TIP3   OH241224   4.105   6.082   2.400
13760TIP3    H141225   4.120   6.168   2.361
13760TIP3    H241226   4.026   6.050   2.357
13761TIP3   OH241227   7.299   4.138   6.207
13761TIP3    H141228   7.214   4.178   6.192
13761TIP3    H241229   7.363   4.207   6.187
13762TIP3   OH241230   3.504   2.654   5.876
13762TIP3    H141231   3.511   2.581   5.814
13762TIP3    H241232   3.549   2.624   5.955
13763TIP3   OH241233   7.321   5.734   4.629
13763TIP3    H141234   7.357   5.759   4.544
13763TIP3    H241235   7.236   5.694   4.609
13764TIP3   OH241236   1.207   7.055   3.115
13764TIP3    H141237   1.282   7.115   3.118
13764TIP3    H241238   1.186   7.046   3.022
13765TIP3   OH241239   6.106   3.866   4.398
13765TIP3    H141240   6.180   3.924   4.381
13765TIP3    H241241   6.101   3.810   4.321
13766TIP3   OH241242   0.151   6.667   2.880
13766TIP3    H141243   0.241   6.636   2.892
13766TIP3    H241244   0.097   6.603   2.927
13767TIP3   OH241245   0.705   2.855   3.751
13767TIP3    H141246   0.695   2.918   3.822
13767TIP3    H241247   0.729   2.909   3.675
13768TIP3   OH241248   2.026   3.452   5.358
13768TIP3    H141249   2.054   3.409   5.439
13768TIP3    H241250   1.942   3.493   5.381
13769TIP3   OH241251   5.319   5.303   4.208
13769TIP3    H141252   5.390   5.347   4.254
13769TIP3    H241253   5.322   5.338   4.119
13770TIP3   OH241254   5.141   0.887   3.201
13770TIP3    H141255   5.218   0.942   3.212
13770TIP3    H241256   5.099   0.920   3.121
13771TIP3   OH241257   7.275   5.082   3.487
13771TIP3    H141258   7.313   5.138   3.555
13771TIP3    H241259   7.215   5.025   3.534
13772TIP3   OH241260   5.857   5.471   2.841
13772TIP3    H141261   5.803   5.395   2.819
13772TIP3    H241262   5.939   5.456   2.793
13773TIP3   OH241263   1.383   7.001   1.750
13773TIP3    H141264   1.401   6.908   1.765
13773TIP3    H241265   1.308   7.020   1.806
13774TIP3   OH241266   0.454   7.339   3.305
13774TIP3    H141267   0.474   7.345   3.399
13774TIP3    H241268   0.540   7.334   3.263
13775TIP3   OH241269   1.639   7.166   2.522
13775TIP3    H141270   1.552   7.153   2.483
13775TIP3    H241271   1.691   7.091   2.492
13776TIP3   OH241272   0.702   0.440   3.226
13776TIP3    H141273   0.634   0.411   3.287
13776TIP3    H241274   0.666   0.518   3.185
13777TIP3   OH241275   1.167   6.839   4.293
13777TIP3    H141276   1.160   6.744   4.291
13777TIP3    H241277   1.079   6.870   4.274
13778TIP3   OH241278   6.922   6.428   6.443
13778TIP3    H141279   6.936   6.345   6.489
13778TIP3    H241280   6.852   6.471   6.493
13779TIP3   OH241281   0.716   2.981   5.725
13779TIP3    H141282   0.702   3.026   5.642
13779TIP3    H241283   0.779   2.912   5.705
13780TIP3   OH241284   2.342   1.574   1.277
13780TIP3    H141285   2.381   1.661   1.266
13780TIP3    H241286   2.304   1.576   1.365
13781TIP3   OH241287   0.382   4.652   0.792
13781TIP3    H141288   0.366   4.560   0.771
13781TIP3    H241289   0.366   4.657   0.887
13782TIP3   OH241290   7.479   4.474   4.649
13782TIP3    H141291   7.555   4.420   4.628
13782TIP3    H241292   7.403   4.420   4.626
13783TIP3   OH241293   4.387   1.165   1.505
13783TIP3    H141294   4.465   1.190   1.455
13783TIP3    H241295   4.336   1.246   1.514
13784TIP3   OH241296   5.021   2.959   2.894
13784TIP3    H141297   4.993   3.041   2.934
13784TIP3    H241298   5.043   2.982   2.804
13785TIP3   OH241299   7.957   2.739   5.075
13785TIP3    H141300   7.912   2.822   5.094
13785TIP3    H241301   7.955   2.691   5.157
13786TIP3   OH241302   2.354   1.959   1.264
13786TIP3    H141303   2.282   1.908   1.302
13786TIP3    H241304   2.374   2.025   1.330
13787TIP3   OH241305   1.178   0.560   2.880
13787TIP3    H141306   1.109   0.627   2.884
13787TIP3    H241307   1.238   0.593   2.813
13788TIP3   OH241308   3.708   6.123   2.709
13788TIP3    H141309   3.799   6.150   2.696
13788TIP3    H241310   3.709   6.029   2.696
13789TIP3   OH241311   3.384   6.736   0.360
13789TIP3    H141312   3.457   6.692   0.405
13789TIP3    H241313   3.376   6.820   0.405
13790TIP3   OH241314   1.615   1.445   2.730
13790TIP3    H141315   1.558   1.433   2.654
13790TIP3    H241316   1.689   1.496   2.697
13791TIP3   OH241317   0.085   0.607   0.418
13791TIP3    H141318   0.157   0.547   0.439
13791TIP3    H241319   0.068   0.592   0.325
13792TIP3   OH241320   3.891   0.955   2.619
13792TIP3    H141321   3.870   0.908   2.539
13792TIP3    H241322   3.934   0.891   2.675
13793TIP3   OH241323   6.420   2.722   6.033
13793TIP3    H141324   6.478   2.795   6.011
13793TIP3    H241325   6.444   2.653   5.971
13794TIP3   OH241326   0.947   4.564   0.140
13794TIP3    H141327   1.004   4.492   0.113
13794TIP3    H241328   0.938   4.553   0.235
13795TIP3   OH241329   6.327   2.710   3.852
13795TIP3    H141330   6.245   2.665   3.871
13795TIP3    H241331   6.373   2.650   3.793
13796TIP3   OH241332   6.657   7.592   1.883
13796TIP3    H141333   6.583   7.632   1.929
13796TIP3    H241334   6.687   7.523   1.943
13797TIP3   OH241335   2.988   3.872   0.621
13797TIP3    H141336   2.965   3.925   0.545
13797TIP3    H241337   3.083   3.858   0.613
13798TIP3   OH241338   7.262   0.096   6.109
13798TIP3    H141339   7.279   0.186   6.137
13798TIP3    H241340   7.209   0.105   6.029
13799TIP3   OH241341   2.387   6.476   1.204
13799TIP3    H141342   2.370   6.567   1.179
13799TIP3    H241343   2.463   6.450   1.151
13800TIP3   OH241344   5.963   4.482   0.217
13800TIP3    H141345   5.888   4.487   0.159
13800TIP3    H241346   5.927   4.455   0.301
13801TIP3   OH241347   7.672   3.731   1.069
13801TIP3    H141348   7.577   3.744   1.069
13801TIP3    H241349   7.685   3.655   1.125
13802TIP3   OH241350   8.241   0.723   0.136
13802TIP3    H141351   8.160   0.772   0.130
13802TIP3    H241352   8.224   0.642   0.087
13803TIP3   OH241353   4.005   4.450   1.885
13803TIP3    H141354   3.988   4.429   1.793
13803TIP3    H241355   4.075   4.391   1.910
13804TIP3   OH241356   2.501   7.416   5.038
13804TIP3    H141357   2.591   7.449   5.044
13804TIP3    H241358   2.457   7.479   4.981
13805TIP3   OH241359   6.985   2.216   1.339
13805TIP3    H141360   6.907   2.181   1.295
13805TIP3    H241361   7.040   2.140   1.355
13806TIP3   OH241362   6.787   0.580   4.682
13806TIP3    H141363   6.874   0.598   4.716
13806TIP3    H241364   6.741   0.664   4.689
13807TIP3   OH241365   0.907   6.040   5.224
13807TIP3    H141366   0.986   5.985   5.226
13807TIP3    H241367   0.877   6.036   5.133
13808TIP3   OH241368   4.444   3.429   0.290
13808TIP3    H141369   4.533   3.402   0.266
13808TIP3    H241370   4.440   3.418   0.385
13809TIP3   OH241371   7.086   0.781   5.182
13809TIP3    H141372   7.044   0.863   5.207
13809TIP3    H241373   7.113   0.741   5.265
13810TIP3   OH241374   7.420   5.457   0.908
13810TIP3    H141375   7.394   5.367   0.929
13810TIP3    H241376   7.487   5.478   0.974
13811TIP3   OH241377   1.085   1.692   0.649
13811TIP3    H141378   1.176   1.706   0.623
13811TIP3    H241379   1.088   1.682   0.744
13812TIP3   OH241380   3.062   0.930   3.561
13812TIP3    H141381   3.065   0.910   3.467
13812TIP3    H241382   3.018   0.854   3.600
13813TIP3   OH241383   3.635   5.733   2.009
13813TIP3    H141384   3.693   5.722   2.083
13813TIP3    H241385   3.666   5.813   1.966
13814TIP3   OH241386   5.102   1.990   3.942
13814TIP3    H141387   5.107   1.895   3.929
13814TIP3    H241388   5.129   2.003   4.033
13815TIP3   OH241389   7.160   2.037   2.918
13815TIP3    H141390   7.072   2.009   2.890
13815TIP3    H241391   7.155   2.037   3.014
13816TIP3   OH241392   2.803   3.436   5.782
13816TIP3    H141393   2.834   3.526   5.771
13816TIP3    H241394   2.858   3.400   5.851
13817TIP3   OH241395   0.414   2.903   1.060
13817TIP3    H141396   0.409   2.858   1.145
13817TIP3    H241397   0.338   2.872   1.012
13818TIP3   OH241398   4.227   6.536   2.661
13818TIP3    H141399   4.232   6.539   2.756
13818TIP3    H241400   4.143   6.579   2.640
13819TIP3   OH241401   2.681   2.891   2.158
13819TIP3    H141402   2.598   2.845   2.143
13819TIP3    H241403   2.654   2.975   2.196
13820TIP3   OH241404   1.152   6.007   2.267
13820TIP3    H141405   1.208   6.055   2.205
13820TIP3    H241406   1.064   6.013   2.229
13821TIP3   OH241407   5.636   0.372   4.962
13821TIP3    H141408   5.680   0.387   5.046
13821TIP3    H241409   5.571   0.304   4.981
13822TIP3   OH241410   4.501   5.473   2.025
13822TIP3    H141411   4.456   5.400   1.984
13822TIP3    H241412   4.580   5.433   2.063
13823TIP3   OH241413   2.714   6.864   3.342
13823TIP3    H141414   2.763   6.783   3.328
13823TIP3    H241415   2.703   6.869   3.437
13824TIP3   OH241416   2.308   7.543   1.559
13824TIP3    H141417   2.221   7.510   1.536
13824TIP3    H241418   2.327   7.608   1.491
13825TIP3   OH241419   4.036   1.522   0.082
13825TIP3    H141420   4.014   1.527   0.175
13825TIP3    H241421   3.955   1.545   0.037
13826TIP3   OH241422   2.308   0.043   0.701
13826TIP3    H141423   2.384   0.049   0.759
13826TIP3    H241424   2.335  -0.019   0.633
13827TIP3   OH241425   3.042   0.487   0.768
13827TIP3    H141426   3.047   0.426   0.694
13827TIP3    H241427   3.133   0.513   0.783
13828TIP3   OH241428   5.113   5.577   4.929
13828TIP3    H141429   5.160   5.502   4.890
13828TIP3    H241430   5.106   5.640   4.857
13829TIP3   OH241431   2.137   0.445   1.170
13829TIP3    H141432   2.202   0.507   1.201
13829TIP3    H241433   2.092   0.490   1.099
13830TIP3   OH241434   6.910   7.565   3.802
13830TIP3    H141435   6.863   7.501   3.749
13830TIP3    H241436   6.891   7.540   3.892
13831TIP3   OH241437   1.821   5.013   4.376
13831TIP3    H141438   1.904   5.021   4.424
13831TIP3    H241439   1.804   4.919   4.371
13832TIP3   OH241440   7.290   3.363   3.898
13832TIP3    H141441   7.285   3.385   3.805
13832TIP3    H241442   7.272   3.446   3.943
13833TIP3   OH241443   3.385   7.692   1.971
13833TIP3    H141444   3.315   7.738   2.016
13833TIP3    H241445   3.463   7.745   1.986
13834TIP3   OH241446   5.540   3.409   0.719
13834TIP3    H141447   5.449   3.401   0.688
13834TIP3    H241448   5.565   3.498   0.695
13835TIP3   OH241449   2.068   1.466   0.800
13835TIP3    H141450   1.994   1.522   0.824
13835TIP3    H241451   2.121   1.461   0.880
13836TIP3   OH241452   0.136   0.525   4.272
13836TIP3    H141453   0.125   0.597   4.335
13836TIP3    H241454   0.061   0.467   4.287
13837TIP3   OH241455   2.156   3.538   4.761
13837TIP3    H141456   2.190   3.575   4.842
13837TIP3    H241457   2.142   3.445   4.780
13838TIP3   OH241458   1.814   1.551   5.839
13838TIP3    H141459   1.748   1.482   5.842
13838TIP3    H241460   1.810   1.584   5.749
13839TIP3   OH241461   2.486   0.406   3.245
13839TIP3    H141462   2.456   0.479   3.191
13839TIP3    H241463   2.479   0.329   3.189
13840TIP3   OH241464   8.107   0.903   6.009
13840TIP3    H141465   8.021   0.932   5.979
13840TIP3    H241466   8.121   0.951   6.091
13841TIP3   OH241467   7.065   5.112   4.578
13841TIP3    H141468   7.115   5.158   4.511
13841TIP3    H241469   6.998   5.064   4.529
13842TIP3   OH241470   1.145   3.436   5.183
13842TIP3    H141471   1.099   3.410   5.103
13842TIP3    H241472   1.157   3.355   5.232
13843TIP3   OH241473   0.471   1.815   3.882
13843TIP3    H141474   0.452   1.818   3.976
13843TIP3    H241475   0.492   1.724   3.864
13844TIP3   OH241476   5.326   5.038   6.003
13844TIP3    H141477   5.373   4.964   6.039
13844TIP3    H241478   5.236   5.007   5.993
13845TIP3   OH241479   1.599   1.253   1.267
13845TIP3    H141480   1.514   1.265   1.226
13845TIP3    H241481   1.661   1.288   1.204
13846TIP3   OH241482   3.923   5.799   6.684
13846TIP3    H141483   3.915   5.887   6.649
13846TIP3    H241484   3.842   5.755   6.659
13847TIP3   OH241485   2.195   2.980   2.268
13847TIP3    H141486   2.216   3.039   2.340
13847TIP3    H241487   2.267   2.990   2.206
13848TIP3   OH241488   5.602   0.563   4.784
13848TIP3    H141489   5.614   0.505   4.859
13848TIP3    H241490   5.646   0.518   4.712
13849TIP3   OH241491   1.320   3.134   2.384
13849TIP3    H141492   1.400   3.082   2.376
13849TIP3    H241493   1.249   3.072   2.370
13850TIP3   OH241494   4.452   3.851   1.660
13850TIP3    H141495   4.430   3.794   1.586
13850TIP3    H241496   4.546   3.865   1.652
13851TIP3   OH241497   1.343   7.196   6.205
13851TIP3    H141498   1.334   7.181   6.111
13851TIP3    H241499   1.381   7.283   6.212
13852TIP3   OH241500   3.933   2.842   5.520
13852TIP3    H141501   3.975   2.866   5.602
13852TIP3    H241502   3.920   2.924   5.473
13853TIP3   OH241503   4.921   2.367   0.024
13853TIP3    H141504   4.857   2.419   0.073
13853TIP3    H241505   4.989   2.346   0.088
13854TIP3   OH241506   6.443   3.393   4.534
13854TIP3    H141507   6.518   3.350   4.493
13854TIP3    H241508   6.482   3.452   4.599
13855TIP3   OH241509   0.132   5.150   5.051
13855TIP3    H141510   0.061   5.213   5.039
13855TIP3    H241511   0.089   5.072   5.086
13856TIP3   OH241512   3.314   5.005   6.537
13856TIP3    H141513   3.392   5.046   6.575
13856TIP3    H241514   3.330   5.007   6.443
13857TIP3   OH241515   1.991   4.477   1.896
13857TIP3    H141516   1.937   4.528   1.956
13857TIP3    H241517   2.074   4.524   1.893
13858TIP3   OH241518   2.877   2.359   4.601
13858TIP3    H141519   2.965   2.325   4.583
13858TIP3    H241520   2.885   2.405   4.685
13859TIP3   OH241521   4.512   6.586   6.146
13859TIP3    H141522   4.483   6.668   6.105
13859TIP3    H241523   4.603   6.576   6.118
13860TIP3   OH241524   6.005   5.149   1.561
13860TIP3    H141525   5.935   5.084   1.571
13860TIP3    H241526   5.995   5.207   1.636
13861TIP3   OH241527   6.177   5.707   4.251
13861TIP3    H141528   6.197   5.780   4.193
13861TIP3    H241529   6.237   5.637   4.222
13862TIP3   OH241530   1.752   5.680   3.989
13862TIP3    H141531   1.707   5.604   3.952
13862TIP3    H241532   1.842   5.651   4.004
13863TIP3   OH241533   6.418   4.442   5.754
13863TIP3    H141534   6.508   4.443   5.719
13863TIP3    H241535   6.428   4.408   5.843
13864TIP3   OH241536   2.307   5.884   6.093
13864TIP3    H141537   2.376   5.822   6.067
13864TIP3    H241538   2.333   5.967   6.054
13865TIP3   OH241539   5.759   3.523   5.888
13865TIP3    H141540   5.723   3.611   5.889
13865TIP3    H241541   5.843   3.531   5.934
13866TIP3   OH241542   4.960   6.537   4.445
13866TIP3    H141543   4.868   6.513   4.457
13866TIP3    H241544   4.990   6.482   4.372
13867TIP3   OH241545   1.712   4.268   0.302
13867TIP3    H141546   1.674   4.325   0.369
13867TIP3    H241547   1.761   4.202   0.352
13868TIP3   OH241548   0.254   5.060   2.624
13868TIP3    H141549   0.310   5.049   2.700
13868TIP3    H241550   0.193   4.986   2.628
13869TIP3   OH241551   4.320   5.283   0.210
13869TIP3    H141552   4.304   5.342   0.283
13869TIP3    H241553   4.253   5.215   0.219
13870TIP3   OH241554   3.860   4.519   4.307
13870TIP3    H141555   3.890   4.433   4.279
13870TIP3    H241556   3.856   4.513   4.403
13871TIP3   OH241557   5.927   5.386   1.182
13871TIP3    H141558   5.881   5.426   1.108
13871TIP3    H241559   5.860   5.374   1.249
13872TIP3   OH241560   5.370   0.607   4.172
13872TIP3    H141561   5.345   0.516   4.158
13872TIP3    H241562   5.430   0.626   4.100
13873TIP3   OH241563   2.587   6.687   5.785
13873TIP3    H141564   2.563   6.597   5.805
13873TIP3    H241565   2.664   6.680   5.729
13874TIP3   OH241566   4.029   3.358   0.775
13874TIP3    H141567   4.028   3.429   0.711
13874TIP3    H241568   3.944   3.363   0.818
13875TIP3   OH241569   2.995   7.303   3.605
13875TIP3    H141570   3.079   7.288   3.649
13875TIP3    H241571   3.010   7.275   3.514
13876TIP3   OH241572   7.292   7.213   0.164
13876TIP3    H141573   7.236   7.288   0.144
13876TIP3    H241574   7.231   7.141   0.179
13877TIP3   OH241575   5.283   7.072   2.236
13877TIP3    H141576   5.272   7.076   2.141
13877TIP3    H241577   5.365   7.120   2.251
13878TIP3   OH241578   7.768   6.297   1.594
13878TIP3    H141579   7.687   6.257   1.561
13878TIP3    H241580   7.818   6.223   1.629
13879TIP3   OH241581   6.381   5.336   5.334
13879TIP3    H141582   6.351   5.422   5.305
13879TIP3    H241583   6.302   5.293   5.365
13880TIP3   OH241584   2.726   7.483   1.601
13880TIP3    H141585   2.709   7.399   1.559
13880TIP3    H241586   2.664   7.487   1.674
13881TIP3   OH241587   7.989   1.582   2.025
13881TIP3    H141588   8.075   1.557   2.060
13881TIP3    H241589   7.962   1.506   1.973
13882TIP3   OH241590   6.919   3.783   3.381
13882TIP3    H141591   6.894   3.826   3.462
13882TIP3    H241592   6.990   3.837   3.346
13883TIP3   OH241593   0.202   3.657   2.480
13883TIP3    H141594   0.210   3.752   2.474
13883TIP3    H241595   0.141   3.634   2.410
13884TIP3   OH241596   1.094   3.926   4.842
13884TIP3    H141597   1.181   3.911   4.881
13884TIP3    H241598   1.042   3.962   4.914
13885TIP3   OH241599   8.160   1.956   1.151
13885TIP3    H141600   8.115   1.947   1.235
13885TIP3    H241601   8.202   1.871   1.138
13886TIP3   OH241602   5.943   0.069   6.198
13886TIP3    H141603   5.934   0.122   6.277
13886TIP3    H241604   5.999  -0.005   6.224
13887TIP3   OH241605   2.031   1.027   5.634
13887TIP3    H141606   2.054   1.047   5.725
13887TIP3    H241607   2.039   0.932   5.627
13888TIP3   OH241608   1.985   0.471   5.929
13888TIP3    H141609   2.073   0.481   5.892
13888TIP3    H241610   1.988   0.518   6.012
13889TIP3   OH241611   2.754   2.631   0.734
13889TIP3    H141612   2.706   2.559   0.774
13889TIP3    H241613   2.691   2.675   0.677
13890TIP3   OH241614   4.067   4.291   4.444
13890TIP3    H141615   4.041   4.254   4.528
13890TIP3    H241616   4.150   4.249   4.423
13891TIP3   OH241617   7.147   4.355   3.704
13891TIP3    H141618   7.142   4.341   3.610
13891TIP3    H241619   7.077   4.416   3.724
13892TIP3   OH241620   1.261   0.755   0.513
13892TIP3    H141621   1.276   0.724   0.602
13892TIP3    H241622   1.178   0.803   0.518
13893TIP3   OH241623   0.675   3.261   4.201
13893TIP3    H141624   0.659   3.271   4.107
13893TIP3    H241625   0.748   3.319   4.220
13894TIP3   OH241626   5.136   0.736   4.135
13894TIP3    H141627   5.221   0.701   4.161
13894TIP3    H241628   5.155   0.824   4.101
13895TIP3   OH241629   1.916   3.706   4.428
13895TIP3    H141630   1.864   3.635   4.466
13895TIP3    H241631   1.899   3.701   4.334
13896TIP3   OH241632   1.328   4.489   4.732
13896TIP3    H141633   1.372   4.415   4.689
13896TIP3    H241634   1.241   4.491   4.693
13897TIP3   OH241635   0.726   3.781   6.223
13897TIP3    H141636   0.750   3.851   6.284
13897TIP3    H241637   0.642   3.808   6.187
13898TIP3   OH241638   5.171   3.665   5.931
13898TIP3    H141639   5.252   3.620   5.904
13898TIP3    H241640   5.155   3.729   5.862
13899TIP3   OH241641   4.723   3.886   1.657
13899TIP3    H141642   4.770   3.871   1.576
13899TIP3    H241643   4.713   3.981   1.663
13900TIP3   OH241644   1.245   5.157   6.532
13900TIP3    H141645   1.326   5.145   6.581
13900TIP3    H241646   1.263   5.230   6.473
13901TIP3   OH241647   3.120   4.150   4.760
13901TIP3    H141648   3.177   4.092   4.811
13901TIP3    H241649   3.130   4.119   4.670
13902TIP3   OH241650   0.318   2.794   1.328
13902TIP3    H141651   0.344   2.714   1.282
13902TIP3    H241652   0.223   2.787   1.337
13903TIP3   OH241653   4.474   4.082   0.134
13903TIP3    H141654   4.467   4.169   0.175
13903TIP3    H241655   4.469   4.100   0.040
13904TIP3   OH241656   0.876   6.323   3.868
13904TIP3    H141657   0.885   6.302   3.775
13904TIP3    H241658   0.966   6.328   3.900
13905TIP3   OH241659   2.069   6.519   5.646
13905TIP3    H141660   2.156   6.489   5.669
13905TIP3    H241661   2.083   6.600   5.597
13906TIP3   OH241662   0.224   6.478   2.132
13906TIP3    H141663   0.202   6.517   2.217
13906TIP3    H241664   0.143   6.483   2.081
13907TIP3   OH241665   1.201   5.814   3.278
13907TIP3    H141666   1.146   5.770   3.343
13907TIP3    H241667   1.265   5.863   3.331
13908TIP3   OH241668   6.426   6.412   2.700
13908TIP3    H141669   6.359   6.364   2.650
13908TIP3    H241670   6.393   6.502   2.703
13909TIP3   OH241671   3.708   6.562   3.533
13909TIP3    H141672   3.724   6.546   3.626
13909TIP3    H241673   3.729   6.655   3.521
13910TIP3   OH241674   8.140   5.782   3.475
13910TIP3    H141675   8.113   5.701   3.518
13910TIP3    H241676   8.082   5.849   3.511
13911TIP3   OH241677   1.915   0.484   5.592
13911TIP3    H141678   1.977   0.422   5.631
13911TIP3    H241679   1.853   0.503   5.663
13912TIP3   OH241680   3.450   1.134   4.222
13912TIP3    H141681   3.467   1.053   4.173
13912TIP3    H241682   3.517   1.195   4.191
13913TIP3   OH241683   1.278   4.311   5.947
13913TIP3    H141684   1.358   4.289   5.996
13913TIP3    H241685   1.271   4.241   5.882
13914TIP3   OH241686   8.190   3.132   0.166
13914TIP3    H141687   8.205   3.044   0.201
13914TIP3    H241688   8.125   3.119   0.096
13915TIP3   OH241689   2.203   0.619   2.046
13915TIP3    H141690   2.138   0.595   2.111
13915TIP3    H241691   2.188   0.712   2.030
13916TIP3   OH241692   2.818   2.902   5.975
13916TIP3    H141693   2.797   2.947   6.057
13916TIP3    H241694   2.867   2.824   6.003
13917TIP3   OH241695   7.978   1.452   5.031
13917TIP3    H141696   8.060   1.499   5.044
13917TIP3    H241697   7.934   1.454   5.116
13918TIP3   OH241698   7.486   7.277   4.987
13918TIP3    H141699   7.575   7.296   4.957
13918TIP3    H241700   7.456   7.207   4.930
13919TIP3   OH241701   0.065   2.270   3.160
13919TIP3    H141702   0.094   2.296   3.072
13919TIP3    H241703   0.075   2.175   3.160
13920TIP3   OH241704   1.822   7.282   6.542
13920TIP3    H141705   1.876   7.309   6.616
13920TIP3    H241706   1.734   7.272   6.579
13921TIP3   OH241707   3.331   4.011   1.852
13921TIP3    H141708   3.360   3.969   1.933
13921TIP3    H241709   3.244   4.046   1.872
13922TIP3   OH241710   4.139   6.443   5.138
13922TIP3    H141711   4.143   6.366   5.081
13922TIP3    H241712   4.051   6.439   5.176
13923TIP3   OH241713   8.139   2.150   4.664
13923TIP3    H141714   8.173   2.156   4.574
13923TIP3    H241715   8.216   2.163   4.719
13924TIP3   OH241716   2.161   1.172   2.464
13924TIP3    H141717   2.162   1.216   2.549
13924TIP3    H241718   2.215   1.094   2.477
13925TIP3   OH241719   6.389   3.024   0.034
13925TIP3    H141720   6.470   3.068   0.058
13925TIP3    H241721   6.401   2.997  -0.057
13926TIP3   OH241722   0.074   4.809   6.384
13926TIP3    H141723   0.031   4.888   6.416
13926TIP3    H241724   0.001   4.751   6.359
13927TIP3   OH241725   4.416   1.539   4.384
13927TIP3    H141726   4.450   1.545   4.473
13927TIP3    H241727   4.491   1.561   4.328
13928TIP3   OH241728   1.443   0.482   5.364
13928TIP3    H141729   1.405   0.526   5.440
13928TIP3    H241730   1.525   0.445   5.395
13929TIP3   OH241731   1.994   6.012   3.285
13929TIP3    H141732   1.972   5.954   3.212
13929TIP3    H241733   2.083   6.042   3.265
13930TIP3   OH241734   7.587   6.703   3.828
13930TIP3    H141735   7.666   6.726   3.779
13930TIP3    H241736   7.590   6.607   3.834
13931TIP3   OH241737   3.028   0.052   2.913
13931TIP3    H141738   3.010   0.054   3.007
13931TIP3    H241739   2.969  -0.015   2.879
13932TIP3   OH241740   6.122   0.486   4.151
13932TIP3    H141741   6.153   0.396   4.160
13932TIP3    H241742   6.116   0.519   4.240
13933TIP3   OH241743   2.400   2.151   1.070
13933TIP3    H141744   2.494   2.154   1.050
13933TIP3    H241745   2.390   2.069   1.120
13934TIP3   OH241746   4.432   7.629   4.798
13934TIP3    H141747   4.404   7.556   4.743
13934TIP3    H241748   4.508   7.595   4.846
13935TIP3   OH241749   7.048   5.965   2.070
13935TIP3    H141750   6.966   5.980   2.118
13935TIP3    H241751   7.115   5.957   2.138
13936TIP3   OH241752   2.783   1.819   6.409
13936TIP3    H141753   2.843   1.808   6.483
13936TIP3    H241754   2.697   1.834   6.450
13937TIP3   OH241755   3.007   2.157   6.389
13937TIP3    H141756   3.038   2.119   6.307
13937TIP3    H241757   3.081   2.208   6.422
13938TIP3   OH241758   4.879   6.241   1.783
13938TIP3    H141759   4.948   6.294   1.822
13938TIP3    H241760   4.883   6.157   1.830
13939TIP3   OH241761   0.802   3.201   3.298
13939TIP3    H141762   0.712   3.190   3.269
13939TIP3    H241763   0.812   3.137   3.369
13940TIP3   OH241764   6.082   5.311   5.611
13940TIP3    H141765   6.139   5.240   5.581
13940TIP3    H241766   6.123   5.391   5.576
13941TIP3   OH241767   1.359   4.763   2.710
13941TIP3    H141768   1.327   4.687   2.759
13941TIP3    H241769   1.451   4.771   2.736
13942TIP3   OH241770   2.996   1.521   1.838
13942TIP3    H141771   3.051   1.548   1.765
13942TIP3    H241772   3.055   1.517   1.913
13943TIP3   OH241773   4.196   6.059   5.453
13943TIP3    H141774   4.227   6.146   5.425
13943TIP3    H241775   4.120   6.042   5.397
13944TIP3   OH241776   3.753   5.776   5.072
13944TIP3    H141777   3.681   5.736   5.122
13944TIP3    H241778   3.798   5.702   5.032
13945TIP3   OH241779   4.286   5.619   4.159
13945TIP3    H141780   4.221   5.614   4.229
13945TIP3    H241781   4.351   5.681   4.191
13946TIP3   OH241782   4.949   5.690   4.686
13946TIP3    H141783   4.907   5.739   4.757
13946TIP3    H241784   4.911   5.602   4.692
13947TIP3   OH241785   7.426   0.578   4.131
13947TIP3    H141786   7.352   0.535   4.175
13947TIP3    H241787   7.481   0.610   4.202
13948TIP3   OH241788   6.692   1.184   4.404
13948TIP3    H141789   6.655   1.272   4.395
13948TIP3    H241790   6.785   1.195   4.387
13949TIP3   OH241791   3.710   2.997   6.035
13949TIP3    H141792   3.658   2.947   5.973
13949TIP3    H241793   3.666   2.985   6.119
13950TIP3   OH241794   2.879   1.864   6.709
13950TIP3    H141795   2.843   1.904   6.630
13950TIP3    H241796   2.829   1.903   6.780
13951TIP3   OH241797   2.372   7.522   6.323
13951TIP3    H141798   2.285   7.499   6.357
13951TIP3    H241799   2.409   7.439   6.294
13952TIP3   OH241800   1.053   6.768   5.654
13952TIP3    H141801   0.971   6.719   5.649
13952TIP3    H241802   1.092   6.758   5.567
13953TIP3   OH241803   6.393   3.252   4.306
13953TIP3    H141804   6.451   3.176   4.299
13953TIP3    H241805   6.389   3.271   4.399
13954TIP3   OH241806   5.106   6.467   4.685
13954TIP3    H141807   5.094   6.528   4.612
13954TIP3    H241808   5.039   6.399   4.670
13955TIP3   OH241809   4.095   3.804   4.021
13955TIP3    H141810   4.062   3.874   3.965
13955TIP3    H241811   4.120   3.735   3.960
13956TIP3   OH241812   4.709   3.859   1.080
13956TIP3    H141813   4.664   3.941   1.098
13956TIP3    H241814   4.794   3.885   1.044
13957TIP3   OH241815   7.365   0.849   0.320
13957TIP3    H141816   7.337   0.933   0.285
13957TIP3    H241817   7.288   0.793   0.311
13958TIP3   OH241818   0.789   1.810   5.194
13958TIP3    H141819   0.702   1.817   5.232
13958TIP3    H241820   0.804   1.716   5.186
13959TIP3   OH241821   5.169   2.224   5.503
13959TIP3    H141822   5.255   2.192   5.531
13959TIP3    H241823   5.112   2.207   5.577
13960TIP3   OH241824   6.275   1.333   3.985
13960TIP3    H141825   6.200   1.346   4.043
13960TIP3    H241826   6.297   1.240   3.995
13961TIP3   OH241827   1.040   6.725   3.215
13961TIP3    H141828   1.092   6.703   3.291
13961TIP3    H241829   1.036   6.644   3.164
13962TIP3   OH241830   5.011   1.256   6.130
13962TIP3    H141831   5.085   1.237   6.072
13962TIP3    H241832   5.038   1.335   6.178
13963TIP3   OH241833   4.436   6.126   1.417
13963TIP3    H141834   4.527   6.156   1.409
13963TIP3    H241835   4.444   6.035   1.444
13964TIP3   OH241836   5.731   6.658   0.389
13964TIP3    H141837   5.679   6.656   0.469
13964TIP3    H241838   5.667   6.646   0.318
13965TIP3   OH241839   8.193   3.075   4.836
13965TIP3    H141840   8.262   3.033   4.887
13965TIP3    H241841   8.228   3.081   4.747
13966TIP3   OH241842   4.954   7.824   0.747
13966TIP3    H141843   4.894   7.750   0.755
13966TIP3    H241844   4.942   7.874   0.829
13967TIP3   OH241845   7.317   0.902   2.014
13967TIP3    H141846   7.228   0.876   1.990
13967TIP3    H241847   7.310   0.933   2.104
13968TIP3   OH241848   0.295   5.968   3.072
13968TIP3    H141849   0.241   5.899   3.035
13968TIP3    H241850   0.384   5.933   3.069
13969TIP3   OH241851   2.448   1.634   2.370
13969TIP3    H141852   2.469   1.606   2.281
13969TIP3    H241853   2.429   1.728   2.362
13970TIP3   OH241854   7.783   3.179   3.560
13970TIP3    H141855   7.833   3.186   3.478
13970TIP3    H241856   7.849   3.170   3.628
13971TIP3   OH241857   5.489   5.554   5.443
13971TIP3    H141858   5.451   5.598   5.366
13971TIP3    H241859   5.451   5.600   5.518
13972TIP3   OH241860   1.054   6.952   4.674
13972TIP3    H141861   1.043   6.863   4.640
13972TIP3    H241862   0.965   6.984   4.687
13973TIP3   OH241863   8.256   7.637   0.556
13973TIP3    H141864   8.191   7.624   0.625
13973TIP3    H241865   8.209   7.682   0.486
13974TIP3   OH241866   1.373   2.322   6.014
13974TIP3    H141867   1.325   2.240   6.008
13974TIP3    H241868   1.316   2.387   5.973
13975TIP3   OH241869   6.158   5.522   3.870
13975TIP3    H141870   6.102   5.456   3.830
13975TIP3    H241871   6.098   5.589   3.903
13976TIP3   OH241872   2.901   3.468   3.461
13976TIP3    H141873   2.995   3.484   3.457
13976TIP3    H241874   2.865   3.548   3.499
13977TIP3   OH241875   3.579   7.229   6.186
13977TIP3    H141876   3.537   7.254   6.104
13977TIP3    H241877   3.639   7.302   6.205
13978TIP3   OH241878   0.339   0.825   1.806
13978TIP3    H141879   0.386   0.834   1.889
13978TIP3    H241880   0.316   0.914   1.781
13979TIP3   OH241881   0.434   2.918   1.730
13979TIP3    H141882   0.355   2.961   1.698
13979TIP3    H241883   0.471   2.875   1.653
13980TIP3   OH241884   4.949   3.374   0.453
13980TIP3    H141885   4.899   3.384   0.372
13980TIP3    H241886   5.035   3.343   0.424
13981TIP3   OH241887   7.555   7.302   2.230
13981TIP3    H141888   7.541   7.212   2.200
13981TIP3    H241889   7.649   7.316   2.219
13982TIP3   OH241890   7.168   5.438   4.993
13982TIP3    H141891   7.134   5.394   5.071
13982TIP3    H241892   7.177   5.530   5.020
13983TIP3   OH241893   0.606   7.797   0.261
13983TIP3    H141894   0.687   7.834   0.228
13983TIP3    H241895   0.622   7.702   0.265
13984TIP3   OH241896   5.772   4.200   1.253
13984TIP3    H141897   5.794   4.290   1.228
13984TIP3    H241898   5.694   4.179   1.202
13985TIP3   OH241899   2.012   6.636   2.256
13985TIP3    H141900   2.087   6.576   2.264
13985TIP3    H241901   2.044   6.719   2.293
13986TIP3   OH241902   0.126   3.784   3.160
13986TIP3    H141903   0.210   3.806   3.120
13986TIP3    H241904   0.075   3.864   3.153
13987TIP3   OH241905   7.077   2.735   6.362
13987TIP3    H141906   7.101   2.827   6.357
13987TIP3    H241907   7.114   2.705   6.445
13988TIP3   OH241908   0.408   1.866   1.282
13988TIP3    H141909   0.458   1.914   1.347
13988TIP3    H241910   0.324   1.911   1.278
13989TIP3   OH241911   7.287   5.651   0.272
13989TIP3    H141912   7.242   5.653   0.187
13989TIP3    H241913   7.217   5.668   0.336
13990TIP3   OH241914   4.095   6.800   5.592
13990TIP3    H141915   4.150   6.743   5.538
13990TIP3    H241916   4.009   6.800   5.548
13991TIP3   OH241917   7.975   3.387   6.376
13991TIP3    H141918   7.927   3.461   6.411
13991TIP3    H241919   8.048   3.375   6.437
13992TIP3   OH241920   6.768   1.333   2.740
13992TIP3    H141921   6.810   1.248   2.752
13992TIP3    H241922   6.831   1.382   2.687
13993TIP3   OH241923   1.310   5.406   3.379
13993TIP3    H141924   1.249   5.352   3.328
13993TIP3    H241925   1.361   5.453   3.312
13994TIP3   OH241926   3.523   6.842   1.442
13994TIP3    H141927   3.506   6.790   1.363
13994TIP3    H241928   3.440   6.886   1.459
13995TIP3   OH241929   2.480   7.223   5.241
13995TIP3    H141930   2.488   7.134   5.207
13995TIP3    H241931   2.480   7.279   5.163
13996TIP3   OH241932   4.077   5.807   2.543
13996TIP3    H141933   4.162   5.845   2.521
13996TIP3    H241934   4.073   5.726   2.492
13997TIP3   OH241935   3.327   1.508   6.078
13997TIP3    H141936   3.354   1.448   6.148
13997TIP3    H241937   3.249   1.467   6.040
13998TIP3   OH241938   0.907   0.955   2.774
13998TIP3    H141939   0.916   1.049   2.758
13998TIP3    H241940   0.813   0.941   2.785
13999TIP3   OH241941   5.145   4.288   5.842
13999TIP3    H141942   5.121   4.218   5.903
13999TIP3    H241943   5.091   4.363   5.869
14000TIP3   OH241944   2.736   6.873   4.050
14000TIP3    H141945   2.672   6.803   4.064
14000TIP3    H241946   2.695   6.930   3.985
14001TIP3   OH241947   5.014   0.365   1.537
14001TIP3    H141948   5.105   0.343   1.560
14001TIP3    H241949   4.972   0.384   1.621
14002TIP3   OH241950   0.353   1.540   2.380
14002TIP3    H141951   0.438   1.500   2.397
14002TIP3    H241952   0.320   1.567   2.466
14003TIP3   OH241953   1.361   1.336   4.008
14003TIP3    H141954   1.304   1.259   4.005
14003TIP3    H241955   1.416   1.328   3.929
14004TIP3   OH241956   2.162   0.218   4.219
14004TIP3    H141957   2.148   0.125   4.201
14004TIP3    H241958   2.235   0.219   4.282
14005TIP3   OH241959   7.115   2.320   0.737
14005TIP3    H141960   7.042   2.297   0.795
14005TIP3    H241961   7.078   2.387   0.678
14006TIP3   OH241962   8.140   7.600   4.041
14006TIP3    H141963   8.172   7.683   4.075
14006TIP3    H241964   8.204   7.535   4.072
14007TIP3   OH241965   3.559   7.035   5.707
14007TIP3    H141966   3.547   7.125   5.675
14007TIP3    H241967   3.469   7.002   5.716
14008TIP3   OH241968   0.840   3.490   5.198
14008TIP3    H141969   0.849   3.463   5.290
14008TIP3    H241970   0.750   3.521   5.192
14009TIP3   OH241971   5.294   1.746   1.658
14009TIP3    H141972   5.225   1.797   1.701
14009TIP3    H241973   5.375   1.779   1.695
14010TIP3   OH241974   6.457   5.803   6.576
14010TIP3    H141975   6.458   5.897   6.595
14010TIP3    H241976   6.439   5.797   6.483
14011TIP3   OH241977   4.264   0.368   1.099
14011TIP3    H141978   4.301   0.375   1.187
14011TIP3    H241979   4.270   0.274   1.078
14012TIP3   OH241980   7.437   4.836   6.470
14012TIP3    H141981   7.366   4.893   6.499
14012TIP3    H241982   7.461   4.870   6.383
14013TIP3   OH241983   3.099   3.734   6.394
14013TIP3    H141984   3.054   3.744   6.310
14013TIP3    H241985   3.146   3.650   6.386
14014TIP3   OH241986   0.193   7.656   3.433
14014TIP3    H141987   0.142   7.576   3.439
14014TIP3    H241988   0.161   7.711   3.505
14015TIP3   OH241989   2.075   0.084   4.980
14015TIP3    H141990   2.123   0.162   4.951
14015TIP3    H241991   2.020   0.060   4.905
14016TIP3   OH241992   5.923   6.199   0.272
14016TIP3    H141993   5.978   6.271   0.242
14016TIP3    H241994   5.973   6.158   0.342
14017TIP3   OH241995   0.603   5.730   5.023
14017TIP3    H141996   0.608   5.728   4.927
14017TIP3    H241997   0.591   5.822   5.045
14018TIP3   OH241998   6.088   3.901   2.656
14018TIP3    H141999   6.014   3.874   2.602
14018TIP3    H242000   6.125   3.977   2.611
14019TIP3   OH242001   4.651   5.738   1.371
14019TIP3    H142002   4.684   5.828   1.374
14019TIP3    H242003   4.685   5.697   1.450
14020TIP3   OH242004   1.892   0.061   5.179
14020TIP3    H142005   1.932   0.084   5.095
14020TIP3    H242006   1.929  -0.025   5.200
14021TIP3   OH242007   4.763   4.465   1.792
14021TIP3    H142008   4.793   4.541   1.843
14021TIP3    H242009   4.672   4.452   1.820
14022TIP3   OH242010   2.435   6.613   1.989
14022TIP3    H142011   2.423   6.624   2.083
14022TIP3    H242012   2.468   6.523   1.980
14023TIP3   OH242013   1.434   6.594   4.946
14023TIP3    H142014   1.506   6.612   4.885
14023TIP3    H242015   1.469   6.620   5.032
14024TIP3   OH242016   6.725   2.883   3.046
14024TIP3    H142017   6.787   2.939   3.000
14024TIP3    H242018   6.647   2.938   3.057
14025TIP3   OH242019   6.024   3.893   4.896
14025TIP3    H142020   6.012   3.858   4.808
14025TIP3    H242021   6.065   3.822   4.945
14026TIP3   OH242022   2.063   7.778   1.214
14026TIP3    H142023   2.114   7.743   1.140
14026TIP3    H242024   2.106   7.860   1.236
14027TIP3   OH242025   4.091   7.248   2.652
14027TIP3    H142026   4.107   7.290   2.567
14027TIP3    H242027   4.148   7.295   2.713
14028TIP3   OH242028   3.583   1.219   2.393
14028TIP3    H142029   3.657   1.267   2.356
14028TIP3    H242030   3.585   1.135   2.349
14029TIP3   OH242031   3.967   5.304   0.385
14029TIP3    H142032   4.006   5.254   0.457
14029TIP3    H242033   3.891   5.347   0.425
14030TIP3   OH242034   7.655   4.334   2.805
14030TIP3    H142035   7.681   4.245   2.780
14030TIP3    H242036   7.620   4.325   2.894
14031TIP3   OH242037   0.109   4.206   1.400
14031TIP3    H142038   0.085   4.119   1.368
14031TIP3    H242039   0.095   4.201   1.495
14032TIP3   OH242040   1.738   2.397   6.550
14032TIP3    H142041   1.828   2.428   6.546
14032TIP3    H242042   1.729   2.360   6.638
14033TIP3   OH242043   2.875   6.197   1.932
14033TIP3    H142044   2.794   6.240   1.960
14033TIP3    H242045   2.919   6.174   2.014
14034TIP3   OH242046   1.665   1.690   6.295
14034TIP3    H142047   1.586   1.637   6.305
14034TIP3    H242048   1.654   1.762   6.357
14035TIP3   OH242049   1.830   5.115   2.479
14035TIP3    H142050   1.879   5.051   2.530
14035TIP3    H242051   1.748   5.071   2.458
14036TIP3   OH242052   7.410   3.831   1.700
14036TIP3    H142053   7.316   3.824   1.687
14036TIP3    H242054   7.448   3.773   1.634
14037TIP3   OH242055   5.938   4.918   5.535
14037TIP3    H142056   5.877   4.983   5.501
14037TIP3    H242057   5.938   4.932   5.630
14038TIP3   OH242058   7.645   4.494   3.250
14038TIP3    H142059   7.639   4.545   3.331
14038TIP3    H242060   7.663   4.404   3.280
14039TIP3   OH242061   8.222   5.185   2.150
14039TIP3    H142062   8.287   5.129   2.193
14039TIP3    H242063   8.271   5.263   2.125
14040TIP3   OH242064   6.209   4.886   6.123
14040TIP3    H142065   6.174   4.822   6.060
14040TIP3    H242066   6.287   4.922   6.080
14041TIP3   OH242067   1.383   6.614   0.239
14041TIP3    H142068   1.365   6.619   0.333
14041TIP3    H242069   1.336   6.689   0.202
14042TIP3   OH242070   3.119   7.727   5.513
14042TIP3    H142071   3.058   7.653   5.515
14042TIP3    H242072   3.084   7.788   5.578
14043TIP3   OH242073   6.886   0.656   1.372
14043TIP3    H142074   6.918   0.745   1.377
14043TIP3    H242075   6.948   0.605   1.425
14044TIP3   OH242076   6.473   5.431   1.185
14044TIP3    H142077   6.560   5.403   1.155
14044TIP3    H242078   6.432   5.352   1.218
14045TIP3   OH242079   7.431   0.672   5.452
14045TIP3    H142080   7.458   0.585   5.482
14045TIP3    H242081   7.341   0.661   5.422
14046TIP3   OH242082   6.729   5.294   4.359
14046TIP3    H142083   6.671   5.218   4.364
14046TIP3    H242084   6.674   5.362   4.319
14047TIP3   OH242085   3.522   0.886   4.095
14047TIP3    H142086   3.467   0.833   4.037
14047TIP3    H242087   3.585   0.824   4.131
14048TIP3   OH242088   2.188   4.837   1.662
14048TIP3    H142089   2.271   4.802   1.694
14048TIP3    H242090   2.211   4.923   1.626
14049TIP3   OH242091   5.901   0.984   3.366
14049TIP3    H142092   5.926   1.027   3.284
14049TIP3    H242093   5.866   0.900   3.339
14050TIP3   OH242094   2.781   4.099   2.331
14050TIP3    H142095   2.851   4.155   2.363
14050TIP3    H242096   2.820   4.054   2.256
14051TIP3   OH242097   5.576   1.813   2.484
14051TIP3    H142098   5.630   1.743   2.521
14051TIP3    H242099   5.488   1.774   2.479
14052TIP3   OH242100   0.177   0.069   1.096
14052TIP3    H142101   0.225   0.126   1.156
14052TIP3    H242102   0.105   0.034   1.148
14053TIP3   OH242103   5.910   0.315   0.447
14053TIP3    H142104   5.912   0.220   0.457
14053TIP3    H242105   5.821   0.340   0.469
14054TIP3   OH242106   6.865   0.052   4.648
14054TIP3    H142107   6.868   0.053   4.744
14054TIP3    H242108   6.853  -0.041   4.626
14055TIP3   OH242109   8.237   6.582   3.052
14055TIP3    H142110   8.242   6.501   3.103
14055TIP3    H242111   8.146   6.585   3.023
14056TIP3   OH242112   1.319   6.335   1.555
14056TIP3    H142113   1.331   6.413   1.609
14056TIP3    H242114   1.236   6.298   1.584
14057TIP3   OH242115   7.057   4.965   0.397
14057TIP3    H142116   6.981   4.923   0.437
14057TIP3    H242117   7.037   4.965   0.303
14058TIP3   OH242118   3.829   3.818   5.720
14058TIP3    H142119   3.903   3.792   5.664
14058TIP3    H242120   3.871   3.850   5.800
14059TIP3   OH242121   6.666   2.219   6.028
14059TIP3    H142122   6.741   2.180   6.071
14059TIP3    H242123   6.697   2.305   5.998
14060TIP3   OH242124   7.761   5.203   1.828
14060TIP3    H142125   7.848   5.231   1.800
14060TIP3    H242126   7.756   5.228   1.921
14061TIP3   OH242127   1.418   0.979   0.450
14061TIP3    H142128   1.347   1.036   0.478
14061TIP3    H242129   1.390   0.891   0.475
14062TIP3   OH242130   3.521   0.091   1.549
14062TIP3    H142131   3.439   0.044   1.558
14062TIP3    H242132   3.506   0.155   1.479
14063TIP3   OH242133   5.293   7.649   3.027
14063TIP3    H142134   5.350   7.620   3.097
14063TIP3    H242135   5.216   7.686   3.072
14064TIP3   OH242136   5.637   1.878   2.793
14064TIP3    H142137   5.693   1.889   2.716
14064TIP3    H242138   5.589   1.960   2.800
14065TIP3   OH242139   0.646   5.830   5.687
14065TIP3    H142140   0.557   5.851   5.715
14065TIP3    H242141   0.637   5.758   5.626
14066TIP3   OH242142   1.797   7.811   6.769
14066TIP3    H142143   1.766   7.847   6.686
14066TIP3    H242144   1.878   7.859   6.788
14067TIP3   OH242145   0.939   6.060   5.695
14067TIP3    H142146   0.916   6.052   5.602
14067TIP3    H242147   0.950   5.970   5.725
14068TIP3   OH242148   1.370   4.713   5.805
14068TIP3    H142149   1.392   4.793   5.853
14068TIP3    H242150   1.308   4.668   5.862
14069TIP3   OH242151   0.376   3.368   6.075
14069TIP3    H142152   0.287   3.393   6.101
14069TIP3    H242153   0.430   3.442   6.101
14070TIP3   OH242154   4.047   2.022   5.220
14070TIP3    H142155   3.974   1.960   5.223
14070TIP3    H242156   4.124   1.968   5.201
14071TIP3   OH242157   1.520   6.652   4.189
14071TIP3    H142158   1.474   6.651   4.274
14071TIP3    H242159   1.609   6.622   4.210
14072TIP3   OH242160   5.466   3.874   6.233
14072TIP3    H142161   5.458   3.923   6.315
14072TIP3    H242162   5.378   3.837   6.219
14073TIP3   OH242163   6.680   2.648   1.499
14073TIP3    H142164   6.737   2.725   1.500
14073TIP3    H242165   6.723   2.586   1.559
14074TIP3   OH242166   2.828   4.405   2.659
14074TIP3    H142167   2.849   4.496   2.677
14074TIP3    H242168   2.842   4.360   2.743
14075TIP3   OH242169   2.050   7.489   1.474
14075TIP3    H142170   2.006   7.573   1.486
14075TIP3    H242171   2.031   7.441   1.554
14076TIP3   OH242172   3.929   4.257   4.207
14076TIP3    H142173   3.969   4.273   4.293
14076TIP3    H242174   3.983   4.188   4.168
14077TIP3   OH242175   0.542   4.951   5.279
14077TIP3    H142176   0.474   4.972   5.215
14077TIP3    H242177   0.575   5.036   5.307
14078TIP3   OH242178   2.401   5.845   3.081
14078TIP3    H142179   2.472   5.792   3.118
14078TIP3    H242180   2.444   5.925   3.052
14079TIP3   OH242181   5.062   3.432   5.975
14079TIP3    H142182   5.144   3.385   5.987
14079TIP3    H242183   5.089   3.523   5.962
14080TIP3   OH242184   5.765   3.086   5.011
14080TIP3    H142185   5.780   3.136   4.931
14080TIP3    H242186   5.681   3.043   4.998
14081TIP3   OH242187   3.023   5.907   3.193
14081TIP3    H142188   3.087   5.959   3.144
14081TIP3    H242189   2.981   5.971   3.251
14082TIP3   OH242190   1.361   6.563   6.609
14082TIP3    H142191   1.446   6.572   6.653
14082TIP3    H242192   1.300   6.615   6.662
14083TIP3   OH242193   1.106   2.403   5.503
14083TIP3    H142194   1.020   2.428   5.537
14083TIP3    H242195   1.168   2.459   5.551
14084TIP3   OH242196   3.326   4.614   0.568
14084TIP3    H142197   3.335   4.708   0.556
14084TIP3    H242198   3.240   4.593   0.530
14085TIP3   OH242199   3.438   1.601   5.763
14085TIP3    H142200   3.468   1.512   5.779
14085TIP3    H242201   3.430   1.607   5.667
14086TIP3   OH242202   4.465   1.795   4.883
14086TIP3    H142203   4.471   1.741   4.962
14086TIP3    H242204   4.504   1.878   4.908
14087TIP3   OH242205   3.413   3.833   6.122
14087TIP3    H142206   3.368   3.773   6.061
14087TIP3    H242207   3.391   3.920   6.090
14088TIP3   OH242208   0.441   7.819   0.477
14088TIP3    H142209   0.495   7.816   0.398
14088TIP3    H242210   0.396   7.734   0.479
14089TIP3   OH242211   6.669   1.557   0.826
14089TIP3    H142212   6.601   1.581   0.889
14089TIP3    H242213   6.621   1.527   0.749
14090TIP3   OH242214   6.372   1.708   6.205
14090TIP3    H142215   6.349   1.714   6.112
14090TIP3    H242216   6.462   1.740   6.210
14091TIP3   OH242217   0.936   3.212   2.161
14091TIP3    H142218   0.882   3.227   2.239
14091TIP3    H242219   0.920   3.120   2.139
14092TIP3   OH242220   3.256   4.536   3.578
14092TIP3    H142221   3.343   4.497   3.589
14092TIP3    H242222   3.267   4.600   3.507
14093TIP3   OH242223   7.826   5.085   5.311
14093TIP3    H142224   7.839   5.096   5.405
14093TIP3    H242225   7.732   5.098   5.298
14094TIP3   OH242226   4.887   1.806   3.131
14094TIP3    H142227   4.967   1.765   3.097
14094TIP3    H242228   4.855   1.860   3.058
14095TIP3   OH242229   6.188   2.770   5.424
14095TIP3    H142230   6.228   2.845   5.380
14095TIP3    H242231   6.226   2.694   5.380
14096TIP3   OH242232   2.445   1.476   4.963
14096TIP3    H142233   2.503   1.516   4.898
14096TIP3    H242234   2.372   1.442   4.911
14097TIP3   OH242235   0.864   1.077   6.759
14097TIP3    H142236   0.838   1.139   6.691
14097TIP3    H242237   0.805   1.095   6.832
14098TIP3   OH242238   5.078   7.033   3.032
14098TIP3    H142239   5.117   7.104   3.083
14098TIP3    H242240   5.100   6.953   3.081
14099TIP3   OH242241   3.174   6.045   0.459
14099TIP3    H142242   3.233   6.070   0.530
14099TIP3    H242243   3.107   5.991   0.501
14100TIP3   OH242244   4.525   0.852   4.870
14100TIP3    H142245   4.553   0.762   4.853
14100TIP3    H242246   4.432   0.853   4.848
14101TIP3   OH242247   3.258   4.662   1.252
14101TIP3    H142248   3.251   4.566   1.258
14101TIP3    H242249   3.289   4.678   1.163
14102TIP3   OH242250   5.539   1.756   6.157
14102TIP3    H142251   5.585   1.731   6.237
14102TIP3    H242252   5.449   1.774   6.186
14103TIP3   OH242253   3.558   1.511   3.293
14103TIP3    H142254   3.594   1.430   3.329
14103TIP3    H242255   3.540   1.565   3.369
14104TIP3   OH242256   1.500   4.437   3.971
14104TIP3    H142257   1.462   4.516   4.008
14104TIP3    H242258   1.429   4.373   3.973
14105TIP3   OH242259   0.053   2.192   0.381
14105TIP3    H142260   0.067   2.097   0.388
14105TIP3    H242261  -0.027   2.208   0.431
14106TIP3   OH242262   0.774   7.341   4.317
14106TIP3    H142263   0.745   7.408   4.378
14106TIP3    H242264   0.723   7.263   4.341
14107TIP3   OH242265   5.836   6.189   1.521
14107TIP3    H142266   5.874   6.258   1.466
14107TIP3    H242267   5.818   6.232   1.604
14108TIP3   OH242268   3.705   6.482   3.295
14108TIP3    H142269   3.697   6.517   3.384
14108TIP3    H242270   3.783   6.427   3.298
14109TIP3   OH242271   5.401   4.599   5.078
14109TIP3    H142272   5.434   4.552   5.001
14109TIP3    H242273   5.435   4.687   5.070
14110TIP3   OH242274   3.166   4.598   2.020
14110TIP3    H142275   3.170   4.579   1.926
14110TIP3    H242276   3.214   4.526   2.061
14111TIP3   OH242277   1.560   5.103   3.941
14111TIP3    H142278   1.630   5.122   3.879
14111TIP3    H242279   1.497   5.052   3.890
14112TIP3   OH242280   1.492   7.800   5.433
14112TIP3    H142281   1.548   7.868   5.469
14112TIP3    H242282   1.541   7.719   5.447
14113TIP3   OH242283   0.444   0.435   0.795
14113TIP3    H142284   0.476   0.482   0.872
14113TIP3    H242285   0.522   0.393   0.758
14114TIP3   OH242286   2.795   0.933   3.307
14114TIP3    H142287   2.716   0.895   3.267
14114TIP3    H242288   2.804   1.018   3.264
14115TIP3   OH242289   7.935   6.788   3.887
14115TIP3    H142290   7.964   6.700   3.861
14115TIP3    H242291   7.858   6.773   3.941
14116TIP3   OH242292   6.102   2.238   3.252
14116TIP3    H142293   6.026   2.263   3.200
14116TIP3    H242294   6.172   2.294   3.220
14117TIP3   OH242295   1.967   3.898   3.898
14117TIP3    H142296   1.901   3.952   3.942
14117TIP3    H242297   1.992   3.833   3.963
14118TIP3   OH242298   0.588   6.408   3.545
14118TIP3    H142299   0.636   6.336   3.503
14118TIP3    H242300   0.590   6.478   3.479
14119TIP3   OH242301   2.574   2.662   0.514
14119TIP3    H142302   2.507   2.634   0.452
14119TIP3    H242303   2.655   2.665   0.462
14120TIP3   OH242304   4.449   6.621   0.473
14120TIP3    H142305   4.444   6.694   0.411
14120TIP3    H242306   4.507   6.557   0.431
14121TIP3   OH242307   2.323   5.904   4.597
14121TIP3    H142308   2.398   5.952   4.561
14121TIP3    H242309   2.253   5.917   4.533
14122TIP3   OH242310   5.230   2.092   1.000
14122TIP3    H142311   5.322   2.075   1.018
14122TIP3    H242312   5.187   2.087   1.085
14123TIP3   OH242313   2.671   2.201   1.258
14123TIP3    H142314   2.750   2.245   1.289
14123TIP3    H242315   2.700   2.146   1.186
14124TIP3   OH242316   0.592   1.429   1.181
14124TIP3    H142317   0.583   1.368   1.255
14124TIP3    H242318   0.672   1.477   1.199
14125TIP3   OH242319   4.582   0.202   0.674
14125TIP3    H142320   4.528   0.123   0.680
14125TIP3    H242321   4.665   0.171   0.637
14126TIP3   OH242322   0.262   0.650   5.044
14126TIP3    H142323   0.222   0.669   4.959
14126TIP3    H242324   0.356   0.646   5.026
14127TIP3   OH242325   5.224   2.763   4.038
14127TIP3    H142326   5.206   2.749   3.945
14127TIP3    H242327   5.222   2.676   4.077
14128TIP3   OH242328   6.520   7.083   3.080
14128TIP3    H142329   6.581   7.066   3.152
14128TIP3    H242330   6.438   7.042   3.107
14129TIP3   OH242331   0.351   6.448   0.279
14129TIP3    H142332   0.318   6.374   0.229
14129TIP3    H242333   0.310   6.525   0.239
14130TIP3   OH242334   6.920   4.654   5.653
14130TIP3    H142335   6.993   4.712   5.630
14130TIP3    H242336   6.960   4.567   5.659
14131TIP3   OH242337   2.446   2.354   0.596
14131TIP3    H142338   2.497   2.387   0.521
14131TIP3    H242339   2.357   2.386   0.580
14132TIP3   OH242340   3.248   4.096   6.479
14132TIP3    H142341   3.301   4.021   6.452
14132TIP3    H242342   3.288   4.124   6.562
14133TIP3   OH242343   4.399   3.645   1.859
14133TIP3    H142344   4.393   3.729   1.814
14133TIP3    H242345   4.431   3.584   1.793
14134TIP3   OH242346   2.569   1.922   1.640
14134TIP3    H142347   2.530   1.990   1.585
14134TIP3    H242348   2.606   1.859   1.579
14135TIP3   OH242349   5.442   6.359   3.270
14135TIP3    H142350   5.433   6.297   3.198
14135TIP3    H242351   5.357   6.402   3.276
14136TIP3   OH242352   4.782   3.088   5.612
14136TIP3    H142353   4.840   3.079   5.687
14136TIP3    H242354   4.721   3.157   5.637
14137TIP3   OH242355   4.972   4.779   2.149
14137TIP3    H142356   5.001   4.711   2.209
14137TIP3    H242357   4.876   4.771   2.147
14138TIP3   OH242358   3.243   6.590   6.351
14138TIP3    H142359   3.196   6.509   6.331
14138TIP3    H242360   3.269   6.581   6.443
14139TIP3   OH242361   0.466   0.759   5.415
14139TIP3    H142362   0.450   0.823   5.484
14139TIP3    H242363   0.530   0.802   5.357
14140TIP3   OH242364   8.029   2.065   0.688
14140TIP3    H142365   8.124   2.054   0.694
14140TIP3    H242366   7.993   1.998   0.747
14141TIP3   OH242367   1.768   5.195   6.633
14141TIP3    H142368   1.815   5.179   6.550
14141TIP3    H242369   1.726   5.112   6.653
14142TIP3   OH242370   5.723   5.192   6.004
14142TIP3    H142371   5.781   5.233   5.941
14142TIP3    H242372   5.639   5.237   5.992
14143TIP3   OH242373   1.103   0.782   3.771
14143TIP3    H142374   1.130   0.799   3.861
14143TIP3    H242375   1.175   0.816   3.717
14144TIP3   OH242376   7.267   7.292   1.545
14144TIP3    H142377   7.243   7.266   1.456
14144TIP3    H242378   7.282   7.209   1.590
14145TIP3   OH242379   8.306   4.753   2.940
14145TIP3    H142380   8.262   4.834   2.969
14145TIP3    H242381   8.236   4.689   2.933
14146TIP3   OH242382   4.811   2.128   1.513
14146TIP3    H142383   4.760   2.114   1.432
14146TIP3    H242384   4.802   2.046   1.561
14147TIP3   OH242385   5.181   1.298   2.583
14147TIP3    H142386   5.194   1.258   2.497
14147TIP3    H242387   5.096   1.342   2.575
14148TIP3   OH242388   7.338   0.861   5.639
14148TIP3    H142389   7.388   0.802   5.582
14148TIP3    H242390   7.266   0.892   5.584
14149TIP3   OH242391   2.806   3.721   1.837
14149TIP3    H142392   2.822   3.676   1.755
14149TIP3    H242393   2.830   3.812   1.819
14150TIP3   OH242394   7.737   3.865   3.162
14150TIP3    H142395   7.720   3.955   3.133
14150TIP3    H242396   7.777   3.822   3.086
14151TIP3   OH242397   1.917   4.384   3.124
14151TIP3    H142398   1.971   4.342   3.191
14151TIP3    H242399   1.937   4.337   3.043
14152TIP3   OH242400   1.748   5.811   5.923
14152TIP3    H142401   1.750   5.902   5.894
14152TIP3    H242402   1.671   5.804   5.979
14153TIP3   OH242403   3.281   3.079   0.367
14153TIP3    H142404   3.289   2.984   0.355
14153TIP3    H242405   3.277   3.090   0.462
14154TIP3   OH242406   3.578   4.682   2.564
14154TIP3    H142407   3.640   4.717   2.628
14154TIP3    H242408   3.633   4.643   2.496
14155TIP3   OH242409   0.981   7.817   4.809
14155TIP3    H142410   0.928   7.785   4.736
14155TIP3    H242411   1.063   7.844   4.769
14156TIP3   OH242412   5.263   0.904   2.811
14156TIP3    H142413   5.306   0.891   2.727
14156TIP3    H242414   5.273   0.998   2.829
14157TIP3   OH242415   0.601   7.327   4.116
14157TIP3    H142416   0.608   7.232   4.122
14157TIP3    H242417   0.631   7.358   4.202
14158TIP3   OH242418   0.605   5.476   6.154
14158TIP3    H142419   0.616   5.474   6.249
14158TIP3    H242420   0.687   5.514   6.122
14159TIP3   OH242421   6.236   6.454   3.052
14159TIP3    H142422   6.281   6.487   3.129
14159TIP3    H242423   6.198   6.532   3.011
14160TIP3   OH242424   2.858   6.926   5.996
14160TIP3    H142425   2.827   6.859   6.057
14160TIP3    H242426   2.792   6.995   6.002
14161TIP3   OH242427   0.889   6.969   6.537
14161TIP3    H142428   0.860   6.935   6.452
14161TIP3    H242429   0.859   7.060   6.537
14162TIP3   OH242430   3.714   6.782   3.231
14162TIP3    H142431   3.686   6.691   3.231
14162TIP3    H242432   3.637   6.831   3.202
14163TIP3   OH242433   3.330   0.647   5.261
14163TIP3    H142434   3.235   0.656   5.271
14163TIP3    H242435   3.366   0.670   5.346
14164TIP3   OH242436   1.752   7.077   0.291
14164TIP3    H142437   1.699   7.035   0.223
14164TIP3    H242438   1.840   7.042   0.277
14165TIP3   OH242439   3.946   3.645   3.169
14165TIP3    H142440   3.944   3.719   3.230
14165TIP3    H242441   4.027   3.599   3.189
14166TIP3   OH242442   6.725   1.640   6.736
14166TIP3    H142443   6.790   1.618   6.802
14166TIP3    H242444   6.653   1.579   6.752
14167TIP3   OH242445   1.884   6.937   4.985
14167TIP3    H142446   1.841   6.964   5.066
14167TIP3    H242447   1.946   7.007   4.967
14168TIP3   OH242448   5.870   3.759   3.163
14168TIP3    H142449   5.849   3.838   3.213
14168TIP3    H242450   5.795   3.747   3.105
14169TIP3   OH242451   6.299   6.889   3.826
14169TIP3    H142452   6.382   6.890   3.778
14169TIP3    H242453   6.244   6.827   3.777
14170TIP3   OH242454   4.938   2.215   2.316
14170TIP3    H142455   4.939   2.230   2.221
14170TIP3    H242456   4.854   2.171   2.332
14171TIP3   OH242457   4.975   6.605   5.423
14171TIP3    H142458   4.985   6.678   5.362
14171TIP3    H242459   4.975   6.645   5.510
14172TIP3   OH242460   3.089   4.050   0.138
14172TIP3    H142461   3.173   4.049   0.093
14172TIP3    H242462   3.043   4.126   0.102
14173TIP3   OH242463   1.476   5.447   4.467
14173TIP3    H142464   1.457   5.356   4.444
14173TIP3    H242465   1.502   5.488   4.385
14174TIP3   OH242466   3.561   1.624   0.837
14174TIP3    H142467   3.466   1.640   0.839
14174TIP3    H242468   3.600   1.706   0.868
14175TIP3   OH242469   2.051   3.932   1.542
14175TIP3    H142470   2.144   3.934   1.517
14175TIP3    H242471   2.007   3.886   1.471
14176TIP3   OH242472   1.202   6.299   0.058
14176TIP3    H142473   1.270   6.323   0.121
14176TIP3    H242474   1.123   6.286   0.111
14177TIP3   OH242475   7.124   6.816   5.019
14177TIP3    H142476   7.105   6.731   4.978
14177TIP3    H242477   7.050   6.832   5.077
14178TIP3   OH242478   5.505   4.464   2.584
14178TIP3    H142479   5.511   4.415   2.502
14178TIP3    H242480   5.558   4.413   2.645
14179TIP3   OH242481   4.299   3.143   5.106
14179TIP3    H142482   4.246   3.155   5.027
14179TIP3    H242483   4.264   3.206   5.169
14180TIP3   OH242484   0.307   6.770   3.159
14180TIP3    H142485   0.326   6.704   3.093
14180TIP3    H242486   0.311   6.723   3.242
14181TIP3   OH242487   7.308   3.765   3.285
14181TIP3    H142488   7.375   3.815   3.331
14181TIP3    H242489   7.225   3.807   3.310
14182TIP3   OH242490   4.613   7.614   1.186
14182TIP3    H142491   4.574   7.634   1.101
14182TIP3    H242492   4.550   7.648   1.250
14183TIP3   OH242493   6.356   4.688   6.749
14183TIP3    H142494   6.275   4.637   6.748
14183TIP3    H242495   6.345   4.749   6.821
14184TIP3   OH242496   2.894   7.820   2.000
14184TIP3    H142497   2.814   7.853   2.041
14184TIP3    H242498   2.896   7.727   2.021
14185TIP3   OH242499   2.208   2.432   0.470
14185TIP3    H142500   2.181   2.358   0.417
14185TIP3    H242501   2.126   2.470   0.502
14186TIP3   OH242502   2.899   2.081   4.274
14186TIP3    H142503   2.834   2.022   4.235
14186TIP3    H242504   2.921   2.039   4.358
14187TIP3   OH242505   3.663   4.616   6.600
14187TIP3    H142506   3.744   4.565   6.607
14187TIP3    H242507   3.685   4.687   6.539
14188TIP3   OH242508   3.267   5.363   1.561
14188TIP3    H142509   3.218   5.440   1.589
14188TIP3    H242510   3.201   5.306   1.520
14189TIP3   OH242511   0.456   4.023   3.567
14189TIP3    H142512   0.518   4.017   3.639
14189TIP3    H242513   0.461   4.115   3.539
14190TIP3   OH242514   7.047   3.817   0.762
14190TIP3    H142515   6.997   3.896   0.741
14190TIP3    H242516   7.121   3.818   0.700
14191TIP3   OH242517   7.433   7.654   5.877
14191TIP3    H142518   7.491   7.610   5.940
14191TIP3    H242519   7.459   7.619   5.792
14192TIP3   OH242520   7.510   6.204   1.597
14192TIP3    H142521   7.426   6.179   1.558
14192TIP3    H242522   7.506   6.171   1.686
14193TIP3   OH242523   2.915   6.968   3.733
14193TIP3    H142524   2.952   6.885   3.765
14193TIP3    H242525   2.985   7.032   3.745
14194TIP3   OH242526   2.575   7.268   2.291
14194TIP3    H142527   2.585   7.311   2.206
14194TIP3    H242528   2.485   7.235   2.290
14195TIP3   OH242529   4.464   6.375   5.624
14195TIP3    H142530   4.463   6.469   5.644
14195TIP3    H242531   4.552   6.358   5.591
14196TIP3   OH242532   3.571   7.172   2.203
14196TIP3    H142533   3.501   7.186   2.266
14196TIP3    H242534   3.544   7.095   2.153
14197TIP3   OH242535   5.188   0.650   2.383
14197TIP3    H142536   5.235   0.568   2.365
14197TIP3    H242537   5.175   0.650   2.477
14198TIP3   OH242538   5.951   6.912   6.674
14198TIP3    H142539   5.871   6.903   6.624
14198TIP3    H242540   6.007   6.967   6.620
14199TIP3   OH242541   6.305   0.169   2.676
14199TIP3    H142542   6.387   0.119   2.681
14199TIP3    H242543   6.243   0.109   2.633
14200TIP3   OH242544   2.687   3.698   3.881
14200TIP3    H142545   2.692   3.781   3.832
14200TIP3    H242546   2.717   3.720   3.969
14201TIP3   OH242547   7.688   0.888   0.105
14201TIP3    H142548   7.678   0.982   0.089
14201TIP3    H242549   7.706   0.850   0.019
14202TIP3   OH242550   3.338   4.729   6.623
14202TIP3    H142551   3.415   4.678   6.600
14202TIP3    H242552   3.358   4.818   6.595
14203TIP3   OH242553   3.523   3.040   4.041
14203TIP3    H142554   3.487   2.994   3.965
14203TIP3    H242555   3.458   3.027   4.109
14204TIP3   OH242556   7.277   3.048   6.215
14204TIP3    H142557   7.345   3.101   6.171
14204TIP3    H242558   7.320   2.965   6.235
14205TIP3   OH242559   3.961   5.875   4.718
14205TIP3    H142560   3.982   5.909   4.805
14205TIP3    H242561   4.046   5.856   4.678
14206TIP3   OH242562   6.094   1.402   5.848
14206TIP3    H142563   6.071   1.491   5.823
14206TIP3    H242564   6.183   1.409   5.881
14207TIP3   OH242565   2.486   3.952   0.793
14207TIP3    H142566   2.579   3.955   0.814
14207TIP3    H242567   2.482   3.966   0.699
14208TIP3   OH242568   7.412   3.720   0.818
14208TIP3    H142569   7.363   3.769   0.752
14208TIP3    H242570   7.382   3.755   0.902
14209TIP3   OH242571   1.588   6.964   6.140
14209TIP3    H142572   1.514   7.004   6.187
14209TIP3    H242573   1.617   6.893   6.196
14210TIP3   OH242574   6.622   7.466   2.753
14210TIP3    H142575   6.682   7.455   2.679
14210TIP3    H242576   6.568   7.386   2.753
14211TIP3   OH242577   3.938   2.826   3.725
14211TIP3    H142578   3.924   2.836   3.631
14211TIP3    H242579   4.006   2.758   3.732
14212TIP3   OH242580   1.126   3.568   4.278
14212TIP3    H142581   1.180   3.592   4.203
14212TIP3    H242582   1.174   3.497   4.320
14213TIP3   OH242583   4.628   7.752   4.413
14213TIP3    H142584   4.542   7.751   4.456
14213TIP3    H242585   4.609   7.734   4.321
14214TIP3   OH242586   6.422   1.086   6.681
14214TIP3    H142587   6.350   1.026   6.660
14214TIP3    H242588   6.497   1.028   6.694
14215TIP3   OH242589   6.247   1.435   1.000
14215TIP3    H142590   6.312   1.502   0.979
14215TIP3    H242591   6.189   1.476   1.064
14216TIP3   OH242592   2.364   0.846   0.625
14216TIP3    H142593   2.329   0.877   0.541
14216TIP3    H242594   2.312   0.890   0.691
14217TIP3   OH242595   0.797   6.611   1.206
14217TIP3    H142596   0.763   6.521   1.206
14217TIP3    H242597   0.885   6.603   1.242
14218TIP3   OH242598   0.200   5.457   5.557
14218TIP3    H142599   0.178   5.392   5.490
14218TIP3    H242600   0.259   5.411   5.617
14219TIP3   OH242601   5.448   1.928   0.764
14219TIP3    H142602   5.442   1.993   0.835
14219TIP3    H242603   5.409   1.849   0.801
14220TIP3   OH242604   2.586   0.691   3.704
14220TIP3    H142605   2.513   0.648   3.661
14220TIP3    H242606   2.549   0.772   3.740
14221TIP3   OH242607   1.761   7.336   0.324
14221TIP3    H142608   1.751   7.241   0.317
14221TIP3    H242609   1.673   7.371   0.308
14222TIP3   OH242610   2.680   6.440   4.301
14222TIP3    H142611   2.718   6.528   4.292
14222TIP3    H242612   2.756   6.381   4.299
14223TIP3   OH242613   2.376   7.677   5.497
14223TIP3    H142614   2.428   7.669   5.577
14223TIP3    H242615   2.434   7.645   5.428
14224TIP3   OH242616   8.223   7.794   6.275
14224TIP3    H142617   8.303   7.810   6.325
14224TIP3    H242618   8.219   7.699   6.266
14225TIP3   OH242619   4.934   1.758   1.722
14225TIP3    H142620   4.923   1.694   1.792
14225TIP3    H242621   5.009   1.811   1.749
14226TIP3   OH242622   5.847   0.902   6.125
14226TIP3    H142623   5.835   0.992   6.153
14226TIP3    H242624   5.764   0.859   6.144
14227TIP3   OH242625   2.562   6.057   3.081
14227TIP3    H142626   2.567   6.126   3.148
14227TIP3    H242627   2.634   6.077   3.021
14228TIP3   OH242628   1.182   2.395   0.004
14228TIP3    H142629   1.154   2.486   0.006
14228TIP3    H242630   1.120   2.349   0.060
14229TIP3   OH242631   6.460   6.034   1.308
14229TIP3    H142632   6.412   5.985   1.241
14229TIP3    H242633   6.544   6.054   1.266
14230TIP3   OH242634   1.958   7.728   3.964
14230TIP3    H142635   1.888   7.739   4.029
14230TIP3    H242636   1.926   7.658   3.907
14231TIP3   OH242637   1.403   1.758   5.710
14231TIP3    H142638   1.429   1.666   5.712
14231TIP3    H242639   1.429   1.789   5.623
14232TIP3   OH242640   5.340   3.169   4.047
14232TIP3    H142641   5.417   3.113   4.060
14232TIP3    H242642   5.269   3.122   4.091
14233TIP3   OH242643   6.307   4.064   5.020
14233TIP3    H142644   6.279   4.037   4.932
14233TIP3    H242645   6.325   3.982   5.066
14234TIP3   OH242646   6.724   5.364   1.092
14234TIP3    H142647   6.766   5.307   1.028
14234TIP3    H242648   6.782   5.440   1.098
14235TIP3   OH242649   3.380   4.723   3.774
14235TIP3    H142650   3.455   4.668   3.751
14235TIP3    H242651   3.328   4.670   3.834
14236TIP3   OH242652   0.861   5.280   4.026
14236TIP3    H142653   0.887   5.350   3.967
14236TIP3    H242654   0.769   5.263   4.004
14237TIP3   OH242655   4.703   7.186   6.108
14237TIP3    H142656   4.790   7.211   6.075
14237TIP3    H242657   4.644   7.252   6.072
14238TIP3   OH242658   0.885   7.641   3.342
14238TIP3    H142659   0.844   7.657   3.427
14238TIP3    H242660   0.912   7.728   3.312
14239TIP3   OH242661   0.684   4.755   3.115
14239TIP3    H142662   0.676   4.677   3.060
14239TIP3    H242663   0.744   4.812   3.068
14240TIP3   OH242664   6.657   1.938   4.494
14240TIP3    H142665   6.713   1.885   4.438
14240TIP3    H242666   6.670   1.903   4.582
14241TIP3   OH242667   7.474   5.367   1.903
14241TIP3    H142668   7.424   5.287   1.885
14241TIP3    H242669   7.565   5.340   1.898
14242TIP3   OH242670   8.131   6.233   3.786
14242TIP3    H142671   8.115   6.227   3.692
14242TIP3    H242672   8.169   6.149   3.810
14243TIP3   OH242673   1.575   0.722   1.173
14243TIP3    H142674   1.575   0.692   1.082
14243TIP3    H242675   1.625   0.804   1.172
14244TIP3   OH242676   6.691   2.539   3.566
14244TIP3    H142677   6.750   2.568   3.636
14244TIP3    H242678   6.748   2.524   3.491
14245TIP3   OH242679   5.042   1.019   4.495
14245TIP3    H142680   5.053   0.925   4.486
14245TIP3    H242681   4.970   1.040   4.436
14246TIP3   OH242682   7.651   5.766   2.505
14246TIP3    H142683   7.673   5.770   2.598
14246TIP3    H242684   7.619   5.677   2.492
14247TIP3   OH242685   2.282   2.149   4.879
14247TIP3    H142686   2.270   2.113   4.791
14247TIP3    H242687   2.257   2.241   4.871
14248TIP3   OH242688   5.700   7.588   5.939
14248TIP3    H142689   5.786   7.621   5.967
14248TIP3    H242690   5.715   7.555   5.851
14249TIP3   OH242691   4.678   4.720   1.601
14249TIP3    H142692   4.746   4.699   1.664
14249TIP3    H242693   4.640   4.636   1.577
14250TIP3   OH242694   1.296   3.091   3.600
14250TIP3    H142695   1.261   3.081   3.689
14250TIP3    H242696   1.377   3.040   3.600
14251TIP3   OH242697   1.953   1.777   0.425
14251TIP3    H142698   2.048   1.789   0.437
14251TIP3    H242699   1.942   1.682   0.420
14252TIP3   OH242700   5.499   6.540   2.532
14252TIP3    H142701   5.435   6.477   2.498
14252TIP3    H242702   5.450   6.621   2.544
14253TIP3   OH242703   5.259   1.476   6.750
14253TIP3    H142704   5.215   1.502   6.831
14253TIP3    H242705   5.300   1.556   6.717
14254TIP3   OH242706   2.153   0.290   5.671
14254TIP3    H142707   2.239   0.258   5.698
14254TIP3    H242708   2.172   0.356   5.604
14255TIP3   OH242709   3.825   1.125   0.302
14255TIP3    H142710   3.920   1.123   0.299
14255TIP3    H242711   3.803   1.086   0.386
14256TIP3   OH242712   2.667   0.513   6.600
14256TIP3    H142713   2.675   0.601   6.637
14256TIP3    H242714   2.596   0.519   6.537
14257TIP3   OH242715   1.137   5.292   1.027
14257TIP3    H142716   1.078   5.319   1.097
14257TIP3    H242717   1.105   5.339   0.950
14258TIP3   OH242718   1.381   4.899   2.461
14258TIP3    H142719   1.367   4.808   2.434
14258TIP3    H242720   1.390   4.895   2.556
14259TIP3   OH242721   0.059   2.404   4.812
14259TIP3    H142722   0.081   2.313   4.793
14259TIP3    H242723  -0.029   2.400   4.850
14260TIP3   OH242724   4.912   5.016   3.063
14260TIP3    H142725   4.879   5.021   3.152
14260TIP3    H242726   4.865   5.085   3.016
14261TIP3   OH242727   5.029   2.537   0.700
14261TIP3    H142728   5.087   2.603   0.663
14261TIP3    H242729   4.941   2.563   0.671
14262TIP3   OH242730   5.058   0.481   0.232
14262TIP3    H142731   4.986   0.417   0.232
14262TIP3    H242732   5.016   0.564   0.211
14263TIP3   OH242733   3.704   1.897   1.636
14263TIP3    H142734   3.704   1.913   1.731
14263TIP3    H242735   3.724   1.982   1.598
14264TIP3   OH242736   3.203   3.575   1.460
14264TIP3    H142737   3.242   3.534   1.538
14264TIP3    H242738   3.196   3.667   1.484
14265TIP3   OH242739   5.743   6.433   4.635
14265TIP3    H142740   5.701   6.372   4.696
14265TIP3    H242741   5.677   6.450   4.568
14266TIP3   OH242742   0.111   0.221   1.782
14266TIP3    H142743   0.092   0.192   1.871
14266TIP3    H242744   0.066   0.158   1.726
14267TIP3   OH242745   7.369   7.577   3.743
14267TIP3    H142746   7.313   7.513   3.699
14267TIP3    H242747   7.308   7.633   3.792
14268TIP3   OH242748   6.685   3.640   4.399
14268TIP3    H142749   6.771   3.657   4.360
14268TIP3    H242750   6.623   3.659   4.329
14269TIP3   OH242751   8.142   0.044   1.763
14269TIP3    H142752   8.166  -0.038   1.719
14269TIP3    H242753   8.079   0.017   1.830
14270TIP3   OH242754   5.689   3.404   3.333
14270TIP3    H142755   5.606   3.384   3.291
14270TIP3    H242756   5.672   3.393   3.426
14271TIP3   OH242757   1.605   3.514   3.805
14271TIP3    H142758   1.639   3.483   3.889
14271TIP3    H242759   1.623   3.608   3.804
14272TIP3   OH242760   7.329   3.529   6.640
14272TIP3    H142761   7.292   3.456   6.590
14272TIP3    H242762   7.256   3.564   6.690
14273TIP3   OH242763   5.936   5.112   3.401
14273TIP3    H142764   5.954   5.059   3.479
14273TIP3    H242765   5.955   5.053   3.328
14274TIP3   OH242766   4.006   3.828   1.512
14274TIP3    H142767   3.961   3.769   1.573
14274TIP3    H242768   4.068   3.876   1.565
14275TIP3   OH242769   3.594   1.376   6.692
14275TIP3    H142770   3.558   1.425   6.618
14275TIP3    H242771   3.580   1.432   6.768
14276TIP3   OH242772   5.205   7.413   5.828
14276TIP3    H142773   5.283   7.403   5.883
14276TIP3    H242774   5.218   7.496   5.782
14277TIP3   OH242775   2.519   1.377   5.545
14277TIP3    H142776   2.502   1.407   5.456
14277TIP3    H242777   2.592   1.315   5.536
14278TIP3   OH242778   4.903   7.496   2.594
14278TIP3    H142779   4.918   7.402   2.588
14278TIP3    H242780   4.812   7.507   2.566
14279TIP3   OH242781   5.638   4.786   0.203
14279TIP3    H142782   5.604   4.720   0.263
14279TIP3    H242783   5.713   4.825   0.248
14280TIP3   OH242784   3.435   0.874   6.464
14280TIP3    H142785   3.453   0.876   6.558
14280TIP3    H242786   3.342   0.853   6.458
14281TIP3   OH242787   0.792   1.627   1.210
14281TIP3    H142788   0.885   1.639   1.195
14281TIP3    H242789   0.752   1.709   1.182
14282TIP3   OH242790   3.259   2.060   2.139
14282TIP3    H142791   3.169   2.063   2.107
14282TIP3    H242792   3.251   2.028   2.229
14283TIP3   OH242793   5.930   6.518   2.326
14283TIP3    H142794   5.927   6.511   2.421
14283TIP3    H242795   6.008   6.470   2.300
14284TIP3   OH242796   3.881   1.223   0.574
14284TIP3    H142797   3.922   1.308   0.591
14284TIP3    H242798   3.805   1.244   0.520
14285TIP3   OH242799   6.885   3.864   6.657
14285TIP3    H142800   6.899   3.951   6.618
14285TIP3    H242801   6.810   3.828   6.610
14286TIP3   OH242802   8.189   2.451   5.046
14286TIP3    H142803   8.105   2.405   5.043
14286TIP3    H242804   8.241   2.401   5.108
14287TIP3   OH242805   4.337   0.431   4.477
14287TIP3    H142806   4.341   0.349   4.525
14287TIP3    H242807   4.243   0.450   4.469
14288TIP3   OH242808   3.662   3.142   5.622
14288TIP3    H142809   3.640   3.049   5.626
14288TIP3    H242810   3.753   3.144   5.591
14289TIP3   OH242811   1.019   1.579   0.213
14289TIP3    H142812   1.112   1.597   0.226
14289TIP3    H242813   1.012   1.484   0.213
14290TIP3   OH242814   3.440   3.982   5.170
14290TIP3    H142815   3.417   4.067   5.206
14290TIP3    H242816   3.534   3.974   5.186
14291TIP3   OH242817   5.091   0.977   2.050
14291TIP3    H142818   5.066   0.914   2.117
14291TIP3    H242819   5.179   1.005   2.075
14292TIP3   OH242820   6.204   0.136   0.613
14292TIP3    H142821   6.206   0.119   0.707
14292TIP3    H242822   6.256   0.215   0.601
14293TIP3   OH242823   7.906   4.288   3.103
14293TIP3    H142824   7.865   4.355   3.047
14293TIP3    H242825   7.850   4.285   3.180
14294TIP3   OH242826   3.155   5.708   3.702
14294TIP3    H142827   3.133   5.681   3.791
14294TIP3    H242828   3.251   5.711   3.700
14295TIP3   OH242829   0.236   3.676   3.860
14295TIP3    H142830   0.278   3.706   3.941
14295TIP3    H242831   0.259   3.743   3.795
14296TIP3   OH242832   7.906   2.332   1.683
14296TIP3    H142833   7.973   2.264   1.681
14296TIP3    H242834   7.952   2.412   1.658
14297TIP3   OH242835   1.248   5.939   2.517
14297TIP3    H142836   1.340   5.965   2.514
14297TIP3    H242837   1.207   5.985   2.444
14298TIP3   OH242838   5.745   0.393   6.686
14298TIP3    H142839   5.757   0.452   6.761
14298TIP3    H242840   5.806   0.426   6.620
14299TIP3   OH242841   6.141   6.347   2.601
14299TIP3    H142842   6.080   6.417   2.579
14299TIP3    H242843   6.088   6.283   2.648
14300TIP3   OH242844   1.418   1.821   3.711
14300TIP3    H142845   1.503   1.791   3.743
14300TIP3    H242846   1.428   1.916   3.705
14301TIP3   OH242847   1.304   5.502   2.479
14301TIP3    H142848   1.318   5.556   2.557
14301TIP3    H242849   1.268   5.563   2.414
14302TIP3   OH242850   1.216   7.079   2.148
14302TIP3    H142851   1.189   7.048   2.061
14302TIP3    H242852   1.206   7.174   2.144
14303TIP3   OH242853   5.303   1.380   3.080
14303TIP3    H142854   5.397   1.400   3.077
14303TIP3    H242855   5.289   1.317   3.010
14304TIP3   OH242856   4.072   0.960   3.749
14304TIP3    H142857   4.111   0.878   3.720
14304TIP3    H242858   4.039   0.941   3.837
14305TIP3   OH242859   6.832   2.061   6.441
14305TIP3    H142860   6.815   2.143   6.489
14305TIP3    H242861   6.778   1.996   6.485
14306TIP3   OH242862   2.397   4.369   4.853
14306TIP3    H142863   2.345   4.314   4.794
14306TIP3    H242864   2.426   4.309   4.922
14307TIP3   OH242865   6.049   1.693   3.759
14307TIP3    H142866   6.124   1.652   3.802
14307TIP3    H242867   6.051   1.784   3.789
14308TIP3   OH242868   7.367   4.413   3.868
14308TIP3    H142869   7.297   4.363   3.825
14308TIP3    H242870   7.344   4.412   3.961
14309TIP3   OH242871   7.139   7.026   3.160
14309TIP3    H142872   7.138   7.122   3.154
14309TIP3    H242873   7.047   7.001   3.147
14310TIP3   OH242874   2.986   0.057   0.899
14310TIP3    H142875   2.983   0.034   0.806
14310TIP3    H242876   3.051  -0.001   0.937
14311TIP3   OH242877   7.482   5.900   6.501
14311TIP3    H142878   7.494   5.847   6.580
14311TIP3    H242879   7.540   5.974   6.512
14312TIP3   OH242880   7.508   5.868   0.246
14312TIP3    H142881   7.528   5.925   0.321
14312TIP3    H242882   7.584   5.877   0.189
14313TIP3   OH242883   1.661   6.659   1.223
14313TIP3    H142884   1.657   6.753   1.243
14313TIP3    H242885   1.606   6.619   1.291
14314TIP3   OH242886   1.031   3.133   0.235
14314TIP3    H142887   1.116   3.117   0.275
14314TIP3    H242888   1.038   3.097   0.147
14315TIP3   OH242889   3.999   0.543   5.168
14315TIP3    H142890   4.008   0.638   5.180
14315TIP3    H242891   3.952   0.514   5.246
14316TIP3   OH242892   5.696   7.412   2.258
14316TIP3    H142893   5.768   7.422   2.320
14316TIP3    H242894   5.738   7.415   2.172
14317TIP3   OH242895   3.171   3.876   2.928
14317TIP3    H142896   3.077   3.860   2.921
14317TIP3    H242897   3.177   3.959   2.976
14318TIP3   OH242898   7.539   6.354   6.225
14318TIP3    H142899   7.560   6.420   6.158
14318TIP3    H242900   7.471   6.301   6.185
14319TIP3   OH242901   1.534   5.848   6.376
14319TIP3    H142902   1.484   5.920   6.415
14319TIP3    H242903   1.625   5.865   6.403
14320TIP3   OH242904   1.288   6.106   1.947
14320TIP3    H142905   1.299   6.038   1.880
14320TIP3    H242906   1.225   6.167   1.908
14321TIP3   OH242907   2.184   2.359   2.088
14321TIP3    H142908   2.262   2.307   2.066
14321TIP3    H242909   2.180   2.355   2.184
14322TIP3   OH242910   7.445   0.056   2.880
14322TIP3    H142911   7.397   0.139   2.881
14322TIP3    H242912   7.410   0.008   2.956
14323TIP3   OH242913   6.690   5.617   6.188
14323TIP3    H142914   6.628   5.547   6.167
14323TIP3    H242915   6.762   5.605   6.128
14324TIP3   OH242916   5.119   3.599   2.980
14324TIP3    H142917   5.115   3.692   2.960
14324TIP3    H242918   5.213   3.579   2.983
14325TIP3   OH242919   6.288   5.487   0.835
14325TIP3    H142920   6.256   5.442   0.913
14325TIP3    H242921   6.363   5.538   0.865
14326TIP3   OH242922   5.856   2.528   5.412
14326TIP3    H142923   5.932   2.488   5.370
14326TIP3    H242924   5.854   2.488   5.499
14327TIP3   OH242925   5.194   6.116   6.146
14327TIP3    H142926   5.252   6.163   6.206
14327TIP3    H242927   5.201   6.165   6.064
14328TIP3   OH242928   2.145   5.726   1.299
14328TIP3    H142929   2.077   5.707   1.364
14328TIP3    H242930   2.128   5.816   1.271
14329TIP3   OH242931   3.456   4.991   0.203
14329TIP3    H142932   3.363   4.983   0.184
14329TIP3    H242933   3.487   4.901   0.214
14330TIP3   OH242934   3.256   0.781   2.904
14330TIP3    H142935   3.297   0.696   2.920
14330TIP3    H242936   3.310   0.843   2.952
14331TIP3   OH242937   6.048   3.266   2.694
14331TIP3    H142938   6.033   3.275   2.600
14331TIP3    H242939   5.980   3.318   2.735
14332TIP3   OH242940   3.561   1.374   1.976
14332TIP3    H142941   3.498   1.415   2.034
14332TIP3    H242942   3.616   1.446   1.944
14333TIP3   OH242943   3.649   6.039   0.076
14333TIP3    H142944   3.706   5.962   0.082
14333TIP3    H242945   3.577   6.021   0.136
14334TIP3   OH242946   5.624   2.677   0.064
14334TIP3    H142947   5.673   2.738   0.119
14334TIP3    H242948   5.691   2.618   0.030
14335TIP3   OH242949   6.989   0.514   0.677
14335TIP3    H142950   7.053   0.484   0.613
14335TIP3    H242951   7.040   0.529   0.757
14336TIP3   OH242952   2.627   0.566   4.245
14336TIP3    H142953   2.690   0.600   4.181
14336TIP3    H242954   2.557   0.631   4.246
14337TIP3   OH242955   4.065   6.128   0.348
14337TIP3    H142956   4.154   6.092   0.350
14337TIP3    H242957   4.009   6.052   0.331
14338TIP3   OH242958   1.265   7.788   5.092
14338TIP3    H142959   1.356   7.808   5.070
14338TIP3    H242960   1.265   7.777   5.187
14339TIP3   OH242961   7.729   1.232   4.478
14339TIP3    H142962   7.785   1.307   4.498
14339TIP3    H242963   7.671   1.225   4.554
14340TIP3   OH242964   7.791   7.320   5.864
14340TIP3    H142965   7.716   7.324   5.804
14340TIP3    H242966   7.800   7.409   5.896
14341TIP3   OH242967   4.570   1.157   4.562
14341TIP3    H142968   4.568   1.207   4.481
14341TIP3    H242969   4.495   1.097   4.556
14342TIP3   OH242970   6.905   5.593   6.012
14342TIP3    H142971   6.977   5.653   6.029
14342TIP3    H242972   6.869   5.622   5.928
14343TIP3   OH242973   4.346   6.201   6.375
14343TIP3    H142974   4.432   6.163   6.358
14343TIP3    H242975   4.312   6.224   6.289
14344TIP3   OH242976   4.254   0.044   4.759
14344TIP3    H142977   4.165   0.041   4.723
14344TIP3    H242978   4.308  -0.003   4.695
14345TIP3   OH242979   5.092   3.905   3.162
14345TIP3    H142980   5.099   3.962   3.239
14345TIP3    H242981   5.010   3.930   3.121
14346TIP3   OH242982   2.351   7.151   0.395
14346TIP3    H142983   2.420   7.117   0.339
14346TIP3    H242984   2.349   7.093   0.470
14347TIP3   OH242985   0.065   5.325   1.410
14347TIP3    H142986   0.006   5.296   1.480
14347TIP3    H242987   0.014   5.391   1.363
14348TIP3   OH242988   4.831   1.726   5.983
14348TIP3    H142989   4.743   1.760   6.001
14348TIP3    H242990   4.817   1.661   5.914
14349TIP3   OH242991   2.420   5.095   2.697
14349TIP3    H142992   2.477   5.165   2.728
14349TIP3    H242993   2.439   5.089   2.603
14350TIP3   OH242994   0.081   7.253   4.326
14350TIP3    H142995   0.140   7.178   4.321
14350TIP3    H242996   0.013   7.225   4.387
14351TIP3   OH242997   0.816   2.495   1.859
14351TIP3    H142998   0.903   2.478   1.822
14351TIP3    H242999   0.763   2.522   1.784
14352TIP3   OH243000   5.704   6.394   1.125
14352TIP3    H143001   5.778   6.334   1.130
14352TIP3    H243002   5.731   6.471   1.176
14353TIP3   OH243003   7.712   5.924   5.696
14353TIP3    H143004   7.735   6.016   5.685
14353TIP3    H243005   7.682   5.918   5.787
14354TIP3   OH243006   2.790   1.691   5.909
14354TIP3    H143007   2.728   1.683   5.981
14354TIP3    H243008   2.838   1.772   5.927
14355TIP3   OH243009   4.478   5.912   5.317
14355TIP3    H143010   4.533   5.871   5.251
14355TIP3    H243011   4.393   5.923   5.275
14356TIP3   OH243012   2.174   6.287   3.211
14356TIP3    H143013   2.229   6.211   3.232
14356TIP3    H243014   2.200   6.354   3.275
14357TIP3   OH243015   0.855   1.995   3.887
14357TIP3    H143016   0.872   1.916   3.937
14357TIP3    H243017   0.834   2.062   3.953
14358TIP3   OH243018   0.791   2.062   5.540
14358TIP3    H143019   0.834   2.069   5.626
14358TIP3    H243020   0.862   2.042   5.479
14359TIP3   OH243021   0.552   7.684   2.590
14359TIP3    H143022   0.571   7.678   2.496
14359TIP3    H243023   0.584   7.601   2.626
14360TIP3   OH243024   1.063   3.886   0.344
14360TIP3    H143025   0.991   3.824   0.332
14360TIP3    H243026   1.142   3.833   0.333
14361TIP3   OH243027   2.897   7.268   5.184
14361TIP3    H143028   2.972   7.271   5.124
14361TIP3    H243029   2.935   7.243   5.269
14362TIP3   OH243030   8.088   1.303   4.831
14362TIP3    H143031   8.007   1.261   4.802
14362TIP3    H243032   8.060   1.372   4.890
14363TIP3   OH243033   1.859   7.603   4.410
14363TIP3    H143034   1.912   7.562   4.342
14363TIP3    H243035   1.822   7.531   4.461
14364TIP3   OH243036   7.234   2.116   1.510
14364TIP3    H143037   7.191   2.051   1.564
14364TIP3    H243038   7.312   2.073   1.477
14365TIP3   OH243039   1.876   4.623   4.181
14365TIP3    H143040   1.913   4.563   4.116
14365TIP3    H243041   1.804   4.666   4.136
14366TIP3   OH243042   1.304   4.910   0.494
14366TIP3    H143043   1.365   4.908   0.420
14366TIP3    H243044   1.235   4.849   0.469
14367TIP3   OH243045   6.890   0.653   4.054
14367TIP3    H143046   6.831   0.587   4.089
14367TIP3    H243047   6.952   0.669   4.125
14368TIP3   OH243048   7.889   2.592   3.309
14368TIP3    H143049   7.897   2.672   3.258
14368TIP3    H243050   7.862   2.526   3.245
14369TIP3   OH243051   1.070   5.760   1.920
14369TIP3    H143052   0.980   5.751   1.890
14369TIP3    H243053   1.089   5.678   1.964
14370TIP3   OH243054   4.050   5.954   1.531
14370TIP3    H143055   4.034   5.902   1.452
14370TIP3    H243056   3.964   5.967   1.569
14371TIP3   OH243057   1.284   0.083   1.343
14371TIP3    H143058   1.220   0.150   1.317
14371TIP3    H243059   1.233   0.004   1.359
14372TIP3   OH243060   3.268   0.862   5.560
14372TIP3    H143061   3.352   0.817   5.549
14372TIP3    H243062   3.221   0.809   5.625
14373TIP3   OH243063   4.090   6.648   0.945
14373TIP3    H143064   4.104   6.618   0.855
14373TIP3    H243065   4.094   6.743   0.940
14374TIP3   OH243066   7.725   2.061   6.516
14374TIP3    H143067   7.662   2.023   6.455
14374TIP3    H243068   7.730   2.153   6.492
14375TIP3   OH243069   5.690   3.378   3.040
14375TIP3    H143070   5.684   3.470   3.063
14375TIP3    H243071   5.685   3.332   3.124
14376TIP3   OH243072   3.177   5.618   1.218
14376TIP3    H143073   3.194   5.524   1.211
14376TIP3    H243074   3.105   5.634   1.157
14377TIP3   OH243075   5.771   0.760   3.253
14377TIP3    H143076   5.750   0.671   3.283
14377TIP3    H243077   5.686   0.802   3.238
14378TIP3   OH243078   3.206   2.425   5.822
14378TIP3    H143079   3.295   2.399   5.845
14378TIP3    H243080   3.170   2.349   5.777
14379TIP3   OH243081   2.100   0.685   2.540
14379TIP3    H143082   2.006   0.677   2.556
14379TIP3    H243083   2.107   0.710   2.448
14380TIP3   OH243084   3.893   7.261   1.822
14380TIP3    H143085   3.849   7.253   1.738
14380TIP3    H243086   3.831   7.226   1.885
14381TIP3   OH243087   1.031   3.133   3.531
14381TIP3    H143088   1.126   3.125   3.527
14381TIP3    H243089   1.014   3.227   3.526
14382TIP3   OH243090   2.576   5.605   4.022
14382TIP3    H143091   2.487   5.632   4.046
14382TIP3    H243092   2.598   5.536   4.084
14383TIP3   OH243093   7.695   3.047   5.521
14383TIP3    H143094   7.768   3.043   5.582
14383TIP3    H243095   7.733   3.085   5.442
14384TIP3   OH243096   1.173   5.105   1.674
14384TIP3    H143097   1.151   5.181   1.621
14384TIP3    H243098   1.218   5.140   1.751
14385TIP3   OH243099   4.820   1.583   6.734
14385TIP3    H143100   4.869   1.529   6.672
14385TIP3    H243101   4.829   1.672   6.700
14386TIP3   OH243102   6.392   1.906   5.530
14386TIP3    H143103   6.347   1.840   5.478
14386TIP3    H243104   6.476   1.867   5.553
14387TIP3   OH243105   4.751   3.557   5.225
14387TIP3    H143106   4.686   3.545   5.294
14387TIP3    H243107   4.753   3.473   5.179
14388TIP3   OH243108   4.854   5.143   2.117
14388TIP3    H143109   4.917   5.082   2.080
14388TIP3    H243110   4.878   5.228   2.080
14389TIP3   OH243111   3.696   4.171   0.932
14389TIP3    H143112   3.743   4.094   0.965
14389TIP3    H243113   3.649   4.204   1.009
14390TIP3   OH243114   7.124   1.969   6.193
14390TIP3    H143115   7.158   1.973   6.283
14390TIP3    H243116   7.186   2.021   6.142
14391TIP3   OH243117   1.388   5.204   0.479
14391TIP3    H143118   1.363   5.219   0.387
14391TIP3    H243119   1.338   5.128   0.505
14392TIP3   OH243120   4.171   6.419   0.277
14392TIP3    H143121   4.140   6.340   0.322
14392TIP3    H243122   4.190   6.481   0.348
14393TIP3   OH243123   6.690   0.504   0.950
14393TIP3    H143124   6.748   0.449   1.004
14393TIP3    H243125   6.603   0.464   0.960
14394TIP3   OH243126   2.628   0.419   4.519
14394TIP3    H143127   2.612   0.506   4.555
14394TIP3    H243128   2.591   0.422   4.431
14395TIP3   OH243129   1.121   3.657   3.521
14395TIP3    H143130   1.211   3.659   3.489
14395TIP3    H243131   1.111   3.739   3.569
14396TIP3   OH243132   0.926   7.329   4.037
14396TIP3    H143133   0.846   7.376   4.060
14396TIP3    H243134   0.972   7.389   3.978
14397TIP3   OH243135   7.655   3.073   4.454
14397TIP3    H143136   7.649   3.160   4.494
14397TIP3    H243137   7.668   3.014   4.528
14398TIP3   OH243138   7.623   0.967   3.640
14398TIP3    H143139   7.697   0.935   3.693
14398TIP3    H243140   7.658   1.043   3.594
14399TIP3   OH243141   1.032   0.733   1.851
14399TIP3    H143142   1.049   0.806   1.910
14399TIP3    H243143   1.107   0.675   1.864
14400TIP3   OH243144   2.384   0.330   6.222
14400TIP3    H143145   2.475   0.313   6.199
14400TIP3    H243146   2.335   0.305   6.144
14401TIP3   OH243147   4.358   0.224   1.536
14401TIP3    H143148   4.341   0.131   1.550
14401TIP3    H243149   4.358   0.261   1.625
14402TIP3   OH243150   0.009   1.672   5.539
14402TIP3    H143151   0.076   1.607   5.561
14402TIP3    H243152  -0.036   1.634   5.463
14403TIP3   OH243153   0.802   7.552   4.819
14403TIP3    H143154   0.844   7.629   4.780
14403TIP3    H243155   0.731   7.588   4.872
14404TIP3   OH243156   1.271   6.344   0.445
14404TIP3    H143157   1.360   6.377   0.451
14404TIP3    H243158   1.233   6.362   0.531
14405TIP3   OH243159   1.844   0.489   3.126
14405TIP3    H143160   1.753   0.482   3.153
14405TIP3    H243161   1.864   0.583   3.132
14406TIP3   OH243162   0.314   0.334   4.065
14406TIP3    H143163   0.235   0.378   4.033
14406TIP3    H243164   0.285   0.286   4.142
14407TIP3   OH243165   3.173   7.307   2.568
14407TIP3    H143166   3.105   7.270   2.511
14407TIP3    H243167   3.176   7.400   2.544
14408TIP3   OH243168   1.998   5.614   2.969
14408TIP3    H143169   1.992   5.529   2.926
14408TIP3    H243170   2.092   5.633   2.972
14409TIP3   OH243171   6.254   1.677   4.155
14409TIP3    H143172   6.324   1.619   4.186
14409TIP3    H243173   6.179   1.618   4.143
14410TIP3   OH243174   6.521   7.404   0.862
14410TIP3    H143175   6.458   7.466   0.897
14410TIP3    H243176   6.549   7.442   0.779
14411TIP3   OH243177   4.967   4.666   5.387
14411TIP3    H143178   4.893   4.719   5.355
14411TIP3    H243179   5.040   4.689   5.330
14412TIP3   OH243180   7.303   7.557   3.267
14412TIP3    H143181   7.340   7.508   3.194
14412TIP3    H243182   7.313   7.499   3.343
14413TIP3   OH243183   8.053   6.846   5.917
14413TIP3    H143184   7.980   6.798   5.957
14413TIP3    H243185   8.120   6.849   5.985
14414TIP3   OH243186   0.306   4.253   2.326
14414TIP3    H143187   0.258   4.174   2.301
14414TIP3    H243188   0.371   4.223   2.390
14415TIP3   OH243189   7.581   0.593   1.855
14415TIP3    H143190   7.514   0.549   1.803
14415TIP3    H243191   7.608   0.667   1.800
14416TIP3   OH243192   3.274   7.233   1.522
14416TIP3    H143193   3.262   7.289   1.445
14416TIP3    H243194   3.360   7.256   1.555
14417TIP3   OH243195   5.381   3.737   1.025
14417TIP3    H143196   5.365   3.822   1.064
14417TIP3    H243197   5.306   3.684   1.051
14418TIP3   OH243198   4.071   0.334   4.032
14418TIP3    H143199   3.984   0.346   3.995
14418TIP3    H243200   4.064   0.255   4.086
14419TIP3   OH243201   7.068   2.805   2.986
14419TIP3    H143202   7.114   2.828   2.904
14419TIP3    H243203   6.984   2.849   2.979
14420TIP3   OH243204   6.861   7.174   4.571
14420TIP3    H143205   6.921   7.100   4.581
14420TIP3    H243206   6.782   7.148   4.617
14421TIP3   OH243207   6.030   0.492   3.666
14421TIP3    H143208   6.060   0.552   3.734
14421TIP3    H243209   5.979   0.426   3.714
14422TIP3   OH243210   7.736   2.669   4.631
14422TIP3    H143211   7.759   2.619   4.709
14422TIP3    H243212   7.793   2.746   4.634
14423TIP3   OH243213   5.060   4.737   4.499
14423TIP3    H143214   5.056   4.693   4.584
14423TIP3    H243215   5.087   4.826   4.520
14424TIP3   OH243216   5.122   4.880   3.884
14424TIP3    H143217   5.169   4.797   3.874
14424TIP3    H243218   5.105   4.888   3.978
14425TIP3   OH243219   5.632   5.018   3.220
14425TIP3    H143220   5.639   4.997   3.313
14425TIP3    H243221   5.555   5.075   3.214
14426TIP3   OH243222   6.628   7.311   6.440
14426TIP3    H143223   6.701   7.327   6.380
14426TIP3    H243224   6.615   7.395   6.484
14427TIP3   OH243225   2.472   0.430   1.637
14427TIP3    H143226   2.552   0.414   1.686
14427TIP3    H243227   2.407   0.372   1.677
14428TIP3   OH243228  -0.028   0.660   1.571
14428TIP3    H143229  -0.010   0.681   1.480
14428TIP3    H243230   0.055   0.675   1.616
14429TIP3   OH243231   6.810   0.102   4.967
14429TIP3    H143232   6.848   0.014   4.976
14429TIP3    H243233   6.871   0.159   5.014
14430TIP3   OH243234   0.940   7.325   6.676
14430TIP3    H143235   0.874   7.378   6.719
14430TIP3    H243236   1.020   7.378   6.681
14431TIP3   OH243237   3.954   1.002   1.968
14431TIP3    H143238   3.873   1.043   1.938
14431TIP3    H243239   3.933   0.909   1.976
14432TIP3   OH243240   1.675   0.217   4.022
14432TIP3    H143241   1.597   0.180   3.980
14432TIP3    H243242   1.647   0.235   4.112
14433TIP3   OH243243   5.700   3.792   6.573
14433TIP3    H143244   5.633   3.771   6.638
14433TIP3    H243245   5.704   3.715   6.517
14434TIP3   OH243246   3.624   0.956   2.160
14434TIP3    H143247   3.531   0.941   2.144
14434TIP3    H243248   3.653   1.006   2.084
14435TIP3   OH243249   7.713   0.189   0.926
14435TIP3    H143250   7.741   0.226   1.010
14435TIP3    H243251   7.766   0.234   0.860
14436TIP3   OH243252   4.415   3.272   5.468
14436TIP3    H143253   4.484   3.339   5.466
14436TIP3    H243254   4.458   3.192   5.437
14437TIP3   OH243255   0.368   6.805   6.704
14437TIP3    H143256   0.449   6.766   6.672
14437TIP3    H243257   0.299   6.763   6.652
14438TIP3   OH243258   5.239   2.357   6.623
14438TIP3    H143259   5.146   2.345   6.646
14438TIP3    H243260   5.239   2.432   6.564
14439TIP3   OH243261   4.684   3.396   4.495
14439TIP3    H143262   4.663   3.333   4.427
14439TIP3    H243263   4.756   3.355   4.544
14440TIP3   OH243264   0.102   0.516   2.833
14440TIP3    H143265   0.068   0.603   2.852
14440TIP3    H243266   0.086   0.466   2.913
14441TIP3   OH243267   1.092   6.578   4.222
14441TIP3    H143268   1.099   6.539   4.135
14441TIP3    H243269   1.159   6.533   4.274
14442TIP3   OH243270   3.457   4.694   4.065
14442TIP3    H143271   3.518   4.697   3.991
14442TIP3    H243272   3.512   4.707   4.142
14443TIP3   OH243273   2.633   7.373   2.050
14443TIP3    H143274   2.702   7.438   2.061
14443TIP3    H243275   2.680   7.293   2.025
14444TIP3   OH243276   7.228   4.155   0.821
14444TIP3    H143277   7.134   4.171   0.833
14444TIP3    H243278   7.246   4.078   0.876
14445TIP3   OH243279   1.307   5.206   5.380
14445TIP3    H143280   1.359   5.138   5.423
14445TIP3    H243281   1.251   5.241   5.449
14446TIP3   OH243282   2.287   0.172   4.472
14446TIP3    H143283   2.192   0.159   4.472
14446TIP3    H243284   2.323   0.083   4.470
14447TIP3   OH243285   5.400   1.209   5.371
14447TIP3    H143286   5.366   1.201   5.459
14447TIP3    H243287   5.440   1.124   5.352
14448TIP3   OH243288   1.681   1.177   2.479
14448TIP3    H143289   1.670   1.267   2.449
14448TIP3    H243290   1.686   1.184   2.575
14449TIP3   OH243291   5.833   6.958   5.906
14449TIP3    H143292   5.885   7.000   5.974
14449TIP3    H243293   5.749   7.003   5.909
14450TIP3   OH243294   4.235   4.352   0.971
14450TIP3    H143295   4.301   4.283   0.965
14450TIP3    H243296   4.151   4.305   0.977
14451TIP3   OH243297   6.185   6.997   5.293
14451TIP3    H143298   6.232   7.042   5.364
14451TIP3    H243299   6.255   6.963   5.237
14452TIP3   OH243300   4.328   2.678   1.269
14452TIP3    H143301   4.295   2.687   1.359
14452TIP3    H243302   4.386   2.753   1.257
14453TIP3   OH243303   2.338   6.164   5.733
14453TIP3    H143304   2.344   6.190   5.641
14453TIP3    H243305   2.245   6.148   5.748
14454TIP3   OH243306   4.681   0.757   5.781
14454TIP3    H143307   4.670   0.847   5.812
14454TIP3    H243308   4.776   0.743   5.781
14455TIP3   OH243309   4.422   2.975   4.470
14455TIP3    H143310   4.357   2.912   4.502
14455TIP3    H243311   4.381   3.014   4.393
14456TIP3   OH243312   5.012   1.060   3.571
14456TIP3    H143313   4.967   1.015   3.499
14456TIP3    H243314   5.105   1.052   3.551
14457TIP3   OH243315   5.271   4.179   6.430
14457TIP3    H143316   5.296   4.148   6.342
14457TIP3    H243317   5.178   4.198   6.422
14458TIP3   OH243318   3.623   6.344   0.746
14458TIP3    H143319   3.530   6.365   0.739
14458TIP3    H243320   3.653   6.335   0.655
14459TIP3   OH243321   1.333   7.236   4.251
14459TIP3    H143322   1.252   7.203   4.211
14459TIP3    H243323   1.372   7.159   4.292
14460TIP3   OH243324   0.345   1.201   2.320
14460TIP3    H143325   0.367   1.273   2.260
14460TIP3    H243326   0.267   1.162   2.281
14461TIP3   OH243327   4.497   2.579   4.466
14461TIP3    H143328   4.460   2.574   4.554
14461TIP3    H243329   4.423   2.564   4.407
14462TIP3   OH243330   2.703   1.550   5.081
14462TIP3    H143331   2.621   1.518   5.044
14462TIP3    H243332   2.719   1.633   5.035
14463TIP3   OH243333   6.731   5.802   6.672
14463TIP3    H143334   6.650   5.776   6.627
14463TIP3    H243335   6.709   5.800   6.765
14464TIP3   OH243336   3.532   5.556   4.396
14464TIP3    H143337   3.602   5.532   4.456
14464TIP3    H243338   3.551   5.506   4.316
14465TIP3   OH243339   0.848   6.807   1.836
14465TIP3    H143340   0.901   6.794   1.915
14465TIP3    H243341   0.794   6.884   1.857
14466TIP3   OH243342   4.638   6.744   3.653
14466TIP3    H143343   4.715   6.744   3.710
14466TIP3    H243344   4.662   6.686   3.580
14467TIP3   OH243345   0.831   2.532   3.194
14467TIP3    H143346   0.811   2.603   3.133
14467TIP3    H243347   0.819   2.452   3.142
14468TIP3   OH243348   6.674   7.628   4.511
14468TIP3    H143349   6.723   7.575   4.574
14468TIP3    H243350   6.588   7.639   4.551
14469TIP3   OH243351   4.957   2.832   6.041
14469TIP3    H143352   4.904   2.806   6.116
14469TIP3    H243353   4.927   2.776   5.969
14470TIP3   OH243354   5.360   1.880   6.780
14470TIP3    H143355   5.319   1.841   6.703
14470TIP3    H243356   5.453   1.888   6.756
14471TIP3   OH243357   5.097   7.718   2.625
14471TIP3    H143358   5.061   7.659   2.559
14471TIP3    H243359   5.029   7.721   2.693
14472TIP3   OH243360   0.842   4.267   2.441
14472TIP3    H143361   0.847   4.186   2.391
14472TIP3    H243362   0.755   4.265   2.481
14473TIP3   OH243363   2.119   3.502   6.300
14473TIP3    H143364   2.181   3.570   6.327
14473TIP3    H243365   2.148   3.424   6.346
14474TIP3   OH243366   5.004   0.188   6.644
14474TIP3    H143367   5.097   0.171   6.659
14474TIP3    H243368   4.966   0.102   6.626
14475TIP3   OH243369   2.796   7.236   3.082
14475TIP3    H143370   2.866   7.189   3.036
14475TIP3    H243371   2.740   7.270   3.013
14476TIP3   OH243372   1.358   4.906   3.830
14476TIP3    H143373   1.287   4.958   3.867
14476TIP3    H243374   1.317   4.858   3.757
14477TIP3   OH243375   7.397   5.805   6.244
14477TIP3    H143376   7.353   5.721   6.249
14477TIP3    H243377   7.396   5.839   6.333
14478TIP3   OH243378   7.508   3.613   5.054
14478TIP3    H143379   7.464   3.698   5.066
14478TIP3    H243380   7.459   3.571   4.984
14479TIP3   OH243381   0.244   2.675   2.888
14479TIP3    H143382   0.202   2.618   2.953
14479TIP3    H243383   0.198   2.758   2.894
14480TIP3   OH243384   2.810   0.082   3.534
14480TIP3    H143385   2.734   0.059   3.480
14480TIP3    H243386   2.808   0.178   3.538
14481TIP3   OH243387   6.681   6.628   0.082
14481TIP3    H143388   6.600   6.672   0.058
14481TIP3    H243389   6.720   6.683   0.149
14482TIP3   OH243390   0.453   3.479   4.167
14482TIP3    H143391   0.524   3.501   4.108
14482TIP3    H243392   0.473   3.391   4.197
14483TIP3   OH243393   7.171   7.374   3.686
14483TIP3    H143394   7.185   7.280   3.698
14483TIP3    H243395   7.115   7.400   3.759
14484TIP3   OH243396   7.065   1.063   2.725
14484TIP3    H143397   7.075   1.080   2.631
14484TIP3    H243398   7.153   1.038   2.754
14485TIP3   OH243399   3.595   2.684   2.867
14485TIP3    H143400   3.689   2.669   2.878
14485TIP3    H243401   3.555   2.601   2.892
14486TIP3   OH243402   2.264   7.294   0.820
14486TIP3    H143403   2.307   7.208   0.818
14486TIP3    H243404   2.252   7.312   0.913
14487TIP3   OH243405   8.024   4.624   5.677
14487TIP3    H143406   8.043   4.539   5.717
14487TIP3    H243407   8.040   4.611   5.584
14488TIP3   OH243408   6.938   1.930   1.703
14488TIP3    H143409   6.892   1.997   1.653
14488TIP3    H243410   7.009   1.976   1.746
14489TIP3   OH243411   4.208   3.497   2.805
14489TIP3    H143412   4.214   3.494   2.709
14489TIP3    H243413   4.277   3.558   2.832
14490TIP3   OH243414   1.531   1.457   6.569
14490TIP3    H143415   1.494   1.486   6.486
14490TIP3    H243416   1.567   1.370   6.552
14491TIP3   OH243417   3.865   4.286   0.299
14491TIP3    H143418   3.819   4.370   0.297
14491TIP3    H243419   3.903   4.282   0.387
14492TIP3   OH243420   7.505   2.879   3.332
14492TIP3    H143421   7.491   2.793   3.292
14492TIP3    H243422   7.470   2.870   3.421
14493TIP3   OH243423   8.217   7.029   6.463
14493TIP3    H143424   8.164   7.093   6.415
14493TIP3    H243425   8.195   6.945   6.423
14494TIP3   OH243426   6.753   2.961   1.911
14494TIP3    H143427   6.717   2.954   1.823
14494TIP3    H243428   6.677   2.956   1.969
14495TIP3   OH243429   6.860   7.156   4.278
14495TIP3    H143430   6.884   7.142   4.369
14495TIP3    H243431   6.828   7.246   4.275
14496TIP3   OH243432   6.581   3.107   3.105
14496TIP3    H143433   6.537   3.069   3.181
14496TIP3    H243434   6.550   3.197   3.102
14497TIP3   OH243435   7.630   4.747   3.132
14497TIP3    H143436   7.606   4.655   3.143
14497TIP3    H243437   7.669   4.773   3.215
14498TIP3   OH243438   7.372   3.270   3.554
14498TIP3    H143439   7.295   3.326   3.551
14498TIP3    H243440   7.378   3.231   3.467
14499TIP3   OH243441   3.274   7.586   2.560
14499TIP3    H143442   3.180   7.598   2.574
14499TIP3    H243443   3.310   7.674   2.561
14500TIP3   OH243444   7.365   2.108   6.085
14500TIP3    H143445   7.337   2.161   6.160
14500TIP3    H243446   7.457   2.086   6.104
14501TIP3   OH243447   7.079   5.870   6.351
14501TIP3    H143448   7.105   5.881   6.443
14501TIP3    H243449   6.983   5.870   6.353
14502TIP3   OH243450   7.732   1.151   2.764
14502TIP3    H143451   7.787   1.097   2.707
14502TIP3    H243452   7.786   1.228   2.783
14503TIP3   OH243453   8.207   6.223   4.705
14503TIP3    H143454   8.150   6.222   4.782
14503TIP3    H243455   8.152   6.190   4.635
14504TIP3   OH243456   8.175   4.025   0.555
14504TIP3    H143457   8.170   3.947   0.610
14504TIP3    H243458   8.232   4.085   0.603
14505TIP3   OH243459   7.998   4.696   2.936
14505TIP3    H143460   7.939   4.623   2.954
14505TIP3    H243461   7.963   4.736   2.857
14506TIP3   OH243462   7.185   6.259   2.406
14506TIP3    H143463   7.208   6.250   2.499
14506TIP3    H243464   7.243   6.328   2.374
14507TIP3   OH243465   3.027   3.923   6.594
14507TIP3    H143466   3.116   3.955   6.578
14507TIP3    H243467   3.011   3.860   6.524
14508TIP3   OH243468   7.617   7.355   2.500
14508TIP3    H143469   7.582   7.270   2.526
14508TIP3    H243470   7.586   7.368   2.411
14509TIP3   OH243471   7.126   0.261   5.740
14509TIP3    H143472   7.148   0.178   5.783
14509TIP3    H243473   7.171   0.328   5.791
14510TIP3   OH243474   1.747   7.225   1.062
14510TIP3    H143475   1.834   7.220   1.024
14510TIP3    H243476   1.699   7.286   1.006
14511TIP3   OH243477   1.347   4.158   4.840
14511TIP3    H143478   1.393   4.075   4.828
14511TIP3    H243479   1.321   4.184   4.752
14512TIP3   OH243480   6.153   6.473   5.613
14512TIP3    H143481   6.223   6.408   5.617
14512TIP3    H243482   6.080   6.433   5.659
14513TIP3   OH243483   4.248   2.944   5.591
14513TIP3    H143484   4.206   2.991   5.518
14513TIP3    H243485   4.315   2.890   5.549
14514TIP3   OH243486   5.127   2.939   6.412
14514TIP3    H143487   5.048   2.886   6.421
14514TIP3    H243488   5.145   2.940   6.318
14515TIP3   OH243489   0.454   0.026   2.127
14515TIP3    H143490   0.462   0.084   2.203
14515TIP3    H243491   0.359   0.015   2.117
14516TIP3   OH243492   1.672   1.533   4.789
14516TIP3    H143493   1.658   1.439   4.778
14516TIP3    H243494   1.767   1.543   4.787
14517TIP3   OH243495   1.137   3.049   1.467
14517TIP3    H143496   1.216   3.083   1.509
14517TIP3    H243497   1.154   3.057   1.373
14518TIP3   OH243498   8.211   4.711   0.196
14518TIP3    H143499   8.267   4.668   0.132
14518TIP3    H243500   8.250   4.689   0.281
14519TIP3   OH243501   2.188   1.836   5.695
14519TIP3    H143502   2.112   1.840   5.754
14519TIP3    H243503   2.150   1.818   5.609
14520TIP3   OH243504   2.651   5.236   3.050
14520TIP3    H143505   2.598   5.187   3.113
14520TIP3    H243506   2.740   5.205   3.063
14521TIP3   OH243507   6.033   5.567  -0.030
14521TIP3    H143508   6.086   5.490  -0.008
14521TIP3    H243509   5.963   5.567   0.036
14522TIP3   OH243510   4.037   3.010   4.947
14522TIP3    H143511   4.052   2.921   4.979
14522TIP3    H243512   4.105   3.023   4.880
14523TIP3   OH243513   5.961   4.653   2.164
14523TIP3    H143514   5.921   4.721   2.217
14523TIP3    H243515   6.046   4.637   2.205
14524TIP3   OH243516   4.045   0.999   0.607
14524TIP3    H143517   4.113   1.031   0.547
14524TIP3    H243518   3.969   1.056   0.590
14525TIP3   OH243519   7.304   1.139   4.302
14525TIP3    H143520   7.270   1.063   4.253
14525TIP3    H243521   7.399   1.130   4.297
14526TIP3   OH243522   7.213   7.148   5.997
14526TIP3    H143523   7.299   7.190   6.008
14526TIP3    H243524   7.212   7.119   5.906
14527TIP3   OH243525   6.574   2.228   4.902
14527TIP3    H143526   6.479   2.222   4.899
14527TIP3    H243527   6.592   2.293   4.970
14528TIP3   OH243528   3.184   6.841   4.992
14528TIP3    H143529   3.201   6.819   5.084
14528TIP3    H243530   3.261   6.890   4.964
14529TIP3   OH243531   3.028   3.869   4.546
14529TIP3    H143532   3.005   3.899   4.458
14529TIP3    H243533   2.957   3.811   4.572
14530TIP3   OH243534   5.968   4.252   3.245
14530TIP3    H143535   6.039   4.316   3.244
14530TIP3    H243536   5.964   4.221   3.335
14531TIP3   OH243537   2.748   3.831   4.532
14531TIP3    H143538   2.707   3.876   4.458
14531TIP3    H243539   2.683   3.834   4.601
14532TIP3   OH243540   8.236   4.267   3.475
14532TIP3    H143541   8.200   4.333   3.416
14532TIP3    H243542   8.326   4.253   3.444
14533TIP3   OH243543   5.949   0.327   5.461
14533TIP3    H143544   5.920   0.410   5.497
14533TIP3    H243545   5.887   0.263   5.496
14534TIP3   OH243546   3.603   0.412   1.518
14534TIP3    H143547   3.515   0.374   1.523
14534TIP3    H243548   3.601   0.486   1.579
14535TIP3   OH243549   7.686   7.470   4.436
14535TIP3    H143550   7.769   7.429   4.413
14535TIP3    H243551   7.632   7.459   4.357
14536TIP3   OH243552   6.599   7.631   0.732
14536TIP3    H143553   6.577   7.697   0.798
14536TIP3    H243554   6.559   7.664   0.652
14537TIP3   OH243555   3.564   5.674   5.220
14537TIP3    H143556   3.568   5.616   5.296
14537TIP3    H243557   3.475   5.661   5.185
14538TIP3   OH243558   1.144   3.599   3.053
14538TIP3    H143559   1.163   3.629   3.141
14538TIP3    H243560   1.151   3.503   3.058
14539TIP3   OH243561   5.783   3.956   5.288
14539TIP3    H143562   5.760   3.894   5.218
14539TIP3    H243563   5.741   4.038   5.262
14540TIP3   OH243564   6.694   0.368   6.238
14540TIP3    H143565   6.645   0.370   6.320
14540TIP3    H243566   6.634   0.328   6.175
14541TIP3   OH243567   7.414   7.002   5.503
14541TIP3    H143568   7.369   7.024   5.421
14541TIP3    H243569   7.493   6.957   5.475
14542TIP3   OH243570   2.542   4.271   2.228
14542TIP3    H143571   2.575   4.182   2.242
14542TIP3    H243572   2.553   4.314   2.313
14543TIP3   OH243573   2.933   1.152   6.087
14543TIP3    H143574   2.900   1.139   5.998
14543TIP3    H243575   2.908   1.241   6.109
14544TIP3   OH243576   6.049   3.575   2.889
14544TIP3    H143577   6.016   3.653   2.933
14544TIP3    H243578   6.042   3.596   2.795
14545TIP3   OH243579   3.167   6.333   2.085
14545TIP3    H143580   3.234   6.267   2.065
14545TIP3    H243581   3.144   6.371   2.000
14546TIP3   OH243582   0.080   0.548   6.365
14546TIP3    H143583   0.061   0.576   6.454
14546TIP3    H243584   0.127   0.622   6.326
14547TIP3   OH243585   7.054   7.229   2.867
14547TIP3    H143586   7.090   7.306   2.824
14547TIP3    H243587   7.130   7.172   2.881
14548TIP3   OH243588   0.081   2.413   2.083
14548TIP3    H143589   0.018   2.460   2.029
14548TIP3    H243590   0.148   2.384   2.021
14549TIP3   OH243591   7.443   5.807   4.402
14549TIP3    H143592   7.500   5.874   4.441
14549TIP3    H243593   7.503   5.745   4.362
14550TIP3   OH243594   0.513   0.418   2.922
14550TIP3    H143595   0.464   0.417   3.004
14550TIP3    H243596   0.598   0.456   2.946
14551TIP3   OH243597   5.607   4.702   6.468
14551TIP3    H143598   5.540   4.635   6.453
14551TIP3    H243599   5.570   4.758   6.536
14552TIP3   OH243600   3.796   2.432   4.390
14552TIP3    H143601   3.754   2.360   4.438
14552TIP3    H243602   3.753   2.433   4.305
14553TIP3   OH243603   3.132   4.678   4.250
14553TIP3    H143604   3.059   4.617   4.237
14553TIP3    H243605   3.148   4.714   4.163
14554TIP3   OH243606   8.068   6.498   0.398
14554TIP3    H143607   7.985   6.455   0.381
14554TIP3    H243608   8.107   6.511   0.312
14555TIP3   OH243609   6.608   2.403   5.162
14555TIP3    H143610   6.572   2.491   5.148
14555TIP3    H243611   6.624   2.398   5.256
14556TIP3   OH243612   5.709   0.072   0.015
14556TIP3    H143613   5.713   0.044   0.107
14556TIP3    H243614   5.746   0.160   0.016
14557TIP3   OH243615   5.437   4.498   1.022
14557TIP3    H143616   5.478   4.559   0.961
14557TIP3    H243617   5.493   4.501   1.100
14558TIP3   OH243618   3.898   1.657   6.734
14558TIP3    H143619   3.909   1.606   6.814
14558TIP3    H243620   3.983   1.697   6.718
14559TIP3   OH243621   0.634   4.233   5.736
14559TIP3    H143622   0.625   4.145   5.700
14559TIP3    H243623   0.571   4.285   5.686
14560TIP3   OH243624   2.633   6.141   4.076
14560TIP3    H143625   2.703   6.097   4.028
14560TIP3    H243626   2.553   6.097   4.046
14561TIP3   OH243627   6.651   6.163   2.760
14561TIP3    H143628   6.580   6.111   2.724
14561TIP3    H243629   6.707   6.183   2.685
14562TIP3   OH243630   2.712   5.011   1.183
14562TIP3    H143631   2.644   5.078   1.187
14562TIP3    H243632   2.756   5.025   1.099
14563TIP3   OH243633   7.162   4.162   1.665
14563TIP3    H143634   7.214   4.132   1.739
14563TIP3    H243635   7.086   4.204   1.704
14564TIP3   OH243636   5.779   2.126   5.277
14564TIP3    H143637   5.754   2.040   5.312
14564TIP3    H243638   5.717   2.187   5.316
14565TIP3   OH243639   1.632   2.363   0.152
14565TIP3    H143640   1.707   2.370   0.210
14565TIP3    H243641   1.670   2.363   0.064
14566TIP3   OH243642   4.533   2.702   1.716
14566TIP3    H143643   4.619   2.709   1.759
14566TIP3    H243644   4.481   2.772   1.755
14567TIP3   OH243645   6.558   0.744   5.992
14567TIP3    H143646   6.616   0.668   5.983
14567TIP3    H243647   6.470   0.710   5.976
14568TIP3   OH243648   7.539   2.876   0.910
14568TIP3    H143649   7.448   2.903   0.921
14568TIP3    H243650   7.561   2.903   0.820
14569TIP3   OH243651   1.840   4.255   4.591
14569TIP3    H143652   1.884   4.270   4.508
14569TIP3    H243653   1.764   4.200   4.568
14570TIP3   OH243654   7.701   6.586   1.569
14570TIP3    H143655   7.686   6.621   1.481
14570TIP3    H243656   7.731   6.496   1.554
14571TIP3   OH243657   1.379   5.566   5.295
14571TIP3    H143658   1.457   5.555   5.350
14571TIP3    H243659   1.411   5.553   5.206
14572TIP3   OH243660   0.910   4.938   3.635
14572TIP3    H143661   0.935   4.974   3.720
14572TIP3    H243662   0.990   4.941   3.582
14573TIP3   OH243663   5.877   3.551   6.566
14573TIP3    H143664   5.921   3.625   6.609
14573TIP3    H243665   5.933   3.530   6.491
14574TIP3   OH243666   0.788   2.098   2.866
14574TIP3    H143667   0.881   2.075   2.856
14574TIP3    H243668   0.778   2.180   2.818
14575TIP3   OH243669   6.627   0.940   5.462
14575TIP3    H143670   6.629   0.933   5.367
14575TIP3    H243671   6.562   0.876   5.490
14576TIP3   OH243672   4.937   3.302   1.974
14576TIP3    H143673   4.978   3.301   2.060
14576TIP3    H243674   4.985   3.370   1.925
14577TIP3   OH243675   6.515   2.301   6.366
14577TIP3    H143676   6.439   2.308   6.424
14577TIP3    H243677   6.525   2.207   6.351
14578TIP3   OH243678   0.695   1.257   0.992
14578TIP3    H143679   0.665   1.325   1.053
14578TIP3    H243680   0.715   1.304   0.911
14579TIP3   OH243681   5.443   1.506   4.422
14579TIP3    H143682   5.519   1.448   4.432
14579TIP3    H243683   5.369   1.446   4.409
14580TIP3   OH243684   5.565   2.849   6.212
14580TIP3    H143685   5.619   2.795   6.155
14580TIP3    H243686   5.500   2.790   6.247
14581TIP3   OH243687   8.262   1.458   3.579
14581TIP3    H143688   8.218   1.448   3.664
14581TIP3    H243689   8.335   1.398   3.582
14582TIP3   OH243690   0.610   3.258   6.469
14582TIP3    H143691   0.680   3.256   6.535
14582TIP3    H243692   0.601   3.167   6.441
14583TIP3   OH243693   4.822   7.746   4.940
14583TIP3    H143694   4.840   7.671   4.883
14583TIP3    H243695   4.865   7.820   4.897
14584TIP3   OH243696   4.406   3.106   0.110
14584TIP3    H143697   4.345   3.048   0.064
14584TIP3    H243698   4.490   3.062   0.103
14585TIP3   OH243699   6.550   4.509   3.968
14585TIP3    H143700   6.473   4.492   4.022
14585TIP3    H243701   6.603   4.430   3.977
14586TIP3   OH243702   5.193   6.410   6.155
14586TIP3    H143703   5.123   6.408   6.219
14586TIP3    H243704   5.271   6.381   6.203
14587TIP3   OH243705   7.512   5.450   4.927
14587TIP3    H143706   7.439   5.412   4.975
14587TIP3    H243707   7.541   5.381   4.867
14588TIP3   OH243708   2.245   4.718   6.092
14588TIP3    H143709   2.190   4.796   6.099
14588TIP3    H243710   2.205   4.667   6.021
14589TIP3   OH243711   3.370   2.371   5.337
14589TIP3    H143712   3.319   2.446   5.368
14589TIP3    H243713   3.432   2.409   5.275
14590TIP3   OH243714   6.719   3.027   2.553
14590TIP3    H143715   6.705   2.936   2.528
14590TIP3    H243716   6.662   3.040   2.629
14591TIP3   OH243717   1.249   0.104   1.789
14591TIP3    H143718   1.279   0.061   1.869
14591TIP3    H243719   1.301   0.185   1.785
14592TIP3   OH243720   3.412   5.209   1.037
14592TIP3    H143721   3.464   5.168   0.968
14592TIP3    H243722   3.408   5.143   1.106
14593TIP3   OH243723   6.634   2.447   5.431
14593TIP3    H143724   6.545   2.433   5.463
14593TIP3    H243725   6.690   2.409   5.499
14594TIP3   OH243726   0.698   7.120   0.709
14594TIP3    H143727   0.655   7.161   0.634
14594TIP3    H243728   0.631   7.061   0.746
14595TIP3   OH243729   0.976   2.605   2.323
14595TIP3    H143730   0.965   2.564   2.237
14595TIP3    H243731   1.069   2.592   2.344
14596TIP3   OH243732   0.526   5.675   6.590
14596TIP3    H143733   0.536   5.722   6.673
14596TIP3    H243734   0.473   5.733   6.536
14597TIP3   OH243735   7.958   1.294   1.486
14597TIP3    H143736   7.912   1.281   1.403
14597TIP3    H243737   7.926   1.379   1.518
14598TIP3   OH243738   5.504   6.951   6.103
14598TIP3    H143739   5.425   6.941   6.049
14598TIP3    H243740   5.562   7.004   6.049
14599TIP3   OH243741   6.313   4.725   4.111
14599TIP3    H143742   6.297   4.732   4.017
14599TIP3    H243743   6.228   4.740   4.151
14600TIP3   OH243744   2.073   4.187   5.030
14600TIP3    H143745   2.120   4.177   4.947
14600TIP3    H243746   2.096   4.108   5.080
14601TIP3   OH243747   0.168   2.977   3.980
14601TIP3    H143748   0.212   3.051   4.023
14601TIP3    H243749   0.156   2.913   4.050
14602TIP3   OH243750   3.523   7.007   4.027
14602TIP3    H143751   3.436   6.975   4.004
14602TIP3    H243752   3.561   6.938   4.080
14603TIP3   OH243753   2.603   3.433   5.430
14603TIP3    H143754   2.662   3.384   5.373
14603TIP3    H243755   2.572   3.368   5.493
14604TIP3   OH243756   0.691   0.207   6.442
14604TIP3    H143757   0.727   0.151   6.373
14604TIP3    H243758   0.728   0.294   6.423
14605TIP3   OH243759   5.020   1.516   4.317
14605TIP3    H143760   5.007   1.593   4.262
14605TIP3    H243761   4.993   1.544   4.405
14606TIP3   OH243762   6.944   1.794   0.405
14606TIP3    H143763   7.009   1.773   0.472
14606TIP3    H243764   6.888   1.860   0.446
14607TIP3   OH243765   5.014   5.934   2.601
14607TIP3    H143766   5.105   5.957   2.582
14607TIP3    H243767   5.020   5.854   2.654
14608TIP3   OH243768   7.867   4.779   4.421
14608TIP3    H143769   7.810   4.711   4.459
14608TIP3    H243770   7.807   4.838   4.377
14609TIP3   OH243771   2.623   0.326   5.456
14609TIP3    H143772   2.536   0.285   5.456
14609TIP3    H243773   2.679   0.263   5.499
14610TIP3   OH243774   7.847   2.366   0.408
14610TIP3    H143775   7.834   2.430   0.479
14610TIP3    H243776   7.794   2.291   0.434
14611TIP3   OH243777   6.059   7.323   2.116
14611TIP3    H143778   6.030   7.406   2.078
14611TIP3    H243779   6.009   7.315   2.197
14612TIP3   OH243780   8.066   4.604   1.238
14612TIP3    H143781   8.140   4.556   1.275
14612TIP3    H243782   7.990   4.550   1.261
14613TIP3   OH243783   1.053   0.160   3.368
14613TIP3    H143784   1.086   0.153   3.457
14613TIP3    H243785   1.130   0.188   3.317
14614TIP3   OH243786   7.166   2.684   1.796
14614TIP3    H143787   7.105   2.614   1.819
14614TIP3    H243788   7.209   2.707   1.879
14615TIP3   OH243789   1.930   5.919   4.576
14615TIP3    H143790   1.950   5.826   4.568
14615TIP3    H243791   1.844   5.921   4.619
14616TIP3   OH243792   4.291   3.096   3.932
14616TIP3    H143793   4.202   3.071   3.908
14616TIP3    H243794   4.293   3.092   4.028
14617TIP3   OH243795   2.942   2.557   1.743
14617TIP3    H143796   2.903   2.481   1.698
14617TIP3    H243797   2.868   2.605   1.779
14618TIP3   OH243798   7.838   6.389   0.701
14618TIP3    H143799   7.804   6.338   0.775
14618TIP3    H243800   7.899   6.450   0.741
14619TIP3   OH243801   2.557   0.046   2.582
14619TIP3    H143802   2.473   0.091   2.567
14619TIP3    H243803   2.612   0.112   2.625
14620TIP3   OH243804   0.711   4.402   3.828
14620TIP3    H143805   0.626   4.400   3.784
14620TIP3    H243806   0.741   4.492   3.817
14621TIP3   OH243807   4.604   4.740   1.127
14621TIP3    H143808   4.693   4.706   1.122
14621TIP3    H243809   4.605   4.803   1.199
14622TIP3   OH243810   0.788   6.603   4.710
14622TIP3    H143811   0.882   6.594   4.692
14622TIP3    H243812   0.765   6.525   4.760
14623TIP3   OH243813   7.400   6.347   0.302
14623TIP3    H143814   7.474   6.307   0.257
14623TIP3    H243815   7.417   6.441   0.298
14624TIP3   OH243816   7.114   5.467   1.524
14624TIP3    H143817   7.140   5.506   1.608
14624TIP3    H243818   7.142   5.531   1.458
14625TIP3   OH243819   2.575   3.940   2.369
14625TIP3    H143820   2.533   3.963   2.286
14625TIP3    H243821   2.656   3.992   2.370
14626TIP3   OH243822   1.600   1.570   3.451
14626TIP3    H143823   1.621   1.644   3.509
14626TIP3    H243824   1.639   1.494   3.493
14627TIP3   OH243825   0.771   5.476   0.881
14627TIP3    H143826   0.743   5.501   0.793
14627TIP3    H243827   0.709   5.520   0.940
14628TIP3   OH243828   5.230   5.940   3.600
14628TIP3    H143829   5.221   6.035   3.599
14628TIP3    H243830   5.150   5.908   3.558
14629TIP3   OH243831   5.987   3.942   2.275
14629TIP3    H143832   6.035   4.025   2.282
14629TIP3    H243833   5.923   3.957   2.205
14630TIP3   OH243834   4.489   5.970   6.249
14630TIP3    H143835   4.449   5.894   6.291
14630TIP3    H243836   4.426   5.998   6.183
14631TIP3   OH243837   7.245   2.491   6.091
14631TIP3    H143838   7.291   2.514   6.010
14631TIP3    H243839   7.240   2.573   6.139
14632TIP3   OH243840   0.519   2.989   6.450
14632TIP3    H143841   0.554   2.906   6.483
14632TIP3    H243842   0.466   2.964   6.374
14633TIP3   OH243843   3.482   6.964   3.597
14633TIP3    H143844   3.553   6.916   3.556
14633TIP3    H243845   3.517   7.052   3.610
14634TIP3   OH243846   6.380   0.467   5.239
14634TIP3    H143847   6.365   0.400   5.172
14634TIP3    H243848   6.339   0.433   5.318
14635TIP3   OH243849   3.535   4.486   0.179
14635TIP3    H143850   3.563   4.430   0.252
14635TIP3    H243851   3.598   4.467   0.109
14636TIP3   OH243852   3.687   5.264   1.441
14636TIP3    H143853   3.604   5.223   1.466
14636TIP3    H243854   3.741   5.260   1.520
14637TIP3   OH243855   1.023   4.242   4.159
14637TIP3    H143856   0.983   4.175   4.103
14637TIP3    H243857   1.045   4.197   4.240
14638TIP3   OH243858   4.531   0.032   6.483
14638TIP3    H143859   4.525   0.107   6.424
14638TIP3    H243860   4.588  -0.030   6.437
14639TIP3   OH243861   7.401   1.580   3.978
14639TIP3    H143862   7.472   1.636   4.007
14639TIP3    H243863   7.440   1.494   3.967
14640TIP3   OH243864   5.940   5.005   2.785
14640TIP3    H143865   5.873   4.999   2.853
14640TIP3    H243866   6.011   4.949   2.816
14641TIP3   OH243867   0.901   6.539   0.808
14641TIP3    H143868   0.814   6.559   0.842
14641TIP3    H243869   0.939   6.479   0.873
14642TIP3   OH243870   2.008   5.728   5.888
14642TIP3    H143871   2.033   5.668   5.959
14642TIP3    H243872   1.918   5.752   5.909
14643TIP3   OH243873   7.162   5.607   2.213
14643TIP3    H143874   7.247   5.612   2.169
14643TIP3    H243875   7.106   5.667   2.165
14644TIP3   OH243876   1.648   4.060   5.957
14644TIP3    H143877   1.670   4.011   5.877
14644TIP3    H243878   1.691   4.144   5.945
14645TIP3   OH243879   6.579   5.848   5.271
14645TIP3    H143880   6.529   5.905   5.329
14645TIP3    H243881   6.622   5.907   5.210
14646TIP3   OH243882   0.676   1.513   4.345
14646TIP3    H143883   0.709   1.484   4.430
14646TIP3    H243884   0.696   1.441   4.285
14647TIP3   OH243885   1.814   6.867   0.723
14647TIP3    H143886   1.882   6.804   0.744
14647TIP3    H243887   1.849   6.951   0.752
14648TIP3   OH243888   0.993   2.739   3.542
14648TIP3    H143889   1.006   2.798   3.617
14648TIP3    H243890   0.898   2.730   3.535
14649TIP3   OH243891   6.521   0.207   4.581
14649TIP3    H143892   6.610   0.232   4.605
14649TIP3    H243893   6.492   0.149   4.651
14650TIP3   OH243894   2.909   4.693   5.205
14650TIP3    H143895   2.851   4.625   5.171
14650TIP3    H243896   2.990   4.647   5.225
14651TIP3   OH243897   3.658   3.311   0.457
14651TIP3    H143898   3.748   3.286   0.438
14651TIP3    H243899   3.665   3.391   0.509
14652TIP3   OH243900   1.577   5.179   2.792
14652TIP3    H143901   1.560   5.134   2.710
14652TIP3    H243902   1.657   5.229   2.777
14653TIP3   OH243903   1.205   3.976   5.376
14653TIP3    H143904   1.164   3.891   5.358
14653TIP3    H243905   1.141   4.041   5.347
14654TIP3   OH243906   6.829   5.105   1.635
14654TIP3    H143907   6.855   5.112   1.727
14654TIP3    H243908   6.803   5.193   1.610
14655TIP3   OH243909   3.304   2.856   1.877
14655TIP3    H143910   3.296   2.782   1.816
14655TIP3    H243911   3.398   2.860   1.897
14656TIP3   OH243912   6.619   0.622   2.545
14656TIP3    H143913   6.541   0.580   2.507
14656TIP3    H243914   6.654   0.677   2.474
14657TIP3   OH243915   8.188   6.931   0.102
14657TIP3    H143916   8.098   6.903   0.118
14657TIP3    H243917   8.200   7.007   0.160
14658TIP3   OH243918   5.327   5.403   6.428
14658TIP3    H143919   5.288   5.487   6.406
14658TIP3    H243920   5.297   5.343   6.359
14659TIP3   OH243921   1.092   2.012   2.092
14659TIP3    H143922   1.015   1.959   2.077
14659TIP3    H243923   1.152   1.988   2.022
14660TIP3   OH243924   0.865   4.915   5.992
14660TIP3    H143925   0.837   4.845   5.932
14660TIP3    H243926   0.915   4.869   6.059
14661TIP3   OH243927   7.847   4.946   0.625
14661TIP3    H143928   7.901   4.986   0.557
14661TIP3    H243929   7.902   4.877   0.662
14662TIP3   OH243930   6.276   6.852   1.980
14662TIP3    H143931   6.268   6.843   2.075
14662TIP3    H243932   6.349   6.913   1.968
14663TIP3   OH243933   0.103   3.424   2.057
14663TIP3    H143934   0.011   3.448   2.068
14663TIP3    H243935   0.134   3.477   1.984
14664TIP3   OH243936   5.461   4.960   0.066
14664TIP3    H143937   5.520   4.896   0.105
14664TIP3    H243938   5.519   5.027   0.030
14665TIP3   OH243939   3.013   5.038   3.369
14665TIP3    H143940   3.068   5.022   3.292
14665TIP3    H243941   3.064   5.098   3.423
14666TIP3   OH243942   0.114   5.919   1.401
14666TIP3    H143943   0.138   5.958   1.486
14666TIP3    H243944   0.019   5.916   1.402
14667TIP3   OH243945   1.071   1.560   3.859
14667TIP3    H143946   1.152   1.604   3.886
14667TIP3    H243947   1.099   1.473   3.833
14668TIP3   OH243948   6.836   7.627   5.524
14668TIP3    H143949   6.897   7.645   5.596
14668TIP3    H243950   6.871   7.677   5.450
14669TIP3   OH243951   7.859   6.634   1.776
14669TIP3    H143952   7.917   6.706   1.754
14669TIP3    H243953   7.805   6.621   1.698
14670TIP3   OH243954   3.107   6.376   0.695
14670TIP3    H143955   3.017   6.388   0.667
14670TIP3    H243956   3.104   6.302   0.755
14671TIP3   OH243957   1.883   0.085   6.003
14671TIP3    H143958   1.889   0.146   5.930
14671TIP3    H243959   1.872  -0.001   5.962
14672TIP3   OH243960   2.806   7.487   4.596
14672TIP3    H143961   2.786   7.394   4.585
14672TIP3    H243962   2.866   7.507   4.524
14673TIP3   OH243963   1.499   0.906   6.075
14673TIP3    H143964   1.477   0.863   5.992
14673TIP3    H243965   1.539   0.989   6.049
14674TIP3   OH243966   4.749   7.099   2.859
14674TIP3    H143967   4.656   7.075   2.850
14674TIP3    H243968   4.797   7.023   2.826
14675TIP3   OH243969   6.433   4.124   4.162
14675TIP3    H143970   6.385   4.102   4.082
14675TIP3    H243971   6.438   4.219   4.162
14676TIP3   OH243972   4.102   1.075   0.897
14676TIP3    H143973   4.097   1.007   0.830
14676TIP3    H243974   4.177   1.050   0.951
14677TIP3   OH243975   4.541   3.168   6.144
14677TIP3    H143976   4.590   3.130   6.071
14677TIP3    H243977   4.515   3.255   6.113
14678TIP3   OH243978   1.890   0.703   6.175
14678TIP3    H143979   1.847   0.726   6.093
14678TIP3    H243980   1.946   0.778   6.195
14679TIP3   OH243981   3.171   2.483   3.309
14679TIP3    H143982   3.130   2.566   3.285
14679TIP3    H243983   3.244   2.508   3.366
14680TIP3   OH243984   0.483   0.999   2.048
14680TIP3    H143985   0.502   1.092   2.048
14680TIP3    H243986   0.562   0.958   2.084
14681TIP3   OH243987   3.761   2.792   0.674
14681TIP3    H143988   3.733   2.783   0.765
14681TIP3    H243989   3.682   2.819   0.627
14682TIP3   OH243990   1.689   0.966   1.713
14682TIP3    H143991   1.616   0.966   1.651
14682TIP3    H243992   1.764   0.997   1.662
14683TIP3   OH243993   5.979   7.721   6.309
14683TIP3    H143994   6.051   7.741   6.249
14683TIP3    H243995   5.923   7.799   6.306
14684TIP3   OH243996   0.348   5.246   4.893
14684TIP3    H143997   0.267   5.212   4.931
14684TIP3    H243998   0.319   5.320   4.838
14685TIP3   OH243999   5.498   7.786   5.443
14685TIP3    H144000   5.490   7.703   5.396
14685TIP3    H244001   5.593   7.799   5.452
14686TIP3   OH244002   1.463   5.904   4.330
14686TIP3    H144003   1.548   5.861   4.321
14686TIP3    H244004   1.482   5.983   4.381
14687TIP3   OH244005   0.191   4.109   0.677
14687TIP3    H144006   0.230   4.094   0.763
14687TIP3    H244007   0.242   4.055   0.617
14688TIP3   OH244008   0.141   3.661   0.191
14688TIP3    H144009   0.225   3.618   0.208
14688TIP3    H244010   0.112   3.691   0.277
14689TIP3   OH244011   1.135   0.627   4.260
14689TIP3    H144012   1.173   0.593   4.342
14689TIP3    H244013   1.125   0.721   4.275
14690TIP3   OH244014   7.426   5.583   1.718
14690TIP3    H144015   7.431   5.533   1.799
14690TIP3    H244016   7.424   5.517   1.649
14691TIP3   OH244017   3.797   2.966   4.124
14691TIP3    H144018   3.705   2.982   4.104
14691TIP3    H244019   3.803   2.871   4.133
14692TIP3   OH244020   2.686   5.070   1.456
14692TIP3    H144021   2.723   5.022   1.382
14692TIP3    H244022   2.707   5.016   1.532
14693TIP3   OH244023   7.083   1.084   2.042
14693TIP3    H144024   7.008   1.078   1.983
14693TIP3    H244025   7.109   1.176   2.039
14694TIP3   OH244026   6.715   6.820   6.439
14694TIP3    H144027   6.680   6.909   6.445
14694TIP3    H244028   6.651   6.773   6.386
14695TIP3   OH244029   5.102   1.493   2.815
14695TIP3    H144030   5.069   1.413   2.855
14695TIP3    H244031   5.067   1.564   2.870
14696TIP3   OH244032   3.804   1.382   2.302
14696TIP3    H144033   3.829   1.422   2.219
14696TIP3    H244034   3.872   1.407   2.364
14697TIP3   OH244035   1.350   7.078   1.470
14697TIP3    H144036   1.303   7.161   1.469
14697TIP3    H244037   1.342   7.047   1.560
14698TIP3   OH244038   1.260   6.220   5.550
14698TIP3    H144039   1.281   6.312   5.569
14698TIP3    H244040   1.165   6.215   5.557
14699TIP3   OH244041   1.937   1.495   0.448
14699TIP3    H144042   1.974   1.435   0.513
14699TIP3    H244043   1.847   1.464   0.435
14700TIP3   OH244044   8.111   4.686   3.174
14700TIP3    H144045   8.054   4.681   3.097
14700TIP3    H244046   8.091   4.772   3.212
14701TIP3   OH244047   6.197   5.080   0.062
14701TIP3    H144048   6.261   5.010   0.077
14701TIP3    H244049   6.245   5.146   0.012
14702TIP3   OH244050   1.640   1.421   1.757
14702TIP3    H144051   1.599   1.367   1.689
14702TIP3    H244052   1.578   1.491   1.773
14703TIP3   OH244053   2.684   0.230   6.581
14703TIP3    H144054   2.678   0.316   6.621
14703TIP3    H244055   2.735   0.244   6.501
14704TIP3   OH244056   0.254   3.974   6.267
14704TIP3    H144057   0.160   3.971   6.249
14704TIP3    H244058   0.262   4.028   6.346
14705TIP3   OH244059   2.278   4.347   5.372
14705TIP3    H144060   2.346   4.289   5.405
14705TIP3    H244061   2.198   4.321   5.418
14706TIP3   OH244062   3.368   7.784   5.418
14706TIP3    H144063   3.290   7.758   5.467
14706TIP3    H244064   3.391   7.870   5.454
14707TIP3   OH244065   0.292   4.862   5.836
14707TIP3    H144066   0.334   4.795   5.782
14707TIP3    H244067   0.325   4.846   5.924
14708TIP3   OH244068   6.807   1.705   4.948
14708TIP3    H144069   6.880   1.660   4.906
14708TIP3    H244070   6.849   1.767   5.008
14709TIP3   OH244071   1.294   1.370   3.561
14709TIP3    H144072   1.260   1.453   3.594
14709TIP3    H244073   1.315   1.388   3.469
14710TIP3   OH244074   5.679   2.388   0.828
14710TIP3    H144075   5.586   2.367   0.817
14710TIP3    H244076   5.712   2.397   0.739
14711TIP3   OH244077   4.143   6.329   2.298
14711TIP3    H144078   4.180   6.402   2.248
14711TIP3    H244079   4.049   6.335   2.282
14712TIP3   OH244080   6.557   0.065   2.754
14712TIP3    H144081   6.610   0.121   2.696
14712TIP3    H244082   6.575  -0.024   2.723
14713TIP3   OH244083   8.002   0.269   2.250
14713TIP3    H144084   7.948   0.305   2.321
14713TIP3    H244085   7.985   0.326   2.176
14714TIP3   OH244086   6.648   5.391   2.842
14714TIP3    H144087   6.718   5.448   2.810
14714TIP3    H244088   6.570   5.420   2.795
14715TIP3   OH244089   1.886   6.109   2.250
14715TIP3    H144090   1.846   6.023   2.258
14715TIP3    H244091   1.823   6.169   2.289
14716TIP3   OH244092   0.509   6.162   3.942
14716TIP3    H144093   0.575   6.135   4.006
14716TIP3    H244094   0.538   6.248   3.912
14717TIP3   OH244095   4.089   6.949   0.917
14717TIP3    H144096   4.008   6.999   0.914
14717TIP3    H244097   4.158   7.015   0.927
14718TIP3   OH244098   4.853   4.731   1.846
14718TIP3    H144099   4.790   4.771   1.907
14718TIP3    H244100   4.900   4.805   1.809
14719TIP3   OH244101   6.942   0.002   2.395
14719TIP3    H144102   6.902  -0.067   2.343
14719TIP3    H244103   6.955   0.074   2.334
14720TIP3   OH244104   5.030   0.925   5.669
14720TIP3    H144105   5.001   0.837   5.692
14720TIP3    H244106   4.977   0.948   5.592
14721TIP3   OH244107   7.693   3.219   1.578
14721TIP3    H144108   7.684   3.272   1.657
14721TIP3    H244109   7.787   3.214   1.562
14722TIP3   OH244110   0.428   1.758   4.131
14722TIP3    H144111   0.443   1.845   4.168
14722TIP3    H244112   0.379   1.712   4.200
14723TIP3   OH244113   8.160   1.298   1.036
14723TIP3    H144114   8.247   1.322   1.004
14723TIP3    H244115   8.175   1.270   1.126
14724TIP3   OH244116   6.818   2.808   3.408
14724TIP3    H144117   6.841   2.897   3.384
14724TIP3    H244118   6.899   2.758   3.396
14725TIP3   OH244119   3.843   2.061   3.524
14725TIP3    H144120   3.903   2.133   3.542
14725TIP3    H244121   3.891   2.005   3.463
14726TIP3   OH244122   2.873   0.432   5.328
14726TIP3    H144123   2.904   0.377   5.256
14726TIP3    H244124   2.782   0.405   5.341
14727TIP3   OH244125   7.681   3.711   0.773
14727TIP3    H144126   7.688   3.760   0.855
14727TIP3    H244127   7.588   3.713   0.752
14728TIP3   OH244128   0.990   1.452   5.356
14728TIP3    H144129   1.085   1.463   5.350
14728TIP3    H244130   0.953   1.536   5.330
14729TIP3   OH244131   4.160   5.269   1.651
14729TIP3    H144132   4.222   5.197   1.644
14729TIP3    H244133   4.193   5.336   1.591
14730TIP3   OH244134   4.852   2.010   0.626
14730TIP3    H144135   4.858   2.077   0.694
14730TIP3    H244136   4.789   1.947   0.660
14731TIP3   OH244137   5.683   4.308   5.053
14731TIP3    H144138   5.648   4.279   4.969
14731TIP3    H244139   5.677   4.404   5.050
14732TIP3   OH244140   6.528   0.387   5.555
14732TIP3    H144141   6.559   0.361   5.642
14732TIP3    H244142   6.433   0.372   5.557
14733TIP3   OH244143   3.595   4.679   4.553
14733TIP3    H144144   3.653   4.652   4.624
14733TIP3    H244145   3.599   4.775   4.554
14734TIP3   OH244146   5.972   6.419   1.436
14734TIP3    H144147   6.023   6.476   1.379
14734TIP3    H244148   5.983   6.457   1.524
14735TIP3   OH244149   3.244   5.813   1.895
14735TIP3    H144150   3.301   5.769   1.958
14735TIP3    H244151   3.166   5.837   1.946
14736TIP3   OH244152  -0.011   2.035   2.324
14736TIP3    H144153  -0.022   2.029   2.419
14736TIP3    H244154   0.083   2.049   2.312
14737TIP3   OH244155   2.203   6.376   2.955
14737TIP3    H144156   2.161   6.337   3.031
14737TIP3    H244157   2.215   6.468   2.979
14738TIP3   OH244158   2.459   7.773   1.652
14738TIP3    H144159   2.484   7.808   1.567
14738TIP3    H244160   2.439   7.681   1.636
14739TIP3   OH244161   5.930   1.010   0.506
14739TIP3    H144162   6.013   1.030   0.462
14739TIP3    H244163   5.918   0.916   0.492
14740TIP3   OH244164   8.072   6.392   2.655
14740TIP3    H144165   8.109   6.377   2.742
14740TIP3    H244166   8.147   6.385   2.595
14741TIP3   OH244167   4.346   0.080   1.039
14741TIP3    H144168   4.412   0.022   1.077
14741TIP3    H244169   4.268   0.024   1.029
14742TIP3   OH244170   7.096   2.500   3.523
14742TIP3    H144171   7.049   2.512   3.441
14742TIP3    H244172   7.188   2.489   3.496
14743TIP3   OH244173   5.603   5.488   3.659
14743TIP3    H144174   5.679   5.432   3.645
14743TIP3    H244175   5.534   5.448   3.605
14744TIP3   OH244176   2.182   5.950   6.549
14744TIP3    H144177   2.199   5.965   6.642
14744TIP3    H244178   2.257   5.990   6.505
14745TIP3   OH244179   0.380   3.892   2.608
14745TIP3    H144180   0.428   3.925   2.684
14745TIP3    H244181   0.422   3.808   2.588
14746TIP3   OH244182   8.037   1.686   3.949
14746TIP3    H144183   8.067   1.612   4.001
14746TIP3    H244184   8.088   1.760   3.980
14747TIP3   OH244185   0.697   5.857   6.345
14747TIP3    H144186   0.725   5.878   6.435
14747TIP3    H244187   0.605   5.881   6.342
14748TIP3   OH244188   1.788   6.057   3.820
14748TIP3    H144189   1.825   6.143   3.840
14748TIP3    H244190   1.752   6.026   3.903
14749TIP3   OH244191   3.313   5.114   5.228
14749TIP3    H144192   3.237   5.170   5.244
14749TIP3    H244193   3.291   5.031   5.270
14750TIP3   OH244194   7.055   3.481   5.143
14750TIP3    H144195   7.087   3.401   5.102
14750TIP3    H244196   6.968   3.458   5.176
14751TIP3   OH244197   5.349   5.785   4.290
14751TIP3    H144198   5.297   5.706   4.303
14751TIP3    H244199   5.343   5.832   4.373
14752TIP3   OH244200   5.003   6.451   1.900
14752TIP3    H144201   5.094   6.431   1.921
14752TIP3    H244202   4.954   6.426   1.978
14753TIP3   OH244203   2.561   3.973   4.716
14753TIP3    H144204   2.604   4.025   4.784
14753TIP3    H244205   2.579   4.019   4.634
14754TIP3   OH244206   1.231   7.718   5.715
14754TIP3    H144207   1.326   7.720   5.718
14754TIP3    H244208   1.204   7.686   5.801
14755TIP3   OH244209   1.658   5.867   1.172
14755TIP3    H144210   1.581   5.822   1.138
14755TIP3    H244211   1.679   5.819   1.252
14756TIP3   OH244212   4.796   7.615   0.817
14756TIP3    H144213   4.817   7.620   0.910
14756TIP3    H244214   4.757   7.528   0.806
14757TIP3   OH244215   7.683   5.319   4.762
14757TIP3    H144216   7.665   5.374   4.687
14757TIP3    H244217   7.620   5.247   4.756
14758TIP3   OH244218   4.324   2.724   0.072
14758TIP3    H144219   4.326   2.700  -0.021
14758TIP3    H244220   4.247   2.780   0.080
14759TIP3   OH244221   3.832   2.686   5.754
14759TIP3    H144222   3.874   2.764   5.791
14759TIP3    H244223   3.830   2.702   5.660
14760TIP3   OH244224   4.670   4.415   0.444
14760TIP3    H144225   4.765   4.414   0.432
14760TIP3    H244226   4.646   4.507   0.432
14761TIP3   OH244227   1.525   0.491   2.601
14761TIP3    H144228   1.475   0.543   2.663
14761TIP3    H244229   1.473   0.493   2.521
14762TIP3   OH244230   0.927   7.658   5.384
14762TIP3    H144231   0.977   7.695   5.311
14762TIP3    H244232   0.836   7.661   5.355
14763TIP3   OH244233   7.438   5.357   2.503
14763TIP3    H144234   7.462   5.387   2.591
14763TIP3    H244235   7.367   5.295   2.517
14764TIP3   OH244236   3.575   5.599   2.662
14764TIP3    H144237   3.497   5.583   2.715
14764TIP3    H244238   3.550   5.574   2.574
14765TIP3   OH244239   7.980   2.572   1.593
14765TIP3    H144240   8.048   2.623   1.549
14765TIP3    H244241   7.899   2.595   1.546
14766TIP3   OH244242   0.809   6.158   2.975
14766TIP3    H144243   0.876   6.196   3.031
14766TIP3    H244244   0.742   6.126   3.036
14767TIP3   OH244245   3.909   6.291   1.641
14767TIP3    H144246   3.856   6.213   1.622
14767TIP3    H244247   3.975   6.292   1.571
14768TIP3   OH244248   4.900   0.991   1.827
14768TIP3    H144249   4.962   0.987   1.900
14768TIP3    H244250   4.816   0.968   1.865
14769TIP3   OH244251   4.712   3.002   3.760
14769TIP3    H144252   4.783   3.066   3.767
14769TIP3    H244253   4.654   3.023   3.833
14770TIP3   OH244254   0.238   4.779   1.747
14770TIP3    H144255   0.244   4.795   1.652
14770TIP3    H244256   0.181   4.703   1.756
14771TIP3   OH244257   4.819   1.284   5.021
14771TIP3    H144258   4.844   1.226   5.094
14771TIP3    H244259   4.771   1.227   4.961
14772TIP3   OH244260   1.326   1.930   2.306
14772TIP3    H144261   1.413   1.890   2.304
14772TIP3    H244262   1.309   1.955   2.216
14773TIP3   OH244263   1.518   4.969   6.743
14773TIP3    H144264   1.604   4.950   6.706
14773TIP3    H244265   1.463   4.897   6.713
14774TIP3   OH244266   4.532   7.358   1.249
14774TIP3    H144267   4.556   7.316   1.166
14774TIP3    H244268   4.553   7.450   1.236
14775TIP3   OH244269   0.709   5.138   1.688
14775TIP3    H144270   0.760   5.134   1.768
14775TIP3    H244271   0.686   5.046   1.670
14776TIP3   OH244272   2.894   4.090   0.420
14776TIP3    H144273   2.886   4.160   0.485
14776TIP3    H244274   2.953   4.126   0.354
14777TIP3   OH244275   4.672   7.620   4.038
14777TIP3    H144276   4.636   7.543   4.081
14777TIP3    H244277   4.610   7.690   4.058
14778TIP3   OH244278   1.151   4.933   0.976
14778TIP3    H144279   1.159   5.011   1.031
14778TIP3    H244280   1.162   4.966   0.887
14779TIP3   OH244281   6.809   2.132   4.822
14779TIP3    H144282   6.838   2.136   4.730
14779TIP3    H244283   6.726   2.179   4.823
14780TIP3   OH244284   1.411   1.183   2.334
14780TIP3    H144285   1.366   1.181   2.418
14780TIP3    H244286   1.487   1.240   2.349
14781TIP3   OH244287   2.271   0.324   5.960
14781TIP3    H144288   2.300   0.265   5.891
14781TIP3    H244289   2.248   0.405   5.914
14782TIP3   OH244290   5.793   1.223   3.489
14782TIP3    H144291   5.832   1.150   3.442
14782TIP3    H244292   5.698   1.212   3.478
14783TIP3   OH244293   4.340   1.769   2.122
14783TIP3    H144294   4.328   1.703   2.054
14783TIP3    H244295   4.419   1.741   2.169
14784TIP3   OH244296   5.499   3.068   5.904
14784TIP3    H144297   5.503   3.152   5.950
14784TIP3    H244298   5.584   3.027   5.920
14785TIP3   OH244299   6.121   7.544   0.718
14785TIP3    H144300   6.067   7.467   0.737
14785TIP3    H244301   6.186   7.512   0.656
14786TIP3   OH244302   3.274   6.596   4.013
14786TIP3    H144303   3.201   6.583   3.952
14786TIP3    H244304   3.351   6.565   3.966
14787TIP3   OH244305   4.734   0.390   2.770
14787TIP3    H144306   4.808   0.332   2.788
14787TIP3    H244307   4.728   0.394   2.675
14788TIP3   OH244308   1.870   0.740   1.859
14788TIP3    H144309   1.820   0.821   1.872
14788TIP3    H244310   1.858   0.720   1.766
14789TIP3   OH244311   7.241   0.302   1.566
14789TIP3    H144312   7.312   0.289   1.503
14789TIP3    H244313   7.190   0.221   1.560
14790TIP3   OH244314   5.112   7.140   0.989
14790TIP3    H144315   5.069   7.204   0.933
14790TIP3    H244316   5.156   7.080   0.929
14791TIP3   OH244317   5.519   2.581   4.484
14791TIP3    H144318   5.447   2.529   4.519
14791TIP3    H244319   5.594   2.559   4.539
14792TIP3   OH244320   4.765   2.163   6.587
14792TIP3    H144321   4.738   2.113   6.510
14792TIP3    H244322   4.717   2.121   6.659
14793TIP3   OH244323   5.732   3.844   4.378
14793TIP3    H144324   5.782   3.917   4.341
14793TIP3    H244325   5.648   3.883   4.401
14794TIP3   OH244326   1.025   3.365   5.955
14794TIP3    H144327   1.007   3.421   5.879
14794TIP3    H244328   1.019   3.424   6.030
14795TIP3   OH244329   2.870   4.210   1.591
14795TIP3    H144330   2.842   4.260   1.514
14795TIP3    H244331   2.864   4.273   1.663
14796TIP3   OH244332   1.126   5.992   4.840
14796TIP3    H144333   1.186   6.000   4.766
14796TIP3    H244334   1.105   5.898   4.844
14797TIP3   OH244335   2.028   1.396   6.279
14797TIP3    H144336   1.971   1.345   6.221
14797TIP3    H244337   1.973   1.418   6.354
14798TIP3   OH244338   5.534   4.152   5.608
14798TIP3    H144339   5.455   4.102   5.630
14798TIP3    H244340   5.501   4.233   5.568
14799TIP3   OH244341   2.149   0.423   0.831
14799TIP3    H144342   2.074   0.385   0.877
14799TIP3    H244343   2.149   0.381   0.746
14800TIP3   OH244344   4.228   4.498   1.390
14800TIP3    H144345   4.236   4.579   1.340
14800TIP3    H244346   4.216   4.430   1.324
14801TIP3   OH244347   2.798   7.078   6.628
14801TIP3    H144348   2.792   7.173   6.630
14801TIP3    H244349   2.738   7.049   6.697
14802TIP3   OH244350   2.088   4.271   2.074
14802TIP3    H144351   2.176   4.235   2.061
14802TIP3    H244352   2.084   4.347   2.016
14803TIP3   OH244353   5.592   4.700   1.497
14803TIP3    H144354   5.578   4.774   1.438
14803TIP3    H244355   5.603   4.739   1.583
14804TIP3   OH244356   6.668   6.175   6.000
14804TIP3    H144357   6.757   6.157   5.970
14804TIP3    H244358   6.678   6.199   6.092
14805TIP3   OH244359   8.110   2.824   6.303
14805TIP3    H144360   8.062   2.906   6.311
14805TIP3    H244361   8.086   2.775   6.381
14806TIP3   OH244362   0.226   5.163   3.940
14806TIP3    H144363   0.312   5.133   3.966
14806TIP3    H244364   0.182   5.186   4.022
14807TIP3   OH244365   1.622   1.817   1.830
14807TIP3    H144366   1.705   1.801   1.785
14807TIP3    H244367   1.625   1.909   1.856
14808TIP3   OH244368   4.464   6.200   4.021
14808TIP3    H144369   4.487   6.284   3.982
14808TIP3    H244370   4.548   6.158   4.040
14809TIP3   OH244371   5.845   3.622   4.472
14809TIP3    H144372   5.926   3.631   4.422
14809TIP3    H244373   5.787   3.690   4.436
14810TIP3   OH244374   0.997   0.917   1.666
14810TIP3    H144375   0.960   0.863   1.735
14810TIP3    H244376   1.084   0.940   1.698
14811TIP3   OH244377   7.386   5.087   6.288
14811TIP3    H144378   7.476   5.085   6.256
14811TIP3    H244379   7.391   5.136   6.370
14812TIP3   OH244380   0.834   0.599   2.092
14812TIP3    H144381   0.786   0.655   2.032
14812TIP3    H244382   0.789   0.515   2.089
14813TIP3   OH244383   6.762   0.652   6.346
14813TIP3    H144384   6.700   0.604   6.291
14813TIP3    H244385   6.839   0.665   6.290
14814TIP3   OH244386   4.363   2.511   4.733
14814TIP3    H144387   4.273   2.478   4.725
14814TIP3    H244388   4.417   2.440   4.699
14815TIP3   OH244389   7.082   1.463   1.758
14815TIP3    H144390   7.069   1.402   1.685
14815TIP3    H244391   7.040   1.421   1.832
14816TIP3   OH244392   1.614   3.087   5.376
14816TIP3    H144393   1.630   3.011   5.432
14816TIP3    H244394   1.616   3.162   5.435
14817TIP3   OH244395   1.278   0.470   1.418
14817TIP3    H144396   1.221   0.483   1.343
14817TIP3    H244397   1.224   0.422   1.481
14818TIP3   OH244398   8.077   7.613   1.295
14818TIP3    H144399   8.033   7.660   1.225
14818TIP3    H244400   8.117   7.537   1.253
14819TIP3   OH244401   2.226   3.195   2.443
14819TIP3    H144402   2.202   3.197   2.535
14819TIP3    H244403   2.307   3.245   2.437
14820TIP3   OH244404   5.979   0.883   3.936
14820TIP3    H144405   6.045   0.817   3.918
14820TIP3    H244406   5.986   0.945   3.863
14821TIP3   OH244407   0.337   5.816   4.393
14821TIP3    H144408   0.260   5.760   4.394
14821TIP3    H244409   0.405   5.765   4.436
14822TIP3   OH244410   0.985   2.822   1.700
14822TIP3    H144411   1.077   2.813   1.675
14822TIP3    H244412   0.938   2.826   1.617
14823TIP3   OH244413   3.808   3.403   5.188
14823TIP3    H144414   3.817   3.414   5.283
14823TIP3    H244415   3.754   3.476   5.160
14824TIP3   OH244416   5.700   6.446   3.315
14824TIP3    H144417   5.675   6.419   3.404
14824TIP3    H244418   5.619   6.443   3.265
14825TIP3   OH244419   6.149   3.684   4.616
14825TIP3    H144420   6.237   3.648   4.605
14825TIP3    H244421   6.127   3.718   4.529
14826TIP3   OH244422   4.114   3.161   1.181
14826TIP3    H144423   4.157   3.156   1.096
14826TIP3    H244424   4.033   3.210   1.165
14827TIP3   OH244425   7.908   0.758   3.224
14827TIP3    H144426   7.980   0.807   3.264
14827TIP3    H244427   7.831   0.815   3.234
14828TIP3   OH244428   3.737   4.018   2.632
14828TIP3    H144429   3.756   4.084   2.565
14828TIP3    H244430   3.693   3.948   2.585
14829TIP3   OH244431   1.911   2.406   5.919
14829TIP3    H144432   1.816   2.414   5.909
14829TIP3    H244433   1.930   2.446   6.004
14830TIP3   OH244434   4.598   6.247   1.115
14830TIP3    H144435   4.651   6.227   1.038
14830TIP3    H244436   4.531   6.179   1.118
14831TIP3   OH244437   0.390   3.721   1.707
14831TIP3    H144438   0.358   3.763   1.627
14831TIP3    H244439   0.468   3.771   1.731
14832TIP3   OH244440   3.567   6.690   4.661
14832TIP3    H144441   3.627   6.650   4.724
14832TIP3    H244442   3.538   6.617   4.607
14833TIP3   OH244443   5.504   2.563   4.926
14833TIP3    H144444   5.479   2.655   4.915
14833TIP3    H244445   5.572   2.566   4.994
14834TIP3   OH244446   1.717   6.417   1.419
14834TIP3    H144447   1.750   6.374   1.340
14834TIP3    H244448   1.631   6.451   1.395
14835TIP3   OH244449   0.913   5.693   4.230
14835TIP3    H144450   0.971   5.718   4.158
14835TIP3    H244451   0.919   5.597   4.233
14836TIP3   OH244452   1.476   1.176   3.431
14836TIP3    H144453   1.439   1.258   3.464
14836TIP3    H244454   1.571   1.191   3.432
14837TIP3   OH244455   3.066   4.849   0.302
14837TIP3    H144456   3.067   4.813   0.213
14837TIP3    H244457   3.158   4.865   0.322
14838TIP3   OH244458   0.375   5.923   0.907
14838TIP3    H144459   0.394   5.946   0.998
14838TIP3    H244460   0.380   6.006   0.860
14839TIP3   OH244461   6.292   1.188   6.449
14839TIP3    H144462   6.356   1.188   6.520
14839TIP3    H244463   6.292   1.098   6.417
   8.29455   7.82018   6.77247   0.00000   0.00000  -2.76485   0.00000  -2.76485  -3.91009
